FOO
138240
    1MOL0     O    1   3.249   5.932   5.673 -0.0148  0.1765 -0.5353
    1MOL0     C    2   3.256   6.056   5.664 -0.5964  0.3255  0.2695
    1MOL0     O    3   3.361   6.129   5.706 -0.6813 -0.3247  0.0026
    1MOL0     C    4   3.475   6.075   5.752 -0.6665  0.4033  0.2029
    1MOL0     C    5   3.540   5.959   5.705 -0.2701  0.7231  0.4346
    1MOL0     C    6   3.666   5.921   5.756  0.3041  0.8376 -0.4929
    1MOL0     C    7   3.734   5.999   5.849 -0.6221  0.9546 -0.2745
    1MOL0     O    8   3.860   5.956   5.894 -0.4576 -0.5759 -0.5157
    1MOL0     C    9   3.923   6.046   5.986 -0.1756  0.3667  0.7021
    1MOL0     C   10   4.075   6.018   6.002  0.4241 -0.7057 -0.9416
    1MOL0     C   11   4.170   6.048   5.888  0.0320  0.7907  0.1941
    1MOL0     C   12   4.303   6.099   5.929  0.6634  0.7712 -0.7335
    1MOL0     C   13   4.396   6.120   5.810 -0.3733  0.4407 -0.7088
    1MOL0     C   14   4.530   6.182   5.843  0.2560  0.4611 -0.5557
    1MOL0     C   15   4.604   6.214   5.703  0.1844 -0.2982  0.9660
    1MOL0     C   16   4.755   6.255   5.701 -0.4190 -0.2973  0.9350
    1MOL0     N   17   4.831   6.184   5.802 -0.8407  0.8485  0.8651
    1MOL0     C   18   4.869   6.215   5.928 -0.7306 -0.3478 -0.3600
    1MOL0     C   19   4.924   6.104   5.982 -0.3120  0.8295  0.2564
    1MOL0     C   20   4.962   6.080   6.131 -0.2103 -0.1507  0.6392
    1MOL0     C   21   5.079   6.177   6.152  0.5110  0.7247 -0.2555
    1MOL0     C   22   5.112   6.199   6.303  1.0734 -0.6367  0.8646
    1MOL0     C   23   5.245   6.264   6.312 -0.8587  0.3316  0.1537
    1MOL0     O   24   5.336   6.161   6.332 -0.2895 -0.1017 -0.3568
    1MOL0     C   25   5.464   6.188   6.371  1.0125 -0.4869 -0.6102
    1MOL0     C   26   5.538   6.081   6.421 -0.3184  1.0212 -0.6190
    1MOL0     C   27   5.674   6.097   6.458 -0.5127  0.0229 -0.4601
    1MOL0     C   28   5.739   6.224   6.445  0.0793 -0.0094  0.2687
    1MOL0     C   29   5.888   6.234   6.468 -0.7951 -0.5240 -0.7508
    1MOL0     O   30   5.926   6.360   6.487 -0.3481  0.3809 -0.0021
    1MOL0     C   31   6.036   6.387   6.549  0.1589 -0.1355  0.1877
    1MOL0     C   32   6.065   6.354   6.683 -0.3205  0.0721 -0.3022
    1MOL0     C   33   6.177   6.411   6.747  0.1760  0.4563  0.6508
    1MOL0     C   34   6.252   6.501   6.686 -0.4101  0.4371  0.2704
    1MOL0     O   35   6.365   6.544   6.751  0.0048 -0.5975  0.1152
    1MOL0     C   36   6.397   6.682   6.747  0.2066  0.2069  0.5539
    1MOL0     C   37   6.552   6.698   6.745  0.2931 -0.5575 -0.1538
    1MOL0     C   38   6.629   6.654   6.620 -0.5985 -0.5800 -0.1139
    1MOL0     C   39   6.782   6.659   6.631  0.2805 -0.7370  0.1537
    1MOL0     C   40   6.837   6.797   6.615 -0.7922 -0.9351  0.4816
    1MOL0     C   41   6.998   6.793   6.580 -0.1891 -0.8048  0.8620
    1MOL0     C   42   7.101   6.744   6.687  0.3966 -0.2319  0.2748
    1MOL0     C   43   7.076   6.823   6.816 -0.4271 -0.0911 -0.1724
    1MOL0    Cl   44   6.939   6.782   6.918 -0.1741 -0.0248 -0.2676
    1MOL0     C   45   6.236   6.528   6.548  0.4044 -0.6459 -0.1253
    1MOL0     C   46   6.128   6.471   6.479 -1.3037  0.0393 -1.1747
    1MOL0     O   47   5.959   6.137   6.468  0.4311 -0.0680  0.5146
    1MOL0     C   48   5.655   6.332   6.415  1.0494 -0.0847  0.3339
    1MOL0     C   49   5.526   6.312   6.372 -0.4652 -0.3897  0.6619
    1MOL0     N   50   4.900   5.998   5.893 -0.5719  0.7582  0.1998
    1MOL0     N   51   4.850   6.050   5.785 -0.3971 -0.4645 -0.2283
    1MOL0     C   52   3.675   6.119   5.884 -0.2414 -0.3017 -0.0971
    1MOL0     C   53   3.545   6.155   5.835  0.2190 -0.1191  0.1722
    1MOL0     C   54   3.134   6.136   5.620  0.1407  0.2723  0.0020
    1MOL0     C   55   3.130   6.279   5.653  0.2930  0.7012  0.4377
    1MOL0     C   56   3.022   6.355   5.632 -0.3935 -0.2780  0.2115
    1MOL0     C   57   2.908   6.303   5.562  1.2787 -0.2139 -0.4965
    1MOL0     O   58   2.810   6.388   5.529  0.9184  0.0211 -0.6793
    1MOL0     C   59   2.680   6.335   5.481  0.2248  0.0232 -0.2392
    1MOL0     C   60   2.570   6.434   5.485 -0.2986 -0.6414  0.0465
    1MOL0     C   61   2.563   6.515   5.616  0.3348 -0.6136 -1.1159
    1MOL0     C   62   2.432   6.589   5.642  0.6784  0.1469  0.2948
    1MOL0     C   63   2.319   6.496   5.665 -0.3947 -0.0107 -0.0800
    1MOL0     C   64   2.233   6.415   5.681 -0.6571  0.4539 -0.6251
    1MOL0     C   65   2.908   6.166   5.536  0.0482 -0.4714 -0.2372
    1MOL0     C   66   3.015   6.085   5.563 -0.4244 -0.2950  0.0474
    1MOL0     C   67   2.989   5.943   5.538 -0.0880 -0.0207  0.5083
    1MOL0     H   68   3.486   5.887   5.644  2.5962 -1.5899  0.4241
    1MOL0     H   69   3.707   5.826   5.726  2.1633  1.4699 -0.0853
    1MOL0     H   70   3.917   6.153   5.961  1.7564  0.0069 -1.6354
    1MOL0     H   71   3.881   6.036   6.086  0.2903  0.9087  0.9614
    1MOL0     H   72   4.093   5.914   6.033 -1.3998 -0.4298  1.3474
    1MOL0     H   73   4.116   6.084   6.079 -0.4883  0.7703 -1.6959
    1MOL0     H   74   4.122   6.122   5.823  0.0889 -0.0149 -0.7861
    1MOL0     H   75   4.188   5.955   5.834 -1.9125  0.9785 -0.8416
    1MOL0     H   76   4.285   6.195   5.980  1.7893  1.1636 -1.0656
    1MOL0     H   77   4.352   6.034   6.003  5.1319  3.4536 -0.9837
    1MOL0     H   78   4.411   6.020   5.769  1.6540 -0.3842  1.8062
    1MOL0     H   79   4.350   6.189   5.738 -3.2996  0.0117  0.6112
    1MOL0     H   80   4.521   6.274   5.903 -1.1979 -0.2135  0.3056
    1MOL0     H   81   4.594   6.111   5.896 -1.7073 -2.7137 -2.1957
    1MOL0     H   82   4.545   6.293   5.657 -0.9530 -0.5640  1.9289
    1MOL0     H   83   4.590   6.133   5.630  0.0657  1.0628 -0.5663
    1MOL0     H   84   4.799   6.246   5.601  1.3516  1.6999  1.4693
    1MOL0     H   85   4.779   6.361   5.710  1.7562 -0.6480  0.0810
    1MOL0     H   86   4.863   6.308   5.983 -0.4555 -1.1767  1.1344
    1MOL0     H   87   4.871   6.098   6.189  0.7017 -1.6429  2.6879
    1MOL0     H   88   4.995   5.977   6.150  1.9199  0.3177 -0.2094
    1MOL0     H   89   5.161   6.123   6.104 -1.9875 -1.7117 -2.1744
    1MOL0     H   90   5.078   6.272   6.098  2.7666 -0.4810 -2.6387
    1MOL0     H   91   5.090   6.113   6.368  0.0346  0.1538  1.6048
    1MOL0     H   92   5.052   6.285   6.335  2.3967  0.4600  0.5028
    1MOL0     H   93   5.247   6.333   6.397 -2.4417 -0.3598  0.7857
    1MOL0     H   94   5.268   6.321   6.221  0.1290 -0.4992 -0.1309
    1MOL0     H   95   5.490   5.985   6.431 -1.6039  1.1629 -4.1071
    1MOL0     H   96   5.734   6.008   6.474  1.6438  1.6784  1.2648
    1MOL0     H   97   6.003   6.274   6.722  0.5852 -0.3902  0.2171
    1MOL0     H   98   6.217   6.376   6.842  1.1239 -1.0244 -0.2603
    1MOL0     H   99   6.358   6.722   6.653  1.7879  2.2013  0.6828
    1MOL0     H  100   6.344   6.729   6.830 -0.7345  0.2345 -0.0541
    1MOL0     H  101   6.585   6.801   6.763 -0.0350 -0.7375  1.7271
    1MOL0     H  102   6.588   6.635   6.827 -1.7929 -2.0184 -0.2649
    1MOL0     H  103   6.592   6.555   6.590 -0.1971 -0.4581 -1.0250
    1MOL0     H  104   6.597   6.716   6.535 -0.6623  1.6797  1.4700
    1MOL0     H  105   6.834   6.597   6.557  1.0345 -3.2629  2.5855
    1MOL0     H  106   6.816   6.611   6.723  1.2085 -3.0662 -1.3133
    1MOL0     H  107   6.826   6.854   6.708  0.6718  0.5773 -0.2172
    1MOL0     H  108   6.782   6.847   6.535 -1.3071  3.2133  3.1025
    1MOL0     H  109   7.013   6.741   6.485 -1.0991 -1.6111  1.1541
    1MOL0     H  110   7.029   6.896   6.560  1.3357 -1.1117  1.5110
    1MOL0     H  111   7.199   6.767   6.645  0.4034  0.6428  0.7301
    1MOL0     H  112   7.089   6.639   6.714  0.7836 -0.2233  0.4785
    1MOL0     H  113   7.164   6.818   6.881 -1.2069  4.3507  1.5431
    1MOL0     H  114   7.067   6.929   6.792 -3.0676 -0.3265 -0.5331
    1MOL0     H  115   6.295   6.596   6.488 -1.6049 -0.1981 -1.7033
    1MOL0     H  116   6.104   6.505   6.378 -0.4698 -0.6887 -1.6347
    1MOL0     H  117   5.694   6.433   6.413  0.5483  0.1612  1.7875
    1MOL0     H  118   5.462   6.394   6.339  0.2434 -0.8680 -2.2213
    1MOL0     H  119   3.716   6.189   5.956 -0.6779  0.2249 -0.3506
    1MOL0     H  120   3.503   6.248   5.871 -1.6969 -0.2134 -1.6801
    1MOL0     H  121   3.219   6.326   5.692  1.8402 -2.4507  0.9753
    1MOL0     H  122   3.024   6.461   5.656 -2.2715 -0.5005  1.5813
    1MOL0     H  123   2.644   6.258   5.551  2.1458  0.6965  1.5997
    1MOL0     H  124   2.687   6.294   5.380  1.7113 -1.8761  0.5578
    1MOL0     H  125   2.480   6.372   5.478 -0.8953  0.3191 -1.3092
    1MOL0     H  126   2.575   6.494   5.393 -1.2526 -0.8393 -0.1499
    1MOL0     H  127   2.642   6.591   5.614  1.2245 -1.5045 -0.9082
    1MOL0     H  128   2.585   6.442   5.694 -2.5784 -1.7054 -1.2274
    1MOL0     H  129   2.443   6.644   5.736  2.7316 -0.9679  0.7797
    1MOL0     H  130   2.400   6.667   5.573 -0.1335 -0.3503  0.1018
    1MOL0     H  131   2.150   6.347   5.682 -2.7929  2.9089  0.1432
    1MOL0     H  132   2.813   6.126   5.500  0.9571 -0.1758 -3.2202
    1MOL0     H  133   3.067   5.895   5.477 -0.0127  0.6287  0.0891
    1MOL0     H  134   2.966   5.892   5.632 -2.9073 -1.8535 -1.0285
    1MOL0     H  135   2.904   5.929   5.470  0.5042  3.5840 -1.1917
    2MOL0     O  136   4.743   7.774   9.286  0.1912  0.6720 -0.7755
    2MOL0     C  137   4.750   7.664   9.240 -0.3694  0.1096  0.0027
    2MOL0     O  138   4.860   7.586   9.246 -0.1175 -0.6105 -0.8605
    2MOL0     C  139   4.989   7.630   9.275 -0.0509 -0.0575  0.5997
    2MOL0     C  140   5.059   7.749   9.239 -0.3384 -0.8552  0.0235
    2MOL0     C  141   5.197   7.765   9.241  0.2188  0.0315 -0.5433
    2MOL0     C  142   5.273   7.668   9.304  0.9496  0.4645 -0.8245
    2MOL0     O  143   5.403   7.670   9.321 -0.0219 -0.0028 -0.0588
    2MOL0     C  144   5.477   7.752   9.231  0.1134 -0.1291 -0.5833
    2MOL0     C  145   5.631   7.746   9.267  0.3230  0.4878  0.2221
    2MOL0     C  146   5.709   7.849   9.180 -0.4587 -0.2606  0.8611
    2MOL0     C  147   5.856   7.839   9.209 -0.4505 -0.4552 -0.7985
    2MOL0     C  148   5.924   7.942   9.115 -0.4558  0.3680  0.0172
    2MOL0     C  149   6.074   7.914   9.119  0.4713 -0.2251  0.4695
    2MOL0     C  150   6.142   7.938   9.259  0.5085  0.5409 -0.2256
    2MOL0     C  151   6.292   7.935   9.244  0.0047  0.7665 -0.7754
    2MOL0     N  152   6.367   8.045   9.299 -0.9294  0.5570 -0.1744
    2MOL0     C  153   6.403   8.159   9.237  0.1914  0.0964 -0.7246
    2MOL0     C  154   6.487   8.230   9.317  0.2620 -0.5565 -0.0069
    2MOL0     C  155   6.544   8.363   9.285  0.4373 -0.8329 -0.4732
    2MOL0     C  156   6.509   8.487   9.367 -0.0071  0.1686 -0.1487
    2MOL0     C  157   6.527   8.474   9.518 -0.8469  0.5973 -0.2537
    2MOL0     C  158   6.676   8.458   9.566  0.2888  0.5091 -0.9459
    2MOL0     O  159   6.704   8.517   9.689 -0.2515 -0.3590  0.1421
    2MOL0     C  160   6.832   8.537   9.720  0.0463 -0.3172 -0.2565
    2MOL0     C  161   6.943   8.475   9.665 -0.5145 -0.3871  0.5043
    2MOL0     C  162   7.076   8.513   9.709  0.8332  0.2243 -0.3326
    2MOL0     C  163   7.088   8.614   9.811 -0.2241  0.1899  0.6278
    2MOL0     C  164   7.224   8.659   9.848 -0.5059  0.4070  0.0893
    2MOL0     O  165   7.234   8.756   9.938  0.3452  0.3275  0.0212
    2MOL0     C  166   7.357   8.786   9.983  0.3565  0.3725 -0.1294
    2MOL0     C  167   7.385   8.747  10.112 -0.6652 -0.0039 -1.0023
    2MOL0     C  168   7.516   8.774  10.173 -0.0011  0.6957  0.7480
    2MOL0     C  169   7.621   8.815  10.093  0.3247 -0.2851  0.9595
    2MOL0     O  170   7.753   8.822  10.123  0.1442  0.4996 -0.5032
    2MOL0     C  171   7.788   8.810  10.263  0.5410  0.2034 -0.8467
    2MOL0     C  172   7.936   8.839  10.297 -0.6148  0.0950  0.9761
    2MOL0     C  173   8.027   8.731  10.248 -0.5881  0.7038 -0.1062
    2MOL0     C  174   8.170   8.783  10.245 -0.0539 -0.0780  0.3876
    2MOL0     C  175   8.262   8.661  10.239 -0.3251 -0.6199  0.7103
    2MOL0     C  176   8.413   8.687  10.225  1.3692  0.4788 -0.1847
    2MOL0     C  177   8.477   8.803  10.310 -0.2561  0.2999 -0.2197
    2MOL0     C  178   8.635   8.801  10.285  0.4728  0.0986  0.2971
    2MOL0    Cl  179   8.695   8.945  10.352  0.4097 -0.0093 -0.1258
    2MOL0     C  180   7.580   8.857   9.964  0.2978  0.4597 -0.3089
    2MOL0     C  181   7.457   8.844   9.910  0.2202  0.4594 -0.2719
    2MOL0     O  182   7.321   8.588   9.808  1.0400 -0.7775  0.8221
    2MOL0     C  183   6.970   8.683   9.851 -0.4504 -0.5158 -0.6615
    2MOL0     C  184   6.846   8.650   9.804  0.2535 -0.2964  0.0360
    2MOL0     N  185   6.497   8.163   9.435  0.2770  0.0897 -0.0867
    2MOL0     N  186   6.430   8.050   9.422 -0.3284  0.4739 -0.1438
    2MOL0     C  187   5.207   7.551   9.350 -0.0724  0.5116  0.7266
    2MOL0     C  188   5.069   7.526   9.330  0.4467  0.0668  0.5530
    2MOL0     C  189   4.623   7.608   9.184 -0.3350  0.1093 -0.8875
    2MOL0     C  190   4.505   7.681   9.219 -0.2226  0.8016 -0.3218
    2MOL0     C  191   4.379   7.631   9.181 -0.9062  0.5925  0.3923
    2MOL0     C  192   4.359   7.519   9.100 -0.2701  0.0949  0.4987
    2MOL0     O  193   4.236   7.488   9.055  0.8779  0.5689 -0.4500
    2MOL0     C  194   4.205   7.346   9.076 -0.4353  0.0450  0.6705
    2MOL0     C  195   4.054   7.334   9.087 -0.1364  0.9149 -0.5817
    2MOL0     C  196   4.007   7.357   9.235 -0.3059 -0.0131  0.1049
    2MOL0     C  197   4.056   7.500   9.303  0.3948  0.9084  0.1020
    2MOL0     C  198   3.940   7.540   9.389 -0.3264  0.0862  0.6597
    2MOL0     C  199   3.844   7.587   9.447  0.7335  0.0530 -0.1818
    2MOL0     C  200   4.473   7.437   9.075 -0.6332 -0.0083  0.5567
    2MOL0     C  201   4.603   7.482   9.108  0.1529  0.1675  0.3796
    2MOL0     C  202   4.729   7.414   9.061 -0.2168  0.5175 -0.0515
    2MOL0     H  203   4.999   7.822   9.186 -0.8880  0.2559  2.0917
    2MOL0     H  204   5.242   7.856   9.203  1.9976 -0.9782 -0.9277
    2MOL0     H  205   5.461   7.724   9.126  1.4839  0.2592 -0.9209
    2MOL0     H  206   5.447   7.857   9.243 -0.5361 -0.5377  2.0045
    2MOL0     H  207   5.671   7.646   9.252  0.1909  0.5028 -0.2546
    2MOL0     H  208   5.651   7.769   9.372  0.5960  0.6617  0.1324
    2MOL0     H  209   5.669   7.949   9.201 -2.6779 -0.6974 -0.9337
    2MOL0     H  210   5.698   7.832   9.073  2.8316 -0.0331  0.3985
    2MOL0     H  211   5.890   7.868   9.309  0.2384 -2.2261 -0.4772
    2MOL0     H  212   5.884   7.734   9.198  0.4790 -0.7454  3.0212
    2MOL0     H  213   5.896   7.915   9.013  0.8344  2.2209 -0.8993
    2MOL0     H  214   5.899   8.048   9.131  0.8810  0.8689 -1.0534
    2MOL0     H  215   6.076   7.812   9.080 -0.3312  0.6259 -1.9996
    2MOL0     H  216   6.118   7.990   9.053 -2.1089 -0.7374 -2.0882
    2MOL0     H  217   6.100   7.860   9.323 -1.4850  2.0837  0.4411
    2MOL0     H  218   6.109   8.033   9.303  4.1709  1.3736  1.1042
    2MOL0     H  219   6.335   7.849   9.296  2.1318  2.9617  1.3830
    2MOL0     H  220   6.318   7.917   9.139 -0.9588  0.8173 -1.0343
    2MOL0     H  221   6.363   8.193   9.142 -1.6729 -1.8093 -0.7031
    2MOL0     H  222   6.652   8.355   9.301  0.2339 -0.9967  1.0112
    2MOL0     H  223   6.533   8.385   9.179 -0.1055 -1.7657 -0.6187
    2MOL0     H  224   6.570   8.572   9.334 -1.0692  1.5860  1.3518
    2MOL0     H  225   6.405   8.513   9.345  0.6610  1.5009 -2.0094
    2MOL0     H  226   6.466   8.392   9.559 -0.3642  0.0797 -0.5568
    2MOL0     H  227   6.498   8.573   9.554  1.1040  1.4454 -0.9171
    2MOL0     H  228   6.741   8.493   9.485 -1.7850  6.2484 -0.6328
    2MOL0     H  229   6.688   8.351   9.583  1.5863  0.8407  0.3871
    2MOL0     H  230   6.934   8.410   9.579 -0.7581  1.5041 -0.9569
    2MOL0     H  231   7.159   8.465   9.658 -0.8430 -1.2027 -1.8831
    2MOL0     H  232   7.312   8.704  10.179  1.0694 -2.0711 -0.3204
    2MOL0     H  233   7.535   8.740  10.274  2.6516 -0.4919 -0.0507
    2MOL0     H  234   7.720   8.882  10.310  2.3355  1.0701  0.5540
    2MOL0     H  235   7.767   8.712  10.307 -0.1589  1.8104  2.8091
    2MOL0     H  236   7.954   8.926  10.234  0.3993 -1.2602 -0.6795
    2MOL0     H  237   7.940   8.867  10.403 -0.4981  0.3303  0.9107
    2MOL0     H  238   8.015   8.652  10.322  0.9246 -1.2197 -1.8231
    2MOL0     H  239   7.997   8.707  10.145 -2.1697  2.7430 -0.1994
    2MOL0     H  240   8.197   8.853  10.324 -1.1887  0.1615  0.5793
    2MOL0     H  241   8.184   8.843  10.155 -1.3238  2.4575  1.7959
    2MOL0     H  242   8.233   8.587  10.164  2.7616 -0.4558 -0.7785
    2MOL0     H  243   8.248   8.614  10.336 -0.7742 -2.1312 -0.0561
    2MOL0     H  244   8.471   8.599  10.254  2.8026  1.0589 -1.2057
    2MOL0     H  245   8.424   8.701  10.117  0.0112  2.2298 -0.1525
    2MOL0     H  246   8.460   8.795  10.418 -1.4970 -3.0156 -0.5520
    2MOL0     H  247   8.439   8.902  10.281 -1.3762  0.0141  0.2357
    2MOL0     H  248   8.672   8.713  10.339  0.1485 -0.0757  0.2361
    2MOL0     H  249   8.658   8.791  10.179  0.5055 -1.7957  0.4439
    2MOL0     H  250   7.655   8.901   9.900 -1.3219  0.5408 -2.2309
    2MOL0     H  251   7.437   8.871   9.807  0.7297 -0.4744 -0.6332
    2MOL0     H  252   6.982   8.762   9.924  1.6626 -2.6375  1.4618
    2MOL0     H  253   6.758   8.705   9.835 -1.7608 -2.9611 -0.5969
    2MOL0     H  254   5.274   7.479   9.397 -2.5060 -0.9492  2.1647
    2MOL0     H  255   5.025   7.431   9.356  2.5488 -0.7525  1.3795
    2MOL0     H  256   4.502   7.770   9.281 -1.4341 -0.6146  1.7997
    2MOL0     H  257   4.286   7.683   9.200 -2.3352 -1.4817 -0.5292
    2MOL0     H  258   4.258   7.310   9.166 -0.0777 -0.6110  0.2048
    2MOL0     H  259   4.243   7.277   9.000 -4.2558 -0.6814 -0.7663
    2MOL0     H  260   4.033   7.228   9.074  3.0092 -0.4516  3.1949
    2MOL0     H  261   4.001   7.385   9.006 -0.2697  1.1690 -0.3380
    2MOL0     H  262   4.036   7.272   9.298 -0.2746 -1.7534 -2.1460
    2MOL0     H  263   3.899   7.341   9.222 -0.4136  0.4513  0.4239
    2MOL0     H  264   4.146   7.475   9.361  0.4803 -0.0546 -0.4212
    2MOL0     H  265   4.073   7.579   9.230 -0.4138  0.8707 -0.1350
    2MOL0     H  266   3.766   7.626   9.510  1.2449  0.2435  0.3435
    2MOL0     H  267   4.447   7.353   9.010 -1.2866  1.4815 -1.1840
    2MOL0     H  268   4.708   7.335   8.989  0.4463  1.7646 -1.6851
    2MOL0     H  269   4.794   7.480   9.002 -0.8650  0.4288 -0.8749
    2MOL0     H  270   4.789   7.379   9.146 -1.0216  1.1541  0.8018
    3MOL0     O  271   9.495   6.868   2.190  0.2268  0.2848 -0.0038
    3MOL0     C  272   9.503   6.755   2.236 -0.1665  0.0217  0.3090
    3MOL0     O  273   9.613   6.673   2.236 -0.2049  0.1618  0.1182
    3MOL0     C  274   9.738   6.717   2.211  0.1581  0.4542 -0.5972
    3MOL0     C  275   9.827   6.643   2.134  1.1039  0.3349  0.4209
    3MOL0     C  276   9.958   6.679   2.100 -0.4034 -0.8878  0.0748
    3MOL0     C  277  10.004   6.808   2.149 -0.6722 -0.1150  0.2601
    3MOL0     O  278  10.137   6.852   2.137 -0.1534  0.2342 -0.3865
    3MOL0     C  279  10.230   6.800   2.039  0.1328  0.8751 -0.8532
    3MOL0     C  280  10.231   6.893   1.915 -0.1296  0.1301  0.3272
    3MOL0     C  281  10.101   6.889   1.855 -1.0440 -1.0534  0.5534
    3MOL0     C  282  10.104   6.936   1.709 -0.8277 -0.3767 -1.2203
    3MOL0     C  283   9.963   6.951   1.654  0.3120  0.1379 -0.4836
    3MOL0     C  284   9.964   6.969   1.502  0.5799 -0.0709 -0.0886
    3MOL0     C  285  10.012   6.846   1.419 -0.0688 -0.1227 -0.4169
    3MOL0     C  286   9.973   6.868   1.273  0.4158  0.2087 -0.0314
    3MOL0     N  287  10.056   6.794   1.186  0.3575  0.3115  0.0947
    3MOL0     C  288  10.187   6.817   1.154  0.4999  0.0793 -1.2995
    3MOL0     C  289  10.229   6.700   1.099 -0.5454  0.1979  1.1238
    3MOL0     C  290  10.370   6.672   1.059  0.0214 -0.0721 -0.3748
    3MOL0     C  291  10.377   6.624   0.912  0.0013 -0.5246  0.4364
    3MOL0     C  292  10.511   6.654   0.852  0.1849 -0.6105 -0.0354
    3MOL0     C  293  10.642   6.613   0.923  1.2383  0.5489 -0.5094
    3MOL0     O  294  10.671   6.711   1.030  0.3920 -0.0460  0.4210
    3MOL0     C  295  10.763   6.675   1.136 -0.4388 -0.3322  1.0310
    3MOL0     C  296  10.796   6.540   1.172 -0.5161 -0.0394 -0.5298
    3MOL0     C  297  10.872   6.512   1.289 -1.0467 -0.1106  0.0744
    3MOL0     C  298  10.911   6.613   1.373 -0.6568 -1.0114 -0.7300
    3MOL0     C  299  10.981   6.589   1.498  0.2815  0.3860 -0.6109
    3MOL0     O  300  11.026   6.701   1.564  0.1198 -0.1526  0.2485
    3MOL0     C  301  11.109   6.677   1.673  0.5118 -0.7768 -0.1194
    3MOL0     C  302  11.082   6.746   1.796 -1.1665  0.6011 -0.3812
    3MOL0     C  303  11.161   6.724   1.902 -0.6803 -0.0264 -0.4618
    3MOL0     C  304  11.271   6.628   1.902  0.1752 -0.9215 -0.2290
    3MOL0     O  305  11.352   6.606   2.019  0.0300  0.4509 -0.7375
    3MOL0     C  306  11.480   6.535   2.023  0.6441 -0.8113 -0.3234
    3MOL0     C  307  11.522   6.546   2.169  0.5930  0.0490  1.3522
    3MOL0     C  308  11.577   6.681   2.209 -0.1573  0.3133  0.1658
    3MOL0     C  309  11.633   6.663   2.356 -0.3654 -0.3879 -0.0231
    3MOL0     C  310  11.700   6.795   2.404 -0.7804  1.0140  0.4290
    3MOL0     C  311  11.768   6.781   2.542 -0.2848 -1.0463  0.9225
    3MOL0     C  312  11.789   6.920   2.607 -0.9267  0.5318 -0.8361
    3MOL0     C  313  11.658   6.983   2.665  0.1147 -1.1233 -0.0012
    3MOL0    Cl  314  11.608   6.895   2.812 -0.4167  0.3597 -0.5174
    3MOL0     C  315  11.300   6.574   1.780  0.5361  0.2033 -0.0704
    3MOL0     C  316  11.218   6.591   1.668  0.4729 -0.9347 -0.2979
    3MOL0     O  317  10.991   6.474   1.538 -0.6599  0.3842 -0.0776
    3MOL0     C  318  10.896   6.740   1.326  0.3892 -0.5594  0.5671
    3MOL0     C  319  10.810   6.777   1.218 -1.0846 -0.2496 -0.2025
    3MOL0     N  320  10.129   6.614   1.081 -0.8104 -0.1598  0.4529
    3MOL0     N  321  10.025   6.665   1.139 -0.5214 -0.5719 -0.5584
    3MOL0     C  322   9.920   6.882   2.225  0.5201  0.8593 -0.3718
    3MOL0     C  323   9.790   6.843   2.272 -0.2953  0.3759  0.1757
    3MOL0     C  324   9.371   6.699   2.273  0.5101  0.1856 -0.1864
    3MOL0     C  325   9.315   6.604   2.189  0.6655  0.4173 -0.1904
    3MOL0     C  326   9.191   6.547   2.219  0.2142  0.2467  0.4991
    3MOL0     C  327   9.108   6.599   2.324 -0.4627  0.7655  0.6002
    3MOL0     O  328   8.987   6.540   2.339 -0.1561  0.7708  0.3639
    3MOL0     C  329   8.905   6.599   2.436  0.0395  0.8027  0.0264
    3MOL0     C  330   8.773   6.524   2.442  0.1022  0.7844 -1.3072
    3MOL0     C  331   8.684   6.541   2.327  0.2625 -0.7394 -0.1463
    3MOL0     C  332   8.531   6.535   2.351 -0.8401 -0.1505 -0.1721
    3MOL0     C  333   8.481   6.659   2.410 -1.0527  0.1790 -0.0289
    3MOL0     C  334   8.428   6.748   2.459  0.7490  0.0499 -0.4343
    3MOL0     C  335   9.168   6.708   2.398 -0.2451 -0.9565 -0.3143
    3MOL0     C  336   9.293   6.753   2.379 -0.4884  0.5714 -0.7371
    3MOL0     C  337   9.356   6.848   2.479  0.1293 -0.5626 -0.2527
    3MOL0     H  338   9.798   6.547   2.094 -0.2155  0.6160  0.6701
    3MOL0     H  339  10.023   6.611   2.046  3.1133 -1.3950  4.3378
    3MOL0     H  340  10.326   6.806   2.092 -1.4660  1.8517  2.1818
    3MOL0     H  341  10.208   6.693   2.027 -0.6434  0.5929  2.1408
    3MOL0     H  342  10.314   6.871   1.848  1.1457  0.7070  1.6499
    3MOL0     H  343  10.248   6.996   1.948  3.5037 -0.4430  0.6539
    3MOL0     H  344  10.037   6.964   1.903 -0.0001  0.1668  0.1142
    3MOL0     H  345  10.060   6.788   1.860  1.1121 -2.2081 -2.0505
    3MOL0     H  346  10.155   7.033   1.697 -2.9261  0.9280 -0.0712
    3MOL0     H  347  10.152   6.860   1.646  1.0595  0.3806 -0.7775
    3MOL0     H  348   9.907   6.862   1.683  1.2168  0.0382  1.0542
    3MOL0     H  349   9.913   7.034   1.705 -1.2785 -1.1479  0.1233
    3MOL0     H  350   9.866   6.993   1.459  0.5472  0.5770  0.3438
    3MOL0     H  351  10.017   7.060   1.475 -2.4606  2.2965  1.2900
    3MOL0     H  352   9.963   6.752   1.446  0.7680 -0.6575 -0.7182
    3MOL0     H  353  10.121   6.841   1.429 -0.3095 -0.4208  3.5025
    3MOL0     H  354   9.866   6.848   1.261 -0.1924  2.3091  1.3243
    3MOL0     H  355   9.987   6.973   1.244  1.0335  0.8758  2.4267
    3MOL0     H  356  10.251   6.901   1.180  1.2190  0.1383 -3.1532
    3MOL0     H  357  10.417   6.769   1.078  0.6932 -0.9054  2.8361
    3MOL0     H  358  10.414   6.603   1.132 -0.7895 -2.3157 -1.9036
    3MOL0     H  359  10.366   6.515   0.908  0.6219 -0.5693 -0.4572
    3MOL0     H  360  10.300   6.674   0.854 -0.9686 -0.9224  1.3467
    3MOL0     H  361  10.519   6.762   0.837  1.4882 -0.7404 -0.4107
    3MOL0     H  362  10.502   6.614   0.751 -2.2631 -1.2426  0.3704
    3MOL0     H  363  10.729   6.611   0.857  2.7075  0.0204  1.3627
    3MOL0     H  364  10.632   6.514   0.969  1.3046  1.1216  0.7815
    3MOL0     H  365  10.772   6.451   1.114 -1.9077  0.3490 -0.5788
    3MOL0     H  366  10.889   6.409   1.316  1.9966  0.1339 -0.4825
    3MOL0     H  367  10.993   6.804   1.814 -0.1536  1.4285  2.4059
    3MOL0     H  368  11.131   6.755   2.001  0.1423 -1.4029  0.2478
    3MOL0     H  369  11.471   6.433   1.983 -2.9572 -2.0689  3.0404
    3MOL0     H  370  11.550   6.597   1.967 -0.3617  0.3988 -0.3001
    3MOL0     H  371  11.440   6.513   2.234  1.2030 -2.6162  0.8731
    3MOL0     H  372  11.600   6.470   2.179 -0.7253 -1.4649  0.7810
    3MOL0     H  373  11.657   6.727   2.151  2.5460 -2.0542  1.7455
    3MOL0     H  374  11.489   6.747   2.205 -0.1908  0.6798  3.7879
    3MOL0     H  375  11.711   6.587   2.360  1.1854  1.0713 -1.0358
    3MOL0     H  376  11.553   6.632   2.424  0.5083 -0.0203  1.1989
    3MOL0     H  377  11.616   6.865   2.401 -1.6693 -0.0388 -0.3453
    3MOL0     H  378  11.777   6.807   2.328 -1.7837 -3.3692 -1.6132
    3MOL0     H  379  11.707   6.715   2.604 -0.4996 -2.5202 -0.7856
    3MOL0     H  380  11.868   6.737   2.532  1.1797  1.9773  0.8541
    3MOL0     H  381  11.823   6.990   2.530  2.4151 -1.8270 -1.6917
    3MOL0     H  382  11.864   6.914   2.685  1.3532  1.3780 -2.8396
    3MOL0     H  383  11.666   7.091   2.684 -3.6957 -0.1663 -2.6661
    3MOL0     H  384  11.581   6.974   2.589  2.0279 -0.6201 -2.1056
    3MOL0     H  385  11.386   6.508   1.780 -0.1227 -0.7440  2.0053
    3MOL0     H  386  11.242   6.547   1.572  0.4728 -0.0037 -0.7390
    3MOL0     H  387  10.940   6.823   1.381 -0.4607 -1.7949  3.2917
    3MOL0     H  388  10.788   6.876   1.181  2.2407  0.9101  0.5688
    3MOL0     H  389   9.959   6.977   2.259 -0.2256  1.0172  0.0748
    3MOL0     H  390   9.721   6.898   2.336 -0.8379 -1.1893  0.9942
    3MOL0     H  391   9.368   6.579   2.098  0.9889  1.5200 -0.3151
    3MOL0     H  392   9.141   6.477   2.153 -0.3109  1.3327 -0.2961
    3MOL0     H  393   8.887   6.705   2.414  0.5088  1.0513  0.8166
    3MOL0     H  394   8.955   6.588   2.532 -0.3386 -3.8794 -0.1128
    3MOL0     H  395   8.711   6.567   2.520  1.4224  1.9647 -0.8655
    3MOL0     H  396   8.788   6.420   2.474 -2.7232  0.2032 -1.5977
    3MOL0     H  397   8.712   6.457   2.263  1.3261 -0.8078  0.3867
    3MOL0     H  398   8.714   6.631   2.271 -0.8350  0.3073  0.8863
    3MOL0     H  399   8.468   6.528   2.261 -1.1704 -1.2547  0.1311
    3MOL0     H  400   8.498   6.451   2.411 -2.0366  1.6573  1.8289
    3MOL0     H  401   8.374   6.836   2.488  0.1176 -0.4336 -0.1085
    3MOL0     H  402   9.112   6.757   2.476  0.4517  0.0339 -0.4250
    3MOL0     H  403   9.375   6.946   2.434  1.2976  0.2639  1.8880
    3MOL0     H  404   9.291   6.870   2.564  1.1877  1.4689  0.1063
    3MOL0     H  405   9.455   6.815   2.512  0.3150  0.7604  0.5953
    4MOL0     O  406   5.106  10.423  10.636  0.3265 -0.2106  0.6842
    4MOL0     C  407   5.021  10.341  10.664 -0.1183  1.2048  0.3868
    4MOL0     O  408   5.039  10.209  10.680  0.9262 -0.3868  0.3658
    4MOL0     C  409   5.156  10.147  10.651 -0.3565 -0.6249 -0.0353
    4MOL0     C  410   5.156  10.090  10.528 -0.2534 -0.0910  0.3808
    4MOL0     C  411   5.279  10.026  10.492 -0.1549  0.5278 -0.2239
    4MOL0     C  412   5.387  10.013  10.582  0.5006  0.9859  0.2751
    4MOL0     O  413   5.494   9.942  10.528  0.0121 -0.5998 -0.2880
    4MOL0     C  414   5.581   9.895  10.624 -1.0565  0.4753 -0.9066
    4MOL0     C  415   5.682   9.801  10.548  0.1003 -0.6157  0.3087
    4MOL0     C  416   5.796   9.879  10.488 -0.7404  0.5439  0.0856
    4MOL0     C  417   5.863   9.799  10.379 -0.7408  0.6602  0.3006
    4MOL0     C  418   5.971   9.860  10.300  0.4126 -0.1035  0.0648
    4MOL0     C  419   6.097   9.898  10.374 -0.7444  0.1849 -0.5562
    4MOL0     C  420   6.212   9.924  10.282  0.4495 -0.4055 -0.2728
    4MOL0     C  421   6.349   9.959  10.348  0.4162  0.2529 -0.5256
    4MOL0     N  422   6.457   9.988  10.253 -0.0961  0.3329  0.7944
    4MOL0     C  423   6.448  10.066  10.141 -0.4189 -0.1172  0.2824
    4MOL0     C  424   6.556  10.041  10.066 -0.6555 -0.1877 -0.5549
    4MOL0     C  425   6.599  10.088   9.927  0.3789  0.4383  0.4422
    4MOL0     C  426   6.547   9.976   9.831  0.2708 -0.1913  0.1571
    4MOL0     C  427   6.577  10.029   9.686 -0.3432 -0.0098 -0.6051
    4MOL0     C  428   6.554   9.910   9.586  0.2850 -0.3888 -0.3334
    4MOL0     O  429   6.583   9.947   9.454  0.0049  0.2438 -0.3273
    4MOL0     C  430   6.710   9.953   9.405  0.6403 -0.0515  0.5630
    4MOL0     C  431   6.744   9.993   9.273 -0.4099 -0.2236 -0.5840
    4MOL0     C  432   6.873  10.011   9.232  0.4077  0.3524  0.1037
    4MOL0     C  433   6.981   9.966   9.306 -0.6466  0.2781  0.0582
    4MOL0     C  434   7.119   9.969   9.263 -0.4283 -0.8510  0.8056
    4MOL0     O  435   7.221   9.949   9.355 -1.3998 -0.4401 -0.0308
    4MOL0     C  436   7.357   9.945   9.320  0.3455 -0.1379 -0.1169
    4MOL0     C  437   7.445  10.024   9.391  0.2019  0.1967  0.7589
    4MOL0     C  438   7.581  10.014   9.362 -0.3769 -0.4815 -0.5004
    4MOL0     C  439   7.624   9.929   9.265 -0.3013  1.0619  0.1903
    4MOL0     O  440   7.759   9.929   9.244 -0.0596 -0.1550 -0.2045
    4MOL0     C  441   7.806   9.840   9.140  0.6978 -0.5279  0.5683
    4MOL0     C  442   7.962   9.860   9.119 -0.8121  0.2211  0.6800
    4MOL0     C  443   8.021   9.767   9.018 -0.6793 -0.0154  0.2222
    4MOL0     C  444   8.170   9.792   8.993 -0.7695  1.2570  0.4819
    4MOL0     C  445   8.275   9.739   9.091  0.3633  0.4888  0.3041
    4MOL0     C  446   8.408   9.807   9.072  0.3311 -0.8894  0.5661
    4MOL0     C  447   8.524   9.728   9.142 -0.4216 -0.7278  0.4351
    4MOL0     C  448   8.562   9.763   9.289 -0.0749  0.3682  0.0790
    4MOL0    Cl  449   8.419   9.740   9.387 -0.4353 -0.0203 -0.0070
    4MOL0     C  450   7.535   9.858   9.188  0.5564 -1.4569  0.2045
    4MOL0     C  451   7.399   9.867   9.218 -0.6019  0.1097 -0.0878
    4MOL0     O  452   7.140   9.977   9.144 -0.9410  0.5162  0.6270
    4MOL0     C  453   6.948   9.917   9.437 -0.1503 -0.5565  0.6913
    4MOL0     C  454   6.819   9.916   9.487  0.5501  0.0696  0.8526
    4MOL0     N  455   6.626   9.948  10.135  0.6379 -0.0834 -0.0565
    4MOL0     N  456   6.570   9.918  10.249 -0.2644 -0.2205  0.7759
    4MOL0     C  457   5.373  10.060  10.709  0.1267  0.4332 -0.0572
    4MOL0     C  458   5.251  10.123  10.747  0.1596 -0.2573 -0.7321
    4MOL0     C  459   4.884  10.384  10.699 -0.0105 -0.3154 -0.6559
    4MOL0     C  460   4.788  10.280  10.707  0.7954 -0.5467  0.1122
    4MOL0     C  461   4.656  10.309  10.741  0.8870  0.1579  0.5917
    4MOL0     C  462   4.618  10.440  10.771 -0.3920  0.7069  0.7708
    4MOL0     O  463   4.492  10.485  10.800 -0.3209  0.6944  0.2393
    4MOL0     C  464   4.381  10.413  10.747  0.1759  0.2068 -0.1339
    4MOL0     C  465   4.254  10.497  10.755  0.2294 -0.7199 -0.6232
    4MOL0     C  466   4.249  10.621  10.671 -0.6631 -0.5209  0.4067
    4MOL0     C  467   4.132  10.713  10.713 -0.6082  0.0622  1.0075
    4MOL0     C  468   4.024  10.682  10.620 -0.1158 -0.9837 -0.0939
    4MOL0     C  469   3.934  10.638  10.552 -0.2867 -0.0050  0.2068
    4MOL0     C  470   4.717  10.540  10.771 -0.6699  0.1633  0.3039
    4MOL0     C  471   4.847  10.517  10.731  0.1476 -0.2609  0.3480
    4MOL0     C  472   4.937  10.644  10.727 -0.5448 -0.8235  0.5818
    4MOL0     H  473   5.077  10.097  10.454 -0.8906 -0.4877  1.0136
    4MOL0     H  474   5.285   9.982  10.393 -2.9135  1.0322 -0.7112
    4MOL0     H  475   5.633   9.972  10.681 -0.3196 -0.7884  0.1846
    4MOL0     H  476   5.528   9.829  10.693  1.0259  1.1483  1.4933
    4MOL0     H  477   5.628   9.740  10.476 -2.0906 -1.5253  2.5694
    4MOL0     H  478   5.738   9.734  10.615  1.7080 -1.7414 -2.0374
    4MOL0     H  479   5.874   9.894  10.563  0.9687 -3.3491 -0.6587
    4MOL0     H  480   5.757   9.973  10.447 -2.4556  0.8249  2.1128
    4MOL0     H  481   5.892   9.699  10.411  0.6264  0.0308 -2.6203
    4MOL0     H  482   5.783   9.784  10.306 -2.0044  2.6245  1.1747
    4MOL0     H  483   5.976   9.784  10.221 -0.7151 -1.1458  0.9544
    4MOL0     H  484   5.928   9.940  10.238 -0.6407 -1.3557 -0.8815
    4MOL0     H  485   6.081   9.990  10.432 -0.8666 -0.8778  1.1806
    4MOL0     H  486   6.122   9.820  10.447 -2.4070 -1.2835 -1.4919
    4MOL0     H  487   6.182  10.002  10.212 -1.1670 -0.8966 -0.1726
    4MOL0     H  488   6.238   9.829  10.235  6.5131  1.0321 -0.6392
    4MOL0     H  489   6.325  10.041  10.416  1.1247  1.0116 -1.1704
    4MOL0     H  490   6.386   9.877  10.409  0.2874  0.1130 -0.6361
    4MOL0     H  491   6.377  10.135  10.097  1.2074  1.2224 -0.3912
    4MOL0     H  492   6.538  10.178   9.911 -4.3529 -2.2057  1.7777
    4MOL0     H  493   6.708  10.100   9.922  0.3150  0.3952 -1.6745
    4MOL0     H  494   6.609   9.887   9.843  0.8781  0.2967  0.7433
    4MOL0     H  495   6.441   9.959   9.852  0.0033 -2.6905 -2.5918
    4MOL0     H  496   6.682  10.058   9.684 -0.3985  0.1353 -2.0397
    4MOL0     H  497   6.514  10.114   9.659 -1.8134 -0.5147  1.0088
    4MOL0     H  498   6.450   9.882   9.605  0.7267 -0.1294  3.0519
    4MOL0     H  499   6.609   9.824   9.622 -1.9440 -0.1647  4.2988
    4MOL0     H  500   6.664  10.028   9.208  0.0371  0.3068 -0.8585
    4MOL0     H  501   6.890  10.059   9.137 -3.8298  1.2389 -0.3990
    4MOL0     H  502   7.411  10.086   9.474  0.7479  0.4408  0.8088
    4MOL0     H  503   7.658  10.073   9.411  0.9380 -2.2615 -0.3114
    4MOL0     H  504   7.778   9.740   9.173 -0.5152 -0.3643  0.0873
    4MOL0     H  505   7.751   9.857   9.047  1.3753 -2.7287 -0.2961
    4MOL0     H  506   7.983   9.959   9.078  2.9918 -1.3456 -1.6854
    4MOL0     H  507   8.022   9.857   9.210 -1.9282 -0.5405  1.4215
    4MOL0     H  508   8.014   9.666   9.059  1.1309 -1.3833 -2.4849
    4MOL0     H  509   7.963   9.778   8.925  0.7005  2.9241 -0.3905
    4MOL0     H  510   8.200   9.892   8.960 -0.0166  0.8137 -0.2029
    4MOL0     H  511   8.173   9.734   8.900 -2.1272  1.8506  0.0376
    4MOL0     H  512   8.278   9.630   9.083  0.2419  0.4518  0.7305
    4MOL0     H  513   8.246   9.751   9.196  0.7485 -3.6607  1.0618
    4MOL0     H  514   8.422   9.809   8.963 -0.0624  0.0456  0.5227
    4MOL0     H  515   8.392   9.911   9.100 -1.2648 -0.0015 -3.0348
    4MOL0     H  516   8.617   9.745   9.087 -1.9132 -2.2563 -2.8728
    4MOL0     H  517   8.509   9.619   9.138  0.8014 -0.9115  0.6122
    4MOL0     H  518   8.641   9.702   9.334 -0.4230 -0.2589 -0.1538
    4MOL0     H  519   8.601   9.865   9.286  2.3216 -0.4580 -3.5403
    4MOL0     H  520   7.563   9.788   9.110 -0.0141 -3.5252  1.7558
    4MOL0     H  521   7.323   9.800   9.178 -1.6647 -1.7190  4.4384
    4MOL0     H  522   7.015   9.906   9.522  0.3427  5.0899  1.4374
    4MOL0     H  523   6.821   9.877   9.588  4.7042  0.5390  1.1414
    4MOL0     H  524   5.457  10.047  10.777  2.5495 -0.9020 -3.0343
    4MOL0     H  525   5.235  10.160  10.847  1.1573  0.2377 -0.7436
    4MOL0     H  526   4.809  10.179  10.673  0.3593 -0.0922 -1.6185
    4MOL0     H  527   4.597  10.219  10.755 -1.7833  1.9107  1.3467
    4MOL0     H  528   4.372  10.320  10.805 -0.8940  0.0712 -0.4854
    4MOL0     H  529   4.389  10.374  10.645  0.9181  1.0759 -0.4123
    4MOL0     H  530   4.237  10.527  10.859  4.7372  1.0022 -0.1491
    4MOL0     H  531   4.168  10.431  10.739  0.9844 -2.0045  0.4391
    4MOL0     H  532   4.237  10.588  10.567  0.8764 -1.7293  0.5837
    4MOL0     H  533   4.339  10.683  10.671 -1.8830  1.3429  1.0910
    4MOL0     H  534   4.100  10.700  10.817 -1.0227  1.9101  1.1449
    4MOL0     H  535   4.167  10.816  10.706 -1.2082  0.3856  2.4756
    4MOL0     H  536   3.857  10.601  10.488  0.2560 -1.6988  0.4809
    4MOL0     H  537   4.695  10.643  10.797 -1.5754 -0.2171  1.1032
    4MOL0     H  538   5.030  10.630  10.782  0.4110 -1.9428 -1.2032
    4MOL0     H  539   4.969  10.664  10.624 -1.1509 -0.4606  0.4580
    4MOL0     H  540   4.889  10.735  10.765  1.7633  0.3499  0.8634
    5MOL0     O  541  11.055   8.706   2.654  0.4028  0.0730  0.0233
    5MOL0     C  542  11.048   8.624   2.562 -0.1496  0.2322  0.0101
    5MOL0     O  543  11.151   8.607   2.476  0.2066  0.0986  0.2036
    5MOL0     C  544  11.273   8.666   2.498  0.1321  0.2583 -0.3789
    5MOL0     C  545  11.314   8.750   2.400  0.0740 -0.0095  0.2009
    5MOL0     C  546  11.434   8.822   2.410 -0.4601 -0.7117 -0.8788
    5MOL0     C  547  11.516   8.797   2.521  0.2216 -0.0030  0.3230
    5MOL0     O  548  11.630   8.875   2.531 -0.1935 -0.3348  0.3001
    5MOL0     C  549  11.754   8.829   2.462 -0.1726  0.1230  0.2087
    5MOL0     C  550  11.870   8.794   2.564  0.3328 -0.0012  0.2058
    5MOL0     C  551  12.007   8.776   2.493 -0.1427  0.1201  0.0097
    5MOL0     C  552  12.029   8.857   2.363 -0.5637  0.4422  0.7079
    5MOL0     C  553  12.161   8.821   2.306 -0.1519 -0.5252  0.2829
    5MOL0     C  554  12.183   8.901   2.173 -1.3170  0.0642  0.7393
    5MOL0     C  555  12.133   8.827   2.043  0.5113 -0.2303  0.2537
    5MOL0     C  556  12.162   8.878   1.903  0.0702  0.5554 -0.4778
    5MOL0     N  557  12.304   8.875   1.884  0.0884  0.1582  0.7544
    5MOL0     C  558  12.382   8.987   1.878  1.0798 -0.2509 -0.3546
    5MOL0     C  559  12.498   8.942   1.827  0.1605 -0.1145  0.6353
    5MOL0     C  560  12.602   9.026   1.757 -0.2199  0.1370 -1.0111
    5MOL0     C  561  12.738   8.983   1.808  0.5718 -0.2335 -0.5653
    5MOL0     C  562  12.835   9.064   1.731  0.4057  0.2210 -0.5441
    5MOL0     C  563  12.974   9.033   1.769  0.1238  0.2996  0.3014
    5MOL0     O  564  12.998   8.890   1.760 -0.4235 -0.5698  0.4007
    5MOL0     C  565  13.127   8.853   1.752 -1.2302 -0.6525  0.7245
    5MOL0     C  566  13.151   8.717   1.734 -0.7008 -0.0475 -0.3164
    5MOL0     C  567  13.283   8.664   1.717 -0.4656  0.7555  0.0168
    5MOL0     C  568  13.394   8.750   1.720 -0.4008 -0.4206 -0.5601
    5MOL0     C  569  13.536   8.698   1.708  0.7245 -0.0349 -0.0457
    5MOL0     O  570  13.628   8.786   1.723  0.2904 -0.8597 -0.2983
    5MOL0     C  571  13.751   8.751   1.698 -0.4487 -0.1508  0.0264
    5MOL0     C  572  13.827   8.826   1.598  1.0613  0.2764 -0.8579
    5MOL0     C  573  13.958   8.794   1.572 -0.7067  1.3149 -0.3495
    5MOL0     C  574  14.028   8.692   1.647  0.3641  1.2725  0.1444
    5MOL0     O  575  14.163   8.661   1.644 -0.4823  0.5122 -0.2338
    5MOL0     C  576  14.231   8.713   1.526 -0.3684  1.1167  0.0917
    5MOL0     C  577  14.367   8.646   1.515 -0.3931  0.7393 -0.0775
    5MOL0     C  578  14.464   8.692   1.623  1.2853 -0.6215  0.2653
    5MOL0     C  579  14.589   8.596   1.628  0.8734 -0.3402 -1.4960
    5MOL0     C  580  14.710   8.665   1.693 -0.0279 -0.3217  1.2602
    5MOL0     C  581  14.843   8.586   1.686 -0.2587 -0.2007 -0.3211
    5MOL0     C  582  14.962   8.664   1.753 -0.9715 -0.6284 -0.2130
    5MOL0     C  583  15.099   8.597   1.723 -0.0027 -0.6507 -0.7162
    5MOL0    Cl  584  15.116   8.439   1.797 -0.2603  0.0931  0.1272
    5MOL0     C  585  13.951   8.606   1.734 -0.4717  0.1401  0.0623
    5MOL0     C  586  13.821   8.647   1.768  0.2017  0.4176 -0.0660
    5MOL0     O  587  13.547   8.574   1.701  0.1015  0.1120  1.5359
    5MOL0     C  588  13.366   8.883   1.742  0.7916  0.4022  0.6303
    5MOL0     C  589  13.235   8.930   1.757  0.4699 -0.5742 -0.6684
    5MOL0     N  590  12.495   8.799   1.833  0.8798  0.2711 -0.4229
    5MOL0     N  591  12.376   8.765   1.877 -0.3024 -0.2183  0.0220
    5MOL0     C  592  11.478   8.707   2.618  0.0930 -0.3661  0.3704
    5MOL0     C  593  11.352   8.642   2.616 -0.0274  0.6162 -0.2724
    5MOL0     C  594  10.928   8.541   2.539  0.0154  0.3395  0.1580
    5MOL0     C  595  10.935   8.469   2.412  0.6489  0.3845  0.4446
    5MOL0     C  596  10.825   8.405   2.360 -0.0290  0.1194 -0.3990
    5MOL0     C  597  10.701   8.404   2.425  0.0976  0.5107  0.6441
    5MOL0     O  598  10.585   8.372   2.359  0.2626 -0.1277  0.1223
    5MOL0     C  599  10.510   8.262   2.410 -0.4030  0.6227 -0.0305
    5MOL0     C  600  10.474   8.165   2.296  0.1827  0.1928  0.2239
    5MOL0     C  601  10.598   8.121   2.209  0.1754  0.4150 -0.0324
    5MOL0     C  602  10.542   8.018   2.108  0.1743  0.3051 -0.2332
    5MOL0     C  603  10.548   7.885   2.148 -0.2643  0.1264  0.1431
    5MOL0     C  604  10.559   7.773   2.196  0.4383  0.6238 -0.1260
    5MOL0     C  605  10.693   8.469   2.552 -0.4033 -0.5092 -0.7124
    5MOL0     C  606  10.806   8.532   2.616  0.7758 -1.6982 -0.9828
    5MOL0     C  607  10.797   8.593   2.753 -0.4673  0.2779  0.0214
    5MOL0     H  608  11.244   8.762   2.317  0.2523 -2.9349 -0.4892
    5MOL0     H  609  11.447   8.907   2.344  1.3422  1.7252  2.3198
    5MOL0     H  610  11.739   8.743   2.395 -0.2289 -0.7793  1.3405
    5MOL0     H  611  11.789   8.911   2.399  2.2138 -0.3922  0.7495
    5MOL0     H  612  11.837   8.714   2.632  0.3465 -0.2900 -0.1230
    5MOL0     H  613  11.874   8.881   2.630  1.2387  0.4345 -0.4104
    5MOL0     H  614  12.014   8.671   2.466 -0.4814  0.2317 -0.5137
    5MOL0     H  615  12.089   8.805   2.559  2.4914  1.0541 -3.3947
    5MOL0     H  616  11.956   8.838   2.284 -0.6617  0.3159  0.8284
    5MOL0     H  617  12.027   8.964   2.385 -2.7987  1.3302 -2.9490
    5MOL0     H  618  12.229   8.845   2.388 -2.1259 -0.1648  1.8772
    5MOL0     H  619  12.174   8.715   2.283  2.3848 -0.4980  1.2346
    5MOL0     H  620  12.129   8.996   2.171 -2.6998 -0.7052 -0.7192
    5MOL0     H  621  12.291   8.920   2.165 -1.2584 -0.3262  0.5703
    5MOL0     H  622  12.026   8.822   2.062  0.5226  1.4940  0.9141
    5MOL0     H  623  12.166   8.723   2.053 -0.3210 -0.3535  1.8866
    5MOL0     H  624  12.115   8.799   1.845  0.1390 -1.8936  2.5481
    5MOL0     H  625  12.117   8.973   1.870  0.7518  0.4206 -1.8741
    5MOL0     H  626  12.346   9.089   1.875 -1.6372 -1.0610  1.2727
    5MOL0     H  627  12.592   9.003   1.650 -0.5068 -1.9634 -0.5665
    5MOL0     H  628  12.589   9.133   1.775  0.2600 -0.1868  1.6328
    5MOL0     H  629  12.736   9.012   1.914 -1.4782 -0.0312 -0.6274
    5MOL0     H  630  12.742   8.875   1.787 -1.3733 -0.3569 -0.5271
    5MOL0     H  631  12.812   9.170   1.750 -0.4061  0.2399 -1.5049
    5MOL0     H  632  12.833   9.038   1.625  2.9337 -1.3969 -0.2704
    5MOL0     H  633  12.991   9.066   1.872  1.9005 -0.6989  0.3729
    5MOL0     H  634  13.038   9.089   1.700  0.2079  0.2836  0.3656
    5MOL0     H  635  13.066   8.651   1.724 -0.6632 -0.4455  1.5999
    5MOL0     H  636  13.296   8.557   1.705  1.4177  1.1295 -2.0709
    5MOL0     H  637  13.779   8.909   1.546 -1.5461 -0.0518  0.7846
    5MOL0     H  638  14.010   8.855   1.499  1.6225  0.3417  0.3648
    5MOL0     H  639  14.187   8.687   1.429  3.6425 -2.0816 -1.1482
    5MOL0     H  640  14.249   8.820   1.539  0.9757  0.6965  2.1823
    5MOL0     H  641  14.361   8.536   1.517  3.5987  0.3886  2.3385
    5MOL0     H  642  14.420   8.663   1.421 -1.7986 -0.5955 -1.1674
    5MOL0     H  643  14.494   8.792   1.591  0.4309 -0.5786 -0.4243
    5MOL0     H  644  14.428   8.699   1.726  0.7422 -2.2035  0.2165
    5MOL0     H  645  14.617   8.571   1.525 -0.2808 -1.7211 -1.5078
    5MOL0     H  646  14.568   8.505   1.685  1.4853  0.9311  0.8817
    5MOL0     H  647  14.684   8.692   1.796  1.0169 -4.7662  2.8947
    5MOL0     H  648  14.733   8.755   1.635  1.6784 -0.4176  1.7452
    5MOL0     H  649  14.828   8.490   1.738  1.9722 -0.5843 -0.2464
    5MOL0     H  650  14.873   8.569   1.582  1.6239  1.8170 -0.1906
    5MOL0     H  651  14.951   8.671   1.862  1.6174 -0.9386  0.1312
    5MOL0     H  652  14.958   8.767   1.717 -0.9920  1.0083  3.9557
    5MOL0     H  653  15.116   8.597   1.614  1.0954 -2.9997 -0.6148
    5MOL0     H  654  15.178   8.654   1.774 -1.9686  0.2930  1.4555
    5MOL0     H  655  13.995   8.524   1.790 -2.4634 -1.2535 -0.3137
    5MOL0     H  656  13.769   8.593   1.846  1.4700 -1.5252 -0.5076
    5MOL0     H  657  13.445   8.957   1.752 -0.5045  1.6779  1.6785
    5MOL0     H  658  13.218   9.036   1.770 -2.6316 -0.6140 -3.1530
    5MOL0     H  659  11.548   8.702   2.701  0.0133 -1.3367  0.3934
    5MOL0     H  660  11.317   8.580   2.698 -2.2475 -1.3057 -2.5365
    5MOL0     H  661  11.026   8.464   2.353 -0.6032 -1.8451 -1.4431
    5MOL0     H  662  10.841   8.359   2.264  1.8299  0.2947 -0.2071
    5MOL0     H  663  10.420   8.295   2.463 -2.7468 -2.9778 -1.3627
    5MOL0     H  664  10.580   8.208   2.474 -0.4132  3.2102  2.3632
    5MOL0     H  665  10.403   8.216   2.231  1.4898  1.8716  0.0526
    5MOL0     H  666  10.424   8.080   2.343  1.4078  0.2453  1.6737
    5MOL0     H  667  10.682   8.076   2.263  1.7880  1.9792 -1.1153
    5MOL0     H  668  10.642   8.211   2.166 -0.5625  0.1584 -1.3782
    5MOL0     H  669  10.439   8.040   2.081 -0.4425  0.3370  1.9984
    5MOL0     H  670  10.596   8.031   2.013 -1.9938  1.8021 -1.3470
    5MOL0     H  671  10.585   7.678   2.239 -0.5751  0.9778  1.3683
    5MOL0     H  672  10.600   8.451   2.603 -0.2618 -1.9918 -0.9352
    5MOL0     H  673  10.731   8.536   2.818  0.9916  1.4511  2.6782
    5MOL0     H  674  10.895   8.583   2.800 -0.6067  0.2450  0.3057
    5MOL0     H  675  10.765   8.697   2.757  0.8871  0.8449 -2.0197
    6MOL0     O  676   4.922   7.666   8.215 -0.0341  0.4258 -0.1708
    6MOL0     C  677   4.854   7.701   8.119  0.9320  0.0571  0.5104
    6MOL0     O  678   4.781   7.819   8.106 -0.0152 -0.2462 -0.1918
    6MOL0     C  679   4.747   7.884   8.223  0.7546 -0.6641  0.7666
    6MOL0     C  680   4.704   7.815   8.335  0.5802  0.2729  0.1970
    6MOL0     C  681   4.644   7.884   8.442  0.2143 -0.5818 -0.5668
    6MOL0     C  682   4.635   8.018   8.448 -0.0219  0.4579  0.6288
    6MOL0     O  683   4.591   8.086   8.555 -0.1206 -0.1657  0.2332
    6MOL0     C  684   4.623   8.034   8.687 -0.9090 -0.7379 -0.2170
    6MOL0     C  685   4.555   8.111   8.801  0.0722 -0.3830 -0.0424
    6MOL0     C  686   4.401   8.084   8.799  0.2148 -0.0231  0.3234
    6MOL0     C  687   4.358   7.984   8.907 -0.3223  0.0411  0.2048
    6MOL0     C  688   4.205   7.975   8.908 -0.3450 -0.1162 -0.3037
    6MOL0     C  689   4.140   7.860   8.988 -0.6105  1.0343 -0.1993
    6MOL0     C  690   3.988   7.879   8.991  0.5967  0.2319 -0.5001
    6MOL0     C  691   3.929   7.790   9.106 -0.5699 -0.0471 -0.5297
    6MOL0     N  692   3.812   7.857   9.173 -0.1389 -0.4106 -0.3251
    6MOL0     C  693   3.797   7.988   9.218  0.2352  0.6004  0.5073
    6MOL0     C  694   3.684   7.986   9.292  0.2604 -0.3854  0.5065
    6MOL0     C  695   3.624   8.104   9.366 -0.6123  0.1129  0.7422
    6MOL0     C  696   3.668   8.114   9.514 -0.6710  0.4524 -0.0435
    6MOL0     C  697   3.605   8.015   9.610 -0.7763 -1.2830  0.4026
    6MOL0     C  698   3.463   8.058   9.647  0.4981  0.2449  0.5370
    6MOL0     O  699   3.428   7.972   9.756  0.0590 -0.2201 -0.8196
    6MOL0     C  700   3.289   7.962   9.790 -0.5247  0.0572  0.6723
    6MOL0     C  701   3.258   7.866   9.886 -0.4195  0.3508  0.5465
    6MOL0     C  702   3.119   7.863   9.918  0.3285 -0.2239 -0.4781
    6MOL0     C  703   3.020   7.941   9.859  0.5583 -0.3943  0.4116
    6MOL0     C  704   2.888   7.937   9.906 -0.9424  0.2685  0.5706
    6MOL0     O  705   2.864   7.944  10.037 -0.1894 -0.1405 -0.4318
    6MOL0     C  706   2.738   7.945  10.080 -0.3622 -0.1206 -0.9594
    6MOL0     C  707   2.698   8.062  10.133  0.7301  0.1640 -0.4274
    6MOL0     C  708   2.573   8.077  10.182  0.4819 -0.1936 -0.4531
    6MOL0     C  709   2.482   7.969  10.173 -0.3228 -1.5760  0.3279
    6MOL0     O  710   2.355   8.004  10.210 -0.6748 -0.1875  0.3110
    6MOL0     C  711   2.241   7.925  10.175  0.1089 -0.7648  0.5429
    6MOL0     C  712   2.115   7.977  10.254 -0.1966 -0.1689  0.2812
    6MOL0     C  713   1.976   7.920  10.204  0.6124 -0.5294 -0.2070
    6MOL0     C  714   1.854   8.012  10.255  0.3269 -0.4081 -0.2937
    6MOL0     C  715   1.717   7.965  10.211  0.1492  0.4444  0.0359
    6MOL0     C  716   1.605   8.045  10.264 -0.1631  0.3908  0.3199
    6MOL0     C  717   1.460   8.009  10.215 -0.6679  0.1332 -0.4310
    6MOL0     C  718   1.418   7.876  10.263 -0.3362  0.0881  0.2189
    6MOL0    Cl  719   1.250   7.883  10.226 -0.4676 -0.2332 -0.0354
    6MOL0     C  720   2.521   7.844  10.120 -0.3684 -0.5197  0.1070
    6MOL0     C  721   2.653   7.836  10.077 -0.8944  1.1304  0.9506
    6MOL0     O  722   2.805   7.932   9.813  0.0567  0.0803  0.6123
    6MOL0     C  723   3.054   8.032   9.759  0.0194  0.6472 -0.4386
    6MOL0     C  724   3.185   8.036   9.721  1.0390 -0.8037  0.1703
    6MOL0     N  725   3.619   7.866   9.278 -0.3283 -0.1167  0.0112
    6MOL0     N  726   3.705   7.786   9.218  0.8394 -0.3357 -0.4103
    6MOL0     C  727   4.668   8.092   8.334 -0.1135 -1.0783 -0.3826
    6MOL0     C  728   4.720   8.019   8.220  0.2900 -0.4662 -0.3448
    6MOL0     C  729   4.838   7.601   8.018  0.2185  0.2489 -0.0655
    6MOL0     C  730   4.730   7.608   7.934  0.0750  0.4962 -0.5125
    6MOL0     C  731   4.700   7.507   7.841 -1.1676  0.1390  0.6060
    6MOL0     C  732   4.789   7.396   7.824  0.5734  0.3378  0.7822
    6MOL0     O  733   4.765   7.280   7.746  0.0049 -0.3913  0.6589
    6MOL0     C  734   4.637   7.261   7.681  0.4202 -0.5242  0.4324
    6MOL0     C  735   4.537   7.193   7.789  0.0862  0.5598 -0.0335
    6MOL0     C  736   4.613   7.122   7.911  0.1266  0.1419 -0.0344
    6MOL0     C  737   4.511   7.071   8.010 -0.6208  1.0325  0.3230
    6MOL0     C  738   4.463   6.931   7.985 -0.2442 -0.5423  0.3967
    6MOL0     C  739   4.411   6.830   7.960 -0.4907  0.8256  0.4064
    6MOL0     C  740   4.910   7.388   7.901 -0.4416  0.3216 -0.4276
    6MOL0     C  741   4.938   7.494   7.992  0.6557  0.7766  0.1330
    6MOL0     C  742   5.059   7.468   8.083 -0.1749 -0.3316 -0.1819
    6MOL0     H  743   4.710   7.707   8.339 -1.8744  0.0792  0.4291
    6MOL0     H  744   4.615   7.832   8.532  1.9535  1.6793  1.4248
    6MOL0     H  745   4.608   7.926   8.701 -3.1013 -0.6577 -1.4391
    6MOL0     H  746   4.731   8.049   8.700 -0.3029 -2.5506 -2.4758
    6MOL0     H  747   4.562   8.219   8.786 -0.1077 -0.3206  0.3105
    6MOL0     H  748   4.598   8.090   8.899 -1.9715 -1.7000  0.6502
    6MOL0     H  749   4.377   8.046   8.699  1.3788  1.4094 -0.5319
    6MOL0     H  750   4.332   8.167   8.816  0.7922  0.4100  0.5386
    6MOL0     H  751   4.398   7.885   8.881 -1.1888 -0.1278 -0.5195
    6MOL0     H  752   4.396   8.008   9.007 -2.2306  3.4013  0.2416
    6MOL0     H  753   4.159   8.061   8.959 -2.6397 -2.3418  1.6584
    6MOL0     H  754   4.169   7.969   8.805 -3.8465  0.7862  0.7127
    6MOL0     H  755   4.173   7.765   8.945 -0.2925  0.3766  1.4343
    6MOL0     H  756   4.171   7.873   9.092 -0.0522 -0.4156 -0.1624
    6MOL0     H  757   3.938   7.838   8.903 -0.6767 -0.6013  0.5832
    6MOL0     H  758   3.964   7.985   8.993 -0.2558  0.1646 -3.1858
    6MOL0     H  759   3.905   7.685   9.084 -1.0693 -0.8775  3.2323
    6MOL0     H  760   3.999   7.788   9.190 -1.6651 -0.2651  0.3932
    6MOL0     H  761   3.868   8.069   9.206  0.5475  0.3933  0.9508
    6MOL0     H  762   3.639   8.200   9.316  2.1361  0.0774  1.3438
    6MOL0     H  763   3.516   8.086   9.360 -0.5442  0.1288 -0.9073
    6MOL0     H  764   3.774   8.089   9.509 -1.1145 -1.4370 -2.9895
    6MOL0     H  765   3.658   8.219   9.542  1.3527  1.0788 -1.4532
    6MOL0     H  766   3.667   8.000   9.699  0.3828 -2.3683 -0.5418
    6MOL0     H  767   3.604   7.926   9.547  1.0954 -0.7271 -0.4575
    6MOL0     H  768   3.392   8.036   9.566  2.2264  0.6304 -1.1364
    6MOL0     H  769   3.469   8.162   9.681  1.0095 -0.9299  4.5846
    6MOL0     H  770   3.320   7.785   9.924  1.1181  0.6309 -1.2237
    6MOL0     H  771   3.085   7.790   9.989  0.1322 -0.8380 -1.1893
    6MOL0     H  772   2.771   8.141  10.148  2.1319 -1.2281  0.2533
    6MOL0     H  773   2.530   8.172  10.212  1.5767  0.6214 -1.3857
    6MOL0     H  774   2.221   7.928  10.067 -0.7439 -1.8856  0.6463
    6MOL0     H  775   2.261   7.820  10.197  0.0761 -0.8490  0.1858
    6MOL0     H  776   2.121   7.939  10.356 -0.3262  3.4979  1.7999
    6MOL0     H  777   2.123   8.086  10.258 -1.0107 -0.0254 -1.2316
    6MOL0     H  778   1.968   7.932  10.095 -4.3892  0.6186  0.0521
    6MOL0     H  779   1.973   7.823  10.254 -1.2646  0.1664  1.1436
    6MOL0     H  780   1.876   8.113  10.219  4.1263 -1.5357 -1.6268
    6MOL0     H  781   1.852   8.019  10.364 -2.3438 -0.8153 -0.2489
    6MOL0     H  782   1.706   7.863  10.248  2.1679 -0.9890 -2.8346
    6MOL0     H  783   1.711   7.961  10.101  0.9094  0.0417 -0.0036
    6MOL0     H  784   1.591   8.042  10.373 -0.1147  0.9822  0.3488
    6MOL0     H  785   1.615   8.149  10.230 -2.5601  0.8061  0.6935
    6MOL0     H  786   1.438   8.024  10.109 -2.6696  2.7270  0.2413
    6MOL0     H  787   1.395   8.091  10.251  1.2132  1.4308  0.1743
    6MOL0     H  788   1.456   7.788  10.209 -3.6498 -2.8234  2.2026
    6MOL0     H  789   1.432   7.855  10.370  1.7275 -1.3232 -0.2720
    6MOL0     H  790   2.444   7.768  10.116 -0.6316 -0.3118  0.8931
    6MOL0     H  791   2.696   7.751  10.027  0.0159  1.4248  1.2169
    6MOL0     H  792   2.968   8.081   9.714 -0.1053  0.6776 -0.1685
    6MOL0     H  793   3.210   8.112   9.648  0.8459 -1.3839 -0.5045
    6MOL0     H  794   4.671   8.201   8.335  0.1503 -1.0870  0.5736
    6MOL0     H  795   4.747   8.074   8.130  2.7795  1.1081  1.2212
    6MOL0     H  796   4.660   7.691   7.938 -1.4723 -0.6743 -2.0089
    6MOL0     H  797   4.615   7.523   7.775 -0.7217  0.1797  0.0272
    6MOL0     H  798   4.658   7.197   7.595 -0.8682  0.0574 -0.3467
    6MOL0     H  799   4.607   7.358   7.640  0.4669 -0.4135  0.6543
    6MOL0     H  800   4.479   7.126   7.725  1.0118  1.0769 -1.4576
    6MOL0     H  801   4.469   7.267   7.832 -1.7783 -0.9415 -0.2463
    6MOL0     H  802   4.667   7.193   7.975  1.0293 -0.6659  0.1213
    6MOL0     H  803   4.680   7.043   7.875  0.4941  0.4695 -0.0773
    6MOL0     H  804   4.560   7.070   8.108  2.4767  0.1699 -1.1050
    6MOL0     H  805   4.425   7.138   8.013 -1.0071  0.6237 -1.0541
    6MOL0     H  806   4.369   6.736   7.931 -3.4114  2.5068 -1.3134
    6MOL0     H  807   4.974   7.302   7.890 -0.6913 -0.0301  0.7665
    6MOL0     H  808   5.127   7.553   8.096 -1.0025  0.2148  0.7615
    6MOL0     H  809   5.018   7.440   8.180  0.4333  1.6463  0.7084
    6MOL0     H  810   5.116   7.390   8.033 -1.3160 -0.5824 -1.1480
    7MOL0     O  811   4.242   4.009   3.344  0.2340 -0.4243 -0.3562
    7MOL0     C  812   4.192   3.908   3.376  0.1887 -0.0975  0.2884
    7MOL0     O  813   4.251   3.793   3.394  0.5142 -0.0834  0.4475
    7MOL0     C  814   4.388   3.803   3.392 -0.4905 -0.0770 -0.5764
    7MOL0     C  815   4.453   3.864   3.498 -0.0569 -1.5552 -0.4317
    7MOL0     C  816   4.588   3.871   3.502 -0.5161  0.4251 -0.1841
    7MOL0     C  817   4.668   3.804   3.406  0.6701  0.2322 -0.3094
    7MOL0     O  818   4.806   3.819   3.418  1.1789  0.2443 -0.8786
    7MOL0     C  819   4.891   3.745   3.334  0.6743  0.1906  0.0453
    7MOL0     C  820   5.034   3.739   3.391 -0.2271  0.1925  0.9948
    7MOL0     C  821   5.096   3.867   3.433 -0.0681  0.2605 -0.3008
    7MOL0     C  822   5.237   3.840   3.490 -0.1702  0.3482 -1.1159
    7MOL0     C  823   5.318   3.968   3.520 -0.6785  0.2181 -0.4318
    7MOL0     C  824   5.471   3.936   3.524  0.1914  0.1805 -0.0051
    7MOL0     C  825   5.563   4.053   3.482  0.2142 -0.0333 -1.0843
    7MOL0     C  826   5.542   4.106   3.341  1.0045 -0.0212 -0.6514
    7MOL0     N  827   5.659   4.168   3.281  0.1463 -0.1000 -0.6581
    7MOL0     C  828   5.760   4.093   3.246  0.9955 -0.0998  0.4433
    7MOL0     C  829   5.842   4.186   3.188  0.4258 -0.1635 -0.3434
    7MOL0     C  830   5.984   4.172   3.138  0.5393 -0.6223  0.0479
    7MOL0     C  831   6.075   4.228   3.249 -0.3924  0.4215 -0.2926
    7MOL0     C  832   6.218   4.242   3.188  0.7146 -0.0730  0.0565
    7MOL0     C  833   6.315   4.271   3.292  0.2282 -0.0996 -0.1770
    7MOL0     O  834   6.441   4.293   3.233 -0.4351  0.2610  0.1735
    7MOL0     C  835   6.551   4.332   3.307 -0.1989  0.3220 -0.2383
    7MOL0     C  836   6.542   4.352   3.443 -0.5317 -0.7944 -0.4668
    7MOL0     C  837   6.652   4.400   3.518 -0.8097  0.4308  1.0997
    7MOL0     C  838   6.773   4.431   3.458 -0.0486 -0.1136 -0.3095
    7MOL0     C  839   6.890   4.484   3.541  0.3898 -0.5902 -0.3708
    7MOL0     O  840   7.017   4.480   3.482 -0.2253 -1.0004 -0.3115
    7MOL0     C  841   7.125   4.528   3.561  0.2061  0.0944  0.6651
    7MOL0     C  842   7.173   4.473   3.682 -0.0469  0.0540  0.5942
    7MOL0     C  843   7.279   4.545   3.745 -0.0184  0.6057 -1.0420
    7MOL0     C  844   7.355   4.644   3.687  0.5257 -0.5780  0.3110
    7MOL0     O  845   7.452   4.698   3.767  0.6797 -0.5805 -0.7436
    7MOL0     C  846   7.530   4.811   3.719  0.5211  0.2818 -0.3303
    7MOL0     C  847   7.518   4.929   3.813 -0.0706  0.8367 -0.2824
    7MOL0     C  848   7.603   4.924   3.940  0.2964  0.3070 -0.2634
    7MOL0     C  849   7.532   4.992   4.063 -0.4222  0.5906  0.4170
    7MOL0     C  850   7.612   4.980   4.189 -0.2039 -0.1458 -0.3891
    7MOL0     C  851   7.540   5.067   4.304 -0.7538  0.8148 -0.2581
    7MOL0     C  852   7.624   5.077   4.431  0.5803 -0.8890  0.1309
    7MOL0     C  853   7.615   4.951   4.521 -0.4002  0.8654 -0.2107
    7MOL0    Cl  854   7.451   4.918   4.588 -0.2246  0.3213 -0.3046
    7MOL0     C  855   7.314   4.690   3.553  0.8218  0.2895 -0.1016
    7MOL0     C  856   7.194   4.638   3.499 -0.0115  0.0709  0.2204
    7MOL0     O  857   6.871   4.527   3.659  0.2570 -0.1299  0.2656
    7MOL0     C  858   6.789   4.422   3.316 -0.6940  0.6590 -1.0390
    7MOL0     C  859   6.677   4.361   3.241  0.1653  0.9957  0.3601
    7MOL0     N  860   5.782   4.314   3.204 -0.1822  0.8426  0.0699
    7MOL0     N  861   5.675   4.301   3.261  0.0224  0.6767  0.4667
    7MOL0     C  862   4.597   3.738   3.298 -0.4287 -0.0030 -0.0371
    7MOL0     C  863   4.461   3.744   3.294  0.2971  0.3223 -0.1141
    7MOL0     C  864   4.043   3.907   3.420 -0.0599  0.5714 -0.3182
    7MOL0     C  865   3.992   3.783   3.458  0.1207 -0.5492  0.6467
    7MOL0     C  866   3.861   3.775   3.505  0.4479 -1.4995 -0.2231
    7MOL0     C  867   3.771   3.885   3.489 -0.8190 -0.0055  0.0623
    7MOL0     O  868   3.639   3.888   3.535  0.0156  0.9057 -0.2687
    7MOL0     C  869   3.603   3.777   3.618  0.1119  0.8674 -0.3569
    7MOL0     C  870   3.477   3.808   3.702 -0.2126 -0.9973 -0.4995
    7MOL0     C  871   3.410   3.693   3.772 -0.4844  0.7480  0.2749
    7MOL0     C  872   3.299   3.617   3.691  0.1855  0.2499  0.9319
    7MOL0     C  873   3.173   3.650   3.747 -0.4159 -0.7668  0.6167
    7MOL0     C  874   3.065   3.677   3.797 -0.6765 -0.5285  0.2670
    7MOL0     C  875   3.822   4.016   3.448 -0.3142  0.4183  0.3862
    7MOL0     C  876   3.957   4.023   3.420  0.2944  0.4844 -0.3696
    7MOL0     C  877   4.009   4.155   3.359 -0.2338  0.2292  0.2949
    7MOL0     H  878   4.396   3.906   3.580 -0.0663 -1.2636 -0.5860
    7MOL0     H  879   4.641   3.907   3.589 -1.5977  0.5370  0.4412
    7MOL0     H  880   4.860   3.642   3.321  0.0096  0.6473 -2.2816
    7MOL0     H  881   4.882   3.784   3.232  0.5205  2.1536  0.7527
    7MOL0     H  882   5.098   3.704   3.309 -0.1622 -2.6908  2.1649
    7MOL0     H  883   5.024   3.669   3.474 -1.2871 -0.7735  0.0828
    7MOL0     H  884   5.037   3.919   3.509  1.4509 -1.5393  2.2994
    7MOL0     H  885   5.106   3.936   3.349  1.0716 -0.1153 -0.4994
    7MOL0     H  886   5.229   3.773   3.576 -2.0401  0.0643 -1.4667
    7MOL0     H  887   5.291   3.778   3.418 -0.2415  1.2388 -1.9510
    7MOL0     H  888   5.303   4.039   3.438 -1.9075 -1.3336 -1.6176
    7MOL0     H  889   5.283   4.017   3.611 -0.2578 -0.8688  0.3375
    7MOL0     H  890   5.499   3.909   3.626  0.8106 -0.6415 -0.3852
    7MOL0     H  891   5.493   3.852   3.457 -0.8648  1.0086 -1.4494
    7MOL0     H  892   5.664   4.013   3.496  0.9846  1.0633 -3.1208
    7MOL0     H  893   5.542   4.130   3.557  0.2018 -0.0419 -1.0788
    7MOL0     H  894   5.507   4.029   3.272 -0.1403  0.6593 -0.8553
    7MOL0     H  895   5.468   4.186   3.344 -0.7175 -1.5339  2.6945
    7MOL0     H  896   5.762   3.986   3.263 -0.0619  0.1210  2.1925
    7MOL0     H  897   6.012   4.071   3.109 -0.3541 -1.2050  1.1415
    7MOL0     H  898   5.994   4.232   3.047 -0.0888 -1.1567 -0.3758
    7MOL0     H  899   6.030   4.323   3.281 -1.5226 -0.3946  0.6047
    7MOL0     H  900   6.070   4.166   3.338  0.8427  1.0008  0.2015
    7MOL0     H  901   6.223   4.314   3.106 -0.8845  1.6766  1.4046
    7MOL0     H  902   6.239   4.149   3.136 -2.2381 -2.0742  2.0953
    7MOL0     H  903   6.317   4.196   3.372  0.4534 -0.9567 -0.9539
    7MOL0     H  904   6.282   4.364   3.337  0.2034  0.5595 -1.5128
    7MOL0     H  905   6.447   4.349   3.496 -0.2139 -0.0335  0.1760
    7MOL0     H  906   6.645   4.430   3.622 -0.2775  0.5473  1.1048
    7MOL0     H  907   7.139   4.380   3.726  4.0467 -1.6007  0.6297
    7MOL0     H  908   7.311   4.504   3.840  2.6307  2.1930 -1.1610
    7MOL0     H  909   7.636   4.783   3.721  0.8429  1.4973  1.1197
    7MOL0     H  910   7.495   4.842   3.620 -0.4640 -1.3801 -0.5413
    7MOL0     H  911   7.570   5.006   3.756 -0.8716 -0.6634 -3.2643
    7MOL0     H  912   7.414   4.956   3.832  0.3002  0.3867  2.8198
    7MOL0     H  913   7.629   4.822   3.970  3.8570  0.4513 -2.2585
    7MOL0     H  914   7.697   4.977   3.920 -0.0478  0.6252 -1.0920
    7MOL0     H  915   7.433   4.948   4.076 -1.2732  2.1000 -0.7204
    7MOL0     H  916   7.518   5.099   4.045 -1.1336  0.4839  0.3342
    7MOL0     H  917   7.714   5.018   4.178  0.7518 -2.5950 -0.6729
    7MOL0     H  918   7.620   4.873   4.208 -0.2203  0.2158  1.9073
    7MOL0     H  919   7.534   5.172   4.272 -2.6945  0.1341 -2.4383
    7MOL0     H  920   7.446   5.029   4.344  1.4493 -1.2536  3.5261
    7MOL0     H  921   7.581   5.163   4.483 -1.8550  0.8121 -4.1683
    7MOL0     H  922   7.725   5.100   4.396 -0.4465 -0.6507 -2.9841
    7MOL0     H  923   7.642   4.861   4.465 -0.4378 -1.5658  3.3317
    7MOL0     H  924   7.688   4.953   4.603 -0.9531  0.8931  0.2855
    7MOL0     H  925   7.381   4.740   3.484  2.7826 -1.3556  0.5018
    7MOL0     H  926   7.153   4.677   3.405 -1.1721 -2.2590 -0.3150
    7MOL0     H  927   6.875   4.466   3.266 -0.7636 -2.3310 -4.1404
    7MOL0     H  928   6.692   4.339   3.136  0.4971 -1.7134  0.8914
    7MOL0     H  929   4.652   3.663   3.240 -1.2857 -1.1151  0.5423
    7MOL0     H  930   4.419   3.690   3.210  0.1758 -0.9801  0.7421
    7MOL0     H  931   4.051   3.698   3.490  0.0466 -0.1552  1.8959
    7MOL0     H  932   3.833   3.681   3.551  0.2494 -1.0201  0.6606
    7MOL0     H  933   3.684   3.756   3.688 -0.8989 -0.4133  0.4638
    7MOL0     H  934   3.589   3.691   3.552  0.7726  0.2000  0.3617
    7MOL0     H  935   3.402   3.858   3.640  1.1076 -1.4452 -2.5588
    7MOL0     H  936   3.510   3.884   3.772 -0.8576 -1.3647  0.2263
    7MOL0     H  937   3.359   3.731   3.861  0.2819  2.8093 -0.1204
    7MOL0     H  938   3.483   3.617   3.802 -2.1242 -0.5354  1.2414
    7MOL0     H  939   3.277   3.653   3.589 -0.6380  0.1070  1.0505
    7MOL0     H  940   3.315   3.509   3.699 -1.9213 -0.3050 -1.0463
    7MOL0     H  941   2.965   3.689   3.834  0.1915  0.2272  2.5357
    7MOL0     H  942   3.769   4.110   3.445 -2.3521 -0.6823 -0.0203
    7MOL0     H  943   4.035   4.133   3.255  0.0070  2.7840 -0.2508
    7MOL0     H  944   3.928   4.229   3.361 -2.3713 -1.9636 -0.1715
    7MOL0     H  945   4.096   4.190   3.415 -0.4775  2.6735 -0.7189
    8MOL0     O  946  10.364   7.064   1.374 -0.5821 -0.0260 -0.3170
    8MOL0     C  947  10.491   7.071   1.377  0.0927 -0.1432  0.1497
    8MOL0     O  948  10.573   7.142   1.292 -0.3296  0.5060  0.2881
    8MOL0     C  949  10.500   7.231   1.224 -0.3760 -0.3918 -0.5466
    8MOL0     C  950  10.451   7.214   1.092  0.0410 -0.4717 -0.0220
    8MOL0     C  951  10.400   7.331   1.029  0.2272  0.2871  0.5843
    8MOL0     C  952  10.392   7.459   1.092 -1.3488 -1.3330 -0.0794
    8MOL0     O  953  10.351   7.563   1.008  0.3246  0.7131 -0.5314
    8MOL0     C  954  10.342   7.698   1.062 -0.0545  0.3779 -0.3714
    8MOL0     C  955  10.451   7.792   0.997 -0.6460 -0.1357 -0.1873
    8MOL0     C  956  10.599   7.746   1.033 -0.5966 -0.2458  0.5912
    8MOL0     C  957  10.702   7.853   0.991  0.3441 -0.3068  0.8004
    8MOL0     C  958  10.843   7.820   1.028  0.0062 -0.0055  0.2342
    8MOL0     C  959  10.887   7.684   0.984 -0.6901  0.5341  0.0643
    8MOL0     C  960  11.020   7.625   1.037 -0.4183  0.0907  0.1698
    8MOL0     C  961  11.141   7.727   1.013  0.4423  0.1936 -0.1688
    8MOL0     N  962  11.268   7.670   1.061  0.3031  0.4183  0.4691
    8MOL0     C  963  11.331   7.565   0.999 -0.3136  0.3688  0.2618
    8MOL0     C  964  11.447   7.543   1.060  0.0300 -0.2619  0.2077
    8MOL0     C  965  11.538   7.421   1.031 -0.1290  0.7224 -0.0274
    8MOL0     C  966  11.675   7.475   0.973  0.2114  0.1810 -0.0633
    8MOL0     C  967  11.732   7.385   0.863 -0.5172 -0.1104  0.2308
    8MOL0     C  968  11.769   7.256   0.924  0.1259  1.0140  0.3123
    8MOL0     O  969  11.876   7.254   1.014  0.0267 -1.0507  0.4694
    8MOL0     C  970  12.012   7.244   0.977  0.3488  0.3411 -0.0821
    8MOL0     C  971  12.059   7.269   0.851  0.1473 -0.2221 -1.5197
    8MOL0     C  972  12.200   7.277   0.825  0.1026  0.1330 -0.4139
    8MOL0     C  973  12.295   7.254   0.929 -0.1644  0.8267 -0.1638
    8MOL0     C  974  12.443   7.262   0.913  0.8066 -0.6926  1.0662
    8MOL0     O  975  12.517   7.241   1.023 -0.9212 -0.7671 -0.0497
    8MOL0     C  976  12.656   7.263   1.024 -0.1617 -0.2557  0.2640
    8MOL0     C  977  12.737   7.181   1.108  0.8163  1.1808 -0.2852
    8MOL0     C  978  12.872   7.193   1.121  0.0044 -0.2428  0.7149
    8MOL0     C  979  12.940   7.286   1.038  0.3902  0.1898 -0.0668
    8MOL0     O  980  13.072   7.279   1.054 -0.1929 -0.2499 -0.5197
    8MOL0     C  981  13.156   7.358   0.962  0.9304 -0.4465 -0.2258
    8MOL0     C  982  13.298   7.305   0.969 -0.2005 -0.5638 -0.1930
    8MOL0     C  983  13.393   7.361   0.871  0.0835 -0.4920  0.2267
    8MOL0     C  984  13.399   7.515   0.880 -0.0490  0.6587 -0.6213
    8MOL0     C  985  13.510   7.577   0.802  0.5492  0.1211 -0.3087
    8MOL0     C  986  13.536   7.724   0.842  0.5805  0.7244  0.1606
    8MOL0     C  987  13.622   7.804   0.739 -0.6880  0.4910 -0.3275
    8MOL0     C  988  13.607   7.961   0.727 -0.5059  1.3127 -0.9025
    8MOL0    Cl  989  13.728   8.008   0.600  0.0447 -0.4108  0.0476
    8MOL0     C  990  12.864   7.376   0.956  0.2789 -0.4713  0.4387
    8MOL0     C  991  12.722   7.367   0.951  0.0225  0.3023 -0.1386
    8MOL0     O  992  12.491   7.293   0.804  0.5885  0.3345  0.4976
    8MOL0     C  993  12.241   7.234   1.061  0.2950  0.0695 -0.1486
    8MOL0     C  994  12.103   7.223   1.079  0.6136 -0.0811  0.4443
    8MOL0     N  995  11.452   7.638   1.162  0.3851 -0.2233 -0.0958
    8MOL0     N  996  11.339   7.698   1.170 -0.5306 -0.6234  0.0762
    8MOL0     C  997  10.461   7.469   1.210 -0.8196  0.9311 -1.2229
    8MOL0     C  998  10.522   7.359   1.272  0.3713  0.2237  1.0207
    8MOL0     C  999  10.546   6.994   1.488 -0.2495  0.4827  0.5363
    8MOL0     C 1000  10.471   6.895   1.555  0.0277  0.1659 -0.4511
    8MOL0     C 1001  10.531   6.819   1.663 -0.1222  0.6673 -0.1912
    8MOL0     C 1002  10.664   6.840   1.693  0.4384 -0.0317  0.0548
    8MOL0     O 1003  10.744   6.784   1.787  0.2689 -0.0403  0.2349
    8MOL0     C 1004  10.712   6.656   1.835  0.0392  0.2431  0.3232
    8MOL0     C 1005  10.820   6.569   1.900  0.4689 -0.5075  0.0278
    8MOL0     C 1006  10.766   6.445   1.985  0.5231  0.1511 -0.2457
    8MOL0     C 1007  10.873   6.347   2.026  0.0612 -0.1357 -0.0087
    8MOL0     C 1008  10.977   6.388   2.118 -0.0121 -0.0599  0.2113
    8MOL0     C 1009  11.065   6.432   2.182  0.1360 -0.9140 -0.1234
    8MOL0     C 1010  10.723   6.946   1.636  0.8994 -0.0212  0.0105
    8MOL0     C 1011  10.676   7.027   1.534 -0.1646 -0.1175 -0.7184
    8MOL0     C 1012  10.766   7.141   1.493  0.1618  0.5567 -0.5350
    8MOL0     H 1013  10.477   7.123   1.039  2.0695 -0.4926  0.9483
    8MOL0     H 1014  10.369   7.324   0.925  1.0673 -0.3307  0.3639
    8MOL0     H 1015  10.242   7.737   1.043 -0.2736 -0.4765 -1.0018
    8MOL0     H 1016  10.353   7.699   1.171 -0.7407  0.4826 -0.3023
    8MOL0     H 1017  10.436   7.892   1.040  1.3140  0.0014  0.2588
    8MOL0     H 1018  10.433   7.791   0.889 -0.9192 -1.1632 -0.1385
    8MOL0     H 1019  10.611   7.651   0.980 -2.5722 -0.5262  0.5670
    8MOL0     H 1020  10.601   7.729   1.141 -0.6421 -0.6226  0.5320
    8MOL0     H 1021  10.695   7.883   0.886  1.5065 -1.6084  0.3113
    8MOL0     H 1022  10.675   7.948   1.038  1.2298  1.1093 -1.3435
    8MOL0     H 1023  10.909   7.882   0.967  2.5731 -3.2902 -0.6204
    8MOL0     H 1024  10.861   7.843   1.133  2.0784  0.6135 -0.2174
    8MOL0     H 1025  10.810   7.606   0.989 -1.8224  1.5130 -1.2549
    8MOL0     H 1026  10.900   7.685   0.875  2.6506 -1.3078  0.3168
    8MOL0     H 1027  11.037   7.529   0.987  0.5522 -0.6822  1.9336
    8MOL0     H 1028  11.011   7.588   1.139 -0.3732 -0.6733 -0.0956
    8MOL0     H 1029  11.159   7.721   0.905  2.1739 -0.5877  0.1328
    8MOL0     H 1030  11.125   7.827   1.053 -2.6201 -1.2094  2.5953
    8MOL0     H 1031  11.297   7.508   0.913 -1.7664  1.6432 -0.0590
    8MOL0     H 1032  11.561   7.371   1.126  0.6091  3.3008  1.2518
    8MOL0     H 1033  11.492   7.346   0.967  0.8395 -0.6223  0.7933
    8MOL0     H 1034  11.667   7.577   0.935  0.3216  0.2871  0.1974
    8MOL0     H 1035  11.743   7.492   1.056  0.3491  2.1295 -0.5384
    8MOL0     H 1036  11.816   7.439   0.818 -0.2193 -2.6297 -2.5742
    8MOL0     H 1037  11.652   7.369   0.790 -0.3630 -1.0682  0.2604
    8MOL0     H 1038  11.789   7.177   0.851 -3.0402  2.4036 -2.3180
    8MOL0     H 1039  11.685   7.227   0.987 -0.2833  2.6365  0.5706
    8MOL0     H 1040  12.002   7.295   0.762  0.2833 -1.1104 -1.8772
    8MOL0     H 1041  12.235   7.302   0.725  0.2970  1.1770 -0.0949
    8MOL0     H 1042  12.688   7.097   1.156  0.7106  0.9833 -0.7262
    8MOL0     H 1043  12.926   7.118   1.178 -1.9507 -2.0204  0.3263
    8MOL0     H 1044  13.124   7.339   0.859 -0.7264  2.0774 -0.2660
    8MOL0     H 1045  13.157   7.466   0.980  1.1255 -0.1190 -2.0008
    8MOL0     H 1046  13.326   7.326   1.073 -1.9070  0.7955  0.0308
    8MOL0     H 1047  13.299   7.196   0.966 -0.8059 -0.5531 -1.6636
    8MOL0     H 1048  13.489   7.314   0.893 -0.3453 -2.0740 -1.0430
    8MOL0     H 1049  13.369   7.339   0.767 -0.9621 -0.4370  0.4452
    8MOL0     H 1050  13.423   7.535   0.985 -0.3675  2.5787 -0.8795
    8MOL0     H 1051  13.308   7.566   0.846 -0.2544  1.2573  0.7620
    8MOL0     H 1052  13.477   7.578   0.697 -0.5862  0.0855  0.0432
    8MOL0     H 1053  13.606   7.524   0.802  0.7520  0.4762 -0.4826
    8MOL0     H 1054  13.445   7.784   0.843 -0.1583 -0.3507 -0.2090
    8MOL0     H 1055  13.582   7.720   0.942  0.3642 -1.1024  0.2222
    8MOL0     H 1056  13.614   7.755   0.641 -2.0100 -0.4982  0.2423
    8MOL0     H 1057  13.726   7.791   0.772 -0.4801 -0.1301 -1.1799
    8MOL0     H 1058  13.506   7.962   0.686 -0.1000 -1.4127 -2.2311
    8MOL0     H 1059  13.641   8.002   0.822  0.3074  0.4728 -0.8159
    8MOL0     H 1060  12.925   7.452   0.907  1.6484 -2.0868 -0.4661
    8MOL0     H 1061  12.660   7.433   0.891 -0.3377 -0.5389 -0.7160
    8MOL0     H 1062  12.295   7.218   1.153  1.0997  0.9444 -0.4519
    8MOL0     H 1063  12.060   7.211   1.178 -3.6610  4.3549 -0.4753
    8MOL0     H 1064  10.473   7.568   1.254 -2.3015 -0.1232  1.8664
    8MOL0     H 1065  10.573   7.381   1.365  2.2198 -0.2500  0.1685
    8MOL0     H 1066  10.365   6.880   1.536 -0.1347  0.0930  0.4330
    8MOL0     H 1067  10.477   6.748   1.724  1.9597  0.2557  1.2401
    8MOL0     H 1068  10.656   6.595   1.765  0.8313  0.4460 -0.5074
    8MOL0     H 1069  10.630   6.658   1.907  0.2457 -0.6185  0.5987
    8MOL0     H 1070  10.879   6.623   1.974 -0.5862  1.7738 -0.6957
    8MOL0     H 1071  10.881   6.517   1.826  0.0953  0.3793 -0.9396
    8MOL0     H 1072  10.695   6.394   1.919  0.8208  0.2129 -0.6118
    8MOL0     H 1073  10.720   6.492   2.073 -0.1566  0.2820 -0.6614
    8MOL0     H 1074  10.829   6.256   2.068  0.7107 -0.2596  0.4168
    8MOL0     H 1075  10.933   6.318   1.939  2.5763 -2.7195  2.3756
    8MOL0     H 1076  11.141   6.463   2.251  1.3138  0.7989 -2.0639
    8MOL0     H 1077  10.823   6.974   1.669  2.0780 -0.5279 -2.7831
    8MOL0     H 1078  10.799   7.127   1.389  2.2469  0.1205  0.1433
    8MOL0     H 1079  10.707   7.232   1.505 -2.1064 -0.6530 -1.7065
    8MOL0     H 1080  10.855   7.152   1.555 -0.0366  1.3119 -0.3732
    9MOL0     O 1081   9.266   5.143   9.203 -0.1094 -0.9012 -0.0763
    9MOL0     C 1082   9.260   5.265   9.202 -1.9705  0.3692 -0.4609
    9MOL0     O 1083   9.362   5.355   9.179  0.4846  0.3160  0.2715
    9MOL0     C 1084   9.489   5.306   9.165  0.3355  0.2749  0.1051
    9MOL0     C 1085   9.561   5.353   9.050  0.2861 -0.8851 -0.2760
    9MOL0     C 1086   9.696   5.325   9.034 -0.3289 -0.4174 -0.5916
    9MOL0     C 1087   9.760   5.242   9.125 -0.0345 -0.1714  0.8653
    9MOL0     O 1088   9.886   5.217   9.103 -0.0150  0.3718  0.1381
    9MOL0     C 1089   9.956   5.141   9.201 -0.1797  0.1744  0.0054
    9MOL0     C 1090  10.091   5.115   9.140 -0.4266  0.0160 -0.4889
    9MOL0     C 1091  10.176   5.239   9.102 -0.4572 -0.1802 -0.3836
    9MOL0     C 1092  10.223   5.325   9.222 -0.4531  0.3186  0.6878
    9MOL0     C 1093  10.359   5.296   9.267  0.1561 -0.0032  0.1089
    9MOL0     C 1094  10.404   5.379   9.389 -0.7299  0.0464  0.2674
    9MOL0     C 1095  10.498   5.294   9.482  0.5256  0.9442  0.1280
    9MOL0     C 1096  10.556   5.379   9.597 -0.1600  0.2270  0.7811
    9MOL0     N 1097  10.450   5.464   9.655  0.7682  0.2520 -0.1584
    9MOL0     C 1098  10.424   5.586   9.602 -0.3015 -0.5193 -0.2963
    9MOL0     C 1099  10.329   5.645   9.674  0.2082  1.1321 -0.2695
    9MOL0     C 1100  10.272   5.785   9.647 -0.0692 -0.4156  0.6760
    9MOL0     C 1101  10.208   5.791   9.505 -0.0875 -0.0521  0.5929
    9MOL0     C 1102  10.089   5.686   9.494  0.2923 -0.4740 -0.3133
    9MOL0     C 1103  10.027   5.710   9.348  0.0831  0.2407 -0.1983
    9MOL0     O 1104   9.909   5.633   9.321  0.0841 -0.1674 -0.3792
    9MOL0     C 1105   9.787   5.671   9.374 -0.5437 -0.3802  0.2880
    9MOL0     C 1106   9.686   5.574   9.349 -0.7212  0.7249 -0.6187
    9MOL0     C 1107   9.550   5.587   9.395  0.0572  0.4073 -0.3730
    9MOL0     C 1108   9.521   5.697   9.480 -0.3253  0.1759 -0.0789
    9MOL0     C 1109   9.387   5.699   9.547 -0.1522 -0.7250  0.7647
    9MOL0     O 1110   9.303   5.596   9.523 -0.2447 -0.3526  0.5517
    9MOL0     C 1111   9.180   5.598   9.592 -0.0923  0.3357  0.7904
    9MOL0     C 1112   9.086   5.701   9.564 -0.1191 -0.8270  0.2986
    9MOL0     C 1113   8.966   5.707   9.632 -0.0001 -0.0179 -0.0238
    9MOL0     C 1114   8.940   5.610   9.727  0.8846 -0.1703 -0.4210
    9MOL0     O 1115   8.815   5.603   9.786  0.3047  0.3980  0.5716
    9MOL0     C 1116   8.748   5.486   9.740 -0.6319 -0.2581  0.3402
    9MOL0     C 1117   8.605   5.522   9.733  0.1021  1.4073  0.3503
    9MOL0     C 1118   8.544   5.533   9.866  0.4315  0.1566  0.0422
    9MOL0     C 1119   8.397   5.573   9.874 -0.0813  0.1984  0.3262
    9MOL0     C 1120   8.336   5.589  10.017 -0.3299 -0.6048 -0.1606
    9MOL0     C 1121   8.284   5.737  10.050 -0.1625  0.1741  0.3132
    9MOL0     C 1122   8.251   5.754  10.203  0.3179  0.3377  0.2169
    9MOL0     C 1123   8.121   5.668  10.213  0.7501 -1.0408 -0.4369
    9MOL0    Cl 1124   7.981   5.715  10.109 -0.4911  0.0140  0.0607
    9MOL0     C 1125   9.029   5.510   9.749  0.0747 -0.1716  0.1823
    9MOL0     C 1126   9.150   5.505   9.685 -0.1583 -0.3537 -0.0242
    9MOL0     O 1127   9.365   5.800   9.619 -0.2447 -0.0451  0.4377
    9MOL0     C 1128   9.620   5.794   9.507 -0.9418 -0.3188 -0.3861
    9MOL0     C 1129   9.754   5.783   9.458 -0.7955  0.0068  0.0097
    9MOL0     N 1130  10.298   5.563   9.787  0.2488 -0.4560 -0.4117
    9MOL0     N 1131  10.370   5.459   9.770  0.2181  0.8376 -0.0554
    9MOL0     C 1132   9.687   5.192   9.234  0.6438 -0.8760 -0.3529
    9MOL0     C 1133   9.553   5.208   9.253 -0.5959  0.9376  0.2651
    9MOL0     C 1134   9.129   5.316   9.219  0.5852 -0.4201 -0.0602
    9MOL0     C 1135   9.111   5.444   9.291  0.7678  0.5012  0.9689
    9MOL0     C 1136   8.983   5.492   9.318 -0.2295 -0.2451 -0.4844
    9MOL0     C 1137   8.871   5.416   9.304  0.5164  0.1150  0.2843
    9MOL0     O 1138   8.740   5.456   9.347  0.3861 -0.0587  0.6620
    9MOL0     C 1139   8.625   5.403   9.286  0.0214  0.2285 -0.1308
    9MOL0     C 1140   8.506   5.496   9.330 -0.0644  0.7190 -0.2916
    9MOL0     C 1141   8.368   5.442   9.266 -1.5533  0.7408  0.1274
    9MOL0     C 1142   8.272   5.376   9.369 -0.2527 -1.8219 -0.7100
    9MOL0     C 1143   8.213   5.485   9.451 -0.2340 -0.2872  0.6893
    9MOL0     C 1144   8.139   5.562   9.507 -0.3799 -0.1372 -0.2313
    9MOL0     C 1145   8.884   5.294   9.224  0.8250 -0.4135 -1.0272
    9MOL0     C 1146   9.015   5.247   9.180  0.3017  0.3052  0.8249
    9MOL0     C 1147   9.013   5.128   9.087  0.3932  0.7107 -0.2826
    9MOL0     H 1148   9.516   5.415   8.973 -0.7795 -2.0689 -0.6376
    9MOL0     H 1149   9.754   5.375   8.957 -1.2819  2.7143  0.5541
    9MOL0     H 1150   9.966   5.193   9.297 -0.5019 -0.2760  0.2904
    9MOL0     H 1151   9.908   5.047   9.228 -0.2828 -0.3713 -1.9495
    9MOL0     H 1152  10.075   5.058   9.048 -1.1879  0.3947 -0.5981
    9MOL0     H 1153  10.146   5.050   9.209 -2.7099 -0.0847  1.3471
    9MOL0     H 1154  10.137   5.307   9.026  1.2707 -0.9090 -1.9837
    9MOL0     H 1155  10.259   5.196   9.046 -1.3824 -2.2794 -0.2173
    9MOL0     H 1156  10.218   5.431   9.194  1.2834  0.3367  0.3230
    9MOL0     H 1157  10.160   5.310   9.310 -1.3328  1.0670  0.2037
    9MOL0     H 1158  10.362   5.192   9.301 -0.7710 -0.5329 -1.3536
    9MOL0     H 1159  10.436   5.311   9.191  0.0216 -1.7233 -0.3926
    9MOL0     H 1160  10.449   5.472   9.351 -2.2738 -0.2175 -2.4822
    9MOL0     H 1161  10.312   5.399   9.445 -0.0681  0.3833  1.2441
    9MOL0     H 1162  10.589   5.263   9.430 -0.3480  2.2879 -2.4228
    9MOL0     H 1163  10.440   5.206   9.510  1.6138  0.1934  0.0947
    9MOL0     H 1164  10.598   5.320   9.679  0.7563 -1.3225 -0.7412
    9MOL0     H 1165  10.638   5.442   9.560 -1.2100 -0.1228 -2.4767
    9MOL0     H 1166  10.472   5.635   9.518 -0.5526  3.0329  1.4352
    9MOL0     H 1167  10.203   5.817   9.725 -1.9016 -2.7929  0.1575
    9MOL0     H 1168  10.347   5.864   9.635 -0.5204  0.2245  1.8741
    9MOL0     H 1169  10.175   5.892   9.479 -0.5785 -0.6789 -1.3132
    9MOL0     H 1170  10.291   5.767   9.438 -0.7370 -3.4719  0.8281
    9MOL0     H 1171  10.020   5.690   9.578  1.7151 -2.2511  1.0220
    9MOL0     H 1172  10.120   5.581   9.489  1.6793 -0.3587  3.3474
    9MOL0     H 1173  10.099   5.673   9.275 -0.0140  0.5845 -0.4757
    9MOL0     H 1174  10.011   5.816   9.324  1.9608  0.9180  1.3012
    9MOL0     H 1175   9.716   5.489   9.287 -2.4199 -1.5475  1.4942
    9MOL0     H 1176   9.476   5.511   9.374 -0.9167  0.6192  1.9727
    9MOL0     H 1177   9.106   5.768   9.480 -1.1471 -2.7936 -1.6157
    9MOL0     H 1178   8.884   5.772   9.606 -0.1679 -0.2565 -0.0979
    9MOL0     H 1179   8.778   5.466   9.636 -2.7386  0.9821 -0.5613
    9MOL0     H 1180   8.776   5.400   9.801  1.5721 -1.6169 -2.3412
    9MOL0     H 1181   8.596   5.615   9.677 -2.5437  0.1277 -1.5589
    9MOL0     H 1182   8.543   5.453   9.675 -1.4581  0.7870  2.5931
    9MOL0     H 1183   8.557   5.441   9.924 -0.6117 -1.2353 -1.8098
    9MOL0     H 1184   8.608   5.607   9.915 -0.0501  0.8807 -0.4084
    9MOL0     H 1185   8.343   5.492   9.823  0.5631 -1.5469  2.2841
    9MOL0     H 1186   8.396   5.669   9.821  2.2705 -0.9323 -2.0026
    9MOL0     H 1187   8.421   5.563  10.081  0.4705  3.6064  0.8256
    9MOL0     H 1188   8.250   5.522  10.027 -0.5509 -0.3082 -0.0373
    9MOL0     H 1189   8.372   5.800  10.032 -0.2082  0.1030 -0.1796
    9MOL0     H 1190   8.202   5.770   9.984  0.5029 -2.7976 -2.2226
    9MOL0     H 1191   8.233   5.859  10.227  0.6687  0.3090  0.6317
    9MOL0     H 1192   8.325   5.712  10.272  0.6126 -0.6209 -0.6548
    9MOL0     H 1193   8.141   5.561  10.205  0.6224 -1.0043 -1.3758
    9MOL0     H 1194   8.088   5.685  10.316  0.0319  0.4885 -0.8842
    9MOL0     H 1195   9.004   5.435   9.824 -2.7553  1.3448  0.9049
    9MOL0     H 1196   9.223   5.427   9.704  2.5161  1.9944  0.0247
    9MOL0     H 1197   9.602   5.878   9.572 -1.5073 -2.2603  2.1132
    9MOL0     H 1198   9.832   5.856   9.478  1.1534 -1.7725 -0.7030
    9MOL0     H 1199   9.718   5.125   9.314  0.0899 -0.5811  0.1158
    9MOL0     H 1200   9.501   5.170   9.341 -0.3481 -1.0165 -0.3821
    9MOL0     H 1201   9.201   5.498   9.320  3.5539 -3.5738  0.8206
    9MOL0     H 1202   8.976   5.591   9.363 -1.7239 -1.4839  2.2922
    9MOL0     H 1203   8.605   5.300   9.318 -1.0738  0.2697 -0.6547
    9MOL0     H 1204   8.639   5.396   9.178  2.7330 -0.0551  0.1471
    9MOL0     H 1205   8.523   5.602   9.308 -3.6753  1.4952 -0.0401
    9MOL0     H 1206   8.503   5.481   9.438 -1.6107  1.0033 -0.2697
    9MOL0     H 1207   8.389   5.367   9.189 -0.1073  0.3724  0.8420
    9MOL0     H 1208   8.318   5.522   9.211 -0.5641  0.1826 -1.6469
    9MOL0     H 1209   8.193   5.329   9.310 -0.5899  1.2185 -2.8931
    9MOL0     H 1210   8.320   5.297   9.427 -0.4545 -1.0277  0.5716
    9MOL0     H 1211   8.085   5.628   9.572  0.2629 -0.3628  0.5560
    9MOL0     H 1212   8.807   5.222   9.199  0.2070  0.6772 -2.3377
    9MOL0     H 1213   8.918   5.110   9.036 -0.1593  1.4484  0.4557
    9MOL0     H 1214   9.081   5.139   9.003 -2.4701  4.3135 -2.4310
    9MOL0     H 1215   9.035   5.046   9.156  0.2023  0.6892 -0.2470
   10MOL0     O 1216   0.891  10.076   3.557  0.0107  1.0860  0.5100
   10MOL0     C 1217   0.804  10.094   3.643  0.5293  0.1587 -0.8461
   10MOL0     O 1218   0.819  10.178   3.747  0.0456  0.1478  0.4081
   10MOL0     C 1219   0.926  10.270   3.754 -0.2824  0.3384 -0.0128
   10MOL0     C 1220   0.958  10.351   3.648  0.1673  0.5295 -0.2177
   10MOL0     C 1221   1.056  10.452   3.670 -0.2276  0.6683  0.4731
   10MOL0     C 1222   1.110  10.477   3.792 -1.2821 -0.4588  0.9115
   10MOL0     O 1223   1.213  10.568   3.815 -0.0487  0.0226 -0.4214
   10MOL0     C 1224   1.260  10.645   3.710  0.9726  0.0170 -0.4394
   10MOL0     C 1225   1.380  10.720   3.747 -0.9106 -0.0705 -0.3121
   10MOL0     C 1226   1.512  10.657   3.750 -0.5196 -0.0222 -0.4602
   10MOL0     C 1227   1.633  10.744   3.792  0.3848 -0.0455  0.1938
   10MOL0     C 1228   1.771  10.677   3.787 -0.0166  0.6680 -0.2604
   10MOL0     C 1229   1.790  10.574   3.900 -0.0271  0.0908  0.4455
   10MOL0     C 1230   1.929  10.509   3.890 -0.2793 -0.3509  0.4965
   10MOL0     C 1231   1.942  10.422   4.017 -0.0461  0.0283  0.2733
   10MOL0     N 1232   1.967  10.510   4.136  0.1335 -0.6104  0.4686
   10MOL0     C 1233   2.066  10.608   4.144 -0.5046 -0.6474 -0.8253
   10MOL0     C 1234   2.045  10.683   4.258  0.2772 -0.0102  0.6455
   10MOL0     C 1235   2.126  10.806   4.292  0.2287 -0.8279 -0.8611
   10MOL0     C 1236   2.255  10.781   4.378  0.9907 -0.0165 -0.1254
   10MOL0     C 1237   2.351  10.680   4.309  0.0102 -0.4307  0.2106
   10MOL0     C 1238   2.470  10.670   4.401 -0.1854 -0.2738  0.6024
   10MOL0     O 1239   2.555  10.768   4.346 -0.1781  0.4007  0.5339
   10MOL0     C 1240   2.689  10.762   4.373 -0.0335 -0.7301 -0.2529
   10MOL0     C 1241   2.766  10.844   4.292 -0.0671  0.0739 -0.3645
   10MOL0     C 1242   2.906  10.853   4.321  0.0969 -0.7505  0.0001
   10MOL0     C 1243   2.961  10.778   4.429  0.4709 -0.8081  0.2348
   10MOL0     C 1244   3.102  10.802   4.456 -0.4805  0.4390 -0.3570
   10MOL0     O 1245   3.165  10.726   4.553 -0.6477 -0.1858 -0.2199
   10MOL0     C 1246   3.307  10.713   4.558  0.6658  0.2628  0.2368
   10MOL0     C 1247   3.361  10.667   4.670  0.5782 -0.6363  0.1208
   10MOL0     C 1248   3.500  10.660   4.694  1.1349  0.4384 -0.2245
   10MOL0     C 1249   3.589  10.684   4.595  0.1645  0.7060 -0.2837
   10MOL0     O 1250   3.716  10.663   4.625  0.1503  0.5981  1.0793
   10MOL0     C 1251   3.805  10.653   4.509 -0.8214 -0.4304 -0.1578
   10MOL0     C 1252   3.951  10.627   4.561 -0.4039  0.0416 -0.3640
   10MOL0     C 1253   4.026  10.527   4.479 -0.4980 -0.5774 -0.1457
   10MOL0     C 1254   4.057  10.545   4.327 -0.1314  0.1943 -0.7787
   10MOL0     C 1255   4.164  10.444   4.285  0.1912 -0.5888  0.1642
   10MOL0     C 1256   4.130  10.365   4.161 -0.1693 -0.2752 -0.4441
   10MOL0     C 1257   4.255  10.292   4.109  0.2165 -0.7074  0.3775
   10MOL0     C 1258   4.229  10.186   4.004 -0.0819 -0.3364 -0.4095
   10MOL0    Cl 1259   4.382  10.121   3.949  0.0914  0.1669  0.2730
   10MOL0     C 1260   3.534  10.711   4.467 -0.6019  0.6563 -0.0830
   10MOL0     C 1261   3.396  10.735   4.456  0.5952 -0.0366  0.1947
   10MOL0     O 1262   3.154  10.890   4.391  0.3331 -0.2930 -0.2992
   10MOL0     C 1263   2.873  10.705   4.518 -0.5335  0.4712  0.4323
   10MOL0     C 1264   2.738  10.688   4.483 -0.2863 -0.4050 -0.1734
   10MOL0     N 1265   1.919  10.646   4.311  0.2725  0.1882  0.4802
   10MOL0     N 1266   1.878  10.547   4.231  0.1258  0.8300  0.2307
   10MOL0     C 1267   1.068  10.400   3.898  0.1841 -0.0406 -0.8391
   10MOL0     C 1268   0.983  10.293   3.877  0.2729 -0.5956 -0.1069
   10MOL0     C 1269   0.676  10.024   3.619  0.4759 -0.5083 -1.0192
   10MOL0     C 1270   0.617  10.025   3.495  1.0300 -0.2811  0.1226
   10MOL0     C 1271   0.478   9.988   3.483 -1.0247  0.1155  0.1474
   10MOL0     C 1272   0.420   9.910   3.590  0.2352  0.0087  0.0784
   10MOL0     O 1273   0.300   9.850   3.586  0.0626 -0.5346 -0.4421
   10MOL0     C 1274   0.236   9.837   3.459  0.1960  0.7442  0.4285
   10MOL0     C 1275   0.106   9.749   3.458  1.1685  0.7516 -0.5716
   10MOL0     C 1276   0.146   9.603   3.445 -0.0677  0.7798 -0.0552
   10MOL0     C 1277   0.027   9.509   3.423 -0.3612  0.0790 -0.8336
   10MOL0     C 1278  -0.051   9.528   3.299 -0.8484 -0.2796 -0.2224
   10MOL0     C 1279  -0.112   9.554   3.198 -0.5137 -0.2552  0.5793
   10MOL0     C 1280   0.493   9.888   3.699 -0.0834 -0.0583  0.3264
   10MOL0     C 1281   0.613   9.948   3.723 -0.4317  0.4163 -0.7277
   10MOL0     C 1282   0.685   9.917   3.852  0.4386 -0.5625 -0.2675
   10MOL0     H 1283   0.906  10.343   3.553  0.8111 -2.0817 -0.4530
   10MOL0     H 1284   1.080  10.507   3.580 -4.2734 -1.3854 -2.1615
   10MOL0     H 1285   1.265  10.580   3.622  1.9542 -2.0522  1.0500
   10MOL0     H 1286   1.194  10.732   3.705  2.6998  1.3150 -1.8446
   10MOL0     H 1287   1.356  10.777   3.836  0.5114 -2.7367  1.9300
   10MOL0     H 1288   1.398  10.783   3.659  1.7400 -1.8511 -1.1610
   10MOL0     H 1289   1.541  10.627   3.649 -0.5907  3.5395 -1.6493
   10MOL0     H 1290   1.507  10.572   3.820 -1.8836 -0.7670 -1.4082
   10MOL0     H 1291   1.624  10.831   3.727 -0.2512 -0.6992 -0.6162
   10MOL0     H 1292   1.612  10.770   3.896 -4.3608 -1.9607 -0.0513
   10MOL0     H 1293   1.787  10.628   3.690  1.3362 -0.9729  0.7324
   10MOL0     H 1294   1.840  10.761   3.799  0.1127  0.6427 -0.7875
   10MOL0     H 1295   1.781  10.628   3.995 -0.4855 -1.0602  1.0708
   10MOL0     H 1296   1.710  10.501   3.886  0.6594 -0.1404 -3.3425
   10MOL0     H 1297   1.994  10.597   3.884 -3.2737  1.9586 -0.9591
   10MOL0     H 1298   1.943  10.445   3.803 -1.0758 -0.5007  0.4726
   10MOL0     H 1299   1.845  10.376   4.036 -0.6341  1.6761  1.5838
   10MOL0     H 1300   2.014  10.340   4.016  0.2785  0.2815  1.2174
   10MOL0     H 1301   2.147  10.613   4.072  0.3816 -0.3747  0.1574
   10MOL0     H 1302   2.150  10.847   4.194 -1.3969 -0.8464 -1.2892
   10MOL0     H 1303   2.064  10.870   4.356 -1.1613 -1.5968 -1.4100
   10MOL0     H 1304   2.311  10.873   4.390  3.3290 -1.1935 -1.4282
   10MOL0     H 1305   2.220  10.730   4.469  0.3765 -0.7717 -0.7717
   10MOL0     H 1306   2.365  10.701   4.202 -0.3009 -2.2015 -0.2074
   10MOL0     H 1307   2.312  10.578   4.304 -2.0756  0.3436 -0.3069
   10MOL0     H 1308   2.519  10.572   4.394 -0.3078 -0.3232  0.4060
   10MOL0     H 1309   2.453  10.700   4.504  2.1465 -2.5048  1.7594
   10MOL0     H 1310   2.734  10.912   4.214 -1.0262  1.3365  1.0824
   10MOL0     H 1311   2.963  10.918   4.256 -0.4493 -1.8445 -1.6429
   10MOL0     H 1312   3.294  10.640   4.751 -0.9920  0.8357 -0.6255
   10MOL0     H 1313   3.542  10.626   4.789  1.1310 -1.0454 -0.7237
   10MOL0     H 1314   3.764  10.578   4.441 -2.3517  0.3993 -0.2029
   10MOL0     H 1315   3.809  10.751   4.461 -1.3738  1.3577  3.1623
   10MOL0     H 1316   4.000  10.724   4.572  1.0150 -0.9278  3.8241
   10MOL0     H 1317   3.939  10.589   4.663 -4.1368  0.0653 -0.6581
   10MOL0     H 1318   4.125  10.519   4.526 -0.6370  3.5458  1.1878
   10MOL0     H 1319   3.987  10.426   4.498  2.0033 -1.6930 -0.4594
   10MOL0     H 1320   4.090  10.647   4.303 -0.1702  0.1125 -1.1851
   10MOL0     H 1321   3.962  10.529   4.275  1.0852 -0.7994 -2.8016
   10MOL0     H 1322   4.178  10.368   4.363  1.9911  0.6315  1.1015
   10MOL0     H 1323   4.259  10.495   4.268 -0.4423  0.0992 -1.4568
   10MOL0     H 1324   4.061  10.291   4.203  1.8221 -1.0791  1.6312
   10MOL0     H 1325   4.086  10.434   4.090  1.4411  1.3734  0.0723
   10MOL0     H 1326   4.302  10.256   4.201  1.7229  2.1690  0.8541
   10MOL0     H 1327   4.308  10.377   4.063 -1.1651 -1.1672 -2.2351
   10MOL0     H 1328   4.160  10.107   4.036 -0.4414  0.2264  0.2338
   10MOL0     H 1329   4.178  10.230   3.918  0.6887 -1.5088 -1.4989
   10MOL0     H 1330   3.602  10.712   4.383 -0.3251  1.5478  0.1395
   10MOL0     H 1331   3.360  10.765   4.358  0.2928  0.2985  0.4097
   10MOL0     H 1332   2.920  10.662   4.606  0.0674 -1.3798 -0.7327
   10MOL0     H 1333   2.677  10.621   4.543  0.8000 -1.8702 -0.6220
   10MOL0     H 1334   1.102  10.436   3.995 -2.1136 -2.6472  1.0671
   10MOL0     H 1335   0.944  10.232   3.958  0.9469  1.0830  1.5424
   10MOL0     H 1336   0.655  10.086   3.413 -1.6561 -0.3434 -1.2829
   10MOL0     H 1337   0.411  10.009   3.400 -2.2880 -1.0124  0.8501
   10MOL0     H 1338   0.300   9.784   3.387 -1.7622 -0.9377 -0.1914
   10MOL0     H 1339   0.204   9.927   3.406 -0.8746  0.8675  1.2411
   10MOL0     H 1340   0.047   9.783   3.372  1.4455  2.7660 -0.0335
   10MOL0     H 1341   0.064   9.757   3.559  2.0992 -1.2689  0.0162
   10MOL0     H 1342   0.194   9.569   3.538 -1.2729 -2.5240 -0.5002
   10MOL0     H 1343   0.221   9.589   3.366 -0.6685 -0.1775 -0.4784
   10MOL0     H 1344   0.064   9.406   3.427 -0.5011  0.0511 -0.0841
   10MOL0     H 1345  -0.039   9.526   3.508 -0.4537  0.2599 -0.9410
   10MOL0     H 1346  -0.167   9.572   3.109  0.3680 -0.1533  0.0418
   10MOL0     H 1347   0.450   9.821   3.774 -0.6873  0.1669  0.1855
   10MOL0     H 1348   0.622   9.854   3.916 -0.1148  0.2223 -0.0197
   10MOL0     H 1349   0.777   9.863   3.830  1.4090  2.5915 -5.9002
   10MOL0     H 1350   0.712  10.008   3.906  1.1761 -1.2937  0.6299
   11MOL0     O 1351   1.674   9.824   0.855 -0.3377  0.5161  0.4758
   11MOL0     C 1352   1.613   9.809   0.960 -0.5966  0.6702 -0.0228
   11MOL0     O 1353   1.652   9.861   1.081 -0.1663  0.4594 -0.3569
   11MOL0     C 1354   1.760   9.945   1.098  0.9552  0.3979 -0.1337
   11MOL0     C 1355   1.773  10.067   1.029  0.0206 -0.0387 -0.4832
   11MOL0     C 1356   1.895  10.133   1.033  0.0153 -0.7856  0.2345
   11MOL0     C 1357   2.006  10.083   1.101 -0.0965  0.2750 -0.1521
   11MOL0     O 1358   2.126  10.159   1.103  0.8968 -1.0847  0.8698
   11MOL0     C 1359   2.242  10.107   1.157  0.5472 -0.9196 -0.3382
   11MOL0     C 1360   2.275  10.126   1.307  0.2016  0.4894 -0.1733
   11MOL0     C 1361   2.396  10.050   1.365 -0.0754  0.6804 -0.2214
   11MOL0     C 1362   2.527  10.098   1.298 -1.0001  0.7689  0.0640
   11MOL0     C 1363   2.651  10.019   1.364 -0.6258  0.7425  0.2819
   11MOL0     C 1364   2.678  10.027   1.509 -0.2926 -0.1914 -0.5633
   11MOL0     C 1365   2.731  10.163   1.564 -0.3446  0.2021  0.1281
   11MOL0     C 1366   2.875  10.197   1.527  0.6898 -0.0241  0.2017
   11MOL0     N 1367   2.919  10.318   1.594 -0.2268 -0.2347 -0.1855
   11MOL0     C 1368   2.966  10.321   1.722  0.2216 -0.0284 -0.2038
   11MOL0     C 1369   3.003  10.454   1.728  0.1370 -1.2651 -0.7804
   11MOL0     C 1370   3.084  10.519   1.841 -0.5303 -0.0271  0.5019
   11MOL0     C 1371   3.230  10.460   1.845 -0.1206  0.0924 -0.2011
   11MOL0     C 1372   3.307  10.563   1.928 -0.7379  0.3003 -0.4390
   11MOL0     C 1373   3.449  10.506   1.953  0.1504 -1.1748  0.7189
   11MOL0     O 1374   3.446  10.369   2.010 -0.6560  0.1258 -0.3705
   11MOL0     C 1375   3.564  10.298   2.001  0.3099 -0.2214 -0.4793
   11MOL0     C 1376   3.691  10.357   1.964  0.3446  0.1958  0.3016
   11MOL0     C 1377   3.802  10.270   1.941  0.5900  0.0355  0.3999
   11MOL0     C 1378   3.792  10.130   1.956  0.2593 -1.0165  0.0160
   11MOL0     C 1379   3.899  10.042   1.924 -0.6345  0.0009 -0.2492
   11MOL0     O 1380   3.980  10.096   1.823  0.0569  1.1690 -0.5694
   11MOL0     C 1381   4.089  10.024   1.787 -0.2277 -0.5518  0.1095
   11MOL0     C 1382   4.079   9.909   1.716  0.1479  0.7472 -0.4235
   11MOL0     C 1383   4.194   9.825   1.695  0.3167  0.3874 -0.3563
   11MOL0     C 1384   4.321   9.862   1.736  0.1978 -0.5200  0.5443
   11MOL0     O 1385   4.429   9.776   1.713  0.3723 -0.5368  1.1145
   11MOL0     C 1386   4.553   9.831   1.684  0.2333 -0.8542  0.0536
   11MOL0     C 1387   4.644   9.719   1.634 -0.8379  0.3117  0.6331
   11MOL0     C 1388   4.791   9.766   1.605  0.8545  0.5496 -1.2544
   11MOL0     C 1389   4.857   9.799   1.750 -0.3028  0.0861  0.3607
   11MOL0     C 1390   4.994   9.868   1.727  0.7087  0.7119 -0.0936
   11MOL0     C 1391   5.045   9.885   1.871 -0.3195  1.0024  0.3445
   11MOL0     C 1392   5.178   9.964   1.879  0.7234  0.3494 -0.0016
   11MOL0     C 1393   5.202  10.007   2.019  0.5027  0.2625 -0.2127
   11MOL0    Cl 1394   5.280   9.868   2.101 -0.1515  0.3325  0.1524
   11MOL0     C 1395   4.332   9.990   1.796 -0.3304 -0.2995 -0.6837
   11MOL0     C 1396   4.219  10.076   1.820 -0.3937  1.3862  0.7488
   11MOL0     O 1397   3.910   9.933   1.976 -0.1426  0.2202 -0.5138
   11MOL0     C 1398   3.671  10.078   1.994 -0.2052  0.1047 -0.0068
   11MOL0     C 1399   3.559  10.158   2.017  0.4593 -0.7893  0.0772
   11MOL0     N 1400   2.963  10.531   1.620 -0.6276  0.0985 -0.1364
   11MOL0     N 1401   2.913  10.445   1.535 -0.1560  0.9251  0.3129
   11MOL0     C 1402   1.989   9.962   1.174 -0.3880 -0.1512  0.2020
   11MOL0     C 1403   1.871   9.888   1.156 -0.4066  0.1546  0.3617
   11MOL0     C 1404   1.483   9.744   0.960  0.5179  0.8403  0.3869
   11MOL0     C 1405   1.410   9.744   1.081  0.1213  1.0031 -0.3458
   11MOL0     C 1406   1.287   9.684   1.090  0.0807  0.1664  0.2699
   11MOL0     C 1407   1.232   9.614   0.984 -0.2371  0.4321 -0.2629
   11MOL0     O 1408   1.111   9.557   1.009 -0.6621  0.1249  0.0036
   11MOL0     C 1409   1.055   9.466   0.916  0.2383  0.4422  0.2843
   11MOL0     C 1410   0.930   9.386   0.956 -0.6016  0.9121  0.7697
   11MOL0     C 1411   0.957   9.294   1.069  0.4024  0.2909  0.2364
   11MOL0     C 1412   0.834   9.222   1.123  0.0270  0.3676 -0.1253
   11MOL0     C 1413   0.788   9.120   1.034 -0.0833  0.1353  1.7652
   11MOL0     C 1414   0.740   9.038   0.954 -0.4610 -0.0375 -0.3612
   11MOL0     C 1415   1.301   9.614   0.861  0.3345  0.2579 -1.2383
   11MOL0     C 1416   1.420   9.673   0.853  0.0567 -0.3574 -0.1283
   11MOL0     C 1417   1.481   9.689   0.715  0.7923 -0.5246 -0.1812
   11MOL0     H 1418   1.684  10.095   0.975 -0.4876 -1.4030 -0.4063
   11MOL0     H 1419   1.923  10.215   0.966 -3.1849 -1.2775 -1.9244
   11MOL0     H 1420   2.243  10.001   1.131  0.2106 -1.2258  0.8523
   11MOL0     H 1421   2.322  10.156   1.099  0.2314 -0.7897 -0.6662
   11MOL0     H 1422   2.189  10.087   1.361  0.9798 -2.5588 -0.9669
   11MOL0     H 1423   2.288  10.232   1.330 -0.8263  0.7193 -0.6004
   11MOL0     H 1424   2.375   9.948   1.333 -0.5264  0.2030  1.5006
   11MOL0     H 1425   2.401  10.045   1.474  0.9268 -4.4996 -0.2633
   11MOL0     H 1426   2.521  10.082   1.190  1.9219 -1.4936  0.1114
   11MOL0     H 1427   2.547  10.204   1.318 -0.1754  0.4136  1.2642
   11MOL0     H 1428   2.629   9.913   1.347  0.9444  0.8305 -3.0917
   11MOL0     H 1429   2.740  10.041   1.304 -1.6641  2.3910 -0.7315
   11MOL0     H 1430   2.588  10.006   1.567  1.0553  1.3485  2.2849
   11MOL0     H 1431   2.755   9.951   1.527  2.0769  2.4321  1.1792
   11MOL0     H 1432   2.732  10.165   1.674 -0.2297 -0.3546  0.1403
   11MOL0     H 1433   2.670  10.245   1.526 -1.5196  0.5039  2.4674
   11MOL0     H 1434   2.938  10.113   1.557  0.8957 -0.3004 -0.9488
   11MOL0     H 1435   2.887  10.215   1.420 -0.2600 -1.5844 -0.2027
   11MOL0     H 1436   2.982  10.233   1.783 -3.3095 -0.9359 -0.3548
   11MOL0     H 1437   3.088  10.628   1.832  1.2554 -0.2248 -2.8294
   11MOL0     H 1438   3.031  10.497   1.934  1.7742 -0.2561  1.8521
   11MOL0     H 1439   3.231  10.361   1.890 -3.1371  1.1945  2.7859
   11MOL0     H 1440   3.273  10.460   1.744  0.8154  1.8129  0.1565
   11MOL0     H 1441   3.268  10.597   2.024 -0.3809 -0.1377 -0.1308
   11MOL0     H 1442   3.313  10.660   1.878  1.4958  1.4383  1.8136
   11MOL0     H 1443   3.510  10.575   2.012  1.2769 -1.2823 -0.2997
   11MOL0     H 1444   3.497  10.494   1.856  0.6618  0.2817  0.7733
   11MOL0     H 1445   3.715  10.462   1.951  2.0206 -0.1658  0.2833
   11MOL0     H 1446   3.892  10.323   1.911  0.6584  0.7051  1.7188
   11MOL0     H 1447   3.980   9.874   1.688 -0.3293 -0.2465  2.2390
   11MOL0     H 1448   4.185   9.725   1.656 -0.6399  1.0064 -1.7814
   11MOL0     H 1449   4.535   9.912   1.613  4.2001  2.8715  2.7811
   11MOL0     H 1450   4.583   9.880   1.777  2.5489 -0.8043 -0.6566
   11MOL0     H 1451   4.638   9.651   1.719  2.5702  1.7492  2.2039
   11MOL0     H 1452   4.601   9.675   1.543 -1.0007  0.7298  0.5015
   11MOL0     H 1453   4.850   9.695   1.547  0.5134  1.0067 -2.1859
   11MOL0     H 1454   4.787   9.856   1.542 -2.7200  1.7289  0.3886
   11MOL0     H 1455   4.864   9.700   1.796 -2.1866 -2.2039 -3.6901
   11MOL0     H 1456   4.797   9.865   1.813  0.6954  3.0242 -1.5292
   11MOL0     H 1457   4.978   9.966   1.682 -1.5005 -0.5026 -2.2231
   11MOL0     H 1458   5.073   9.816   1.672  3.5979  2.1019  2.4892
   11MOL0     H 1459   4.959   9.930   1.921 -3.7241 -1.5353 -2.6354
   11MOL0     H 1460   5.069   9.785   1.910  2.3029  1.0027 -1.0103
   11MOL0     H 1461   5.176  10.055   1.819 -0.6338  0.9441  0.9029
   11MOL0     H 1462   5.262   9.903   1.845  1.1301  1.0406 -0.2594
   11MOL0     H 1463   5.266  10.096   2.018  1.7545 -0.5960 -1.6654
   11MOL0     H 1464   5.114  10.040   2.074 -0.3991  2.2823 -2.6801
   11MOL0     H 1465   4.429  10.020   1.835 -1.2330  0.7939  0.8158
   11MOL0     H 1466   4.237  10.172   1.868  0.9185  1.8958 -0.6719
   11MOL0     H 1467   3.652   9.973   2.013 -2.1118  0.4926  0.4579
   11MOL0     H 1468   3.467  10.118   2.058 -0.7595  0.9336 -0.8245
   11MOL0     H 1469   2.058   9.916   1.244  0.4107 -1.6237 -1.4565
   11MOL0     H 1470   1.855   9.790   1.199 -0.9392 -1.0600 -2.3778
   11MOL0     H 1471   1.438   9.804   1.167  1.4826  0.2463 -0.2401
   11MOL0     H 1472   1.231   9.693   1.182  0.6126 -0.9163  0.7186
   11MOL0     H 1473   1.134   9.397   0.886 -0.5632  0.6227 -2.5065
   11MOL0     H 1474   1.025   9.526   0.829 -2.1073 -1.2180 -0.1555
   11MOL0     H 1475   0.895   9.323   0.874 -0.2693  0.5162  0.9332
   11MOL0     H 1476   0.847   9.455   0.970  0.2906  1.9860  0.9686
   11MOL0     H 1477   1.006   9.352   1.148  4.3879 -0.6143 -1.3336
   11MOL0     H 1478   1.033   9.221   1.041 -1.4804 -0.9413 -1.9951
   11MOL0     H 1479   0.855   9.181   1.223  0.3030  1.2777  0.2002
   11MOL0     H 1480   0.749   9.290   1.129  0.0999  0.3262  2.3173
   11MOL0     H 1481   0.696   8.961   0.893  1.0057 -0.9379 -0.3194
   11MOL0     H 1482   1.262   9.567   0.771  2.1645  0.7690 -2.3504
   11MOL0     H 1483   1.491   9.794   0.685 -3.8173  0.3277  0.5182
   11MOL0     H 1484   1.581   9.645   0.714  0.5353 -1.1046 -0.9172
   11MOL0     H 1485   1.431   9.634   0.636 -2.5199  2.5246 -0.4863
   12MOL0     O 1486   4.973   9.552   3.061 -0.0062 -0.0868 -0.0469
   12MOL0     C 1487   4.939   9.649   2.994 -0.0509  0.0831 -0.2357
   12MOL0     O 1488   5.032   9.741   2.944  0.3733 -0.3094 -1.3126
   12MOL0     C 1489   5.166   9.722   2.959  0.5627 -0.0988 -0.1481
   12MOL0     C 1490   5.227   9.678   3.076 -0.3416 -0.2344 -0.4367
   12MOL0     C 1491   5.364   9.651   3.074  0.5069  0.9817 -0.3600
   12MOL0     C 1492   5.430   9.639   2.950 -0.7553 -0.1066  0.1178
   12MOL0     O 1493   5.572   9.609   2.942  0.4899  0.3689  0.1674
   12MOL0     C 1494   5.623   9.501   3.025  0.8207 -0.2361 -0.6762
   12MOL0     C 1495   5.776   9.454   3.008  0.0583 -0.3628  0.2384
   12MOL0     C 1496   5.794   9.365   2.885  0.7083  0.6856 -0.1551
   12MOL0     C 1497   5.950   9.346   2.864  0.3410 -0.1911  0.2971
   12MOL0     C 1498   5.969   9.197   2.837 -0.3721 -0.1048 -0.3204
   12MOL0     C 1499   6.118   9.169   2.811  0.1078  0.2030 -0.1268
   12MOL0     C 1500   6.147   9.020   2.788 -0.7296  0.4896 -0.1515
   12MOL0     C 1501   6.197   8.981   2.642 -0.2849  0.1233  0.3544
   12MOL0     N 1502   6.336   9.025   2.605 -0.5715  0.4662 -0.5104
   12MOL0     C 1503   6.452   8.949   2.598  0.6015  0.0882  0.0650
   12MOL0     C 1504   6.541   9.016   2.529 -0.2277 -0.6918  0.4946
   12MOL0     C 1505   6.677   8.985   2.475 -0.4685  0.0697  0.4046
   12MOL0     C 1506   6.760   9.097   2.509 -0.0430 -0.0760  0.2277
   12MOL0     C 1507   6.907   9.084   2.453 -0.6863  0.0067  0.7821
   12MOL0     C 1508   6.996   9.005   2.555  0.9940 -0.9575  0.9608
   12MOL0     O 1509   7.124   8.985   2.498 -0.3112  0.2090 -0.6282
   12MOL0     C 1510   7.209   9.093   2.486  0.0752 -0.3300  0.7561
   12MOL0     C 1511   7.197   9.211   2.559 -0.9117 -0.7960 -0.0567
   12MOL0     C 1512   7.295   9.314   2.549  0.2786  0.6411  0.0526
   12MOL0     C 1513   7.397   9.304   2.460  0.2659  0.6374 -0.5104
   12MOL0     C 1514   7.503   9.410   2.449 -0.4168  0.0351 -0.5850
   12MOL0     O 1515   7.617   9.363   2.398 -0.6773  0.4796 -0.2054
   12MOL0     C 1516   7.733   9.431   2.396 -0.2312 -0.1207  0.4985
   12MOL0     C 1517   7.740   9.553   2.330 -0.2892 -0.7869  0.2407
   12MOL0     C 1518   7.864   9.610   2.298 -0.4862  0.1717  0.6777
   12MOL0     C 1519   7.983   9.555   2.344 -1.0019  0.2958  0.8318
   12MOL0     O 1520   8.096   9.626   2.311  0.5683 -0.7719 -0.1146
   12MOL0     C 1521   8.206   9.613   2.399  0.5235  0.4041 -0.0576
   12MOL0     C 1522   8.312   9.717   2.373  0.0068  0.2294  1.7147
   12MOL0     C 1523   8.396   9.672   2.245  0.4396  0.3921 -0.7406
   12MOL0     C 1524   8.485   9.784   2.195 -0.0638 -0.4445 -0.0707
   12MOL0     C 1525   8.590   9.732   2.102  0.4816  1.1588 -0.0061
   12MOL0     C 1526   8.693   9.828   2.053 -0.1875 -0.4389  0.5397
   12MOL0     C 1527   8.770   9.762   1.936 -0.1651  0.7416 -0.0192
   12MOL0     C 1528   8.894   9.839   1.886  0.3727 -0.6438  0.3760
   12MOL0    Cl 1529   9.004   9.853   2.023  0.2703  0.5758 -0.1267
   12MOL0     C 1530   7.977   9.437   2.421  0.3853  0.1729  0.2262
   12MOL0     C 1531   7.853   9.370   2.434  0.1966 -0.7040 -0.6878
   12MOL0     O 1532   7.486   9.518   2.497  0.5260 -0.2575 -0.3605
   12MOL0     C 1533   7.412   9.186   2.388 -0.6838  0.2488  0.3477
   12MOL0     C 1534   7.327   9.078   2.403  0.5980 -0.1945  0.0233
   12MOL0     N 1535   6.472   9.136   2.497 -1.1714 -0.5598  0.0817
   12MOL0     N 1536   6.356   9.137   2.539 -0.1868  0.2007 -1.1482
   12MOL0     C 1537   5.363   9.668   2.833 -0.2709 -0.5083 -0.2635
   12MOL0     C 1538   5.233   9.714   2.841  0.5651 -0.0473 -1.2936
   12MOL0     C 1539   4.794   9.661   2.977 -0.2005 -0.0426  0.3396
   12MOL0     C 1540   4.705   9.584   3.053 -0.3468  0.5700 -0.1723
   12MOL0     C 1541   4.571   9.601   3.042 -0.0287  0.0958 -0.6769
   12MOL0     C 1542   4.514   9.709   2.981 -0.1402  0.0124  0.0097
   12MOL0     O 1543   4.385   9.749   2.996  0.6816  0.2584 -0.1821
   12MOL0     C 1544   4.288   9.648   3.029 -0.5084  0.1134 -0.0443
   12MOL0     C 1545   4.148   9.677   2.976  0.3161  0.2562 -0.0937
   12MOL0     C 1546   4.117   9.695   2.830 -0.2527 -0.1009 -0.6765
   12MOL0     C 1547   3.968   9.726   2.809 -0.1201  0.8194  0.1986
   12MOL0     C 1548   3.881   9.611   2.839  0.0771  0.3430 -0.3088
   12MOL0     C 1549   3.816   9.509   2.873  0.0500  0.1734 -0.1617
   12MOL0     C 1550   4.598   9.790   2.903 -0.5561  0.1078  0.8387
   12MOL0     C 1551   4.733   9.759   2.890  0.4476 -0.3960 -0.3654
   12MOL0     C 1552   4.817   9.853   2.810  0.1507 -0.4362 -0.8717
   12MOL0     H 1553   5.165   9.677   3.165 -1.1461  2.2528 -0.8780
   12MOL0     H 1554   5.418   9.659   3.167  1.0120 -0.7664 -0.4694
   12MOL0     H 1555   5.636   9.539   3.127  1.6116 -1.5200 -0.2811
   12MOL0     H 1556   5.557   9.415   3.012  0.0104  0.4084 -0.9335
   12MOL0     H 1557   5.808   9.397   3.096 -1.1041  0.3366  1.1424
   12MOL0     H 1558   5.844   9.540   3.009 -2.6203  1.9008  0.8186
   12MOL0     H 1559   5.771   9.414   2.791  2.9916 -2.6416 -2.7199
   12MOL0     H 1560   5.746   9.269   2.906 -0.6933  1.6214  1.1412
   12MOL0     H 1561   5.995   9.409   2.786 -0.1214  2.0876  1.8132
   12MOL0     H 1562   6.004   9.376   2.954  0.5603 -3.3944  1.3822
   12MOL0     H 1563   5.937   9.142   2.926 -0.6709 -1.5173 -1.2728
   12MOL0     H 1564   5.908   9.167   2.752  1.1943  1.5591 -2.1309
   12MOL0     H 1565   6.156   9.224   2.725  0.1316  0.3406 -0.0297
   12MOL0     H 1566   6.174   9.204   2.899 -0.1040  0.3104 -0.0330
   12MOL0     H 1567   6.051   8.969   2.799 -0.8558  0.6261 -0.6175
   12MOL0     H 1568   6.212   8.983   2.867 -0.5199  2.1872  0.5104
   12MOL0     H 1569   6.186   8.875   2.618  0.2190 -0.4813  2.5431
   12MOL0     H 1570   6.123   9.021   2.573 -1.0821 -4.3787 -1.7265
   12MOL0     H 1571   6.462   8.850   2.642 -2.8436 -1.1603 -1.5618
   12MOL0     H 1572   6.703   8.893   2.527  0.4963 -0.1346 -0.4070
   12MOL0     H 1573   6.671   8.959   2.369  0.7201 -1.9762  0.7973
   12MOL0     H 1574   6.722   9.195   2.479  0.1310  0.3743  1.4178
   12MOL0     H 1575   6.759   9.104   2.618 -3.4493  1.0146  0.2227
   12MOL0     H 1576   6.958   9.179   2.434  1.2841 -0.9683  0.9997
   12MOL0     H 1577   6.906   9.030   2.358 -0.2164  0.7411  0.3508
   12MOL0     H 1578   6.944   8.908   2.560 -0.7945 -0.3137 -2.0791
   12MOL0     H 1579   6.997   9.059   2.649  0.5964 -2.4899  1.8902
   12MOL0     H 1580   7.118   9.229   2.631  0.8221 -1.8050  2.2376
   12MOL0     H 1581   7.298   9.398   2.618  0.7472  0.5888  0.1008
   12MOL0     H 1582   7.653   9.596   2.282  1.0914 -1.4695 -3.1256
   12MOL0     H 1583   7.872   9.707   2.251  1.4796 -0.5968 -0.6788
   12MOL0     H 1584   8.163   9.633   2.497  3.1538  1.6668  0.9330
   12MOL0     H 1585   8.253   9.514   2.407  0.9177  0.1042 -3.8596
   12MOL0     H 1586   8.269   9.816   2.354 -0.1940 -0.2956 -0.8891
   12MOL0     H 1587   8.370   9.720   2.466 -1.1916 -1.6512  2.6124
   12MOL0     H 1588   8.447   9.576   2.252  0.3595  0.4619  3.0497
   12MOL0     H 1589   8.335   9.656   2.156  2.2549 -2.7738 -1.5614
   12MOL0     H 1590   8.533   9.830   2.282  0.2730  2.5235 -1.6920
   12MOL0     H 1591   8.417   9.857   2.150 -1.2713  0.0868  2.4370
   12MOL0     H 1592   8.540   9.699   2.011 -0.5617 -1.0246  1.2911
   12MOL0     H 1593   8.641   9.644   2.143  0.0522  0.2391 -1.3825
   12MOL0     H 1594   8.653   9.924   2.020 -0.7664 -0.5000  1.0453
   12MOL0     H 1595   8.758   9.860   2.135 -0.9121 -0.8266  1.2812
   12MOL0     H 1596   8.696   9.733   1.861 -1.7780  2.0843  0.9722
   12MOL0     H 1597   8.808   9.673   1.985  0.4036  1.9290  1.8237
   12MOL0     H 1598   8.935   9.794   1.795  0.3653  0.9175 -0.4391
   12MOL0     H 1599   8.855   9.937   1.855 -0.0260 -0.6462  0.8680
   12MOL0     H 1600   8.067   9.392   2.462  0.9061  1.8920  1.0541
   12MOL0     H 1601   7.838   9.276   2.486  0.9015  0.2457  1.3207
   12MOL0     H 1602   7.496   9.160   2.325 -3.2929 -4.1145 -1.7825
   12MOL0     H 1603   7.342   8.987   2.345 -0.6289 -0.5984  0.3177
   12MOL0     H 1604   5.419   9.657   2.740  2.3506 -3.9139  1.4734
   12MOL0     H 1605   5.174   9.718   2.750 -1.1254 -3.1840 -0.4466
   12MOL0     H 1606   4.743   9.498   3.108  1.6891  1.5358  0.0341
   12MOL0     H 1607   4.522   9.532   3.110  1.7435  0.0798  0.6610
   12MOL0     H 1608   4.305   9.639   3.136  3.4044 -2.1677 -0.6607
   12MOL0     H 1609   4.313   9.552   2.985 -1.0734  0.0760 -0.2879
   12MOL0     H 1610   4.110   9.761   3.035 -0.1037 -0.4013  0.5909
   12MOL0     H 1611   4.087   9.592   3.008 -2.8610  2.9151  1.5077
   12MOL0     H 1612   4.134   9.604   2.772  0.8976 -3.2394  3.9755
   12MOL0     H 1613   4.175   9.785   2.808  0.4370  0.5639  3.1303
   12MOL0     H 1614   3.953   9.816   2.869  0.3964  0.8032  0.3543
   12MOL0     H 1615   3.958   9.767   2.708  1.3833  0.8928  0.0647
   12MOL0     H 1616   3.761   9.422   2.901 -2.0343  0.8275 -1.9389
   12MOL0     H 1617   4.567   9.885   2.859  1.6131 -0.0959 -1.3130
   12MOL0     H 1618   4.895   9.803   2.751  0.1752 -0.8837 -0.4621
   12MOL0     H 1619   4.754   9.920   2.752  0.5706  1.9513  1.2419
   12MOL0     H 1620   4.870   9.912   2.886  0.0253 -1.0802 -0.2730
   13MOL0     O 1621   9.521   1.428   3.949  0.1098  0.5399  0.0776
   13MOL0     C 1622   9.447   1.369   4.025 -0.3630 -0.0634  0.2349
   13MOL0     O 1623   9.480   1.267   4.105 -0.6547 -0.6796 -0.8653
   13MOL0     C 1624   9.597   1.203   4.092 -0.6868 -0.1206  0.5134
   13MOL0     C 1625   9.704   1.228   4.172  0.4618 -0.0941  0.5917
   13MOL0     C 1626   9.829   1.175   4.149  0.7685  0.1589 -0.9011
   13MOL0     C 1627   9.844   1.077   4.045  0.3417  1.0368  0.1161
   13MOL0     O 1628   9.960   1.016   4.018 -0.5912  0.3534  0.4919
   13MOL0     C 1629  10.076   1.035   4.099 -0.5464 -0.1037  0.0992
   13MOL0     C 1630  10.194   0.938   4.067 -0.5955 -0.0760 -0.4092
   13MOL0     C 1631  10.248   0.973   3.927  0.6020  0.6530  0.6748
   13MOL0     C 1632  10.361   0.889   3.874 -0.2236  0.8191 -0.5063
   13MOL0     C 1633  10.413   0.940   3.733 -0.5911  0.5183 -0.6184
   13MOL0     C 1634  10.532   0.860   3.687 -0.1872 -0.2103 -0.1043
   13MOL0     C 1635  10.583   0.873   3.538  0.4195 -0.7692  0.7073
   13MOL0     C 1636  10.714   0.796   3.528  0.4048 -0.6418  0.0252
   13MOL0     N 1637  10.767   0.818   3.392 -0.2919 -0.6872 -0.8639
   13MOL0     C 1638  10.812   0.724   3.300  0.4207 -1.0394  0.4969
   13MOL0     C 1639  10.859   0.789   3.194 -0.1244 -0.0243 -0.2477
   13MOL0     C 1640  10.909   0.739   3.062 -1.0316  0.3333 -0.9213
   13MOL0     C 1641  10.796   0.683   2.975 -1.1703 -1.2056 -0.4780
   13MOL0     C 1642  10.739   0.550   3.029 -0.7757  0.2119 -0.3423
   13MOL0     C 1643  10.637   0.499   2.939  1.0727  0.4086 -0.9497
   13MOL0     O 1644  10.572   0.386   2.997  0.4244 -0.6948  0.6943
   13MOL0     C 1645  10.449   0.411   3.063 -0.4021  0.3287 -0.2728
   13MOL0     C 1646  10.421   0.526   3.138 -0.4978 -0.0411  0.2011
   13MOL0     C 1647  10.299   0.537   3.199 -0.0364  0.5242  0.9956
   13MOL0     C 1648  10.202   0.435   3.195  0.4027 -0.3352 -0.0651
   13MOL0     C 1649  10.076   0.450   3.278  0.1176 -1.0469 -0.7538
   13MOL0     O 1650  10.001   0.341   3.285  0.1914 -0.5415 -0.2950
   13MOL0     C 1651   9.887   0.336   3.369 -0.0732 -1.1284 -0.3232
   13MOL0     C 1652   9.787   0.247   3.338 -0.8935  1.3478  0.2150
   13MOL0     C 1653   9.681   0.235   3.431 -0.6966  0.2552 -0.5548
   13MOL0     C 1654   9.661   0.312   3.542 -0.1459  0.1171  0.5909
   13MOL0     O 1655   9.548   0.288   3.616  0.0197  0.2456 -0.2231
   13MOL0     C 1656   9.531   0.322   3.755  0.2018 -0.6719  0.2628
   13MOL0     C 1657   9.426   0.240   3.834 -0.6088 -0.5157  0.2201
   13MOL0     C 1658   9.445   0.088   3.822  0.2406  0.0833  0.9840
   13MOL0     C 1659   9.517   0.032   3.952  0.7060  0.0840 -1.0691
   13MOL0     C 1660   9.529  -0.123   3.970 -0.6927 -0.6688 -0.1033
   13MOL0     C 1661   9.626  -0.189   3.865  0.5214  0.1040 -0.4721
   13MOL0     C 1662   9.629  -0.348   3.880  0.2335 -0.2620 -0.0452
   13MOL0     C 1663   9.768  -0.401   3.857  0.6717  0.0732  0.3012
   13MOL0    Cl 1664   9.793  -0.579   3.910  0.3725 -0.1486  0.3804
   13MOL0     C 1665   9.761   0.405   3.574  0.5835  0.3076  0.3956
   13MOL0     C 1666   9.873   0.417   3.491  0.2941 -0.4661 -0.0499
   13MOL0     O 1667  10.045   0.566   3.312 -0.2297 -0.3420 -0.3255
   13MOL0     C 1668  10.231   0.313   3.122 -0.1584 -0.0538 -0.4691
   13MOL0     C 1669  10.353   0.304   3.060  0.8883 -0.4884  1.2508
   13MOL0     N 1670  10.854   0.919   3.219 -0.9507  0.0349  0.1083
   13MOL0     N 1671  10.806   0.938   3.334  0.1279  0.0447 -0.4597
   13MOL0     C 1672   9.733   1.041   3.967  1.0178 -0.3194  0.3133
   13MOL0     C 1673   9.615   1.108   3.989 -0.2953 -0.9337  0.2331
   13MOL0     C 1674   9.311   1.417   4.033  0.1923 -0.1038 -0.1631
   13MOL0     C 1675   9.258   1.404   4.157 -0.4259  0.2544 -0.3335
   13MOL0     C 1676   9.126   1.447   4.189  0.8797 -0.2977  0.6026
   13MOL0     C 1677   9.051   1.508   4.084 -0.3197 -0.2662 -0.5371
   13MOL0     O 1678   8.920   1.531   4.107 -0.4287  0.1485 -0.0228
   13MOL0     C 1679   8.825   1.450   4.035 -0.5769 -0.1407  0.2143
   13MOL0     C 1680   8.702   1.414   4.127  0.2973 -0.2831 -0.8928
   13MOL0     C 1681   8.630   1.546   4.165  0.6344  0.4250 -0.6626
   13MOL0     C 1682   8.505   1.549   4.257  0.1165 -0.3872  0.8639
   13MOL0     C 1683   8.383   1.581   4.180  0.0390 -0.0654 -0.6935
   13MOL0     C 1684   8.297   1.624   4.110  0.4442  0.9481  1.4736
   13MOL0     C 1685   9.106   1.516   3.956  0.1050 -0.0492 -0.2280
   13MOL0     C 1686   9.236   1.473   3.930  0.0108  0.1931  0.0118
   13MOL0     C 1687   9.280   1.486   3.783 -0.1809  0.8217  0.1140
   13MOL0     H 1688   9.687   1.310   4.241 -1.0766  1.4782 -1.5268
   13MOL0     H 1689   9.899   1.197   4.228 -1.7028 -0.0295  1.4914
   13MOL0     H 1690  10.104   1.141   4.103 -0.2002 -0.1726 -0.4274
   13MOL0     H 1691  10.045   1.014   4.202  1.5865  0.3040  0.8802
   13MOL0     H 1692  10.166   0.834   4.084  1.2286 -0.6845 -0.8856
   13MOL0     H 1693  10.271   0.954   4.143  1.2392 -3.9925 -1.2234
   13MOL0     H 1694  10.285   1.075   3.939  2.7628  0.0127 -0.0992
   13MOL0     H 1695  10.163   0.980   3.859 -1.3539 -0.2910  2.8568
   13MOL0     H 1696  10.451   0.883   3.936 -1.1842  2.1764  1.1444
   13MOL0     H 1697  10.334   0.785   3.857 -2.3412  1.1696  0.2756
   13MOL0     H 1698  10.331   0.932   3.661 -1.7003  1.6240  0.4911
   13MOL0     H 1699  10.448   1.044   3.737 -1.5210  0.8060  1.8901
   13MOL0     H 1700  10.618   0.898   3.744 -0.1669 -2.1120  1.2039
   13MOL0     H 1701  10.523   0.754   3.714  0.7628 -0.0101  1.1077
   13MOL0     H 1702  10.602   0.974   3.501 -1.5422 -0.3188  0.8193
   13MOL0     H 1703  10.513   0.830   3.466  1.1241  2.8469 -2.4252
   13MOL0     H 1704  10.787   0.823   3.605  1.2567 -1.2296 -0.5596
   13MOL0     H 1705  10.701   0.690   3.551  2.2345 -1.0731 -0.7199
   13MOL0     H 1706  10.810   0.617   3.316 -3.6645 -1.0694  0.9147
   13MOL0     H 1707  10.958   0.823   3.011  1.5744 -0.4263  0.2012
   13MOL0     H 1708  10.992   0.668   3.074  1.4734  2.9882 -1.3962
   13MOL0     H 1709  10.710   0.751   2.973  0.7845  1.4797  0.3507
   13MOL0     H 1710  10.835   0.663   2.875  0.2779  0.6822 -0.3359
   13MOL0     H 1711  10.707   0.565   3.132  3.1099  0.4501  0.9843
   13MOL0     H 1712  10.816   0.473   3.037 -1.1160 -0.0432  0.6619
   13MOL0     H 1713  10.676   0.459   2.845  3.7894  0.8435 -0.1004
   13MOL0     H 1714  10.561   0.573   2.914 -1.1845 -0.3157  2.9844
   13MOL0     H 1715  10.489   0.607   3.161 -1.4500  0.9431 -0.3513
   13MOL0     H 1716  10.288   0.631   3.251  0.0243  0.8332  0.4624
   13MOL0     H 1717   9.780   0.178   3.254 -0.2271 -1.5361  2.3547
   13MOL0     H 1718   9.605   0.162   3.403 -0.3922  0.0741 -0.9372
   13MOL0     H 1719   9.624   0.331   3.812  0.2996  0.0938 -0.0068
   13MOL0     H 1720   9.483   0.419   3.747 -2.4506 -1.9031  0.2510
   13MOL0     H 1721   9.430   0.272   3.938 -4.2957 -1.5824  0.8467
   13MOL0     H 1722   9.329   0.261   3.788  0.9938 -1.2449 -3.9256
   13MOL0     H 1723   9.350   0.034   3.820 -0.5813  1.4667 -0.1405
   13MOL0     H 1724   9.497   0.063   3.729 -2.3265  0.5154 -0.6823
   13MOL0     H 1725   9.455   0.070   4.034  1.0208 -1.3338 -0.1360
   13MOL0     H 1726   9.616   0.080   3.955  0.5167  0.6580 -2.6057
   13MOL0     H 1727   9.424  -0.153   3.962 -1.3163  1.0249  1.0491
   13MOL0     H 1728   9.565  -0.152   4.070 -0.0383 -1.6154 -0.5982
   13MOL0     H 1729   9.594  -0.163   3.764 -0.1735 -0.3853 -0.3826
   13MOL0     H 1730   9.727  -0.153   3.888  0.5270 -1.0940  1.6325
   13MOL0     H 1731   9.565  -0.393   3.804 -2.1797 -1.3612  2.4776
   13MOL0     H 1732   9.604  -0.387   3.979 -1.9379 -2.3666 -1.3266
   13MOL0     H 1733   9.797  -0.381   3.754  0.2181 -0.8931 -0.0319
   13MOL0     H 1734   9.832  -0.333   3.914  1.1563 -0.0888 -0.0492
   13MOL0     H 1735   9.745   0.466   3.662 -3.3296 -1.6128  1.2249
   13MOL0     H 1736   9.952   0.489   3.509  0.8121 -0.3298 -2.4268
   13MOL0     H 1737  10.167   0.228   3.138 -1.3570  0.9423  0.1772
   13MOL0     H 1738  10.372   0.210   3.009 -1.2776  0.7974 -2.3014
   13MOL0     H 1739   9.734   0.967   3.887 -0.6919 -1.2261  1.0799
   13MOL0     H 1740   9.541   1.096   3.911  1.1231  1.0597 -1.5573
   13MOL0     H 1741   9.319   1.360   4.235  0.8871 -0.2019 -1.5792
   13MOL0     H 1742   9.076   1.442   4.285  1.5263 -1.8721  0.8891
   13MOL0     H 1743   8.869   1.364   3.983  1.7673  0.9643  0.2550
   13MOL0     H 1744   8.793   1.519   3.956 -0.6385  0.7273  0.9848
   13MOL0     H 1745   8.726   1.357   4.217 -1.6589  0.9172  0.4709
   13MOL0     H 1746   8.639   1.345   4.070  0.1019 -0.3167 -0.6422
   13MOL0     H 1747   8.593   1.590   4.072  0.8467 -0.8150 -1.3487
   13MOL0     H 1748   8.705   1.611   4.211  1.6993 -1.8616  1.0341
   13MOL0     H 1749   8.493   1.454   4.309 -1.9876 -0.3927  0.4661
   13MOL0     H 1750   8.514   1.630   4.330  0.4687  0.9027 -0.5483
   13MOL0     H 1751   8.220   1.665   4.049  1.8006  1.2566 -0.0988
   13MOL0     H 1752   9.041   1.551   3.876  0.0984 -0.9223 -0.6209
   13MOL0     H 1753   9.251   1.582   3.738  3.7508  2.6239  0.9796
   13MOL0     H 1754   9.387   1.478   3.764 -0.4592  0.7883 -1.6504
   13MOL0     H 1755   9.230   1.415   3.716 -1.0927  1.8108 -0.2860
   14MOL0     O 1756   2.475   8.905   0.790  0.7595  0.0726  0.2258
   14MOL0     C 1757   2.386   8.994   0.792 -0.7098 -0.5402 -0.9642
   14MOL0     O 1758   2.410   9.127   0.787  0.0967  0.6003 -1.2605
   14MOL0     C 1759   2.538   9.169   0.813  0.2649 -0.3394 -0.2265
   14MOL0     C 1760   2.554   9.259   0.913 -0.0715  0.1830  0.2505
   14MOL0     C 1761   2.678   9.319   0.931 -0.3739 -0.6393 -0.0336
   14MOL0     C 1762   2.789   9.289   0.848  0.2891  0.2425 -0.6758
   14MOL0     O 1763   2.921   9.328   0.869  0.1138 -0.0978  0.6655
   14MOL0     C 1764   2.938   9.463   0.906 -0.8373  0.8085 -0.5818
   14MOL0     C 1765   3.085   9.485   0.922 -0.6443  0.4651 -0.5737
   14MOL0     C 1766   3.171   9.460   0.802 -0.2843  0.6825  0.3980
   14MOL0     C 1767   3.321   9.464   0.835 -0.3757  0.4453  0.2480
   14MOL0     C 1768   3.412   9.452   0.716 -0.2569  0.1686  0.2631
   14MOL0     C 1769   3.542   9.382   0.748 -0.4226 -1.1174  0.3554
   14MOL0     C 1770   3.615   9.475   0.844  0.4913 -0.8287 -0.4878
   14MOL0     C 1771   3.713   9.383   0.931  0.1926  0.6215  0.7249
   14MOL0     N 1772   3.811   9.318   0.840 -0.4618  0.2310 -0.1804
   14MOL0     C 1773   3.858   9.188   0.858  0.3006 -0.0909 -0.1811
   14MOL0     C 1774   3.957   9.176   0.765 -0.4061 -0.3066  0.5375
   14MOL0     C 1775   4.030   9.047   0.748 -1.1092 -0.4183  0.3591
   14MOL0     C 1776   4.053   9.014   0.602 -1.2650  0.1060 -0.0354
   14MOL0     C 1777   4.137   8.895   0.582 -0.3648  0.1135 -0.4687
   14MOL0     C 1778   4.287   8.927   0.598  0.8369  0.2035 -0.0129
   14MOL0     O 1779   4.354   8.804   0.608  0.4371 -0.1105  0.0884
   14MOL0     C 1780   4.490   8.811   0.644  0.0681  0.6634 -0.0138
   14MOL0     C 1781   4.576   8.915   0.626 -0.7752  0.4133 -0.2441
   14MOL0     C 1782   4.707   8.916   0.669 -1.0089 -0.4717 -0.2390
   14MOL0     C 1783   4.764   8.800   0.731 -0.2242 -0.1966  0.2522
   14MOL0     C 1784   4.910   8.789   0.770 -0.0298 -0.1241  0.9016
   14MOL0     O 1785   4.944   8.677   0.841 -0.3891  0.1371  0.6539
   14MOL0     C 1786   5.079   8.662   0.854  0.4044 -0.0435 -0.0052
   14MOL0     C 1787   5.159   8.743   0.939 -0.5102  0.3335 -0.3202
   14MOL0     C 1788   5.295   8.708   0.961 -0.0236 -0.8199 -0.1750
   14MOL0     C 1789   5.350   8.604   0.887 -0.3170 -0.6301 -0.6971
   14MOL0     O 1790   5.482   8.574   0.883 -0.0238  0.5745  0.2153
   14MOL0     C 1791   5.567   8.641   0.976  0.3879 -0.0640 -0.4408
   14MOL0     C 1792   5.607   8.778   0.927  0.3372 -0.0403  0.0720
   14MOL0     C 1793   5.647   8.881   1.036 -0.8065  0.3892  0.2830
   14MOL0     C 1794   5.771   8.821   1.102  0.3735  1.0046 -0.6231
   14MOL0     C 1795   5.835   8.929   1.182  0.4332 -0.3829 -0.8879
   14MOL0     C 1796   5.930   9.022   1.097  0.0938  1.1014  0.2179
   14MOL0     C 1797   6.008   9.131   1.174  0.1303 -0.7955  0.2487
   14MOL0     C 1798   6.113   9.067   1.273 -0.4302 -0.1711  0.6108
   14MOL0    Cl 1799   6.233   8.959   1.182  0.0345 -0.0689  0.1598
   14MOL0     C 1800   5.275   8.530   0.804  0.0626  0.5527  0.1680
   14MOL0     C 1801   5.138   8.561   0.784  0.7661 -0.0164  0.2973
   14MOL0     O 1802   4.988   8.880   0.732  0.0007 -0.4589  0.1693
   14MOL0     C 1803   4.676   8.685   0.743 -0.3890  0.4650 -0.6958
   14MOL0     C 1804   4.545   8.695   0.700  1.2220  0.8372  0.3754
   14MOL0     N 1805   3.978   9.296   0.704 -0.1263 -0.0735  0.1088
   14MOL0     N 1806   3.894   9.385   0.749  0.3711 -0.0681 -1.0091
   14MOL0     C 1807   2.771   9.184   0.758  0.4599 -0.1241  1.1894
   14MOL0     C 1808   2.641   9.135   0.724  0.3772  0.2091  0.8884
   14MOL0     C 1809   2.243   8.958   0.776 -0.3489 -1.2760 -0.5257
   14MOL0     C 1810   2.154   9.055   0.729  0.2198  0.5757 -0.5759
   14MOL0     C 1811   2.022   9.019   0.693 -0.1544  0.4731 -0.6146
   14MOL0     C 1812   1.970   8.894   0.724 -0.5147 -0.3520 -0.1519
   14MOL0     O 1813   1.845   8.850   0.689 -0.9988 -1.0290  0.1894
   14MOL0     C 1814   1.754   8.944   0.639 -0.8468 -0.1505 -0.4228
   14MOL0     C 1815   1.624   8.879   0.614  0.1447 -0.2825  0.2584
   14MOL0     C 1816   1.579   8.800   0.739 -0.1867 -0.3144  0.7744
   14MOL0     C 1817   1.450   8.719   0.703  0.0774 -0.7808  0.0015
   14MOL0     C 1818   1.402   8.631   0.808 -0.7463  0.0327  0.5133
   14MOL0     C 1819   1.357   8.569   0.903 -0.4510 -0.0302 -0.6518
   14MOL0     C 1820   2.059   8.802   0.777 -0.7205 -0.1908 -0.8108
   14MOL0     C 1821   2.196   8.828   0.807  1.0991  0.0008  0.0831
   14MOL0     C 1822   2.276   8.711   0.861  0.0413 -1.4090  0.0450
   14MOL0     H 1823   2.463   9.276   0.969 -1.2882  0.3146 -1.6737
   14MOL0     H 1824   2.690   9.391   1.012  0.7944 -0.8750  0.0163
   14MOL0     H 1825   2.902   9.533   0.830  0.8239 -0.2270 -2.4218
   14MOL0     H 1826   2.884   9.491   0.997 -2.6073 -0.9155 -1.0360
   14MOL0     H 1827   3.129   9.419   0.998  0.3870  0.5516 -1.0701
   14MOL0     H 1828   3.096   9.584   0.967 -0.6327 -0.3006  1.2225
   14MOL0     H 1829   3.145   9.530   0.722 -2.2578 -0.2259  0.1857
   14MOL0     H 1830   3.150   9.359   0.765  2.3649  0.1150  0.2371
   14MOL0     H 1831   3.340   9.557   0.890  1.3722  0.6326 -0.5961
   14MOL0     H 1832   3.345   9.375   0.894 -1.8668  0.1777  0.4776
   14MOL0     H 1833   3.372   9.387   0.637 -2.7648  0.4712  1.2007
   14MOL0     H 1834   3.430   9.548   0.667  2.3173 -0.1595  0.3987
   14MOL0     H 1835   3.517   9.285   0.792 -2.0810 -1.3454 -0.9751
   14MOL0     H 1836   3.603   9.369   0.659  0.8718  1.8866  0.6752
   14MOL0     H 1837   3.539   9.524   0.906 -0.9280 -1.9299 -1.2735
   14MOL0     H 1838   3.675   9.555   0.801  0.1905  0.6776  1.7421
   14MOL0     H 1839   3.755   9.451   1.005 -0.1240 -0.3907  1.8821
   14MOL0     H 1840   3.652   9.312   0.988 -1.0306 -0.3040 -1.5985
   14MOL0     H 1841   3.833   9.116   0.936 -2.2232 -0.0444 -0.8368
   14MOL0     H 1842   4.125   9.057   0.801 -1.5086 -2.3150  1.5287
   14MOL0     H 1843   3.979   8.965   0.800  0.4031 -1.1824  0.6971
   14MOL0     H 1844   3.954   8.996   0.561 -1.0318 -3.4031  0.5619
   14MOL0     H 1845   4.103   9.098   0.553 -1.8231 -0.4720 -1.6596
   14MOL0     H 1846   4.123   8.839   0.489  0.1605 -2.3593  0.8379
   14MOL0     H 1847   4.118   8.820   0.659  2.3266 -1.3386 -1.0949
   14MOL0     H 1848   4.312   8.987   0.686  1.7081  1.4671 -1.0587
   14MOL0     H 1849   4.315   8.979   0.505 -0.4372 -0.3832 -0.7501
   14MOL0     H 1850   4.530   9.008   0.594  2.5332  1.6163 -1.9578
   14MOL0     H 1851   4.763   9.010   0.662  0.5339 -1.2030  1.3741
   14MOL0     H 1852   5.119   8.830   0.989  0.7396  0.5584  0.3304
   14MOL0     H 1853   5.359   8.762   1.030  0.4589 -0.2250 -1.0761
   14MOL0     H 1854   5.522   8.655   1.075 -1.7692  1.2125 -1.5369
   14MOL0     H 1855   5.662   8.590   0.994  1.2062  1.7281  0.5860
   14MOL0     H 1856   5.694   8.754   0.865 -0.3589 -1.9410 -0.2498
   14MOL0     H 1857   5.530   8.829   0.869  1.1490  2.7503  1.2971
   14MOL0     H 1858   5.681   8.973   0.988  3.3783 -0.7765  0.6207
   14MOL0     H 1859   5.563   8.899   1.105  1.0557  2.1181  2.2441
   14MOL0     H 1860   5.853   8.786   1.040 -0.4918 -2.3943 -0.0528
   14MOL0     H 1861   5.742   8.733   1.160  2.2036 -0.0812 -1.2864
   14MOL0     H 1862   5.899   8.887   1.260  2.0158  3.9913  0.4168
   14MOL0     H 1863   5.759   8.992   1.227 -1.4788 -1.6184 -2.2309
   14MOL0     H 1864   5.998   8.960   1.036 -0.9811 -0.2527  0.3649
   14MOL0     H 1865   5.878   9.073   1.015  3.2558 -0.0453 -2.8156
   14MOL0     H 1866   5.935   9.194   1.226  0.8586 -0.0036  0.3414
   14MOL0     H 1867   6.051   9.186   1.090 -1.8412 -1.9026 -1.5499
   14MOL0     H 1868   6.167   9.144   1.328  0.9475  1.5926 -2.8781
   14MOL0     H 1869   6.056   9.012   1.349 -0.8109 -2.7198 -1.3609
   14MOL0     H 1870   5.327   8.449   0.754 -1.0976 -0.4727  0.5793
   14MOL0     H 1871   5.067   8.519   0.713 -0.4540  0.4966  1.1696
   14MOL0     H 1872   4.704   8.589   0.784 -2.1040 -0.3369 -1.3193
   14MOL0     H 1873   4.476   8.612   0.710 -1.0362  2.3757 -1.3491
   14MOL0     H 1874   2.864   9.146   0.717  1.2298  0.4657  2.3461
   14MOL0     H 1875   2.622   9.064   0.645  2.9148 -0.7424  1.0398
   14MOL0     H 1876   2.186   9.155   0.704  1.6902  0.8857  2.1345
   14MOL0     H 1877   1.959   9.095   0.648  0.6910  1.0039 -0.9179
   14MOL0     H 1878   1.794   8.993   0.549  0.1268  1.0479  0.6281
   14MOL0     H 1879   1.722   9.009   0.721  0.6135 -0.1248  0.1584
   14MOL0     H 1880   1.648   8.812   0.531  1.9794 -0.5940  1.0059
   14MOL0     H 1881   1.543   8.947   0.584 -1.7578 -2.2956  0.5656
   14MOL0     H 1882   1.561   8.869   0.821  1.1922 -0.0382  0.8525
   14MOL0     H 1883   1.653   8.724   0.766  1.1578  0.7985  0.2984
   14MOL0     H 1884   1.374   8.790   0.671  2.2773  1.8581  0.2833
   14MOL0     H 1885   1.470   8.661   0.613  0.5543  1.7853 -1.6386
   14MOL0     H 1886   1.319   8.515   0.987 -0.0098  0.3383 -0.2106
   14MOL0     H 1887   2.021   8.703   0.797 -2.2377  0.9162  2.5904
   14MOL0     H 1888   2.306   8.754   0.957 -3.3813  2.0021 -0.1776
   14MOL0     H 1889   2.211   8.624   0.872  0.2229 -1.6798 -0.9597
   14MOL0     H 1890   2.356   8.683   0.792  0.0692  0.2124 -0.6113
   15MOL0     O 1891   0.888   0.135   5.978 -0.4965  0.0651 -0.2976
   15MOL0     C 1892   0.779   0.176   5.940  0.0762 -0.1090  0.0057
   15MOL0     O 1893   0.728   0.287   5.989  0.2940  0.2948  0.1330
   15MOL0     C 1894   0.781   0.361   6.084 -0.8901 -0.2321 -0.1210
   15MOL0     C 1895   0.896   0.433   6.053 -0.1399 -0.1609  0.1618
   15MOL0     C 1896   0.962   0.505   6.145 -0.4557 -0.5771 -0.9557
   15MOL0     C 1897   0.923   0.507   6.282  0.1234 -0.4292  0.0880
   15MOL0     O 1898   0.988   0.591   6.365  0.1307  1.0699 -0.0924
   15MOL0     C 1899   1.134   0.609   6.353  0.4229 -0.1769 -0.0719
   15MOL0     C 1900   1.206   0.641   6.484  0.1296 -0.2046 -0.3168
   15MOL0     C 1901   1.176   0.781   6.541 -0.4688 -0.1876  0.1981
   15MOL0     C 1902   1.283   0.833   6.635 -0.1457 -0.5529  1.0508
   15MOL0     C 1903   1.240   0.958   6.708  0.2563  0.4692  0.5224
   15MOL0     C 1904   1.360   1.042   6.773 -0.7377  0.5186 -0.5631
   15MOL0     C 1905   1.451   0.962   6.862  0.5266  0.2070  0.1935
   15MOL0     C 1906   1.602   1.007   6.845  0.6069 -0.3420 -0.0640
   15MOL0     N 1907   1.629   1.157   6.856  0.9842  0.0082  0.1961
   15MOL0     C 1908   1.677   1.241   6.757  0.4466  0.6593  0.9318
   15MOL0     C 1909   1.695   1.350   6.829 -0.2289  0.6799  0.7847
   15MOL0     C 1910   1.772   1.476   6.778 -0.5373  0.8083  0.4446
   15MOL0     C 1911   1.920   1.433   6.781  0.1143 -0.3667 -0.8917
   15MOL0     C 1912   2.006   1.547   6.750  0.4137  0.3807 -0.1474
   15MOL0     C 1913   2.151   1.503   6.750 -0.2305 -1.0440  0.7693
   15MOL0     O 1914   2.167   1.383   6.664 -0.1790 -0.8118  0.0329
   15MOL0     C 1915   2.284   1.318   6.675  0.8565 -0.2520  0.4788
   15MOL0     C 1916   2.282   1.189   6.608 -0.3241  0.0631 -0.8187
   15MOL0     C 1917   2.394   1.113   6.604 -0.4573  0.1434 -0.4082
   15MOL0     C 1918   2.515   1.161   6.671 -0.1851 -0.0379 -0.9984
   15MOL0     C 1919   2.642   1.080   6.660  0.1082 -0.5254  0.1803
   15MOL0     O 1920   2.641   0.967   6.583 -0.4543 -0.4778  0.3804
   15MOL0     C 1921   2.750   0.888   6.558  0.1350 -0.3821 -0.5555
   15MOL0     C 1922   2.883   0.935   6.538 -0.0245 -0.3026 -0.5990
   15MOL0     C 1923   2.977   0.846   6.481 -0.1862 -0.0239  0.0720
   15MOL0     C 1924   2.961   0.699   6.480 -0.4850  0.3650  0.1551
   15MOL0     O 1925   3.074   0.628   6.446  0.2223 -0.0868 -0.2575
   15MOL0     C 1926   3.091   0.493   6.498  0.0120 -0.8937  0.0623
   15MOL0     C 1927   3.218   0.437   6.443  0.3927  0.0189 -0.2008
   15MOL0     C 1928   3.343   0.522   6.479 -1.5340 -0.2143  0.2162
   15MOL0     C 1929   3.472   0.436   6.483  0.4007 -0.0550  0.1509
   15MOL0     C 1930   3.596   0.525   6.476 -0.0001 -0.3620  0.1619
   15MOL0     C 1931   3.710   0.440   6.455  0.3029  0.8145 -1.0488
   15MOL0     C 1932   3.838   0.498   6.412 -0.2297 -0.2734  0.1782
   15MOL0     C 1933   3.952   0.449   6.499  0.0919 -0.2493  0.0459
   15MOL0    Cl 1934   4.114   0.505   6.451  0.8138 -0.2464  0.3240
   15MOL0     C 1935   2.837   0.656   6.527 -0.1406  0.4229  1.2058
   15MOL0     C 1936   2.736   0.747   6.562  0.5530  0.6393 -0.3897
   15MOL0     O 1937   2.740   1.122   6.725 -0.3212 -0.4899 -0.3398
   15MOL0     C 1938   2.515   1.281   6.727 -0.1786 -0.8132 -0.7835
   15MOL0     C 1939   2.404   1.358   6.735  0.4236 -0.4840  0.3376
   15MOL0     N 1940   1.646   1.339   6.957 -0.5686 -0.4043 -0.2412
   15MOL0     N 1941   1.627   1.217   6.980 -0.5619 -0.0964  0.7559
   15MOL0     C 1942   0.807   0.438   6.311  0.2648  0.1800 -0.1297
   15MOL0     C 1943   0.741   0.358   6.213 -0.6233  0.5896 -0.5987
   15MOL0     C 1944   0.696   0.117   5.836  0.1457  0.4381 -0.1862
   15MOL0     C 1945   0.612   0.206   5.761  0.0685  0.9811 -0.1059
   15MOL0     C 1946   0.512   0.151   5.677 -0.0932 -0.4316  0.3297
   15MOL0     C 1947   0.501   0.015   5.647  0.0442  0.5995  1.2271
   15MOL0     O 1948   0.409  -0.060   5.577 -0.1436 -0.1027 -0.4134
   15MOL0     C 1949   0.324   0.005   5.487 -0.9205  0.8237  0.0928
   15MOL0     C 1950   0.216  -0.086   5.452 -0.1981  0.1992  0.6769
   15MOL0     C 1951   0.161  -0.075   5.315  0.4617  0.2916 -0.1172
   15MOL0     C 1952   0.041  -0.177   5.297 -0.9562  0.3128  0.4292
   15MOL0     C 1953   0.019  -0.200   5.153  0.1055  0.3142 -0.5842
   15MOL0     C 1954   0.014  -0.225   5.037  0.7044  0.5562  0.2387
   15MOL0     C 1955   0.591  -0.070   5.716 -1.2616  0.7145  0.1836
   15MOL0     C 1956   0.687  -0.022   5.806  0.5457 -0.1874 -0.6902
   15MOL0     C 1957   0.768  -0.122   5.887 -0.3201  0.0916  0.8029
   15MOL0     H 1958   0.943   0.408   5.959  2.1186 -2.9145  1.8420
   15MOL0     H 1959   1.035   0.574   6.105  2.9987 -1.9015  2.4788
   15MOL0     H 1960   1.177   0.516   6.316 -1.0580 -2.4510  3.4127
   15MOL0     H 1961   1.152   0.687   6.278 -1.4593 -1.1047 -1.5913
   15MOL0     H 1962   1.315   0.638   6.467  0.2741 -1.5453  0.7455
   15MOL0     H 1963   1.173   0.560   6.549 -3.0463  1.2782  0.1039
   15MOL0     H 1964   1.077   0.779   6.589  0.5710  1.3324  2.6094
   15MOL0     H 1965   1.158   0.853   6.461 -0.6733 -0.2267  0.2084
   15MOL0     H 1966   1.318   0.750   6.697 -0.6379 -2.0267 -0.5547
   15MOL0     H 1967   1.371   0.855   6.575 -0.2330 -1.8684  0.4051
   15MOL0     H 1968   1.187   1.023   6.638 -1.0625 -1.5911 -0.4848
   15MOL0     H 1969   1.169   0.916   6.780  1.0937 -0.8322  0.6262
   15MOL0     H 1970   1.419   1.078   6.688 -1.6261 -0.4189 -1.5953
   15MOL0     H 1971   1.306   1.128   6.812 -3.0925 -0.2101 -2.0432
   15MOL0     H 1972   1.452   0.857   6.832  0.8955  1.4309 -5.1261
   15MOL0     H 1973   1.420   0.984   6.964  0.6962 -0.0983  0.3127
   15MOL0     H 1974   1.656   0.956   6.925 -0.7321 -1.3643  0.2166
   15MOL0     H 1975   1.633   0.971   6.747 -2.4542  1.9291 -2.0860
   15MOL0     H 1976   1.729   1.213   6.666 -0.9926  1.2002 -0.0970
   15MOL0     H 1977   1.740   1.515   6.682 -0.1939  0.5280  0.2140
   15MOL0     H 1978   1.761   1.559   6.848  3.5817  2.7772 -0.9293
   15MOL0     H 1979   1.952   1.407   6.882 -1.3309  2.0587  0.2870
   15MOL0     H 1980   1.939   1.348   6.715  0.7348  0.4066 -1.7361
   15MOL0     H 1981   1.990   1.621   6.829 -1.0990 -0.9981  0.9215
   15MOL0     H 1982   1.977   1.583   6.651 -1.4369 -2.7102 -0.8641
   15MOL0     H 1983   2.193   1.471   6.846  1.7229 -1.8280 -0.2928
   15MOL0     H 1984   2.211   1.583   6.706 -2.2858  0.5422  0.7136
   15MOL0     H 1985   2.188   1.156   6.564 -0.6345  1.6693 -1.4416
   15MOL0     H 1986   2.398   1.015   6.558 -0.5644 -0.3851  0.6738
   15MOL0     H 1987   2.910   1.040   6.539  2.5497 -0.8705  1.3873
   15MOL0     H 1988   3.068   0.891   6.443 -0.8304  1.3447  0.1114
   15MOL0     H 1989   3.097   0.502   6.607 -1.1684  1.1134  0.0025
   15MOL0     H 1990   3.004   0.428   6.487 -1.2094  1.0665 -3.5559
   15MOL0     H 1991   3.217   0.341   6.494  0.7063  0.7546  1.2507
   15MOL0     H 1992   3.206   0.415   6.337 -0.1217  0.5901 -0.2723
   15MOL0     H 1993   3.356   0.593   6.397 -0.6379 -1.0849 -0.4184
   15MOL0     H 1994   3.334   0.579   6.572 -0.3425 -0.7799  0.6991
   15MOL0     H 1995   3.471   0.365   6.400 -2.1691  0.1357 -0.0594
   15MOL0     H 1996   3.470   0.379   6.576 -1.6041 -2.1768 -1.0874
   15MOL0     H 1997   3.591   0.573   6.574 -2.5526  0.8012 -0.4558
   15MOL0     H 1998   3.586   0.601   6.398  1.6614  0.6832  0.9108
   15MOL0     H 1999   3.738   0.403   6.554  2.5034  0.9764 -1.5678
   15MOL0     H 2000   3.698   0.357   6.385  3.4108 -1.3467  0.7841
   15MOL0     H 2001   3.838   0.607   6.410  1.1493 -0.2684 -1.0237
   15MOL0     H 2002   3.868   0.477   6.309 -0.2183  2.9951 -0.5932
   15MOL0     H 2003   3.936   0.483   6.602 -0.3078  0.2987 -0.1915
   15MOL0     H 2004   3.964   0.341   6.499  1.1845 -0.1763  1.9314
   15MOL0     H 2005   2.807   0.553   6.541 -0.0136  0.5004  2.0842
   15MOL0     H 2006   2.639   0.712   6.597  0.5228  1.0312 -0.0675
   15MOL0     H 2007   2.602   1.339   6.755  0.4833 -2.0974 -0.0947
   15MOL0     H 2008   2.412   1.460   6.771 -1.5510  0.9418 -2.8366
   15MOL0     H 2009   0.757   0.439   6.407 -0.1251 -0.5372 -0.3180
   15MOL0     H 2010   0.662   0.299   6.259 -0.0553  1.7351  2.0666
   15MOL0     H 2011   0.614   0.312   5.784 -0.5874  0.3425  3.4150
   15MOL0     H 2012   0.450   0.218   5.618  0.9542  0.3044  0.0272
   15MOL0     H 2013   0.376   0.040   5.397  1.9667 -0.5162  1.1287
   15MOL0     H 2014   0.283   0.088   5.544 -1.8410  0.1494  0.4329
   15MOL0     H 2015   0.144  -0.071   5.533  2.2506 -0.3493  3.1131
   15MOL0     H 2016   0.247  -0.190   5.469 -1.0218  0.1038  1.6808
   15MOL0     H 2017   0.244  -0.099   5.247  0.0961  0.9496 -0.8075
   15MOL0     H 2018   0.132   0.029   5.299 -0.6391 -0.2505 -1.8867
   15MOL0     H 2019   0.063  -0.270   5.349 -0.5736 -0.5040 -1.1555
   15MOL0     H 2020  -0.050  -0.134   5.342 -0.6427 -1.5208  3.0450
   15MOL0     H 2021   0.016  -0.245   4.932 -2.0536 -1.5583  0.4939
   15MOL0     H 2022   0.577  -0.177   5.704 -0.1740  0.5328  0.4941
   15MOL0     H 2023   0.873  -0.125   5.856 -0.5684 -3.2811 -0.0534
   15MOL0     H 2024   0.773  -0.098   5.994  1.9772 -0.6603  0.9195
   15MOL0     H 2025   0.726  -0.222   5.878 -1.5142  0.2171  3.7122
   16MOL0     O 2026  10.728   1.319   7.159 -0.6788  0.5677 -0.1503
   16MOL0     C 2027  10.694   1.370   7.270 -0.1760  0.5312 -0.4465
   16MOL0     O 2028  10.778   1.440   7.358 -0.0169  0.3648 -0.5823
   16MOL0     C 2029  10.913   1.435   7.328  0.0409 -0.5087  0.2138
   16MOL0     C 2030  10.980   1.316   7.309 -0.3046  0.3785 -0.0678
   16MOL0     C 2031  11.125   1.330   7.288 -0.3608 -0.4737 -0.6454
   16MOL0     C 2032  11.194   1.448   7.288  0.1283 -0.3451 -0.2397
   16MOL0     O 2033  11.327   1.453   7.276 -0.4252  0.3367 -0.2496
   16MOL0     C 2034  11.390   1.580   7.278  0.3031 -0.3098  0.9586
   16MOL0     C 2035  11.537   1.553   7.255 -0.4856 -0.1167 -0.4460
   16MOL0     C 2036  11.631   1.667   7.292 -0.6093 -0.2984 -0.4861
   16MOL0     C 2037  11.778   1.631   7.256  0.1519 -0.4614 -0.4070
   16MOL0     C 2038  11.874   1.753   7.247 -0.6656  0.3845  0.5940
   16MOL0     C 2039  12.013   1.702   7.188  0.3054  0.6691 -0.1508
   16MOL0     C 2040  12.128   1.796   7.228  0.8703 -0.5451  0.3907
   16MOL0     C 2041  12.266   1.726   7.206  0.6127 -0.9490 -0.0171
   16MOL0     N 2042  12.368   1.832   7.231 -0.2836 -0.1018 -0.4744
   16MOL0     C 2043  12.416   1.873   7.348  0.3011  0.4200 -0.3322
   16MOL0     C 2044  12.486   1.982   7.332 -0.5974 -0.4441  0.2981
   16MOL0     C 2045  12.547   2.063   7.445 -0.5822 -0.5644 -0.4411
   16MOL0     C 2046  12.598   1.984   7.565  0.6098 -0.1219 -0.6842
   16MOL0     C 2047  12.705   1.879   7.533 -0.1520  0.1933 -0.1357
   16MOL0     C 2048  12.844   1.950   7.520  0.3104 -0.1467 -0.6221
   16MOL0     O 2049  12.950   1.868   7.570  0.0360  0.9976  0.3850
   16MOL0     C 2050  13.077   1.908   7.556  0.0194 -0.0544 -0.4402
   16MOL0     C 2051  13.182   1.823   7.598 -0.4792  0.8214 -0.3816
   16MOL0     C 2052  13.313   1.861   7.602 -0.2280 -0.0294  0.5190
   16MOL0     C 2053  13.353   1.983   7.562 -0.9349 -0.5966 -0.0167
   16MOL0     C 2054  13.486   2.033   7.558 -0.8702  0.7955 -0.0558
   16MOL0     O 2055  13.580   1.940   7.529 -0.1928 -0.4208  0.5162
   16MOL0     C 2056  13.716   1.966   7.508 -0.2490 -0.1834 -0.4471
   16MOL0     C 2057  13.767   1.896   7.405  0.0947  0.3405  0.4759
   16MOL0     C 2058  13.912   1.902   7.382 -0.3971  0.3783 -0.2670
   16MOL0     C 2059  13.997   1.985   7.454  0.7153  0.1853  0.1665
   16MOL0     O 2060  14.126   1.986   7.405 -0.3039 -0.1910 -0.1849
   16MOL0     C 2061  14.230   2.070   7.472 -0.1608  0.1862  1.5114
   16MOL0     C 2062  14.360   1.996   7.442 -0.4923 -0.0254 -0.4916
   16MOL0     C 2063  14.364   1.848   7.480 -1.3512  0.1830  0.2232
   16MOL0     C 2064  14.511   1.799   7.510  0.9405  0.4063  0.0194
   16MOL0     C 2065  14.511   1.670   7.581 -0.2667 -0.2168  0.2054
   16MOL0     C 2066  14.509   1.683   7.727  1.4506 -0.0767 -0.3808
   16MOL0     C 2067  14.554   1.562   7.814  0.5799 -0.8450  0.2354
   16MOL0     C 2068  14.459   1.441   7.803  0.7000  0.3685 -0.0546
   16MOL0    Cl 2069  14.317   1.449   7.914 -0.2214  0.5805  0.0167
   16MOL0     C 2070  13.943   2.057   7.561 -0.0013  0.4781  0.2944
   16MOL0     C 2071  13.802   2.046   7.590 -0.9257 -0.4210  0.4341
   16MOL0     O 2072  13.512   2.150   7.580 -0.4029  0.2618  0.0915
   16MOL0     C 2073  13.251   2.072   7.513  0.0927 -0.4399 -0.7422
   16MOL0     C 2074  13.117   2.034   7.515 -0.2315  0.2583  0.0441
   16MOL0     N 2075  12.483   2.008   7.200  0.0029 -0.0859  0.4395
   16MOL0     N 2076  12.393   1.931   7.149 -0.3259  0.0833 -0.6080
   16MOL0     C 2077  11.113   1.571   7.309 -0.1956  0.5639 -0.3427
   16MOL0     C 2078  10.973   1.563   7.321 -0.1980 -0.6348 -0.8040
   16MOL0     C 2079  10.551   1.359   7.318 -0.1078  0.3781  0.6108
   16MOL0     C 2080  10.521   1.405   7.450 -0.7214 -0.8286 -0.2072
   16MOL0     C 2081  10.399   1.380   7.507 -0.2125  0.3184 -0.3209
   16MOL0     C 2082  10.294   1.311   7.437 -0.4702 -0.2809 -0.4078
   16MOL0     O 2083  10.178   1.272   7.496  0.4159 -0.2306  0.3045
   16MOL0     C 2084  10.145   1.297   7.641  0.3351 -0.3541 -0.2400
   16MOL0     C 2085  10.156   1.164   7.733  0.3104 -1.0752  0.4070
   16MOL0     C 2086  10.033   1.085   7.697  0.0515  0.4027  0.2257
   16MOL0     C 2087  10.041   0.939   7.770 -0.2389 -0.5965  1.0750
   16MOL0     C 2088   9.952   0.841   7.707  0.3196 -0.4294  0.3479
   16MOL0     C 2089   9.889   0.742   7.665  0.9669  0.2851 -0.1826
   16MOL0     C 2090  10.312   1.277   7.303  0.2750 -0.3866 -0.7141
   16MOL0     C 2091  10.437   1.305   7.246  0.2148  0.5344  0.2927
   16MOL0     C 2092  10.439   1.278   7.092  0.7564 -0.0582 -0.2699
   16MOL0     H 2093  10.937   1.217   7.316 -2.7311  1.4797  2.2923
   16MOL0     H 2094  11.179   1.237   7.275  1.2139  0.4328 -0.7776
   16MOL0     H 2095  11.355   1.637   7.192 -0.4504 -3.8996 -1.3155
   16MOL0     H 2096  11.364   1.631   7.371 -2.1325  1.1505 -0.4227
   16MOL0     H 2097  11.555   1.537   7.148 -0.4325  1.3462 -0.6796
   16MOL0     H 2098  11.572   1.468   7.314  1.1101  0.4370 -0.5467
   16MOL0     H 2099  11.637   1.689   7.399  2.0241  2.2106 -1.0293
   16MOL0     H 2100  11.594   1.760   7.250  0.5985  1.2008  1.5395
   16MOL0     H 2101  11.813   1.573   7.342  0.2331 -0.2006 -0.2647
   16MOL0     H 2102  11.773   1.589   7.156 -3.5123  2.4512 -1.6628
   16MOL0     H 2103  11.840   1.831   7.179  1.6655  0.3937 -0.6458
   16MOL0     H 2104  11.886   1.805   7.343  1.5799  3.8546 -1.3706
   16MOL0     H 2105  12.030   1.604   7.232 -1.2060  1.6784  3.0101
   16MOL0     H 2106  11.999   1.694   7.079  0.6398 -0.0812 -0.1425
   16MOL0     H 2107  12.117   1.817   7.335 -2.5980  0.7321 -0.0598
   16MOL0     H 2108  12.121   1.894   7.179  1.1471  0.7906  2.8926
   16MOL0     H 2109  12.284   1.640   7.271 -2.1115 -0.1150  2.0367
   16MOL0     H 2110  12.283   1.697   7.102  0.9265  0.0404 -0.2580
   16MOL0     H 2111  12.391   1.821   7.440 -0.1680  1.3627  0.0933
   16MOL0     H 2112  12.610   2.142   7.403 -1.8379  0.2973 -0.7565
   16MOL0     H 2113  12.454   2.113   7.474 -0.0795  1.2383 -1.7178
   16MOL0     H 2114  12.639   2.050   7.642 -1.1055  1.2510 -0.9007
   16MOL0     H 2115  12.515   1.933   7.616  2.0654 -0.3712  1.6102
   16MOL0     H 2116  12.676   1.811   7.452  1.3891  0.8563 -1.3017
   16MOL0     H 2117  12.717   1.803   7.611  1.2520 -1.1122 -1.5418
   16MOL0     H 2118  12.857   2.043   7.576 -1.7567 -0.0210 -0.2689
   16MOL0     H 2119  12.877   1.981   7.421  0.4178  1.9734  0.0355
   16MOL0     H 2120  13.160   1.725   7.639  0.9146  0.8447  0.5127
   16MOL0     H 2121  13.389   1.791   7.636  1.4896  1.5851  0.1881
   16MOL0     H 2122  13.692   1.842   7.350 -0.1700 -0.4626  1.5966
   16MOL0     H 2123  13.948   1.851   7.293  2.0022  1.3477  0.0790
   16MOL0     H 2124  14.241   2.169   7.425  2.0579 -0.7220 -0.0567
   16MOL0     H 2125  14.204   2.075   7.578  0.3181  0.5106  1.6184
   16MOL0     H 2126  14.368   2.005   7.333 -1.8771 -1.3951 -0.7295
   16MOL0     H 2127  14.441   2.049   7.493  0.4253 -0.1349 -1.7672
   16MOL0     H 2128  14.302   1.835   7.569  1.2298 -2.5278  1.8236
   16MOL0     H 2129  14.322   1.781   7.404 -2.3023 -0.6695  1.4630
   16MOL0     H 2130  14.570   1.874   7.564  0.5513  1.0963 -0.4895
   16MOL0     H 2131  14.551   1.785   7.409  0.5880 -0.6754  0.0219
   16MOL0     H 2132  14.593   1.603   7.554 -1.3136 -2.6002  2.5552
   16MOL0     H 2133  14.422   1.611   7.554 -2.3796  2.7204  0.2910
   16MOL0     H 2134  14.582   1.761   7.751  1.3825 -0.4656  1.1982
   16MOL0     H 2135  14.413   1.729   7.754  1.2585  1.2361 -2.9920
   16MOL0     H 2136  14.557   1.607   7.914  0.4182  0.5932 -0.3883
   16MOL0     H 2137  14.651   1.523   7.781  0.6991  0.0163 -0.4573
   16MOL0     H 2138  14.433   1.421   7.698  0.0038 -0.3874  0.2502
   16MOL0     H 2139  14.518   1.357   7.838 -0.8771 -0.9153 -0.3357
   16MOL0     H 2140  14.000   2.124   7.626 -1.4564  2.4215 -0.3580
   16MOL0     H 2141  13.767   2.083   7.685 -0.2373 -4.2481  2.3759
   16MOL0     H 2142  13.269   2.172   7.477  0.2166 -0.0984  0.2484
   16MOL0     H 2143  13.044   2.109   7.485  1.8033  2.5779  0.5600
   16MOL0     H 2144  11.161   1.668   7.300  1.6548 -0.1995  0.8074
   16MOL0     H 2145  10.923   1.657   7.341  0.1920 -0.9773  2.3381
   16MOL0     H 2146  10.586   1.466   7.513 -2.3255 -1.2286  1.9199
   16MOL0     H 2147  10.393   1.419   7.609  0.8102  2.3529 -0.9872
   16MOL0     H 2148  10.046   1.343   7.643  0.8827  0.9331  2.8632
   16MOL0     H 2149  10.208   1.379   7.678  1.1901  0.2030 -2.7333
   16MOL0     H 2150  10.152   1.203   7.835  1.2935  0.3644 -0.0660
   16MOL0     H 2151  10.252   1.119   7.708  1.2439  0.7982  0.3821
   16MOL0     H 2152  10.027   1.072   7.588  0.2444 -0.3393  0.2919
   16MOL0     H 2153   9.937   1.131   7.719 -1.2742 -2.1594  0.2371
   16MOL0     H 2154  10.139   0.910   7.732 -0.5289 -0.1856 -0.0210
   16MOL0     H 2155  10.035   0.944   7.879 -1.0972  0.3074  1.0053
   16MOL0     H 2156   9.834   0.662   7.621  0.8490 -0.1702  0.7627
   16MOL0     H 2157  10.227   1.235   7.250  1.4804 -3.3290 -0.4837
   16MOL0     H 2158  10.513   1.336   7.036 -0.6204  0.9740 -1.0979
   16MOL0     H 2159  10.457   1.171   7.081 -1.0449 -0.5765  1.1847
   16MOL0     H 2160  10.344   1.296   7.040  0.3919  0.4451  0.5529
   17MOL0     O 2161   4.395   0.722   9.590  0.3241  0.3723 -0.2412
   17MOL0     C 2162   4.405   0.618   9.660 -0.0988 -0.2598  0.6036
   17MOL0     O 2163   4.503   0.590   9.742  0.4760 -0.4989 -0.0151
   17MOL0     C 2164   4.561   0.697   9.807  0.4909 -0.5296  0.1834
   17MOL0     C 2165   4.623   0.817   9.749 -0.0183  0.1701  0.1590
   17MOL0     C 2166   4.692   0.908   9.829  0.0537  0.0360 -0.2473
   17MOL0     C 2167   4.717   0.878   9.958 -0.4216 -0.4839 -0.8563
   17MOL0     O 2168   4.789   0.969  10.023  0.1528 -0.9401  0.1835
   17MOL0     C 2169   4.863   0.915  10.137 -0.0626  0.1332  0.1254
   17MOL0     C 2170   4.993   0.996  10.162 -0.3035 -0.4822  0.2131
   17MOL0     C 2171   5.058   0.958  10.296 -0.0755 -0.2591  0.0699
   17MOL0     C 2172   5.156   0.842  10.271  0.1412  0.5359 -0.8011
   17MOL0     C 2173   5.235   0.789  10.393  0.5737 -0.0214  0.1854
   17MOL0     C 2174   5.352   0.874  10.436  0.0928 -0.3072  0.6429
   17MOL0     C 2175   5.439   0.797  10.540 -0.2519 -0.0880  0.7565
   17MOL0     C 2176   5.559   0.875  10.570 -0.2326 -0.0313  0.6453
   17MOL0     N 2177   5.636   0.812  10.669 -0.2593  0.0404  0.1715
   17MOL0     C 2178   5.741   0.872  10.737  0.0795 -0.0600  0.2986
   17MOL0     C 2179   5.787   0.782  10.824  0.2841  0.3302 -0.4804
   17MOL0     C 2180   5.896   0.781  10.923  0.6592  0.0727 -0.4065
   17MOL0     C 2181   6.022   0.748  10.865 -0.7596  0.0759  0.3197
   17MOL0     C 2182   6.132   0.737  10.972  0.5581  0.3497  0.5910
   17MOL0     C 2183   6.261   0.704  10.901  0.5238  0.0428 -0.0714
   17MOL0     O 2184   6.375   0.702  10.988  0.6817  0.2280  0.0090
   17MOL0     C 2185   6.496   0.676  10.943 -0.2205 -0.3503 -0.2523
   17MOL0     C 2186   6.590   0.621  11.037 -0.2936  0.4072  0.0507
   17MOL0     C 2187   6.722   0.596  11.002  0.3577  0.2995 -0.2889
   17MOL0     C 2188   6.766   0.610  10.864 -0.3796  1.1348 -0.2249
   17MOL0     C 2189   6.896   0.573  10.822 -0.3208  0.1971 -0.4366
   17MOL0     O 2190   6.980   0.539  10.924  0.0612  0.2398  0.4478
   17MOL0     C 2191   7.111   0.507  10.906  0.3361 -0.8406  0.4552
   17MOL0     C 2192   7.171   0.487  11.029 -0.0634  0.5843 -0.9803
   17MOL0     C 2193   7.311   0.474  11.041  0.7417  0.1417 -0.1293
   17MOL0     C 2194   7.387   0.449  10.932 -0.5476 -0.2730  1.4364
   17MOL0     O 2195   7.523   0.424  10.936 -0.4964  1.0262 -0.1531
   17MOL0     C 2196   7.601   0.422  11.061  0.9099 -0.0174 -0.0976
   17MOL0     C 2197   7.737   0.357  11.020 -0.2413 -0.0392  0.4421
   17MOL0     C 2198   7.837   0.392  11.136  0.4904 -1.0188  0.0986
   17MOL0     C 2199   7.975   0.339  11.111 -0.5544 -0.2077  1.0289
   17MOL0     C 2200   7.980   0.191  11.141  0.2407  1.0726 -0.0769
   17MOL0     C 2201   8.121   0.134  11.099  0.6367  0.4621 -0.0767
   17MOL0     C 2202   8.234   0.149  11.200  0.1378  0.0513 -1.0847
   17MOL0     C 2203   8.365   0.131  11.134  0.9085 -0.7986  0.0639
   17MOL0    Cl 2204   8.506   0.156  11.229 -0.3472  0.3800  0.0708
   17MOL0     C 2205   7.328   0.459  10.808 -0.0566 -0.8352  0.5426
   17MOL0     C 2206   7.187   0.494  10.793 -0.3636 -0.1972  0.3053
   17MOL0     O 2207   6.917   0.573  10.699  0.1245  0.0300  0.5464
   17MOL0     C 2208   6.667   0.654  10.773 -0.0770 -0.8282 -0.1202
   17MOL0     C 2209   6.538   0.695  10.806  0.0276  0.2999 -0.6302
   17MOL0     N 2210   5.718   0.662  10.806  0.4991 -0.2081 -0.4566
   17MOL0     N 2211   5.640   0.684  10.704 -0.2530 -0.1504  0.2718
   17MOL0     C 2212   4.667   0.761  10.018  0.0351 -0.0114 -0.2865
   17MOL0     C 2213   4.584   0.675   9.941 -0.4419  0.0374 -0.1861
   17MOL0     C 2214   4.318   0.515   9.627  0.2874  0.4249  1.0926
   17MOL0     C 2215   4.323   0.408   9.715 -0.2238 -0.3365 -0.9771
   17MOL0     C 2216   4.237   0.300   9.700  0.1239  0.2942 -0.1636
   17MOL0     C 2217   4.122   0.304   9.620  0.8719  0.6398  0.2743
   17MOL0     O 2218   4.021   0.211   9.603 -0.1126  0.0202  0.1316
   17MOL0     C 2219   4.018   0.089   9.687 -0.1525 -0.4871  1.2284
   17MOL0     C 2220   4.105  -0.015   9.624  0.3327 -0.7062  0.1920
   17MOL0     C 2221   4.099  -0.155   9.687  0.0908  0.6463 -0.3043
   17MOL0     C 2222   4.199  -0.256   9.635 -0.3910 -0.2682 -0.2557
   17MOL0     C 2223   4.210  -0.372   9.724  0.3388  0.9296  0.4013
   17MOL0     C 2224   4.231  -0.478   9.772 -0.3271  1.4916 -0.3672
   17MOL0     C 2225   4.121   0.409   9.532 -0.0467 -0.0633  0.5081
   17MOL0     C 2226   4.217   0.513   9.521  0.0293  0.2953 -1.0013
   17MOL0     C 2227   4.195   0.627   9.425 -0.1460 -0.3500  0.4659
   17MOL0     H 2228   4.608   0.837   9.643  2.0051 -0.0357 -0.2112
   17MOL0     H 2229   4.737   0.997   9.787  1.1259  0.4371  1.6526
   17MOL0     H 2230   4.800   0.909  10.227 -0.9357  1.6129 -0.3436
   17MOL0     H 2231   4.901   0.814  10.118 -0.6787 -0.2739  0.9811
   17MOL0     H 2232   4.969   1.102  10.169  0.4316 -0.3725  1.4550
   17MOL0     H 2233   5.068   0.971  10.087 -0.1345 -0.0769  0.2467
   17MOL0     H 2234   4.986   0.935  10.375  0.7613  0.9067  1.2215
   17MOL0     H 2235   5.113   1.049  10.321 -2.0004  1.3792 -1.2980
   17MOL0     H 2236   5.104   0.752  10.238  2.4232 -1.1554  0.0077
   17MOL0     H 2237   5.230   0.865  10.194 -2.6440  0.6550 -3.6878
   17MOL0     H 2238   5.165   0.775  10.475 -0.0789 -0.5598 -0.4499
   17MOL0     H 2239   5.271   0.689  10.368 -2.6299 -1.3148  0.3264
   17MOL0     H 2240   5.415   0.895  10.348 -1.0448 -4.0937 -1.2995
   17MOL0     H 2241   5.316   0.963  10.488  3.2590  0.0952  2.4098
   17MOL0     H 2242   5.467   0.704  10.490  1.2911  2.3650 -3.5180
   17MOL0     H 2243   5.380   0.778  10.630 -0.8611 -0.7392  0.2260
   17MOL0     H 2244   5.623   0.890  10.482 -1.5993 -1.2417 -0.5880
   17MOL0     H 2245   5.517   0.970  10.604 -1.1951  0.6546 -2.1471
   17MOL0     H 2246   5.783   0.971  10.724 -0.0870 -0.2189 -1.7658
   17MOL0     H 2247   5.893   0.878  10.974  1.0450  0.4657 -1.1094
   17MOL0     H 2248   5.874   0.699  10.991  0.4328 -1.2805 -2.0395
   17MOL0     H 2249   6.014   0.656  10.805  1.7458  0.5513 -0.8498
   17MOL0     H 2250   6.053   0.829  10.798 -0.9517 -0.3754 -0.3338
   17MOL0     H 2251   6.101   0.651  11.033  1.5853  1.2874  2.5354
   17MOL0     H 2252   6.139   0.833  11.024  1.4492  0.4694  0.2706
   17MOL0     H 2253   6.280   0.780  10.825 -0.3278  0.4217  0.0840
   17MOL0     H 2254   6.254   0.603  10.860 -0.8650  0.0521  0.0956
   17MOL0     H 2255   6.565   0.607  11.141 -0.1774  0.4935  0.0897
   17MOL0     H 2256   6.788   0.550  11.075 -1.2304 -0.8844  0.4721
   17MOL0     H 2257   7.116   0.491  11.123  0.5294 -0.6675 -0.5599
   17MOL0     H 2258   7.362   0.479  11.137  1.5895  2.1416 -0.6362
   17MOL0     H 2259   7.622   0.524  11.095 -0.5034  0.5264 -0.7587
   17MOL0     H 2260   7.544   0.362  11.133 -5.2760  0.4543 -3.8276
   17MOL0     H 2261   7.721   0.249  11.010 -0.3994  0.1078 -1.1090
   17MOL0     H 2262   7.775   0.391  10.924  0.3624  1.4062  1.1706
   17MOL0     H 2263   7.833   0.501  11.147  0.2063 -1.2535  3.2738
   17MOL0     H 2264   7.801   0.353  11.232  0.8461  0.7226  0.9784
   17MOL0     H 2265   8.048   0.383  11.179  1.7596  0.7689 -1.8489
   17MOL0     H 2266   8.009   0.352  11.008 -1.2336 -1.9014  0.5459
   17MOL0     H 2267   7.912   0.134  11.076  0.2319 -0.9630  1.6213
   17MOL0     H 2268   7.948   0.172  11.243 -1.1493 -0.5168 -0.7563
   17MOL0     H 2269   8.101   0.029  11.076 -1.2657 -0.1711  3.5983
   17MOL0     H 2270   8.153   0.184  11.008  0.9511  3.0886  1.3679
   17MOL0     H 2271   8.222   0.079  11.283  0.6740 -1.9206 -2.5934
   17MOL0     H 2272   8.235   0.247  11.248  0.4264 -0.5903  0.2568
   17MOL0     H 2273   8.367   0.030  11.092 -5.0313 -0.6312 -1.4853
   17MOL0     H 2274   8.371   0.189  11.041 -0.2087 -1.3027 -0.3476
   17MOL0     H 2275   7.386   0.447  10.717  0.0279  1.7692  0.1811
   17MOL0     H 2276   7.146   0.504  10.693  1.9834 -0.1472 -0.7286
   17MOL0     H 2277   6.690   0.671  10.668  1.2453  0.6608  0.3698
   17MOL0     H 2278   6.454   0.723  10.743 -0.0194  0.2505 -0.5908
   17MOL0     H 2279   4.692   0.744  10.122 -2.4195  3.2945  1.0322
   17MOL0     H 2280   4.548   0.588   9.996  2.1608  0.3791  2.2875
   17MOL0     H 2281   4.399   0.395   9.791 -3.0971  1.7852  2.6459
   17MOL0     H 2282   4.241   0.209   9.759 -2.8964 -0.0806 -0.3663
   17MOL0     H 2283   3.917   0.049   9.693  0.4955 -2.1441  1.5884
   17MOL0     H 2284   4.040   0.106   9.792  4.2903  0.6393  0.3467
   17MOL0     H 2285   4.207   0.022   9.632 -0.2544  1.6728 -2.0190
   17MOL0     H 2286   4.074  -0.023   9.519 -1.2730  0.1298  0.5618
   17MOL0     H 2287   3.996  -0.193   9.691 -0.0448  1.0479  0.1029
   17MOL0     H 2288   4.131  -0.139   9.790  0.3686  0.7158 -0.4024
   17MOL0     H 2289   4.177  -0.291   9.534  1.5637 -0.1792 -0.7542
   17MOL0     H 2290   4.297  -0.208   9.628  0.1200 -1.3097 -0.3569
   17MOL0     H 2291   4.264  -0.556   9.839  0.1474  3.7761  2.2558
   17MOL0     H 2292   4.038   0.409   9.462 -1.8132 -1.8760  2.4723
   17MOL0     H 2293   4.284   0.660   9.370 -0.9826  2.4108  0.6274
   17MOL0     H 2294   4.125   0.598   9.347 -0.8998  2.3527  0.0282
   17MOL0     H 2295   4.159   0.716   9.478  0.4964  0.3055 -0.1682
   18MOL0     O 2296  10.260   2.119   4.951  0.1767  0.3587  0.0807
   18MOL0     C 2297  10.282   2.086   4.830 -0.7952 -0.0976  1.1377
   18MOL0     O 2298  10.188   2.093   4.728 -0.2598  0.2690 -0.3858
   18MOL0     C 2299  10.061   2.116   4.772 -0.8316  0.8635 -0.2198
   18MOL0     C 2300   9.986   2.206   4.694  0.1361  0.7770  0.4600
   18MOL0     C 2301   9.847   2.226   4.718 -0.0076 -0.4545  0.1011
   18MOL0     C 2302   9.787   2.154   4.821  0.7409 -0.0114  0.1024
   18MOL0     O 2303   9.651   2.177   4.850 -0.7596 -0.7702  0.4561
   18MOL0     C 2304   9.630   2.280   4.948  0.0498  0.9569 -0.7813
   18MOL0     C 2305   9.634   2.424   4.892 -0.4011 -0.3644 -1.3761
   18MOL0     C 2306   9.518   2.443   4.792  0.0394 -0.0042 -0.4237
   18MOL0     C 2307   9.502   2.592   4.769 -0.2498  0.3404 -0.2989
   18MOL0     C 2308   9.365   2.626   4.707  0.8619  0.4560  0.8691
   18MOL0     C 2309   9.356   2.782   4.678 -1.4815 -0.1341 -0.0547
   18MOL0     C 2310   9.249   2.833   4.582 -0.0222  0.0172  0.1323
   18MOL0     C 2311   9.105   2.807   4.639  1.1431 -0.0356  0.5444
   18MOL0     N 2312   9.007   2.844   4.540 -0.2042  0.2636  0.3801
   18MOL0     C 2313   8.943   2.760   4.449 -0.2989  0.5031 -0.5792
   18MOL0     C 2314   8.854   2.831   4.382  0.1649  0.2359 -0.3442
   18MOL0     C 2315   8.778   2.781   4.263 -0.0633  0.8922  0.3164
   18MOL0     C 2316   8.623   2.787   4.282 -0.5579 -0.2147 -0.1145
   18MOL0     C 2317   8.560   2.684   4.183 -0.6529  0.8095 -0.8539
   18MOL0     C 2318   8.587   2.715   4.031 -0.5852 -0.1514 -0.4028
   18MOL0     O 2319   8.720   2.702   3.986  0.3659  0.2985  0.6386
   18MOL0     C 2320   8.779   2.576   3.976  0.0626 -0.4855  0.0940
   18MOL0     C 2321   8.712   2.458   3.982  0.3950  0.0091  0.6186
   18MOL0     C 2322   8.784   2.339   3.960 -0.7249 -0.2964 -0.0201
   18MOL0     C 2323   8.929   2.337   3.957  0.7366 -1.0472  0.8400
   18MOL0     C 2324   9.005   2.216   3.930  0.3419 -0.4087 -0.0980
   18MOL0     O 2325   9.137   2.228   3.926 -0.6564  0.1830  0.6655
   18MOL0     C 2326   9.214   2.129   3.875  0.1355 -0.8486 -0.3706
   18MOL0     C 2327   9.310   2.170   3.786  0.5436 -0.1497 -0.3910
   18MOL0     C 2328   9.391   2.074   3.723 -0.6000  1.0600  0.5925
   18MOL0     C 2329   9.381   1.936   3.757  0.9641 -0.6060 -0.3657
   18MOL0     O 2330   9.456   1.835   3.697  0.0529  0.3778 -0.5685
   18MOL0     C 2331   9.601   1.852   3.683 -0.2564 -0.6508 -0.4129
   18MOL0     C 2332   9.667   1.741   3.600 -0.3580  0.0622  0.3953
   18MOL0     C 2333   9.629   1.607   3.652  0.8667  0.8699  0.2156
   18MOL0     C 2334   9.647   1.493   3.558  0.4046  1.4543  0.1057
   18MOL0     C 2335   9.637   1.352   3.624  1.0525  0.0324  0.5506
   18MOL0     C 2336   9.663   1.227   3.519 -0.0113 -0.5594 -0.0232
   18MOL0     C 2337   9.614   1.246   3.384 -0.1043 -0.1863  0.1322
   18MOL0     C 2338   9.630   1.129   3.306 -0.7193 -0.4417 -0.5337
   18MOL0    Cl 2339   9.566   1.151   3.140 -0.3547  0.0954  0.1432
   18MOL0     C 2340   9.282   1.891   3.842 -0.3654 -0.1336 -0.7453
   18MOL0     C 2341   9.200   1.985   3.903  0.3432 -0.7583  0.3792
   18MOL0     O 2342   8.941   2.106   3.929 -0.4172 -0.3774  0.5973
   18MOL0     C 2343   8.993   2.467   3.957 -0.4972  0.5636 -0.0390
   18MOL0     C 2344   8.915   2.581   3.970  0.0195  0.3628 -0.3247
   18MOL0     N 2345   8.862   2.961   4.433  0.3805 -0.1742 -0.0915
   18MOL0     N 2346   8.964   2.974   4.521  0.1596  0.3555 -0.2281
   18MOL0     C 2347   9.856   2.049   4.885  0.8679 -0.2051  0.9766
   18MOL0     C 2348   9.990   2.026   4.858 -0.0693  0.6514  0.0967
   18MOL0     C 2349  10.423   2.041   4.803 -0.4978 -0.2405 -0.0259
   18MOL0     C 2350  10.509   2.010   4.915 -0.1663  0.9699  0.3730
   18MOL0     C 2351  10.637   1.958   4.896 -0.1980 -0.5959 -0.6806
   18MOL0     C 2352  10.685   1.915   4.773  0.1338  0.0343 -0.3839
   18MOL0     O 2353  10.810   1.853   4.779  0.2114 -0.7739 -0.1342
   18MOL0     C 2354  10.891   1.861   4.659  0.2004  0.1623 -0.8805
   18MOL0     C 2355  10.953   2.004   4.640 -0.1966 -0.0412  0.6506
   18MOL0     C 2356  11.055   2.017   4.524 -0.5546  0.2479 -0.4711
   18MOL0     C 2357  11.112   2.159   4.499  0.6695  0.2533  0.3771
   18MOL0     C 2358  11.251   2.188   4.451 -0.0836  0.6081  0.1864
   18MOL0     C 2359  11.363   2.226   4.421  0.5325  0.1109  0.5271
   18MOL0     C 2360  10.604   1.946   4.664  0.0507  0.1928  0.1069
   18MOL0     C 2361  10.475   2.001   4.673  0.1552  0.0655  0.3873
   18MOL0     C 2362  10.409   2.020   4.543 -0.0116  0.3839 -0.1105
   18MOL0     H 2363  10.034   2.263   4.616 -1.7648  0.1517 -1.2533
   18MOL0     H 2364   9.786   2.296   4.662  2.0422  0.8735 -0.5661
   18MOL0     H 2365   9.527   2.252   4.974  0.8029 -1.1707  0.0948
   18MOL0     H 2366   9.702   2.264   5.029  2.7513  1.3841 -2.9460
   18MOL0     H 2367   9.731   2.451   4.849 -0.6240 -0.9690 -2.2813
   18MOL0     H 2368   9.616   2.489   4.978  4.5518 -0.3452 -0.0035
   18MOL0     H 2369   9.424   2.409   4.835  0.5320 -0.7701  0.0779
   18MOL0     H 2370   9.541   2.398   4.695  1.6671  0.8447 -0.4677
   18MOL0     H 2371   9.518   2.645   4.864 -2.0561  2.3325 -1.0339
   18MOL0     H 2372   9.588   2.611   4.705  0.9758 -2.1611  0.4672
   18MOL0     H 2373   9.350   2.563   4.620  0.7039  1.8214 -0.1293
   18MOL0     H 2374   9.290   2.615   4.786 -0.2479 -0.3881 -0.2820
   18MOL0     H 2375   9.347   2.833   4.774 -0.2504  3.0787 -1.4844
   18MOL0     H 2376   9.451   2.821   4.638 -1.8646  1.5615  0.5971
   18MOL0     H 2377   9.268   2.787   4.485  1.2153  2.2337 -0.7470
   18MOL0     H 2378   9.258   2.942   4.578 -1.7618  0.3500  2.9034
   18MOL0     H 2379   9.100   2.701   4.667 -0.5847 -0.4658 -1.1603
   18MOL0     H 2380   9.091   2.877   4.721 -0.7547  1.6695 -1.1186
   18MOL0     H 2381   8.964   2.655   4.431  1.7205  0.5164  1.2085
   18MOL0     H 2382   8.792   2.844   4.175  0.1738  1.5662  0.8158
   18MOL0     H 2383   8.799   2.676   4.242  1.3581  1.1341  0.3719
   18MOL0     H 2384   8.602   2.759   4.385 -0.9535 -2.0853 -0.6632
   18MOL0     H 2385   8.571   2.882   4.267 -2.2666 -0.4651  3.2433
   18MOL0     H 2386   8.456   2.662   4.205  0.0513 -3.6200 -1.0448
   18MOL0     H 2387   8.598   2.583   4.201 -1.2913  0.9650  1.7723
   18MOL0     H 2388   8.557   2.820   4.021  0.8332  0.2579 -0.5983
   18MOL0     H 2389   8.526   2.656   3.962  0.7362 -0.7093 -1.1229
   18MOL0     H 2390   8.606   2.444   4.001  0.4767 -0.9152  0.4546
   18MOL0     H 2391   8.732   2.244   3.964 -0.5919 -0.5230 -2.2956
   18MOL0     H 2392   9.323   2.276   3.768  1.8997 -0.0698  0.8635
   18MOL0     H 2393   9.462   2.095   3.644 -2.0974 -0.3148 -1.2163
   18MOL0     H 2394   9.621   1.938   3.618  2.0175  0.4539  1.5787
   18MOL0     H 2395   9.652   1.860   3.779  0.0400 -1.1308 -0.5319
   18MOL0     H 2396   9.631   1.754   3.497 -1.4300  0.9909  0.8694
   18MOL0     H 2397   9.776   1.730   3.600 -0.5845 -5.0613 -1.6851
   18MOL0     H 2398   9.690   1.586   3.741  1.9807  1.2550 -0.4381
   18MOL0     H 2399   9.525   1.621   3.683  0.4854 -0.1833 -0.5533
   18MOL0     H 2400   9.748   1.492   3.516  1.0517 -0.6413  1.4960
   18MOL0     H 2401   9.576   1.500   3.475 -0.1763  0.2182  0.4615
   18MOL0     H 2402   9.533   1.341   3.657  0.9826 -0.7811  0.0936
   18MOL0     H 2403   9.706   1.346   3.709  1.8034 -0.1205 -0.0652
   18MOL0     H 2404   9.772   1.223   3.509 -0.0608  1.7940 -2.6573
   18MOL0     H 2405   9.637   1.131   3.565  0.1793 -0.1982  0.8759
   18MOL0     H 2406   9.673   1.321   3.330 -0.9949  0.3015 -0.1747
   18MOL0     H 2407   9.509   1.276   3.390 -0.9319 -2.6995 -0.7015
   18MOL0     H 2408   9.735   1.101   3.292 -0.5437  1.1056 -2.9340
   18MOL0     H 2409   9.566   1.055   3.354 -3.0102  1.3502 -0.6815
   18MOL0     H 2410   9.270   1.784   3.858 -0.9853  0.2804  2.0639
   18MOL0     H 2411   9.133   1.956   3.984  1.7075 -0.2863  1.7374
   18MOL0     H 2412   9.098   2.494   3.955 -0.4558  0.3764 -0.3577
   18MOL0     H 2413   8.965   2.676   3.956  0.6428 -0.0449 -0.9334
   18MOL0     H 2414   9.807   1.991   4.962 -0.4606 -0.9721 -0.3984
   18MOL0     H 2415  10.048   1.942   4.896  1.0831  2.0111  1.4480
   18MOL0     H 2416  10.477   2.033   5.016  2.0046  1.6567  0.9477
   18MOL0     H 2417  10.693   1.963   4.989 -0.6012  0.0429 -0.4663
   18MOL0     H 2418  10.829   1.843   4.571 -2.7434 -0.4831  1.1606
   18MOL0     H 2419  10.970   1.786   4.664  0.9171  0.9356 -0.2225
   18MOL0     H 2420  10.995   2.037   4.736  1.6758 -1.5269  0.3970
   18MOL0     H 2421  10.870   2.072   4.619  0.2286 -0.0907 -1.4139
   18MOL0     H 2422  11.005   1.990   4.431 -2.0324 -0.7993  0.5635
   18MOL0     H 2423  11.136   1.945   4.539 -1.6469 -0.5504  2.2834
   18MOL0     H 2424  11.051   2.218   4.431  0.3834  0.1671  0.5551
   18MOL0     H 2425  11.105   2.210   4.596 -3.5570  1.1486 -0.2090
   18MOL0     H 2426  11.456   2.279   4.410  0.1273  0.4468 -2.0245
   18MOL0     H 2427  10.628   1.913   4.563  2.3383 -0.7652  0.9074
   18MOL0     H 2428  10.325   2.090   4.543 -0.2219  0.1482  0.7379
   18MOL0     H 2429  10.480   2.069   4.476  1.9837 -0.5979  1.2003
   18MOL0     H 2430  10.371   1.927   4.500  2.0962 -0.0966 -1.0153
   19MOL0     O 2431   1.245   8.404   6.852  0.1137 -0.0764 -0.4546
   19MOL0     C 2432   1.220   8.467   6.959 -0.1274 -0.9039  0.1629
   19MOL0     O 2433   1.298   8.464   7.071 -0.4683  0.2469 -0.6087
   19MOL0     C 2434   1.419   8.400   7.063  0.5905 -1.0173  0.5146
   19MOL0     C 2435   1.538   8.462   7.032 -0.2929 -0.9928 -0.2974
   19MOL0     C 2436   1.658   8.391   7.017 -1.0825 -0.7973  0.7388
   19MOL0     C 2437   1.655   8.254   7.051 -0.2168 -0.9837 -0.6573
   19MOL0     O 2438   1.758   8.163   7.049 -0.4733 -0.8094 -0.3990
   19MOL0     C 2439   1.883   8.211   7.002 -0.0076 -0.4345 -0.7764
   19MOL0     C 2440   1.989   8.108   7.020 -0.1710 -0.1396 -0.3826
   19MOL0     C 2441   2.022   8.102   7.165  0.3441  0.7585 -0.1921
   19MOL0     C 2442   2.128   7.986   7.188  0.3311  0.5540  0.9378
   19MOL0     C 2443   2.270   8.052   7.186 -0.6784  0.3155 -0.2188
   19MOL0     C 2444   2.381   7.949   7.143  1.1518 -0.2095 -0.3086
   19MOL0     C 2445   2.405   7.840   7.249 -0.6133  0.8000  0.1045
   19MOL0     C 2446   2.479   7.893   7.370  0.1992 -0.0391 -0.4989
   19MOL0     N 2447   2.613   7.931   7.339 -0.7513 -0.3693  0.1206
   19MOL0     C 2448   2.646   8.061   7.319 -0.2192  0.2034 -1.3813
   19MOL0     C 2449   2.776   8.064   7.277 -1.0051  0.2502  0.1682
   19MOL0     C 2450   2.870   8.175   7.224  0.4930 -0.4645  0.4601
   19MOL0     C 2451   2.940   8.148   7.085 -0.2570  0.6912  0.7826
   19MOL0     C 2452   2.857   8.115   6.961 -0.0405 -0.2520 -0.3029
   19MOL0     C 2453   2.723   8.193   6.955 -0.0866  0.3540 -0.4632
   19MOL0     O 2454   2.649   8.135   6.847 -0.4268 -0.3690  0.1940
   19MOL0     C 2455   2.520   8.180   6.828 -0.2313  0.7350  0.7735
   19MOL0     C 2456   2.457   8.300   6.863  0.5178 -0.0793 -0.5967
   19MOL0     C 2457   2.323   8.327   6.821  0.5586  0.6541  0.6063
   19MOL0     C 2458   2.253   8.238   6.750  0.5152  0.5263 -0.2336
   19MOL0     C 2459   2.110   8.259   6.719  0.3445  0.2108  0.8179
   19MOL0     O 2460   2.053   8.379   6.742 -0.2470 -0.0924 -0.8505
   19MOL0     C 2461   1.931   8.435   6.703 -0.0893  0.4386 -0.4774
   19MOL0     C 2462   1.891   8.548   6.773 -0.3369 -0.2036  0.1395
   19MOL0     C 2463   1.771   8.608   6.753 -0.3430  0.3762 -0.7378
   19MOL0     C 2464   1.673   8.550   6.666 -0.3532 -1.6753 -0.4254
   19MOL0     O 2465   1.558   8.629   6.645 -0.3753 -0.0653  0.4854
   19MOL0     C 2466   1.434   8.565   6.608  0.7562  0.8920 -0.2004
   19MOL0     C 2467   1.326   8.662   6.614  0.6868  0.2472 -0.1438
   19MOL0     C 2468   1.210   8.652   6.518  0.5356 -0.3005 -1.1075
   19MOL0     C 2469   1.106   8.770   6.521 -0.4866 -0.8266 -0.5270
   19MOL0     C 2470   1.009   8.771   6.412  0.9177  0.2671  0.6249
   19MOL0     C 2471   0.918   8.899   6.414 -0.0394  1.1637 -0.0953
   19MOL0     C 2472   0.805   8.891   6.305 -0.2093 -0.1296  0.5010
   19MOL0     C 2473   0.700   8.780   6.336 -0.5314 -0.1720 -0.7221
   19MOL0    Cl 2474   0.589   8.808   6.473 -0.0993  0.0624 -0.3801
   19MOL0     C 2475   1.709   8.438   6.594 -0.1732 -0.2799 -0.5459
   19MOL0     C 2476   1.837   8.384   6.610 -0.1023  0.2778  0.4981
   19MOL0     O 2477   2.043   8.169   6.661  0.0785 -1.1730 -0.0240
   19MOL0     C 2478   2.314   8.115   6.710  0.1405  0.0847  0.1251
   19MOL0     C 2479   2.446   8.082   6.751 -0.1050  0.2757 -0.7397
   19MOL0     N 2480   2.818   7.929   7.270 -0.1061  0.4019  0.2162
   19MOL0     N 2481   2.723   7.855   7.310 -0.4067 -0.3955  1.1065
   19MOL0     C 2482   1.531   8.185   7.073 -0.2692 -0.3199 -0.2999
   19MOL0     C 2483   1.414   8.263   7.079 -0.4792 -0.5152 -0.2502
   19MOL0     C 2484   1.102   8.564   6.962 -0.0548 -0.2326  0.4310
   19MOL0     C 2485   1.124   8.673   7.038  0.2852 -0.1844  0.2985
   19MOL0     C 2486   1.033   8.778   7.033 -0.3618  0.4896  0.5569
   19MOL0     C 2487   0.916   8.779   6.966  0.5700 -0.7319  0.6945
   19MOL0     O 2488   0.832   8.882   6.961  0.5352  0.5195 -0.1872
   19MOL0     C 2489   0.798   8.931   6.833  0.2450 -0.0925 -0.0466
   19MOL0     C 2490   0.681   9.035   6.843 -0.1296 -0.2876 -0.8154
   19MOL0     C 2491   0.549   8.968   6.897 -0.6403 -0.0288 -0.0975
   19MOL0     C 2492   0.434   9.057   6.857 -0.8267 -0.6073  0.2253
   19MOL0     C 2493   0.389   9.035   6.721 -0.0337 -0.0218 -0.7327
   19MOL0     C 2494   0.355   9.014   6.604 -0.9978 -0.0488 -0.2962
   19MOL0     C 2495   0.895   8.658   6.890 -0.1843 -0.3802 -0.5515
   19MOL0     C 2496   0.987   8.545   6.890  0.6916 -0.8219 -0.9255
   19MOL0     C 2497   0.945   8.419   6.815  1.0858  0.4543  0.3972
   19MOL0     H 2498   1.539   8.569   7.017  1.2664 -0.5516  2.3313
   19MOL0     H 2499   1.746   8.444   6.982  0.1034 -1.5343  2.4426
   19MOL0     H 2500   1.876   8.227   6.894 -0.1439  2.5342 -0.4154
   19MOL0     H 2501   1.911   8.306   7.048 -0.2666  0.0484 -1.5940
   19MOL0     H 2502   2.085   8.137   6.977 -0.1957  0.5266 -0.0026
   19MOL0     H 2503   1.940   8.015   6.991 -2.1880  0.9252 -0.5790
   19MOL0     H 2504   1.934   8.095   7.230 -1.2273  2.2811 -2.0364
   19MOL0     H 2505   2.056   8.198   7.204 -0.6535  0.6399  1.0353
   19MOL0     H 2506   2.110   7.939   7.285  0.7179 -0.7277  0.4061
   19MOL0     H 2507   2.112   7.907   7.114 -0.5075 -1.3788  3.0793
   19MOL0     H 2508   2.266   8.134   7.113 -1.7899  2.0218  1.6867
   19MOL0     H 2509   2.284   8.098   7.284 -2.5513  1.8187 -0.5967
   19MOL0     H 2510   2.353   7.900   7.049  2.1480 -1.5140  0.0512
   19MOL0     H 2511   2.473   8.001   7.115  0.5972  0.7909 -0.3208
   19MOL0     H 2512   2.474   7.765   7.209 -0.5586  1.5990 -1.3827
   19MOL0     H 2513   2.313   7.785   7.274 -0.6789 -0.4833 -2.6270
   19MOL0     H 2514   2.411   7.965   7.417 -1.6883 -1.8704 -0.2464
   19MOL0     H 2515   2.486   7.814   7.446 -0.9186 -0.8140 -1.1661
   19MOL0     H 2516   2.587   8.152   7.329  0.2667  0.3374  0.5126
   19MOL0     H 2517   2.812   8.267   7.216 -0.7642 -1.2150  0.7211
   19MOL0     H 2518   2.953   8.203   7.289  3.1457 -0.0389 -2.7890
   19MOL0     H 2519   2.990   8.242   7.063  1.9518 -0.9976 -2.2874
   19MOL0     H 2520   3.019   8.073   7.097  0.0290  1.2361  2.6904
   19MOL0     H 2521   2.846   8.006   6.962 -1.4989 -0.1319 -1.1611
   19MOL0     H 2522   2.920   8.143   6.875  1.2095 -3.9780 -0.8338
   19MOL0     H 2523   2.754   8.297   6.944  4.7215 -0.8607 -0.6514
   19MOL0     H 2524   2.665   8.178   7.046 -1.7447  0.0510 -1.5361
   19MOL0     H 2525   2.522   8.373   6.910  2.4225 -1.5413 -0.8440
   19MOL0     H 2526   2.285   8.427   6.840  2.1157  2.0228 -2.5975
   19MOL0     H 2527   1.971   8.586   6.837  0.6132 -1.4672 -0.2748
   19MOL0     H 2528   1.739   8.701   6.800 -3.2860 -0.5192 -0.7644
   19MOL0     H 2529   1.429   8.516   6.510  0.7105 -0.7945  0.6141
   19MOL0     H 2530   1.410   8.482   6.674  1.8495  1.5812  1.1250
   19MOL0     H 2531   1.291   8.666   6.718 -0.6009 -0.2988 -0.5429
   19MOL0     H 2532   1.375   8.758   6.596  0.6312  0.5630  1.2736
   19MOL0     H 2533   1.240   8.648   6.414 -0.3093 -2.4535 -1.3216
   19MOL0     H 2534   1.155   8.564   6.552 -0.8207  0.4290 -1.3056
   19MOL0     H 2535   1.171   8.858   6.519 -1.3167 -0.2054 -1.8133
   19MOL0     H 2536   1.054   8.778   6.617  0.2104  1.5922 -0.2687
   19MOL0     H 2537   0.943   8.683   6.412  0.9440  0.1004 -3.0630
   19MOL0     H 2538   1.055   8.772   6.313  3.0899 -0.0258  1.5598
   19MOL0     H 2539   0.875   8.901   6.515 -1.2590  0.3449 -0.5737
   19MOL0     H 2540   0.978   8.989   6.402 -0.0967  1.3471  0.8933
   19MOL0     H 2541   0.849   8.870   6.207  0.0836  1.2491  0.3237
   19MOL0     H 2542   0.755   8.988   6.304  1.0071  0.5382  1.2422
   19MOL0     H 2543   0.632   8.786   6.250 -1.2024  0.2787 -0.1622
   19MOL0     H 2544   0.761   8.689   6.340  1.0228  0.7624  4.6415
   19MOL0     H 2545   1.640   8.390   6.526 -0.7554  1.1713 -1.0232
   19MOL0     H 2546   1.857   8.297   6.549 -2.0760  0.3159 -0.2816
   19MOL0     H 2547   2.255   8.047   6.650 -2.0535  1.5597  0.5016
   19MOL0     H 2548   2.488   7.982   6.743  0.5206  0.4552  0.0641
   19MOL0     H 2549   1.525   8.085   7.115 -0.3233 -0.8474 -1.5100
   19MOL0     H 2550   1.317   8.225   7.111 -0.4019 -0.2076  0.3504
   19MOL0     H 2551   1.217   8.687   7.092  0.7377  1.3712 -0.8143
   19MOL0     H 2552   1.058   8.872   7.081  1.8693  0.8222 -1.0591
   19MOL0     H 2553   0.767   8.849   6.768  0.9643  2.0406 -3.3250
   19MOL0     H 2554   0.883   8.976   6.782 -1.7590  0.8977 -2.7799
   19MOL0     H 2555   0.657   9.067   6.742 -0.7789  3.7003  0.4375
   19MOL0     H 2556   0.699   9.123   6.905 -2.0679  0.0055 -0.6108
   19MOL0     H 2557   0.558   8.939   7.002  1.1920 -2.3079 -0.8053
   19MOL0     H 2558   0.547   8.875   6.840 -0.7217  0.7373 -1.3910
   19MOL0     H 2559   0.346   9.050   6.921 -0.9732 -0.6111  0.0251
   19MOL0     H 2560   0.467   9.161   6.871 -0.5723 -0.3740 -1.8048
   19MOL0     H 2561   0.318   8.992   6.506 -0.1672  1.6216 -1.0260
   19MOL0     H 2562   0.796   8.655   6.847  0.0413 -0.8695 -1.0446
   19MOL0     H 2563   0.982   8.329   6.863 -0.8910 -0.3471  0.5109
   19MOL0     H 2564   0.837   8.406   6.802  1.1075 -1.4441  1.7659
   19MOL0     H 2565   0.999   8.413   6.720  0.4184  0.2255  0.0255
   20MOL0     O 2566   3.999   4.553   3.776  0.0579  0.8606 -0.1469
   20MOL0     C 2567   3.955   4.627   3.864  0.1873  0.1939 -0.0817
   20MOL0     O 2568   4.024   4.652   3.980 -0.2178  0.2890  0.4593
   20MOL0     C 2569   4.155   4.608   3.972 -0.2795  0.1012  0.4382
   20MOL0     C 2570   4.184   4.475   4.011  0.1735 -0.0765 -0.0030
   20MOL0     C 2571   4.319   4.429   4.014  0.1050 -1.3428 -0.0973
   20MOL0     C 2572   4.422   4.515   3.979  0.9427 -0.3993  0.1320
   20MOL0     O 2573   4.550   4.464   3.955  0.9724 -0.0320  0.5610
   20MOL0     C 2574   4.650   4.511   4.046 -0.2535 -0.5136 -0.3276
   20MOL0     C 2575   4.719   4.387   4.113 -0.0412  0.3195 -0.3469
   20MOL0     C 2576   4.822   4.416   4.231  0.0424 -0.1660  0.0229
   20MOL0     C 2577   4.919   4.300   4.263 -0.2658 -0.7667  0.0699
   20MOL0     C 2578   5.011   4.322   4.382  1.1804 -0.2805 -0.1944
   20MOL0     C 2579   5.121   4.428   4.377  0.3184 -0.3323  0.0268
   20MOL0     C 2580   5.184   4.478   4.511 -0.3805  0.0826 -0.1125
   20MOL0     C 2581   5.276   4.375   4.585  0.5028 -0.5024  1.0115
   20MOL0     N 2582   5.395   4.346   4.506 -0.5275 -0.5186  0.2023
   20MOL0     C 2583   5.442   4.228   4.450  0.5849  0.2886 -0.7238
   20MOL0     C 2584   5.573   4.244   4.419 -0.0645 -0.2960 -0.6189
   20MOL0     C 2585   5.664   4.137   4.359  0.0288 -0.0205  0.4567
   20MOL0     C 2586   5.744   4.065   4.467 -0.2324 -0.5545  0.4953
   20MOL0     C 2587   5.776   3.923   4.411 -0.0538 -0.2692 -0.0731
   20MOL0     C 2588   5.875   3.934   4.285  0.4915  0.1434  0.6832
   20MOL0     O 2589   5.991   3.991   4.342 -0.0862  0.2635  0.2839
   20MOL0     C 2590   6.110   3.938   4.292 -0.4015  0.7987 -0.1278
   20MOL0     C 2591   6.136   3.880   4.163  0.0438 -0.8760 -0.1521
   20MOL0     C 2592   6.265   3.834   4.130 -0.1469  0.2792 -0.4239
   20MOL0     C 2593   6.373   3.851   4.219  1.3228  0.5668  0.8783
   20MOL0     C 2594   6.507   3.798   4.185 -0.2189 -0.2916  0.7632
   20MOL0     O 2595   6.515   3.699   4.097 -0.2540 -0.0056  0.2335
   20MOL0     C 2596   6.640   3.653   4.063 -0.3591 -0.5757  0.1760
   20MOL0     C 2597   6.758   3.730   4.037  0.0715  0.2939 -0.7260
   20MOL0     C 2598   6.886   3.664   4.019 -0.4366  0.0035  1.0524
   20MOL0     C 2599   6.890   3.523   4.016 -0.5472 -0.0219 -0.2962
   20MOL0     O 2600   7.011   3.460   3.992 -0.5935  0.3706  0.4056
   20MOL0     C 2601   7.019   3.315   3.998 -0.2619 -0.4337  0.0485
   20MOL0     C 2602   7.167   3.268   4.000 -0.2804 -0.2668 -0.4674
   20MOL0     C 2603   7.241   3.278   3.872  0.3221  0.6758  0.2514
   20MOL0     C 2604   7.378   3.222   3.883  0.3597  0.8487  0.1419
   20MOL0     C 2605   7.464   3.288   3.779 -0.0603  0.0676  0.1381
   20MOL0     C 2606   7.609   3.226   3.774  0.7528 -0.2785 -0.1175
   20MOL0     C 2607   7.720   3.321   3.748  0.8641 -0.0648 -0.6615
   20MOL0     C 2608   7.853   3.256   3.745  0.0163 -0.0494  0.4748
   20MOL0    Cl 2609   7.885   3.179   3.897 -0.2544  0.1063 -0.1657
   20MOL0     C 2610   6.773   3.452   4.043 -0.1653  0.3008 -0.0337
   20MOL0     C 2611   6.649   3.516   4.078  0.2337 -0.8166  0.0296
   20MOL0     O 2612   6.595   3.843   4.252 -0.2208  0.1045  0.3230
   20MOL0     C 2613   6.342   3.903   4.348  0.2007 -0.3882 -0.3484
   20MOL0     C 2614   6.217   3.954   4.380  0.1965  0.3390  0.3877
   20MOL0     N 2615   5.605   4.376   4.451 -0.8560 -0.4556  0.3446
   20MOL0     N 2616   5.502   4.436   4.498 -0.2071  0.1941 -0.6098
   20MOL0     C 2617   4.389   4.653   3.959  0.0483 -1.2708  0.0219
   20MOL0     C 2618   4.258   4.696   3.950 -0.8269  0.1901 -0.3281
   20MOL0     C 2619   3.813   4.672   3.851  0.0022 -0.1162 -1.0109
   20MOL0     C 2620   3.742   4.610   3.749 -0.1125 -0.4528 -1.0686
   20MOL0     C 2621   3.614   4.644   3.713 -0.0280  1.1204 -0.4688
   20MOL0     C 2622   3.542   4.738   3.786 -1.3245  0.4269  0.7014
   20MOL0     O 2623   3.429   4.801   3.749 -0.0850  0.4575  0.2262
   20MOL0     C 2624   3.325   4.731   3.689  0.4998  0.6926 -0.1549
   20MOL0     C 2625   3.191   4.795   3.728  0.2506  0.3028  0.0805
   20MOL0     C 2626   3.182   4.803   3.881 -0.1451  0.1058 -0.1986
   20MOL0     C 2627   3.044   4.852   3.929  0.3232 -0.4640 -0.1516
   20MOL0     C 2628   2.926   4.785   3.873 -0.1689  0.5447 -0.3534
   20MOL0     C 2629   2.830   4.740   3.822  0.5012  0.4078 -0.0312
   20MOL0     C 2630   3.604   4.797   3.892  0.0614  0.2030 -1.1835
   20MOL0     C 2631   3.734   4.758   3.929 -0.2998 -0.2480  0.8122
   20MOL0     C 2632   3.800   4.835   4.044  0.5403  0.5699 -0.5968
   20MOL0     H 2633   4.107   4.408   4.047  1.3812 -0.2036  2.5402
   20MOL0     H 2634   4.337   4.325   4.040 -0.4014 -1.5538 -0.5629
   20MOL0     H 2635   4.726   4.572   3.996  1.5213 -0.8798  1.7688
   20MOL0     H 2636   4.609   4.578   4.122  0.3773  0.7811 -1.1005
   20MOL0     H 2637   4.768   4.336   4.030 -0.3606  1.4791 -1.2768
   20MOL0     H 2638   4.631   4.340   4.156 -1.0772  3.0845  0.8017
   20MOL0     H 2639   4.769   4.456   4.318  0.4020 -0.1912  0.2584
   20MOL0     H 2640   4.885   4.494   4.187 -0.5105  0.4415  0.2921
   20MOL0     H 2641   4.850   4.215   4.272 -2.6470  0.8337 -1.8863
   20MOL0     H 2642   4.985   4.285   4.178 -0.7549 -1.0953 -0.2535
   20MOL0     H 2643   4.950   4.340   4.471  1.0243  1.2776 -0.5968
   20MOL0     H 2644   5.067   4.229   4.397  0.4122 -1.1310 -2.3091
   20MOL0     H 2645   5.199   4.399   4.306 -1.9170  0.7842 -3.1220
   20MOL0     H 2646   5.083   4.519   4.329  1.4183 -0.0139 -0.2711
   20MOL0     H 2647   5.097   4.498   4.575  0.6670 -0.0139  1.3891
   20MOL0     H 2648   5.229   4.576   4.491 -0.5497 -0.3085 -2.7264
   20MOL0     H 2649   5.306   4.420   4.680 -1.3125  0.6082  1.1117
   20MOL0     H 2650   5.216   4.285   4.603 -1.9974  1.6533  4.6401
   20MOL0     H 2651   5.390   4.133   4.443  0.8393  0.1003 -0.0988
   20MOL0     H 2652   5.600   4.074   4.297  2.5343 -0.5167 -1.7850
   20MOL0     H 2653   5.736   4.182   4.290  1.3774 -0.4264  1.5389
   20MOL0     H 2654   5.828   4.128   4.497 -3.2742  4.0366  0.3990
   20MOL0     H 2655   5.682   4.060   4.556  1.1920  2.4215  1.8033
   20MOL0     H 2656   5.686   3.870   4.379  0.6039 -2.9044  2.0468
   20MOL0     H 2657   5.826   3.867   4.491 -1.3411 -2.7287 -0.8734
   20MOL0     H 2658   5.828   3.989   4.203 -1.4615 -2.7154 -0.2633
   20MOL0     H 2659   5.895   3.836   4.242 -0.3456  0.5608 -0.7002
   20MOL0     H 2660   6.058   3.878   4.087 -2.2607 -0.9383  2.0852
   20MOL0     H 2661   6.273   3.795   4.029  1.2311  1.8038 -0.9342
   20MOL0     H 2662   6.750   3.838   4.027 -2.3802  0.2061 -0.1945
   20MOL0     H 2663   6.967   3.732   3.996  2.3843 -3.1542  0.8471
   20MOL0     H 2664   6.969   3.269   4.084  0.5090  0.5280  1.0476
   20MOL0     H 2665   6.966   3.273   3.912  0.6818  1.6145 -1.6479
   20MOL0     H 2666   7.221   3.313   4.084 -1.9191  0.6708  0.1330
   20MOL0     H 2667   7.166   3.162   4.027  0.8056 -0.7581 -2.1814
   20MOL0     H 2668   7.185   3.235   3.789  0.0923  0.0273  0.7278
   20MOL0     H 2669   7.257   3.382   3.844  2.3546  0.2602 -0.3437
   20MOL0     H 2670   7.380   3.113   3.874 -0.3463  0.7060  1.5626
   20MOL0     H 2671   7.430   3.234   3.978  0.7585 -1.4376  0.2673
   20MOL0     H 2672   7.458   3.397   3.785 -4.3529 -0.0504  1.4118
   20MOL0     H 2673   7.416   3.262   3.684 -1.4011  2.6439  0.0031
   20MOL0     H 2674   7.622   3.168   3.866  2.7868 -0.6451 -0.5813
   20MOL0     H 2675   7.623   3.145   3.702 -3.4087 -0.8932 -0.4958
   20MOL0     H 2676   7.722   3.379   3.841  0.9626 -2.8362  1.1984
   20MOL0     H 2677   7.694   3.380   3.659 -3.1972  2.0807  1.6214
   20MOL0     H 2678   7.845   3.175   3.671  1.4478  0.0210  0.2058
   20MOL0     H 2679   7.930   3.332   3.730  0.9616 -0.4238  2.9340
   20MOL0     H 2680   6.771   3.344   4.032 -0.4228  0.3979 -0.9897
   20MOL0     H 2681   6.562   3.454   4.094 -1.2392  1.1521  0.0622
   20MOL0     H 2682   6.419   3.912   4.424 -0.6889 -0.8230  0.6131
   20MOL0     H 2683   6.203   4.002   4.477  0.8152  0.8985  0.2020
   20MOL0     H 2684   4.468   4.727   3.947 -0.3243 -0.9060 -0.2082
   20MOL0     H 2685   4.236   4.801   3.936  2.3163  0.6513 -2.8995
   20MOL0     H 2686   3.777   4.520   3.699 -0.2909 -0.3442 -1.3904
   20MOL0     H 2687   3.571   4.591   3.628 -0.1698  0.4170  0.0272
   20MOL0     H 2688   3.318   4.624   3.714 -2.8052  0.2166 -2.3723
   20MOL0     H 2689   3.330   4.734   3.579  0.1636 -2.3950 -0.3605
   20MOL0     H 2690   3.109   4.735   3.688 -1.0207  0.4446  2.3343
   20MOL0     H 2691   3.180   4.900   3.703 -0.3481 -0.3071 -2.4309
   20MOL0     H 2692   3.261   4.856   3.935 -0.2610 -0.9876  1.0962
   20MOL0     H 2693   3.182   4.698   3.914 -4.3455 -0.0376 -0.0908
   20MOL0     H 2694   3.038   4.852   4.039 -2.5254 -0.8583 -0.2162
   20MOL0     H 2695   3.035   4.958   3.904  1.8456 -0.6374 -1.5259
   20MOL0     H 2696   2.746   4.703   3.765  1.0948  1.3656 -1.5988
   20MOL0     H 2697   3.554   4.876   3.947  2.0029 -0.1791  1.2876
   20MOL0     H 2698   3.886   4.886   4.000  0.6816 -0.5585 -1.6505
   20MOL0     H 2699   3.736   4.913   4.089  0.0505  0.3182 -0.8484
   20MOL0     H 2700   3.828   4.763   4.121  0.0720  0.8836 -0.1220
   21MOL0     O 2701   0.829   2.535   1.632 -0.4076  0.6025 -0.6098
   21MOL0     C 2702   0.736   2.559   1.561  0.5942  0.0596  0.0169
   21MOL0     O 2703   0.745   2.638   1.455 -0.3562  0.0931 -0.0286
   21MOL0     C 2704   0.863   2.688   1.409 -0.2577 -0.3597 -0.4996
   21MOL0     C 2705   0.876   2.830   1.389  0.3868  0.6921  0.9080
   21MOL0     C 2706   0.989   2.883   1.328  0.4801 -0.6192 -0.4518
   21MOL0     C 2707   1.095   2.806   1.301 -0.5036  1.0476  0.6324
   21MOL0     O 2708   1.204   2.862   1.248  0.2063  0.7260  0.4300
   21MOL0     C 2709   1.296   2.928   1.338 -0.2569  0.1396 -0.3150
   21MOL0     C 2710   1.414   2.979   1.256  0.0104 -0.4858  0.2159
   21MOL0     C 2711   1.502   2.872   1.184  0.3018  0.2861  0.9508
   21MOL0     C 2712   1.610   2.942   1.093  0.0993 -0.8889 -1.0023
   21MOL0     C 2713   1.672   2.838   0.997  0.5112 -0.2532  0.2113
   21MOL0     C 2714   1.810   2.775   1.033 -0.1659  0.3953  1.2766
   21MOL0     C 2715   1.935   2.867   1.034  0.8893 -0.1917 -0.2941
   21MOL0     C 2716   2.067   2.791   1.032 -0.7449 -0.0938 -0.1411
   21MOL0     N 2717   2.181   2.879   1.041 -0.1987 -0.0965  0.7418
   21MOL0     C 2718   2.280   2.899   0.943  0.6170 -0.0886  0.0799
   21MOL0     C 2719   2.359   3.004   0.977 -0.0297  0.6816  0.3720
   21MOL0     C 2720   2.464   3.084   0.889 -0.6712 -0.2330 -0.9036
   21MOL0     C 2721   2.600   3.069   0.949  0.0958  0.2656  0.7857
   21MOL0     C 2722   2.717   3.132   0.874 -0.1552 -0.9416 -0.9137
   21MOL0     C 2723   2.838   3.145   0.974  0.9153 -1.1611  0.0206
   21MOL0     O 2724   2.900   3.019   1.014 -0.2612 -0.6803 -0.0020
   21MOL0     C 2725   3.027   3.036   1.064  0.1993 -0.0264  0.2843
   21MOL0     C 2726   3.091   3.152   1.122 -0.3433  0.5555 -0.4806
   21MOL0     C 2727   3.223   3.152   1.159 -0.3176 -0.3533  0.1974
   21MOL0     C 2728   3.306   3.029   1.162 -0.4774  0.5151 -0.1536
   21MOL0     C 2729   3.444   3.029   1.204 -0.3849  0.6782 -0.1385
   21MOL0     O 2730   3.507   2.908   1.200 -0.4498  0.0463  0.4883
   21MOL0     C 2731   3.647   2.911   1.206  0.1800 -0.7397  0.3109
   21MOL0     C 2732   3.720   3.002   1.117 -0.2895  0.6043 -0.6731
   21MOL0     C 2733   3.859   3.002   1.126 -0.7570 -0.4282  0.4705
   21MOL0     C 2734   3.930   2.920   1.214  0.9586 -0.3326  0.6828
   21MOL0     O 2735   4.066   2.938   1.215  0.4439  0.6477 -0.1399
   21MOL0     C 2736   4.122   2.997   1.335  0.7374 -0.8204  0.5387
   21MOL0     C 2737   4.269   2.951   1.340 -0.1593  0.4108 -0.6960
   21MOL0     C 2738   4.294   2.801   1.351 -0.4562  0.6228  0.3499
   21MOL0     C 2739   4.442   2.765   1.329 -0.3667 -1.0270  0.0537
   21MOL0     C 2740   4.464   2.623   1.281  0.3837  0.0634 -0.2848
   21MOL0     C 2741   4.611   2.583   1.259 -0.9776  0.1520 -0.0314
   21MOL0     C 2742   4.634   2.443   1.208  0.1525  0.4313 -0.5428
   21MOL0     C 2743   4.633   2.343   1.327 -1.2833  0.2369  0.0653
   21MOL0    Cl 2744   4.651   2.176   1.262  0.3410  0.3801 -0.3990
   21MOL0     C 2745   3.860   2.829   1.290  0.2976  0.3665  0.3226
   21MOL0     C 2746   3.716   2.831   1.296 -0.3519 -0.3760  0.5345
   21MOL0     O 2747   3.499   3.131   1.237  0.4268  0.5679  0.4688
   21MOL0     C 2748   3.248   2.918   1.106  0.3225 -0.8519 -1.3187
   21MOL0     C 2749   3.112   2.923   1.060  0.2066  0.6977  0.2806
   21MOL0     N 2750   2.309   3.048   1.099 -0.0016  0.2243 -0.6572
   21MOL0     N 2751   2.206   2.970   1.137 -0.0770 -0.1139 -0.5559
   21MOL0     C 2752   1.087   2.670   1.325 -0.3552  0.3677  0.6072
   21MOL0     C 2753   0.975   2.610   1.377 -0.0769 -0.2968 -0.9192
   21MOL0     C 2754   0.598   2.503   1.588 -0.4629 -0.0472 -0.3876
   21MOL0     C 2755   0.508   2.502   1.478  0.2882 -0.4538 -0.5412
   21MOL0     C 2756   0.377   2.444   1.488 -0.4244  0.0470  0.3872
   21MOL0     C 2757   0.329   2.409   1.614 -0.3818 -0.1622 -0.2682
   21MOL0     O 2758   0.207   2.353   1.642  0.2097  0.0520 -0.0953
   21MOL0     C 2759   0.092   2.395   1.568 -0.5471 -0.9029 -0.4415
   21MOL0     C 2760  -0.043   2.345   1.626 -0.5391 -0.0062  0.0749
   21MOL0     C 2761  -0.043   2.197   1.611 -0.0066 -0.4319 -0.2137
   21MOL0     C 2762  -0.179   2.145   1.668  0.5919  0.2731 -0.2666
   21MOL0     C 2763  -0.206   2.002   1.644 -0.7432 -0.9637 -0.1279
   21MOL0     C 2764  -0.235   1.891   1.620 -0.4894  0.8973 -0.2550
   21MOL0     C 2765   0.421   2.403   1.722  0.2581 -0.2635 -0.0987
   21MOL0     C 2766   0.554   2.452   1.718  0.3231 -1.0252 -0.4488
   21MOL0     C 2767   0.652   2.455   1.838  0.5407 -0.3572 -0.2156
   21MOL0     H 2768   0.799   2.898   1.424 -1.4444 -0.0536 -1.4483
   21MOL0     H 2769   0.990   2.992   1.318  0.9964 -0.5698  0.0749
   21MOL0     H 2770   1.250   3.003   1.403 -0.4007 -2.0644  2.3256
   21MOL0     H 2771   1.339   2.849   1.400  0.5152  0.5433 -0.3182
   21MOL0     H 2772   1.474   3.043   1.322  0.3224 -2.0481  1.5104
   21MOL0     H 2773   1.374   3.039   1.174 -0.4437  0.7222  1.2825
   21MOL0     H 2774   1.437   2.826   1.108 -0.0698  1.6990  0.3850
   21MOL0     H 2775   1.554   2.799   1.246  1.8501  0.0166 -0.5840
   21MOL0     H 2776   1.570   3.035   1.051  2.8433  1.5364  1.2854
   21MOL0     H 2777   1.691   2.987   1.152 -0.6631 -0.9801  0.1288
   21MOL0     H 2778   1.594   2.762   0.991 -1.9334  2.2272 -2.8260
   21MOL0     H 2779   1.682   2.878   0.896  1.2665 -2.0501 -0.4761
   21MOL0     H 2780   1.816   2.728   1.132 -1.1086  2.0311  2.1733
   21MOL0     H 2781   1.841   2.698   0.963  2.1866  1.5643  0.9073
   21MOL0     H 2782   1.936   2.923   1.128  3.8295 -0.4451 -0.0775
   21MOL0     H 2783   1.928   2.936   0.950 -1.6136 -0.9158 -0.7844
   21MOL0     H 2784   2.065   2.723   1.118 -0.2521  0.1019  0.0272
   21MOL0     H 2785   2.075   2.726   0.944 -0.7099  0.3967 -0.5034
   21MOL0     H 2786   2.272   2.874   0.838  0.8328  0.0332  0.0335
   21MOL0     H 2787   2.464   3.045   0.786 -0.9556  1.5527 -1.6110
   21MOL0     H 2788   2.435   3.188   0.874  1.9315  0.8437  0.9407
   21MOL0     H 2789   2.586   3.116   1.047 -1.2353  1.6977 -0.0340
   21MOL0     H 2790   2.626   2.964   0.963 -0.2548  0.1806  0.8130
   21MOL0     H 2791   2.696   3.235   0.846  1.1552  0.1888  1.9213
   21MOL0     H 2792   2.729   3.074   0.782  0.0933 -0.4599 -1.1847
   21MOL0     H 2793   2.807   3.206   1.060  2.3442 -1.7142  0.9590
   21MOL0     H 2794   2.909   3.209   0.922 -0.9244  0.3511 -0.7630
   21MOL0     H 2795   3.039   3.247   1.117  2.3015  2.1427  0.1301
   21MOL0     H 2796   3.277   3.242   1.189  2.6591 -1.8044 -0.4585
   21MOL0     H 2797   3.670   3.083   1.064 -0.3611  2.7543  2.3972
   21MOL0     H 2798   3.912   3.073   1.064  2.4459 -1.9836  1.1783
   21MOL0     H 2799   4.114   3.105   1.323  2.1220 -0.7448  0.1882
   21MOL0     H 2800   4.071   2.954   1.422  1.0015  1.1640  1.7478
   21MOL0     H 2801   4.304   2.981   1.240  0.1178  2.6467  0.0206
   21MOL0     H 2802   4.325   3.012   1.412 -0.7457  1.2286 -0.9158
   21MOL0     H 2803   4.257   2.764   1.448  0.9882 -2.2278 -0.0801
   21MOL0     H 2804   4.220   2.754   1.286  0.2076  0.5340 -0.3442
   21MOL0     H 2805   4.493   2.784   1.424 -0.1942  2.5903 -0.5954
   21MOL0     H 2806   4.488   2.836   1.259 -2.2989 -1.2227 -1.5034
   21MOL0     H 2807   4.416   2.627   1.183 -0.8743  3.1234  0.3321
   21MOL0     H 2808   4.418   2.542   1.339 -0.7648  1.9071  1.5369
   21MOL0     H 2809   4.655   2.654   1.189  1.0411 -1.5189 -0.5437
   21MOL0     H 2810   4.667   2.606   1.350  0.2171 -1.5054 -0.3031
   21MOL0     H 2811   4.733   2.434   1.161  0.6898 -0.1840  0.6530
   21MOL0     H 2812   4.565   2.416   1.127  1.4528 -0.0047 -1.5594
   21MOL0     H 2813   4.708   2.375   1.400 -1.5686 -0.1336  0.5256
   21MOL0     H 2814   4.552   2.350   1.400 -1.7633 -2.1403 -0.1640
   21MOL0     H 2815   3.907   2.751   1.349  1.6812 -0.4326 -1.7487
   21MOL0     H 2816   3.661   2.760   1.356  0.8401 -1.3610  0.4966
   21MOL0     H 2817   3.300   2.822   1.106  1.5588 -0.2167 -0.0371
   21MOL0     H 2818   3.061   2.838   1.016  0.9944 -0.5275  1.6318
   21MOL0     H 2819   1.170   2.605   1.297 -0.3837 -0.2247  1.8467
   21MOL0     H 2820   0.973   2.503   1.396 -2.6212 -0.0509  0.6561
   21MOL0     H 2821   0.521   2.537   1.377 -0.4342  0.9061 -0.1836
   21MOL0     H 2822   0.321   2.440   1.395 -1.9989  0.3850  1.2858
   21MOL0     H 2823   0.111   2.369   1.464  4.1783 -1.5561  0.3341
   21MOL0     H 2824   0.083   2.504   1.567 -1.4794 -0.9554  0.4385
   21MOL0     H 2825  -0.125   2.396   1.574 -0.4555  1.1298  1.0268
   21MOL0     H 2826  -0.055   2.368   1.732  0.1405  1.0738 -0.0583
   21MOL0     H 2827   0.030   2.148   1.676  0.5237  2.4950  1.5688
   21MOL0     H 2828  -0.029   2.163   1.508 -0.6625 -0.3630 -0.3276
   21MOL0     H 2829  -0.182   2.164   1.775  2.9047 -0.6205  0.0347
   21MOL0     H 2830  -0.263   2.189   1.615 -0.7759 -1.0981  0.6940
   21MOL0     H 2831  -0.258   1.787   1.610  0.6129  0.5804  0.3107
   21MOL0     H 2832   0.394   2.377   1.825  0.2804  1.6759  0.4284
   21MOL0     H 2833   0.717   2.370   1.819  0.4944  0.0941 -2.7851
   21MOL0     H 2834   0.695   2.555   1.834 -1.5329  0.6718  1.4362
   21MOL0     H 2835   0.611   2.448   1.939  1.9028 -0.8013  0.3259
   22MOL0     O 2836   6.434  10.288   5.083 -0.0220 -0.1203  0.2703
   22MOL0     C 2837   6.367  10.387   5.056  0.0102 -0.1698  0.2959
   22MOL0     O 2838   6.389  10.467   4.946 -0.0879  0.5774  0.4369
   22MOL0     C 2839   6.505  10.462   4.865 -0.1937  0.7870  0.5461
   22MOL0     C 2840   6.637  10.460   4.924  0.3320  0.2255 -0.1056
   22MOL0     C 2841   6.745  10.467   4.836 -0.3034 -0.9065  1.0705
   22MOL0     C 2842   6.724  10.472   4.699 -0.6563  1.0401  0.4925
   22MOL0     O 2843   6.828  10.479   4.610  0.3760 -0.3578  0.0034
   22MOL0     C 2844   6.966  10.475   4.650 -0.5821  0.3491  0.6650
   22MOL0     C 2845   7.000  10.328   4.652 -0.3879 -0.1807 -0.8575
   22MOL0     C 2846   7.139  10.296   4.711 -0.1422  0.1952  0.1690
   22MOL0     C 2847   7.251  10.316   4.609  0.4551 -0.2955  0.8091
   22MOL0     C 2848   7.396  10.307   4.669  0.4463 -0.0605  0.4537
   22MOL0     C 2849   7.436  10.409   4.783  0.0862  0.4796  0.2558
   22MOL0     C 2850   7.587  10.380   4.802 -1.4804 -0.3543  0.3009
   22MOL0     C 2851   7.644  10.445   4.927  1.0667 -0.2069 -0.5554
   22MOL0     N 2852   7.677  10.585   4.897  0.5191 -0.0702  0.1869
   22MOL0     C 2853   7.789  10.629   4.828  0.3793  0.3369  0.6631
   22MOL0     C 2854   7.765  10.759   4.808 -0.5233  0.1734  0.9260
   22MOL0     C 2855   7.869  10.846   4.753 -0.4515  0.5213 -0.1721
   22MOL0     C 2856   7.967  10.886   4.867  0.5741  1.4711  0.3356
   22MOL0     C 2857   8.058  10.767   4.904  0.7932  0.0241  0.2283
   22MOL0     C 2858   8.179  10.803   4.984 -0.1167  0.3996 -0.5450
   22MOL0     O 2859   8.268  10.858   4.884 -0.5519  0.0531 -0.7529
   22MOL0     C 2860   8.385  10.915   4.932 -0.1350  0.7374 -0.7499
   22MOL0     C 2861   8.426  10.921   5.064 -0.5126 -1.2270  0.5085
   22MOL0     C 2862   8.539  10.982   5.102 -0.1436  0.4899 -0.0789
   22MOL0     C 2863   8.629  11.034   5.010  0.2823 -0.8340  0.2890
   22MOL0     C 2864   8.755  11.103   5.050 -0.1105  0.4795 -0.0945
   22MOL0     O 2865   8.815  11.182   4.963  0.0399 -0.7082  0.2474
   22MOL0     C 2866   8.953  11.202   4.972 -0.1679 -0.6924  0.4764
   22MOL0     C 2867   9.023  11.310   5.032  0.6402 -0.9120 -0.3007
   22MOL0     C 2868   9.163  11.324   5.025  0.4580  0.3149 -0.1074
   22MOL0     C 2869   9.239  11.231   4.959  0.3433  0.9691 -0.0689
   22MOL0     O 2870   9.377  11.247   4.946  0.9046  0.6042 -0.5505
   22MOL0     C 2871   9.449  11.130   4.903 -0.0415  0.0080 -0.9985
   22MOL0     C 2872   9.597  11.177   4.890 -0.2501 -0.9035 -0.1888
   22MOL0     C 2873   9.690  11.066   4.846 -0.0130  0.7128 -0.3773
   22MOL0     C 2874   9.690  10.948   4.954  1.1134 -0.5422  0.2244
   22MOL0     C 2875   9.799  10.837   4.931  1.0019  0.7555  0.2206
   22MOL0     C 2876   9.842  10.764   5.057 -0.0053  0.0729 -0.0591
   22MOL0     C 2877   9.964  10.677   5.028  0.0319  0.0868 -0.7149
   22MOL0     C 2878  10.066  10.705   5.137  0.8041  0.1623  0.4311
   22MOL0    Cl 2879  10.153  10.862   5.109 -0.1203  0.1305 -0.1149
   22MOL0     C 2880   9.173  11.110   4.912  0.0690 -0.5033 -0.5066
   22MOL0     C 2881   9.033  11.104   4.920  0.7897  0.2186 -0.4713
   22MOL0     O 2882   8.791  11.084   5.165 -0.3366 -0.2300  0.7974
   22MOL0     C 2883   8.594  11.028   4.875 -0.1642  0.3831  0.9547
   22MOL0     C 2884   8.476  10.968   4.837  0.9192  0.4771 -0.0152
   22MOL0     N 2885   7.647  10.793   4.859 -0.1731  0.8485 -0.0347
   22MOL0     N 2886   7.592  10.687   4.907 -0.3646  0.2293 -0.3214
   22MOL0     C 2887   6.596  10.471   4.642  0.0174 -0.2851 -0.0945
   22MOL0     C 2888   6.483  10.466   4.726 -1.1041  0.3527  0.1247
   22MOL0     C 2889   6.250  10.404   5.150  0.8322  0.5171  0.0696
   22MOL0     C 2890   6.165  10.293   5.177  0.9325  0.7252  0.6338
   22MOL0     C 2891   6.045  10.304   5.241 -0.7510 -0.3944  0.4944
   22MOL0     C 2892   6.006  10.424   5.292  0.2126 -0.6982 -0.3457
   22MOL0     O 2893   5.882  10.431   5.337 -0.6201 -1.1234  0.4760
   22MOL0     C 2894   5.813  10.548   5.378 -0.1942  0.3403  0.1559
   22MOL0     C 2895   5.670  10.502   5.401 -0.7972  0.1738 -0.7198
   22MOL0     C 2896   5.587  10.617   5.448 -0.4169  0.1455 -0.2234
   22MOL0     C 2897   5.442  10.586   5.489 -0.0235  0.0687  0.2778
   22MOL0     C 2898   5.370  10.694   5.549  0.5014  0.2652  0.8964
   22MOL0     C 2899   5.292  10.778   5.578 -0.0629 -0.0232 -0.5297
   22MOL0     C 2900   6.091  10.539   5.280 -0.5928 -0.3962 -0.3001
   22MOL0     C 2901   6.217  10.524   5.209 -0.3945  0.7845 -0.5272
   22MOL0     C 2902   6.302  10.643   5.200  0.3457 -0.0533 -0.1839
   22MOL0     H 2903   6.646  10.467   5.032 -0.5084  3.0920 -0.1409
   22MOL0     H 2904   6.841  10.477   4.884 -0.4833  0.3054  1.2060
   22MOL0     H 2905   7.033  10.517   4.574 -1.2722 -0.7647 -0.6004
   22MOL0     H 2906   6.985  10.513   4.751 -0.7556 -0.6414  1.0749
   22MOL0     H 2907   6.996  10.287   4.551 -0.8807 -2.1050 -0.1017
   22MOL0     H 2908   6.934  10.277   4.723  1.9966 -0.9885  0.9457
   22MOL0     H 2909   7.141  10.188   4.725 -0.1345 -0.6732 -4.7591
   22MOL0     H 2910   7.159  10.360   4.798  0.0470  2.4772 -1.4393
   22MOL0     H 2911   7.250  10.246   4.525  3.5563  0.6372 -0.1494
   22MOL0     H 2912   7.237  10.416   4.567  1.0495 -0.7283 -0.4698
   22MOL0     H 2913   7.384  10.206   4.711 -0.3414  0.8441  2.5191
   22MOL0     H 2914   7.472  10.304   4.590  1.1991 -4.4165  1.0531
   22MOL0     H 2915   7.422  10.510   4.744 -1.0407 -1.1796 -4.2271
   22MOL0     H 2916   7.376  10.402   4.874  1.6954  0.5494  1.3839
   22MOL0     H 2917   7.638  10.416   4.712 -1.1876  0.6597  0.8551
   22MOL0     H 2918   7.611  10.274   4.813  4.0457  0.4957 -0.6117
   22MOL0     H 2919   7.564  10.442   5.001  0.1373 -1.1208 -1.5538
   22MOL0     H 2920   7.736  10.397   4.962  1.1376  0.8867  0.8140
   22MOL0     H 2921   7.876  10.569   4.804  1.7673  1.8829  1.6120
   22MOL0     H 2922   7.924  10.793   4.674  0.3768 -1.7350  1.7786
   22MOL0     H 2923   7.826  10.942   4.725  1.9947  2.0920  1.1022
   22MOL0     H 2924   8.028  10.970   4.833  0.9274  1.5954  1.2530
   22MOL0     H 2925   7.909  10.911   4.956  1.2998 -0.7364  1.4961
   22MOL0     H 2926   8.092  10.717   4.812 -2.0783 -2.1404  0.1997
   22MOL0     H 2927   8.008  10.686   4.957  0.3165 -0.0624 -0.3394
   22MOL0     H 2928   8.213  10.719   5.044  0.2365  0.5100 -0.5853
   22MOL0     H 2929   8.149  10.884   5.050 -0.5194  1.2321 -1.7043
   22MOL0     H 2930   8.373  10.890   5.154 -1.1851 -1.4930  0.0294
   22MOL0     H 2931   8.571  10.990   5.206  0.0419 -0.4502 -0.0482
   22MOL0     H 2932   8.965  11.398   5.058 -0.7819 -1.5303 -1.2588
   22MOL0     H 2933   9.206  11.408   5.079  0.8811 -0.1978  0.3591
   22MOL0     H 2934   9.445  11.053   4.981 -2.0593 -0.1133 -1.1468
   22MOL0     H 2935   9.415  11.084   4.810 -1.7996 -4.1064  1.4033
   22MOL0     H 2936   9.612  11.255   4.815  0.9066 -2.8264 -2.0787
   22MOL0     H 2937   9.627  11.205   4.992  1.3270 -0.7876 -0.6561
   22MOL0     H 2938   9.654  11.034   4.748  1.4590  2.7833 -1.6949
   22MOL0     H 2939   9.789  11.111   4.832  0.2095  1.4610  2.8078
   22MOL0     H 2940   9.595  10.896   4.962  2.4766 -2.9505  2.3207
   22MOL0     H 2941   9.704  11.003   5.048 -0.1190  0.7275 -0.3080
   22MOL0     H 2942   9.886  10.890   4.892  0.6622  2.0326  1.1258
   22MOL0     H 2943   9.756  10.770   4.857 -1.4358  1.9162  0.4851
   22MOL0     H 2944   9.869  10.825   5.143 -0.2193  0.9991 -0.6307
   22MOL0     H 2945   9.754  10.703   5.079 -0.8456  0.6631 -1.6264
   22MOL0     H 2946  10.004  10.693   4.927 -1.6696 -1.0146 -1.6135
   22MOL0     H 2947   9.942  10.570   5.032  0.4223 -0.0391 -1.6420
   22MOL0     H 2948  10.024  10.697   5.238  1.4427 -3.4790  0.5468
   22MOL0     H 2949  10.139  10.627   5.115  0.1591  0.1051 -1.6743
   22MOL0     H 2950   9.226  11.028   4.866  2.3680  0.3331  0.4886
   22MOL0     H 2951   8.983  11.019   4.875 -0.6279 -0.9467  2.9622
   22MOL0     H 2952   8.652  11.071   4.794 -5.5593 -0.2040 -3.8479
   22MOL0     H 2953   8.459  10.953   4.731  1.3979  1.2131 -0.2011
   22MOL0     H 2954   6.572  10.479   4.537 -3.1994  1.0523  0.6347
   22MOL0     H 2955   6.386  10.455   4.679  0.0275 -3.7411 -1.8428
   22MOL0     H 2956   6.189  10.198   5.130 -0.8518 -0.1584  1.4125
   22MOL0     H 2957   5.975  10.221   5.242  0.9705 -1.9477 -0.5488
   22MOL0     H 2958   5.803  10.614   5.291 -0.1378 -0.3893 -0.4150
   22MOL0     H 2959   5.858  10.604   5.461  3.5444  0.9215 -1.9920
   22MOL0     H 2960   5.671  10.428   5.482 -0.8450 -0.1681 -1.0243
   22MOL0     H 2961   5.631  10.462   5.307 -0.9688  0.4259 -0.7566
   22MOL0     H 2962   5.591  10.690   5.367  0.1658  0.2475 -0.1039
   22MOL0     H 2963   5.635  10.660   5.536 -2.5428  0.0244  1.0703
   22MOL0     H 2964   5.389  10.545   5.403 -0.2131 -0.5860  0.6943
   22MOL0     H 2965   5.443  10.496   5.551  0.7103 -2.4051 -3.0404
   22MOL0     H 2966   5.221  10.855   5.601  2.4324  2.7960 -1.7189
   22MOL0     H 2967   6.061  10.634   5.324  0.6401 -0.3315  0.4324
   22MOL0     H 2968   6.407  10.622   5.178  1.4013  0.4830  3.5737
   22MOL0     H 2969   6.258  10.713   5.128 -2.0549 -0.7580  0.5004
   22MOL0     H 2970   6.296  10.689   5.299 -1.9264 -3.0562  1.2465
   23MOL0     O 2971   8.825  10.429   4.291  1.0742  0.5174 -0.4601
   23MOL0     C 2972   8.712  10.390   4.318  0.4369 -0.1385  0.0233
   23MOL0     O 2973   8.668  10.345   4.433  0.0861 -0.2047  0.0183
   23MOL0     C 2974   8.742  10.315   4.541  0.6082  0.0686 -0.2913
   23MOL0     C 2975   8.667  10.303   4.661 -0.3978  0.5431 -0.0436
   23MOL0     C 2976   8.735  10.282   4.777 -0.4850 -1.1936 -1.0903
   23MOL0     C 2977   8.876  10.263   4.785 -1.1481  0.2430  0.0757
   23MOL0     O 2978   8.957  10.234   4.893 -0.0486  0.6115 -0.3269
   23MOL0     C 2979   8.888  10.218   5.023 -0.3251  0.3959 -0.2057
   23MOL0     C 2980   8.992  10.179   5.124 -0.5272  0.0006  0.4054
   23MOL0     C 2981   9.096  10.292   5.143  0.2855  0.1926  0.3935
   23MOL0     C 2982   9.184  10.243   5.256  0.6657  0.0292 -0.1605
   23MOL0     C 2983   9.318  10.317   5.258  0.3362 -0.1104  1.5187
   23MOL0     C 2984   9.388  10.261   5.378  0.2395  0.5112  0.7239
   23MOL0     C 2985   9.534  10.318   5.394 -0.8590  0.3082 -0.0943
   23MOL0     C 2986   9.537  10.465   5.432 -0.1131  0.1627 -0.1170
   23MOL0     N 2987   9.654  10.495   5.511 -0.7850 -0.5665  0.9001
   23MOL0     C 2988   9.657  10.493   5.641 -0.0619 -0.3075 -0.4625
   23MOL0     C 2989   9.776  10.523   5.677 -0.9311 -0.8738 -0.6017
   23MOL0     C 2990   9.829  10.513   5.820 -0.4622  0.0375  0.2508
   23MOL0     C 2991   9.983  10.514   5.845 -1.0190  0.2556  0.3040
   23MOL0     C 2992  10.014  10.503   5.996 -0.3370 -0.1889 -0.0298
   23MOL0     C 2993  10.167  10.517   6.023 -0.7358  0.1215 -0.2263
   23MOL0     O 2994  10.212  10.648   6.005 -0.9904 -0.2874 -0.5028
   23MOL0     C 2995  10.340  10.688   6.043  0.1895 -0.4648 -0.3873
   23MOL0     C 2996  10.372  10.801   5.984 -0.5573  0.3715  0.9515
   23MOL0     C 2997  10.505  10.852   5.996  0.0985  0.9299  0.0560
   23MOL0     C 2998  10.601  10.789   6.078 -0.0995 -0.4891 -0.4473
   23MOL0     C 2999  10.737  10.844   6.087  0.4344 -0.1206 -0.2320
   23MOL0     O 3000  10.762  10.982   6.054 -1.0138 -0.3245 -0.6750
   23MOL0     C 3001  10.882  11.053   6.046  0.0582  0.0190 -0.4626
   23MOL0     C 3002  10.886  11.179   5.989  0.5614  1.8784  0.5116
   23MOL0     C 3003  11.002  11.248   5.963  0.0931  0.5579 -0.6514
   23MOL0     C 3004  11.122  11.189   6.008  0.0430 -0.0021  0.3936
   23MOL0     O 3005  11.243  11.252   5.994  0.0376 -0.1292  0.1564
   23MOL0     C 3006  11.340  11.170   5.927 -0.1661  0.0000  0.0533
   23MOL0     C 3007  11.468  11.250   5.912 -0.2762 -0.9439 -0.4356
   23MOL0     C 3008  11.438  11.400   5.860 -0.2192  0.9536  0.9841
   23MOL0     C 3009  11.559  11.489   5.888  0.0389 -0.5634  0.3548
   23MOL0     C 3010  11.547  11.577   6.018 -0.0906 -0.5386  0.5042
   23MOL0     C 3011  11.661  11.689   6.001  0.8072 -0.4998 -1.6061
   23MOL0     C 3012  11.677  11.774   6.134  0.2760  0.2855  0.1396
   23MOL0     C 3013  11.793  11.873   6.127  0.6976 -0.3352 -0.2090
   23MOL0    Cl 3014  11.839  11.916   6.296 -0.3988 -0.2993  0.3945
   23MOL0     C 3015  11.125  11.066   6.075  0.8897  0.1685  0.7179
   23MOL0     C 3016  11.003  11.002   6.093  0.3767 -0.0764  0.9640
   23MOL0     O 3017  10.828  10.773   6.116 -0.2719  0.2637  0.2596
   23MOL0     C 3018  10.562  10.675   6.149 -0.0020  1.1483  0.5509
   23MOL0     C 3019  10.427  10.629   6.134 -0.0225  0.9392  0.7606
   23MOL0     N 3020   9.852  10.541   5.567  0.1408 -0.4235 -0.0523
   23MOL0     N 3021   9.777  10.531   5.463  0.9377  0.3958  0.2111
   23MOL0     C 3022   8.945  10.275   4.660 -0.0767 -0.5201  0.4591
   23MOL0     C 3023   8.875  10.286   4.543 -0.3178  1.1059  0.1230
   23MOL0     C 3024   8.630  10.403   4.190 -0.3624 -0.1743 -0.2359
   23MOL0     C 3025   8.691  10.378   4.068 -0.0505  0.2725 -0.5583
   23MOL0     C 3026   8.629  10.385   3.940 -0.2748  0.2209  0.6584
   23MOL0     C 3027   8.486  10.408   3.939 -0.3536 -0.2333  0.1176
   23MOL0     O 3028   8.433  10.426   3.818 -0.1584  0.1464  0.0726
   23MOL0     C 3029   8.291  10.430   3.809 -0.8188 -0.2919  0.4526
   23MOL0     C 3030   8.243  10.462   3.668 -0.6720 -0.5742  0.3143
   23MOL0     C 3031   8.089  10.470   3.642 -0.4366  0.1010 -0.2816
   23MOL0     C 3032   8.065  10.532   3.507 -0.3354  0.0938 -0.6713
   23MOL0     C 3033   7.932  10.503   3.458 -0.8257  0.2454  0.5748
   23MOL0     C 3034   7.824  10.467   3.417 -0.0956  0.4309  0.0799
   23MOL0     C 3035   8.419  10.416   4.063  0.3807  0.7834  0.1691
   23MOL0     C 3036   8.491  10.419   4.185 -0.4004 -0.1458  0.8492
   23MOL0     C 3037   8.408  10.423   4.310  0.9079  0.1814 -0.0995
   23MOL0     H 3038   8.560  10.311   4.644  0.2106  4.4786 -3.6867
   23MOL0     H 3039   8.678  10.284   4.869 -0.4777  0.3862 -1.0802
   23MOL0     H 3040   8.846  10.314   5.052  1.8301  1.7399 -1.2845
   23MOL0     H 3041   8.815  10.136   5.016 -1.6256  1.3311  1.6832
   23MOL0     H 3042   9.036  10.080   5.106 -1.6524 -0.1135 -2.1723
   23MOL0     H 3043   8.933  10.172   5.215 -3.1367 -0.1462 -1.2097
   23MOL0     H 3044   9.049  10.387   5.169  2.8332  1.1213  1.9190
   23MOL0     H 3045   9.153  10.314   5.052  0.9538 -1.7853  0.2867
   23MOL0     H 3046   9.141  10.253   5.356  1.6261 -0.4889  0.3197
   23MOL0     H 3047   9.197  10.135   5.247  1.5938 -0.0173  1.3581
   23MOL0     H 3048   9.365  10.287   5.164 -0.6107 -1.0979  1.3385
   23MOL0     H 3049   9.300  10.425   5.252 -2.0410 -0.5342 -1.7675
   23MOL0     H 3050   9.332  10.284   5.469 -0.1691 -0.4467  0.7321
   23MOL0     H 3051   9.408  10.153   5.373  0.4188  0.4836  1.8336
   23MOL0     H 3052   9.586  10.308   5.299  1.4980 -1.0060  1.2299
   23MOL0     H 3053   9.586  10.255   5.467  0.5321  1.0003 -0.4340
   23MOL0     H 3054   9.534  10.536   5.349 -2.1392  0.3677  0.0703
   23MOL0     H 3055   9.453  10.476   5.501 -3.4382 -1.7057 -3.5018
   23MOL0     H 3056   9.583  10.449   5.708 -0.6716  1.3431 -0.0181
   23MOL0     H 3057   9.787  10.600   5.872 -0.0548  1.6805 -2.0649
   23MOL0     H 3058   9.779  10.426   5.865  0.6524 -0.4935  0.5162
   23MOL0     H 3059  10.035  10.441   5.782 -0.9195  0.9603 -0.4485
   23MOL0     H 3060  10.013  10.615   5.816  0.4431  1.3650  4.9171
   23MOL0     H 3061   9.991  10.403   6.032 -2.8932 -0.2214 -1.5272
   23MOL0     H 3062   9.951  10.569   6.056 -2.1347 -0.3698 -1.6332
   23MOL0     H 3063  10.236  10.450   5.971  1.1235  1.8717 -0.1592
   23MOL0     H 3064  10.182  10.486   6.127  1.5104 -1.3673 -0.9026
   23MOL0     H 3065  10.296  10.852   5.926  0.7823  1.3828  0.0414
   23MOL0     H 3066  10.537  10.935   5.934  1.1073 -0.5726 -1.5067
   23MOL0     H 3067  10.796  11.219   5.943  0.8236  0.5680 -1.2670
   23MOL0     H 3068  10.991  11.346   5.918  2.5906  1.4087  0.4014
   23MOL0     H 3069  11.362  11.078   5.982 -1.0721 -0.3902 -0.2200
   23MOL0     H 3070  11.306  11.139   5.828  0.3338  0.1256 -0.1612
   23MOL0     H 3071  11.515  11.261   6.010  1.5004 -1.9466 -1.1350
   23MOL0     H 3072  11.537  11.203   5.842 -0.4779  0.1431 -1.3948
   23MOL0     H 3073  11.421  11.393   5.752  2.2090  1.7115  0.4823
   23MOL0     H 3074  11.345  11.437   5.904 -0.7801 -1.0850  1.6234
   23MOL0     H 3075  11.579  11.541   5.794  1.7571 -1.9358 -0.0963
   23MOL0     H 3076  11.647  11.425   5.901  0.8896  0.7966  1.6191
   23MOL0     H 3077  11.561  11.515   6.106  2.3950 -0.9990 -0.1404
   23MOL0     H 3078  11.446  11.618   6.032 -0.2419 -0.9234  0.5619
   23MOL0     H 3079  11.756  11.639   5.981  0.8426 -0.5391 -1.3377
   23MOL0     H 3080  11.642  11.766   5.925  1.0812  0.9123 -0.2971
   23MOL0     H 3081  11.698  11.707   6.219  0.4995  2.0810  1.5604
   23MOL0     H 3082  11.585  11.822   6.168 -0.1981  0.2512 -1.0790
   23MOL0     H 3083  11.876  11.832   6.068  1.7946  0.5186  0.6894
   23MOL0     H 3084  11.755  11.963   6.077 -1.6823  0.0548  2.0907
   23MOL0     H 3085  11.209  11.015   6.121  0.9713  0.2741  0.6867
   23MOL0     H 3086  10.999  10.912   6.154 -0.6198 -0.6110  0.1487
   23MOL0     H 3087  10.625  10.612   6.210 -0.2009  1.2160  0.8306
   23MOL0     H 3088  10.396  10.545   6.195 -1.5727  2.3037  1.9265
   23MOL0     H 3089   9.049  10.246   4.659 -0.3650 -1.6330  0.8379
   23MOL0     H 3090   8.928  10.286   4.448  0.3241 -0.7412  0.4571
   23MOL0     H 3091   8.797  10.358   4.059  0.2640  2.3953 -2.7599
   23MOL0     H 3092   8.682  10.388   3.845 -2.7637 -2.0972 -0.9793
   23MOL0     H 3093   8.258  10.515   3.868  1.5016  1.3135 -0.4471
   23MOL0     H 3094   8.257  10.332   3.845 -0.7434 -0.2893  0.5287
   23MOL0     H 3095   8.274  10.372   3.613 -0.5789  0.1522 -0.8730
   23MOL0     H 3096   8.300  10.544   3.624  1.8353 -2.5784 -0.4878
   23MOL0     H 3097   8.034  10.530   3.715 -2.5998  1.7140 -3.0514
   23MOL0     H 3098   8.053  10.367   3.656 -2.0362  0.4246 -1.7104
   23MOL0     H 3099   8.076  10.640   3.495 -2.9355  0.7159  1.6072
   23MOL0     H 3100   8.140  10.492   3.438  2.5196  0.4609  2.0032
   23MOL0     H 3101   7.726  10.437   3.387  0.6825  0.2521 -2.4867
   23MOL0     H 3102   8.311  10.422   4.064  0.2829 -0.0547 -1.4203
   23MOL0     H 3103   8.359  10.327   4.330 -0.4310  0.7763 -0.4343
   23MOL0     H 3104   8.462  10.472   4.392  0.8094  0.4242 -0.1789
   23MOL0     H 3105   8.323  10.487   4.283  1.3648  0.0395 -2.0162
   24MOL0     O 3106  10.517   7.092   9.924 -1.0642  1.0034 -0.1638
   24MOL0     C 3107  10.442   7.067   9.830  0.2064 -0.4568 -0.6537
   24MOL0     O 3108  10.427   7.141   9.720  0.7629 -0.3533  0.4106
   24MOL0     C 3109  10.477   7.270   9.699  0.0966  0.3942 -0.8571
   24MOL0     C 3110  10.482   7.319   9.569 -0.0639  0.0066 -0.1135
   24MOL0     C 3111  10.526   7.450   9.535 -0.3411 -0.5761  0.3054
   24MOL0     C 3112  10.583   7.525   9.632  0.3059  0.3845  0.4304
   24MOL0     O 3113  10.632   7.654   9.610  0.1900  0.2413 -0.6603
   24MOL0     C 3114  10.666   7.708   9.471 -0.8838 -1.3178 -0.3880
   24MOL0     C 3115  10.775   7.821   9.494  0.3988  0.2727 -1.0581
   24MOL0     C 3116  10.911   7.766   9.535  0.8486 -0.3516 -0.0916
   24MOL0     C 3117  11.005   7.887   9.535 -0.0158  0.1104 -0.1816
   24MOL0     C 3118  11.141   7.862   9.596 -0.2514 -0.0709 -0.3095
   24MOL0     C 3119  11.226   7.757   9.527 -0.5785 -0.7259 -0.3071
   24MOL0     C 3120  11.380   7.761   9.555 -0.0864 -0.2946 -0.2988
   24MOL0     C 3121  11.458   7.869   9.469 -0.4671  0.0294 -0.3833
   24MOL0     N 3122  11.598   7.875   9.510 -0.1572 -0.0593 -0.8190
   24MOL0     C 3123  11.673   7.767   9.522  1.0095 -0.0386 -0.2840
   24MOL0     C 3124  11.785   7.813   9.572  0.0417 -0.3842 -0.6816
   24MOL0     C 3125  11.895   7.718   9.614  0.4295  0.3031  0.0331
   24MOL0     C 3126  12.016   7.723   9.521  0.4925  0.5172  0.6890
   24MOL0     C 3127  12.121   7.617   9.557 -0.6212 -0.6089  0.1696
   24MOL0     C 3128  12.265   7.651   9.500 -0.6065 -0.4386 -0.9802
   24MOL0     O 3129  12.314   7.766   9.565  0.9665 -0.1723  0.5065
   24MOL0     C 3130  12.448   7.804   9.537  0.1349 -0.1293 -0.2551
   24MOL0     C 3131  12.553   7.724   9.524 -0.5797 -0.0042 -0.7246
   24MOL0     C 3132  12.676   7.767   9.485 -0.6286  0.6500  0.1469
   24MOL0     C 3133  12.707   7.904   9.479  0.7054  0.1030  0.2432
   24MOL0     C 3134  12.845   7.937   9.443 -0.0066  0.2259  0.0255
   24MOL0     O 3135  12.930   7.832   9.426  0.7307  0.4293 -0.1546
   24MOL0     C 3136  13.059   7.858   9.411 -0.4648  1.1025  0.2886
   24MOL0     C 3137  13.143   7.882   9.513  0.1832  0.1323 -0.8786
   24MOL0     C 3138  13.280   7.901   9.485 -0.0886 -0.5998 -0.4500
   24MOL0     C 3139  13.324   7.911   9.345 -0.5329 -0.4334  0.2447
   24MOL0     O 3140  13.455   7.942   9.305 -0.0803  0.0809  0.4888
   24MOL0     C 3141  13.563   7.897   9.391 -0.1244  0.1592  0.8193
   24MOL0     C 3142  13.701   7.924   9.352 -0.1704 -0.1453 -0.0985
   24MOL0     C 3143  13.744   7.872   9.222  1.1930 -0.4860  0.4214
   24MOL0     C 3144  13.765   7.723   9.231 -0.0347 -0.7533  0.6397
   24MOL0     C 3145  13.790   7.645   9.102  0.5192  0.2354  0.0022
   24MOL0     C 3146  13.889   7.717   9.010 -0.4234  0.6509  0.6874
   24MOL0     C 3147  13.892   7.653   8.871  0.2191 -1.0520  0.1393
   24MOL0     C 3148  14.010   7.705   8.780 -0.3998  0.0688 -0.3047
   24MOL0    Cl 3149  14.029   7.570   8.657 -0.2189  0.1819 -0.0983
   24MOL0     C 3150  13.233   7.877   9.248  0.6816 -0.6937  0.9235
   24MOL0     C 3151  13.099   7.857   9.282  0.8882  0.3765 -1.2897
   24MOL0     O 3152  12.875   8.054   9.429  0.1439  0.4115 -0.4357
   24MOL0     C 3153  12.600   7.997   9.490 -0.4130 -0.6128 -0.8193
   24MOL0     C 3154  12.475   7.944   9.526 -0.1162 -0.0115  0.2133
   24MOL0     N 3155  11.781   7.952   9.592  0.3735 -0.5004  0.6158
   24MOL0     N 3156  11.661   7.979   9.575 -0.3349  0.4071 -0.0518
   24MOL0     C 3157  10.565   7.490   9.761  0.6871  0.0951 -0.3645
   24MOL0     C 3158  10.511   7.362   9.798  0.1999  0.0117 -0.0863
   24MOL0     C 3159  10.371   6.936   9.836 -0.3985 -0.8426 -0.0144
   24MOL0     C 3160  10.404   6.834   9.939  0.5140 -0.8611 -0.4260
   24MOL0     C 3161  10.325   6.720   9.936  0.0562  1.0250 -0.7987
   24MOL0     C 3162  10.230   6.698   9.842 -0.4810  0.3563 -0.1807
   24MOL0     O 3163  10.165   6.583   9.848 -0.1084  0.4068 -0.8013
   24MOL0     C 3164  10.061   6.585   9.951  0.0955 -1.1459 -0.2174
   24MOL0     C 3165   9.996   6.449   9.957 -0.4934 -0.1277 -0.7347
   24MOL0     C 3166   9.885   6.463  10.066  0.6549  0.3970  0.0374
   24MOL0     C 3167   9.808   6.331  10.100 -0.3003 -0.1636 -0.2630
   24MOL0     C 3168   9.690   6.362  10.184  0.0357 -0.1032 -0.2439
   24MOL0     C 3169   9.588   6.381  10.246  0.6224  1.4203  0.1351
   24MOL0     C 3170  10.208   6.789   9.739 -0.5532  0.3684  0.5087
   24MOL0     C 3171  10.277   6.905   9.732 -0.1800 -1.1069 -0.4160
   24MOL0     C 3172  10.215   7.005   9.627  0.0323 -0.7177 -0.0173
   24MOL0     H 3173  10.444   7.257   9.488 -1.4302  1.5413 -0.6923
   24MOL0     H 3174  10.534   7.481   9.431  2.1489 -0.6912  0.4067
   24MOL0     H 3175  10.703   7.627   9.409  0.6967 -0.7279 -0.2732
   24MOL0     H 3176  10.576   7.755   9.431  0.3250  0.2809 -1.3671
   24MOL0     H 3177  10.733   7.897   9.560  0.3092 -0.7219  0.0560
   24MOL0     H 3178  10.793   7.873   9.399 -1.1449  0.8359 -1.0647
   24MOL0     H 3179  10.929   7.679   9.471 -0.9547 -0.2113 -0.8423
   24MOL0     H 3180  10.911   7.726   9.637 -0.8447  2.3131  1.0447
   24MOL0     H 3181  11.026   7.913   9.431 -0.3241  1.6157  0.1089
   24MOL0     H 3182  10.954   7.970   9.587 -1.8544 -0.7555 -0.5344
   24MOL0     H 3183  11.184   7.962   9.607  0.4617 -0.5203  1.2425
   24MOL0     H 3184  11.129   7.838   9.702  0.5486  2.2362  0.3595
   24MOL0     H 3185  11.179   7.664   9.562  1.3055 -0.9100  1.9702
   24MOL0     H 3186  11.204   7.768   9.420 -4.1439  0.3261  0.3918
   24MOL0     H 3187  11.427   7.664   9.535  1.6619  0.0888  1.5930
   24MOL0     H 3188  11.399   7.788   9.659 -1.4554 -3.6959  0.9591
   24MOL0     H 3189  11.455   7.836   9.364 -0.6551 -0.7916 -0.1238
   24MOL0     H 3190  11.416   7.970   9.473 -1.6411 -0.4775  1.0685
   24MOL0     H 3191  11.643   7.667   9.494 -1.3036  0.2036  1.0343
   24MOL0     H 3192  11.933   7.758   9.708  2.0904 -1.7452  0.3057
   24MOL0     H 3193  11.850   7.620   9.634 -0.7609  0.1780 -2.7897
   24MOL0     H 3194  11.988   7.705   9.417 -0.3037  4.2785  0.0984
   24MOL0     H 3195  12.068   7.819   9.529  1.2396  0.1611  0.1139
   24MOL0     H 3196  12.086   7.522   9.515  0.7952  0.5554 -4.2025
   24MOL0     H 3197  12.123   7.619   9.666 -0.2333 -1.6173  0.1911
   24MOL0     H 3198  12.263   7.674   9.393  0.3812  0.8345 -0.7414
   24MOL0     H 3199  12.330   7.565   9.518 -0.1609  0.6134  3.4927
   24MOL0     H 3200  12.539   7.620   9.551 -0.7045  0.2721  0.3330
   24MOL0     H 3201  12.747   7.688   9.462 -0.0704  1.4721 -1.0393
   24MOL0     H 3202  13.095   7.876   9.610 -0.0305  0.9531 -0.9321
   24MOL0     H 3203  13.358   7.910   9.559  0.0297 -0.2481 -0.6156
   24MOL0     H 3204  13.550   7.961   9.479 -0.8920 -1.6362  2.0770
   24MOL0     H 3205  13.563   7.793   9.424  0.2957 -0.2436 -0.3934
   24MOL0     H 3206  13.718   8.032   9.348  0.7301 -0.1592  2.0701
   24MOL0     H 3207  13.770   7.886   9.428 -0.5564 -0.2580  0.1930
   24MOL0     H 3208  13.673   7.896   9.142  0.2034  0.4085  1.5218
   24MOL0     H 3209  13.834   7.922   9.186 -1.2383  3.8207 -0.4688
   24MOL0     H 3210  13.678   7.674   9.277 -2.2514  2.4042  0.1352
   24MOL0     H 3211  13.851   7.706   9.296 -1.2724  1.5621  3.0537
   24MOL0     H 3212  13.693   7.642   9.053  0.1977  0.0926  0.6455
   24MOL0     H 3213  13.805   7.539   9.123  1.6328  0.5225  0.7995
   24MOL0     H 3214  13.894   7.826   9.004  2.4505  0.6252  0.9719
   24MOL0     H 3215  13.987   7.688   9.049 -0.4229 -0.0551  0.1689
   24MOL0     H 3216  13.794   7.664   8.824 -1.0186  2.0367  3.0383
   24MOL0     H 3217  13.910   7.546   8.888  2.4482 -0.3220  3.2036
   24MOL0     H 3218  13.985   7.803   8.738 -2.2858 -0.3179 -0.1593
   24MOL0     H 3219  14.093   7.721   8.850 -0.1927 -2.5252  0.1562
   24MOL0     H 3220  13.250   7.874   9.141  2.5516  1.8393  1.0650
   24MOL0     H 3221  13.032   7.837   9.199 -1.8956 -1.4314  1.1822
   24MOL0     H 3222  12.614   8.104   9.479  0.1225 -0.6956 -0.9498
   24MOL0     H 3223  12.392   8.014   9.524 -0.6660 -0.6565 -1.8995
   24MOL0     H 3224  10.601   7.548   9.846 -0.0707 -0.8267  0.6260
   24MOL0     H 3225  10.505   7.338   9.904 -0.0950 -0.1591 -0.1399
   24MOL0     H 3226  10.476   6.851  10.020  2.2149  1.3561 -2.2584
   24MOL0     H 3227  10.336   6.646  10.015 -2.3461  0.9314 -0.4733
   24MOL0     H 3228   9.986   6.664   9.947  1.0099 -0.2857 -0.6196
   24MOL0     H 3229  10.113   6.596  10.047  0.3567  0.4647 -0.5287
   24MOL0     H 3230  10.061   6.367   9.990 -0.4224  1.1193  2.6408
   24MOL0     H 3231   9.960   6.427   9.856 -0.1525  1.3590 -1.1991
   24MOL0     H 3232   9.817   6.533  10.016 -1.3370 -1.2326  0.3354
   24MOL0     H 3233   9.918   6.500  10.164  1.5280  0.2270 -0.1892
   24MOL0     H 3234   9.771   6.282  10.009 -4.7082  0.6577  0.9004
   24MOL0     H 3235   9.889   6.280  10.153 -0.0018  2.4558  2.0530
   24MOL0     H 3236   9.490   6.380  10.287 -1.0225 -0.7125 -3.3614
   24MOL0     H 3237  10.134   6.767   9.663 -0.4308  0.8223  0.2547
   24MOL0     H 3238  10.282   7.024   9.543 -0.4208 -2.0916 -0.7319
   24MOL0     H 3239  10.127   6.962   9.579  0.4077 -0.0873 -1.3202
   24MOL0     H 3240  10.193   7.101   9.674  2.3100 -0.2598  0.2483
   25MOL0     O 3241  10.145   3.076   2.688  0.0799  0.3302  0.1667
   25MOL0     C 3242  10.155   3.122   2.799 -0.1685  1.0542  0.4480
   25MOL0     O 3243  10.271   3.166   2.856  0.0850  0.1991 -1.0528
   25MOL0     C 3244  10.391   3.138   2.783 -0.8128 -1.0455 -0.2738
   25MOL0     C 3245  10.452   3.229   2.700  0.3414 -0.0021  0.0866
   25MOL0     C 3246  10.573   3.194   2.636 -0.1783  0.0147  0.1497
   25MOL0     C 3247  10.644   3.071   2.657  0.6358  0.4169 -0.2038
   25MOL0     O 3248  10.763   3.055   2.604  0.7024  0.1188  0.1143
   25MOL0     C 3249  10.787   2.926   2.544 -0.2929 -0.2586  0.2107
   25MOL0     C 3250  10.912   2.931   2.462 -0.7232 -0.0576  0.2837
   25MOL0     C 3251  11.033   2.985   2.527 -0.0263  0.6051 -0.6065
   25MOL0     C 3252  11.152   3.005   2.439  0.4709 -0.3237 -0.0771
   25MOL0     C 3253  11.271   3.066   2.527  0.1293  0.7171 -0.4192
   25MOL0     C 3254  11.337   3.182   2.450 -0.5837 -0.3149 -0.0254
   25MOL0     C 3255  11.421   3.133   2.331  0.8399  0.6152 -0.1000
   25MOL0     C 3256  11.535   3.047   2.372 -0.6339  0.0985 -0.0839
   25MOL0     N 3257  11.631   3.103   2.467  0.6340  0.6154 -1.2535
   25MOL0     C 3258  11.697   3.222   2.455 -0.3886 -0.4712  1.0875
   25MOL0     C 3259  11.775   3.231   2.565 -0.6484  0.2565  0.0555
   25MOL0     C 3260  11.882   3.333   2.590  0.3351  0.5059  0.1475
   25MOL0     C 3261  12.016   3.289   2.525  0.0932 -0.4200  0.5890
   25MOL0     C 3262  12.077   3.178   2.605  0.1359  0.2662  1.2505
   25MOL0     C 3263  12.121   3.199   2.745 -0.7668  0.5249 -0.6520
   25MOL0     O 3264  12.159   3.067   2.795  0.0654 -0.6457 -0.1600
   25MOL0     C 3265  12.292   3.035   2.811 -0.2774 -0.6499  0.2056
   25MOL0     C 3266  12.327   2.961   2.925 -0.7523 -0.5563  0.0973
   25MOL0     C 3267  12.456   2.921   2.953 -0.1534  0.0566 -0.6938
   25MOL0     C 3268  12.561   2.946   2.859  0.9147 -0.1219 -0.0535
   25MOL0     C 3269  12.695   2.902   2.900 -0.1777 -0.0372 -0.1788
   25MOL0     O 3270  12.705   2.841   3.019 -0.4139  0.0404  0.2313
   25MOL0     C 3271  12.832   2.804   3.065 -0.4922 -0.4711  0.9823
   25MOL0     C 3272  12.853   2.822   3.196  0.9770  0.5770  0.3550
   25MOL0     C 3273  12.977   2.776   3.255  0.0219  1.0199 -0.3848
   25MOL0     C 3274  13.072   2.713   3.172  0.5226  0.2915 -0.2836
   25MOL0     O 3275  13.187   2.671   3.228  0.1105 -0.3025 -0.3164
   25MOL0     C 3276  13.239   2.539   3.196  0.4305  0.4055  0.1831
   25MOL0     C 3277  13.338   2.488   3.306 -0.2070  0.0733  0.0479
   25MOL0     C 3278  13.473   2.558   3.288 -0.7442  0.5662 -0.5857
   25MOL0     C 3279  13.568   2.467   3.372 -0.5266 -0.8526 -0.2385
   25MOL0     C 3280  13.697   2.554   3.380 -1.4588  0.1044 -0.4638
   25MOL0     C 3281  13.798   2.486   3.469  0.3835 -0.8540 -1.0007
   25MOL0     C 3282  13.927   2.563   3.463 -0.0522 -0.3360 -0.2286
   25MOL0     C 3283  14.041   2.463   3.512  0.1936  0.2368 -0.2566
   25MOL0    Cl 3284  14.207   2.548   3.505 -0.2746  0.0677  0.1680
   25MOL0     C 3285  13.042   2.691   3.039 -0.0911  0.5271  0.0232
   25MOL0     C 3286  12.925   2.732   2.986  0.0798 -0.6398  0.1214
   25MOL0     O 3287  12.783   2.932   2.822  0.1694 -1.0361  0.0596
   25MOL0     C 3288  12.520   3.018   2.742 -0.7309 -0.2720  0.1254
   25MOL0     C 3289  12.386   3.050   2.717 -0.2747 -0.1870 -0.2061
   25MOL0     N 3290  11.748   3.120   2.639  0.5276  0.0101 -0.7790
   25MOL0     N 3291  11.654   3.048   2.587  0.4546  0.3112  0.1526
   25MOL0     C 3292  10.581   2.991   2.745  0.0103  0.7523 -1.0274
   25MOL0     C 3293  10.460   3.017   2.804 -0.3152  0.5422 -0.1242
   25MOL0     C 3294  10.020   3.151   2.864 -0.0767 -0.1644 -0.0475
   25MOL0     C 3295  10.010   3.247   2.968 -0.9119  0.0801  0.9513
   25MOL0     C 3296   9.892   3.273   3.045 -0.5749  0.4877 -0.1936
   25MOL0     C 3297   9.782   3.197   3.033  0.9968 -0.2452  0.0707
   25MOL0     O 3298   9.667   3.216   3.116  0.2002  0.1702 -0.0379
   25MOL0     C 3299   9.546   3.147   3.081 -0.3291 -0.6648 -0.0921
   25MOL0     C 3300   9.445   3.205   3.182 -0.2071  0.3611 -0.7110
   25MOL0     C 3301   9.485   3.198   3.331  0.3844  0.2329  0.4785
   25MOL0     C 3302   9.370   3.255   3.421  0.3566  0.5368 -1.3588
   25MOL0     C 3303   9.249   3.167   3.415  0.3960  0.6965 -0.4315
   25MOL0     C 3304   9.144   3.108   3.397  0.3751 -0.0452 -1.0386
   25MOL0     C 3305   9.786   3.095   2.929  0.1483 -0.5407  0.3671
   25MOL0     C 3306   9.903   3.071   2.850 -0.2495 -0.8244  0.4221
   25MOL0     C 3307   9.909   2.958   2.759  0.1456 -0.0591  0.1080
   25MOL0     H 3308  10.399   3.324   2.694 -1.2696 -0.9496 -2.0701
   25MOL0     H 3309  10.617   3.270   2.573 -1.7298  0.8501  0.0366
   25MOL0     H 3310  10.797   2.851   2.623  1.4475 -1.2819 -0.9293
   25MOL0     H 3311  10.704   2.892   2.483 -0.8377 -1.2074  1.4502
   25MOL0     H 3312  10.884   2.996   2.378 -0.0392  0.1914  0.2391
   25MOL0     H 3313  10.939   2.836   2.416 -2.8173 -0.3482 -0.4387
   25MOL0     H 3314  11.062   2.910   2.602 -2.0309 -1.2521 -1.5891
   25MOL0     H 3315  11.014   3.083   2.572  2.6611  1.5649 -1.3822
   25MOL0     H 3316  11.175   2.913   2.385 -5.5914 -0.6651 -2.8387
   25MOL0     H 3317  11.129   3.068   2.352 -0.0449 -2.2281 -1.3788
   25MOL0     H 3318  11.221   3.094   2.620  0.4148  0.3460 -0.1549
   25MOL0     H 3319  11.352   3.002   2.561  0.9790 -0.6338 -4.4464
   25MOL0     H 3320  11.261   3.255   2.419 -0.6101 -0.3605 -0.0692
   25MOL0     H 3321  11.407   3.231   2.518  0.9099 -1.0070 -1.0121
   25MOL0     H 3322  11.462   3.216   2.272  1.5423 -0.6865 -1.5015
   25MOL0     H 3323  11.352   3.079   2.266  0.0532  0.2564  1.0016
   25MOL0     H 3324  11.496   2.955   2.416  1.1486  1.4063  4.8864
   25MOL0     H 3325  11.593   3.024   2.282 -1.8868  2.6821 -1.6692
   25MOL0     H 3326  11.680   3.293   2.376 -2.2538  0.8637  2.5841
   25MOL0     H 3327  11.848   3.423   2.539 -1.3259  0.5704  1.3000
   25MOL0     H 3328  11.892   3.351   2.697 -1.2027  1.3233  0.1847
   25MOL0     H 3329  12.005   3.259   2.421 -0.5673 -2.0139  1.1041
   25MOL0     H 3330  12.088   3.372   2.534 -1.5103  1.0620  0.3471
   25MOL0     H 3331  12.170   3.148   2.554 -0.1756  1.9737 -0.4456
   25MOL0     H 3332  12.011   3.092   2.593 -1.7723  1.8069  0.1161
   25MOL0     H 3333  12.043   3.243   2.808 -1.0065 -0.5134 -0.1983
   25MOL0     H 3334  12.205   3.267   2.761 -0.9156  0.2645  1.5774
   25MOL0     H 3335  12.262   2.954   3.012  1.9615 -0.0028  2.2911
   25MOL0     H 3336  12.475   2.872   3.048 -2.7414 -0.3167 -0.3086
   25MOL0     H 3337  12.773   2.856   3.262  1.0095  1.2676  0.0389
   25MOL0     H 3338  12.997   2.797   3.360 -2.5324  2.3926 -0.0847
   25MOL0     H 3339  13.161   2.462   3.189  0.6179  0.2050  0.2937
   25MOL0     H 3340  13.281   2.540   3.095 -2.6732  1.7551 -1.2262
   25MOL0     H 3341  13.302   2.508   3.407 -0.9906 -2.0608  0.2385
   25MOL0     H 3342  13.339   2.379   3.296  1.4166  0.0660 -0.0399
   25MOL0     H 3343  13.503   2.539   3.184  3.2171 -0.7168  0.6148
   25MOL0     H 3344  13.493   2.658   3.325  1.9450 -0.8334  2.1978
   25MOL0     H 3345  13.584   2.364   3.339  2.9587 -1.4755  2.6758
   25MOL0     H 3346  13.532   2.454   3.475 -1.8936  1.0890 -0.4134
   25MOL0     H 3347  13.677   2.646   3.435 -2.6261 -0.7328  0.5745
   25MOL0     H 3348  13.739   2.573   3.281  0.6927 -0.4464  0.2936
   25MOL0     H 3349  13.761   2.497   3.571  1.4852  2.0558 -0.8045
   25MOL0     H 3350  13.808   2.381   3.440 -2.3689 -1.8672  1.3015
   25MOL0     H 3351  13.928   2.654   3.524 -2.1367 -1.2559  1.3097
   25MOL0     H 3352  13.947   2.598   3.361 -0.9022  0.7864 -0.0227
   25MOL0     H 3353  14.027   2.442   3.618 -0.8441 -3.2479 -0.9489
   25MOL0     H 3354  14.041   2.376   3.445 -3.3631 -0.4415  0.3799
   25MOL0     H 3355  13.110   2.630   2.981 -1.5229 -1.9212  0.8068
   25MOL0     H 3356  12.908   2.697   2.885 -0.4210 -1.7450  0.5707
   25MOL0     H 3357  12.590   3.047   2.664 -1.1302  1.6770  0.4353
   25MOL0     H 3358  12.359   3.112   2.632  1.6666  3.3180  1.4938
   25MOL0     H 3359  10.633   2.899   2.768  0.5077  1.1781 -0.4281
   25MOL0     H 3360  10.429   2.953   2.886  3.3146  0.7541  1.6186
   25MOL0     H 3361  10.100   3.303   2.994 -0.8813 -0.7576  2.8404
   25MOL0     H 3362   9.902   3.340   3.130 -1.2968 -3.0439  2.9676
   25MOL0     H 3363   9.551   3.038   3.090 -0.3138 -0.8803 -2.1875
   25MOL0     H 3364   9.506   3.172   2.982 -0.7636  0.2067  0.2883
   25MOL0     H 3365   9.347   3.158   3.169  1.1931 -2.9178 -0.4598
   25MOL0     H 3366   9.441   3.311   3.157 -1.0418  0.7166  0.8473
   25MOL0     H 3367   9.578   3.254   3.335 -0.2759  1.3154  1.0129
   25MOL0     H 3368   9.509   3.094   3.357 -1.8748 -0.0860  1.5638
   25MOL0     H 3369   9.404   3.251   3.525 -0.4226 -0.5687 -1.1226
   25MOL0     H 3370   9.349   3.359   3.393 -0.8419  0.5052 -0.6347
   25MOL0     H 3371   9.053   3.053   3.380  0.4115 -0.9425  1.3010
   25MOL0     H 3372   9.703   3.026   2.916 -0.7772  0.7723 -1.1340
   25MOL0     H 3373   9.906   2.997   2.657  0.1708 -2.4555 -0.8912
   25MOL0     H 3374   9.992   2.888   2.770 -0.5989 -0.8140  1.2088
   25MOL0     H 3375   9.820   2.896   2.773  1.3261 -2.6962 -2.8052
   26MOL0     O 3376   9.141  11.190   0.790 -0.1803 -0.3030 -0.3433
   26MOL0     C 3377   9.040  11.184   0.861 -0.1204  0.0976 -0.3111
   26MOL0     O 3378   9.014  11.082   0.944  0.2268  0.3365 -0.4584
   26MOL0     C 3379   9.121  11.000   0.959  0.6221  0.2623  0.1376
   26MOL0     C 3380   9.188  11.013   1.083  0.1691  0.0408 -0.3418
   26MOL0     C 3381   9.307  10.936   1.109  0.3918 -0.0138 -0.2040
   26MOL0     C 3382   9.359  10.852   1.012 -0.3644  0.5709 -0.1714
   26MOL0     O 3383   9.469  10.776   1.037 -0.2484  0.3150  0.6356
   26MOL0     C 3384   9.540  10.737   0.920  0.0155  0.1386  0.2867
   26MOL0     C 3385   9.675  10.671   0.948  0.1339  0.8382 -0.5108
   26MOL0     C 3386   9.683  10.527   0.998 -0.0418  0.0352 -0.2557
   26MOL0     C 3387   9.827  10.479   0.991 -0.0688 -0.4949  0.4589
   26MOL0     C 3388   9.833  10.335   1.041 -0.1975 -0.1139 -0.8583
   26MOL0     C 3389   9.768  10.220   0.957 -0.4528 -0.2945  0.4143
   26MOL0     C 3390   9.781  10.085   1.031 -0.7025 -0.3746  0.2910
   26MOL0     C 3391   9.745   9.972   0.950  0.2055  1.0533 -0.5714
   26MOL0     N 3392   9.851   9.911   0.886 -0.8418  0.7399 -0.6581
   26MOL0     C 3393   9.976   9.878   0.940  0.0364 -0.0111 -0.3471
   26MOL0     C 3394  10.056   9.837   0.839  0.6699  0.4161 -0.5850
   26MOL0     C 3395  10.191   9.780   0.852 -0.2687 -0.1709  0.2225
   26MOL0     C 3396  10.284   9.887   0.914  0.3505  0.6254  0.3343
   26MOL0     C 3397  10.418   9.833   0.919  0.6344 -0.2290 -0.1582
   26MOL0     C 3398  10.519   9.923   0.963  0.2297 -0.8864 -0.9213
   26MOL0     O 3399  10.649   9.851   0.960  0.0691 -0.2862 -0.4610
   26MOL0     C 3400  10.768   9.915   1.002  1.1727  0.9750  0.8429
   26MOL0     C 3401  10.764  10.055   1.026 -0.0484 -0.8551  0.2881
   26MOL0     C 3402  10.891  10.107   1.070 -0.0951 -0.4179  0.5612
   26MOL0     C 3403  10.999  10.030   1.087 -0.1386 -0.7547  0.3513
   26MOL0     C 3404  11.134  10.083   1.135 -0.4589  1.2420  0.1649
   26MOL0     O 3405  11.142  10.216   1.164  0.4354 -0.2460  0.3098
   26MOL0     C 3406  11.268  10.259   1.208  0.4335 -0.0569 -0.5700
   26MOL0     C 3407  11.362  10.301   1.120 -0.3634  0.3722  0.5239
   26MOL0     C 3408  11.484  10.354   1.173 -0.2853 -0.4344  0.5527
   26MOL0     C 3409  11.507  10.354   1.310  0.2607 -0.0580 -0.4708
   26MOL0     O 3410  11.619  10.409   1.371 -0.1317 -0.0972 -0.3632
   26MOL0     C 3411  11.743  10.406   1.297 -0.2514  0.0316  0.1713
   26MOL0     C 3412  11.855  10.408   1.400  0.4732 -0.8761  0.2213
   26MOL0     C 3413  11.892  10.541   1.442 -0.2850 -0.2609  0.4383
   26MOL0     C 3414  11.985  10.534   1.558 -0.3770  0.4512  0.5889
   26MOL0     C 3415  12.046  10.665   1.610  0.1552  0.5674 -0.3018
   26MOL0     C 3416  12.169  10.653   1.694  0.0334  0.0995 -0.0859
   26MOL0     C 3417  12.250  10.784   1.729 -0.3769  0.7154 -0.4145
   26MOL0     C 3418  12.373  10.744   1.813 -0.4382 -0.3324 -0.5856
   26MOL0    Cl 3419  12.470  10.610   1.740 -0.0233 -0.4391  0.4812
   26MOL0     C 3420  11.403  10.312   1.398 -0.2613 -0.7354  0.5961
   26MOL0     C 3421  11.289  10.257   1.347  0.0268  0.8402 -0.2252
   26MOL0     O 3422  11.221  10.001   1.163 -0.5690  0.0080  0.3796
   26MOL0     C 3423  11.002   9.898   1.055  0.1825  0.0839 -0.2891
   26MOL0     C 3424  10.881   9.832   1.015 -0.3602  0.4400  0.2253
   26MOL0     N 3425   9.983   9.857   0.721  0.1821 -0.0326 -0.5627
   26MOL0     N 3426   9.861   9.893   0.754 -0.5093 -0.2872 -0.3148
   26MOL0     C 3427   9.285  10.832   0.890  0.0889  0.4845 -0.2044
   26MOL0     C 3428   9.167  10.906   0.865  1.0844  0.4496 -0.3991
   26MOL0     C 3429   8.948  11.296   0.856  0.2410  0.4818 -0.5408
   26MOL0     C 3430   8.845  11.314   0.960  0.3470  0.4693  0.3850
   26MOL0     C 3431   8.752  11.416   0.955  0.0932  0.2575 -0.2010
   26MOL0     C 3432   8.745  11.499   0.842 -0.7276  0.5766  0.3662
   26MOL0     O 3433   8.638  11.584   0.831 -0.0682  0.2597  0.4286
   26MOL0     C 3434   8.526  11.563   0.909  0.0819  0.2261 -0.0643
   26MOL0     C 3435   8.416  11.661   0.868  0.4503 -0.7013  1.0781
   26MOL0     C 3436   8.278  11.601   0.859 -0.4144 -0.4138 -0.3160
   26MOL0     C 3437   8.236  11.540   0.986  0.1666 -0.4664 -0.1809
   26MOL0     C 3438   8.096  11.504   0.971 -0.4765  0.1188 -0.0648
   26MOL0     C 3439   7.981  11.485   0.992  0.3289 -0.4953 -0.4755
   26MOL0     C 3440   8.854  11.496   0.752 -0.8375 -0.9061 -0.3456
   26MOL0     C 3441   8.950  11.395   0.755  0.6438  0.2421 -0.5902
   26MOL0     C 3442   9.047  11.393   0.643  0.8410 -0.5865 -0.1764
   26MOL0     H 3443   9.168  11.098   1.147 -0.0492 -0.6963  0.5832
   26MOL0     H 3444   9.380  10.955   1.187  2.5393 -3.3179 -1.2377
   26MOL0     H 3445   9.492  10.648   0.878  1.6700 -1.3149  1.3263
   26MOL0     H 3446   9.568  10.819   0.853  3.1715 -0.3013  0.9319
   26MOL0     H 3447   9.730  10.730   1.021  2.4004  0.2925 -1.6901
   26MOL0     H 3448   9.732  10.689   0.856  1.1433 -1.7190 -0.4500
   26MOL0     H 3449   9.629  10.455   0.936  2.6243 -2.8240  0.4943
   26MOL0     H 3450   9.645  10.511   1.099 -2.3316 -0.2492 -1.1071
   26MOL0     H 3451   9.866  10.474   0.889 -2.5001  0.2605 -0.5751
   26MOL0     H 3452   9.891  10.551   1.044 -0.1324  0.0080 -0.1356
   26MOL0     H 3453   9.940  10.313   1.054  0.5612  1.0928 -4.0771
   26MOL0     H 3454   9.800  10.348   1.144  1.9470  2.7768 -0.4180
   26MOL0     H 3455   9.659  10.226   0.952 -0.5653 -2.4068 -0.9172
   26MOL0     H 3456   9.807  10.221   0.855 -1.3570  1.5214  0.0598
   26MOL0     H 3457   9.718  10.090   1.120 -0.2257  1.6280  0.5808
   26MOL0     H 3458   9.885  10.080   1.064  0.8118  1.3798 -3.5366
   26MOL0     H 3459   9.715   9.897   1.024 -0.2063 -1.3837 -3.0381
   26MOL0     H 3460   9.673  10.005   0.875  0.1783  1.7215 -0.2587
   26MOL0     H 3461  10.002   9.875   1.045 -1.3904 -2.8347 -0.0027
   26MOL0     H 3462  10.183   9.695   0.920  3.9224 -0.9663 -0.0154
   26MOL0     H 3463  10.235   9.752   0.756  1.2654  0.4994  0.6912
   26MOL0     H 3464  10.295   9.972   0.846 -2.4957 -0.3794 -1.5849
   26MOL0     H 3465  10.254   9.914   1.016  1.6792 -5.0284  2.6163
   26MOL0     H 3466  10.439   9.808   0.815 -0.1076 -4.7525  0.5673
   26MOL0     H 3467  10.426   9.752   0.993  0.5385  0.7184  0.9151
   26MOL0     H 3468  10.504   9.959   1.065  1.4474 -1.5096 -0.4994
   26MOL0     H 3469  10.520  10.010   0.896  0.5041 -0.6318 -0.5922
   26MOL0     H 3470  10.691  10.134   1.010  0.9491  0.1301  0.4926
   26MOL0     H 3471  10.902  10.212   1.095  0.7824 -0.0128 -1.3327
   26MOL0     H 3472  11.346  10.294   1.013  0.0864 -0.1931  0.4875
   26MOL0     H 3473  11.554  10.404   1.106 -0.9156  0.6196  0.6595
   26MOL0     H 3474  11.746  10.311   1.242 -1.7317  0.1129 -0.0984
   26MOL0     H 3475  11.741  10.486   1.223  2.3613 -0.9061 -1.0106
   26MOL0     H 3476  11.829  10.343   1.484 -1.0619 -1.7456 -0.8864
   26MOL0     H 3477  11.944  10.360   1.357 -0.5671 -1.2916 -1.5613
   26MOL0     H 3478  11.941  10.598   1.362 -0.0662  0.0206  0.7721
   26MOL0     H 3479  11.805  10.605   1.461  0.5102  0.6280  1.1345
   26MOL0     H 3480  12.070  10.485   1.511 -0.7920  0.9950 -0.7920
   26MOL0     H 3481  11.953  10.474   1.644  1.0414 -0.7485  0.3239
   26MOL0     H 3482  11.960  10.708   1.662 -0.9108 -2.3741  0.5957
   26MOL0     H 3483  12.068  10.721   1.519 -0.0974 -2.5634 -2.4494
   26MOL0     H 3484  12.137  10.595   1.782 -0.7567  1.6071  0.6461
   26MOL0     H 3485  12.239  10.589   1.639  0.6480 -0.2576  1.0762
   26MOL0     H 3486  12.185  10.840   1.797  1.2286 -0.1433  1.9680
   26MOL0     H 3487  12.270  10.835   1.635 -0.2446  1.4226 -0.0098
   26MOL0     H 3488  12.441  10.829   1.809 -1.4109  0.5167  0.1260
   26MOL0     H 3489  12.353  10.711   1.916  1.1000  1.1903  0.2516
   26MOL0     H 3490  11.421  10.324   1.504  1.6087  1.2130  0.1465
   26MOL0     H 3491  11.209  10.212   1.405  1.3930 -2.3997 -0.6420
   26MOL0     H 3492  11.088   9.831   1.061  1.3166  1.5653  0.7247
   26MOL0     H 3493  10.882   9.726   0.991 -0.5808  0.2895  0.8657
   26MOL0     H 3494   9.317  10.768   0.808 -1.7674  3.0023 -3.1179
   26MOL0     H 3495   9.117  10.884   0.772  1.8086 -3.7544  0.0067
   26MOL0     H 3496   8.842  11.244   1.044  1.7814  1.8590  1.6732
   26MOL0     H 3497   8.681  11.417   1.037  2.5790  2.8651  2.1173
   26MOL0     H 3498   8.543  11.569   1.017 -1.4129 -0.7767  0.2553
   26MOL0     H 3499   8.487  11.464   0.885 -2.4846  1.4463 -1.3800
   26MOL0     H 3500   8.434  11.709   0.772 -5.0754 -0.6852 -0.2342
   26MOL0     H 3501   8.401  11.736   0.947 -3.6519 -0.5794  0.3999
   26MOL0     H 3502   8.277  11.523   0.783 -1.0381  0.8055 -1.6074
   26MOL0     H 3503   8.219  11.679   0.811  3.4984  1.3961 -2.7107
   26MOL0     H 3504   8.301  11.453   1.004 -0.4890 -0.4799  2.5869
   26MOL0     H 3505   8.255  11.604   1.072  1.1046  0.0039 -0.7260
   26MOL0     H 3506   7.880  11.484   1.028  1.0414 -0.4733  1.6214
   26MOL0     H 3507   8.842  11.562   0.667  1.7894  2.8881  1.9271
   26MOL0     H 3508   9.027  11.306   0.579  2.9234  0.2259 -2.0934
   26MOL0     H 3509   9.031  11.479   0.576  3.0824 -1.1390 -1.5602
   26MOL0     H 3510   9.153  11.395   0.672  0.8939 -1.1290 -0.3179
   27MOL0     O 3511   9.716   6.186   3.298 -0.2928 -0.3599 -0.4272
   27MOL0     C 3512   9.686   6.307   3.303 -0.1096  0.8833  0.2288
   27MOL0     O 3513   9.773   6.410   3.348  0.3694  0.8971 -0.1018
   27MOL0     C 3514   9.903   6.375   3.382  0.4627 -0.1595  1.7960
   27MOL0     C 3515  10.000   6.330   3.293 -0.1178  0.0275  0.1927
   27MOL0     C 3516  10.129   6.308   3.348  0.0484  1.0628 -0.1048
   27MOL0     C 3517  10.155   6.340   3.481  0.3115  0.7270  0.9622
   27MOL0     O 3518  10.286   6.306   3.510  0.1843  0.3153  0.4953
   27MOL0     C 3519  10.356   6.413   3.569 -0.1556 -0.2879  0.4193
   27MOL0     C 3520  10.488   6.421   3.494  0.9998  0.1072  0.2071
   27MOL0     C 3521  10.584   6.312   3.550  0.1703  0.3687  0.6294
   27MOL0     C 3522  10.706   6.283   3.459 -0.1374  0.4589  0.1575
   27MOL0     C 3523  10.793   6.177   3.510 -0.6378 -0.9245  0.4826
   27MOL0     C 3524  10.931   6.179   3.432 -1.3616 -0.1504 -0.5271
   27MOL0     C 3525  11.024   6.070   3.492 -0.2256 -0.6277  0.1800
   27MOL0     C 3526  11.168   6.096   3.476 -0.3252  0.1649  0.3014
   27MOL0     N 3527  11.229   6.112   3.344 -0.3772  0.3704 -0.2232
   27MOL0     C 3528  11.349   6.048   3.302  0.0578  0.3293 -0.4733
   27MOL0     C 3529  11.395   6.127   3.204 -0.4723  0.2778  0.4016
   27MOL0     C 3530  11.532   6.119   3.133  0.4805  0.4607 -0.0349
   27MOL0     C 3531  11.645   6.160   3.232  0.7125  0.3980  0.4344
   27MOL0     C 3532  11.624   6.306   3.282 -0.1321 -0.1476  0.6017
   27MOL0     C 3533  11.750   6.379   3.309  0.0253  0.3905 -0.5422
   27MOL0     O 3534  11.828   6.295   3.397  0.4029 -0.2224 -0.2289
   27MOL0     C 3535  11.962   6.321   3.420  0.7868  0.1278 -0.7533
   27MOL0     C 3536  12.042   6.415   3.347  0.3022 -0.0392 -0.1426
   27MOL0     C 3537  12.173   6.452   3.373 -0.4545  0.4405 -0.1322
   27MOL0     C 3538  12.242   6.384   3.477 -0.1534 -0.2279  0.2354
   27MOL0     C 3539  12.378   6.419   3.516 -0.3141 -0.9386 -0.2648
   27MOL0     O 3540  12.441   6.485   3.421 -0.8970  0.0392 -0.0584
   27MOL0     C 3541  12.573   6.514   3.442 -0.2056  0.3382  0.5266
   27MOL0     C 3542  12.663   6.414   3.410 -0.8419  0.9113 -0.5793
   27MOL0     C 3543  12.811   6.434   3.396  0.9661  0.0662 -0.8087
   27MOL0     C 3544  12.853   6.568   3.434 -0.3173  0.4262  0.4413
   27MOL0     O 3545  12.983   6.607   3.422  0.2762  0.0586  0.4245
   27MOL0     C 3546  13.081   6.521   3.368 -0.2302 -0.3276  0.5493
   27MOL0     C 3547  13.199   6.609   3.339  0.7228  0.4576 -0.0289
   27MOL0     C 3548  13.282   6.669   3.453  0.3628 -0.3939  0.3457
   27MOL0     C 3549  13.402   6.741   3.400 -0.2137 -0.5400  1.1230
   27MOL0     C 3550  13.522   6.729   3.491  1.0027  0.1342 -0.6211
   27MOL0     C 3551  13.650   6.798   3.446 -0.4383 -1.5585  0.5176
   27MOL0     C 3552  13.684   6.781   3.291 -0.2406 -0.2819 -0.6697
   27MOL0     C 3553  13.830   6.811   3.256  0.8201 -0.1443 -0.0096
   27MOL0    Cl 3554  13.885   6.717   3.118 -0.0457 -0.1417  0.1237
   27MOL0     C 3555  12.760   6.663   3.465 -0.4099 -0.1128  0.5485
   27MOL0     C 3556  12.621   6.644   3.466 -0.0835  0.2563  0.1867
   27MOL0     O 3557  12.418   6.393   3.627  0.7694  0.6947 -0.5342
   27MOL0     C 3558  12.170   6.280   3.544  0.5017 -0.4109 -0.5582
   27MOL0     C 3559  12.027   6.250   3.522  0.1247 -0.3560 -0.3052
   27MOL0     N 3560  11.309   6.232   3.184  0.2729 -0.0174  0.3820
   27MOL0     N 3561  11.210   6.219   3.259 -1.1509  0.7783  0.1458
   27MOL0     C 3562  10.054   6.369   3.571  0.2402 -0.3500 -0.6479
   27MOL0     C 3563   9.924   6.388   3.520  0.6725  0.5502  0.4162
   27MOL0     C 3564   9.550   6.355   3.261 -0.1536  0.3113  0.2653
   27MOL0     C 3565   9.463   6.400   3.365 -0.6428  0.0138  0.7017
   27MOL0     C 3566   9.338   6.453   3.329  0.1420  0.1864 -0.1907
   27MOL0     C 3567   9.293   6.450   3.194  0.8586  0.2308  0.5340
   27MOL0     O 3568   9.165   6.479   3.166  0.2286 -0.4756 -0.7786
   27MOL0     C 3569   9.077   6.367   3.138 -0.4012  0.6542 -0.2083
   27MOL0     C 3570   8.940   6.422   3.130  0.8683  0.0992 -0.4044
   27MOL0     C 3571   8.877   6.471   3.266  0.1392  0.1927  0.1292
   27MOL0     C 3572   8.733   6.527   3.241 -0.2276  0.9574  0.3726
   27MOL0     C 3573   8.643   6.412   3.219  0.1889  0.2951 -0.2151
   27MOL0     C 3574   8.580   6.311   3.211 -0.3883 -0.2065 -0.1355
   27MOL0     C 3575   9.388   6.406   3.093  0.2702  0.3159 -0.0849
   27MOL0     C 3576   9.515   6.358   3.124 -0.5460  0.9020 -0.2037
   27MOL0     C 3577   9.612   6.315   3.014  0.0281  1.3867  0.0245
   27MOL0     H 3578   9.977   6.316   3.188 -3.6780  3.1965  0.3507
   27MOL0     H 3579  10.209   6.292   3.277 -1.7303 -1.2030 -1.7832
   27MOL0     H 3580  10.304   6.509   3.568 -0.3004 -0.2741 -2.6226
   27MOL0     H 3581  10.379   6.387   3.672 -1.5371  0.3069  0.8952
   27MOL0     H 3582  10.528   6.523   3.497 -0.8120  1.0053 -2.3345
   27MOL0     H 3583  10.468   6.404   3.388 -0.5150 -1.6400  0.7209
   27MOL0     H 3584  10.527   6.219   3.555 -2.2731  1.8563  3.2612
   27MOL0     H 3585  10.613   6.334   3.653  1.0291 -0.5122  0.5933
   27MOL0     H 3586  10.663   6.256   3.362 -0.6672  1.3948  0.1185
   27MOL0     H 3587  10.761   6.376   3.442 -0.4185  0.3523 -1.4460
   27MOL0     H 3588  10.799   6.193   3.618 -0.0482  0.2100  0.2954
   27MOL0     H 3589  10.747   6.078   3.501  0.3638 -1.5081  1.4952
   27MOL0     H 3590  10.915   6.154   3.327 -2.0881 -1.1410 -0.2074
   27MOL0     H 3591  10.976   6.278   3.441 -0.9647 -0.3762  0.0302
   27MOL0     H 3592  11.003   5.973   3.447 -0.1721 -0.4446 -0.2430
   27MOL0     H 3593  11.011   6.068   3.601  0.8089  1.5795  0.4084
   27MOL0     H 3594  11.202   6.176   3.542  2.2880 -0.6848  0.0927
   27MOL0     H 3595  11.220   6.005   3.506  0.3857 -0.0119 -1.3409
   27MOL0     H 3596  11.393   5.957   3.342 -0.5953 -0.7284 -2.0819
   27MOL0     H 3597  11.543   6.019   3.090  1.7391  0.4921  0.1813
   27MOL0     H 3598  11.515   6.188   3.050 -1.4881  1.7988  1.4098
   27MOL0     H 3599  11.627   6.096   3.319  0.2258  0.9076  0.7106
   27MOL0     H 3600  11.734   6.135   3.174  0.2577 -2.1936  0.7308
   27MOL0     H 3601  11.560   6.302   3.370  0.6437  1.1885  1.2586
   27MOL0     H 3602  11.562   6.368   3.216  0.2642 -0.7585 -0.3727
   27MOL0     H 3603  11.726   6.477   3.351 -2.3933  0.0848 -1.0603
   27MOL0     H 3604  11.799   6.402   3.214 -1.1150 -0.4142 -1.3469
   27MOL0     H 3605  11.996   6.464   3.262 -0.4985  0.0369  0.3268
   27MOL0     H 3606  12.227   6.523   3.310 -0.0627 -0.8328 -1.2677
   27MOL0     H 3607  12.631   6.311   3.417  0.5825  0.3011 -2.3320
   27MOL0     H 3608  12.877   6.355   3.362  1.2838 -0.2237  0.4479
   27MOL0     H 3609  13.111   6.451   3.447 -1.5252 -0.7751  0.6641
   27MOL0     H 3610  13.047   6.459   3.285  0.5636 -0.5307  0.3741
   27MOL0     H 3611  13.264   6.555   3.269  0.7845  0.1384  0.2724
   27MOL0     H 3612  13.160   6.686   3.272 -0.0059 -0.0881 -0.2455
   27MOL0     H 3613  13.215   6.738   3.506  0.7442 -0.8195  1.4158
   27MOL0     H 3614  13.313   6.585   3.516  0.2337  0.3597  1.4462
   27MOL0     H 3615  13.380   6.847   3.384  1.2708 -0.2626  0.7440
   27MOL0     H 3616  13.431   6.685   3.311  2.1840  3.7110 -1.0748
   27MOL0     H 3617  13.541   6.622   3.501  1.9581  0.3295 -0.1479
   27MOL0     H 3618  13.486   6.766   3.588 -0.5851  1.0708 -1.5342
   27MOL0     H 3619  13.636   6.900   3.483 -0.3335 -1.7023  0.9530
   27MOL0     H 3620  13.745   6.774   3.494  1.2046  0.6724 -1.3391
   27MOL0     H 3621  13.620   6.858   3.248  1.9517  1.6296 -0.7693
   27MOL0     H 3622  13.661   6.680   3.256 -2.1697 -0.5913  1.2957
   27MOL0     H 3623  13.837   6.918   3.233  0.0151  0.6133  2.8483
   27MOL0     H 3624  13.901   6.792   3.338  1.6662 -2.7542 -1.2235
   27MOL0     H 3625  12.790   6.764   3.490 -1.2867  0.4348 -0.5604
   27MOL0     H 3626  12.547   6.722   3.478 -0.0337  0.0475  2.3619
   27MOL0     H 3627  12.209   6.228   3.631  0.6237  0.0542 -0.3312
   27MOL0     H 3628  11.964   6.185   3.581  1.9240 -0.5804  1.4498
   27MOL0     H 3629  10.081   6.371   3.677 -0.5317 -0.9889 -0.4251
   27MOL0     H 3630   9.832   6.411   3.573 -0.7867 -0.7861 -1.4300
   27MOL0     H 3631   9.501   6.405   3.466 -1.8348 -2.7965  1.3770
   27MOL0     H 3632   9.260   6.471   3.403 -0.7714 -2.5574 -0.3773
   27MOL0     H 3633   9.084   6.295   3.220 -0.1863 -1.0982 -1.7062
   27MOL0     H 3634   9.110   6.325   3.043  2.7147  1.1708  0.5322
   27MOL0     H 3635   8.882   6.336   3.096  1.1574 -0.3443  0.1971
   27MOL0     H 3636   8.944   6.501   3.055  4.6852  1.3173  0.8523
   27MOL0     H 3637   8.955   6.536   3.308  2.5104 -2.5293  0.2955
   27MOL0     H 3638   8.877   6.390   3.340  0.7582 -0.0029 -0.0761
   27MOL0     H 3639   8.694   6.567   3.336 -1.7181 -0.3050  0.3315
   27MOL0     H 3640   8.737   6.597   3.157  0.3997 -0.8897 -1.2019
   27MOL0     H 3641   8.524   6.219   3.214  3.2721 -2.6073  1.9248
   27MOL0     H 3642   9.352   6.420   2.992  0.9179  0.1436 -0.3429
   27MOL0     H 3643   9.660   6.224   3.051 -2.0279  1.0496  2.0834
   27MOL0     H 3644   9.556   6.294   2.922 -2.1087  0.9411  1.3717
   27MOL0     H 3645   9.691   6.390   3.002  2.6376 -1.4366 -2.1167
   28MOL0     O 3646   9.003   7.886   9.312  0.0515  0.0722  0.1723
   28MOL0     C 3647   9.033   7.768   9.293  0.0920  0.1460 -0.7308
   28MOL0     O 3648   9.154   7.717   9.327  0.8209 -1.0827 -0.0984
   28MOL0     C 3649   9.251   7.801   9.351 -0.1647  0.0825 -0.1410
   28MOL0     C 3650   9.330   7.787   9.468 -0.7858  0.6722 -0.0773
   28MOL0     C 3651   9.438   7.871   9.480 -1.0529  0.5785 -0.6898
   28MOL0     C 3652   9.474   7.973   9.394  1.1075 -0.7312 -0.6837
   28MOL0     O 3653   9.582   8.057   9.417  0.1845 -0.4088  1.2616
   28MOL0     C 3654   9.577   8.137   9.543 -0.4705  1.0572  0.1346
   28MOL0     C 3655   9.714   8.207   9.559  0.5387  0.0577 -0.3211
   28MOL0     C 3656   9.717   8.302   9.673  0.1555  0.7525 -0.3743
   28MOL0     C 3657   9.848   8.378   9.671  0.0653  0.5748 -0.0855
   28MOL0     C 3658   9.835   8.496   9.765  0.1640  0.2381  0.4567
   28MOL0     C 3659   9.830   8.457   9.913  0.1097  0.0796  0.8368
   28MOL0     C 3660   9.890   8.549  10.018  0.1023 -0.4481 -0.1315
   28MOL0     C 3661  10.037   8.544  10.038  0.1539  0.6042  0.8300
   28MOL0     N 3662  10.134   8.591   9.942  0.0165  0.4562 -0.3198
   28MOL0     C 3663  10.126   8.709   9.883 -0.2300 -0.5673  0.2699
   28MOL0     C 3664  10.248   8.733   9.826 -0.4530  0.1985  0.1394
   28MOL0     C 3665  10.267   8.856   9.742  0.1485  0.3144  0.3218
   28MOL0     C 3666  10.417   8.895   9.750  0.5872  0.0282 -0.1590
   28MOL0     C 3667  10.452   8.996   9.636 -0.9076  0.1952  0.5223
   28MOL0     C 3668  10.377   9.122   9.644 -0.5906 -0.4477 -0.4427
   28MOL0     O 3669  10.417   9.200   9.758 -0.1045  0.7512 -0.1311
   28MOL0     C 3670  10.525   9.278   9.771 -0.6740  0.6554  1.3653
   28MOL0     C 3671  10.548   9.354   9.886  0.5611  0.2925  0.0379
   28MOL0     C 3672  10.665   9.425   9.900 -0.2767 -0.5323 -0.4666
   28MOL0     C 3673  10.762   9.425   9.806 -0.2189 -0.3974  0.3890
   28MOL0     C 3674  10.876   9.511   9.809 -0.0520 -0.5619 -0.0015
   28MOL0     O 3675  10.860   9.610   9.903 -0.4984  0.0621 -0.3802
   28MOL0     C 3676  10.962   9.702   9.903  0.6352 -0.5470 -0.3960
   28MOL0     C 3677  11.038   9.718  10.019  0.4263 -0.0131 -0.1947
   28MOL0     C 3678  11.164   9.781  10.001 -0.1769 -0.1061  0.6545
   28MOL0     C 3679  11.198   9.856   9.883 -0.2564 -0.5100  0.3953
   28MOL0     O 3680  11.320   9.929   9.889  0.3231  0.1033  0.2727
   28MOL0     C 3681  11.322  10.045   9.801  0.1123  0.5815  0.9858
   28MOL0     C 3682  11.455  10.119   9.799 -0.4673  1.1330 -0.2100
   28MOL0     C 3683  11.515  10.131   9.937 -0.4219 -0.5608  0.3063
   28MOL0     C 3684  11.662  10.152   9.924 -0.3528 -0.3716 -0.4157
   28MOL0     C 3685  11.735  10.177  10.056 -0.0876  0.1792  0.3411
   28MOL0     C 3686  11.838  10.066  10.087  0.1923  0.0061  0.4655
   28MOL0     C 3687  11.920  10.085  10.222  0.9907 -0.6190  0.2933
   28MOL0     C 3688  12.020   9.971  10.226  0.2765  0.3188  0.5538
   28MOL0    Cl 3689  12.141   9.994  10.103 -0.0231  0.1524 -0.3091
   28MOL0     C 3690  11.100   9.861   9.779 -1.0819  0.0724  0.1757
   28MOL0     C 3691  10.980   9.784   9.793 -0.4533 -0.3102 -0.4324
   28MOL0     O 3692  10.974   9.491   9.740 -0.2925  0.1558 -0.1184
   28MOL0     C 3693  10.736   9.357   9.685 -0.7857  0.4191 -0.1395
   28MOL0     C 3694  10.624   9.277   9.671 -0.0018  0.0990  0.5458
   28MOL0     N 3695  10.315   8.619   9.847  0.5973  0.2901  0.4727
   28MOL0     N 3696  10.258   8.539   9.934 -0.4115  0.2907  0.4776
   28MOL0     C 3697   9.392   7.996   9.291  0.4243 -0.2459 -0.3194
   28MOL0     C 3698   9.290   7.908   9.259  1.4172 -0.3191  0.5368
   28MOL0     C 3699   8.919   7.675   9.280  0.4885 -0.2663 -0.4579
   28MOL0     C 3700   8.927   7.551   9.343 -0.3918 -0.3184  0.6509
   28MOL0     C 3701   8.826   7.451   9.319 -0.2564  0.6160 -0.3715
   28MOL0     C 3702   8.711   7.488   9.258  0.6834  0.2007 -0.2636
   28MOL0     O 3703   8.599   7.405   9.239  0.6126 -0.1392 -0.8941
   28MOL0     C 3704   8.601   7.262   9.263  0.0505  0.4851 -0.0058
   28MOL0     C 3705   8.460   7.199   9.252  0.3582 -0.4466 -0.0070
   28MOL0     C 3706   8.369   7.251   9.360 -0.8783  0.1695  0.4841
   28MOL0     C 3707   8.251   7.168   9.383 -0.0369  0.3862 -0.3905
   28MOL0     C 3708   8.155   7.178   9.270 -0.4162  0.0533  0.8628
   28MOL0     C 3709   8.082   7.188   9.171  0.1941  0.5465  0.0928
   28MOL0     C 3710   8.698   7.613   9.201  0.1091  0.7526 -0.0609
   28MOL0     C 3711   8.803   7.705   9.202 -1.0337 -0.2333 -0.8125
   28MOL0     C 3712   8.775   7.838   9.133 -0.5740  0.2441 -0.0887
   28MOL0     H 3713   9.306   7.703   9.532  0.6870  0.0889 -0.2565
   28MOL0     H 3714   9.500   7.850   9.567 -0.0116 -0.2073 -1.5934
   28MOL0     H 3715   9.487   8.199   9.534 -1.8950 -0.7316  1.4692
   28MOL0     H 3716   9.562   8.068   9.626 -0.3507  1.2220  0.2942
   28MOL0     H 3717   9.732   8.263   9.467 -1.8647  0.6633 -0.5086
   28MOL0     H 3718   9.788   8.128   9.575  0.1278  0.0646  2.1113
   28MOL0     H 3719   9.714   8.234   9.759  3.1419 -0.5583 -1.1634
   28MOL0     H 3720   9.632   8.370   9.674  0.4633  1.1584 -1.2029
   28MOL0     H 3721   9.930   8.310   9.696  0.8356  1.4048 -0.3247
   28MOL0     H 3722   9.869   8.400   9.566 -2.7860  2.7921 -0.3016
   28MOL0     H 3723   9.928   8.554   9.757  1.6976 -2.1257  0.2709
   28MOL0     H 3724   9.753   8.562   9.735  0.7330  0.3752 -0.8902
   28MOL0     H 3725   9.724   8.439   9.935 -0.9645 -0.1693 -3.6343
   28MOL0     H 3726   9.875   8.358   9.918  0.9996  0.3108 -1.5939
   28MOL0     H 3727   9.849   8.516  10.114 -0.1891  0.6784  0.1499
   28MOL0     H 3728   9.862   8.653   9.998 -0.7763 -0.3235  1.4997
   28MOL0     H 3729  10.057   8.610  10.123 -1.2043  0.2889  1.4286
   28MOL0     H 3730  10.061   8.441  10.067  1.1138  0.2693 -0.9825
   28MOL0     H 3731  10.041   8.776   9.881 -0.1363 -0.4663 -0.2438
   28MOL0     H 3732  10.233   8.825   9.643 -0.4128  0.0914  0.5837
   28MOL0     H 3733  10.210   8.935   9.789 -0.3988  0.2169 -0.1697
   28MOL0     H 3734  10.429   8.945   9.846  0.2753  0.5740 -0.4008
   28MOL0     H 3735  10.490   8.813   9.746  1.2541  0.6180 -0.3646
   28MOL0     H 3736  10.427   8.944   9.544  2.6710  1.0331 -1.1270
   28MOL0     H 3737  10.561   9.005   9.636 -0.8705 -0.2648  0.5112
   28MOL0     H 3738  10.270   9.102   9.642 -0.2192 -3.0140  0.5773
   28MOL0     H 3739  10.394   9.180   9.553 -2.6531 -0.2726 -0.7579
   28MOL0     H 3740  10.476   9.350   9.967  1.8006 -1.5736  1.1321
   28MOL0     H 3741  10.687   9.480   9.991  3.0260 -1.2126 -0.7220
   28MOL0     H 3742  10.999   9.662  10.104 -1.7418  1.7092  0.0225
   28MOL0     H 3743  11.221   9.783  10.094 -0.5713  1.9810  0.8835
   28MOL0     H 3744  11.301  10.009   9.700 -0.2351  2.0570  0.5096
   28MOL0     H 3745  11.248  10.120   9.832  0.8938  1.4279  0.8288
   28MOL0     H 3746  11.517  10.052   9.738 -1.0000 -0.3292  0.8019
   28MOL0     H 3747  11.451  10.216   9.750  0.6139  1.1423 -0.2890
   28MOL0     H 3748  11.474  10.224   9.978  2.6928  0.6217  1.0391
   28MOL0     H 3749  11.484  10.057  10.011 -0.1930 -1.3722 -0.3901
   28MOL0     H 3750  11.669  10.243   9.862 -1.2156 -0.9823 -1.4512
   28MOL0     H 3751  11.717  10.075   9.869  1.3094 -0.2674  1.0213
   28MOL0     H 3752  11.663  10.183  10.138 -0.0719 -1.7119  0.5169
   28MOL0     H 3753  11.792  10.271  10.050  0.6313 -0.2006  1.1097
   28MOL0     H 3754  11.778   9.976  10.102 -1.3874  1.0199  0.4674
   28MOL0     H 3755  11.904  10.062   9.999  3.5382 -0.1116  2.7742
   28MOL0     H 3756  11.860  10.090  10.314  2.3170  0.5625  1.1253
   28MOL0     H 3757  11.986  10.172  10.220 -0.2733  0.4001 -2.2928
   28MOL0     H 3758  12.076   9.973  10.320 -0.0504 -3.1108  0.9729
   28MOL0     H 3759  11.974   9.871  10.220 -1.9761  1.3194  0.2056
   28MOL0     H 3760  11.117   9.929   9.696 -0.5178  2.1054  1.8737
   28MOL0     H 3761  10.907   9.770   9.713 -1.1503 -0.1794  0.1686
   28MOL0     H 3762  10.806   9.371   9.603  1.0975  2.2611  1.6465
   28MOL0     H 3763  10.602   9.211   9.587  0.6257 -2.4039  2.2474
   28MOL0     H 3764   9.434   8.066   9.219  2.8150  0.4151  1.6236
   28MOL0     H 3765   9.229   7.914   9.169 -0.3823  4.4988  1.7519
   28MOL0     H 3766   9.015   7.527   9.402 -1.2018  0.9543  2.4827
   28MOL0     H 3767   8.830   7.355   9.369  2.8761  1.9100  2.2288
   28MOL0     H 3768   8.628   7.245   9.367  1.3049  2.9939  0.1724
   28MOL0     H 3769   8.674   7.225   9.191 -0.6789 -3.2453  0.9678
   28MOL0     H 3770   8.477   7.091   9.258 -1.9844 -0.9288 -1.0692
   28MOL0     H 3771   8.409   7.218   9.157  1.2806 -3.6721 -1.2763
   28MOL0     H 3772   8.331   7.350   9.334 -0.9695 -0.1020 -0.4432
   28MOL0     H 3773   8.430   7.263   9.450 -1.4456  2.2417  0.6360
   28MOL0     H 3774   8.283   7.065   9.394 -2.1353 -0.1092  2.0838
   28MOL0     H 3775   8.203   7.199   9.477  0.7647 -0.8441  0.4463
   28MOL0     H 3776   8.020   7.192   9.084 -1.4074 -0.4697  1.1398
   28MOL0     H 3777   8.601   7.614   9.151 -0.4541 -3.1543  0.6191
   28MOL0     H 3778   8.694   7.836   9.060 -1.4125 -0.6083  0.8342
   28MOL0     H 3779   8.733   7.903   9.211 -1.2559  0.5745 -0.7183
   28MOL0     H 3780   8.864   7.889   9.094  0.0205 -0.1573  0.7013
   29MOL0     O 3781   9.038   0.923   5.657  0.7125  0.7630 -0.7775
   29MOL0     C 3782   8.953   0.982   5.598  0.4487 -0.4470  0.0090
   29MOL0     O 3783   8.838   1.018   5.658  0.1029  0.2744 -0.3695
   29MOL0     C 3784   8.781   0.934   5.750  0.2584 -0.6854 -0.2709
   29MOL0     C 3785   8.708   0.994   5.861 -0.5937  0.3112 -0.3182
   29MOL0     C 3786   8.653   0.915   5.962  0.5426 -0.6306  0.7073
   29MOL0     C 3787   8.665   0.772   5.959 -0.1494 -1.1378 -0.9603
   29MOL0     O 3788   8.594   0.705   6.054  0.0011  0.2445  0.0773
   29MOL0     C 3789   8.547   0.570   6.020  0.5434 -0.2771 -0.1514
   29MOL0     C 3790   8.426   0.528   6.115 -0.7606 -0.8060  1.3176
   29MOL0     C 3791   8.305   0.584   6.051  1.1879  0.1313 -0.4155
   29MOL0     C 3792   8.183   0.504   6.108 -0.5281 -0.2508  0.0027
   29MOL0     C 3793   8.051   0.582   6.112  0.4728  0.2778  0.3408
   29MOL0     C 3794   7.925   0.499   6.161  0.0401 -0.4912 -0.1264
   29MOL0     C 3795   7.798   0.577   6.167 -0.6075  0.6702  0.0240
   29MOL0     C 3796   7.684   0.484   6.195  0.1070  0.1178 -0.6835
   29MOL0     N 3797   7.552   0.555   6.198 -0.5127 -0.3487 -0.3741
   29MOL0     C 3798   7.488   0.606   6.308 -0.1782 -0.0311  0.0496
   29MOL0     C 3799   7.362   0.647   6.265  0.0313  0.8126 -0.5028
   29MOL0     C 3800   7.262   0.721   6.350 -0.2315  0.2107  0.6514
   29MOL0     C 3801   7.120   0.705   6.291  0.6026 -0.6902  0.5866
   29MOL0     C 3802   7.014   0.759   6.394 -0.3971 -0.5471  0.8719
   29MOL0     C 3803   6.900   0.820   6.311  0.0057 -0.3640 -0.3868
   29MOL0     O 3804   6.792   0.853   6.399  0.5006  0.4337 -1.1019
   29MOL0     C 3805   6.665   0.893   6.346  0.8420  0.4750 -0.1960
   29MOL0     C 3806   6.585   0.961   6.426 -0.0776 -1.5114  0.4327
   29MOL0     C 3807   6.461   0.995   6.385  0.8866 -0.3790 -0.7376
   29MOL0     C 3808   6.417   0.961   6.254 -0.2497  0.2215 -0.3819
   29MOL0     C 3809   6.294   1.011   6.196 -0.2769 -1.1810  0.3374
   29MOL0     O 3810   6.201   1.066   6.282 -0.1210 -0.1775 -0.3234
   29MOL0     C 3811   6.082   1.112   6.227  0.5884  0.5587  0.3182
   29MOL0     C 3812   6.091   1.221   6.140  0.4872 -0.3514 -1.0777
   29MOL0     C 3813   5.980   1.278   6.071 -0.5122 -0.0518 -0.2031
   29MOL0     C 3814   5.856   1.216   6.099  0.2652  0.1645 -0.5100
   29MOL0     O 3815   5.745   1.256   6.037  0.4722 -0.5856 -0.0274
   29MOL0     C 3816   5.724   1.389   5.994 -0.5100 -0.3010  0.2033
   29MOL0     C 3817   5.580   1.388   5.951 -0.6593 -0.8348  0.5157
   29MOL0     C 3818   5.485   1.367   6.066 -0.1492 -1.1849  0.5945
   29MOL0     C 3819   5.344   1.367   6.010 -0.3206  0.3911  0.9976
   29MOL0     C 3820   5.236   1.375   6.119  0.1339 -0.2885  0.5031
   29MOL0     C 3821   5.093   1.398   6.065 -0.2703  0.6264  0.6920
   29MOL0     C 3822   4.998   1.447   6.171  0.1313 -0.9815  0.0893
   29MOL0     C 3823   4.900   1.552   6.108 -0.9883 -1.0101  0.2783
   29MOL0    Cl 3824   4.745   1.553   6.205 -0.0807 -0.0010 -0.8526
   29MOL0     C 3825   5.849   1.108   6.199 -0.3196  0.1247  0.4088
   29MOL0     C 3826   5.961   1.054   6.261  0.7415  0.2447 -0.5433
   29MOL0     O 3827   6.279   0.990   6.070  1.2398 -0.4498 -0.3008
   29MOL0     C 3828   6.510   0.889   6.173 -0.2859 -0.4135 -0.1262
   29MOL0     C 3829   6.634   0.872   6.217 -0.5640  1.0643 -0.0414
   29MOL0     N 3830   7.365   0.626   6.129  0.5377 -0.3235  0.3946
   29MOL0     N 3831   7.478   0.576   6.088 -0.5093 -0.2153  0.3147
   29MOL0     C 3832   8.735   0.713   5.851  0.3009  0.7014  1.0532
   29MOL0     C 3833   8.784   0.793   5.745 -1.1266  0.1887 -0.7529
   29MOL0     C 3834   8.978   1.023   5.455  0.9882 -0.3916 -0.2248
   29MOL0     C 3835   8.870   1.092   5.389 -0.0027 -0.2115  0.1689
   29MOL0     C 3836   8.889   1.149   5.260 -0.2162  0.1299 -0.4850
   29MOL0     C 3837   9.018   1.140   5.198  1.1380  0.0048 -1.0554
   29MOL0     O 3838   9.043   1.201   5.084  0.0901  0.5574  0.5200
   29MOL0     C 3839   9.038   1.343   5.080  0.3311  0.3482 -0.1127
   29MOL0     C 3840   9.173   1.396   5.104 -0.4209 -0.2104 -0.3569
   29MOL0     C 3841   9.279   1.348   4.995  0.0215  0.0577 -0.4504
   29MOL0     C 3842   9.256   1.429   4.865  0.7877 -0.8255 -0.7375
   29MOL0     C 3843   9.254   1.571   4.874  1.0792  0.5959  0.0296
   29MOL0     C 3844   9.246   1.691   4.874  0.4837  0.2226  0.0571
   29MOL0     C 3845   9.112   1.048   5.256  0.0319 -0.0802  0.5315
   29MOL0     C 3846   9.089   0.992   5.380  0.3952 -0.4482 -0.4856
   29MOL0     C 3847   9.212   0.912   5.434 -0.0244 -0.4207 -0.2349
   29MOL0     H 3848   8.702   1.103   5.861 -0.1616  0.3433  0.3910
   29MOL0     H 3849   8.592   0.976   6.029  0.6522  0.9659 -0.5623
   29MOL0     H 3850   8.523   0.572   5.913  0.6306  0.5283 -0.1628
   29MOL0     H 3851   8.624   0.493   6.033  1.7418  0.8724 -0.1868
   29MOL0     H 3852   8.448   0.563   6.216 -0.7021 -0.5986  1.2321
   29MOL0     H 3853   8.425   0.419   6.123 -3.6150 -0.9912 -0.2204
   29MOL0     H 3854   8.309   0.579   5.942 -0.1444  0.5966 -0.5085
   29MOL0     H 3855   8.297   0.689   6.081  2.2032  0.1785 -0.2741
   29MOL0     H 3856   8.179   0.409   6.055 -0.6690 -0.2038 -0.0728
   29MOL0     H 3857   8.206   0.484   6.213 -1.6707  1.0468  0.5364
   29MOL0     H 3858   8.063   0.670   6.176 -1.2941  1.0030 -0.2590
   29MOL0     H 3859   8.032   0.626   6.013 -0.7449  1.2322  0.9731
   29MOL0     H 3860   7.919   0.407   6.102  1.7382 -0.6130 -0.1799
   29MOL0     H 3861   7.934   0.460   6.263  1.2752 -4.0387 -1.4422
   29MOL0     H 3862   7.777   0.624   6.070  0.7308 -0.3640 -0.7958
   29MOL0     H 3863   7.809   0.653   6.245  1.4290  1.9514 -1.3989
   29MOL0     H 3864   7.689   0.409   6.116  0.6402  0.4417 -0.9704
   29MOL0     H 3865   7.696   0.434   6.291  1.0388  0.4956 -0.5883
   29MOL0     H 3866   7.526   0.620   6.409 -1.8838  0.7737  0.6141
   29MOL0     H 3867   7.261   0.678   6.451  1.4609  2.2376  1.6035
   29MOL0     H 3868   7.285   0.827   6.366 -1.4470  0.4010  1.2536
   29MOL0     H 3869   7.115   0.756   6.194 -0.1447  0.9160  1.4240
   29MOL0     H 3870   7.105   0.599   6.272  0.3749 -0.7159  0.9084
   29MOL0     H 3871   7.068   0.824   6.463  2.5470 -0.8938 -0.9417
   29MOL0     H 3872   6.962   0.672   6.434 -0.3408 -0.4435  1.1665
   29MOL0     H 3873   6.864   0.746   6.239 -0.4809 -0.1134 -0.4072
   29MOL0     H 3874   6.944   0.904   6.257  1.9061 -1.1014 -0.0801
   29MOL0     H 3875   6.616   0.984   6.527 -2.6388  0.7194  0.8280
   29MOL0     H 3876   6.385   1.048   6.441 -0.2484 -2.0460 -0.6458
   29MOL0     H 3877   6.189   1.265   6.121  0.1965 -0.0233 -1.8552
   29MOL0     H 3878   5.988   1.374   6.020 -0.5938 -0.3148 -0.7163
   29MOL0     H 3879   5.750   1.459   6.074  1.4732 -2.3035  1.4167
   29MOL0     H 3880   5.792   1.407   5.910 -2.4116  2.8443 -0.8308
   29MOL0     H 3881   5.554   1.484   5.906 -0.7598 -0.6275  1.0123
   29MOL0     H 3882   5.565   1.314   5.872 -3.6077 -0.5986  0.7349
   29MOL0     H 3883   5.508   1.268   6.108  0.0203 -1.3667  0.0881
   29MOL0     H 3884   5.494   1.449   6.137 -0.0874 -1.7042  1.1947
   29MOL0     H 3885   5.339   1.271   5.957  4.1161  0.0418  0.8531
   29MOL0     H 3886   5.321   1.451   5.945  2.1399  0.6966  0.4077
   29MOL0     H 3887   5.260   1.454   6.191  1.1505  0.4597 -0.6147
   29MOL0     H 3888   5.213   1.280   6.169 -0.3378 -0.5575 -0.2170
   29MOL0     H 3889   5.094   1.450   5.969  3.9343 -0.9397 -0.2925
   29MOL0     H 3890   5.064   1.298   6.029  0.9358  1.2297 -2.1650
   29MOL0     H 3891   5.051   1.497   6.253 -1.6278 -1.9032  1.8603
   29MOL0     H 3892   4.941   1.372   6.225  0.1113 -1.8218 -1.0640
   29MOL0     H 3893   4.946   1.651   6.112 -2.4555 -0.3119  3.1754
   29MOL0     H 3894   4.883   1.527   6.003 -0.7703 -1.5474  0.3680
   29MOL0     H 3895   5.749   1.068   6.215  0.8129 -3.0296  0.3542
   29MOL0     H 3896   5.943   0.971   6.328 -3.4792 -0.1040 -1.8059
   29MOL0     H 3897   6.482   0.864   6.071 -1.1711 -4.4261  0.9586
   29MOL0     H 3898   6.703   0.823   6.149 -1.8333 -1.3488  0.3049
   29MOL0     H 3899   8.735   0.605   5.838  2.9563  0.3213  3.3670
   29MOL0     H 3900   8.834   0.746   5.661 -0.9897 -0.4008 -0.3442
   29MOL0     H 3901   8.778   1.113   5.443 -0.7505 -1.7653 -0.4431
   29MOL0     H 3902   8.814   1.200   5.202  1.5402  0.5810 -2.4573
   29MOL0     H 3903   8.966   1.389   5.149 -0.5109 -0.4000 -0.4689
   29MOL0     H 3904   9.021   1.381   4.979  2.4409  1.8814  0.0412
   29MOL0     H 3905   9.206   1.350   5.198  0.6504  0.8282 -0.2138
   29MOL0     H 3906   9.188   1.503   5.117  3.8655 -0.3280 -2.6988
   29MOL0     H 3907   9.265   1.243   4.969 -1.2873  0.2406 -0.5088
   29MOL0     H 3908   9.378   1.364   5.039 -0.9444 -1.1450  2.4125
   29MOL0     H 3909   9.344   1.397   4.808 -0.5011 -0.4317 -3.0972
   29MOL0     H 3910   9.166   1.406   4.807 -0.6858  2.5351 -0.0476
   29MOL0     H 3911   9.240   1.798   4.878  0.7096  0.5272 -4.0817
   29MOL0     H 3912   9.206   1.032   5.204 -0.3631 -0.4562 -0.0950
   29MOL0     H 3913   9.190   0.805   5.443  1.3303 -0.5557  3.1864
   29MOL0     H 3914   9.306   0.929   5.380 -0.6712 -0.6713 -1.4651
   29MOL0     H 3915   9.248   0.939   5.534  1.5778  1.1102 -1.1663
   30MOL0     O 3916   7.763   7.941   2.068 -0.3167 -0.3871  0.8485
   30MOL0     C 3917   7.664   7.870   2.049  0.0679 -0.1687 -0.1184
   30MOL0     O 3918   7.648   7.751   2.116 -0.1722 -0.4220 -0.9148
   30MOL0     C 3919   7.758   7.683   2.163 -0.2693 -0.0179 -0.0205
   30MOL0     C 3920   7.802   7.574   2.098 -0.1838 -1.0980  1.0330
   30MOL0     C 3921   7.921   7.509   2.137 -0.6007  0.3789 -0.5205
   30MOL0     C 3922   7.995   7.563   2.247  0.3979  0.2831  0.0664
   30MOL0     O 3923   8.120   7.514   2.255 -0.2761  0.1864  0.1614
   30MOL0     C 3924   8.221   7.604   2.292 -0.9389  0.2499 -0.7988
   30MOL0     C 3925   8.249   7.589   2.441 -0.6152  0.4284  0.6821
   30MOL0     C 3926   8.331   7.696   2.498 -0.4413  0.0026 -0.2512
   30MOL0     C 3927   8.363   7.658   2.648 -0.3141 -0.0421  0.3203
   30MOL0     C 3928   8.447   7.765   2.715  0.2948 -0.0225  0.8182
   30MOL0     C 3929   8.570   7.813   2.629 -0.3263 -0.3798  0.3271
   30MOL0     C 3930   8.672   7.895   2.710 -0.1777  0.2073 -0.1240
   30MOL0     C 3931   8.770   7.957   2.614 -0.0418  0.0882  0.2427
   30MOL0     N 3932   8.890   8.008   2.674 -0.0756 -0.7586  0.8154
   30MOL0     C 3933   8.997   7.922   2.676  0.5555  0.2318  0.0711
   30MOL0     C 3934   9.093   7.993   2.729  0.2827  0.1294 -1.1840
   30MOL0     C 3935   9.237   7.939   2.746  0.0306 -0.0438  0.4514
   30MOL0     C 3936   9.331   8.020   2.657 -0.3375 -0.6053  0.5323
   30MOL0     C 3937   9.470   7.976   2.672 -1.2562  0.4698 -0.1289
   30MOL0     C 3938   9.546   8.009   2.793  0.7344  0.5513  0.1440
   30MOL0     O 3939   9.686   8.009   2.752  0.2228 -0.3423 -0.0983
   30MOL0     C 3940   9.794   8.038   2.832  0.9185 -0.5223  0.0619
   30MOL0     C 3941   9.923   8.011   2.788 -0.1609  0.5552  0.3803
   30MOL0     C 3942  10.034   8.044   2.864 -1.0866  0.5261  0.8880
   30MOL0     C 3943  10.025   8.105   2.984  0.0238 -0.8577 -0.3435
   30MOL0     C 3944  10.150   8.144   3.061  0.9562 -0.1788  0.1355
   30MOL0     O 3945  10.125   8.190   3.192 -0.2251  0.6171  0.0129
   30MOL0     C 3946  10.223   8.239   3.272  0.2243 -0.4088  0.8709
   30MOL0     C 3947  10.201   8.229   3.409  0.7426 -1.1303  0.0214
   30MOL0     C 3948  10.306   8.257   3.497  0.1006 -0.5611  0.2773
   30MOL0     C 3949  10.432   8.313   3.450 -0.0309  0.6123  0.1089
   30MOL0     O 3950  10.531   8.358   3.538 -0.4407  0.4565 -0.8511
   30MOL0     C 3951  10.665   8.363   3.501  0.8613 -0.1998 -0.6803
   30MOL0     C 3952  10.746   8.367   3.630 -0.7355 -0.1083  0.2010
   30MOL0     C 3953  10.890   8.347   3.586 -0.2501 -0.0702 -0.1952
   30MOL0     C 3954  10.985   8.407   3.692  0.7752  0.1477  0.3804
   30MOL0     C 3955  11.127   8.359   3.662 -0.2053  0.3853  0.5386
   30MOL0     C 3956  11.219   8.380   3.784  0.3716 -0.5707  0.2933
   30MOL0     C 3957  11.318   8.491   3.758 -0.5468  0.3361  0.4165
   30MOL0     C 3958  11.416   8.525   3.880  0.0978 -0.3068  0.2099
   30MOL0    Cl 3959  11.536   8.646   3.809  0.2512 -0.2159  0.4557
   30MOL0     C 3960  10.442   8.335   3.306  0.1473 -0.3294  0.2661
   30MOL0     C 3961  10.341   8.298   3.219  0.1602  0.4360 -0.4680
   30MOL0     O 3962  10.251   8.096   3.016 -0.1614  1.2388  0.5421
   30MOL0     C 3963   9.896   8.143   3.025 -0.1383 -0.4882 -0.4268
   30MOL0     C 3964   9.783   8.106   2.951 -0.5516 -0.0506  0.9608
   30MOL0     N 3965   9.040   8.117   2.775 -1.4139 -0.0820  0.0770
   30MOL0     N 3966   8.919   8.128   2.736  0.7822  0.3714 -0.1164
   30MOL0     C 3967   7.940   7.668   2.321  0.0192  0.8393 -0.3723
   30MOL0     C 3968   7.823   7.727   2.284  0.9365  0.7573 -0.0825
   30MOL0     C 3969   7.549   7.937   1.979  0.2458 -0.1584 -0.6827
   30MOL0     C 3970   7.423   7.918   2.036 -0.0304 -0.2014  0.2741
   30MOL0     C 3971   7.311   7.978   1.981 -0.1426 -0.3439  1.4464
   30MOL0     C 3972   7.321   8.036   1.853 -0.0947  0.0480  0.2175
   30MOL0     O 3973   7.211   8.078   1.783  0.4702 -0.2682  0.1299
   30MOL0     C 3974   7.079   8.069   1.846  0.4115  0.4583  0.1329
   30MOL0     C 3975   6.982   8.163   1.760  0.5365  0.2005  0.0012
   30MOL0     C 3976   6.829   8.141   1.799 -2.0695  0.2940  0.0252
   30MOL0     C 3977   6.734   8.211   1.704  0.3799  0.2481 -0.1448
   30MOL0     C 3978   6.599   8.220   1.762 -0.5467  0.5419 -0.2787
   30MOL0     C 3979   6.485   8.229   1.796  0.0576 -0.9192  0.2563
   30MOL0     C 3980   7.451   8.061   1.802  0.2216 -0.3742 -0.2253
   30MOL0     C 3981   7.556   8.018   1.863 -0.7596 -0.1515  1.2833
   30MOL0     C 3982   7.687   8.068   1.813  0.2696  0.2640  0.1572
   30MOL0     H 3983   7.749   7.545   2.007 -0.8558  0.1142  1.0257
   30MOL0     H 3984   7.964   7.425   2.086 -0.3577  0.1168  0.1062
   30MOL0     H 3985   8.309   7.574   2.234 -0.5774  0.6363 -0.4520
   30MOL0     H 3986   8.199   7.706   2.259 -2.6353 -0.2416 -1.3129
   30MOL0     H 3987   8.308   7.497   2.450 -2.0417 -0.5342  0.7231
   30MOL0     H 3988   8.156   7.580   2.498 -1.2115  1.2049 -0.1469
   30MOL0     H 3989   8.300   7.800   2.485 -0.7373  0.0854  1.0018
   30MOL0     H 3990   8.422   7.693   2.438 -1.6719  1.9330 -2.4089
   30MOL0     H 3991   8.261   7.659   2.687  0.1234  0.9255  1.5071
   30MOL0     H 3992   8.412   7.560   2.658 -1.0479 -0.4343  0.1499
   30MOL0     H 3993   8.387   7.856   2.727 -0.1228 -0.1721 -0.0753
   30MOL0     H 3994   8.473   7.735   2.817  1.9922 -1.2703  0.0532
   30MOL0     H 3995   8.632   7.735   2.585  1.8538  0.8799  1.0348
   30MOL0     H 3996   8.527   7.874   2.549 -0.0846  0.3157  0.7263
   30MOL0     H 3997   8.720   7.821   2.773 -1.6789 -2.2112 -1.6473
   30MOL0     H 3998   8.626   7.966   2.780 -2.0072 -0.6445 -0.4075
   30MOL0     H 3999   8.807   7.877   2.550 -0.1659  0.4937 -0.3540
   30MOL0     H 4000   8.720   8.029   2.548  1.3689  0.2300 -0.7161
   30MOL0     H 4001   9.005   7.830   2.620 -1.8284  0.2593 -0.4218
   30MOL0     H 4002   9.270   7.946   2.849 -0.8468 -0.9087  0.8158
   30MOL0     H 4003   9.246   7.837   2.707  0.4388  0.6463 -1.3788
   30MOL0     H 4004   9.298   7.994   2.556  2.1784 -0.2920 -0.4490
   30MOL0     H 4005   9.317   8.125   2.685  2.8750 -0.3774  1.6730
   30MOL0     H 4006   9.522   8.019   2.586  1.1396 -1.7134  0.1242
   30MOL0     H 4007   9.480   7.871   2.645 -2.3083  0.4078 -0.3236
   30MOL0     H 4008   9.529   7.931   2.868 -1.0902 -0.1725 -0.9475
   30MOL0     H 4009   9.531   8.114   2.819  0.0216  0.4117  0.3121
   30MOL0     H 4010   9.933   7.958   2.694 -0.4075  2.6870 -0.9211
   30MOL0     H 4011  10.131   8.014   2.827 -1.9253 -3.1132  1.2407
   30MOL0     H 4012  10.108   8.183   3.442 -1.5302  1.4996 -2.1829
   30MOL0     H 4013  10.285   8.243   3.603  0.9943  1.4203  0.7407
   30MOL0     H 4014  10.692   8.275   3.441  2.4337 -1.3234  1.5385
   30MOL0     H 4015  10.678   8.453   3.439  0.1567  0.9831  0.8315
   30MOL0     H 4016  10.737   8.468   3.672  0.2804  1.4301 -2.9439
   30MOL0     H 4017  10.736   8.290   3.707  1.8036 -0.4119  0.3357
   30MOL0     H 4018  10.896   8.240   3.566 -0.5030 -0.1675  0.2426
   30MOL0     H 4019  10.906   8.402   3.492 -0.1420 -2.4053 -1.6366
   30MOL0     H 4020  10.960   8.383   3.796 -0.1655 -1.4239 -0.1613
   30MOL0     H 4021  10.970   8.515   3.684  0.1815 -0.0349 -1.6194
   30MOL0     H 4022  11.164   8.409   3.572  1.3730 -0.5834  0.6026
   30MOL0     H 4023  11.137   8.252   3.641 -2.3452  0.3340 -0.4491
   30MOL0     H 4024  11.168   8.393   3.880  3.2920 -0.6819  1.9781
   30MOL0     H 4025  11.276   8.287   3.798 -0.8449 -1.0264  2.7108
   30MOL0     H 4026  11.263   8.582   3.730 -0.0811  0.5187  0.0849
   30MOL0     H 4027  11.383   8.452   3.680  1.8162 -2.0206  3.3407
   30MOL0     H 4028  11.359   8.571   3.961  1.0420 -0.0865  0.7564
   30MOL0     H 4029  11.475   8.441   3.918 -1.3744 -2.0634 -1.1694
   30MOL0     H 4030  10.523   8.391   3.261 -0.9331  0.7727 -0.4032
   30MOL0     H 4031  10.358   8.314   3.113  4.5495  1.9463  0.2651
   30MOL0     H 4032   9.878   8.188   3.121 -3.0384  0.3123 -1.2552
   30MOL0     H 4033   9.686   8.128   2.995  0.6154  1.8924  2.7515
   30MOL0     H 4034   7.990   7.723   2.401 -1.2002  1.3187  0.1039
   30MOL0     H 4035   7.787   7.806   2.349 -3.2204 -1.5733  0.7699
   30MOL0     H 4036   7.400   7.869   2.130 -4.4703 -1.5207 -1.2822
   30MOL0     H 4037   7.218   7.968   2.036 -0.9609 -1.1596  0.0040
   30MOL0     H 4038   7.079   8.109   1.947 -1.5409 -1.7506  1.1077
   30MOL0     H 4039   7.043   7.967   1.862 -0.3505  0.3979 -1.7396
   30MOL0     H 4040   6.991   8.128   1.656 -1.9288 -2.4838  0.5632
   30MOL0     H 4041   7.015   8.267   1.766  3.4678 -0.7162  3.7376
   30MOL0     H 4042   6.809   8.178   1.900  0.5111 -2.6450  1.8043
   30MOL0     H 4043   6.805   8.034   1.808  2.4756 -0.9216  0.1773
   30MOL0     H 4044   6.771   8.308   1.668  0.1085  0.5187  0.2917
   30MOL0     H 4045   6.727   8.150   1.613  0.4812  1.9890 -1.3647
   30MOL0     H 4046   6.382   8.233   1.827  0.9002 -0.2833  3.2999
   30MOL0     H 4047   7.474   8.112   1.709 -0.3316  1.6187  0.6740
   30MOL0     H 4048   7.744   8.111   1.896  0.8842  0.5293 -0.3834
   30MOL0     H 4049   7.760   8.001   1.766 -1.0270  1.2877 -3.7294
   30MOL0     H 4050   7.677   8.150   1.741 -1.8864  0.1467  0.2828
   31MOL0     O 4051   8.043   4.167   2.734  0.1149  0.1864 -0.2916
   31MOL0     C 4052   8.009   4.115   2.845  0.0578 -0.2086  0.5028
   31MOL0     O 4053   8.099   4.041   2.918 -0.1988 -0.8205  0.8930
   31MOL0     C 4054   8.228   4.018   2.867  0.5837 -0.2277  0.5104
   31MOL0     C 4055   8.317   4.082   2.934 -0.2002  0.1023 -0.2897
   31MOL0     C 4056   8.456   4.050   2.926  0.2570 -0.3291 -0.6717
   31MOL0     C 4057   8.500   3.958   2.829  0.3377 -0.2845  0.0091
   31MOL0     O 4058   8.635   3.951   2.809 -0.7461 -0.3020  0.0787
   31MOL0     C 4059   8.691   3.904   2.690  0.3345  0.4279  0.5915
   31MOL0     C 4060   8.819   3.984   2.671  0.4434 -0.7870  0.1893
   31MOL0     C 4061   8.943   3.924   2.733  0.5086 -1.0310 -0.3058
   31MOL0     C 4062   9.078   4.001   2.711  0.2955 -0.9933  0.4998
   31MOL0     C 4063   9.191   3.937   2.780 -0.8235  0.0595 -0.1562
   31MOL0     C 4064   9.332   3.999   2.752 -0.4237 -0.2261  0.5320
   31MOL0     C 4065   9.342   4.134   2.828 -0.8476  0.7945 -0.0434
   31MOL0     C 4066   9.459   4.214   2.786  0.3699 -0.4386 -0.1950
   31MOL0     N 4067   9.600   4.160   2.800 -0.9657 -0.0542  0.1946
   31MOL0     C 4068   9.707   4.185   2.719  1.4690 -0.5851 -0.2900
   31MOL0     C 4069   9.816   4.131   2.778  0.5859 -0.7994 -0.6658
   31MOL0     C 4070   9.952   4.156   2.708 -0.5186  0.2834 -0.2572
   31MOL0     C 4071  10.076   4.123   2.791  0.0291  0.2190 -0.0049
   31MOL0     C 4072  10.135   4.000   2.745  0.0390  0.0906 -0.4042
   31MOL0     C 4073  10.257   3.964   2.823  0.3847  0.0791  0.1884
   31MOL0     O 4074  10.376   4.017   2.759 -0.0893  0.0399  0.5021
   31MOL0     C 4075  10.498   3.996   2.819  0.2035  0.5473  0.6603
   31MOL0     C 4076  10.519   3.912   2.931  0.1050 -0.4209 -0.1358
   31MOL0     C 4077  10.637   3.863   2.964 -0.2965 -0.3501 -0.1274
   31MOL0     C 4078  10.749   3.888   2.888  0.6737 -0.1231  0.5979
   31MOL0     C 4079  10.883   3.842   2.922  0.5174  1.2789  0.4508
   31MOL0     O 4080  10.890   3.765   3.043  1.0729 -0.6235  0.1751
   31MOL0     C 4081  11.003   3.718   3.103  0.5730 -0.6636 -0.1501
   31MOL0     C 4082  11.122   3.679   3.037  0.0912  0.5023 -0.9611
   31MOL0     C 4083  11.224   3.618   3.114 -1.3111 -0.1443  0.4421
   31MOL0     C 4084  11.213   3.598   3.256 -0.0105  0.5446  0.5837
   31MOL0     O 4085  11.304   3.523   3.322 -0.0394 -0.7902  0.0605
   31MOL0     C 4086  11.419   3.468   3.250 -0.6398  0.4898 -0.4253
   31MOL0     C 4087  11.516   3.408   3.351 -0.9706 -0.2768 -0.6181
   31MOL0     C 4088  11.569   3.512   3.446  0.3612 -0.9306 -0.5989
   31MOL0     C 4089  11.658   3.455   3.553  0.1336  0.2447  0.1374
   31MOL0     C 4090  11.790   3.416   3.488  0.2374  0.1762 -0.2736
   31MOL0     C 4091  11.894   3.370   3.583 -0.4126  0.7576  1.2850
   31MOL0     C 4092  12.035   3.412   3.538  0.3298 -0.0033 -0.0564
   31MOL0     C 4093  12.149   3.340   3.611  0.6401 -0.1830  0.1029
   31MOL0    Cl 4094  12.153   3.174   3.548  0.2689  0.3542 -0.1705
   31MOL0     C 4095  11.092   3.629   3.320 -0.2369  0.0356 -0.1778
   31MOL0     C 4096  10.992   3.688   3.243 -0.5673 -0.1486 -0.0371
   31MOL0     O 4097  10.976   3.865   2.844 -0.1937  0.3319  0.1849
   31MOL0     C 4098  10.731   3.984   2.781 -0.8872  0.6441  0.8283
   31MOL0     C 4099  10.609   4.040   2.757 -0.4250 -0.3876  0.1199
   31MOL0     N 4100   9.781   4.090   2.901  1.0011  1.0171  0.6421
   31MOL0     N 4101   9.650   4.109   2.913  0.0710  0.2763 -0.8584
   31MOL0     C 4102   8.399   3.888   2.752 -0.0586  0.2095 -0.0369
   31MOL0     C 4103   8.265   3.912   2.778  0.6435 -0.4754 -0.0130
   31MOL0     C 4104   7.874   4.139   2.890 -0.0763  0.3395  0.5901
   31MOL0     C 4105   7.802   4.235   2.826  0.0989 -0.3676  0.0311
   31MOL0     C 4106   7.676   4.267   2.871  0.4033 -0.5824 -0.8652
   31MOL0     C 4107   7.619   4.211   2.988 -1.1315 -0.2351  0.0375
   31MOL0     O 4108   7.484   4.236   3.013  0.2313  0.2756  0.3669
   31MOL0     C 4109   7.432   4.165   3.129  0.5196 -0.4045  0.7151
   31MOL0     C 4110   7.368   4.030   3.076  0.3467 -0.2722  0.2044
   31MOL0     C 4111   7.278   3.975   3.182  0.3313 -0.2755 -0.0034
   31MOL0     C 4112   7.241   3.832   3.152  0.1892  0.0180  0.8974
   31MOL0     C 4113   7.116   3.788   3.219 -0.3711  0.4061  0.5197
   31MOL0     C 4114   7.008   3.755   3.273 -0.3235 -0.2693  0.1692
   31MOL0     C 4115   7.698   4.120   3.052 -0.4046 -0.0942  0.3141
   31MOL0     C 4116   7.818   4.079   3.004  0.3300  0.7500 -0.7821
   31MOL0     C 4117   7.885   3.971   3.085  0.1426  0.6009  0.0403
   31MOL0     H 4118   8.279   4.161   2.997 -1.5158  2.0921 -3.3658
   31MOL0     H 4119   8.533   4.107   2.977  0.0801  0.0938 -0.8750
   31MOL0     H 4120   8.704   3.795   2.695  0.6056  0.4648  0.7015
   31MOL0     H 4121   8.626   3.928   2.605  0.1567 -0.9553  0.3016
   31MOL0     H 4122   8.802   4.088   2.702 -1.8795 -1.8173  2.8349
   31MOL0     H 4123   8.839   3.984   2.564  1.0368  1.0514  0.2659
   31MOL0     H 4124   8.951   3.824   2.690  2.9570 -0.4254 -1.4433
   31MOL0     H 4125   8.928   3.918   2.841  1.9203 -4.1942 -0.1911
   31MOL0     H 4126   9.092   3.995   2.603  0.8361 -0.9008  0.5658
   31MOL0     H 4127   9.066   4.107   2.737 -1.0782 -0.9546 -0.1680
   31MOL0     H 4128   9.178   3.936   2.888 -0.8971  1.9147 -0.1275
   31MOL0     H 4129   9.200   3.834   2.743 -3.1461 -0.0504 -0.5320
   31MOL0     H 4130   9.396   3.930   2.809 -3.0008 -1.6661  1.8453
   31MOL0     H 4131   9.353   4.015   2.646  3.3243 -1.9840  0.8175
   31MOL0     H 4132   9.345   4.118   2.936  0.1625  0.2635 -0.1358
   31MOL0     H 4133   9.251   4.195   2.817 -0.4393  1.5181  0.4713
   31MOL0     H 4134   9.454   4.263   2.688 -1.6433  1.3754  0.7232
   31MOL0     H 4135   9.442   4.298   2.853 -5.1413  1.2871 -3.1521
   31MOL0     H 4136   9.697   4.226   2.619 -0.2639  1.9225  0.8061
   31MOL0     H 4137   9.946   4.101   2.613  0.6157  1.7153 -1.1975
   31MOL0     H 4138   9.977   4.255   2.669  1.4244 -0.2010 -0.3538
   31MOL0     H 4139  10.148   4.204   2.779  1.5856 -1.1047  0.0371
   31MOL0     H 4140  10.052   4.116   2.897 -0.4344  1.7470  0.0160
   31MOL0     H 4141  10.152   4.003   2.637  0.6418  1.2446 -0.2936
   31MOL0     H 4142  10.070   3.913   2.762 -0.7485  1.0178  1.6313
   31MOL0     H 4143  10.271   3.856   2.809  0.3639  0.2353 -1.1408
   31MOL0     H 4144  10.258   4.007   2.924 -0.2726  1.1570 -0.2585
   31MOL0     H 4145  10.442   3.866   2.992  0.0119  1.1927  1.0282
   31MOL0     H 4146  10.639   3.794   3.048 -2.1995 -0.3956 -0.0779
   31MOL0     H 4147  11.144   3.718   2.937 -0.0132  1.1266 -0.7482
   31MOL0     H 4148  11.316   3.602   3.058 -2.3762  1.7479 -2.0496
   31MOL0     H 4149  11.384   3.390   3.181 -0.6553  1.7412 -1.8866
   31MOL0     H 4150  11.469   3.541   3.186 -1.2833  1.5140  0.2184
   31MOL0     H 4151  11.471   3.327   3.409  0.7368  1.1730  3.0070
   31MOL0     H 4152  11.593   3.354   3.296 -1.6837  0.5217 -2.5033
   31MOL0     H 4153  11.619   3.591   3.389  1.7735 -1.7382 -0.5229
   31MOL0     H 4154  11.491   3.566   3.500  0.4739 -0.4205 -0.9411
   31MOL0     H 4155  11.610   3.366   3.594 -0.0164  0.1068 -0.3280
   31MOL0     H 4156  11.685   3.509   3.644  4.8963 -0.2094 -0.7374
   31MOL0     H 4157  11.827   3.507   3.439  0.6459  1.0161  1.5190
   31MOL0     H 4158  11.772   3.338   3.413 -2.5035  0.9053 -0.4719
   31MOL0     H 4159  11.881   3.408   3.685  2.9712 -0.6701  2.4138
   31MOL0     H 4160  11.881   3.262   3.598  0.9500  0.3352 -0.2434
   31MOL0     H 4161  12.035   3.516   3.570 -0.1248 -0.4087  1.3175
   31MOL0     H 4162  12.057   3.386   3.434 -1.3424 -5.8083  0.6698
   31MOL0     H 4163  12.240   3.398   3.595 -0.8376  2.0152 -0.6664
   31MOL0     H 4164  12.130   3.338   3.719 -0.2623 -0.7547 -0.0532
   31MOL0     H 4165  11.072   3.590   3.419  0.0077  1.4692  0.4602
   31MOL0     H 4166  10.893   3.688   3.287 -0.3256  0.6092  0.5207
   31MOL0     H 4167  10.820   4.015   2.727 -0.7614 -0.5582  0.3211
   31MOL0     H 4168  10.593   4.116   2.682  0.3288 -3.0523 -2.9499
   31MOL0     H 4169   8.435   3.820   2.676 -1.4380  0.3177 -0.8230
   31MOL0     H 4170   8.189   3.857   2.724 -0.1896  0.9637 -0.3889
   31MOL0     H 4171   7.836   4.298   2.745 -1.7976  1.1554  0.3485
   31MOL0     H 4172   7.601   4.322   2.815  0.7039  0.4043 -0.3118
   31MOL0     H 4173   7.346   4.224   3.161 -0.0467 -0.3731 -0.8074
   31MOL0     H 4174   7.498   4.139   3.212  0.3222 -2.7922  0.1936
   31MOL0     H 4175   7.448   3.957   3.061  0.0525 -1.1465  2.5196
   31MOL0     H 4176   7.305   4.047   2.988 -2.1114  1.5708  2.1547
   31MOL0     H 4177   7.182   4.028   3.179 -0.1990 -1.2510 -1.5001
   31MOL0     H 4178   7.319   3.980   3.283  0.0295  1.1948  0.0716
   31MOL0     H 4179   7.223   3.811   3.046  3.8128  0.2314  0.1166
   31MOL0     H 4180   7.324   3.764   3.173 -0.3207 -0.4746  1.3742
   31MOL0     H 4181   6.921   3.726   3.327  1.0562 -0.4823  2.3872
   31MOL0     H 4182   7.664   4.061   3.137 -2.6001  0.4483 -0.1326
   31MOL0     H 4183   7.816   3.919   3.152  0.3548  1.4105  0.9142
   31MOL0     H 4184   7.907   3.893   3.012 -0.6351  0.6408 -0.2399
   31MOL0     H 4185   7.979   4.004   3.130  2.0033 -0.8338 -2.6018
   32MOL0     O 4186   1.854   7.005   6.341  0.0140 -0.2564 -0.1877
   32MOL0     C 4187   1.776   6.940   6.275  0.7504  0.2194 -0.0333
   32MOL0     O 4188   1.813   6.847   6.178 -0.0643  0.2076 -0.1046
   32MOL0     C 4189   1.948   6.838   6.154  0.1850 -0.2007  0.5040
   32MOL0     C 4190   1.988   6.824   6.018 -0.1647 -0.0019  0.0262
   32MOL0     C 4191   2.119   6.811   5.983 -0.0471 -0.1525 -0.5796
   32MOL0     C 4192   2.224   6.801   6.081  0.3237 -0.3953  0.2269
   32MOL0     O 4193   2.347   6.785   6.027  0.2763 -0.4402 -0.2391
   32MOL0     C 4194   2.450   6.738   6.113 -0.4030  0.2405  1.2371
   32MOL0     C 4195   2.577   6.702   6.027 -0.4870  0.1888  0.6988
   32MOL0     C 4196   2.667   6.592   6.085  0.2756  0.4599 -0.1584
   32MOL0     C 4197   2.778   6.570   5.982  1.1100 -0.2884 -0.5870
   32MOL0     C 4198   2.891   6.482   6.043 -0.6013 -0.1050 -0.3150
   32MOL0     C 4199   2.865   6.342   6.101 -0.6007  0.4644 -0.3596
   32MOL0     C 4200   2.994   6.275   6.125  0.9559 -0.5374 -0.2652
   32MOL0     C 4201   3.073   6.232   6.000  0.2025 -0.1245 -0.1688
   32MOL0     N 4202   3.180   6.144   6.038 -0.0044  0.0354 -0.1103
   32MOL0     C 4203   3.218   6.023   5.983  0.1033 -0.2337  0.0079
   32MOL0     C 4204   3.333   5.984   6.044  0.0257  0.6851  0.3358
   32MOL0     C 4205   3.394   5.850   6.007  0.0783 -0.0496 -0.4904
   32MOL0     C 4206   3.465   5.779   6.121  0.0977  0.0493 -0.2195
   32MOL0     C 4207   3.519   5.646   6.077  0.0901 -0.3143 -0.2269
   32MOL0     C 4208   3.652   5.661   5.997  0.6349  0.6212  0.0501
   32MOL0     O 4209   3.749   5.561   6.042 -0.5328  0.3148 -0.1780
   32MOL0     C 4210   3.860   5.600   6.114 -0.1937 -0.9770  0.4026
   32MOL0     C 4211   3.861   5.720   6.189  0.0253  0.0611  0.0963
   32MOL0     C 4212   3.981   5.768   6.249 -0.2489  0.0745  0.1688
   32MOL0     C 4213   4.104   5.695   6.236  0.2635  0.2966  0.3303
   32MOL0     C 4214   4.226   5.743   6.286  0.2323 -0.2316 -0.2205
   32MOL0     O 4215   4.340   5.680   6.228  0.6119 -0.1054  0.2632
   32MOL0     C 4216   4.464   5.722   6.259 -0.2047 -0.0356 -0.6160
   32MOL0     C 4217   4.559   5.707   6.157  0.1049  0.5506  0.3135
   32MOL0     C 4218   4.692   5.758   6.173  0.4834  0.0261 -0.2177
   32MOL0     C 4219   4.739   5.801   6.293 -1.1298  0.5052 -0.2297
   32MOL0     O 4220   4.870   5.824   6.313 -0.5572 -0.2625 -0.0476
   32MOL0     C 4221   4.938   5.775   6.429  0.2871 -0.7265 -0.2417
   32MOL0     C 4222   5.085   5.810   6.429 -0.3127 -0.3584  0.4114
   32MOL0     C 4223   5.155   5.754   6.303 -0.3091 -0.9680 -0.5111
   32MOL0     C 4224   5.299   5.808   6.290 -0.4916  0.1574  0.0596
   32MOL0     C 4225   5.372   5.745   6.163 -0.0301  0.0672 -0.7545
   32MOL0     C 4226   5.515   5.813   6.167  0.1266 -0.2840  0.1743
   32MOL0     C 4227   5.599   5.809   6.038 -0.1215 -1.1040  0.3450
   32MOL0     C 4228   5.743   5.858   6.058 -0.1226 -0.8303 -0.1936
   32MOL0    Cl 4229   5.838   5.726   6.132 -0.1628 -0.0912  0.7211
   32MOL0     C 4230   4.648   5.817   6.399  0.1162 -0.1152  0.0675
   32MOL0     C 4231   4.506   5.778   6.380 -0.3416 -0.2144 -0.7227
   32MOL0     O 4232   4.224   5.836   6.371 -0.3255  0.2094  0.1268
   32MOL0     C 4233   4.093   5.570   6.168  0.0858 -0.4776  0.2939
   32MOL0     C 4234   3.978   5.528   6.110  0.4396 -0.2169  0.1169
   32MOL0     N 4235   3.357   6.076   6.145 -0.0964 -0.1634 -0.2666
   32MOL0     N 4236   3.270   6.172   6.132 -0.2647 -0.5493 -0.4026
   32MOL0     C 4237   2.186   6.800   6.214  0.2777 -0.5905  0.0708
   32MOL0     C 4238   2.056   6.807   6.245 -0.3377 -0.4030  0.3444
   32MOL0     C 4239   1.634   6.952   6.325  0.2731 -0.5839 -0.3704
   32MOL0     C 4240   1.606   7.002   6.455 -0.0625 -0.1800  0.1175
   32MOL0     C 4241   1.468   7.032   6.493 -1.3415  0.4370 -0.1511
   32MOL0     C 4242   1.365   7.000   6.414  0.0355 -0.3469  0.7639
   32MOL0     O 4243   1.250   7.032   6.473  0.1054 -0.4843  0.1710
   32MOL0     C 4244   1.125   7.005   6.406  0.2867  0.4458  0.4350
   32MOL0     C 4245   0.999   7.046   6.492  0.1432 -1.2917 -0.3983
   32MOL0     C 4246   1.005   7.197   6.538  0.5296  1.3726 -0.4313
   32MOL0     C 4247   0.898   7.205   6.659 -0.1934 -1.1138  0.4607
   32MOL0     C 4248   0.870   7.350   6.679 -0.0835  0.3554 -0.4117
   32MOL0     C 4249   0.854   7.467   6.676 -0.1794 -0.3227 -0.5382
   32MOL0     C 4250   1.387   6.941   6.291  0.3609 -0.5118 -0.1087
   32MOL0     C 4251   1.519   6.912   6.252 -0.8775  0.6848  0.1743
   32MOL0     C 4252   1.535   6.844   6.121  1.4803  0.0214  0.3974
   32MOL0     H 4253   1.909   6.823   5.943  1.1118  0.7918 -1.3759
   32MOL0     H 4254   2.145   6.799   5.878 -0.1670 -1.4255 -0.4793
   32MOL0     H 4255   2.482   6.814   6.185  0.4258 -0.5714  1.7630
   32MOL0     H 4256   2.420   6.645   6.162  0.9738 -0.5602  0.6376
   32MOL0     H 4257   2.638   6.793   6.033  0.9946 -0.7745  0.6629
   32MOL0     H 4258   2.559   6.687   5.920  1.2896  1.5974  0.1457
   32MOL0     H 4259   2.615   6.498   6.105 -0.8769  1.2529  0.6568
   32MOL0     H 4260   2.703   6.628   6.181 -0.8746  0.5550  0.2453
   32MOL0     H 4261   2.745   6.531   5.886  4.4222 -0.7025 -1.6708
   32MOL0     H 4262   2.827   6.668   5.976 -0.1157  0.2641 -2.2950
   32MOL0     H 4263   2.950   6.465   5.952 -0.9299  1.0201 -0.7505
   32MOL0     H 4264   2.925   6.548   6.123 -0.9109 -1.0939  0.6545
   32MOL0     H 4265   2.815   6.348   6.198 -0.8770 -1.6260 -0.3209
   32MOL0     H 4266   2.803   6.282   6.033 -1.6766 -0.3585  1.2885
   32MOL0     H 4267   2.987   6.191   6.195  1.0978  0.9437  1.5880
   32MOL0     H 4268   3.053   6.352   6.175  2.4972  0.4470 -3.3613
   32MOL0     H 4269   3.012   6.180   5.926  0.9922 -1.2069 -0.0746
   32MOL0     H 4270   3.108   6.317   5.941  0.7315 -1.0498 -1.2161
   32MOL0     H 4271   3.171   5.967   5.902  0.1117 -0.0544 -0.1223
   32MOL0     H 4272   3.321   5.792   5.951  2.4047 -1.1499 -2.5900
   32MOL0     H 4273   3.473   5.855   5.931 -0.6799 -1.9201 -1.4826
   32MOL0     H 4274   3.547   5.847   6.145 -0.1087  1.0490 -2.1782
   32MOL0     H 4275   3.393   5.768   6.202 -0.7208 -1.1471 -1.0720
   32MOL0     H 4276   3.445   5.594   6.015 -1.9593  2.1151  0.0442
   32MOL0     H 4277   3.551   5.574   6.153 -0.2179 -2.5033 -2.0287
   32MOL0     H 4278   3.689   5.762   5.980 -0.1039  0.9556  0.4178
   32MOL0     H 4279   3.623   5.638   5.894 -0.8185 -3.1665  1.1205
   32MOL0     H 4280   3.766   5.772   6.201  0.0690 -0.1565  1.5177
   32MOL0     H 4281   3.986   5.857   6.311  3.7250 -0.2419  0.5948
   32MOL0     H 4282   4.524   5.653   6.070 -0.3731  0.9808  0.2374
   32MOL0     H 4283   4.752   5.762   6.082  0.5316  2.0599 -0.1488
   32MOL0     H 4284   4.890   5.814   6.519 -3.2017  1.8414 -2.9709
   32MOL0     H 4285   4.938   5.665   6.432  0.4939 -0.7132  0.5431
   32MOL0     H 4286   5.080   5.919   6.434 -3.4470 -0.4467  1.3676
   32MOL0     H 4287   5.139   5.779   6.519  0.7206 -0.4530 -0.2288
   32MOL0     H 4288   5.148   5.645   6.302 -4.3443 -0.8332 -0.9560
   32MOL0     H 4289   5.097   5.791   6.218 -0.5737  1.3579  0.5915
   32MOL0     H 4290   5.352   5.773   6.380  2.3776  0.6108 -1.3433
   32MOL0     H 4291   5.296   5.917   6.285 -2.3401  0.2321  1.4998
   32MOL0     H 4292   5.319   5.774   6.072 -1.6375  1.6204  0.5910
   32MOL0     H 4293   5.383   5.637   6.170  0.4090  0.1730  0.7641
   32MOL0     H 4294   5.496   5.920   6.182 -3.9321 -0.9847  1.1028
   32MOL0     H 4295   5.579   5.784   6.251  0.8128 -1.1692 -0.6291
   32MOL0     H 4296   5.549   5.879   5.971  1.2338  0.3256  0.7481
   32MOL0     H 4297   5.605   5.707   6.000 -0.9562 -0.7675 -0.7300
   32MOL0     H 4298   5.788   5.879   5.960 -2.7605 -1.4914 -1.6718
   32MOL0     H 4299   5.729   5.953   6.110  1.4449  0.2362 -1.5864
   32MOL0     H 4300   4.694   5.849   6.492  2.1044  0.3280 -0.9958
   32MOL0     H 4301   4.424   5.783   6.451 -0.4311  2.2943 -0.9081
   32MOL0     H 4302   4.179   5.507   6.147  0.9563  1.0802 -0.9702
   32MOL0     H 4303   3.982   5.440   6.046 -1.2191 -0.3418  0.1438
   32MOL0     H 4304   2.265   6.787   6.287 -0.0352  0.1322  0.5482
   32MOL0     H 4305   2.030   6.805   6.351 -0.0261 -4.7794  0.4979
   32MOL0     H 4306   1.690   7.012   6.523 -0.0572 -3.1735  0.7063
   32MOL0     H 4307   1.441   7.064   6.593 -1.5451 -0.6197  0.1439
   32MOL0     H 4308   1.112   6.896   6.404  0.7126  0.3979  0.0306
   32MOL0     H 4309   1.124   7.036   6.301  1.0780 -0.3760  0.1762
   32MOL0     H 4310   0.980   6.986   6.581  1.4902 -1.0048  0.1024
   32MOL0     H 4311   0.912   7.033   6.427  1.7615  2.5568 -3.7546
   32MOL0     H 4312   0.977   7.257   6.451 -2.6771 -0.6999 -0.9815
   32MOL0     H 4313   1.106   7.223   6.573  0.0993  3.0715 -0.3342
   32MOL0     H 4314   0.808   7.146   6.640 -0.8561  0.2261 -0.7876
   32MOL0     H 4315   0.944   7.163   6.749 -4.7209 -0.8692  3.2067
   32MOL0     H 4316   0.828   7.571   6.665  2.1306  0.1565 -2.6465
   32MOL0     H 4317   1.301   6.916   6.229 -0.9782 -0.4030  1.6239
   32MOL0     H 4318   1.575   6.746   6.149  1.5702 -0.0260  0.1061
   32MOL0     H 4319   1.435   6.832   6.078  1.4245 -3.0232  1.0979
   32MOL0     H 4320   1.611   6.886   6.055  1.7231 -0.5487  0.3095
   33MOL0     O 4321   4.403  10.016   0.923  0.1055  0.0031 -0.3409
   33MOL0     C 4322   4.395  10.110   0.846 -0.1402 -0.2587 -0.9420
   33MOL0     O 4323   4.507  10.163   0.775 -0.0236  0.4918 -0.1352
   33MOL0     C 4324   4.612  10.075   0.737  1.7163 -1.0601 -1.0969
   33MOL0     C 4325   4.738  10.126   0.714  0.0888  0.0683 -0.1350
   33MOL0     C 4326   4.841  10.045   0.660  1.0763  0.1521 -0.2473
   33MOL0     C 4327   4.810   9.911   0.620  0.0438  0.8941  0.2216
   33MOL0     O 4328   4.903   9.826   0.563 -0.2384 -0.5192  0.0160
   33MOL0     C 4329   5.036   9.806   0.620 -0.9605  0.4353 -0.1377
   33MOL0     C 4330   5.013   9.759   0.764 -0.5929  0.9297  0.1403
   33MOL0     C 4331   5.149   9.723   0.832  0.1258  0.1810 -0.1740
   33MOL0     C 4332   5.121   9.633   0.948 -0.7680  0.5174  0.2236
   33MOL0     C 4333   5.251   9.580   1.005  0.1955  0.6321  0.1534
   33MOL0     C 4334   5.338   9.479   0.926  0.5192  0.5331  0.1495
   33MOL0     C 4335   5.429   9.392   1.019  0.7634  0.4290 -0.4180
   33MOL0     C 4336   5.500   9.273   0.952  0.3604 -0.6553  0.8156
   33MOL0     N 4337   5.604   9.303   0.860 -0.2798  0.0981  0.4159
   33MOL0     C 4338   5.591   9.327   0.724 -0.3004 -1.1771 -0.0239
   33MOL0     C 4339   5.720   9.344   0.677 -0.8120  0.9672 -0.0792
   33MOL0     C 4340   5.769   9.390   0.542  0.4475 -0.1054 -0.4126
   33MOL0     C 4341   5.742   9.542   0.511 -0.0737 -0.3444  0.2436
   33MOL0     C 4342   5.828   9.577   0.390 -0.3883 -1.9380 -0.4420
   33MOL0     C 4343   5.806   9.723   0.346 -0.6084  0.0298  0.2988
   33MOL0     O 4344   5.832   9.812   0.458  0.6088  0.0306 -0.6345
   33MOL0     C 4345   5.956   9.863   0.484 -0.3758 -0.3693  0.7563
   33MOL0     C 4346   5.968   9.975   0.565  0.0601  0.0617 -0.3931
   33MOL0     C 4347   6.089  10.050   0.586  0.2180  0.4099  0.0813
   33MOL0     C 4348   6.203  10.012   0.518 -0.5605 -0.2355  0.6508
   33MOL0     C 4349   6.333  10.078   0.548 -0.7713  0.1084 -0.1550
   33MOL0     O 4350   6.442  10.044   0.469  0.1700  0.8739  0.2059
   33MOL0     C 4351   6.562  10.094   0.510  1.5879 -0.1997  0.3383
   33MOL0     C 4352   6.598  10.230   0.499  0.1430  0.6591  0.2161
   33MOL0     C 4353   6.722  10.278   0.543 -0.1535  0.4155 -0.3420
   33MOL0     C 4354   6.813  10.181   0.610  0.8173  0.1633  0.3536
   33MOL0     O 4355   6.942  10.222   0.628  0.1699  0.3331  1.0681
   33MOL0     C 4356   7.046  10.130   0.662  0.7428 -0.5736  0.2794
   33MOL0     C 4357   7.181  10.201   0.687 -0.1598  0.1608 -0.2763
   33MOL0     C 4358   7.289  10.115   0.753 -0.3136 -0.1293 -0.0719
   33MOL0     C 4359   7.393  10.206   0.830  0.1009  0.0804  0.4267
   33MOL0     C 4360   7.506  10.126   0.898 -1.4211  0.0142 -0.9861
   33MOL0     C 4361   7.613  10.220   0.951 -0.2288  0.0284 -0.7185
   33MOL0     C 4362   7.721  10.125   1.024  0.3039 -0.4339  0.5614
   33MOL0     C 4363   7.828  10.201   1.100 -0.7658  0.2812  0.7057
   33MOL0    Cl 4364   7.945  10.311   0.998 -0.2211 -0.2244 -0.2906
   33MOL0     C 4365   6.772  10.047   0.620  0.4857 -0.9888  0.1744
   33MOL0     C 4366   6.640  10.000   0.572 -1.3799  0.1064  0.1694
   33MOL0     O 4367   6.334  10.156   0.645 -0.2804 -0.4805  0.7325
   33MOL0     C 4368   6.197   9.901   0.431 -0.4764  0.1993 -0.8275
   33MOL0     C 4369   6.080   9.829   0.413  1.0289 -0.0553  0.1573
   33MOL0     N 4370   5.800   9.308   0.783 -0.1635  1.4600  0.0235
   33MOL0     N 4371   5.737   9.286   0.895 -0.3538 -0.2357  0.5713
   33MOL0     C 4372   4.678   9.868   0.637 -0.2282  0.1466  0.4018
   33MOL0     C 4373   4.582   9.945   0.706 -0.7246  0.5417  0.0714
   33MOL0     C 4374   4.268  10.179   0.821  0.0376 -0.0502 -0.1911
   33MOL0     C 4375   4.247  10.235   0.700 -0.3100  0.3029 -0.5735
   33MOL0     C 4376   4.133  10.311   0.670 -0.0089 -0.4445  0.6708
   33MOL0     C 4377   4.041  10.341   0.766  0.0313 -0.4559  0.3970
   33MOL0     O 4378   3.923  10.401   0.727  0.1437 -0.4316 -0.2737
   33MOL0     C 4379   3.904  10.540   0.770  0.0731  0.8013 -0.3291
   33MOL0     C 4380   3.819  10.540   0.895 -0.0064 -0.4876  0.0516
   33MOL0     C 4381   3.692  10.458   0.877  0.6294  0.9126  0.5406
   33MOL0     C 4382   3.591  10.501   0.984  0.8004 -0.6697 -0.7188
   33MOL0     C 4383   3.477  10.402   0.980  0.1334 -0.2307  0.3825
   33MOL0     C 4384   3.394  10.318   0.952 -0.5100 -0.5802 -0.6770
   33MOL0     C 4385   4.059  10.284   0.894  0.6527 -0.1127  0.4048
   33MOL0     C 4386   4.172  10.190   0.919  0.3547  0.3463 -0.1776
   33MOL0     C 4387   4.195  10.127   1.056  0.5621  0.2340 -0.7213
   33MOL0     H 4388   4.764  10.231   0.727 -0.4927  0.0440  1.3822
   33MOL0     H 4389   4.941  10.071   0.626  0.6966 -1.9015 -3.3204
   33MOL0     H 4390   5.088   9.729   0.562  2.6419  1.8779  0.9270
   33MOL0     H 4391   5.102   9.893   0.614 -1.5303  0.8968  0.2323
   33MOL0     H 4392   4.960   9.663   0.763 -0.6052  0.9385 -1.1732
   33MOL0     H 4393   4.963   9.832   0.829  1.2101  1.0583  1.4429
   33MOL0     H 4394   5.205   9.812   0.863  1.8549  0.3731 -3.4466
   33MOL0     H 4395   5.214   9.668   0.763  1.0644 -1.7621  2.1299
   33MOL0     H 4396   5.070   9.687   1.028 -0.1240  2.8664 -0.8305
   33MOL0     H 4397   5.058   9.549   0.916 -1.1605  1.0645 -0.4922
   33MOL0     H 4398   5.307   9.671   1.029  1.3291  0.2901 -1.0602
   33MOL0     H 4399   5.229   9.524   1.096 -1.5658 -1.4512 -1.4450
   33MOL0     H 4400   5.279   9.405   0.871  0.9599 -0.6968  1.2707
   33MOL0     H 4401   5.399   9.534   0.855 -0.6579  1.0934 -0.4536
   33MOL0     H 4402   5.378   9.346   1.105  1.6289 -0.7149 -0.4957
   33MOL0     H 4403   5.504   9.463   1.056  0.9694  1.0106 -1.9022
   33MOL0     H 4404   5.539   9.206   1.029  1.9355  0.5661  1.1264
   33MOL0     H 4405   5.422   9.212   0.905  1.2999 -1.1042 -0.2198
   33MOL0     H 4406   5.500   9.346   0.667  0.1662  1.9395  0.1409
   33MOL0     H 4407   5.875   9.363   0.539 -0.5698 -5.3203  0.7428
   33MOL0     H 4408   5.726   9.339   0.456 -0.0120 -1.5779  0.6585
   33MOL0     H 4409   5.635   9.565   0.501 -0.2708  0.8311  3.6669
   33MOL0     H 4410   5.773   9.608   0.592 -2.2862  1.8716 -0.5810
   33MOL0     H 4411   5.791   9.513   0.309  0.5840 -1.8306 -0.9854
   33MOL0     H 4412   5.934   9.561   0.415 -0.1128  0.6019  0.2732
   33MOL0     H 4413   5.702   9.736   0.316 -0.5623 -2.0727 -0.9915
   33MOL0     H 4414   5.872   9.743   0.261  1.0488 -2.5740  0.8630
   33MOL0     H 4415   5.880  10.012   0.618  1.1558  1.3623  0.6149
   33MOL0     H 4416   6.085  10.137   0.652 -0.0912  0.5883 -0.1667
   33MOL0     H 4417   6.529  10.292   0.443  0.4473  0.7787 -0.0274
   33MOL0     H 4418   6.754  10.380   0.525 -0.1354  0.3374 -0.7849
   33MOL0     H 4419   6.996  10.083   0.747 -1.6220 -0.5319 -1.0143
   33MOL0     H 4420   7.059  10.049   0.590 -0.6787  1.0196 -1.8923
   33MOL0     H 4421   7.214  10.250   0.595  3.1421 -1.2702  0.0053
   33MOL0     H 4422   7.156  10.277   0.761 -0.4512 -2.0424  2.0336
   33MOL0     H 4423   7.240  10.040   0.815 -0.7462  0.9727  0.9453
   33MOL0     H 4424   7.338  10.063   0.670 -4.2845 -2.6676 -1.0949
   33MOL0     H 4425   7.345  10.255   0.916 -1.5629  0.3338 -0.6046
   33MOL0     H 4426   7.434  10.273   0.754  1.9586 -1.7785 -0.3003
   33MOL0     H 4427   7.553  10.059   0.825 -0.9218  1.1904 -1.7834
   33MOL0     H 4428   7.454  10.075   0.979 -0.9574  0.1863 -0.5766
   33MOL0     H 4429   7.678  10.263   0.874  2.2533 -2.7309 -0.3243
   33MOL0     H 4430   7.573  10.292   1.023 -0.6009 -1.6460  0.8209
   33MOL0     H 4431   7.760  10.057   0.948  1.7024 -0.1604  1.0032
   33MOL0     H 4432   7.668  10.064   1.098  2.2944 -0.2705  2.2310
   33MOL0     H 4433   7.782  10.259   1.180  0.1040 -0.5263  1.8278
   33MOL0     H 4434   7.886  10.114   1.134  0.8359  0.7434 -0.7799
   33MOL0     H 4435   6.839   9.970   0.658  4.0003  0.2327 -2.8695
   33MOL0     H 4436   6.619   9.894   0.571 -1.1488  0.0596  0.3457
   33MOL0     H 4437   6.284   9.871   0.374 -0.0849  1.5891 -0.9913
   33MOL0     H 4438   6.097   9.745   0.347 -0.4402 -0.1732 -0.1106
   33MOL0     H 4439   4.645   9.767   0.615 -3.5493  1.3163 -0.6012
   33MOL0     H 4440   4.482   9.903   0.714 -0.1377 -1.0273 -0.2764
   33MOL0     H 4441   4.318  10.219   0.620 -2.5541  0.1333 -2.6306
   33MOL0     H 4442   4.110  10.356   0.574  4.2955 -2.0062 -1.3497
   33MOL0     H 4443   3.864  10.599   0.687  3.0182  0.3261 -2.2133
   33MOL0     H 4444   3.996  10.590   0.805  2.8706 -4.1899  0.3573
   33MOL0     H 4445   3.786  10.643   0.915  0.4000 -0.8459  3.0837
   33MOL0     H 4446   3.865  10.509   0.989  1.5516  1.6648  0.0570
   33MOL0     H 4447   3.716  10.352   0.891  0.5510  0.7834 -0.2532
   33MOL0     H 4448   3.637  10.466   0.783 -1.4220 -3.2815  1.1375
   33MOL0     H 4449   3.635  10.495   1.085 -3.0689 -2.3577  1.0703
   33MOL0     H 4450   3.552  10.603   0.985 -0.2635 -0.6680  5.8482
   33MOL0     H 4451   3.323  10.241   0.928  0.3269 -1.5420 -0.1707
   33MOL0     H 4452   3.997  10.311   0.979 -0.8627  1.8818 -1.2285
   33MOL0     H 4453   4.290  10.161   1.100  1.0588 -0.9657 -0.8218
   33MOL0     H 4454   4.110  10.151   1.120  0.8423  0.1062 -0.2978
   33MOL0     H 4455   4.194  10.018   1.050  0.3331  0.2390 -0.7840
   34MOL0     O 4456   6.915   2.277  10.310 -1.0268  0.8203 -0.1573
   34MOL0     C 4457   6.951   2.324  10.417 -1.0991 -0.7336 -1.1103
   34MOL0     O 4458   6.871   2.337  10.526 -0.3292 -0.5406 -0.6599
   34MOL0     C 4459   6.739   2.354  10.503  0.3394 -0.7958  0.2862
   34MOL0     C 4460   6.659   2.264  10.438  0.1377  0.3575  0.1675
   34MOL0     C 4461   6.523   2.288  10.408  0.3057 -0.4493 -0.3111
   34MOL0     C 4462   6.480   2.417  10.426 -0.4521 -0.6438  0.3309
   34MOL0     O 4463   6.344   2.447  10.403  1.1033 -0.2338 -0.4480
   34MOL0     C 4464   6.240   2.347  10.392  0.6949  0.3171  0.2008
   34MOL0     C 4465   6.109   2.417  10.403  0.0142 -0.0295 -0.0966
   34MOL0     C 4466   5.998   2.302  10.411  0.0348 -0.6107 -0.8134
   34MOL0     C 4467   5.851   2.349  10.418 -0.3970 -0.8020 -0.6438
   34MOL0     C 4468   5.758   2.234  10.404 -0.0439  0.2428 -0.0714
   34MOL0     C 4469   5.771   2.115  10.502 -0.3342  0.3187 -0.3966
   34MOL0     C 4470   5.666   2.013  10.462 -0.1644  0.2587 -0.2403
   34MOL0     C 4471   5.678   1.903  10.570 -0.6703 -0.3042 -0.1615
   34MOL0     N 4472   5.797   1.807  10.561 -0.3226 -0.1202  0.2798
   34MOL0     C 4473   5.855   1.754  10.675 -0.4994  0.2144  0.5777
   34MOL0     C 4474   5.898   1.632  10.640  0.2190 -0.0194  0.8909
   34MOL0     C 4475   5.962   1.524  10.722 -0.0586 -0.7916 -0.8175
   34MOL0     C 4476   6.111   1.539  10.753  0.3581  0.1877 -0.1204
   34MOL0     C 4477   6.210   1.522  10.634 -0.6404  0.2081  0.4227
   34MOL0     C 4478   6.343   1.476  10.677  0.0852 -0.2980  0.0593
   34MOL0     O 4479   6.385   1.569  10.782 -0.2146  0.0998 -0.4784
   34MOL0     C 4480   6.519   1.554  10.824  0.6442  0.3003  0.0811
   34MOL0     C 4481   6.571   1.644  10.913  0.8191  0.1220 -0.4231
   34MOL0     C 4482   6.700   1.633  10.957  0.7893 -0.4984 -0.3018
   34MOL0     C 4483   6.782   1.529  10.923  0.2912 -0.1566  0.5971
   34MOL0     C 4484   6.918   1.525  10.978  0.1012 -0.9331 -0.1192
   34MOL0     O 4485   7.002   1.438  10.923  0.0078  0.1288  0.1958
   34MOL0     C 4486   7.137   1.445  10.942 -0.0586  0.3620 -0.4260
   34MOL0     C 4487   7.223   1.556  10.947  0.3976 -0.3257  0.3235
   34MOL0     C 4488   7.362   1.552  10.978 -0.0416  0.0453 -0.1572
   34MOL0     C 4489   7.417   1.427  11.004  0.6988  0.8682 -0.4856
   34MOL0     O 4490   7.547   1.423  11.052  0.5482  0.0899  0.3876
   34MOL0     C 4491   7.651   1.502  10.989  0.3629  0.2457 -0.4677
   34MOL0     C 4492   7.783   1.435  11.012 -0.1412 -0.2560 -0.3507
   34MOL0     C 4493   7.827   1.329  10.913  0.3936 -0.5780  1.5362
   34MOL0     C 4494   7.952   1.247  10.953  0.6871  0.2224 -0.3264
   34MOL0     C 4495   8.085   1.322  10.952  0.8069  0.5987  0.7290
   34MOL0     C 4496   8.120   1.384  10.814 -1.3262 -0.8036 -0.3391
   34MOL0     C 4497   8.244   1.480  10.829 -0.6248  0.7429  0.0662
   34MOL0     C 4498   8.372   1.391  10.842 -0.9112 -0.0667 -0.0694
   34MOL0    Cl 4499   8.501   1.510  10.865 -0.1032 -0.1016 -0.2085
   34MOL0     C 4500   7.332   1.316  10.992  0.6595 -0.1327  0.4295
   34MOL0     C 4501   7.198   1.324  10.952  0.2829  0.3333  0.4637
   34MOL0     O 4502   6.946   1.606  11.067  0.0746  0.1541  0.2192
   34MOL0     C 4503   6.728   1.421  10.842 -0.2052  0.7023  0.4460
   34MOL0     C 4504   6.594   1.439  10.789 -0.2811 -0.9856  0.3466
   34MOL0     N 4505   5.877   1.615  10.506  0.8564 -0.8343  1.3243
   34MOL0     N 4506   5.813   1.723  10.457 -0.3611 -0.4566 -0.8608
   34MOL0     C 4507   6.559   2.517  10.474 -0.4249 -0.3303  0.2491
   34MOL0     C 4508   6.690   2.482  10.523 -0.1419  0.0668  0.5349
   34MOL0     C 4509   7.104   2.322  10.435  0.3688 -0.3273  0.1371
   34MOL0     C 4510   7.148   2.313  10.568  0.2938  0.2684 -0.1197
   34MOL0     C 4511   7.288   2.309  10.588  0.3675 -0.4830 -0.2924
   34MOL0     C 4512   7.383   2.328  10.490 -0.0935 -0.1372 -0.4019
   34MOL0     O 4513   7.516   2.338  10.514  0.4542  1.1642 -0.1928
   34MOL0     C 4514   7.566   2.361  10.645 -0.6427 -0.5042 -0.8427
   34MOL0     C 4515   7.603   2.228  10.712  0.0933  0.3001 -0.6569
   34MOL0     C 4516   7.726   2.158  10.648  0.1854  0.0754 -0.7835
   34MOL0     C 4517   7.849   2.148  10.740 -0.1055 -0.1770  0.5251
   34MOL0     C 4518   7.901   2.279  10.782  0.8185  0.3576  0.6847
   34MOL0     C 4519   7.940   2.392  10.812  1.2752  0.1006  0.3142
   34MOL0     C 4520   7.338   2.336  10.361 -0.8457 -0.7999 -0.9966
   34MOL0     C 4521   7.202   2.337  10.324 -0.1632  0.0547 -0.0426
   34MOL0     C 4522   7.177   2.355  10.178  0.3596  0.5387 -0.2004
   34MOL0     H 4523   6.696   2.169  10.402  0.0972  1.3735 -2.8456
   34MOL0     H 4524   6.456   2.213  10.368 -0.5507 -0.5324  1.2306
   34MOL0     H 4525   6.253   2.294  10.297  0.3581 -0.6411  0.6781
   34MOL0     H 4526   6.252   2.268  10.467  1.7396 -2.4803 -2.6812
   34MOL0     H 4527   6.101   2.488  10.320  2.3864 -1.7690 -1.9559
   34MOL0     H 4528   6.103   2.478  10.494 -3.2443  0.4555 -0.5079
   34MOL0     H 4529   6.025   2.238  10.496 -2.0488  0.5280  0.7860
   34MOL0     H 4530   5.998   2.244  10.319  1.2780 -1.8520 -0.0835
   34MOL0     H 4531   5.840   2.404  10.512  2.7339 -0.3640 -0.4466
   34MOL0     H 4532   5.841   2.424  10.339  0.7967  0.7779  0.6523
   34MOL0     H 4533   5.654   2.268  10.414 -0.2927 -0.4376 -0.2797
   34MOL0     H 4534   5.768   2.193  10.303 -0.7137  0.1615 -0.1109
   34MOL0     H 4535   5.866   2.063  10.491  0.6167  2.2598 -2.1151
   34MOL0     H 4536   5.747   2.157  10.600  0.0755  3.5786 -1.5805
   34MOL0     H 4537   5.691   1.989  10.358 -0.8112 -0.2949 -0.2756
   34MOL0     H 4538   5.572   2.069  10.465 -0.4581 -0.2822  1.1898
   34MOL0     H 4539   5.680   1.956  10.666 -4.9745  1.7596 -0.9964
   34MOL0     H 4540   5.584   1.849  10.565 -2.1034  1.9164  1.0064
   34MOL0     H 4541   5.878   1.804  10.769  1.6361 -1.6723  1.1563
   34MOL0     H 4542   5.910   1.530  10.817  1.7074 -0.8282  0.1937
   34MOL0     H 4543   5.936   1.426  10.680  1.5316 -0.9994 -1.3772
   34MOL0     H 4544   6.135   1.633  10.803  2.5899 -0.0400 -0.6734
   34MOL0     H 4545   6.129   1.467  10.833 -0.4762 -1.9986 -1.8219
   34MOL0     H 4546   6.218   1.615  10.577  0.3255  0.5223  1.0506
   34MOL0     H 4547   6.179   1.441  10.568  1.5489  0.8843 -1.5689
   34MOL0     H 4548   6.416   1.480  10.596 -0.3071 -0.4582 -0.3037
   34MOL0     H 4549   6.324   1.374  10.714  0.2600 -0.4510 -0.2681
   34MOL0     H 4550   6.499   1.717  10.948 -0.3651  0.0317 -2.4959
   34MOL0     H 4551   6.734   1.719  11.016 -1.6344  1.0808 -1.0668
   34MOL0     H 4552   7.175   1.652  10.927  1.1811 -0.3064 -1.6811
   34MOL0     H 4553   7.421   1.642  10.992  1.4219 -0.7225 -1.1867
   34MOL0     H 4554   7.634   1.519  10.883 -2.9082  1.3413  0.1249
   34MOL0     H 4555   7.665   1.597  11.042 -0.3547  1.1490 -1.8486
   34MOL0     H 4556   7.858   1.515  11.012 -0.9409  0.5141 -0.8518
   34MOL0     H 4557   7.778   1.388  11.110  1.5324  0.9844  0.3960
   34MOL0     H 4558   7.752   1.255  10.884  1.6257 -1.1833 -0.2087
   34MOL0     H 4559   7.854   1.371  10.816 -0.3935 -1.0977  1.0773
   34MOL0     H 4560   7.953   1.166  10.879 -1.0383  0.4541 -0.6330
   34MOL0     H 4561   7.939   1.208  11.054 -0.8038  1.5583  0.0331
   34MOL0     H 4562   8.159   1.247  10.981  0.7127  0.1913 -0.0640
   34MOL0     H 4563   8.082   1.394  11.034 -1.5098 -2.5461  3.6900
   34MOL0     H 4564   8.127   1.306  10.739  0.7695 -0.3418 -0.6953
   34MOL0     H 4565   8.042   1.451  10.777 -1.1681 -0.5524 -0.2201
   34MOL0     H 4566   8.238   1.556  10.907 -0.4095 -0.5891  1.4285
   34MOL0     H 4567   8.254   1.522  10.729  0.6625  0.9486  0.2557
   34MOL0     H 4568   8.363   1.322  10.927 -1.0862  0.7424  0.5842
   34MOL0     H 4569   8.389   1.334  10.751  0.1962  1.1248 -0.6447
   34MOL0     H 4570   7.379   1.219  11.004  2.0052  0.2177 -1.6049
   34MOL0     H 4571   7.145   1.229  10.946  2.9999 -1.4169  1.8577
   34MOL0     H 4572   6.781   1.332  10.808 -1.1992 -0.2403  1.2772
   34MOL0     H 4573   6.557   1.359  10.726 -0.1256 -0.6169 -0.2249
   34MOL0     H 4574   6.515   2.615  10.494 -0.9829 -0.3470 -0.8415
   34MOL0     H 4575   6.751   2.568  10.549  1.4151 -1.3238  1.6187
   34MOL0     H 4576   7.077   2.318  10.650  0.8672  0.6163  0.3623
   34MOL0     H 4577   7.321   2.294  10.690  2.6927  4.7667  0.0214
   34MOL0     H 4578   7.495   2.415  10.709  0.2965 -0.0049 -0.1919
   34MOL0     H 4579   7.661   2.415  10.636 -1.1441  0.5194 -0.1505
   34MOL0     H 4580   7.514   2.165  10.700 -0.2310  0.1201  2.1246
   34MOL0     H 4581   7.606   2.234  10.821  1.8296  0.3960 -0.6902
   34MOL0     H 4582   7.764   2.206  10.558 -0.7493  3.3233  0.4276
   34MOL0     H 4583   7.699   2.054  10.629  2.0255 -0.5726 -0.1104
   34MOL0     H 4584   7.837   2.076  10.821 -0.4029 -1.0561 -0.2817
   34MOL0     H 4585   7.933   2.106  10.684  0.9947 -0.8720  2.5764
   34MOL0     H 4586   8.006   2.476  10.826  2.6094 -0.6027 -1.3752
   34MOL0     H 4587   7.407   2.346  10.279 -1.0023 -0.0266 -1.0408
   34MOL0     H 4588   7.113   2.443  10.166  3.1742  2.6726 -0.5663
   34MOL0     H 4589   7.266   2.377  10.119  0.5011  0.7620  0.0957
   34MOL0     H 4590   7.132   2.268  10.129 -0.2802  0.5505  0.3504
   35MOL0     O 4591   5.274   3.723   6.453 -0.9250  0.1844 -0.0501
   35MOL0     C 4592   5.338   3.764   6.354  0.3113 -0.2857  0.0982
   35MOL0     O 4593   5.284   3.814   6.236  0.9376  0.4372  0.3682
   35MOL0     C 4594   5.149   3.842   6.246  1.0611  0.1418 -0.3207
   35MOL0     C 4595   5.092   3.961   6.298  0.4923 -0.3272 -0.2210
   35MOL0     C 4596   4.956   3.979   6.297 -0.4807  0.2521 -0.6799
   35MOL0     C 4597   4.875   3.888   6.235  0.5520 -0.3087  1.0776
   35MOL0     O 4598   4.739   3.916   6.234  0.2478  0.3475 -0.1399
   35MOL0     C 4599   4.647   3.832   6.152  0.2119  0.2794 -0.2488
   35MOL0     C 4600   4.495   3.868   6.175 -0.1839  0.1864 -0.0802
   35MOL0     C 4601   4.432   3.843   6.313 -0.2622 -0.1770  0.7423
   35MOL0     C 4602   4.283   3.880   6.328 -1.4245  0.1779  0.0079
   35MOL0     C 4603   4.227   3.899   6.476  0.5556 -0.6753  0.3161
   35MOL0     C 4604   4.212   3.770   6.564  0.3740 -0.0556 -0.1588
   35MOL0     C 4605   4.146   3.813   6.703 -0.3705  0.7529 -0.4534
   35MOL0     C 4606   4.124   3.688   6.790  0.0943  0.3941 -0.0189
   35MOL0     N 4607   4.005   3.607   6.739  0.4527 -1.1768 -0.4987
   35MOL0     C 4608   3.872   3.653   6.745  0.0267  0.0911  0.1919
   35MOL0     C 4609   3.818   3.571   6.644 -0.5138 -0.4240  0.0383
   35MOL0     C 4610   3.667   3.577   6.609  1.0519  1.0517  0.6420
   35MOL0     C 4611   3.630   3.712   6.554  0.8610 -0.0763 -0.4682
   35MOL0     C 4612   3.690   3.759   6.429 -0.1832 -0.7490  0.5184
   35MOL0     C 4613   3.819   3.852   6.434 -0.4753 -0.0124 -0.7098
   35MOL0     O 4614   3.866   3.903   6.307 -0.2379  0.4865 -0.2430
   35MOL0     C 4615   3.945   3.831   6.230  1.5338  0.4924  0.1253
   35MOL0     C 4616   3.968   3.694   6.250  0.6413  0.2523  0.5944
   35MOL0     C 4617   4.061   3.628   6.167  0.1234  0.3093 -0.2588
   35MOL0     C 4618   4.101   3.692   6.048  0.5836 -0.0308 -0.4273
   35MOL0     C 4619   4.180   3.627   5.943 -0.3362  0.1774 -0.1584
   35MOL0     O 4620   4.190   3.680   5.819  0.6663 -0.0650 -0.0058
   35MOL0     C 4621   4.274   3.637   5.729  0.0909 -0.1208  0.2885
   35MOL0     C 4622   4.409   3.671   5.732  0.3164  0.7985 -0.5347
   35MOL0     C 4623   4.497   3.627   5.636  0.4743 -0.3325  0.1578
   35MOL0     C 4624   4.454   3.538   5.540 -0.1573  0.1520  0.4568
   35MOL0     O 4625   4.554   3.500   5.450  0.1599 -1.1498  0.9838
   35MOL0     C 4626   4.520   3.475   5.308 -0.2719  0.8529  0.1250
   35MOL0     C 4627   4.637   3.436   5.220 -0.1508  0.7191 -0.0703
   35MOL0     C 4628   4.737   3.346   5.293 -0.6335  0.9436  0.1304
   35MOL0     C 4629   4.831   3.281   5.177 -0.5856  0.4825 -0.6960
   35MOL0     C 4630   4.907   3.156   5.228 -0.0487 -0.9252 -0.4264
   35MOL0     C 4631   4.975   3.067   5.126 -0.0929  0.0511 -0.1481
   35MOL0     C 4632   5.083   2.971   5.176  0.4013 -0.1795  0.2863
   35MOL0     C 4633   5.140   2.902   5.054 -0.0808 -0.3166 -0.4500
   35MOL0    Cl 4634   5.245   2.759   5.104  0.1905 -0.1532  0.2257
   35MOL0     C 4635   4.318   3.506   5.530  0.3868  1.3300  0.0804
   35MOL0     C 4636   4.231   3.553   5.626  0.9616 -0.0707  0.2169
   35MOL0     O 4637   4.230   3.519   5.972  0.1179  0.3362  0.1091
   35MOL0     C 4638   4.058   3.833   6.017  0.5236  0.3187  0.1813
   35MOL0     C 4639   3.990   3.898   6.121  0.6437  0.4606  0.1097
   35MOL0     N 4640   3.910   3.481   6.599  0.4017  0.3053 -0.9163
   35MOL0     N 4641   4.023   3.512   6.651 -0.2338 -0.0894 -0.5557
   35MOL0     C 4642   4.927   3.773   6.172 -0.3871 -0.3315  0.1860
   35MOL0     C 4643   5.072   3.751   6.171 -0.0147  0.4754 -0.9258
   35MOL0     C 4644   5.482   3.768   6.365  0.0463 -0.1930  1.1198
   35MOL0     C 4645   5.554   3.842   6.262  0.0231  0.5572  0.0437
   35MOL0     C 4646   5.694   3.855   6.267  0.7922 -0.3746 -0.2153
   35MOL0     C 4647   5.773   3.795   6.367 -0.0229 -0.3479 -0.2563
   35MOL0     O 4648   5.909   3.801   6.372 -0.0261 -0.1250  0.5347
   35MOL0     C 4649   5.984   3.882   6.287 -0.5516 -0.4528 -1.0717
   35MOL0     C 4650   6.131   3.870   6.316 -0.3366  0.1428  0.7486
   35MOL0     C 4651   6.184   3.742   6.248  0.3306 -0.3379  0.7724
   35MOL0     C 4652   6.178   3.630   6.350  0.4281 -0.2583  0.2989
   35MOL0     C 4653   6.302   3.626   6.433 -0.4627 -0.3058 -0.1767
   35MOL0     C 4654   6.409   3.602   6.492  0.8002 -0.3003 -0.0166
   35MOL0     C 4655   5.704   3.731   6.463  0.8604 -0.4066 -0.1400
   35MOL0     C 4656   5.566   3.710   6.463 -0.4510 -0.4966 -0.0777
   35MOL0     C 4657   5.510   3.628   6.575  0.2545  0.4286 -0.1944
   35MOL0     H 4658   5.161   4.036   6.337  1.0941 -0.2728 -1.3550
   35MOL0     H 4659   4.916   4.070   6.342 -0.5675  0.7312 -1.7055
   35MOL0     H 4660   4.670   3.840   6.046 -0.8014  1.9614 -0.3733
   35MOL0     H 4661   4.653   3.726   6.180 -2.1304  0.2629  0.4189
   35MOL0     H 4662   4.442   3.806   6.101 -0.1638 -1.0759  0.9370
   35MOL0     H 4663   4.468   3.972   6.154  2.3073  0.8729 -0.1357
   35MOL0     H 4664   4.499   3.903   6.376  1.8261  0.7708 -2.1737
   35MOL0     H 4665   4.453   3.738   6.334 -2.2749 -0.6350  0.6019
   35MOL0     H 4666   4.272   3.976   6.278 -3.2253  0.9481  1.7385
   35MOL0     H 4667   4.218   3.809   6.275 -1.9552  1.8751 -1.7642
   35MOL0     H 4668   4.278   3.975   6.536 -4.3635  3.0017  0.4234
   35MOL0     H 4669   4.127   3.937   6.455  0.5660 -0.8192  0.0045
   35MOL0     H 4670   4.149   3.693   6.517 -1.7816  0.0458  2.3185
   35MOL0     H 4671   4.305   3.715   6.583  0.1595  0.3926  2.5932
   35MOL0     H 4672   4.059   3.877   6.686  0.8962  2.1564 -1.9370
   35MOL0     H 4673   4.228   3.869   6.749  0.8023  0.3628 -1.9899
   35MOL0     H 4674   4.218   3.632   6.797 -0.3952 -0.4960 -0.4173
   35MOL0     H 4675   4.096   3.730   6.887  1.1294  2.9316 -0.7401
   35MOL0     H 4676   3.816   3.728   6.800 -4.0512 -1.7499 -1.1086
   35MOL0     H 4677   3.659   3.495   6.537 -3.2150  0.5571  1.4172
   35MOL0     H 4678   3.622   3.547   6.704  0.4725 -0.2331 -0.0125
   35MOL0     H 4679   3.521   3.708   6.543  0.7723 -2.5469  0.6959
   35MOL0     H 4680   3.649   3.793   6.624 -2.5645  1.5979 -1.2752
   35MOL0     H 4681   3.618   3.806   6.362  1.2598  1.6058  0.5191
   35MOL0     H 4682   3.719   3.672   6.369  0.6297  0.7942 -1.4467
   35MOL0     H 4683   3.894   3.797   6.493  0.8344  0.7627 -1.5967
   35MOL0     H 4684   3.802   3.938   6.499 -3.1669 -1.5181  0.7627
   35MOL0     H 4685   3.929   3.633   6.330  1.8509 -0.6100  0.5585
   35MOL0     H 4686   4.093   3.525   6.178 -2.1173 -0.6365 -1.8289
   35MOL0     H 4687   4.435   3.724   5.823 -2.3439 -2.4564  2.3890
   35MOL0     H 4688   4.602   3.653   5.635  0.5327 -0.5694  0.0977
   35MOL0     H 4689   4.453   3.388   5.302 -0.0873  0.6856  0.4831
   35MOL0     H 4690   4.463   3.559   5.267  1.1258  2.6574  1.7522
   35MOL0     H 4691   4.598   3.386   5.131 -0.9017 -2.6063  1.9318
   35MOL0     H 4692   4.689   3.522   5.177  1.7882 -1.2719 -1.8891
   35MOL0     H 4693   4.803   3.414   5.347  0.8609  0.2237 -0.7298
   35MOL0     H 4694   4.686   3.269   5.352 -0.2730 -1.6213 -2.6418
   35MOL0     H 4695   4.903   3.351   5.133  2.6317 -2.0246  0.2326
   35MOL0     H 4696   4.766   3.248   5.096  0.1051  0.8524 -1.4175
   35MOL0     H 4697   4.833   3.096   5.282 -0.8801  0.1373 -0.3474
   35MOL0     H 4698   4.990   3.199   5.284  0.4856 -1.0957 -1.0803
   35MOL0     H 4699   4.903   3.006   5.071 -0.7468 -2.1269  2.8643
   35MOL0     H 4700   5.015   3.129   5.045 -2.8087 -0.1966 -1.7974
   35MOL0     H 4701   5.044   2.897   5.247  0.2296 -1.7603 -1.3691
   35MOL0     H 4702   5.161   3.022   5.233  1.5343 -0.4808 -0.9358
   35MOL0     H 4703   5.049   2.862   5.008 -1.2638 -2.2807  3.1539
   35MOL0     H 4704   5.196   2.973   4.993  2.1553 -0.6376  1.1156
   35MOL0     H 4705   4.291   3.447   5.443 -3.7745  0.5850  1.6565
   35MOL0     H 4706   4.123   3.539   5.628  1.0222 -0.5218  1.5835
   35MOL0     H 4707   4.080   3.881   5.923  1.5158  0.7243  0.6073
   35MOL0     H 4708   3.964   4.001   6.097  1.7493  0.8220  0.3919
   35MOL0     H 4709   4.867   3.706   6.111  1.9273  0.5808 -3.4315
   35MOL0     H 4710   5.123   3.669   6.121  1.6587  0.1490  1.1186
   35MOL0     H 4711   5.493   3.885   6.183  0.5183  1.2235  0.0249
   35MOL0     H 4712   5.735   3.920   6.191  3.1614  0.0186  1.2908
   35MOL0     H 4713   5.944   3.982   6.307 -1.8982 -1.1402 -0.1610
   35MOL0     H 4714   5.963   3.854   6.184 -0.3516 -1.8146 -0.7544
   35MOL0     H 4715   6.141   3.861   6.424  0.5561 -0.2470  0.6407
   35MOL0     H 4716   6.197   3.951   6.283  1.0770 -0.5104  1.8393
   35MOL0     H 4717   6.290   3.751   6.222  0.7248 -1.4194  1.9027
   35MOL0     H 4718   6.127   3.700   6.164  0.6293 -2.2627  1.4683
   35MOL0     H 4719   6.089   3.638   6.413 -1.3697 -0.3189 -2.0829
   35MOL0     H 4720   6.165   3.534   6.299 -2.2178 -1.3648  2.7890
   35MOL0     H 4721   6.498   3.574   6.545  0.6517 -3.2150 -1.1205
   35MOL0     H 4722   5.766   3.678   6.534 -0.4321 -0.9766  0.6085
   35MOL0     H 4723   5.454   3.548   6.526  3.9514 -1.7904 -1.1602
   35MOL0     H 4724   5.594   3.580   6.625  1.4506  3.2608  0.6973
   35MOL0     H 4725   5.447   3.681   6.647 -0.7165  0.1509 -0.8056
   36MOL0     O 4726   7.585   7.071   6.432  0.3004  1.1558  0.0010
   36MOL0     C 4727   7.549   7.050   6.548 -1.0506 -0.2647 -0.0681
   36MOL0     O 4728   7.432   7.035   6.598  0.4173  0.4287  0.0111
   36MOL0     C 4729   7.329   7.081   6.520  0.5613  0.6226 -1.0278
   36MOL0     C 4730   7.274   7.206   6.553  0.4563 -0.1866 -0.1317
   36MOL0     C 4731   7.165   7.253   6.479  0.4514  0.1125 -0.0267
   36MOL0     C 4732   7.109   7.176   6.372  0.6836  0.0937 -0.8090
   36MOL0     O 4733   6.991   7.224   6.318  0.3578 -0.1178 -0.4065
   36MOL0     C 4734   6.913   7.124   6.252 -0.3476  0.7467  0.5583
   36MOL0     C 4735   6.795   7.197   6.182 -0.5318  0.4683  0.5985
   36MOL0     C 4736   6.701   7.265   6.283 -0.0801  0.1556  0.3253
   36MOL0     C 4737   6.622   7.377   6.219 -0.0298 -0.0240  0.0147
   36MOL0     C 4738   6.488   7.327   6.178 -0.6845  0.4975  0.0488
   36MOL0     C 4739   6.410   7.434   6.101 -0.4289 -0.0261 -0.6418
   36MOL0     C 4740   6.329   7.369   5.981  0.0760 -0.3997 -0.0788
   36MOL0     C 4741   6.235   7.480   5.920  0.2591  0.6508  0.1473
   36MOL0     N 4742   6.297   7.596   5.855 -0.1433 -0.1646 -0.4023
   36MOL0     C 4743   6.418   7.594   5.796  0.8559  0.1155  0.2283
   36MOL0     C 4744   6.435   7.719   5.734 -0.7027  0.7289  0.5913
   36MOL0     C 4745   6.542   7.761   5.634  0.5314 -0.8689 -0.0463
   36MOL0     C 4746   6.674   7.771   5.706 -0.7076  1.2890 -0.3246
   36MOL0     C 4747   6.700   7.904   5.768  1.0834 -0.7476 -0.0999
   36MOL0     C 4748   6.833   7.894   5.846  0.0677 -0.4797  0.0667
   36MOL0     O 4749   6.941   7.875   5.754  0.2956 -0.5701 -0.4013
   36MOL0     C 4750   7.077   7.889   5.778 -0.1005 -1.1334  1.0941
   36MOL0     C 4751   7.163   7.839   5.679  0.1770 -0.5844  0.4948
   36MOL0     C 4752   7.299   7.825   5.706 -0.3152  0.4069 -0.0927
   36MOL0     C 4753   7.352   7.863   5.832  0.7142  0.0586  0.0633
   36MOL0     C 4754   7.492   7.842   5.854 -0.8124 -0.2752  0.1891
   36MOL0     O 4755   7.558   7.754   5.772 -0.0569  0.4177  0.3348
   36MOL0     C 4756   7.695   7.746   5.791 -0.0885  0.6309 -0.8339
   36MOL0     C 4757   7.769   7.716   5.677 -0.1323 -0.4903 -0.4445
   36MOL0     C 4758   7.907   7.712   5.685 -0.4673 -0.6749 -1.3671
   36MOL0     C 4759   7.969   7.725   5.808 -0.2325  0.0218  0.5708
   36MOL0     O 4760   8.101   7.713   5.821 -0.0326  0.1738  0.2837
   36MOL0     C 4761   8.165   7.838   5.777 -0.3684  0.5020 -0.2560
   36MOL0     C 4762   8.227   7.830   5.637  0.6228  0.7435 -1.0432
   36MOL0     C 4763   8.344   7.736   5.653 -0.1126  0.4046 -0.4419
   36MOL0     C 4764   8.471   7.786   5.727 -0.9595  0.0309  0.4347
   36MOL0     C 4765   8.580   7.675   5.715  0.2695  0.5201  0.1976
   36MOL0     C 4766   8.702   7.701   5.803  0.1415 -0.6793  0.1913
   36MOL0     C 4767   8.824   7.613   5.764  0.4504  0.1426 -0.2609
   36MOL0     C 4768   8.954   7.660   5.842 -0.0606 -0.0235  0.5423
   36MOL0    Cl 4769   9.100   7.570   5.791 -0.5408 -0.0173  0.0331
   36MOL0     C 4770   7.897   7.741   5.923 -0.2460 -0.1324 -0.6437
   36MOL0     C 4771   7.755   7.747   5.917 -0.2959 -0.8828  0.3798
   36MOL0     O 4772   7.543   7.908   5.945 -0.0946 -0.8415  0.0922
   36MOL0     C 4773   7.262   7.916   5.923  0.9268 -0.2496 -0.2620
   36MOL0     C 4774   7.126   7.933   5.900 -0.1209 -0.3226 -0.5276
   36MOL0     N 4775   6.320   7.790   5.761  0.6759 -0.3658 -0.1572
   36MOL0     N 4776   6.241   7.719   5.836  0.8847 -0.3734  0.6195
   36MOL0     C 4777   7.163   7.050   6.349 -0.2587 -0.5774 -0.2391
   36MOL0     C 4778   7.265   7.001   6.423 -0.0386 -0.2910  0.3555
   36MOL0     C 4779   7.661   7.046   6.644  0.5107  0.2444  0.0468
   36MOL0     C 4780   7.660   6.961   6.765 -0.1496  0.8744  0.9412
   36MOL0     C 4781   7.776   6.951   6.842  0.5040 -0.2925  0.0236
   36MOL0     C 4782   7.887   7.028   6.815  0.7869 -0.1660 -0.1231
   36MOL0     O 4783   7.995   7.025   6.897  0.1004  0.2320 -0.4427
   36MOL0     C 4784   7.965   7.018   7.034 -0.2809  0.7463 -0.6245
   36MOL0     C 4785   8.096   7.055   7.106  0.4696 -0.2307  0.3843
   36MOL0     C 4786   8.116   7.210   7.097 -0.2321  0.4657  0.7288
   36MOL0     C 4787   8.043   7.291   7.198  0.2509 -0.1189 -0.5384
   36MOL0     C 4788   8.103   7.275   7.335 -0.7106 -0.0723  0.3634
   36MOL0     C 4789   8.146   7.259   7.445 -0.2179 -0.0440 -0.8305
   36MOL0     C 4790   7.892   7.098   6.698 -0.5432 -0.1581 -0.1486
   36MOL0     C 4791   7.780   7.118   6.611 -0.7373  0.4252 -0.0035
   36MOL0     C 4792   7.811   7.211   6.498  0.1686  0.1166 -0.1938
   36MOL0     H 4793   7.324   7.268   6.627  0.4068  2.0077 -1.8285
   36MOL0     H 4794   7.118   7.349   6.500 -0.6985 -0.1467 -1.3100
   36MOL0     H 4795   6.960   7.060   6.177 -0.8005  0.2468  0.6979
   36MOL0     H 4796   6.869   7.050   6.319  0.2731 -0.4423 -0.3240
   36MOL0     H 4797   6.726   7.138   6.120 -1.4159  2.3027 -0.2519
   36MOL0     H 4798   6.845   7.273   6.121 -0.6926 -0.2422 -0.4515
   36MOL0     H 4799   6.756   7.302   6.370 -2.1525  0.2635  1.6592
   36MOL0     H 4800   6.642   7.183   6.326  1.9734 -1.9184 -0.5427
   36MOL0     H 4801   6.612   7.451   6.299 -0.7521 -1.3424  1.1972
   36MOL0     H 4802   6.670   7.413   6.128 -2.6005 -1.4358 -2.0455
   36MOL0     H 4803   6.507   7.237   6.119  1.2958  1.3118 -0.6217
   36MOL0     H 4804   6.430   7.292   6.264  0.1847 -2.1355 -0.3278
   36MOL0     H 4805   6.335   7.481   6.164  0.6694  2.1447 -0.8698
   36MOL0     H 4806   6.468   7.515   6.057  0.7332  0.0246  0.9257
   36MOL0     H 4807   6.258   7.292   6.014  0.5138  0.1472  2.2891
   36MOL0     H 4808   6.401   7.336   5.905 -1.0438  0.6467 -1.6453
   36MOL0     H 4809   6.178   7.428   5.843  2.6628 -0.6932 -0.8384
   36MOL0     H 4810   6.161   7.522   5.989 -0.4919  0.8810 -0.7779
   36MOL0     H 4811   6.483   7.508   5.781  0.4172  0.0549 -1.5035
   36MOL0     H 4812   6.538   7.694   5.548 -1.1330 -1.1864  0.2459
   36MOL0     H 4813   6.524   7.856   5.582  0.6172 -0.2972  0.9297
   36MOL0     H 4814   6.670   7.698   5.787 -0.7434  0.7979 -0.7579
   36MOL0     H 4815   6.754   7.754   5.633 -0.8014  0.7373 -0.3023
   36MOL0     H 4816   6.618   7.940   5.831  2.8068  0.3584  1.6068
   36MOL0     H 4817   6.705   7.979   5.689 -1.1867  0.2897  0.6607
   36MOL0     H 4818   6.828   7.828   5.933  1.9611  1.1481  1.5167
   36MOL0     H 4819   6.843   7.991   5.897 -0.1502 -0.3509 -0.1338
   36MOL0     H 4820   7.117   7.813   5.584  0.1562 -0.3470  0.4398
   36MOL0     H 4821   7.364   7.789   5.628 -0.0226 -1.4275  0.9544
   36MOL0     H 4822   7.721   7.703   5.580  1.0404  0.3498 -1.1633
   36MOL0     H 4823   7.963   7.685   5.596  0.7896  0.5547 -0.9757
   36MOL0     H 4824   8.104   7.928   5.774  3.0501  3.0005 -0.7211
   36MOL0     H 4825   8.245   7.857   5.850  0.6316 -2.2345 -0.5160
   36MOL0     H 4826   8.155   7.782   5.570  1.2980 -2.8834  0.5726
   36MOL0     H 4827   8.263   7.928   5.604 -3.3725  3.3802  1.5585
   36MOL0     H 4828   8.320   7.639   5.696  2.5135  0.3076  1.0555
   36MOL0     H 4829   8.378   7.705   5.553 -0.4076 -0.4457 -0.2838
   36MOL0     H 4830   8.450   7.807   5.832  3.2712  0.5309  1.3749
   36MOL0     H 4831   8.512   7.877   5.681 -0.4520  0.4868  1.7362
   36MOL0     H 4832   8.611   7.664   5.610 -1.1190  0.9774 -0.2855
   36MOL0     H 4833   8.537   7.576   5.736  0.5349  0.0204 -1.4529
   36MOL0     H 4834   8.738   7.803   5.787  1.5329 -1.0156  0.9965
   36MOL0     H 4835   8.677   7.688   5.909  1.7004  2.0844  0.9869
   36MOL0     H 4836   8.830   7.615   5.655  1.1525 -1.4570 -0.2822
   36MOL0     H 4837   8.808   7.511   5.800 -0.0594  1.2517  2.9957
   36MOL0     H 4838   8.970   7.766   5.821 -1.5221 -0.2956 -2.4292
   36MOL0     H 4839   8.932   7.642   5.948  0.0520  0.3500  0.6304
   36MOL0     H 4840   7.957   7.735   6.014  0.1533  1.0712 -0.8114
   36MOL0     H 4841   7.696   7.754   6.007 -0.6567 -0.5571  0.1202
   36MOL0     H 4842   7.313   7.958   6.009  1.8263  1.2901 -1.5032
   36MOL0     H 4843   7.070   7.971   5.985  1.3277 -3.0916  1.8712
   36MOL0     H 4844   7.122   6.976   6.281 -1.3278  0.4165 -0.7216
   36MOL0     H 4845   7.307   6.909   6.385  2.2131  0.2343  1.4153
   36MOL0     H 4846   7.569   6.910   6.796 -0.5933  1.6538  0.9633
   36MOL0     H 4847   7.783   6.884   6.927 -1.0450 -0.1160  0.3108
   36MOL0     H 4848   7.935   6.916   7.062  1.3435  0.3739 -0.1184
   36MOL0     H 4849   7.881   7.075   7.076 -0.8798 -0.3886 -0.2211
   36MOL0     H 4850   8.167   6.991   7.052 -0.6276  1.0272 -2.7745
   36MOL0     H 4851   8.087   7.024   7.210 -0.2588  0.4798  0.5416
   36MOL0     H 4852   8.094   7.250   6.997  1.5498  1.4018  0.6746
   36MOL0     H 4853   8.221   7.235   7.113 -0.2676  0.3946  1.0734
   36MOL0     H 4854   8.053   7.398   7.177  1.0173 -0.0583  0.0935
   36MOL0     H 4855   7.939   7.257   7.201  0.6030 -1.3197 -1.2012
   36MOL0     H 4856   8.177   7.238   7.545  1.2165 -0.8640 -1.4148
   36MOL0     H 4857   7.980   7.152   6.665 -2.5684  2.6859 -1.2825
   36MOL0     H 4858   7.884   7.286   6.531 -0.7762 -0.3526  3.4648
   36MOL0     H 4859   7.859   7.154   6.418  0.1093 -0.1572 -0.0396
   36MOL0     H 4860   7.725   7.261   6.453  0.5674  0.8994 -0.1057
   37MOL0     O 4861   3.688   5.594  10.504 -0.6121 -1.0493  0.2938
   37MOL0     C 4862   3.598   5.572  10.582  0.3036 -0.0095  0.3256
   37MOL0     O 4863   3.598   5.607  10.713  0.0273  0.0583  0.5464
   37MOL0     C 4864   3.707   5.667  10.778 -1.0423 -0.0031 -0.4312
   37MOL0     C 4865   3.682   5.781  10.855 -0.0563 -0.2171  0.0002
   37MOL0     C 4866   3.794   5.856  10.902  0.0656  0.6335 -1.0495
   37MOL0     C 4867   3.929   5.799  10.886  0.4000 -0.8964 -0.6021
   37MOL0     O 4868   4.026   5.883  10.928  0.4429 -0.0241  0.5526
   37MOL0     C 4869   4.158   5.862  10.871  0.9608  0.6202 -0.3675
   37MOL0     C 4870   4.263   5.963  10.915 -0.6754  0.1984  0.5348
   37MOL0     C 4871   4.235   6.109  10.893  0.1757  0.1060  0.0109
   37MOL0     C 4872   4.287   6.152  10.755 -0.0893 -0.3067 -0.9132
   37MOL0     C 4873   4.244   6.295  10.721 -0.1256 -0.3411 -0.8358
   37MOL0     C 4874   4.288   6.337  10.587 -0.0203 -0.5343 -0.1990
   37MOL0     C 4875   4.242   6.484  10.555 -0.2674  0.0605  0.6361
   37MOL0     C 4876   4.271   6.532  10.404  0.7847 -0.3625 -0.5194
   37MOL0     N 4877   4.422   6.519  10.372  0.1814 -0.6439  0.2887
   37MOL0     C 4878   4.507   6.416  10.332 -0.7810 -1.0703 -0.1203
   37MOL0     C 4879   4.627   6.471  10.323  0.3357 -0.0048 -0.9960
   37MOL0     C 4880   4.753   6.399  10.275  0.0653  0.1131 -0.1128
   37MOL0     C 4881   4.864   6.424  10.381  0.3709 -0.6312 -0.6151
   37MOL0     C 4882   4.988   6.330  10.354  0.0823 -0.6678  0.3116
   37MOL0     C 4883   5.118   6.342  10.433 -0.0495 -0.1023  0.2865
   37MOL0     O 4884   5.200   6.220  10.431  0.3974  0.7401 -0.3259
   37MOL0     C 4885   5.332   6.212  10.476 -0.4361 -0.0699  0.2775
   37MOL0     C 4886   5.394   6.092  10.435 -0.4772  0.0975  0.4754
   37MOL0     C 4887   5.513   6.048  10.482 -0.6867 -0.1885  0.3031
   37MOL0     C 4888   5.587   6.133  10.564  0.1022  0.1360  0.2939
   37MOL0     C 4889   5.717   6.096  10.617 -0.4279 -0.0451 -0.2153
   37MOL0     O 4890   5.782   6.183  10.697 -0.3645  0.2545 -0.2653
   37MOL0     C 4891   5.901   6.140  10.750 -0.5763 -0.5947 -0.1968
   37MOL0     C 4892   5.900   6.034  10.843  0.3259 -0.0050 -0.6617
   37MOL0     C 4893   6.017   5.990  10.896  0.5937 -0.1068 -0.2037
   37MOL0     C 4894   6.138   6.050  10.867 -0.7042  0.6077  0.0671
   37MOL0     O 4895   6.244   5.983  10.911 -0.6867  0.2191 -0.1425
   37MOL0     C 4896   6.376   6.040  10.914 -0.3598 -0.0009  0.0293
   37MOL0     C 4897   6.400   6.171  10.990 -0.0862  0.6527  0.7198
   37MOL0     C 4898   6.325   6.170  11.122 -0.1016 -0.4739 -1.2838
   37MOL0     C 4899   6.426   6.189  11.237 -0.1332  0.8008  0.2229
   37MOL0     C 4900   6.502   6.063  11.258  0.0577  0.4093  0.1238
   37MOL0     C 4901   6.627   6.082  11.347  0.4829 -0.4180 -0.1616
   37MOL0     C 4902   6.739   6.159  11.273 -0.3150  0.1196 -0.1994
   37MOL0     C 4903   6.878   6.146  11.342  0.4179  0.2807  0.0109
   37MOL0    Cl 4904   6.900   5.993  11.446  0.4151 -0.1074  0.7029
   37MOL0     C 4905   6.139   6.164  10.783 -0.9325  0.1440  1.3946
   37MOL0     C 4906   6.021   6.204  10.728  0.3481 -0.2097  0.0689
   37MOL0     O 4907   5.761   5.987  10.569  0.2374 -0.8071  0.1739
   37MOL0     C 4908   5.534   6.268  10.595  0.0234 -0.8251  0.6509
   37MOL0     C 4909   5.404   6.296  10.553  0.0302 -0.5252 -0.5415
   37MOL0     N 4910   4.627   6.602  10.372  0.4475 -0.1445  0.1919
   37MOL0     N 4911   4.502   6.629  10.392 -0.1504 -0.2869 -0.9424
   37MOL0     C 4912   3.955   5.678  10.826  0.1677  0.2925  0.5172
   37MOL0     C 4913   3.839   5.610  10.770 -0.4755  0.3172  0.1631
   37MOL0     C 4914   3.475   5.507  10.522 -0.0281  0.3730 -0.7170
   37MOL0     C 4915   3.484   5.399  10.420 -0.6043 -1.3839  1.2796
   37MOL0     C 4916   3.374   5.326  10.383 -0.2197  0.6179  0.5039
   37MOL0     C 4917   3.248   5.350  10.445 -0.3326  0.5169 -0.2406
   37MOL0     O 4918   3.125   5.288  10.429 -0.0496 -0.4282  1.1179
   37MOL0     C 4919   3.125   5.185  10.329  0.3405 -0.2856 -0.1164
   37MOL0     C 4920   2.980   5.131  10.317  0.2883  0.0700  0.5268
   37MOL0     C 4921   2.970   4.984  10.266  0.1354 -0.6668  1.2642
   37MOL0     C 4922   2.836   4.918  10.287  0.7503 -0.1028  1.0088
   37MOL0     C 4923   2.735   4.978  10.198 -0.6561  0.3346  0.2304
   37MOL0     C 4924   2.643   5.022  10.134  0.6527  0.3945  0.3052
   37MOL0     C 4925   3.240   5.454  10.532  0.4232 -0.9949 -0.3659
   37MOL0     C 4926   3.351   5.542  10.570  0.5220 -0.3513 -0.7872
   37MOL0     C 4927   3.321   5.655  10.671  0.7684  0.5927 -0.1007
   37MOL0     H 4928   3.579   5.811  10.870 -1.2968 -3.9713 -0.0318
   37MOL0     H 4929   3.781   5.949  10.956 -1.5597 -0.5125  0.6483
   37MOL0     H 4930   4.194   5.762  10.898 -0.7432 -0.0959 -0.6615
   37MOL0     H 4931   4.139   5.872  10.764 -0.6221 -1.1645 -0.3069
   37MOL0     H 4932   4.362   5.945  10.871 -0.2014  1.2202  1.1471
   37MOL0     H 4933   4.276   5.935  11.020  0.9195 -1.4591 -0.0470
   37MOL0     H 4934   4.282   6.167  10.973  2.9838  1.2474 -2.2672
   37MOL0     H 4935   4.128   6.131  10.901  0.0991  0.1001 -0.8984
   37MOL0     H 4936   4.394   6.129  10.750  0.2292 -0.2880  2.8940
   37MOL0     H 4937   4.218   6.090  10.696 -0.1316  1.7541 -3.2077
   37MOL0     H 4938   4.135   6.296  10.725 -0.1457 -1.7627 -0.5401
   37MOL0     H 4939   4.276   6.363  10.800 -1.9677 -1.3088  0.8073
   37MOL0     H 4940   4.396   6.327  10.575  0.1850  0.0470  1.0227
   37MOL0     H 4941   4.241   6.269  10.515 -1.1328  0.4287 -0.4180
   37MOL0     H 4942   4.309   6.550  10.610  1.7447 -1.2203 -0.1601
   37MOL0     H 4943   4.139   6.505  10.586 -0.3189 -1.1577  1.3729
   37MOL0     H 4944   4.208   6.473  10.337  2.7960 -1.6176 -1.4120
   37MOL0     H 4945   4.243   6.638  10.397  2.3472  0.1092 -0.0020
   37MOL0     H 4946   4.493   6.312  10.306 -0.0374 -0.5363 -2.9748
   37MOL0     H 4947   4.732   6.293  10.263  0.4768 -0.1864  1.4755
   37MOL0     H 4948   4.794   6.435  10.180  1.4838 -3.1846 -0.8711
   37MOL0     H 4949   4.877   6.533  10.387 -2.1234 -0.2997 -0.3859
   37MOL0     H 4950   4.813   6.383  10.469 -0.9852  0.4072 -0.8799
   37MOL0     H 4951   5.013   6.334  10.248  2.5659 -1.9150  0.7610
   37MOL0     H 4952   4.955   6.229  10.380  1.5047 -1.0079  0.9382
   37MOL0     H 4953   5.080   6.365  10.533 -0.1742  0.0191  0.2114
   37MOL0     H 4954   5.178   6.427  10.399  0.4420 -0.6951 -0.3554
   37MOL0     H 4955   5.338   6.031  10.365 -1.9472  2.2915 -0.3880
   37MOL0     H 4956   5.559   5.959  10.442  1.7554  2.0356 -2.3396
   37MOL0     H 4957   5.803   5.987  10.854  0.2038  0.2839 -0.5038
   37MOL0     H 4958   6.009   5.907  10.966 -2.2585  0.9559  0.8465
   37MOL0     H 4959   6.446   5.967  10.955 -0.5334 -2.1419 -3.0874
   37MOL0     H 4960   6.411   6.049  10.811 -1.5147 -1.4772 -0.5382
   37MOL0     H 4961   6.503   6.208  10.994 -0.5491  2.3593 -1.0812
   37MOL0     H 4962   6.369   6.249  10.919  3.0594 -1.9494 -4.0719
   37MOL0     H 4963   6.249   6.248  11.115 -0.1280 -0.0380  2.1967
   37MOL0     H 4964   6.265   6.080  11.138 -2.8066  1.7293  2.7385
   37MOL0     H 4965   6.378   6.220  11.330 -0.0057  1.2724  0.1310
   37MOL0     H 4966   6.501   6.266  11.219  0.8304 -0.3087 -0.7185
   37MOL0     H 4967   6.523   6.029  11.156  3.4098 -0.9867  1.1553
   37MOL0     H 4968   6.449   5.983  11.309  0.1094  1.2774  1.5982
   37MOL0     H 4969   6.606   6.139  11.438  1.8789  1.1847 -0.7928
   37MOL0     H 4970   6.657   5.980  11.371 -1.1873 -0.6859  0.9314
   37MOL0     H 4971   6.706   6.263  11.272 -4.6958 -0.7937  4.3080
   37MOL0     H 4972   6.757   6.128  11.170  1.5234  0.0123  0.1191
   37MOL0     H 4973   6.961   6.159  11.272 -0.9199 -0.8602 -1.8825
   37MOL0     H 4974   6.886   6.232  11.409 -4.6202  3.9466 -3.3381
   37MOL0     H 4975   6.236   6.207  10.760 -1.1237  0.0932  0.4391
   37MOL0     H 4976   6.026   6.296  10.671  1.6677 -1.9536 -2.8421
   37MOL0     H 4977   5.595   6.336  10.654  0.9847 -3.2667  2.6631
   37MOL0     H 4978   5.367   6.391  10.591  1.0889 -0.5962  0.7208
   37MOL0     H 4979   4.048   5.627  10.805 -0.7653 -0.1680 -3.2602
   37MOL0     H 4980   3.856   5.514  10.721 -0.8644  0.8173 -0.9756
   37MOL0     H 4981   3.584   5.385  10.381 -0.7968  4.5656 -2.7966
   37MOL0     H 4982   3.382   5.252  10.304 -0.9376 -1.2406  2.0588
   37MOL0     H 4983   3.187   5.103  10.368  1.3036 -0.4523 -1.8781
   37MOL0     H 4984   3.165   5.228  10.236  1.2233  1.9497  1.2358
   37MOL0     H 4985   2.920   5.194  10.250  1.9805  0.4065 -0.7502
   37MOL0     H 4986   2.930   5.138  10.414  0.1445 -2.2415  0.6664
   37MOL0     H 4987   3.044   4.923  10.318 -1.0039 -3.4585 -0.1796
   37MOL0     H 4988   2.994   4.992  10.159 -2.4220  2.1201  0.7493
   37MOL0     H 4989   2.847   4.814  10.259 -1.4484  0.1450 -1.1101
   37MOL0     H 4990   2.811   4.936  10.393 -0.7214 -0.1861  0.7010
   37MOL0     H 4991   2.570   5.069  10.071 -0.0223 -1.7718 -0.6156
   37MOL0     H 4992   3.141   5.477  10.569 -0.2357 -1.0795 -1.9689
   37MOL0     H 4993   3.384   5.743  10.653 -1.8271  2.7182  0.5051
   37MOL0     H 4994   3.219   5.695  10.667  0.0905 -1.0187  0.4583
   37MOL0     H 4995   3.341   5.609  10.768  0.4322 -1.3655 -0.9161
   38MOL0     O 4996   4.682   6.354   2.031  0.3212  0.0335 -0.2282
   38MOL0     C 4997   4.667   6.345   1.907  0.4602 -0.8970 -0.0203
   38MOL0     O 4998   4.741   6.410   1.813  0.1327 -0.4560  0.0343
   38MOL0     C 4999   4.876   6.427   1.837 -0.2431 -0.1369 -0.4671
   38MOL0     C 5000   4.963   6.326   1.814  0.3674 -0.1575 -0.1707
   38MOL0     C 5001   5.102   6.343   1.841  0.6203  0.4325 -0.0358
   38MOL0     C 5002   5.153   6.461   1.893 -1.3323  0.2478  0.1892
   38MOL0     O 5003   5.276   6.447   1.931 -0.1755 -0.7063 -0.3163
   38MOL0     C 5004   5.369   6.417   1.822 -0.0117  0.0504 -0.3790
   38MOL0     C 5005   5.425   6.551   1.756 -0.3091 -0.1567  0.4843
   38MOL0     C 5006   5.546   6.528   1.669  0.6297 -0.0645 -0.2804
   38MOL0     C 5007   5.673   6.515   1.748 -0.7572  0.5653 -1.0248
   38MOL0     C 5008   5.793   6.509   1.651  0.1250  1.2397  0.2771
   38MOL0     C 5009   5.921   6.445   1.704 -0.3725 -0.2412 -0.5899
   38MOL0     C 5010   6.032   6.419   1.606 -0.5343 -0.4539  0.0823
   38MOL0     C 5011   6.081   6.550   1.540 -0.8369  0.4054  0.0049
   38MOL0     N 5012   6.225   6.545   1.515  0.4684 -0.2096  0.4234
   38MOL0     C 5013   6.327   6.587   1.591 -0.4135 -0.3412  0.6814
   38MOL0     C 5014   6.436   6.550   1.524 -0.2708 -0.1771  0.0440
   38MOL0     C 5015   6.565   6.583   1.576 -0.7798 -0.2084 -0.4713
   38MOL0     C 5016   6.579   6.730   1.569 -0.3296  0.3766  0.7426
   38MOL0     C 5017   6.723   6.779   1.616  0.6560  0.4415 -0.2547
   38MOL0     C 5018   6.748   6.928   1.609 -0.1247  0.6429  0.2834
   38MOL0     O 5019   6.889   6.951   1.588 -0.0646  0.0183 -0.4579
   38MOL0     C 5020   6.978   6.952   1.693 -0.5966 -0.5098  0.5892
   38MOL0     C 5021   6.942   6.928   1.828  0.2374 -0.1878 -0.6183
   38MOL0     C 5022   7.045   6.947   1.929 -0.5731  0.6121 -0.5176
   38MOL0     C 5023   7.183   6.963   1.899 -0.8074 -0.7585 -0.3632
   38MOL0     C 5024   7.281   6.971   2.004  0.2314 -0.4936  0.0725
   38MOL0     O 5025   7.251   6.924   2.131 -0.4913  0.6886 -0.3218
   38MOL0     C 5026   7.346   6.893   2.226 -1.0233 -0.0326  0.2441
   38MOL0     C 5027   7.297   6.871   2.352 -0.3171 -0.7003  0.5334
   38MOL0     C 5028   7.379   6.840   2.463  0.0365 -0.2168  0.3916
   38MOL0     C 5029   7.515   6.827   2.450  0.1709  0.1716  0.2859
   38MOL0     O 5030   7.610   6.793   2.537  0.9959 -0.8105 -0.0618
   38MOL0     C 5031   7.586   6.688   2.628 -1.2115  0.3475  0.3165
   38MOL0     C 5032   7.710   6.651   2.720 -0.4968 -0.4061 -0.2074
   38MOL0     C 5033   7.818   6.584   2.632  0.8241  0.7785  0.3886
   38MOL0     C 5034   7.961   6.572   2.695  0.0403  0.2666 -0.4318
   38MOL0     C 5035   8.070   6.548   2.594 -0.2816  0.8405  0.2521
   38MOL0     C 5036   8.073   6.402   2.539 -0.2353  0.3615  0.4541
   38MOL0     C 5037   8.200   6.377   2.452  0.3507 -0.1445  0.2295
   38MOL0     C 5038   8.238   6.231   2.445  0.1708  0.7534 -0.2309
   38MOL0    Cl 5039   8.109   6.145   2.342  0.0567 -0.5585  0.0028
   38MOL0     C 5040   7.562   6.848   2.317  0.3578  0.3528  0.1873
   38MOL0     C 5041   7.481   6.873   2.204 -0.2871  0.5564  0.4342
   38MOL0     O 5042   7.387   7.004   1.966 -0.4233  0.5028 -0.6730
   38MOL0     C 5043   7.208   6.989   1.765 -0.4335 -0.6127  0.8729
   38MOL0     C 5044   7.114   6.982   1.664 -0.4082 -0.9703  0.3359
   38MOL0     N 5045   6.399   6.490   1.406 -0.5073  0.1468 -0.1537
   38MOL0     N 5046   6.274   6.491   1.396  0.0102 -0.0902 -1.0989
   38MOL0     C 5047   5.066   6.565   1.917 -0.7861 -0.3482 -0.3817
   38MOL0     C 5048   4.929   6.541   1.898  0.0499 -0.5490  0.2916
   38MOL0     C 5049   4.550   6.271   1.862  0.4595  0.7541  0.3021
   38MOL0     C 5050   4.484   6.314   1.744 -0.0573  0.1712  0.5556
   38MOL0     C 5051   4.375   6.246   1.700  0.7317  0.0599 -0.0234
   38MOL0     C 5052   4.325   6.128   1.765  0.3973 -0.2102 -0.0358
   38MOL0     O 5053   4.210   6.070   1.711 -0.0614  0.1944  0.1069
   38MOL0     C 5054   4.162   5.948   1.756  0.8598 -0.3715 -0.6234
   38MOL0     C 5055   4.018   5.928   1.702  0.0878  0.1426 -0.1979
   38MOL0     C 5056   3.934   5.823   1.763 -0.0517  0.6623  0.8519
   38MOL0     C 5057   3.948   5.826   1.913 -0.1974  0.3510 -0.4136
   38MOL0     C 5058   3.881   5.719   1.991  0.2566  0.0477  0.2926
   38MOL0     C 5059   3.822   5.627   2.042  0.7107  0.3906  0.2814
   38MOL0     C 5060   4.399   6.081   1.882 -0.5713  0.1502 -0.2249
   38MOL0     C 5061   4.512   6.148   1.922  0.1089 -0.7799 -0.3872
   38MOL0     C 5062   4.607   6.078   2.018 -0.6372  0.3004 -0.2274
   38MOL0     H 5063   4.923   6.236   1.767 -4.0949  1.0065  0.9117
   38MOL0     H 5064   5.156   6.249   1.840 -0.2317 -0.0768  0.0126
   38MOL0     H 5065   5.441   6.356   1.877  0.4077  1.2635  0.4427
   38MOL0     H 5066   5.339   6.345   1.745  1.7619  0.5289 -1.5720
   38MOL0     H 5067   5.460   6.620   1.833 -2.8140  2.4806 -0.5683
   38MOL0     H 5068   5.345   6.596   1.697 -2.0197 -2.1335  1.1424
   38MOL0     H 5069   5.554   6.614   1.602 -0.3435 -0.9907 -1.6556
   38MOL0     H 5070   5.537   6.440   1.605 -0.8204 -1.6046  1.9122
   38MOL0     H 5071   5.674   6.584   1.833 -1.6103 -0.1502 -0.4191
   38MOL0     H 5072   5.668   6.416   1.795 -0.0050  1.3448  0.7638
   38MOL0     H 5073   5.755   6.452   1.565  1.2890 -0.5636  0.8936
   38MOL0     H 5074   5.824   6.610   1.621 -0.9274  0.6516 -3.2697
   38MOL0     H 5075   5.965   6.524   1.766  1.5633 -2.1535  0.6199
   38MOL0     H 5076   5.898   6.362   1.770 -3.4535 -0.7995 -2.1855
   38MOL0     H 5077   6.009   6.355   1.521 -0.3080 -0.2314 -0.1507
   38MOL0     H 5078   6.112   6.378   1.668 -0.3683 -2.1479 -1.1813
   38MOL0     H 5079   6.020   6.570   1.452 -0.9662  1.2117  0.2670
   38MOL0     H 5080   6.064   6.640   1.600 -1.6074  1.2008 -1.3522
   38MOL0     H 5081   6.322   6.649   1.680  3.1698 -0.5991  1.1840
   38MOL0     H 5082   6.574   6.541   1.677  0.2588 -2.0081 -1.2529
   38MOL0     H 5083   6.641   6.538   1.511 -0.2277 -0.9041  0.6160
   38MOL0     H 5084   6.549   6.757   1.468 -0.5125 -1.9956  0.0987
   38MOL0     H 5085   6.520   6.775   1.649 -1.2385  4.3223 -1.8651
   38MOL0     H 5086   6.798   6.727   1.557  3.3836  1.8577  1.7552
   38MOL0     H 5087   6.721   6.748   1.721  1.9157 -1.7400 -0.8198
   38MOL0     H 5088   6.716   6.978   1.700 -0.3961  1.5569 -0.2932
   38MOL0     H 5089   6.693   6.973   1.526 -1.9397  2.1762  2.2145
   38MOL0     H 5090   6.838   6.914   1.854 -0.0128  3.4521  0.8292
   38MOL0     H 5091   7.013   6.950   2.033  2.4320 -0.2792  0.5424
   38MOL0     H 5092   7.189   6.866   2.363 -0.7031  2.2693 -1.0378
   38MOL0     H 5093   7.337   6.814   2.559  1.0539  1.2746  1.2750
   38MOL0     H 5094   7.507   6.726   2.693  1.4606  2.2052  2.6774
   38MOL0     H 5095   7.556   6.597   2.576  2.4533 -1.0043  0.2676
   38MOL0     H 5096   7.749   6.742   2.769 -0.1097 -1.3277  1.2688
   38MOL0     H 5097   7.691   6.590   2.809  2.2791  2.1474  2.3824
   38MOL0     H 5098   7.778   6.485   2.610 -0.6433  0.5224  3.6257
   38MOL0     H 5099   7.825   6.639   2.538 -1.2057 -1.7843 -1.4229
   38MOL0     H 5100   7.967   6.485   2.761  2.3534 -1.8558 -3.2352
   38MOL0     H 5101   7.988   6.669   2.740 -1.3862  1.1190 -1.3451
   38MOL0     H 5102   8.167   6.557   2.643  0.4907 -0.1884 -1.0203
   38MOL0     H 5103   8.055   6.622   2.515  1.3137 -0.1199 -1.0015
   38MOL0     H 5104   8.079   6.326   2.618  0.6813 -0.6566 -0.5378
   38MOL0     H 5105   7.982   6.374   2.484 -1.0948  1.0292  1.5041
   38MOL0     H 5106   8.290   6.429   2.489  3.4444 -3.2419 -2.2878
   38MOL0     H 5107   8.178   6.412   2.351  2.7361  1.2427  0.1173
   38MOL0     H 5108   8.339   6.221   2.405 -0.4481 -0.8663 -1.5440
   38MOL0     H 5109   8.234   6.187   2.545  0.4919  0.4660 -0.3395
   38MOL0     H 5110   7.670   6.832   2.314  0.8254  2.7079  1.8621
   38MOL0     H 5111   7.528   6.866   2.106  1.7114 -0.6169  1.4181
   38MOL0     H 5112   7.308   7.020   1.734 -0.8934 -0.5246 -0.6234
   38MOL0     H 5113   7.163   7.002   1.570  2.4214  0.4611  1.9906
   38MOL0     H 5114   5.100   6.662   1.951 -1.5755 -0.3830  0.5753
   38MOL0     H 5115   4.861   6.624   1.915  1.1917  1.1386 -2.7620
   38MOL0     H 5116   4.532   6.393   1.687 -3.7062  1.1399 -1.4779
   38MOL0     H 5117   4.320   6.274   1.611  0.6575  2.1245  0.6336
   38MOL0     H 5118   4.154   5.948   1.865 -2.8430 -0.4624 -0.7635
   38MOL0     H 5119   4.230   5.873   1.716 -0.2785 -1.5354 -0.4374
   38MOL0     H 5120   4.029   5.908   1.595  3.1078  0.0993  0.0269
   38MOL0     H 5121   3.966   6.023   1.715  1.3368  0.7598  0.5859
   38MOL0     H 5122   3.959   5.725   1.722  1.8467  1.6718 -0.5426
   38MOL0     H 5123   3.831   5.840   1.732 -0.0054  1.1450  0.9528
   38MOL0     H 5124   4.046   5.800   1.954 -1.6632 -1.6619  2.0880
   38MOL0     H 5125   3.925   5.925   1.955 -1.4513 -0.2557  0.3774
   38MOL0     H 5126   3.772   5.543   2.084 -0.8481  1.3657  0.4480
   38MOL0     H 5127   4.384   5.985   1.930  0.5792  0.1716  0.2070
   38MOL0     H 5128   4.711   6.094   1.989 -0.2380  0.3267  1.1651
   38MOL0     H 5129   4.601   6.114   2.121 -3.5763  2.7937 -1.1085
   38MOL0     H 5130   4.580   5.972   2.020 -0.8091  0.2770 -2.1195
   39MOL0     O 5131   1.951   2.777   2.500 -0.2163  0.0570  0.5597
   39MOL0     C 5132   1.847   2.792   2.555  0.2549  0.3469  0.1657
   39MOL0     O 5133   1.835   2.789   2.681  0.6232 -0.4625  0.2445
   39MOL0     C 5134   1.941   2.793   2.758  0.2886  0.5182 -0.9398
   39MOL0     C 5135   2.005   2.903   2.804 -0.5458  0.0033 -0.1274
   39MOL0     C 5136   2.110   2.900   2.887  0.4862 -0.2935  0.1785
   39MOL0     C 5137   2.174   2.775   2.918 -0.4844 -0.2025 -0.7270
   39MOL0     O 5138   2.291   2.756   2.979 -0.2064 -0.0316  0.7172
   39MOL0     C 5139   2.377   2.866   3.005  0.2423  0.1668 -0.1517
   39MOL0     C 5140   2.504   2.811   3.076  0.4033  1.0417 -0.1242
   39MOL0     C 5141   2.592   2.731   2.985 -0.7894  0.7420 -0.0305
   39MOL0     C 5142   2.684   2.648   3.075  0.2945  1.9989  0.2119
   39MOL0     C 5143   2.782   2.548   2.992  0.3494  0.1260  0.3202
   39MOL0     C 5144   2.876   2.478   3.085 -0.1668  0.0264  1.1115
   39MOL0     C 5145   2.971   2.386   2.998 -0.6839  0.7731 -0.2326
   39MOL0     C 5146   2.901   2.262   2.941 -0.0240  0.9034  0.6857
   39MOL0     N 5147   2.997   2.175   2.881  0.1774  0.6766  0.0871
   39MOL0     C 5148   3.081   2.083   2.935  0.0084  0.3068 -0.8576
   39MOL0     C 5149   3.155   2.024   2.840  0.4133  0.6277 -0.4832
   39MOL0     C 5150   3.268   1.921   2.842  0.6709 -0.7262 -0.9000
   39MOL0     C 5151   3.361   1.956   2.951 -0.3824  0.3460  0.5695
   39MOL0     C 5152   3.473   2.040   2.913 -0.8098  0.2020 -0.0106
   39MOL0     C 5153   3.545   2.114   3.023 -0.8541 -0.4210 -0.4899
   39MOL0     O 5154   3.659   2.184   2.963  0.1698 -0.2354  0.1090
   39MOL0     C 5155   3.786   2.187   3.022  0.3321  0.9129 -0.3722
   39MOL0     C 5156   3.888   2.233   2.941 -0.7215 -0.6274  0.9224
   39MOL0     C 5157   4.021   2.240   2.982 -0.8220  0.2592  0.2569
   39MOL0     C 5158   4.066   2.190   3.106 -0.5742  0.1922  0.2341
   39MOL0     C 5159   4.201   2.199   3.155 -0.5960 -0.3927 -0.0266
   39MOL0     O 5160   4.296   2.252   3.074 -0.2190  0.0893  0.2337
   39MOL0     C 5161   4.425   2.274   3.109 -0.0778 -0.0613  0.0780
   39MOL0     C 5162   4.511   2.169   3.126 -0.2823  0.1060  0.2384
   39MOL0     C 5163   4.645   2.189   3.163 -0.1214 -0.9724 -0.0928
   39MOL0     C 5164   4.697   2.322   3.168  0.0830  0.3878  0.4119
   39MOL0     O 5165   4.819   2.364   3.211 -0.3606  0.3885  0.7163
   39MOL0     C 5166   4.912   2.261   3.244  0.0070  0.5406  0.1650
   39MOL0     C 5167   5.047   2.320   3.281  0.1413  0.2289 -0.4354
   39MOL0     C 5168   5.151   2.219   3.336  0.5722 -0.7344 -0.4372
   39MOL0     C 5169   5.294   2.260   3.318  0.8736  0.1966  0.5346
   39MOL0     C 5170   5.397   2.167   3.379  0.7223  0.2535  0.6481
   39MOL0     C 5171   5.373   2.014   3.381 -0.1615  0.0170 -0.0500
   39MOL0     C 5172   5.482   1.947   3.463 -0.4393 -0.0910 -0.1263
   39MOL0     C 5173   5.496   1.806   3.422  0.0853 -0.0817  0.7177
   39MOL0    Cl 5174   5.642   1.748   3.516 -0.0590  0.2912  0.0090
   39MOL0     C 5175   4.603   2.425   3.120 -0.1152  0.5062  0.2189
   39MOL0     C 5176   4.472   2.404   3.089  0.6947 -0.7442 -0.4738
   39MOL0     O 5177   4.224   2.168   3.270  0.1292 -0.0589 -0.7059
   39MOL0     C 5178   3.970   2.127   3.182  0.4493 -0.0916  0.2941
   39MOL0     C 5179   3.828   2.134   3.143  0.2990 -0.0954  0.5235
   39MOL0     N 5180   3.103   2.078   2.718 -0.0425 -0.3723 -0.3884
   39MOL0     N 5181   3.010   2.172   2.744  0.2550  0.8571  0.1162
   39MOL0     C 5182   2.110   2.662   2.875 -0.6121 -0.3062 -0.2726
   39MOL0     C 5183   1.998   2.671   2.787  0.6467 -0.2699  0.3157
   39MOL0     C 5184   1.718   2.806   2.467 -0.5543 -0.2943 -0.4327
   39MOL0     C 5185   1.594   2.810   2.538  1.5766 -0.3589 -0.2025
   39MOL0     C 5186   1.474   2.825   2.478  0.7738  0.2084  0.4387
   39MOL0     C 5187   1.472   2.817   2.334 -0.4980  0.1858 -0.1663
   39MOL0     O 5188   1.365   2.831   2.258  0.6625  0.1395  0.0069
   39MOL0     C 5189   1.236   2.843   2.319 -0.8556  0.1027 -0.3626
   39MOL0     C 5190   1.131   2.840   2.218 -0.1893  0.0603 -0.5514
   39MOL0     C 5191   0.991   2.864   2.301 -0.3053  0.0006 -0.0888
   39MOL0     C 5192   0.875   2.890   2.208 -0.4368  0.2207  0.1307
   39MOL0     C 5193   0.749   2.898   2.281 -0.0906  1.0870 -0.2340
   39MOL0     C 5194   0.657   2.916   2.346  0.3407  0.4514 -0.8232
   39MOL0     C 5195   1.588   2.799   2.260  0.2626 -0.2951  0.9860
   39MOL0     C 5196   1.718   2.789   2.325  0.3301 -0.2770 -0.2369
   39MOL0     C 5197   1.841   2.765   2.239  0.3042 -0.9346  0.5773
   39MOL0     H 5198   1.957   2.999   2.788 -2.2928 -1.0896 -1.9646
   39MOL0     H 5199   2.134   2.993   2.938 -2.7720  0.8103 -0.0836
   39MOL0     H 5200   2.404   2.922   2.915 -2.7889 -1.2840 -2.1742
   39MOL0     H 5201   2.324   2.933   3.074  3.3836  0.3808  2.2511
   39MOL0     H 5202   2.472   2.743   3.156 -1.4669 -0.9146 -2.4062
   39MOL0     H 5203   2.558   2.893   3.124  0.1522  1.1996 -0.1076
   39MOL0     H 5204   2.647   2.798   2.918  3.6961 -0.4227  2.1261
   39MOL0     H 5205   2.535   2.657   2.927  0.9014 -0.5463 -0.1293
   39MOL0     H 5206   2.748   2.713   3.136  1.4603  0.8841  0.2362
   39MOL0     H 5207   2.623   2.580   3.135  0.1835  1.4456 -0.5133
   39MOL0     H 5208   2.722   2.476   2.936  1.5741 -0.8579  0.2294
   39MOL0     H 5209   2.839   2.612   2.924  1.3551 -0.4622  0.5896
   39MOL0     H 5210   2.939   2.550   3.138  0.3592  1.4760 -1.3047
   39MOL0     H 5211   2.822   2.414   3.155 -2.1429 -1.4729 -1.5913
   39MOL0     H 5212   3.057   2.361   3.060  0.1899 -1.1252 -2.0755
   39MOL0     H 5213   3.022   2.435   2.915  0.2486  0.7949  0.3391
   39MOL0     H 5214   2.844   2.209   3.017 -0.8217 -1.0205 -1.1406
   39MOL0     H 5215   2.829   2.300   2.868  0.3760  1.3875  0.5361
   39MOL0     H 5216   3.101   2.066   3.041 -0.5135  1.6302 -0.5167
   39MOL0     H 5217   3.228   1.828   2.884 -0.3617  0.4824  0.9641
   39MOL0     H 5218   3.313   1.906   2.744 -0.1290 -0.2912 -1.3397
   39MOL0     H 5219   3.315   1.999   3.041  1.1319 -0.1914  1.6510
   39MOL0     H 5220   3.398   1.858   2.983 -1.2869  0.0310  0.6845
   39MOL0     H 5221   3.446   2.123   2.847  2.2494  1.3432 -0.0036
   39MOL0     H 5222   3.544   1.981   2.855 -0.9721  0.6060 -0.6296
   39MOL0     H 5223   3.586   2.042   3.094  2.9394  1.1030 -0.9392
   39MOL0     H 5224   3.472   2.182   3.068  1.0639 -0.8106  3.6619
   39MOL0     H 5225   3.879   2.300   2.856  1.2563  2.3775  2.8907
   39MOL0     H 5226   4.093   2.304   2.931 -3.2659  2.3111 -0.8472
   39MOL0     H 5227   4.461   2.073   3.134 -1.4767  0.6268 -0.7184
   39MOL0     H 5228   4.702   2.106   3.204  0.9864 -0.8723 -1.3622
   39MOL0     H 5229   4.881   2.210   3.336  1.5547  2.2298  1.6863
   39MOL0     H 5230   4.926   2.197   3.156  0.1916  2.3213 -1.1501
   39MOL0     H 5231   5.099   2.371   3.200  1.2437  0.2589  0.2661
   39MOL0     H 5232   5.025   2.402   3.350  0.9779 -0.4192  0.6289
   39MOL0     H 5233   5.152   2.206   3.444  2.5498 -0.9470 -0.4483
   39MOL0     H 5234   5.135   2.124   3.284 -0.1769  1.1164 -3.9722
   39MOL0     H 5235   5.306   2.364   3.352  0.7498  0.5921 -0.6022
   39MOL0     H 5236   5.304   2.269   3.210 -0.5877 -0.5661  0.3102
   39MOL0     H 5237   5.406   2.195   3.485 -0.7452  1.6430  0.4356
   39MOL0     H 5238   5.498   2.190   3.343  0.2632  1.5873  0.1778
   39MOL0     H 5239   5.276   1.983   3.423  0.4838  0.0732  1.5778
   39MOL0     H 5240   5.364   1.981   3.278 -2.2238  0.4666 -0.0529
   39MOL0     H 5241   5.477   1.951   3.572 -1.7236  2.2244 -0.2102
   39MOL0     H 5242   5.567   2.007   3.427 -2.9677  2.5321 -2.1405
   39MOL0     H 5243   5.405   1.755   3.455 -0.1890 -2.6325 -3.3411
   39MOL0     H 5244   5.510   1.776   3.318  2.1462 -0.6329  1.1063
   39MOL0     H 5245   4.649   2.523   3.114  0.5908  0.2613  1.3260
   39MOL0     H 5246   4.413   2.488   3.052 -0.0407 -2.0908 -2.5147
   39MOL0     H 5247   3.991   2.086   3.280 -2.9524 -0.3168  1.0401
   39MOL0     H 5248   3.758   2.091   3.214  2.0795 -2.3294  1.0490
   39MOL0     H 5249   2.159   2.569   2.900  0.8474 -0.4197 -3.0849
   39MOL0     H 5250   1.947   2.585   2.745 -1.3913  2.2949 -3.0062
   39MOL0     H 5251   1.589   2.804   2.646  0.6721 -0.0658 -0.2218
   39MOL0     H 5252   1.384   2.834   2.537  0.5361  0.2103  0.0761
   39MOL0     H 5253   1.227   2.930   2.386 -0.3415  0.9576 -1.3724
   39MOL0     H 5254   1.214   2.755   2.380 -2.5295  0.0382 -0.9932
   39MOL0     H 5255   1.141   2.744   2.167  0.9815  1.0789 -2.3372
   39MOL0     H 5256   1.158   2.911   2.139 -1.2155  2.0961  0.8269
   39MOL0     H 5257   0.999   2.943   2.376  0.8477 -2.0686  2.1306
   39MOL0     H 5258   0.975   2.773   2.360  4.1842 -1.0481 -0.0852
   39MOL0     H 5259   0.886   2.987   2.161 -1.5999  0.7686  0.9454
   39MOL0     H 5260   0.868   2.813   2.131  0.4540 -2.9831  2.9867
   39MOL0     H 5261   0.583   2.961   2.409 -0.0393 -1.2292 -0.0217
   39MOL0     H 5262   1.575   2.784   2.154  1.1759  3.0625  0.2955
   39MOL0     H 5263   1.864   2.658   2.246  0.3435 -0.9663 -0.0303
   39MOL0     H 5264   1.820   2.793   2.136 -2.7880 -1.4380  0.9664
   39MOL0     H 5265   1.924   2.833   2.259  0.7149 -0.7825 -1.4588
   40MOL0     O 5266   8.634  10.586   3.048  0.2892  0.2807 -0.0052
   40MOL0     C 5267   8.683  10.657   3.132  0.0290  0.2418 -0.0151
   40MOL0     O 5268   8.806  10.712   3.122  0.3533  0.4498  0.4509
   40MOL0     C 5269   8.876  10.684   3.009 -0.1443  0.1766 -0.0098
   40MOL0     C 5270   8.979  10.589   3.012 -0.3220  0.2632  0.1025
   40MOL0     C 5271   9.052  10.560   2.895  0.4431 -0.5176 -0.2754
   40MOL0     C 5272   9.022  10.624   2.774 -0.2096 -0.0139  0.5779
   40MOL0     O 5273   9.094  10.613   2.651 -0.0792  1.0960  0.0725
   40MOL0     C 5274   9.239  10.587   2.666 -0.4894  0.1581  0.5644
   40MOL0     C 5275   9.308  10.599   2.531 -0.6444 -0.3232 -0.9526
   40MOL0     C 5276   9.458  10.551   2.529 -0.0656  0.1763 -0.3005
   40MOL0     C 5277   9.496  10.549   2.378  0.2586  0.0411 -0.0139
   40MOL0     C 5278   9.643  10.536   2.345  0.6160 -0.1183 -0.1853
   40MOL0     C 5279   9.719  10.422   2.408  0.1837  0.3819 -0.9652
   40MOL0     C 5280   9.851  10.409   2.345 -0.9950  0.3595 -0.1160
   40MOL0     C 5281   9.963  10.346   2.438  0.2468 -1.0517  0.3004
   40MOL0     N 5282  10.090  10.415   2.426  0.2035 -0.1141 -0.4814
   40MOL0     C 5283  10.160  10.423   2.308  0.1009  0.5401  0.3576
   40MOL0     C 5284  10.271  10.496   2.332  0.2402 -0.0120  0.2252
   40MOL0     C 5285  10.376  10.525   2.230 -0.2902 -0.9811 -0.0909
   40MOL0     C 5286  10.430  10.670   2.240  0.3202  0.2424 -0.0774
   40MOL0     C 5287  10.555  10.688   2.151 -0.5683 -0.2383 -0.7045
   40MOL0     C 5288  10.627  10.822   2.186 -0.4091 -0.1654 -0.1628
   40MOL0     O 5289  10.756  10.826   2.108  0.4599 -0.8566 -0.3011
   40MOL0     C 5290  10.808  10.958   2.095  0.5029  1.0285 -0.5187
   40MOL0     C 5291  10.920  10.971   2.008  0.2951 -0.3352  0.2570
   40MOL0     C 5292  10.983  11.095   1.995 -0.0516 -0.6613 -0.7755
   40MOL0     C 5293  10.951  11.207   2.078  0.1204  0.1677 -0.3708
   40MOL0     C 5294  11.029  11.336   2.060  0.1868 -0.0384 -0.2525
   40MOL0     O 5295  11.161  11.327   2.014  0.4006  0.6804  0.2028
   40MOL0     C 5296  11.227  11.441   1.991  0.7720 -0.2466  0.2317
   40MOL0     C 5297  11.281  11.458   1.859 -0.5966 -0.6979 -0.0517
   40MOL0     C 5298  11.354  11.570   1.830 -0.4888  0.5373 -0.0883
   40MOL0     C 5299  11.393  11.662   1.930 -0.3864 -0.0458  0.7104
   40MOL0     O 5300  11.471  11.767   1.904 -0.2832  0.0318  0.0910
   40MOL0     C 5301  11.464  11.837   1.783  0.9501 -0.0031  0.0594
   40MOL0     C 5302  11.536  11.967   1.789  0.2442  0.1926 -0.4622
   40MOL0     C 5303  11.690  11.971   1.818  0.1993  0.6863  0.7633
   40MOL0     C 5304  11.757  11.897   1.705 -0.1704 -0.4871  0.1353
   40MOL0     C 5305  11.908  11.935   1.697 -0.1617  0.1174  0.2059
   40MOL0     C 5306  11.986  11.828   1.616  0.0747  0.4544  0.4945
   40MOL0     C 5307  12.136  11.857   1.627  0.2541 -0.8586  0.3554
   40MOL0     C 5308  12.205  11.935   1.511 -0.3480  0.4134 -0.1133
   40MOL0    Cl 5309  12.146  12.106   1.527  0.1961 -0.5167  0.0075
   40MOL0     C 5310  11.347  11.642   2.066  1.0434  0.2548 -0.1773
   40MOL0     C 5311  11.267  11.530   2.097 -0.1932 -1.2073  0.0952
   40MOL0     O 5312  10.970  11.439   2.087  0.2802  0.2151 -0.3846
   40MOL0     C 5313  10.846  11.192   2.158  0.0585 -0.0457  0.4311
   40MOL0     C 5314  10.776  11.067   2.179  0.0644 -0.3663  0.0426
   40MOL0     N 5315  10.277  10.525   2.469  0.6253  0.7950  0.1314
   40MOL0     N 5316  10.167  10.476   2.518  0.4261 -0.2593 -0.3957
   40MOL0     C 5317   8.910  10.710   2.773  0.0887 -0.5264 -0.1973
   40MOL0     C 5318   8.839  10.740   2.890 -0.5121 -0.2481  1.0403
   40MOL0     C 5319   8.604  10.703   3.246 -0.1679 -0.9041  0.6205
   40MOL0     C 5320   8.620  10.630   3.365 -0.0984 -0.1764  0.1389
   40MOL0     C 5321   8.564  10.676   3.480  0.0584  0.2866  0.8927
   40MOL0     C 5322   8.488  10.790   3.490  0.3170 -0.0319  0.9795
   40MOL0     O 5323   8.431  10.826   3.610  0.1080  0.7577 -0.8917
   40MOL0     C 5324   8.348  10.933   3.615 -0.2528  0.6390  0.2876
   40MOL0     C 5325   8.303  10.941   3.760 -0.7598  0.0041  0.0966
   40MOL0     C 5326   8.201  10.822   3.798 -0.8627  0.2573 -0.0531
   40MOL0     C 5327   8.220  10.814   3.955  0.1759 -0.1395  1.0076
   40MOL0     C 5328   8.138  10.700   4.008  0.9442 -0.6606  0.2381
   40MOL0     C 5329   8.072  10.607   4.052 -0.2449  0.6744  0.4657
   40MOL0     C 5330   8.483  10.863   3.371  0.2258  0.7872  0.4200
   40MOL0     C 5331   8.534  10.827   3.244 -0.9910 -0.5418 -0.6694
   40MOL0     C 5332   8.533  10.925   3.134  1.1814  0.0822  0.0294
   40MOL0     H 5333   9.015  10.536   3.099  1.1732  0.0863 -0.5828
   40MOL0     H 5334   9.127  10.483   2.910 -0.5046 -1.6834 -1.2262
   40MOL0     H 5335   9.290  10.654   2.736  0.8439 -0.0973 -0.1162
   40MOL0     H 5336   9.247  10.486   2.707  2.4000  0.4958  1.0909
   40MOL0     H 5337   9.307  10.704   2.503  0.6685 -0.5284 -1.8759
   40MOL0     H 5338   9.251  10.548   2.453 -1.6153 -0.4436 -0.1864
   40MOL0     H 5339   9.467  10.447   2.562 -1.1223 -0.6568 -2.4820
   40MOL0     H 5340   9.517  10.613   2.598 -1.6864  2.3505 -0.7630
   40MOL0     H 5341   9.450  10.461   2.332  2.2608 -1.5511  0.8889
   40MOL0     H 5342   9.459  10.641   2.330 -0.3679  0.5164  1.3380
   40MOL0     H 5343   9.649  10.534   2.236 -1.6247 -0.6389 -0.3395
   40MOL0     H 5344   9.690  10.626   2.386 -1.0273  0.4232  0.6278
   40MOL0     H 5345   9.732  10.445   2.514 -0.9059  1.1583 -0.9815
   40MOL0     H 5346   9.657  10.332   2.404  0.9752 -0.1347 -2.2700
   40MOL0     H 5347   9.880  10.510   2.314 -0.1698  0.0036 -0.5535
   40MOL0     H 5348   9.839  10.348   2.255  0.2939  0.7007 -0.5432
   40MOL0     H 5349   9.926  10.350   2.541 -1.8790 -1.2419 -0.3969
   40MOL0     H 5350   9.986  10.243   2.407  0.4937 -0.0750 -3.1021
   40MOL0     H 5351  10.129  10.372   2.217  0.3582  1.0542 -0.0171
   40MOL0     H 5352  10.460  10.459   2.250  0.4820 -0.4031 -1.2905
   40MOL0     H 5353  10.337  10.510   2.129  0.0059 -1.3659 -0.1498
   40MOL0     H 5354  10.348  10.737   2.213 -0.0825  0.1058  0.7951
   40MOL0     H 5355  10.455  10.685   2.345  3.1672 -1.2186 -0.4519
   40MOL0     H 5356  10.510  10.689   2.051  0.3891 -2.4911 -1.2236
   40MOL0     H 5357  10.610  10.594   2.154 -0.8625 -0.4246 -0.9834
   40MOL0     H 5358  10.651  10.823   2.293  2.8484 -2.3059 -0.7229
   40MOL0     H 5359  10.550  10.896   2.160 -1.1572 -1.0001 -0.3833
   40MOL0     H 5360  10.942  10.882   1.951 -1.0087 -0.1702 -0.5285
   40MOL0     H 5361  11.067  11.106   1.927 -0.1258  0.8947 -0.6605
   40MOL0     H 5362  11.264  11.388   1.777 -0.5766  1.7084 -2.2206
   40MOL0     H 5363  11.403  11.582   1.734  2.7002 -1.2058  1.1753
   40MOL0     H 5364  11.507  11.778   1.701  0.3753 -0.8884  0.3818
   40MOL0     H 5365  11.366  11.867   1.745  1.7082 -0.3218 -2.3408
   40MOL0     H 5366  11.527  12.022   1.695 -2.9839  3.6397  1.5587
   40MOL0     H 5367  11.489  12.025   1.869  0.2269 -0.3739 -0.0588
   40MOL0     H 5368  11.720  12.076   1.823 -2.4467  1.5536  0.1477
   40MOL0     H 5369  11.709  11.918   1.912 -0.6458 -1.4189 -0.1966
   40MOL0     H 5370  11.700  11.911   1.612  1.2080 -0.6464 -0.7755
   40MOL0     H 5371  11.746  11.792   1.732 -1.1828 -0.5455 -0.4440
   40MOL0     H 5372  11.949  11.936   1.799  4.1582  1.2746 -1.3463
   40MOL0     H 5373  11.918  12.035   1.655 -0.9124 -0.7632 -2.2716
   40MOL0     H 5374  11.973  11.735   1.672 -2.8278  1.7627  2.2234
   40MOL0     H 5375  11.954  11.801   1.515  1.9544 -0.3951  0.0800
   40MOL0     H 5376  12.198  11.768   1.643  2.1136  0.3248  0.0736
   40MOL0     H 5377  12.166  11.922   1.709 -0.2640 -0.3596  0.1526
   40MOL0     H 5378  12.312  11.934   1.533  0.0962  0.5316 -2.1319
   40MOL0     H 5379  12.190  11.892   1.412 -1.4110 -2.1501  1.0728
   40MOL0     H 5380  11.395  11.703   2.142  0.9605  0.2415 -0.1147
   40MOL0     H 5381  11.246  11.501   2.199 -1.3993 -2.7756 -0.5555
   40MOL0     H 5382  10.819  11.278   2.218 -2.3795 -0.1911 -0.3898
   40MOL0     H 5383  10.703  11.063   2.259 -1.2606  1.3115 -1.0158
   40MOL0     H 5384   8.877  10.763   2.685 -2.2939  2.7645  2.4085
   40MOL0     H 5385   8.755  10.806   2.877 -1.6222 -1.4121  2.0155
   40MOL0     H 5386   8.684  10.542   3.364  0.3401  0.1338  0.4910
   40MOL0     H 5387   8.575  10.612   3.567 -1.8957  0.8783  1.6142
   40MOL0     H 5388   8.262  10.914   3.550  0.1739  0.9736 -0.3898
   40MOL0     H 5389   8.400  11.021   3.577 -0.7529  0.5395 -0.6698
   40MOL0     H 5390   8.246  11.031   3.782 -1.2560 -0.3906  0.4436
   40MOL0     H 5391   8.389  10.945   3.827 -1.7319  0.9267  1.3166
   40MOL0     H 5392   8.233  10.730   3.749 -1.8256 -1.0392  1.6159
   40MOL0     H 5393   8.094  10.835   3.776 -0.4101 -0.8605 -3.5636
   40MOL0     H 5394   8.325  10.800   3.983  0.3494  0.2444  0.5517
   40MOL0     H 5395   8.181  10.902   4.006 -0.5167 -2.4149  4.8060
   40MOL0     H 5396   8.008  10.522   4.063  2.3668 -2.2403 -3.7601
   40MOL0     H 5397   8.416  10.947   3.355 -0.7175 -0.2347 -1.1355
   40MOL0     H 5398   8.635  10.963   3.120  1.6594 -0.6511  1.3792
   40MOL0     H 5399   8.494  10.883   3.041  1.3036  1.5213 -0.6996
   40MOL0     H 5400   8.465  11.009   3.153  2.3474  1.1107 -0.1835
   41MOL0     O 5401   5.921   0.560   2.037  0.2183  0.8308  0.2634
   41MOL0     C 5402   5.847   0.572   2.139  0.8422  0.6488  0.5848
   41MOL0     O 5403   5.893   0.568   2.268 -0.2456 -0.8154 -0.0863
   41MOL0     C 5404   6.028   0.567   2.284 -0.6008  0.5821 -0.0977
   41MOL0     C 5405   6.096   0.445   2.268 -0.4008 -0.1635 -0.4091
   41MOL0     C 5406   6.236   0.439   2.302  0.7735  0.5727  0.3638
   41MOL0     C 5407   6.304   0.551   2.354  0.1718 -0.7814  0.6248
   41MOL0     O 5408   6.431   0.560   2.399  0.3129  0.1956  0.3530
   41MOL0     C 5409   6.526   0.472   2.342 -0.7855 -0.0842  0.4143
   41MOL0     C 5410   6.662   0.519   2.381 -0.0736  0.5804 -0.0380
   41MOL0     C 5411   6.773   0.417   2.335  0.6472  0.4532 -0.2379
   41MOL0     C 5412   6.907   0.473   2.381 -0.1040  0.7398  0.9556
   41MOL0     C 5413   7.018   0.358   2.383 -0.2679 -0.3176 -0.3275
   41MOL0     C 5414   7.156   0.423   2.364 -0.1577 -0.5005 -0.4845
   41MOL0     C 5415   7.264   0.335   2.420 -0.6296 -0.0736 -0.7864
   41MOL0     C 5416   7.410   0.380   2.398 -0.3757 -0.2769 -1.0581
   41MOL0     N 5417   7.445   0.393   2.259  0.0422 -0.1219 -0.1235
   41MOL0     C 5418   7.504   0.496   2.197  0.7150  0.0970  0.1080
   41MOL0     C 5419   7.550   0.449   2.075 -0.1758 -1.0388  0.2955
   41MOL0     C 5420   7.617   0.531   1.975 -1.0138  0.3796  0.0732
   41MOL0     C 5421   7.764   0.552   2.029 -0.1495 -0.8987 -0.3385
   41MOL0     C 5422   7.840   0.656   1.954 -0.3960 -0.4367 -0.6538
   41MOL0     C 5423   7.988   0.653   1.974 -0.5400 -0.6746  0.2525
   41MOL0     O 5424   8.049   0.745   1.883 -0.2810 -0.3892  0.4509
   41MOL0     C 5425   8.158   0.811   1.925 -0.2923  0.8205 -0.8539
   41MOL0     C 5426   8.264   0.753   2.007  0.5436  0.8821 -0.2873
   41MOL0     C 5427   8.381   0.820   2.039  0.1816 -0.1557 -0.0727
   41MOL0     C 5428   8.387   0.961   2.009 -0.1899 -0.2621  0.1818
   41MOL0     C 5429   8.502   1.039   2.058  0.1444 -0.2608 -0.2018
   41MOL0     O 5430   8.494   1.172   2.040  0.0109  0.6113 -0.1096
   41MOL0     C 5431   8.607   1.242   2.079  0.5949 -0.0166  0.1055
   41MOL0     C 5432   8.636   1.264   2.211  0.3584  0.6465 -0.0535
   41MOL0     C 5433   8.750   1.340   2.248 -0.4105  0.3876  0.1656
   41MOL0     C 5434   8.847   1.375   2.151  0.0423  0.1929  0.9798
   41MOL0     O 5435   8.955   1.441   2.192 -0.5697 -0.6371 -0.1886
   41MOL0     C 5436   9.073   1.433   2.114 -0.0615 -0.2786 -0.0173
   41MOL0     C 5437   9.185   1.493   2.206 -0.1218  1.0148 -0.2407
   41MOL0     C 5438   9.331   1.492   2.158 -0.4203 -0.2786  0.0605
   41MOL0     C 5439   9.423   1.575   2.237 -0.2157  0.1337  0.0657
   41MOL0     C 5440   9.543   1.629   2.144  0.6451  0.6010  0.8542
   41MOL0     C 5441   9.648   1.523   2.099  0.3732  0.5090 -1.2367
   41MOL0     C 5442   9.754   1.602   2.014 -0.4697 -0.2052  0.1928
   41MOL0     C 5443   9.862   1.508   1.967 -0.5567  0.1662 -0.1442
   41MOL0    Cl 5444  10.001   1.604   1.898 -0.0206 -0.4653  0.3400
   41MOL0     C 5445   8.819   1.347   2.019  0.3585 -0.3566  0.4286
   41MOL0     C 5446   8.701   1.280   1.980  0.4942 -0.4173 -0.5025
   41MOL0     O 5447   8.591   0.982   2.115  0.1762  0.3479  0.3428
   41MOL0     C 5448   8.291   1.020   1.932 -0.1432  0.0989  0.3943
   41MOL0     C 5449   8.181   0.948   1.894 -0.3534 -0.0458  0.1794
   41MOL0     N 5450   7.512   0.312   2.068 -0.2602 -0.4739 -0.7729
   41MOL0     N 5451   7.447   0.286   2.178 -0.2248 -0.1812 -0.0887
   41MOL0     C 5452   6.224   0.665   2.381 -0.8807  0.5244 -0.6750
   41MOL0     C 5453   6.084   0.672   2.351 -0.2347 -0.5355  0.0235
   41MOL0     C 5454   5.700   0.586   2.106 -1.1711 -0.6183 -0.0787
   41MOL0     C 5455   5.653   0.540   1.981 -0.4541 -0.2758  0.7502
   41MOL0     C 5456   5.518   0.546   1.953  0.2952  0.0748 -0.6378
   41MOL0     C 5457   5.431   0.603   2.053  0.5238  0.1850  1.4816
   41MOL0     O 5458   5.311   0.605   1.992 -0.3604 -0.8943 -1.0275
   41MOL0     C 5459   5.194   0.641   2.074  0.0660  0.4493 -0.2580
   41MOL0     C 5460   5.179   0.785   2.081 -0.0849 -0.1781 -0.5933
   41MOL0     C 5461   5.049   0.836   2.154  0.6809  0.1279  0.0644
   41MOL0     C 5462   5.068   0.863   2.295 -0.5545  0.5281  0.1184
   41MOL0     C 5463   4.946   0.871   2.371 -0.6927  0.2194  0.5164
   41MOL0     C 5464   4.839   0.881   2.432 -0.7774 -0.6722  0.6520
   41MOL0     C 5465   5.481   0.653   2.169 -0.1005 -1.3176  1.1090
   41MOL0     C 5466   5.616   0.645   2.204  0.2404 -0.1096  0.2041
   41MOL0     C 5467   5.667   0.727   2.321 -0.0829  0.4040 -0.3966
   41MOL0     H 5468   6.036   0.361   2.236  1.1417 -2.4586  2.2437
   41MOL0     H 5469   6.284   0.345   2.279 -0.5952  0.6179 -3.2194
   41MOL0     H 5470   6.502   0.369   2.371 -1.8117 -0.0499 -0.2688
   41MOL0     H 5471   6.524   0.498   2.236  2.3984  1.8548  0.6855
   41MOL0     H 5472   6.674   0.545   2.486  0.2101  1.3069 -0.2419
   41MOL0     H 5473   6.656   0.608   2.317 -4.1170  0.6771  0.2331
   41MOL0     H 5474   6.766   0.391   2.229 -2.0726 -3.5714  0.6902
   41MOL0     H 5475   6.748   0.319   2.377 -1.0680  0.6493 -0.7136
   41MOL0     H 5476   6.938   0.561   2.323  0.1755  0.6775  1.0101
   41MOL0     H 5477   6.904   0.511   2.484  0.0129  0.3341  1.1076
   41MOL0     H 5478   7.010   0.306   2.479 -2.7788 -0.0456 -0.3361
   41MOL0     H 5479   7.018   0.291   2.297  1.7260 -0.1080 -0.5438
   41MOL0     H 5480   7.179   0.450   2.261  2.1944 -0.4813 -0.0084
   41MOL0     H 5481   7.160   0.514   2.425  0.1428 -0.1359 -1.0463
   41MOL0     H 5482   7.278   0.238   2.373  1.9116  0.6349 -1.6660
   41MOL0     H 5483   7.245   0.325   2.528 -0.5745  0.5274 -0.7166
   41MOL0     H 5484   7.415   0.478   2.446 -2.4938 -1.9145  2.9393
   41MOL0     H 5485   7.477   0.307   2.444 -2.0189 -0.8952  0.4691
   41MOL0     H 5486   7.524   0.594   2.238  1.1528  1.5828 -3.3251
   41MOL0     H 5487   7.637   0.477   1.882  1.8480  1.8941 -0.2942
   41MOL0     H 5488   7.563   0.625   1.957 -0.6944  1.1697  2.7410
   41MOL0     H 5489   7.763   0.580   2.134  1.1270 -0.2393 -0.4740
   41MOL0     H 5490   7.824   0.461   2.012 -1.2292 -1.9479  1.2181
   41MOL0     H 5491   7.797   0.756   1.969 -1.6589 -0.8106 -1.6040
   41MOL0     H 5492   7.806   0.654   1.850 -1.6765  0.1937 -0.2602
   41MOL0     H 5493   8.033   0.554   1.961  2.0945  0.3685  0.7357
   41MOL0     H 5494   7.999   0.689   2.077 -0.9480  2.7612 -0.7718
   41MOL0     H 5495   8.259   0.645   2.014 -1.9044  1.0317  1.9643
   41MOL0     H 5496   8.457   0.764   2.092  0.4371 -0.2914 -0.5703
   41MOL0     H 5497   8.562   1.229   2.282  0.9043 -2.9340 -1.0725
   41MOL0     H 5498   8.761   1.376   2.350 -2.8530  1.8142  0.0000
   41MOL0     H 5499   9.098   1.327   2.102 -0.1876 -0.3696  0.4830
   41MOL0     H 5500   9.065   1.487   2.020 -2.3449 -1.8911 -0.8504
   41MOL0     H 5501   9.159   1.598   2.227  0.1365  1.0808 -0.2442
   41MOL0     H 5502   9.176   1.433   2.297 -2.0402  1.6266  0.0189
   41MOL0     H 5503   9.368   1.389   2.155  0.3557 -0.0675  1.5760
   41MOL0     H 5504   9.326   1.535   2.057 -0.5070  2.8411  1.2735
   41MOL0     H 5505   9.474   1.540   2.327  0.3418  3.0692  1.0082
   41MOL0     H 5506   9.359   1.657   2.272  0.4409  0.3292  0.8566
   41MOL0     H 5507   9.591   1.707   2.204 -1.6905  1.2915  1.9283
   41MOL0     H 5508   9.499   1.677   2.057  1.5080 -0.9630 -0.5126
   41MOL0     H 5509   9.686   1.471   2.188 -0.9720 -0.5489 -1.2389
   41MOL0     H 5510   9.599   1.446   2.039  0.7858 -0.2789 -0.5876
   41MOL0     H 5511   9.802   1.689   2.059  0.4322 -1.3837  1.5999
   41MOL0     H 5512   9.705   1.631   1.920 -1.2766 -3.4037 -0.5142
   41MOL0     H 5513   9.887   1.436   2.046  0.5495 -0.4364 -1.0149
   41MOL0     H 5514   9.817   1.447   1.889  1.3619 -0.3774 -0.8931
   41MOL0     H 5515   8.890   1.384   1.945  3.1507 -0.8911  2.6695
   41MOL0     H 5516   8.686   1.263   1.874  1.3618  4.6156 -1.7227
   41MOL0     H 5517   8.289   1.125   1.905  0.2584 -0.8025 -3.8425
   41MOL0     H 5518   8.112   0.992   1.822  0.4492  0.6883 -0.1585
   41MOL0     H 5519   6.288   0.738   2.430 -0.6654 -0.2704  0.2610
   41MOL0     H 5520   6.022   0.758   2.373 -0.8282 -0.8821 -0.2732
   41MOL0     H 5521   5.706   0.504   1.894 -0.5687  2.5624 -0.6269
   41MOL0     H 5522   5.476   0.528   1.855  0.9156  1.5294 -1.2066
   41MOL0     H 5523   5.201   0.594   2.173  1.6187 -0.5463 -0.7982
   41MOL0     H 5524   5.109   0.597   2.020  1.8668 -0.8700 -2.1871
   41MOL0     H 5525   5.182   0.831   1.981 -2.5474  1.0552 -0.1622
   41MOL0     H 5526   5.270   0.823   2.128  1.3803 -2.5147 -1.3751
   41MOL0     H 5527   4.965   0.769   2.134  0.5092  0.7648 -1.4558
   41MOL0     H 5528   5.022   0.931   2.106 -2.1952 -0.0836  1.0702
   41MOL0     H 5529   5.122   0.776   2.333 -2.1852 -1.0045 -0.9312
   41MOL0     H 5530   5.120   0.958   2.311 -0.6523  0.0803  4.0144
   41MOL0     H 5531   4.740   0.895   2.471  0.2537  1.5820  2.7543
   41MOL0     H 5532   5.411   0.712   2.227 -0.6706  1.1057 -1.7835
   41MOL0     H 5533   5.713   0.672   2.403 -0.3240 -1.1801 -1.2826
   41MOL0     H 5534   5.738   0.804   2.287  1.4756 -1.2371 -0.9865
   41MOL0     H 5535   5.586   0.786   2.365 -0.0931 -1.1434  1.7926
   42MOL0     O 5536   8.161   6.782   1.838  0.4581 -0.0254  0.0019
   42MOL0     C 5537   8.125   6.706   1.931  0.7644 -0.1668 -0.8221
   42MOL0     O 5538   8.206   6.620   1.993 -0.2011 -0.3441 -0.7918
   42MOL0     C 5539   8.340   6.649   2.001 -0.6814 -0.7464  0.2207
   42MOL0     C 5540   8.436   6.576   1.938 -0.2076 -0.4101  0.1788
   42MOL0     C 5541   8.574   6.615   1.930  0.3699  0.6975 -0.1051
   42MOL0     C 5542   8.607   6.734   1.990 -0.7471  0.5823  0.1993
   42MOL0     O 5543   8.730   6.784   1.994 -0.5378  0.7944  0.0646
   42MOL0     C 5544   8.832   6.693   2.007 -0.3483  0.0447 -0.0120
   42MOL0     C 5545   8.962   6.772   2.026 -1.1392 -0.1506 -0.7743
   42MOL0     C 5546   9.071   6.730   1.928 -0.0776  0.4040  0.6311
   42MOL0     C 5547   9.195   6.827   1.933  0.1362  0.3988  0.2947
   42MOL0     C 5548   9.301   6.778   1.832 -0.2777  0.3386  0.9718
   42MOL0     C 5549   9.412   6.873   1.824  1.1097  0.5349 -0.1263
   42MOL0     C 5550   9.530   6.831   1.726 -0.4738  0.1514 -0.2571
   42MOL0     C 5551   9.621   6.944   1.679 -0.4732 -0.5246  0.3998
   42MOL0     N 5552   9.660   7.052   1.775 -0.1668 -0.1667  0.4337
   42MOL0     C 5553   9.675   7.043   1.908 -0.1570 -0.5786 -0.1333
   42MOL0     C 5554   9.686   7.165   1.955  0.2326 -0.6227 -0.0072
   42MOL0     C 5555   9.698   7.185   2.110  0.7478  0.3734  0.7504
   42MOL0     C 5556   9.840   7.241   2.147  0.6369  0.5727 -0.6453
   42MOL0     C 5557   9.849   7.279   2.293 -0.0228 -0.3643 -0.3628
   42MOL0     C 5558   9.986   7.333   2.332  0.6298 -0.2896  0.2311
   42MOL0     O 5559  10.086   7.231   2.330 -0.3082  0.1148 -0.2484
   42MOL0     C 5560  10.219   7.265   2.353 -0.3149 -0.0816  0.4185
   42MOL0     C 5561  10.271   7.384   2.402  0.3429 -1.1323 -0.2915
   42MOL0     C 5562  10.411   7.394   2.420  0.1201 -0.0624  0.7215
   42MOL0     C 5563  10.502   7.290   2.384  0.9663  0.2527 -0.3645
   42MOL0     C 5564  10.657   7.314   2.391 -0.3687  0.2195  1.0405
   42MOL0     O 5565  10.698   7.443   2.407  0.7309  0.3829 -0.6654
   42MOL0     C 5566  10.823   7.494   2.402  0.5155  0.8767  0.5939
   42MOL0     C 5567  10.934   7.432   2.327 -0.1225  0.1475  0.8982
   42MOL0     C 5568  11.049   7.507   2.292  1.0402 -0.3548  0.0336
   42MOL0     C 5569  11.062   7.641   2.329  0.1282 -0.7994 -0.6573
   42MOL0     O 5570  11.159   7.726   2.294 -0.4584  0.2651  0.2389
   42MOL0     C 5571  11.287   7.675   2.252 -0.2060  0.1239  0.7073
   42MOL0     C 5572  11.390   7.779   2.224 -0.1214  0.1108 -0.1287
   42MOL0     C 5573  11.504   7.712   2.148 -0.0628  0.6119 -0.1392
   42MOL0     C 5574  11.574   7.608   2.232  0.6382 -0.2036  1.0589
   42MOL0     C 5575  11.698   7.550   2.170  0.0359 -0.4475 -0.6820
   42MOL0     C 5576  11.794   7.477   2.269 -0.2875 -0.0876 -0.4336
   42MOL0     C 5577  11.918   7.431   2.187  0.3421  0.7925 -0.4208
   42MOL0     C 5578  12.021   7.531   2.135  0.3618 -0.7080 -0.5868
   42MOL0    Cl 5579  12.067   7.649   2.249  0.0577  0.0288  0.1057
   42MOL0     C 5580  10.959   7.691   2.411  0.1063 -0.3791  0.2019
   42MOL0     C 5581  10.845   7.619   2.448 -0.5194  0.1455 -0.4625
   42MOL0     O 5582  10.732   7.224   2.370 -0.8207  0.1066  0.2187
   42MOL0     C 5583  10.446   7.166   2.344  0.5646 -0.0846 -0.4663
   42MOL0     C 5584  10.305   7.154   2.330 -0.0904  0.1674  0.4630
   42MOL0     N 5585   9.658   7.255   1.849  0.3433 -0.3187  0.9789
   42MOL0     N 5586   9.644   7.184   1.744 -0.1860  0.1835  0.9602
   42MOL0     C 5587   8.515   6.810   2.052 -0.2618  0.0191 -1.3104
   42MOL0     C 5588   8.382   6.764   2.059  0.3942 -0.9503 -0.5143
   42MOL0     C 5589   7.976   6.707   1.951  0.8031  0.4008  0.2753
   42MOL0     C 5590   7.896   6.724   1.842 -0.8803  0.3254 -0.4378
   42MOL0     C 5591   7.764   6.708   1.846  0.2159 -0.8996 -0.8187
   42MOL0     C 5592   7.701   6.670   1.959  0.4440  0.1876  0.2771
   42MOL0     O 5593   7.571   6.640   1.967  0.7992 -0.7010 -0.1647
   42MOL0     C 5594   7.471   6.648   1.854 -0.3790 -0.7629  0.0238
   42MOL0     C 5595   7.336   6.579   1.891  1.0687  1.4185  0.5369
   42MOL0     C 5596   7.244   6.526   1.772  0.1410  0.2167  0.0042
   42MOL0     C 5597   7.132   6.431   1.816  0.3183  0.1407  0.1758
   42MOL0     C 5598   7.011   6.495   1.847  0.3254 -0.0273 -1.1274
   42MOL0     C 5599   6.909   6.560   1.873 -1.1394 -0.6005 -0.5517
   42MOL0     C 5600   7.776   6.660   2.079 -0.1976  0.3236 -0.0386
   42MOL0     C 5601   7.913   6.679   2.076 -0.7354  0.3210  0.0283
   42MOL0     C 5602   7.998   6.641   2.196  0.5881  0.0827  0.6042
   42MOL0     H 5603   8.412   6.481   1.893  2.9843 -0.2856 -2.1407
   42MOL0     H 5604   8.642   6.543   1.886 -0.6996  1.0922 -2.5898
   42MOL0     H 5605   8.810   6.622   2.087 -1.9474 -3.7510 -3.4469
   42MOL0     H 5606   8.842   6.629   1.919  0.2105  2.2071 -1.5978
   42MOL0     H 5607   8.986   6.783   2.132  1.5384 -0.3179 -1.3120
   42MOL0     H 5608   8.945   6.875   1.995  1.4166  0.9834  1.3050
   42MOL0     H 5609   9.035   6.723   1.825 -0.7920  0.1574  0.8872
   42MOL0     H 5610   9.095   6.629   1.961 -4.1718 -0.8172  0.4822
   42MOL0     H 5611   9.165   6.931   1.914  0.2058  0.1429 -1.4025
   42MOL0     H 5612   9.247   6.826   2.029  4.7499 -1.8907 -1.9294
   42MOL0     H 5613   9.344   6.684   1.869 -1.4353 -0.6288 -0.0622
   42MOL0     H 5614   9.247   6.759   1.739  3.0859  0.1542 -1.1293
   42MOL0     H 5615   9.384   6.969   1.781 -0.8362 -0.4365 -1.1843
   42MOL0     H 5616   9.458   6.892   1.921  0.2425  1.4901  0.1213
   42MOL0     H 5617   9.480   6.774   1.647 -0.0201  0.5645 -0.8500
   42MOL0     H 5618   9.590   6.767   1.791  0.7590 -0.3715 -1.8563
   42MOL0     H 5619   9.711   6.895   1.640 -1.5095  0.0460 -3.0882
   42MOL0     H 5620   9.568   6.994   1.597  1.3811  1.1264  0.1313
   42MOL0     H 5621   9.694   6.951   1.963 -0.9812  0.8589  2.7750
   42MOL0     H 5622   9.630   7.269   2.122 -0.7248 -0.8490  1.2940
   42MOL0     H 5623   9.671   7.092   2.162  0.0710 -1.6672 -2.8834
   42MOL0     H 5624   9.912   7.164   2.119  0.2652 -0.3247  0.7309
   42MOL0     H 5625   9.862   7.329   2.086  1.7247 -0.8696 -2.4050
   42MOL0     H 5626   9.841   7.193   2.359  2.0808  0.1378  0.6357
   42MOL0     H 5627   9.761   7.341   2.311 -0.5612 -1.3288  0.4355
   42MOL0     H 5628   9.983   7.364   2.437  1.0027 -2.9869  1.1234
   42MOL0     H 5629  10.011   7.412   2.261 -3.3640 -0.1838 -1.3124
   42MOL0     H 5630  10.211   7.473   2.418  0.4625 -1.0153 -0.4819
   42MOL0     H 5631  10.439   7.487   2.470 -1.8875  1.4253 -0.7505
   42MOL0     H 5632  10.924   7.341   2.267  0.6812 -0.0267  1.0155
   42MOL0     H 5633  11.130   7.464   2.234  0.4227  1.0410 -1.9754
   42MOL0     H 5634  11.327   7.601   2.322  2.5835  0.4752 -0.3894
   42MOL0     H 5635  11.273   7.630   2.153 -0.1407  1.5498  0.0244
   42MOL0     H 5636  11.342   7.854   2.160  0.0862  0.1952 -0.1871
   42MOL0     H 5637  11.423   7.830   2.315  1.6690  2.0000 -1.7529
   42MOL0     H 5638  11.469   7.660   2.059  0.4511 -0.4701  0.2845
   42MOL0     H 5639  11.570   7.786   2.101  1.6075 -0.5142  0.3656
   42MOL0     H 5640  11.502   7.528   2.253 -0.7562  0.9587  0.8672
   42MOL0     H 5641  11.600   7.660   2.325  1.8322 -1.6011  1.5350
   42MOL0     H 5642  11.759   7.624   2.118  1.9934 -2.4833 -1.4715
   42MOL0     H 5643  11.670   7.481   2.090  1.2029  1.7857 -3.1840
   42MOL0     H 5644  11.823   7.548   2.346 -0.4774  2.0625 -2.2452
   42MOL0     H 5645  11.737   7.401   2.323 -1.4641  0.5952 -0.6943
   42MOL0     H 5646  11.877   7.372   2.104 -0.0600  1.0080 -0.3781
   42MOL0     H 5647  11.971   7.357   2.247 -2.2176  0.2221  1.2957
   42MOL0     H 5648  12.107   7.472   2.103 -1.4774 -1.9477 -3.7146
   42MOL0     H 5649  11.973   7.573   2.047 -2.8860 -0.9487  0.9154
   42MOL0     H 5650  10.953   7.794   2.443 -3.4147  0.5526 -2.8081
   42MOL0     H 5651  10.772   7.664   2.514  0.6050 -2.1978  2.6543
   42MOL0     H 5652  10.514   7.091   2.304  1.7625  0.8336 -0.2092
   42MOL0     H 5653  10.258   7.068   2.282 -0.0025  0.3670  0.0174
   42MOL0     H 5654   8.536   6.910   2.090  0.2139 -0.0004 -1.5184
   42MOL0     H 5655   8.314   6.824   2.120  1.7357  1.1036 -0.9244
   42MOL0     H 5656   7.939   6.739   1.743 -0.0165  0.8798  0.0061
   42MOL0     H 5657   7.704   6.735   1.759  1.1310  1.6576 -0.7523
   42MOL0     H 5658   7.517   6.607   1.763  1.0814  0.4069  0.1882
   42MOL0     H 5659   7.449   6.751   1.826  0.1384 -1.1288 -1.8643
   42MOL0     H 5660   7.274   6.643   1.954 -2.5376  0.2507 -1.5863
   42MOL0     H 5661   7.372   6.494   1.950 -2.5100 -0.8185 -0.2134
   42MOL0     H 5662   7.314   6.472   1.707  0.2959  1.4084 -0.8579
   42MOL0     H 5663   7.211   6.619   1.724  4.8968  2.1879 -0.0333
   42MOL0     H 5664   7.109   6.363   1.733 -1.1027 -0.1234  0.7646
   42MOL0     H 5665   7.171   6.362   1.891  2.7129  0.2115 -0.9097
   42MOL0     H 5666   6.820   6.618   1.885 -0.1667  0.7300  0.4034
   42MOL0     H 5667   7.724   6.629   2.170  0.3599 -0.8491 -0.0978
   42MOL0     H 5668   7.947   6.657   2.291 -1.6555  2.7827 -0.9254
   42MOL0     H 5669   8.018   6.534   2.179 -1.3758  0.0625 -2.2494
   42MOL0     H 5670   8.086   6.705   2.205 -0.4728  1.3096  3.4542
   43MOL0     O 5671   6.690   8.005   2.760  0.0275  0.6820 -0.2055
   43MOL0     C 5672   6.710   7.912   2.682  0.9150  0.0542  0.2146
   43MOL0     O 5673   6.834   7.853   2.661 -0.0045  0.1985  0.7931
   43MOL0     C 5674   6.948   7.910   2.718  0.7750 -0.1109 -0.3392
   43MOL0     C 5675   6.969   8.049   2.687  0.0338  1.1855  0.7507
   43MOL0     C 5676   7.087   8.109   2.724  0.1563  0.0121  0.3886
   43MOL0     C 5677   7.181   8.037   2.798 -0.1499 -0.3749  0.9593
   43MOL0     O 5678   7.299   8.094   2.829 -0.2354  0.2079 -0.2634
   43MOL0     C 5679   7.417   8.035   2.763  0.7758 -0.7530 -0.0836
   43MOL0     C 5680   7.536   8.120   2.787  0.0667  0.6355  0.2658
   43MOL0     C 5681   7.663   8.064   2.709 -0.3049  0.4537  0.2922
   43MOL0     C 5682   7.715   8.176   2.608  0.2632 -0.5999  0.5864
   43MOL0     C 5683   7.837   8.121   2.538  0.1303 -0.1193 -1.1875
   43MOL0     C 5684   7.892   8.211   2.426  0.1311 -0.0965 -0.9229
   43MOL0     C 5685   8.045   8.207   2.409  0.8702  0.5564 -0.0508
   43MOL0     C 5686   8.081   8.107   2.293  0.1136  0.0768  1.1333
   43MOL0     N 5687   8.226   8.087   2.280  0.6533 -0.6371  0.3005
   43MOL0     C 5688   8.312   8.186   2.243 -0.7034 -0.0504  0.0281
   43MOL0     C 5689   8.437   8.131   2.240 -0.1876 -1.2192  0.1358
   43MOL0     C 5690   8.555   8.186   2.161  0.7249  1.1325 -0.3039
   43MOL0     C 5691   8.687   8.173   2.227 -0.2814 -0.9856 -0.3801
   43MOL0     C 5692   8.688   8.249   2.365 -0.6605  0.4823  0.1975
   43MOL0     C 5693   8.828   8.266   2.422  0.3063 -0.2359  0.7814
   43MOL0     O 5694   8.894   8.389   2.382  0.0860 -1.1373  0.4665
   43MOL0     C 5695   9.026   8.417   2.409  1.2356  0.3353  0.3123
   43MOL0     C 5696   9.080   8.537   2.371 -0.2678  0.3162 -0.7904
   43MOL0     C 5697   9.208   8.575   2.409 -0.4950 -0.3726  0.0537
   43MOL0     C 5698   9.296   8.487   2.472 -0.3148 -0.1567 -0.1734
   43MOL0     C 5699   9.436   8.522   2.488 -0.8896  0.0577 -0.1382
   43MOL0     O 5700   9.473   8.641   2.451 -0.2359 -0.0632  0.4763
   43MOL0     C 5701   9.598   8.679   2.495  0.0822  1.0423 -0.0896
   43MOL0     C 5702   9.715   8.641   2.424  0.0314  0.1558 -0.0933
   43MOL0     C 5703   9.842   8.678   2.459 -0.1344  1.1243 -1.0224
   43MOL0     C 5704   9.860   8.758   2.576  0.5533 -0.3308 -0.4339
   43MOL0     O 5705   9.986   8.798   2.614  0.0005  0.0660  0.7248
   43MOL0     C 5706   9.988   8.874   2.730  0.0545 -0.5645  0.5139
   43MOL0     C 5707  10.127   8.912   2.766 -0.3896  0.5284 -0.6621
   43MOL0     C 5708  10.141   8.976   2.905 -0.2552 -0.3244  0.1027
   43MOL0     C 5709  10.289   8.992   2.939 -0.5930 -0.5298 -0.3450
   43MOL0     C 5710  10.327   9.010   3.086 -0.2696 -0.0220 -0.3100
   43MOL0     C 5711  10.211   9.091   3.159  0.5089 -0.3507 -0.0150
   43MOL0     C 5712  10.246   9.135   3.302  0.2691 -0.1697 -0.9055
   43MOL0     C 5713  10.323   9.264   3.297  0.2366  0.4631  0.4242
   43MOL0    Cl 5714  10.215   9.400   3.298 -0.3184  0.0057  0.2496
   43MOL0     C 5715   9.739   8.800   2.655 -0.8044  0.5834  0.4421
   43MOL0     C 5716   9.615   8.758   2.608  0.4217 -0.5537  0.4854
   43MOL0     O 5717   9.499   8.444   2.562  0.3123 -0.0356 -0.1269
   43MOL0     C 5718   9.241   8.355   2.505  0.5138 -0.3688  0.1582
   43MOL0     C 5719   9.105   8.327   2.478 -0.0930  0.3840 -0.8717
   43MOL0     N 5720   8.422   7.996   2.283 -0.3586 -0.7376  0.8740
   43MOL0     N 5721   8.300   7.979   2.309  0.7981 -0.5494  0.1775
   43MOL0     C 5722   7.161   7.902   2.833 -0.3114 -0.2318  0.5588
   43MOL0     C 5723   7.044   7.839   2.793  1.0143  0.1501  0.4565
   43MOL0     C 5724   6.588   7.856   2.606  0.9389  0.2664  0.7640
   43MOL0     C 5725   6.626   7.778   2.495 -0.5950  0.0502  0.5440
   43MOL0     C 5726   6.531   7.723   2.415 -0.0145  1.2456  0.3182
   43MOL0     C 5727   6.395   7.740   2.446 -0.9014  0.2984 -0.3036
   43MOL0     O 5728   6.308   7.670   2.364 -0.2824 -0.2666  0.4063
   43MOL0     C 5729   6.164   7.691   2.366 -0.0368  0.8969  0.0261
   43MOL0     C 5730   6.092   7.605   2.468  0.2596  0.4251 -0.4322
   43MOL0     C 5731   6.138   7.457   2.455  0.4574  0.7023 -0.7144
   43MOL0     C 5732   6.020   7.382   2.391  0.2488 -0.4366 -0.3292
   43MOL0     C 5733   6.055   7.241   2.367  0.5298  0.9521 -0.4549
   43MOL0     C 5734   6.073   7.120   2.330  0.3708  0.6663 -0.4968
   43MOL0     C 5735   6.359   7.816   2.553 -0.7755 -0.1453  0.1910
   43MOL0     C 5736   6.451   7.879   2.634 -0.7268 -0.0464 -0.0464
   43MOL0     C 5737   6.403   7.954   2.752 -0.2497 -0.1925 -0.7997
   43MOL0     H 5738   6.886   8.098   2.637  0.1971  1.2499  0.5434
   43MOL0     H 5739   7.102   8.208   2.684 -0.2706 -0.2413 -0.4348
   43MOL0     H 5740   7.430   7.937   2.809  1.7843 -0.4864  0.2353
   43MOL0     H 5741   7.395   8.035   2.656  3.3801  0.5068 -0.7114
   43MOL0     H 5742   7.553   8.131   2.895 -0.0346  2.6038  0.1170
   43MOL0     H 5743   7.524   8.223   2.753  2.6239  0.9236  0.0777
   43MOL0     H 5744   7.632   7.979   2.647  0.1010  0.2013  0.4280
   43MOL0     H 5745   7.742   8.016   2.767  0.6882 -0.6293 -1.8447
   43MOL0     H 5746   7.638   8.192   2.532 -1.6860 -2.8237  1.9540
   43MOL0     H 5747   7.738   8.273   2.654 -0.2922 -0.2445  0.1361
   43MOL0     H 5748   7.916   8.117   2.614  1.5545  0.3963 -2.5900
   43MOL0     H 5749   7.822   8.019   2.502  0.2829  0.2989 -2.4794
   43MOL0     H 5750   7.842   8.183   2.332 -2.5520 -1.4702  0.7878
   43MOL0     H 5751   7.860   8.313   2.446  0.3145 -0.3200  0.5638
   43MOL0     H 5752   8.101   8.167   2.495  4.8143  1.5037 -1.9714
   43MOL0     H 5753   8.079   8.309   2.393 -0.6122  1.3392  1.4015
   43MOL0     H 5754   8.041   8.007   2.309 -1.5272  0.1825 -1.7166
   43MOL0     H 5755   8.045   8.143   2.196  1.6172  0.9234  0.8529
   43MOL0     H 5756   8.289   8.284   2.202  0.4454  0.4512  0.5576
   43MOL0     H 5757   8.545   8.149   2.058  0.4617  0.0771  0.0901
   43MOL0     H 5758   8.534   8.293   2.161 -1.1629  0.8403  1.7822
   43MOL0     H 5759   8.710   8.067   2.239  3.8253 -0.0715  2.1759
   43MOL0     H 5760   8.753   8.223   2.155 -2.8130  2.7654 -0.3825
   43MOL0     H 5761   8.618   8.198   2.431  1.4224 -0.3487  1.9024
   43MOL0     H 5762   8.647   8.350   2.369 -1.2151  0.2521  3.9140
   43MOL0     H 5763   8.892   8.180   2.402  1.1151  0.0632  1.9748
   43MOL0     H 5764   8.810   8.271   2.530 -3.6064 -1.2948  0.3348
   43MOL0     H 5765   9.030   8.619   2.320  0.6225 -0.7421 -3.5510
   43MOL0     H 5766   9.240   8.673   2.374 -1.3160  0.4625  1.5626
   43MOL0     H 5767   9.706   8.593   2.326  0.6697 -0.9524  0.3637
   43MOL0     H 5768   9.931   8.650   2.404  3.3194  1.4003  3.7433
   43MOL0     H 5769   9.924   8.961   2.709 -0.0799 -0.9185 -0.6663
   43MOL0     H 5770   9.949   8.817   2.815 -0.1012  0.0054  0.8332
   43MOL0     H 5771  10.178   8.815   2.763 -2.5060 -0.6197 -1.7557
   43MOL0     H 5772  10.178   8.973   2.691  0.7841 -2.9396 -2.9464
   43MOL0     H 5773  10.090   9.071   2.890 -2.4528 -1.8604 -3.4387
   43MOL0     H 5774  10.093   8.914   2.982  3.6381 -2.2126  1.2764
   43MOL0     H 5775  10.328   9.073   2.876 -0.8173  0.2040  0.4398
   43MOL0     H 5776  10.338   8.898   2.912 -0.4693 -0.1163 -1.6322
   43MOL0     H 5777  10.425   9.059   3.095 -0.6503  0.8899 -0.9505
   43MOL0     H 5778  10.333   8.912   3.135 -0.4829 -0.3091 -0.8593
   43MOL0     H 5779  10.176   9.175   3.099 -1.1759 -0.2131  1.0878
   43MOL0     H 5780  10.129   9.021   3.178  1.6666 -1.8183 -0.1422
   43MOL0     H 5781  10.305   9.056   3.349 -0.7737 -0.1616  0.5069
   43MOL0     H 5782  10.157   9.150   3.365  1.8063  2.8728  0.7887
   43MOL0     H 5783  10.382   9.264   3.389  0.0338 -0.0598  0.5610
   43MOL0     H 5784  10.383   9.273   3.206  0.1300 -0.1395  0.2897
   43MOL0     H 5785   9.734   8.866   2.741 -0.8293  1.6404 -0.3649
   43MOL0     H 5786   9.530   8.786   2.669  0.9187  2.1801  0.0373
   43MOL0     H 5787   9.296   8.272   2.549  2.0386  1.6642  2.3365
   43MOL0     H 5788   9.063   8.237   2.521 -0.0593  0.9422  0.3728
   43MOL0     H 5789   7.227   7.846   2.898  1.2920  0.2938 -0.5430
   43MOL0     H 5790   7.032   7.733   2.815 -0.9327  0.3170  0.3928
   43MOL0     H 5791   6.731   7.762   2.478 -0.6002  0.0804  0.4836
   43MOL0     H 5792   6.554   7.669   2.324 -4.8445  0.5816 -0.7804
   43MOL0     H 5793   6.133   7.664   2.265 -1.0383 -2.9969  1.2022
   43MOL0     H 5794   6.144   7.798   2.375  0.9173  1.0565  0.3956
   43MOL0     H 5795   5.985   7.626   2.455 -0.0627 -0.3851  0.7982
   43MOL0     H 5796   6.118   7.641   2.567 -2.4398  1.0950  0.1279
   43MOL0     H 5797   6.161   7.415   2.553  0.2841 -2.7289 -2.0186
   43MOL0     H 5798   6.234   7.449   2.403  2.2036  1.8319  2.1249
   43MOL0     H 5799   5.947   7.379   2.472 -0.1872 -1.0766 -0.7374
   43MOL0     H 5800   5.980   7.433   2.303  0.2837  1.2103  0.5848
   43MOL0     H 5801   6.096   7.017   2.313 -2.4762 -1.1054  4.3043
   43MOL0     H 5802   6.258   7.836   2.589 -0.0317 -0.3363  2.5981
   43MOL0     H 5803   6.447   7.910   2.842 -0.9074 -1.5336 -1.1143
   43MOL0     H 5804   6.439   8.058   2.756 -0.5512 -0.0841 -0.8649
   43MOL0     H 5805   6.295   7.956   2.768 -0.2118 -1.4282 -0.3063
   44MOL0     O 5806   0.400   6.735   4.447 -0.0399  0.3636 -0.4566
   44MOL0     C 5807   0.351   6.710   4.555  0.5835  0.0345 -0.0367
   44MOL0     O 5808   0.419   6.658   4.671 -0.7569 -0.4371 -0.0686
   44MOL0     C 5809   0.537   6.586   4.647  0.0385  0.4450  0.4272
   44MOL0     C 5810   0.654   6.628   4.585  0.0311 -0.0951  0.4141
   44MOL0     C 5811   0.775   6.559   4.584  0.4516 -0.1681  1.2198
   44MOL0     C 5812   0.775   6.436   4.642 -0.0860 -0.0233  0.0228
   44MOL0     O 5813   0.891   6.360   4.635  0.1551  0.9588  0.2109
   44MOL0     C 5814   0.919   6.275   4.747 -0.1256  0.0206 -0.0874
   44MOL0     C 5815   1.062   6.233   4.757 -0.2801  0.5602  0.1369
   44MOL0     C 5816   1.147   6.364   4.795  0.4860 -0.6762  0.3678
   44MOL0     C 5817   1.198   6.438   4.668 -0.6189  0.7119  0.1483
   44MOL0     C 5818   1.224   6.591   4.687 -0.1021 -0.0895 -0.1699
   44MOL0     C 5819   1.281   6.657   4.560  0.5950  0.1204  0.2292
   44MOL0     C 5820   1.170   6.680   4.451 -0.6696  0.5624 -0.0926
   44MOL0     C 5821   1.234   6.700   4.309  0.4671  1.0166  0.2092
   44MOL0     N 5822   1.347   6.794   4.317  0.3434 -0.1951 -0.1667
   44MOL0     C 5823   1.349   6.919   4.251 -0.0890  0.1005 -0.1138
   44MOL0     C 5824   1.472   6.975   4.270  0.9167  0.8387  0.0630
   44MOL0     C 5825   1.532   7.104   4.234  1.0821  0.0448  0.5292
   44MOL0     C 5826   1.562   7.121   4.081 -0.3681  1.0119 -0.4995
   44MOL0     C 5827   1.665   7.037   4.016 -0.4780  0.3425  0.4243
   44MOL0     C 5828   1.637   7.034   3.860  0.8318  0.2243  1.1977
   44MOL0     O 5829   1.673   7.162   3.793  0.0588  0.7554  0.6857
   44MOL0     C 5830   1.806   7.193   3.762 -0.3635 -0.5302  0.0060
   44MOL0     C 5831   1.927   7.126   3.802 -0.6440  0.0904  0.1606
   44MOL0     C 5832   2.048   7.150   3.736 -0.0882 -0.2821 -0.6528
   44MOL0     C 5833   2.059   7.258   3.647  0.1471 -0.3896  0.9065
   44MOL0     C 5834   2.192   7.291   3.579 -0.3689 -0.1113 -0.5724
   44MOL0     O 5835   2.297   7.206   3.612  0.4317  0.0707 -0.2551
   44MOL0     C 5836   2.416   7.226   3.543  1.2407  0.6826  0.3771
   44MOL0     C 5837   2.538   7.208   3.616 -0.1410 -0.2592 -0.1103
   44MOL0     C 5838   2.665   7.222   3.547  0.7841 -0.3613 -1.2653
   44MOL0     C 5839   2.667   7.243   3.406  0.2533  0.3053  0.4716
   44MOL0     O 5840   2.792   7.254   3.347 -0.3205  0.0677 -0.1621
   44MOL0     C 5841   2.789   7.345   3.235 -0.0023  1.0582 -0.4482
   44MOL0     C 5842   2.936   7.376   3.202  0.2318  0.6665  0.1317
   44MOL0     C 5843   3.031   7.250   3.183  0.1492 -0.6570 -0.3222
   44MOL0     C 5844   3.176   7.288   3.158  0.7916  0.1532 -0.2071
   44MOL0     C 5845   3.273   7.174   3.153  0.9727  0.3619  0.1997
   44MOL0     C 5846   3.415   7.233   3.142  0.5263  0.0396 -0.5222
   44MOL0     C 5847   3.516   7.120   3.133 -0.3821  0.1125 -0.1334
   44MOL0     C 5848   3.662   7.186   3.132 -0.2865 -0.0495 -0.0207
   44MOL0    Cl 5849   3.798   7.057   3.129  0.2553 -0.1623 -0.0960
   44MOL0     C 5850   2.540   7.259   3.340 -1.2043  0.4011  0.5158
   44MOL0     C 5851   2.421   7.251   3.403  0.9125  0.4265 -0.9553
   44MOL0     O 5852   2.190   7.386   3.499  0.5631  0.1786  0.2930
   44MOL0     C 5853   1.942   7.323   3.603 -0.3243 -0.6034 -0.4022
   44MOL0     C 5854   1.818   7.285   3.657  0.3780  0.4717 -0.0162
   44MOL0     N 5855   1.554   6.872   4.321  0.0825  0.5856 -0.2675
   44MOL0     N 5856   1.477   6.766   4.347 -0.2154  0.1534  0.1233
   44MOL0     C 5857   0.662   6.387   4.704 -0.4976  0.5126 -0.4214
   44MOL0     C 5858   0.548   6.464   4.708 -0.2119  0.2043  0.2689
   44MOL0     C 5859   0.201   6.731   4.553  0.2671  0.1998 -0.1633
   44MOL0     C 5860   0.164   6.846   4.475  1.1956  0.9421 -0.4578
   44MOL0     C 5861   0.026   6.875   4.455  0.7737 -0.3704 -0.5568
   44MOL0     C 5862  -0.074   6.793   4.514 -0.9289  0.6411  0.8073
   44MOL0     O 5863  -0.203   6.820   4.470  0.2578  0.8735 -0.2254
   44MOL0     C 5864  -0.312   6.745   4.529  0.1412 -0.1174  0.1312
   44MOL0     C 5865  -0.444   6.813   4.502 -0.5301  0.3403 -1.1216
   44MOL0     C 5866  -0.448   6.954   4.560 -0.1439 -0.3246 -0.3936
   44MOL0     C 5867  -0.569   7.034   4.509  0.0399  0.4237 -0.2743
   44MOL0     C 5868  -0.707   6.981   4.526 -0.6624  0.9271  0.6258
   44MOL0     C 5869  -0.819   6.931   4.532 -0.1376  0.6140  0.7848
   44MOL0     C 5870  -0.043   6.692   4.600 -0.1429 -0.2223 -0.5803
   44MOL0     C 5871   0.094   6.667   4.618 -0.1903 -0.0324 -0.2478
   44MOL0     C 5872   0.125   6.543   4.697 -0.2880 -0.1911  0.2397
   44MOL0     H 5873   0.643   6.717   4.524 -0.5506 -0.6793 -0.3558
   44MOL0     H 5874   0.857   6.598   4.524 -0.0340  0.9543  1.2548
   44MOL0     H 5875   0.895   6.327   4.840  1.0611  2.0190 -0.8422
   44MOL0     H 5876   0.871   6.178   4.729 -1.2556  0.5919 -0.2012
   44MOL0     H 5877   1.093   6.195   4.659 -0.1626 -1.5999  0.9631
   44MOL0     H 5878   1.074   6.155   4.833  0.1152 -2.3240 -2.6747
   44MOL0     H 5879   1.221   6.328   4.867  0.4074  1.0273  1.3432
   44MOL0     H 5880   1.092   6.440   4.851  0.8244 -1.0830  1.2758
   44MOL0     H 5881   1.290   6.388   4.636 -0.9925 -0.2306  0.4908
   44MOL0     H 5882   1.119   6.435   4.592 -2.8321  2.5881  2.2143
   44MOL0     H 5883   1.141   6.640   4.739  0.2844 -0.3664  0.7415
   44MOL0     H 5884   1.304   6.596   4.762 -3.4405 -0.0637  3.7360
   44MOL0     H 5885   1.324   6.756   4.581 -1.9325  0.9934  1.7824
   44MOL0     H 5886   1.352   6.589   4.513  2.4799  0.7009  2.0705
   44MOL0     H 5887   1.110   6.767   4.481 -1.1534 -0.1822  1.1602
   44MOL0     H 5888   1.108   6.590   4.450 -0.1028  0.1612 -1.0121
   44MOL0     H 5889   1.269   6.604   4.269 -0.7438  0.9719 -0.7860
   44MOL0     H 5890   1.159   6.729   4.235  1.0381  2.5059  0.1796
   44MOL0     H 5891   1.268   6.970   4.200 -0.2417 -1.6187 -1.7041
   44MOL0     H 5892   1.460   7.185   4.247 -1.8916 -1.0897 -5.3761
   44MOL0     H 5893   1.625   7.126   4.286 -0.6964  0.7354  3.6700
   44MOL0     H 5894   1.467   7.097   4.031 -0.7995  0.8980  0.3558
   44MOL0     H 5895   1.577   7.225   4.050 -2.6096  1.1806 -1.2107
   44MOL0     H 5896   1.658   6.933   4.049 -1.7727 -0.0980 -1.0859
   44MOL0     H 5897   1.763   7.078   4.041 -0.5419  0.7223  0.0681
   44MOL0     H 5898   1.540   6.995   3.827  2.1721 -1.1937 -1.3838
   44MOL0     H 5899   1.704   6.959   3.818 -0.1272 -0.4889  0.9070
   44MOL0     H 5900   1.920   7.053   3.882  2.6303  2.1372  2.5831
   44MOL0     H 5901   2.131   7.087   3.766 -0.8054 -1.0743 -0.3071
   44MOL0     H 5902   2.549   7.176   3.719 -0.0906  1.4515  0.4326
   44MOL0     H 5903   2.760   7.204   3.597 -0.2434  0.3053  1.0873
   44MOL0     H 5904   2.739   7.299   3.150  0.3884  0.6830 -0.4832
   44MOL0     H 5905   2.738   7.438   3.262 -0.9245 -0.4994  4.0203
   44MOL0     H 5906   2.938   7.441   3.114  0.1086 -0.4218 -0.6926
   44MOL0     H 5907   2.970   7.430   3.291  0.1233 -1.3610  1.4553
   44MOL0     H 5908   3.024   7.194   3.276 -1.6558  4.0420  2.7750
   44MOL0     H 5909   2.999   7.194   3.095 -1.1896  1.5739 -1.3648
   44MOL0     H 5910   3.205   7.355   3.239 -1.1208 -2.4558  2.9107
   44MOL0     H 5911   3.181   7.342   3.063  3.3592 -2.3173 -1.6341
   44MOL0     H 5912   3.246   7.116   3.065  1.3530  1.3366 -0.5769
   44MOL0     H 5913   3.254   7.110   3.240 -1.0123 -1.5190 -1.4868
   44MOL0     H 5914   3.418   7.300   3.056 -0.8304  0.7771 -0.0362
   44MOL0     H 5915   3.432   7.291   3.234  0.0805  0.6731 -0.8283
   44MOL0     H 5916   3.506   7.072   3.035 -2.3054  0.5031 -0.1576
   44MOL0     H 5917   3.497   7.047   3.211  0.7236  1.2044  1.2236
   44MOL0     H 5918   3.667   7.240   3.037  0.6297 -2.6325 -1.5477
   44MOL0     H 5919   3.680   7.240   3.226  1.5513 -2.7123  1.2713
   44MOL0     H 5920   2.556   7.261   3.233  1.0167  0.1129  0.7761
   44MOL0     H 5921   2.333   7.267   3.341 -1.5154 -0.7557  1.9664
   44MOL0     H 5922   1.946   7.394   3.521  1.5359 -0.2740 -0.0631
   44MOL0     H 5923   1.728   7.335   3.622 -2.5694 -1.9639  3.3163
   44MOL0     H 5924   0.669   6.285   4.741  1.0024  0.6183 -0.3322
   44MOL0     H 5925   0.469   6.414   4.762  0.2088 -0.0591  0.6392
   44MOL0     H 5926   0.227   6.907   4.412  2.5561  0.8560  0.7746
   44MOL0     H 5927  -0.013   6.950   4.388 -0.1229  0.8395  1.2398
   44MOL0     H 5928  -0.293   6.732   4.636 -1.5307  1.7965  0.7290
   44MOL0     H 5929  -0.321   6.651   4.474  0.7906  0.1147 -0.3768
   44MOL0     H 5930  -0.525   6.757   4.549 -0.7428 -0.3186 -2.2276
   44MOL0     H 5931  -0.469   6.818   4.395  4.0391  2.0064 -2.3594
   44MOL0     H 5932  -0.354   7.006   4.540  0.3578 -1.3151 -0.6769
   44MOL0     H 5933  -0.452   6.938   4.668  0.0975  1.4039 -0.1138
   44MOL0     H 5934  -0.565   7.129   4.562  0.4178  0.9740 -1.2545
   44MOL0     H 5935  -0.553   7.056   4.403  1.5959  1.6958  0.1789
   44MOL0     H 5936  -0.913   6.885   4.555 -0.1640  1.0654  1.6204
   44MOL0     H 5937  -0.117   6.624   4.641  1.2412 -1.3978  0.0593
   44MOL0     H 5938   0.039   6.511   4.755  0.6103 -1.2053  1.0604
   44MOL0     H 5939   0.171   6.465   4.635  1.2233  1.8686 -1.3654
   44MOL0     H 5940   0.203   6.576   4.767  1.1746  0.6645 -1.7034
   45MOL0     O 5941   3.504  10.623   0.630 -0.0006  0.4199  0.5833
   45MOL0     C 5942   3.457  10.641   0.515 -0.6114  0.6826  0.2967
   45MOL0     O 5943   3.525  10.675   0.402  0.2072 -0.8926 -0.2330
   45MOL0     C 5944   3.658  10.695   0.419  0.1463 -0.4549 -0.5690
   45MOL0     C 5945   3.733  10.579   0.423 -0.2216  0.6616 -0.4500
   45MOL0     C 5946   3.866  10.595   0.429  0.0314  0.3843  0.2168
   45MOL0     C 5947   3.928  10.716   0.443 -0.3280  0.6678  0.6378
   45MOL0     O 5948   4.065  10.720   0.465  0.2420  0.8304 -1.0923
   45MOL0     C 5949   4.113  10.832   0.542  0.1251 -0.4573  1.0994
   45MOL0     C 5950   4.259  10.794   0.582 -0.3700  0.8929 -0.1792
   45MOL0     C 5951   4.270  10.714   0.714 -0.8727  0.5618 -0.1130
   45MOL0     C 5952   4.419  10.662   0.727  1.3317  0.9273 -0.6706
   45MOL0     C 5953   4.422  10.566   0.845 -0.5943 -0.0329 -0.6035
   45MOL0     C 5954   4.560  10.510   0.880 -0.0018  0.0432 -0.3299
   45MOL0     C 5955   4.561  10.439   1.020  0.2494 -0.0785  0.4103
   45MOL0     C 5956   4.682  10.341   1.037  0.1427  0.0088 -0.6863
   45MOL0     N 5957   4.806  10.416   1.017  0.0601  1.1102  0.4926
   45MOL0     C 5958   4.872  10.506   1.101 -0.3009  0.0681  0.0499
   45MOL0     C 5959   4.971  10.562   1.028 -0.6056  0.1583 -0.3734
   45MOL0     C 5960   5.073  10.651   1.091 -0.5745  0.3022  0.0131
   45MOL0     C 5961   5.189  10.568   1.159  0.3897  0.1180  0.9007
   45MOL0     C 5962   5.275  10.650   1.248  0.1880 -0.6862  0.5523
   45MOL0     C 5963   5.330  10.773   1.167 -0.3847  0.5247 -0.4821
   45MOL0     O 5964   5.431  10.856   1.208  0.3513  0.3280 -0.7704
   45MOL0     C 5965   5.561  10.811   1.239 -0.3312 -0.2391 -0.2126
   45MOL0     C 5966   5.653  10.906   1.286  0.0074  0.2276  0.5992
   45MOL0     C 5967   5.780  10.874   1.332 -1.1830 -0.2393 -0.4906
   45MOL0     C 5968   5.822  10.737   1.317  0.5660 -0.0957  0.3596
   45MOL0     C 5969   5.956  10.702   1.360  0.5178 -0.8808  0.0162
   45MOL0     O 5970   6.034  10.799   1.412 -0.0863 -0.3613 -0.6304
   45MOL0     C 5971   6.170  10.777   1.442  0.7492 -0.6332 -1.0170
   45MOL0     C 5972   6.225  10.879   1.520 -0.2608  0.3190 -0.2634
   45MOL0     C 5973   6.366  10.877   1.555 -0.4520  0.2378  0.0701
   45MOL0     C 5974   6.446  10.779   1.506  0.3308 -0.2751 -0.0769
   45MOL0     O 5975   6.581  10.781   1.546  1.0039 -0.1825 -0.1046
   45MOL0     C 5976   6.668  10.671   1.512  0.1293  0.0742 -0.7991
   45MOL0     C 5977   6.824  10.697   1.544 -0.2180  0.2211 -0.4346
   45MOL0     C 5978   6.854  10.710   1.703  0.1372  0.1089 -0.1771
   45MOL0     C 5979   6.999  10.681   1.754  0.5041  0.2833 -0.1404
   45MOL0     C 5980   7.001  10.688   1.911 -0.3496  0.9949  0.5677
   45MOL0     C 5981   7.117  10.615   1.963 -0.3867  0.1775  0.0390
   45MOL0     C 5982   7.136  10.661   2.112  0.5102 -0.4465 -0.3141
   45MOL0     C 5983   7.225  10.794   2.116 -0.0399  0.2495  0.5638
   45MOL0    Cl 5984   7.380  10.744   2.051 -0.4202  0.0267  0.0499
   45MOL0     C 5985   6.394  10.679   1.423 -1.0677  1.0843 -1.5995
   45MOL0     C 5986   6.264  10.686   1.394 -0.7061 -0.1583  0.4610
   45MOL0     O 5987   5.984  10.581   1.356 -0.9898 -0.7177  1.3230
   45MOL0     C 5988   5.737  10.644   1.248 -0.7350  0.7006  0.1975
   45MOL0     C 5989   5.614  10.683   1.205  0.5593  0.3285  0.2424
   45MOL0     N 5990   4.962  10.514   0.901 -0.3394  0.7766  0.3743
   45MOL0     N 5991   4.865  10.419   0.892  0.0312 -0.9415  0.1847
   45MOL0     C 5992   3.848  10.837   0.451  0.4488  0.5963  0.2010
   45MOL0     C 5993   3.712  10.820   0.432 -0.3273 -0.4032 -0.4382
   45MOL0     C 5994   3.306  10.638   0.499 -0.6315  0.5634  0.5335
   45MOL0     C 5995   3.252  10.644   0.373  0.4953 -0.3625 -0.8654
   45MOL0     C 5996   3.116  10.656   0.349 -0.2514  0.1361 -0.0506
   45MOL0     C 5997   3.023  10.660   0.453 -0.4703 -0.1749 -0.3428
   45MOL0     O 5998   2.892  10.667   0.421 -0.2253 -0.1385 -0.5441
   45MOL0     C 5999   2.787  10.659   0.517 -0.2546 -0.1015  0.0566
   45MOL0     C 6000   2.650  10.638   0.462  0.3234 -0.0746 -0.2715
   45MOL0     C 6001   2.627  10.725   0.338 -0.2516 -0.9295  0.0159
   45MOL0     C 6002   2.498  10.688   0.265  0.7534 -0.5542  0.1296
   45MOL0     C 6003   2.378  10.711   0.345 -0.2198  0.4301  0.0605
   45MOL0     C 6004   2.262  10.729   0.384 -0.2490  0.7516 -0.1850
   45MOL0     C 6005   3.079  10.638   0.582  0.2253 -0.4722  0.4960
   45MOL0     C 6006   3.215  10.625   0.603 -0.4380 -0.4913  0.3896
   45MOL0     C 6007   3.251  10.596   0.747 -0.1138 -0.6206  0.9899
   45MOL0     H 6008   3.691  10.480   0.424  0.0803  0.5329 -0.3790
   45MOL0     H 6009   3.920  10.501   0.433  0.2336  0.2802 -2.6676
   45MOL0     H 6010   4.116  10.921   0.479 -2.0073 -1.1059 -0.0431
   45MOL0     H 6011   4.058  10.864   0.631  3.0793  1.2932  2.4318
   45MOL0     H 6012   4.312  10.890   0.591  0.8056  0.2437 -0.0476
   45MOL0     H 6013   4.312  10.745   0.500  0.0002  3.6094 -1.6841
   45MOL0     H 6014   4.206  10.626   0.709 -0.6714  0.3910 -5.3188
   45MOL0     H 6015   4.234  10.776   0.797  1.4887  1.8101  0.0718
   45MOL0     H 6016   4.448  10.618   0.630 -0.9121 -1.6725 -0.2995
   45MOL0     H 6017   4.483  10.750   0.734 -0.8200  2.7317 -2.0055
   45MOL0     H 6018   4.378  10.619   0.930 -0.9930  1.9959 -2.0182
   45MOL0     H 6019   4.362  10.479   0.815  1.6129 -2.0791  0.5409
   45MOL0     H 6020   4.580  10.432   0.806 -0.5171  0.0946 -0.5260
   45MOL0     H 6021   4.644  10.579   0.872  1.7872 -2.1482 -2.1306
   45MOL0     H 6022   4.474  10.374   1.033  0.9532 -0.9678  0.8062
   45MOL0     H 6023   4.569  10.516   1.098 -0.7600  0.0289  0.4115
   45MOL0     H 6024   4.687  10.301   1.139  2.3685  2.9242  0.5141
   45MOL0     H 6025   4.663  10.255   0.972 -0.2278  0.3573 -1.0452
   45MOL0     H 6026   4.872  10.523   1.209 -1.0911  2.1791 -0.2287
   45MOL0     H 6027   5.111  10.729   1.024 -1.1456  0.1164 -0.5366
   45MOL0     H 6028   5.021  10.692   1.178  0.7108  1.2150  0.3841
   45MOL0     H 6029   5.149  10.491   1.226  1.7159 -0.4742  1.0441
   45MOL0     H 6030   5.239  10.511   1.081 -0.6205  1.3054 -0.6830
   45MOL0     H 6031   5.353  10.587   1.292 -1.1226 -1.8265  1.2942
   45MOL0     H 6032   5.234  10.696   1.337 -1.6983  0.2067 -0.7159
   45MOL0     H 6033   5.249  10.846   1.153  1.0212  2.4930  0.9995
   45MOL0     H 6034   5.367  10.739   1.070  3.8914 -1.6836  1.6528
   45MOL0     H 6035   5.615  11.007   1.276 -0.9814 -0.2492 -0.7906
   45MOL0     H 6036   5.845  10.955   1.365 -1.5804  0.2457 -0.8962
   45MOL0     H 6037   6.158  10.961   1.544  0.7569  1.0711  0.1107
   45MOL0     H 6038   6.410  10.961   1.609  1.8019  0.6641 -2.2258
   45MOL0     H 6039   6.641  10.581   1.567  0.1329 -0.0690 -1.0338
   45MOL0     H 6040   6.654  10.640   1.408  1.7637 -0.8620 -0.7760
   45MOL0     H 6041   6.887  10.612   1.515 -0.0649 -1.2733  3.6881
   45MOL0     H 6042   6.850  10.787   1.489  3.2998 -1.4118 -1.7709
   45MOL0     H 6043   6.840  10.813   1.737  1.1565  0.1606  0.0965
   45MOL0     H 6044   6.781  10.643   1.750 -3.8462  3.6347 -0.6364
   45MOL0     H 6045   7.064  10.754   1.705 -0.7653  1.5920  0.0430
   45MOL0     H 6046   7.034  10.584   1.718 -1.5127  0.2469 -2.2307
   45MOL0     H 6047   6.914  10.640   1.956 -0.0533  0.6231  0.7481
   45MOL0     H 6048   6.999  10.792   1.944 -2.8628  0.5456  2.0465
   45MOL0     H 6049   7.099  10.507   1.963  0.1576  0.0830 -0.5196
   45MOL0     H 6050   7.208  10.625   1.902 -1.2200 -0.6128 -1.4029
   45MOL0     H 6051   7.174  10.571   2.161 -2.6800 -1.0967  1.2181
   45MOL0     H 6052   7.037  10.681   2.154 -1.8138 -0.6580 -4.9750
   45MOL0     H 6053   7.189  10.872   2.048  0.0409 -0.0906  0.1223
   45MOL0     H 6054   7.224  10.840   2.214  0.0474  2.1733 -0.2987
   45MOL0     H 6055   6.455  10.593   1.396 -0.9704 -0.4702  2.7154
   45MOL0     H 6056   6.225  10.607   1.329  0.8967 -0.8338  0.2672
   45MOL0     H 6057   5.759  10.539   1.234 -2.9109  0.1249  0.6525
   45MOL0     H 6058   5.561  10.601   1.158  1.1421 -0.5021  0.9986
   45MOL0     H 6059   3.896  10.933   0.461 -1.5132  1.7900 -1.2214
   45MOL0     H 6060   3.650  10.909   0.444  1.0885  0.2625  2.9367
   45MOL0     H 6061   3.317  10.648   0.286  0.6142 -0.6423 -0.7894
   45MOL0     H 6062   3.090  10.659   0.243  0.9131 -1.8366 -0.4262
   45MOL0     H 6063   2.798  10.761   0.556  1.5439  0.8083 -2.5713
   45MOL0     H 6064   2.812  10.594   0.600  0.2431  1.6381  1.3292
   45MOL0     H 6065   2.577  10.668   0.537 -1.7446 -2.5179 -1.1500
   45MOL0     H 6066   2.630  10.533   0.439 -0.5836 -0.1364  0.7311
   45MOL0     H 6067   2.705  10.707   0.263  1.0835 -0.4757  1.2498
   45MOL0     H 6068   2.626  10.823   0.385 -2.4825 -0.8802 -0.0240
   45MOL0     H 6069   2.501  10.751   0.175  3.1969 -2.0187 -0.9065
   45MOL0     H 6070   2.509  10.583   0.236  0.3180 -0.3952 -0.6393
   45MOL0     H 6071   2.167  10.752   0.428  0.3044  1.5721  0.6329
   45MOL0     H 6072   3.011  10.638   0.667 -0.5971  0.8557 -0.1337
   45MOL0     H 6073   3.169  10.559   0.809 -0.0095 -0.0096  1.5009
   45MOL0     H 6074   3.330  10.519   0.753 -1.6177 -2.1635  1.8571
   45MOL0     H 6075   3.297  10.687   0.785 -0.9656 -1.1267  3.3994
   46MOL0     O 6076   8.246   4.677  10.222 -0.9000  0.3011 -0.6100
   46MOL0     C 6077   8.228   4.655  10.098  0.2352  0.2983 -0.5191
   46MOL0     O 6078   8.299   4.561  10.026 -0.0198 -0.1883  0.2679
   46MOL0     C 6079   8.419   4.518  10.067 -0.1710  1.0706 -0.1638
   46MOL0     C 6080   8.430   4.444  10.192  0.0468 -0.0322  0.9333
   46MOL0     C 6081   8.548   4.417  10.250 -0.3620 -0.5123  0.2512
   46MOL0     C 6082   8.672   4.463  10.192 -0.0817  0.0732  0.4657
   46MOL0     O 6083   8.789   4.428  10.250 -0.0366  0.0890  0.1076
   46MOL0     C 6084   8.789   4.430  10.394  0.5793  0.2844 -0.7474
   46MOL0     C 6085   8.935   4.425  10.435  0.0509 -0.5320  0.3921
   46MOL0     C 6086   9.026   4.545  10.375 -0.7387  0.4073  0.4993
   46MOL0     C 6087   9.162   4.514  10.423 -1.1401 -0.8406 -0.3275
   46MOL0     C 6088   9.285   4.601  10.391 -0.1266 -0.1642 -0.0870
   46MOL0     C 6089   9.410   4.536  10.443  1.6042 -0.2037  0.2923
   46MOL0     C 6090   9.532   4.589  10.369 -0.3514  0.2399  0.2438
   46MOL0     C 6091   9.637   4.486  10.409 -0.2147  1.3440 -0.2283
   46MOL0     N 6092   9.773   4.522  10.372 -0.1360  0.6149 -0.0589
   46MOL0     C 6093   9.815   4.507  10.239  0.4005  0.6800  0.1360
   46MOL0     C 6094   9.951   4.530  10.245  0.8872  0.1515 -0.3969
   46MOL0     C 6095  10.051   4.543  10.135  0.5404  0.9998 -0.3983
   46MOL0     C 6096  10.032   4.671  10.049  0.5323  0.1762 -0.2289
   46MOL0     C 6097  10.166   4.748  10.059  0.6366  0.5686 -0.8161
   46MOL0     C 6098  10.171   4.844   9.939  0.5592 -0.0888  0.1989
   46MOL0     O 6099  10.256   4.958   9.959  0.3950 -0.3426 -0.2305
   46MOL0     C 6100  10.394   4.941   9.943  0.2700 -0.5225  0.2567
   46MOL0     C 6101  10.451   4.826   9.896  0.5184 -0.4042 -0.4890
   46MOL0     C 6102  10.586   4.831   9.867 -0.9252 -0.4029  0.1149
   46MOL0     C 6103  10.673   4.939   9.900 -0.2575 -0.6621 -0.9973
   46MOL0     C 6104  10.822   4.931   9.883 -0.3180  0.4948 -0.0207
   46MOL0     O 6105  10.874   4.811   9.825  0.0037 -0.7317 -0.5593
   46MOL0     C 6106  11.005   4.811   9.792 -1.3135  0.5221 -0.5058
   46MOL0     C 6107  11.099   4.725   9.858 -0.4118 -1.3194  0.5619
   46MOL0     C 6108  11.237   4.738   9.824  0.5250  0.1312  0.0531
   46MOL0     C 6109  11.277   4.809   9.718 -0.2768 -0.2278 -0.4415
   46MOL0     O 6110  11.412   4.812   9.675 -0.4972 -0.5422  0.2092
   46MOL0     C 6111  11.511   4.811   9.777  0.0712  0.0227 -0.6461
   46MOL0     C 6112  11.655   4.823   9.710 -0.1907  0.0297 -0.2705
   46MOL0     C 6113  11.769   4.811   9.803  0.1982 -0.8016  0.5112
   46MOL0     C 6114  11.907   4.825   9.731  0.4412 -0.7940  0.6133
   46MOL0     C 6115  12.016   4.838   9.837 -1.0201  0.7044  0.4118
   46MOL0     C 6116  12.150   4.871   9.760 -1.2323  0.2508 -0.4269
   46MOL0     C 6117  12.270   4.893   9.853 -0.1896  0.1245 -0.1947
   46MOL0     C 6118  12.342   4.766   9.885  0.1772 -0.8795 -0.0797
   46MOL0    Cl 6119  12.477   4.795  10.001  0.2842  0.4354 -0.0400
   46MOL0     C 6120  11.194   4.899   9.661  0.5559 -0.9539 -0.0783
   46MOL0     C 6121  11.059   4.903   9.692  0.4070 -0.9165  0.0318
   46MOL0     O 6122  10.893   5.016   9.919 -0.3459 -0.3519  0.7144
   46MOL0     C 6123  10.618   5.058   9.955 -0.6267  0.3704  0.1814
   46MOL0     C 6124  10.479   5.048   9.982 -0.0694  0.3793  0.2553
   46MOL0     N 6125   9.986   4.564  10.384 -0.3138 -0.2893 -0.6550
   46MOL0     N 6126   9.875   4.558  10.447  0.1158 -1.3977  0.5449
   46MOL0     C 6127   8.659   4.542  10.077 -0.3970  0.0068 -0.2076
   46MOL0     C 6128   8.540   4.571  10.017  0.5440  0.1441  1.3252
   46MOL0     C 6129   8.106   4.723  10.035  0.4030  0.7179  0.0034
   46MOL0     C 6130   8.001   4.747  10.122 -0.9806 -0.1983 -0.0934
   46MOL0     C 6131   7.884   4.807  10.074  1.1464  0.0831  0.1900
   46MOL0     C 6132   7.871   4.853   9.946  0.5077 -0.4216  0.0144
   46MOL0     O 6133   7.748   4.909   9.917  0.1323  0.3383  0.1094
   46MOL0     C 6134   7.734   5.001   9.804 -0.5474 -0.5206 -0.2348
   46MOL0     C 6135   7.594   5.062   9.773 -0.2924  0.7311  0.7092
   46MOL0     C 6136   7.541   5.159   9.876  0.3264 -0.2151 -0.0483
   46MOL0     C 6137   7.394   5.221   9.876  0.6959 -0.4153  0.9151
   46MOL0     C 6138   7.292   5.113   9.875  1.2461 -0.1861  0.6541
   46MOL0     C 6139   7.208   5.029   9.885 -0.0726 -0.1649 -0.0525
   46MOL0     C 6140   7.980   4.852   9.858 -0.5282 -0.0068  0.2875
   46MOL0     C 6141   8.095   4.780   9.902  0.7311 -0.1697 -0.3292
   46MOL0     C 6142   8.209   4.785   9.808 -0.0583  0.6435 -0.2411
   46MOL0     H 6143   8.342   4.424  10.252 -0.1143  1.5302  1.2474
   46MOL0     H 6144   8.557   4.349  10.334 -1.5972 -1.4845 -0.3615
   46MOL0     H 6145   8.749   4.527  10.424  1.2843  1.4973 -3.3958
   46MOL0     H 6146   8.738   4.347  10.444  4.2920 -1.6436  0.1529
   46MOL0     H 6147   8.975   4.334  10.390  1.3237  0.9446 -1.6464
   46MOL0     H 6148   8.949   4.428  10.543 -1.0268 -0.5227  0.5400
   46MOL0     H 6149   8.985   4.642  10.405 -2.1728 -0.0499  0.0644
   46MOL0     H 6150   9.028   4.545  10.265 -0.3596 -0.9516  0.4825
   46MOL0     H 6151   9.159   4.517  10.533  0.9692 -1.8361 -0.1935
   46MOL0     H 6152   9.193   4.412  10.400  1.7531  0.5682 -3.4416
   46MOL0     H 6153   9.291   4.620  10.284  0.8176  1.3606  0.2017
   46MOL0     H 6154   9.285   4.701  10.436  2.2930 -1.2466  2.6675
   46MOL0     H 6155   9.415   4.543  10.552  0.9537  1.4158  0.2477
   46MOL0     H 6156   9.404   4.432  10.410 -1.4007  0.0141 -0.1510
   46MOL0     H 6157   9.562   4.687  10.407 -2.6114  0.7951  0.7481
   46MOL0     H 6158   9.516   4.600  10.262 -1.2769  1.9332  0.5300
   46MOL0     H 6159   9.641   4.472  10.517 -0.9198  2.7066 -0.0136
   46MOL0     H 6160   9.620   4.386  10.368 -1.3090  0.8342  1.3822
   46MOL0     H 6161   9.760   4.470  10.154  3.0778 -0.1409 -1.3736
   46MOL0     H 6162  10.144   4.541  10.193 -1.3480  0.3862  2.9000
   46MOL0     H 6163  10.045   4.457  10.067 -1.3400  1.2707 -0.6411
   46MOL0     H 6164  10.014   4.648   9.944  3.2427 -0.0249 -0.7196
   46MOL0     H 6165   9.955   4.733  10.095  0.6985 -1.0428  1.8416
   46MOL0     H 6166  10.254   4.684  10.046  0.0754 -0.6353  0.9174
   46MOL0     H 6167  10.170   4.804  10.153  0.1421 -1.7943  0.7022
   46MOL0     H 6168  10.069   4.876   9.918  0.5275  0.7463  1.5222
   46MOL0     H 6169  10.204   4.794   9.846  2.4729 -1.1024  1.3527
   46MOL0     H 6170  10.400   4.732   9.880  1.4643 -0.9368 -0.4333
   46MOL0     H 6171  10.632   4.745   9.820 -0.7986 -0.0292 -0.4520
   46MOL0     H 6172  11.070   4.653   9.933 -0.5580 -1.1380  0.6816
   46MOL0     H 6173  11.313   4.684   9.879 -0.6366  1.4541  3.1424
   46MOL0     H 6174  11.495   4.898   9.840 -2.0497 -0.6263 -0.2030
   46MOL0     H 6175  11.510   4.715   9.830 -0.2035 -0.6615 -1.8500
   46MOL0     H 6176  11.671   4.739   9.642  0.7777 -0.3940  0.4474
   46MOL0     H 6177  11.664   4.917   9.655  1.6413 -0.3585 -0.7108
   46MOL0     H 6178  11.758   4.893   9.874 -1.0919 -0.0892 -0.4802
   46MOL0     H 6179  11.768   4.726   9.872 -1.6838 -0.0501  1.4646
   46MOL0     H 6180  11.905   4.904   9.656 -3.5579 -1.0671  0.1891
   46MOL0     H 6181  11.926   4.735   9.671  0.4275 -0.3500 -0.0754
   46MOL0     H 6182  12.023   4.746   9.895  0.4623  0.5533  0.0214
   46MOL0     H 6183  11.983   4.926   9.893 -1.6993  0.8392 -0.1803
   46MOL0     H 6184  12.170   4.790   9.689  0.4801  2.0420 -2.1137
   46MOL0     H 6185  12.135   4.960   9.698 -0.4545  2.2844  2.1126
   46MOL0     H 6186  12.228   4.923   9.949  1.6431 -1.5756  1.2276
   46MOL0     H 6187  12.329   4.971   9.803 -2.2755  2.4208  0.7109
   46MOL0     H 6188  12.275   4.695   9.935  0.6336 -1.6612 -0.5561
   46MOL0     H 6189  12.372   4.707   9.798 -0.3586 -0.9215 -0.2413
   46MOL0     H 6190  11.236   4.970   9.589  2.1385 -0.5763  1.1615
   46MOL0     H 6191  10.998   4.977   9.642 -0.1608 -0.7320  0.9762
   46MOL0     H 6192  10.668   5.149   9.987 -0.2535  0.4851 -0.7242
   46MOL0     H 6193  10.433   5.133  10.032 -0.4674  1.6644 -2.1264
   46MOL0     H 6194   8.752   4.572  10.030 -0.6509  1.2772  0.0375
   46MOL0     H 6195   8.542   4.617   9.919  2.0769 -0.5500  1.0040
   46MOL0     H 6196   8.019   4.712  10.223 -1.0246 -3.1243 -1.0006
   46MOL0     H 6197   7.798   4.823  10.138  1.9019  0.4959  1.1304
   46MOL0     H 6198   7.779   4.945   9.721 -1.0076 -2.2801  0.6403
   46MOL0     H 6199   7.800   5.085   9.827 -0.6685  0.2135 -2.3605
   46MOL0     H 6200   7.525   4.979   9.755 -0.4576  1.3766 -2.1290
   46MOL0     H 6201   7.602   5.107   9.674 -1.3071  1.1000  0.7830
   46MOL0     H 6202   7.614   5.240   9.873 -0.1368  0.2630  1.0713
   46MOL0     H 6203   7.534   5.110   9.974 -1.9935  1.7201  0.8553
   46MOL0     H 6204   7.377   5.276   9.969  0.3424  0.6076  0.2566
   46MOL0     H 6205   7.398   5.282   9.786  1.0894 -3.3010 -1.1761
   46MOL0     H 6206   7.123   4.968   9.908  0.0658  0.0117  0.9698
   46MOL0     H 6207   7.974   4.908   9.765  0.8292 -0.4494 -0.1005
   46MOL0     H 6208   8.198   4.859   9.729  0.2679  1.3143  0.3342
   46MOL0     H 6209   8.297   4.815   9.866 -2.0771  2.3423  2.1493
   46MOL0     H 6210   8.230   4.692   9.754 -2.2148  0.8473 -1.5265
   47MOL0     O 6211   4.139   6.038   5.225  0.2664 -0.2769  0.4832
   47MOL0     C 6212   4.073   6.052   5.325 -0.4889  0.1224  0.5358
   47MOL0     O 6213   4.127   6.040   5.452  0.2826  0.1652  0.0581
   47MOL0     C 6214   4.256   5.982   5.458 -0.0734  0.1129  1.3885
   47MOL0     C 6215   4.374   6.058   5.442 -0.1081 -0.7529 -0.7545
   47MOL0     C 6216   4.497   5.994   5.443 -0.6447 -0.3735 -0.3851
   47MOL0     C 6217   4.505   5.857   5.448 -0.5993  0.4951 -0.0088
   47MOL0     O 6218   4.629   5.791   5.437  0.3682 -0.0338  0.7102
   47MOL0     C 6219   4.749   5.862   5.475 -0.9164  0.0834  0.1881
   47MOL0     C 6220   4.867   5.771   5.437  0.1369  1.4174 -0.2739
   47MOL0     C 6221   4.998   5.808   5.505  0.4376  0.2040 -0.7441
   47MOL0     C 6222   5.075   5.916   5.434 -0.6539 -0.6112 -0.3266
   47MOL0     C 6223   5.225   5.896   5.473  0.3237 -0.2429  0.2753
   47MOL0     C 6224   5.310   6.022   5.423  0.2092  0.6126 -0.5129
   47MOL0     C 6225   5.460   6.003   5.425 -0.0152 -0.3240  0.4371
   47MOL0     C 6226   5.507   5.999   5.566  1.1283  0.0122 -0.9005
   47MOL0     N 6227   5.652   6.002   5.577 -0.5335 -0.3226  0.0718
   47MOL0     C 6228   5.729   5.884   5.558 -0.3084 -0.1517  0.2808
   47MOL0     C 6229   5.855   5.914   5.606 -0.3502 -0.6286 -0.3575
   47MOL0     C 6230   5.967   5.816   5.599 -0.0925 -0.3409  0.0804
   47MOL0     C 6231   6.085   5.875   5.681 -1.0322 -0.0977 -0.0004
   47MOL0     C 6232   6.213   5.800   5.649 -0.5189 -0.2477 -0.1471
   47MOL0     C 6233   6.329   5.860   5.724 -0.2300  0.2011  0.3647
   47MOL0     O 6234   6.444   5.776   5.696  0.2546  0.6183  0.0081
   47MOL0     C 6235   6.564   5.833   5.735 -0.0102 -0.5877  0.7844
   47MOL0     C 6236   6.678   5.760   5.718 -0.8893 -0.5904  1.3743
   47MOL0     C 6237   6.805   5.806   5.743  0.1126 -0.0143  0.1981
   47MOL0     C 6238   6.822   5.930   5.813  0.1172 -0.0363  0.3010
   47MOL0     C 6239   6.951   5.985   5.852 -0.7083  0.3120  0.1373
   47MOL0     O 6240   7.053   5.889   5.848 -0.6673 -0.1182 -0.4568
   47MOL0     C 6241   7.170   5.955   5.899  1.6839  0.8087  0.1234
   47MOL0     C 6242   7.202   5.951   6.033  0.3179 -0.2210 -0.5937
   47MOL0     C 6243   7.300   6.029   6.096  0.4447 -0.2960  0.2382
   47MOL0     C 6244   7.386   6.104   6.019  0.2956  0.1913  0.2385
   47MOL0     O 6245   7.485   6.188   6.057 -0.4189 -0.2605 -0.2989
   47MOL0     C 6246   7.569   6.147   6.174  0.4692 -0.3761 -1.0938
   47MOL0     C 6247   7.653   6.265   6.201 -0.0590 -0.1975  0.1435
   47MOL0     C 6248   7.743   6.317   6.084  0.3872 -0.3458 -0.8266
   47MOL0     C 6249   7.841   6.424   6.149 -0.8133 -0.4654 -0.6563
   47MOL0     C 6250   7.906   6.505   6.043 -0.4172 -0.1870 -0.0099
   47MOL0     C 6251   7.813   6.612   6.003  0.0379  0.8561 -0.1939
   47MOL0     C 6252   7.873   6.716   5.913  0.7271 -0.0638  0.1295
   47MOL0     C 6253   7.770   6.827   5.890 -1.0546 -0.7212 -0.0474
   47MOL0    Cl 6254   7.826   6.966   5.776 -0.0238 -0.3422 -0.2735
   47MOL0     C 6255   7.359   6.102   5.881 -0.0128 -0.8541 -0.7055
   47MOL0     C 6256   7.256   6.032   5.819 -0.5084  0.2838 -0.3865
   47MOL0     O 6257   6.957   6.098   5.901  0.2708  0.3470 -0.2737
   47MOL0     C 6258   6.705   6.006   5.839 -0.3205  0.2599 -0.4688
   47MOL0     C 6259   6.580   5.957   5.798 -0.5160  0.1969 -0.7208
   47MOL0     N 6260   5.853   6.047   5.654  0.0530  0.6193  0.8481
   47MOL0     N 6261   5.737   6.099   5.635  0.2306  0.2031 -0.3476
   47MOL0     C 6262   4.390   5.782   5.467  0.0754  0.0908  0.0515
   47MOL0     C 6263   4.266   5.846   5.473 -0.1302  0.7499  0.1744
   47MOL0     C 6264   3.933   6.065   5.298  0.4758  0.0762 -0.2655
   47MOL0     C 6265   3.881   6.037   5.173 -0.1829  0.6621  0.8841
   47MOL0     C 6266   3.742   6.026   5.158  0.2765 -0.2532  0.1404
   47MOL0     C 6267   3.653   6.045   5.258  0.4773 -0.5381 -0.6005
   47MOL0     O 6268   3.525   6.027   5.220 -0.4195  0.4874 -0.0152
   47MOL0     C 6269   3.428   6.036   5.326 -0.9095 -0.0244  0.4238
   47MOL0     C 6270   3.291   6.015   5.267  0.3729  0.4785 -0.0376
   47MOL0     C 6271   3.236   6.145   5.199  0.4208  0.1530 -0.1654
   47MOL0     C 6272   3.127   6.095   5.102  0.5817 -0.0017  0.3839
   47MOL0     C 6273   3.009   6.029   5.161  0.6522 -0.0373 -0.1295
   47MOL0     C 6274   2.903   5.980   5.188  0.2906  0.8525  0.1734
   47MOL0     C 6275   3.705   6.083   5.384  0.1260 -0.2847 -0.1551
   47MOL0     C 6276   3.844   6.091   5.404 -0.5579  0.5557 -0.1913
   47MOL0     C 6277   3.879   6.130   5.543  0.0778  0.3270 -0.1339
   47MOL0     H 6278   4.380   6.157   5.399  0.8713  0.0977  1.1912
   47MOL0     H 6279   4.576   6.066   5.424  0.1911 -1.5229 -1.4142
   47MOL0     H 6280   4.759   5.954   5.415  0.6088 -1.0315 -1.3517
   47MOL0     H 6281   4.753   5.888   5.581  0.3197 -3.0395  1.0025
   47MOL0     H 6282   4.875   5.770   5.328 -2.8460 -2.4975 -0.6738
   47MOL0     H 6283   4.844   5.675   5.484 -2.0328  1.6552 -0.7848
   47MOL0     H 6284   5.058   5.716   5.507  0.7303  0.3962 -0.5290
   47MOL0     H 6285   4.986   5.835   5.610  2.1826  1.2620 -0.7761
   47MOL0     H 6286   5.070   5.908   5.325 -2.1222 -3.8489 -0.1327
   47MOL0     H 6287   5.054   6.021   5.454 -0.6265 -0.7748  0.5668
   47MOL0     H 6288   5.226   5.889   5.582 -1.1399 -2.0452  0.2033
   47MOL0     H 6289   5.261   5.805   5.424 -1.8830  0.9968 -4.2657
   47MOL0     H 6290   5.283   6.026   5.318 -0.8202 -1.4002 -0.3688
   47MOL0     H 6291   5.279   6.110   5.479  3.7071  0.8254  1.4145
   47MOL0     H 6292   5.501   6.092   5.376  2.7437 -1.6457  0.1685
   47MOL0     H 6293   5.493   5.907   5.386 -0.4183 -0.6351  0.8445
   47MOL0     H 6294   5.475   6.093   5.612  2.1958  1.7608 -3.4799
   47MOL0     H 6295   5.461   5.911   5.613  0.2946  1.0535  0.3287
   47MOL0     H 6296   5.697   5.792   5.509  1.4426  0.8219 -2.9554
   47MOL0     H 6297   5.933   5.723   5.646  0.9752  0.4874  2.6822
   47MOL0     H 6298   6.001   5.806   5.496  2.6881 -1.1270  0.9932
   47MOL0     H 6299   6.091   5.980   5.652 -0.3453 -0.9021 -3.2687
   47MOL0     H 6300   6.061   5.874   5.787  1.6331  0.9264  0.6956
   47MOL0     H 6301   6.237   5.791   5.542 -0.5263  1.8549 -0.3858
   47MOL0     H 6302   6.198   5.699   5.686 -1.7855 -0.2781 -0.6945
   47MOL0     H 6303   6.306   5.863   5.831  3.7928 -3.7984  1.6209
   47MOL0     H 6304   6.342   5.964   5.691 -0.2963  0.3310  0.7380
   47MOL0     H 6305   6.683   5.659   5.677  2.9830 -0.2822  0.6759
   47MOL0     H 6306   6.891   5.746   5.716 -0.7331 -1.0089 -0.3523
   47MOL0     H 6307   7.134   5.891   6.093  0.9978  0.6123  1.0881
   47MOL0     H 6308   7.292   6.031   6.204 -1.1889  1.4196  0.1531
   47MOL0     H 6309   7.504   6.134   6.261  0.1075  0.9267 -1.1446
   47MOL0     H 6310   7.625   6.057   6.149  0.1203 -1.0930  0.5607
   47MOL0     H 6311   7.593   6.351   6.231 -0.1110 -0.7534  1.7212
   47MOL0     H 6312   7.719   6.240   6.285  1.2592  0.4355 -0.6700
   47MOL0     H 6313   7.810   6.244   6.038  1.8219 -0.9054  1.9859
   47MOL0     H 6314   7.682   6.366   6.007 -0.6220 -0.6228 -0.2236
   47MOL0     H 6315   7.903   6.361   6.214 -1.6203 -0.5930  0.0177
   47MOL0     H 6316   7.791   6.496   6.215  1.1434  0.4386 -0.0711
   47MOL0     H 6317   7.940   6.449   5.955  3.2104  3.3906 -1.2184
   47MOL0     H 6318   7.994   6.560   6.077  0.1561 -0.7582 -0.5390
   47MOL0     H 6319   7.735   6.563   5.944 -1.3981  2.2002  0.5216
   47MOL0     H 6320   7.764   6.668   6.083 -0.1561  2.6216 -1.4938
   47MOL0     H 6321   7.912   6.680   5.817 -0.6993 -0.9871 -0.1399
   47MOL0     H 6322   7.954   6.768   5.964 -0.3436  2.4793 -0.5906
   47MOL0     H 6323   7.672   6.788   5.859 -2.3723  0.3296  2.4770
   47MOL0     H 6324   7.755   6.879   5.985 -3.2133 -0.6944 -0.3494
   47MOL0     H 6325   7.435   6.156   5.826  1.3129 -2.0748 -0.1424
   47MOL0     H 6326   7.245   6.023   5.712  1.1410  0.2642 -0.5714
   47MOL0     H 6327   6.703   6.102   5.890 -1.6265 -1.5250  3.2180
   47MOL0     H 6328   6.492   6.017   5.819 -0.8765 -0.9507  1.3470
   47MOL0     H 6329   4.401   5.674   5.467 -1.4021 -0.0926 -1.2458
   47MOL0     H 6330   4.179   5.788   5.504 -0.3539 -0.0513 -1.8369
   47MOL0     H 6331   3.944   6.002   5.091 -1.0086  0.6767  0.2325
   47MOL0     H 6332   3.714   6.003   5.056  0.7146  4.0480 -1.1710
   47MOL0     H 6333   3.433   6.136   5.370 -1.1115 -1.6036  4.4435
   47MOL0     H 6334   3.452   5.968   5.408  2.4223  0.3523 -0.0967
   47MOL0     H 6335   3.213   5.996   5.342  0.0287  4.0240  0.7168
   47MOL0     H 6336   3.291   5.926   5.205 -0.7206  0.3705  0.0892
   47MOL0     H 6337   3.315   6.198   5.146 -0.1251  1.1601  0.0043
   47MOL0     H 6338   3.197   6.219   5.269  2.6107  1.0868  0.1523
   47MOL0     H 6339   3.087   6.169   5.032  0.9023 -0.1148  0.0711
   47MOL0     H 6340   3.172   6.020   5.036  0.4989  0.2587  0.0295
   47MOL0     H 6341   2.799   5.960   5.204  0.3408  0.3874 -0.0523
   47MOL0     H 6342   3.653   6.114   5.474  2.1185 -0.4204  1.0958
   47MOL0     H 6343   3.955   6.208   5.536  0.1851  0.3578  1.1508
   47MOL0     H 6344   3.793   6.170   5.598 -0.3600  1.6908 -1.7014
   47MOL0     H 6345   3.923   6.046   5.598 -3.1087  0.0736  2.3247
   48MOL0     O 6346   7.458   0.236  10.554 -0.7930 -0.1898  0.4477
   48MOL0     C 6347   7.454   0.134  10.617 -0.1470  1.3559 -0.3479
   48MOL0     O 6348   7.335   0.050  10.612 -0.1019 -0.1864 -0.3284
   48MOL0     C 6349   7.216   0.084  10.545 -0.8977  0.0742  0.1469
   48MOL0     C 6350   7.118  -0.017  10.518  0.0471 -0.2126  0.5504
   48MOL0     C 6351   6.996   0.012  10.457 -1.1937 -0.6061 -0.1489
   48MOL0     C 6352   6.966   0.149  10.433 -0.1629 -0.1312  0.5652
   48MOL0     O 6353   6.847   0.180  10.383 -0.9851 -0.1303  0.6349
   48MOL0     C 6354   6.818   0.103  10.263  0.2405 -0.0445 -0.0705
   48MOL0     C 6355   6.691   0.143  10.203  0.3027 -0.3460 -0.3967
   48MOL0     C 6356   6.681   0.284  10.147  0.0614  0.4704  0.2954
   48MOL0     C 6357   6.533   0.304  10.106  0.0065 -0.2727 -0.0358
   48MOL0     C 6358   6.504   0.443  10.052  0.1839 -0.1308 -1.2602
   48MOL0     C 6359   6.549   0.568  10.128  0.4328  0.5165 -1.1577
   48MOL0     C 6360   6.520   0.557  10.281 -0.4758 -1.0272 -0.6626
   48MOL0     C 6361   6.540   0.684  10.351  0.1462  0.1681  0.6769
   48MOL0     N 6362   6.676   0.734  10.358  0.2125 -0.0294  0.3518
   48MOL0     C 6363   6.787   0.672  10.413 -0.1816 -0.0173  0.4692
   48MOL0     C 6364   6.890   0.741  10.360  0.5189  0.5586 -0.1386
   48MOL0     C 6365   7.026   0.716  10.403 -0.7300 -1.0335  0.5281
   48MOL0     C 6366   7.133   0.740  10.292  0.0266 -0.1704 -0.0240
   48MOL0     C 6367   7.279   0.740  10.349 -0.4644 -0.4718 -0.5301
   48MOL0     C 6368   7.314   0.605  10.406 -0.5958 -0.1497 -0.7688
   48MOL0     O 6369   7.445   0.615  10.456 -0.2308 -0.7967 -1.4701
   48MOL0     C 6370   7.559   0.577  10.395  0.4712  0.6249  0.3358
   48MOL0     C 6371   7.670   0.557  10.478  0.5213 -0.1809  0.3558
   48MOL0     C 6372   7.781   0.497  10.427 -0.7178 -0.1379 -0.6360
   48MOL0     C 6373   7.791   0.477  10.289 -0.6746  0.2118  0.0552
   48MOL0     C 6374   7.917   0.431  10.239 -0.5404 -0.7091 -0.8496
   48MOL0     O 6375   8.010   0.379  10.324  0.0119 -0.6920 -0.3545
   48MOL0     C 6376   8.129   0.335  10.264 -0.1003  0.6638 -0.1449
   48MOL0     C 6377   8.124   0.230  10.171 -0.7057  0.7302  0.5805
   48MOL0     C 6378   8.243   0.172  10.125  0.0097  0.0395  0.4008
   48MOL0     C 6379   8.367   0.231  10.153  0.2058 -0.2368  0.4046
   48MOL0     O 6380   8.488   0.188  10.119 -0.1355  0.8641  0.0707
   48MOL0     C 6381   8.503   0.160   9.976 -0.3483  0.2643 -0.3493
   48MOL0     C 6382   8.651   0.152   9.943 -0.4849 -0.1031 -0.8648
   48MOL0     C 6383   8.685   0.080   9.806  1.2093 -0.6765 -0.1308
   48MOL0     C 6384   8.824   0.024   9.786 -1.5845 -0.3789  0.3833
   48MOL0     C 6385   8.929   0.127   9.754 -0.3060 -0.2642  0.5500
   48MOL0     C 6386   8.894   0.216   9.635  0.0852 -0.0718  1.1796
   48MOL0     C 6387   9.017   0.290   9.585 -0.7969 -0.2521  0.6271
   48MOL0     C 6388   9.009   0.308   9.433  0.9218  0.1767  1.2227
   48MOL0    Cl 6389   8.881   0.422   9.378  0.0264 -0.1309  0.2968
   48MOL0     C 6390   8.365   0.328  10.248 -0.4613 -0.1275 -0.6100
   48MOL0     C 6391   8.252   0.385  10.303  0.5286 -0.6145  0.4041
   48MOL0     O 6392   7.926   0.430  10.117  0.0070  1.1083  0.7640
   48MOL0     C 6393   7.685   0.504  10.204  0.0009 -0.4623  0.7645
   48MOL0     C 6394   7.567   0.552  10.258  0.2405 -0.0432 -0.3064
   48MOL0     N 6395   6.852   0.846  10.281 -0.1816 -0.0776  1.0105
   48MOL0     N 6396   6.721   0.835  10.282  0.3579  0.4972 -0.0623
   48MOL0     C 6397   7.060   0.243  10.460  0.0800 -0.3516 -0.6271
   48MOL0     C 6398   7.181   0.219  10.518 -0.2013 -0.0707  0.9674
   48MOL0     C 6399   7.565   0.081  10.698  0.8276  0.2476  1.0710
   48MOL0     C 6400   7.551  -0.044  10.762  1.1605 -0.5765  0.7724
   48MOL0     C 6401   7.641  -0.114  10.842 -0.4505  0.3647  0.7008
   48MOL0     C 6402   7.762  -0.046  10.859 -0.3264  0.2640  0.4541
   48MOL0     O 6403   7.873  -0.094  10.926 -0.2460  0.4703 -0.2996
   48MOL0     C 6404   7.881  -0.235  10.941  0.2422 -0.6657  0.0208
   48MOL0     C 6405   8.011  -0.271  11.003 -0.2644 -0.0663  0.3586
   48MOL0     C 6406   8.128  -0.262  10.888  0.4745  0.4125 -0.3330
   48MOL0     C 6407   8.239  -0.357  10.933  0.0703 -0.0519  0.3006
   48MOL0     C 6408   8.328  -0.404  10.820 -0.0082  0.3552  0.4986
   48MOL0     C 6409   8.405  -0.440  10.728 -0.4652 -0.5942  0.7985
   48MOL0     C 6410   7.784   0.074  10.788  0.2037  0.0751 -0.5002
   48MOL0     C 6411   7.689   0.140  10.708 -0.4074  0.6450 -0.2332
   48MOL0     C 6412   7.749   0.256  10.636  0.0560 -0.2891 -0.1978
   48MOL0     H 6413   7.133  -0.125  10.525 -3.3059 -1.0579 -2.4464
   48MOL0     H 6414   6.933  -0.076  10.445 -0.5996 -1.0458 -0.0940
   48MOL0     H 6415   6.892   0.108  10.183 -0.8453  0.3672 -1.0866
   48MOL0     H 6416   6.804  -0.001  10.292 -0.0019 -0.1160 -0.4429
   48MOL0     H 6417   6.611   0.133  10.277  0.8324 -0.8792  0.1173
   48MOL0     H 6418   6.671   0.073  10.121 -0.2655  1.8453 -2.2436
   48MOL0     H 6419   6.747   0.289  10.060  2.6469  1.4558  2.1792
   48MOL0     H 6420   6.722   0.364  10.210  0.6170  1.3926 -1.1918
   48MOL0     H 6421   6.495   0.237  10.028 -0.9287  1.0181 -0.7209
   48MOL0     H 6422   6.467   0.296  10.193 -0.8034 -2.6988 -0.7890
   48MOL0     H 6423   6.532   0.441   9.946  0.2378 -2.0976 -1.2438
   48MOL0     H 6424   6.395   0.445  10.042 -0.1237 -1.4409  1.2228
   48MOL0     H 6425   6.655   0.585  10.108  0.2504  1.3853 -1.4318
   48MOL0     H 6426   6.500   0.659  10.094  2.0706  0.9751 -2.3924
   48MOL0     H 6427   6.602   0.500  10.326  1.9132  2.1055 -0.7987
   48MOL0     H 6428   6.420   0.524  10.312  0.3339 -1.8137  1.3103
   48MOL0     H 6429   6.478   0.766  10.314 -1.2409 -0.1981  2.1025
   48MOL0     H 6430   6.511   0.680  10.456  0.1517 -0.0998  0.6683
   48MOL0     H 6431   6.793   0.589  10.483 -0.9808 -1.2437 -0.8471
   48MOL0     H 6432   7.047   0.793  10.477  0.6514 -0.6125 -0.2630
   48MOL0     H 6433   7.040   0.613  10.434  1.2646 -1.7843 -2.4069
   48MOL0     H 6434   7.109   0.667  10.214 -1.8951  1.3462 -0.9526
   48MOL0     H 6435   7.117   0.842  10.254  2.5717  0.6409  0.8712
   48MOL0     H 6436   7.308   0.816  10.422 -1.2326 -2.4147  1.9235
   48MOL0     H 6437   7.346   0.769  10.267  1.3447 -1.6438  0.4685
   48MOL0     H 6438   7.294   0.528  10.331 -2.2846 -0.8792  0.3635
   48MOL0     H 6439   7.250   0.582  10.492  3.4554 -0.3220  2.4838
   48MOL0     H 6440   7.660   0.569  10.585  0.9049  2.3399  0.1572
   48MOL0     H 6441   7.873   0.483  10.484 -0.7946  1.6591  0.0085
   48MOL0     H 6442   8.029   0.185  10.144 -1.7347  2.5041  1.0669
   48MOL0     H 6443   8.242   0.089  10.054 -2.4936  0.9379 -0.7332
   48MOL0     H 6444   8.451   0.069   9.946  1.8699 -0.2957 -2.8834
   48MOL0     H 6445   8.457   0.238   9.913 -1.1548  2.0347  2.2414
   48MOL0     H 6446   8.697   0.251   9.940  2.1989 -0.9601  3.2960
   48MOL0     H 6447   8.699   0.102  10.028 -1.9028  0.9175  0.5824
   48MOL0     H 6448   8.628  -0.012   9.788  1.2783 -1.5108  3.3632
   48MOL0     H 6449   8.660   0.146   9.722  0.1601 -1.5116 -0.4987
   48MOL0     H 6450   8.827  -0.048   9.703  0.9389 -0.2157  0.2601
   48MOL0     H 6451   8.859  -0.030   9.875 -1.1275 -0.8111 -0.0478
   48MOL0     H 6452   9.029   0.083   9.745  0.2288  1.1281 -0.5383
   48MOL0     H 6453   8.924   0.187   9.845 -0.0425 -0.3785  0.6425
   48MOL0     H 6454   8.842   0.159   9.557 -2.7219  0.4609  2.5386
   48MOL0     H 6455   8.818   0.291   9.659 -1.1347  0.2472 -2.8958
   48MOL0     H 6456   9.105   0.226   9.597  0.3275  1.0192 -0.5164
   48MOL0     H 6457   9.034   0.387   9.632 -0.4494  1.3757 -2.5850
   48MOL0     H 6458   9.106   0.344   9.399  0.4129 -0.3275 -0.8826
   48MOL0     H 6459   8.994   0.213   9.381  0.0184  1.0471 -0.1862
   48MOL0     H 6460   8.464   0.363  10.276 -0.0593 -1.3456 -0.4779
   48MOL0     H 6461   8.257   0.465  10.376  0.0232 -1.0878  0.9534
   48MOL0     H 6462   7.687   0.472  10.100 -0.3527  0.0458  0.6017
   48MOL0     H 6463   7.475   0.563  10.202  0.4907  0.6337 -0.5899
   48MOL0     H 6464   7.051   0.349  10.437 -1.3141  0.5078  3.1290
   48MOL0     H 6465   7.238   0.311  10.533 -0.8122  0.7709 -1.3871
   48MOL0     H 6466   7.465  -0.108  10.746  1.8743 -0.9526 -2.1798
   48MOL0     H 6467   7.631  -0.217  10.873  2.2187  0.5622  2.5259
   48MOL0     H 6468   7.864  -0.293  10.850  3.4292 -1.5973 -0.0957
   48MOL0     H 6469   7.813  -0.261  11.022  0.0724 -0.0066  0.0967
   48MOL0     H 6470   7.999  -0.374  11.036 -0.1390 -0.5751 -1.1156
   48MOL0     H 6471   8.051  -0.207  11.082 -0.2916  0.4402 -0.0327
   48MOL0     H 6472   8.172  -0.164  10.871  1.7723  0.2604  1.8515
   48MOL0     H 6473   8.097  -0.308  10.793  3.8977 -1.2866 -0.7843
   48MOL0     H 6474   8.295  -0.297  11.005  0.8245  1.5780 -1.5409
   48MOL0     H 6475   8.198  -0.446  10.981  0.4648 -1.0176 -1.0955
   48MOL0     H 6476   8.466  -0.457  10.642 -1.9647  0.7188 -0.5947
   48MOL0     H 6477   7.875   0.127  10.811 -1.1487  2.6527 -0.7010
   48MOL0     H 6478   7.692   0.279  10.545 -1.1039  0.0419  0.5960
   48MOL0     H 6479   7.746   0.347  10.696  0.0410 -1.7499  2.1564
   48MOL0     H 6480   7.851   0.231  10.607 -0.3810 -4.8035  1.3841
   49MOL0     O 6481   2.199   0.849   6.489  0.6324  0.2929 -0.0468
   49MOL0     C 6482   2.105   0.775   6.452 -0.1658 -0.1409 -0.6986
   49MOL0     O 6483   1.977   0.792   6.492  0.1418  0.2097  1.0378
   49MOL0     C 6484   1.955   0.854   6.614 -0.1596 -0.5292  0.0467
   49MOL0     C 6485   1.932   0.988   6.632  0.6885 -0.4382  0.0987
   49MOL0     C 6486   1.935   1.047   6.763  0.1967  0.0200  0.2781
   49MOL0     C 6487   1.954   0.971   6.875  0.4543  0.1883 -0.0038
   49MOL0     O 6488   1.945   1.015   7.010 -0.2827  0.6312 -0.6667
   49MOL0     C 6489   1.968   1.151   7.035 -0.4250  0.0041 -1.0897
   49MOL0     C 6490   2.111   1.193   6.991 -0.4393 -0.1521 -0.0194
   49MOL0     C 6491   2.191   1.245   7.106  0.7036  0.0508  0.2502
   49MOL0     C 6492   2.325   1.311   7.075  0.2652 -0.1080 -0.2993
   49MOL0     C 6493   2.394   1.357   7.208 -0.0825 -0.2347  0.5754
   49MOL0     C 6494   2.542   1.392   7.176 -0.3318 -0.2188  0.3208
   49MOL0     C 6495   2.606   1.468   7.296 -0.0485 -0.6979 -0.1365
   49MOL0     C 6496   2.720   1.556   7.252 -0.1583 -0.9009  0.1098
   49MOL0     N 6497   2.838   1.481   7.214  1.3891  0.3922 -0.1118
   49MOL0     C 6498   2.869   1.428   7.093 -0.1176 -0.8834 -0.6952
   49MOL0     C 6499   3.000   1.388   7.106  0.3727 -0.1326  1.0062
   49MOL0     C 6500   3.076   1.309   7.001  1.1286 -0.4297 -0.4212
   49MOL0     C 6501   3.226   1.321   7.022  0.0970 -0.3959 -1.0865
   49MOL0     C 6502   3.291   1.194   6.963  0.2677 -0.4824  1.3095
   49MOL0     C 6503   3.442   1.197   6.937  0.0900 -0.8523  0.4632
   49MOL0     O 6504   3.507   1.216   7.060  0.1051 -0.2209 -0.3389
   49MOL0     C 6505   3.643   1.202   7.064 -0.7987  0.3669  0.1624
   49MOL0     C 6506   3.695   1.235   7.190  0.1413  0.9671 -0.3311
   49MOL0     C 6507   3.827   1.211   7.222  0.4706 -0.3611  0.4731
   49MOL0     C 6508   3.923   1.175   7.114  0.8338  0.5733  0.9713
   49MOL0     C 6509   4.069   1.175   7.134 -0.0839 -0.4391  0.0311
   49MOL0     O 6510   4.150   1.105   7.048 -0.4293 -0.8805  0.2054
   49MOL0     C 6511   4.287   1.131   7.040  0.3195  0.1788 -0.2775
   49MOL0     C 6512   4.364   1.052   6.952  0.4185 -0.4742 -0.0166
   49MOL0     C 6513   4.504   1.077   6.926  0.7091  0.7274  0.0484
   49MOL0     C 6514   4.575   1.174   6.991  0.5364 -0.1336 -0.6815
   49MOL0     O 6515   4.712   1.197   6.967  0.4064 -0.3919 -0.0349
   49MOL0     C 6516   4.738   1.225   6.832  0.4271  0.3310  0.0283
   49MOL0     C 6517   4.888   1.267   6.812 -0.5439 -0.9281  0.0490
   49MOL0     C 6518   4.984   1.155   6.856  0.9494 -1.8493 -0.6115
   49MOL0     C 6519   5.129   1.181   6.822 -0.6018 -0.0482 -0.1319
   49MOL0     C 6520   5.221   1.072   6.894 -0.0877 -0.4260 -0.8775
   49MOL0     C 6521   5.188   0.925   6.855  0.4708  0.7068 -0.1573
   49MOL0     C 6522   5.285   0.824   6.925  1.0152 -0.6552  0.5141
   49MOL0     C 6523   5.274   0.685   6.858 -0.1972 -0.1463  0.1654
   49MOL0    Cl 6524   5.310   0.677   6.677  0.3988 -0.1604 -0.5288
   49MOL0     C 6525   4.497   1.247   7.089 -0.7419 -0.2445  0.0849
   49MOL0     C 6526   4.359   1.230   7.116  0.4179  0.5495  0.0286
   49MOL0     O 6527   4.111   1.221   7.245 -0.4157 -0.1302  0.5473
   49MOL0     C 6528   3.869   1.144   6.992  0.2749 -0.8207 -0.2431
   49MOL0     C 6529   3.732   1.157   6.964  0.1349  0.6861  0.7762
   49MOL0     N 6530   3.044   1.428   7.229 -0.2966  0.1177 -0.7954
   49MOL0     N 6531   2.944   1.472   7.294 -0.3659  0.0662  0.1957
   49MOL0     C 6532   1.962   0.831   6.858  0.1414  0.0659  0.2067
   49MOL0     C 6533   1.966   0.777   6.730  0.8967  0.0309  0.1705
   49MOL0     C 6534   2.133   0.682   6.342  0.7152 -0.3035  0.0531
   49MOL0     C 6535   2.017   0.637   6.265 -0.2965 -0.4214 -0.2502
   49MOL0     C 6536   2.029   0.541   6.170  0.6880  0.7068 -0.1432
   49MOL0     C 6537   2.155   0.504   6.130  0.0643 -0.2814 -0.7755
   49MOL0     O 6538   2.193   0.422   6.032 -0.1811  0.4895  0.3286
   49MOL0     C 6539   2.094   0.366   5.942  0.2729 -0.5085  0.0766
   49MOL0     C 6540   2.088   0.214   5.972  0.2437  0.3359 -0.4290
   49MOL0     C 6541   2.038   0.144   5.843  1.0672 -0.0786 -0.2230
   49MOL0     C 6542   2.022  -0.009   5.873  0.3774 -0.4180 -0.2114
   49MOL0     C 6543   2.158  -0.062   5.876 -1.3687 -0.2121  0.0022
   49MOL0     C 6544   2.272  -0.099   5.885 -0.5638  0.8506 -0.2176
   49MOL0     C 6545   2.269   0.553   6.195 -0.1700  0.1521 -0.5358
   49MOL0     C 6546   2.259   0.639   6.310 -0.9736  0.0987  0.8080
   49MOL0     C 6547   2.387   0.668   6.381 -0.9394 -0.2101  0.1762
   49MOL0     H 6548   1.918   1.048   6.543 -4.2898 -1.3292 -0.0413
   49MOL0     H 6549   1.920   1.154   6.763  2.8913  0.4803 -0.6033
   49MOL0     H 6550   1.897   1.220   6.989  0.1361 -0.1478 -2.2364
   49MOL0     H 6551   1.966   1.184   7.139 -1.6790 -1.8990 -0.4736
   49MOL0     H 6552   2.114   1.268   6.912  1.8085 -0.4982 -0.3173
   49MOL0     H 6553   2.164   1.104   6.955 -0.2282 -0.0153 -0.0412
   49MOL0     H 6554   2.218   1.166   7.177  1.1604 -0.4920 -0.5182
   49MOL0     H 6555   2.129   1.319   7.158  1.3358 -0.2166  1.4276
   49MOL0     H 6556   2.388   1.242   7.017  0.7287 -1.1315  1.3701
   49MOL0     H 6557   2.290   1.392   7.010 -3.2080 -2.0650 -1.1268
   49MOL0     H 6558   2.334   1.440   7.245 -0.3442 -0.1834  0.0511
   49MOL0     H 6559   2.390   1.285   7.290 -0.2110 -1.6632 -0.6459
   49MOL0     H 6560   2.593   1.298   7.155  0.2595  0.4264 -1.2807
   49MOL0     H 6561   2.554   1.458   7.090  1.8566 -1.0850 -0.1089
   49MOL0     H 6562   2.650   1.391   7.360 -1.6927 -1.1008  0.5617
   49MOL0     H 6563   2.536   1.537   7.344  0.1426 -1.1609  0.8214
   49MOL0     H 6564   2.694   1.620   7.167  1.9726  0.8788  0.7071
   49MOL0     H 6565   2.744   1.629   7.330 -2.9988  2.8852 -2.2055
   49MOL0     H 6566   2.815   1.428   6.998 -1.2042  1.3310 -0.1324
   49MOL0     H 6567   3.053   1.203   7.015  1.7165 -0.7485 -1.7203
   49MOL0     H 6568   3.049   1.349   6.903  0.0115  2.7389  1.0519
   49MOL0     H 6569   3.263   1.414   6.978  0.5566  0.3910  0.8421
   49MOL0     H 6570   3.248   1.340   7.128  1.0426 -0.1164 -1.3216
   49MOL0     H 6571   3.237   1.166   6.872  0.8233 -4.0522  1.8978
   49MOL0     H 6572   3.276   1.114   7.037  3.1443 -1.5117  0.9093
   49MOL0     H 6573   3.469   1.264   6.854  1.8165 -0.3769  1.3720
   49MOL0     H 6574   3.475   1.095   6.916  3.2317  0.0931  0.3648
   49MOL0     H 6575   3.620   1.255   7.266 -0.5404 -1.1883 -0.3580
   49MOL0     H 6576   3.851   1.242   7.323 -2.2410  0.1602  1.0425
   49MOL0     H 6577   4.332   0.963   6.898  3.1344 -1.7179  0.2802
   49MOL0     H 6578   4.551   1.009   6.856  0.6858 -0.6960  1.3705
   49MOL0     H 6579   4.726   1.140   6.763 -1.9366  0.9781 -0.4413
   49MOL0     H 6580   4.667   1.299   6.795 -1.6671 -1.8578 -0.6164
   49MOL0     H 6581   4.899   1.288   6.705  1.1230  0.2962  0.4217
   49MOL0     H 6582   4.906   1.363   6.860 -4.5169  0.3759 -0.6542
   49MOL0     H 6583   4.989   1.152   6.966 -0.7311 -0.9631 -0.4859
   49MOL0     H 6584   4.944   1.062   6.815 -2.1381 -0.7535 -0.2895
   49MOL0     H 6585   5.171   1.280   6.844  1.8037 -0.9974 -0.1064
   49MOL0     H 6586   5.135   1.165   6.714  0.1589 -3.6607  0.3266
   49MOL0     H 6587   5.203   1.081   7.002 -1.9323 -0.3733 -1.1553
   49MOL0     H 6588   5.324   1.100   6.872  0.2138 -0.7615  0.0403
   49MOL0     H 6589   5.087   0.887   6.872  0.3325  0.4831 -1.3778
   49MOL0     H 6590   5.197   0.912   6.747 -0.5767  1.0682 -0.2973
   49MOL0     H 6591   5.256   0.826   7.031  0.8893  0.6359  0.4694
   49MOL0     H 6592   5.389   0.855   6.911  0.8691 -1.2180 -2.4478
   49MOL0     H 6593   5.334   0.607   6.906 -1.1862  0.4642  2.4984
   49MOL0     H 6594   5.170   0.655   6.873  0.1180 -0.5362  1.7542
   49MOL0     H 6595   4.540   1.332   7.142 -2.2544  1.2777 -1.0114
   49MOL0     H 6596   4.319   1.314   7.171  2.0667  1.7180 -0.4675
   49MOL0     H 6597   3.943   1.127   6.915 -0.2472 -0.2085 -0.8900
   49MOL0     H 6598   3.700   1.126   6.865  0.2081 -0.7538  1.1793
   49MOL0     H 6599   1.972   0.767   6.945  3.5513 -0.2988 -0.3395
   49MOL0     H 6600   1.989   0.675   6.703  1.8275  0.3077 -0.1048
   49MOL0     H 6601   1.919   0.669   6.298  0.1315  2.2749 -1.3319
   49MOL0     H 6602   1.931   0.515   6.131 -0.9859  1.8322  2.9622
   49MOL0     H 6603   2.122   0.385   5.839  1.1048 -0.7512  0.2561
   49MOL0     H 6604   1.991   0.403   5.949  0.0624 -0.5910 -2.0265
   49MOL0     H 6605   2.009   0.208   6.048  0.1859 -0.2128 -0.5333
   49MOL0     H 6606   2.186   0.191   6.014  1.0385  3.1360 -0.5358
   49MOL0     H 6607   2.110   0.135   5.760 -0.1314 -2.0859 -1.1255
   49MOL0     H 6608   1.939   0.182   5.819 -0.6424 -2.2360  2.8097
   49MOL0     H 6609   1.965  -0.034   5.963 -1.8813  0.8557 -1.2210
   49MOL0     H 6610   1.962  -0.041   5.788 -4.9723  0.7886  2.6453
   49MOL0     H 6611   2.372  -0.133   5.903 -0.4067  0.7542 -1.2168
   49MOL0     H 6612   2.358   0.525   6.140 -0.8352  0.9857 -2.1296
   49MOL0     H 6613   2.356   0.662   6.486  0.4238  0.8841  0.6717
   49MOL0     H 6614   2.476   0.609   6.361 -0.5662  0.2449  0.4611
   49MOL0     H 6615   2.412   0.774   6.367 -2.4904  0.2415  0.5457
   50MOL0     O 6616  10.128   4.304   0.793  0.5150  0.3142  1.1795
   50MOL0     C 6617  10.068   4.310   0.902 -0.7646 -0.0990  0.4986
   50MOL0     O 6618  10.124   4.342   1.019 -0.2187 -0.5942 -0.2673
   50MOL0     C 6619  10.258   4.370   1.023 -0.0202 -0.7252  0.4336
   50MOL0     C 6620  10.325   4.470   0.949 -0.0148 -0.4770 -0.5551
   50MOL0     C 6621  10.466   4.483   0.942 -0.7152 -0.3036  0.3338
   50MOL0     C 6622  10.548   4.396   1.009  0.1242 -0.7183 -0.1879
   50MOL0     O 6623  10.680   4.420   1.017  0.6581 -0.3445 -0.1454
   50MOL0     C 6624  10.769   4.341   1.088 -0.3592 -0.5511 -0.5818
   50MOL0     C 6625  10.915   4.407   1.073 -0.1612  0.5029  0.1847
   50MOL0     C 6626  10.995   4.371   0.948  0.3682  0.8586  0.0248
   50MOL0     C 6627  10.918   4.413   0.818 -0.7873 -0.1258  0.5846
   50MOL0     C 6628  11.013   4.429   0.708  0.4853  0.4525  0.5953
   50MOL0     C 6629  10.943   4.449   0.570  0.7801 -0.0915 -0.1748
   50MOL0     C 6630  11.033   4.537   0.484  0.5568  0.0292  1.1430
   50MOL0     C 6631  10.970   4.573   0.353  0.1672  0.1237 -0.2617
   50MOL0     N 6632  10.846   4.650   0.372  0.0565 -0.0037  0.1378
   50MOL0     C 6633  10.832   4.763   0.452  0.1301 -0.8114  0.2554
   50MOL0     C 6634  10.708   4.798   0.430 -0.1339 -0.0749  0.7839
   50MOL0     C 6635  10.652   4.931   0.474  0.1354  0.6190  0.1400
   50MOL0     C 6636  10.541   4.986   0.386  0.1929  0.1584  0.6529
   50MOL0     C 6637  10.614   5.022   0.251 -0.8492 -0.1087 -0.2919
   50MOL0     C 6638  10.521   5.101   0.161 -0.6717  0.9058 -0.0847
   50MOL0     O 6639  10.394   5.035   0.150 -0.0571 -0.8554 -0.0141
   50MOL0     C 6640  10.294   5.097   0.076  0.5874  0.6794 -0.7930
   50MOL0     C 6641  10.289   5.216   0.008  0.1427 -0.3756  0.2583
   50MOL0     C 6642  10.173   5.268  -0.050 -0.2358  0.3614 -1.6437
   50MOL0     C 6643  10.056   5.194  -0.046  1.1937  0.3035 -0.1297
   50MOL0     C 6644   9.929   5.254  -0.095  0.1113  0.3143  0.3475
   50MOL0     O 6645   9.913   5.389  -0.089 -0.6473  0.3217  0.3082
   50MOL0     C 6646   9.808   5.418  -0.173  1.0423  0.1002 -0.9964
   50MOL0     C 6647   9.688   5.424  -0.109  0.6696  1.0909 -0.8663
   50MOL0     C 6648   9.572   5.468  -0.180 -0.0203  0.1271 -0.5364
   50MOL0     C 6649   9.573   5.504  -0.312  0.5824 -0.6181 -0.3913
   50MOL0     O 6650   9.457   5.557  -0.369  0.2205 -0.2766 -0.5683
   50MOL0     C 6651   9.362   5.463  -0.419  0.1557  0.0885  0.7175
   50MOL0     C 6652   9.236   5.458  -0.333 -0.2253 -0.5100  0.2569
   50MOL0     C 6653   9.180   5.597  -0.323 -0.1023  0.3477 -0.8147
   50MOL0     C 6654   9.029   5.576  -0.294  0.2128 -0.7247 -0.3713
   50MOL0     C 6655   8.955   5.716  -0.267  0.7925  0.0099 -0.4101
   50MOL0     C 6656   8.968   5.822  -0.369 -0.5979 -0.1336  0.7996
   50MOL0     C 6657   8.914   5.781  -0.503  0.4089  0.1106  1.2633
   50MOL0     C 6658   8.952   5.895  -0.608 -0.5004  0.2992 -0.3632
   50MOL0    Cl 6659   8.857   5.871  -0.756  0.0425 -0.2771  0.5441
   50MOL0     C 6660   9.696   5.504  -0.378  0.0960 -0.5907  0.1887
   50MOL0     C 6661   9.811   5.455  -0.312 -0.4793  0.0972  0.0065
   50MOL0     O 6662   9.853   5.169  -0.150  0.6059 -0.4038  0.2388
   50MOL0     C 6663  10.057   5.074   0.016  0.7721 -0.2513  0.4677
   50MOL0     C 6664  10.171   5.029   0.069 -0.0032  0.5239 -0.6008
   50MOL0     N 6665  10.643   4.709   0.347 -0.0272 -0.3288 -0.1488
   50MOL0     N 6666  10.731   4.624   0.310  0.2719 -0.3273  0.1606
   50MOL0     C 6667  10.484   4.296   1.081  0.4997 -0.3051  0.0198
   50MOL0     C 6668  10.347   4.274   1.082  1.0953  0.1840  0.8042
   50MOL0     C 6669   9.926   4.279   0.885  0.3407  0.3894  0.5598
   50MOL0     C 6670   9.847   4.344   0.981 -0.7009 -0.2135  0.7222
   50MOL0     C 6671   9.705   4.333   0.975  0.1892  0.3512  0.5099
   50MOL0     C 6672   9.644   4.247   0.887  0.9197 -0.0922  0.0722
   50MOL0     O 6673   9.510   4.232   0.919 -0.4052 -0.1410  0.1903
   50MOL0     C 6674   9.433   4.160   0.825  0.5171  0.1413 -1.1665
   50MOL0     C 6675   9.284   4.156   0.861 -0.8377  0.4874 -0.8532
   50MOL0     C 6676   9.227   4.059   0.965 -0.2146  0.5234  0.0428
   50MOL0     C 6677   9.080   4.021   0.929  0.1326 -0.4125 -0.0172
   50MOL0     C 6678   9.026   3.931   1.029  0.2706  0.3451 -0.0437
   50MOL0     C 6679   8.956   3.864   1.097  0.0000 -0.6066 -0.1025
   50MOL0     C 6680   9.721   4.194   0.786 -0.2142 -0.2041 -0.5344
   50MOL0     C 6681   9.862   4.204   0.782  0.2440  0.8969 -0.8838
   50MOL0     C 6682   9.929   4.112   0.684  0.2088  0.3080  0.6737
   50MOL0     H 6683  10.264   4.546   0.902 -1.1326 -1.6143 -0.9950
   50MOL0     H 6684  10.503   4.573   0.896 -1.7281  0.8534  1.6973
   50MOL0     H 6685  10.755   4.340   1.196 -1.4275  0.1908 -0.7065
   50MOL0     H 6686  10.773   4.238   1.050 -0.1109 -1.3775  1.5718
   50MOL0     H 6687  10.978   4.376   1.157  0.6103 -0.9796 -0.8986
   50MOL0     H 6688  10.913   4.517   1.070 -0.1522  0.5023 -2.6920
   50MOL0     H 6689  11.021   4.264   0.951  0.2052  0.8144 -0.1168
   50MOL0     H 6690  11.094   4.415   0.962  0.2054  0.6098  2.4518
   50MOL0     H 6691  10.838   4.344   0.791  0.2791 -0.9425 -0.5808
   50MOL0     H 6692  10.874   4.512   0.837  2.0042  0.9898  1.8811
   50MOL0     H 6693  11.074   4.517   0.730 -2.9172  3.7879 -1.8983
   50MOL0     H 6694  11.087   4.349   0.698 -0.3130 -0.3090  0.6753
   50MOL0     H 6695  10.931   4.348   0.529 -2.0293  0.0920 -0.0028
   50MOL0     H 6696  10.842   4.488   0.588 -0.6694 -3.4037 -0.3520
   50MOL0     H 6697  11.129   4.492   0.454 -0.5973 -0.9983 -1.3145
   50MOL0     H 6698  11.054   4.636   0.525 -1.7137  1.1988 -0.3091
   50MOL0     H 6699  11.039   4.636   0.297 -0.2255  1.6237  0.8932
   50MOL0     H 6700  10.966   4.480   0.295 -3.5900  0.0717 -0.1584
   50MOL0     H 6701  10.915   4.823   0.487 -1.0085  0.2422  1.2320
   50MOL0     H 6702  10.608   4.928   0.574 -2.6091  1.4723 -0.9631
   50MOL0     H 6703  10.735   5.002   0.466 -0.0687  0.7352 -1.2146
   50MOL0     H 6704  10.462   4.914   0.365 -0.2852  1.1396 -1.0769
   50MOL0     H 6705  10.491   5.068   0.438  1.3951 -0.7891  3.4786
   50MOL0     H 6706  10.647   4.933   0.196  1.1613 -0.0319  0.7102
   50MOL0     H 6707  10.701   5.087   0.261  2.0462 -3.7770  0.7120
   50MOL0     H 6708  10.568   5.124   0.065  1.6810  3.5727  1.5447
   50MOL0     H 6709  10.511   5.200   0.205  0.9033 -0.0615  2.6567
   50MOL0     H 6710  10.383   5.269  -0.000 -0.7457  1.1315 -0.5827
   50MOL0     H 6711  10.182   5.358  -0.109  2.9158 -0.3236 -2.4060
   50MOL0     H 6712   9.682   5.396  -0.005  2.0277  1.3397 -0.6986
   50MOL0     H 6713   9.481   5.480  -0.122  1.0470 -0.0089  1.2691
   50MOL0     H 6714   9.324   5.500  -0.514 -0.5369  1.4982  1.5105
   50MOL0     H 6715   9.407   5.365  -0.437  1.5556  0.5993  1.3077
   50MOL0     H 6716   9.167   5.389  -0.382 -0.6588  0.3544 -0.3778
   50MOL0     H 6717   9.251   5.425  -0.229 -3.6044 -2.6181  0.2206
   50MOL0     H 6718   9.228   5.645  -0.237  1.5516 -2.4621 -0.0364
   50MOL0     H 6719   9.201   5.655  -0.413  1.6553 -0.5367 -1.0215
   50MOL0     H 6720   9.016   5.507  -0.210 -3.7592 -0.0620 -0.2128
   50MOL0     H 6721   8.978   5.525  -0.376  0.8545 -1.7936 -0.1216
   50MOL0     H 6722   8.999   5.757  -0.175 -0.7219  0.7215  0.0154
   50MOL0     H 6723   8.848   5.698  -0.252  0.8595  0.1111  0.2018
   50MOL0     H 6724   8.910   5.912  -0.343 -0.8589 -0.4015  1.1485
   50MOL0     H 6725   9.074   5.845  -0.386  0.5317 -5.0536 -0.2527
   50MOL0     H 6726   8.805   5.794  -0.497 -0.0710 -1.0252 -2.4687
   50MOL0     H 6727   8.932   5.681  -0.542  1.7444  1.1644 -1.0379
   50MOL0     H 6728   8.944   5.994  -0.563  0.3236 -0.6477  2.0258
   50MOL0     H 6729   9.054   5.895  -0.645 -0.8083  1.7363 -1.2885
   50MOL0     H 6730   9.718   5.549  -0.475  0.1200 -1.9174 -0.4396
   50MOL0     H 6731   9.902   5.451  -0.370 -0.3886 -2.1252  0.2161
   50MOL0     H 6732   9.962   5.022   0.018  1.4071 -1.4611 -0.1175
   50MOL0     H 6733  10.151   4.938   0.125 -0.3847  0.9086 -0.1010
   50MOL0     H 6734  10.545   4.232   1.144  5.4381  0.4625 -3.4123
   50MOL0     H 6735  10.300   4.198   1.143 -0.6072  1.0653  0.6353
   50MOL0     H 6736   9.893   4.399   1.062  4.6142 -1.6243 -0.9660
   50MOL0     H 6737   9.647   4.389   1.048  0.2337  0.0922  0.7488
   50MOL0     H 6738   9.487   4.064   0.818 -1.0699 -0.9638  0.6841
   50MOL0     H 6739   9.443   4.210   0.729  1.2187  0.2031 -1.0715
   50MOL0     H 6740   9.243   4.143   0.760  3.3222  0.6590 -2.7699
   50MOL0     H 6741   9.272   4.258   0.898  0.8843  1.2565 -2.2422
   50MOL0     H 6742   9.225   4.109   1.062 -0.3560  1.3126 -0.3560
   50MOL0     H 6743   9.303   3.981   0.965  0.5717  1.2650 -0.4237
   50MOL0     H 6744   9.024   4.114   0.935  1.3000  0.6162 -3.0278
   50MOL0     H 6745   9.074   3.980   0.827  1.7068 -0.5417 -0.0898
   50MOL0     H 6746   8.891   3.813   1.165 -0.6620  1.1818  0.6710
   50MOL0     H 6747   9.670   4.146   0.703 -0.3849 -0.2248 -0.4189
   50MOL0     H 6748  10.033   4.136   0.661 -0.0179 -0.7543 -1.7496
   50MOL0     H 6749   9.930   4.011   0.726  3.6481 -0.4473 -0.9032
   50MOL0     H 6750   9.873   4.105   0.591  0.0848 -2.2358  0.8705
   51MOL0     O 6751   5.224   7.802   0.509 -1.0924  0.1016  0.3563
   51MOL0     C 6752   5.127   7.737   0.479 -0.4125  0.0578 -0.2934
   51MOL0     O 6753   5.116   7.649   0.369 -0.3463  0.1169 -0.0841
   51MOL0     C 6754   5.226   7.647   0.286  0.2642 -0.1878  0.3516
   51MOL0     C 6755   5.318   7.537   0.288 -0.1498  0.5393 -0.9106
   51MOL0     C 6756   5.426   7.537   0.200  0.6844  0.0081 -1.1152
   51MOL0     C 6757   5.443   7.648   0.112 -0.7697  0.5526  0.0950
   51MOL0     O 6758   5.563   7.646   0.044  0.8776 -0.0281  0.3566
   51MOL0     C 6759   5.613   7.771  -0.007 -0.2254  0.3581 -0.0492
   51MOL0     C 6760   5.763   7.777  -0.002 -0.3587  0.4864 -0.2730
   51MOL0     C 6761   5.836   7.674  -0.099 -0.1965  0.8256 -0.2012
   51MOL0     C 6762   5.983   7.713  -0.122  0.5148 -0.7227  0.7618
   51MOL0     C 6763   6.072   7.703  -0.000 -0.1669  0.5336 -0.2329
   51MOL0     C 6764   6.192   7.604  -0.013 -0.2832  0.4349  0.0009
   51MOL0     C 6765   6.312   7.655  -0.107  0.4316  0.1936  0.3056
   51MOL0     C 6766   6.358   7.797  -0.074 -1.1232  0.6820  0.5759
   51MOL0     N 6767   6.420   7.811   0.060  0.0034 -1.1445 -0.1710
   51MOL0     C 6768   6.549   7.773   0.091  0.1056  0.0467 -1.0552
   51MOL0     C 6769   6.555   7.805   0.224 -0.5992  0.5502  0.5181
   51MOL0     C 6770   6.668   7.769   0.320  0.4074 -0.8662 -0.6918
   51MOL0     C 6771   6.633   7.771   0.471  0.6792 -0.5707 -0.0744
   51MOL0     C 6772   6.730   7.693   0.567  0.3483 -0.0175  0.3510
   51MOL0     C 6773   6.875   7.715   0.570  0.5376  0.1861  0.1021
   51MOL0     O 6774   6.938   7.636   0.676 -0.4925  0.4647 -0.0224
   51MOL0     C 6775   7.076   7.649   0.685  0.5513  0.1581  0.4798
   51MOL0     C 6776   7.133   7.583   0.788 -0.0552  0.1002  0.7076
   51MOL0     C 6777   7.265   7.579   0.800 -0.3063 -0.4064  0.1010
   51MOL0     C 6778   7.347   7.644   0.715 -0.8758 -0.6686  0.2383
   51MOL0     C 6779   7.492   7.639   0.735 -0.3674 -0.0525  0.3147
   51MOL0     O 6780   7.545   7.538   0.813  0.0755 -0.6514 -0.0386
   51MOL0     C 6781   7.678   7.504   0.824  0.0416  0.6792  0.7482
   51MOL0     C 6782   7.726   7.441   0.939 -1.1221  0.9005  0.2597
   51MOL0     C 6783   7.854   7.400   0.956 -0.0991  0.0555 -0.1277
   51MOL0     C 6784   7.942   7.409   0.847 -0.0914 -0.7705  0.4535
   51MOL0     O 6785   8.075   7.379   0.862  0.4794 -0.0439 -0.1287
   51MOL0     C 6786   8.162   7.392   0.747  0.0883  0.4411 -0.1174
   51MOL0     C 6787   8.297   7.312   0.766 -1.0319 -0.3214  0.6005
   51MOL0     C 6788   8.414   7.417   0.780 -0.5862  0.5282 -0.4222
   51MOL0     C 6789   8.538   7.362   0.715 -0.0259  0.4844  0.6797
   51MOL0     C 6790   8.659   7.453   0.737  0.3179  0.0718  0.4909
   51MOL0     C 6791   8.704   7.452   0.879 -0.4234 -0.5212 -0.2675
   51MOL0     C 6792   8.827   7.540   0.894 -0.2062  0.5456 -0.5008
   51MOL0     C 6793   8.888   7.506   1.037  0.2550 -0.8350  0.0334
   51MOL0    Cl 6794   9.036   7.591   1.063 -0.1131  0.0825  0.0818
   51MOL0     C 6795   7.901   7.478   0.734 -0.2888  0.4866 -0.9079
   51MOL0     C 6796   7.771   7.526   0.728  0.4027 -0.0192  0.2324
   51MOL0     O 6797   7.561   7.715   0.665 -0.8889  0.1205  0.7810
   51MOL0     C 6798   7.292   7.738   0.622 -0.1942 -0.2208  0.7261
   51MOL0     C 6799   7.152   7.731   0.605  0.0829 -0.4341 -0.3555
   51MOL0     N 6800   6.442   7.876   0.265  0.2790  0.1976 -0.0970
   51MOL0     N 6801   6.360   7.876   0.169  0.2369  0.3292 -0.8900
   51MOL0     C 6802   5.347   7.751   0.108 -0.6526  0.1408 -0.0330
   51MOL0     C 6803   5.241   7.751   0.194 -0.3119 -0.2956 -0.3622
   51MOL0     C 6804   5.008   7.745   0.568  0.9495  0.8325  0.5981
   51MOL0     C 6805   4.899   7.669   0.527  0.2227  0.3136 -0.6209
   51MOL0     C 6806   4.780   7.667   0.607 -0.7483  0.3626 -0.7188
   51MOL0     C 6807   4.767   7.750   0.722  0.0936  0.1040  0.0447
   51MOL0     O 6808   4.653   7.747   0.789  0.1190 -0.3612 -0.2036
   51MOL0     C 6809   4.652   7.800   0.920 -0.4186 -0.1292 -0.2519
   51MOL0     C 6810   4.508   7.773   0.962 -0.2831  0.1585  0.8406
   51MOL0     C 6811   4.413   7.876   0.897  1.0034 -0.1444  1.0032
   51MOL0     C 6812   4.264   7.846   0.930  0.6909 -0.2103  0.1733
   51MOL0     C 6813   4.216   7.718   0.859 -0.6277 -0.1954 -0.1539
   51MOL0     C 6814   4.197   7.622   0.792  1.1666 -0.3991 -0.7251
   51MOL0     C 6815   4.879   7.823   0.757  0.6377 -0.5810 -0.0062
   51MOL0     C 6816   4.995   7.823   0.684  0.2615  0.1244 -0.3573
   51MOL0     C 6817   5.108   7.912   0.745 -0.8482  0.4373  0.5433
   51MOL0     H 6818   5.292   7.454   0.354  1.5448 -0.4746 -1.4729
   51MOL0     H 6819   5.508   7.467   0.211  0.2204 -0.3450  0.3383
   51MOL0     H 6820   5.575   7.789  -0.109 -0.1930  1.8811  0.1786
   51MOL0     H 6821   5.574   7.856   0.049  2.3663  0.9885  0.9185
   51MOL0     H 6822   5.797   7.759   0.101  0.9400 -0.1401 -0.7911
   51MOL0     H 6823   5.795   7.880  -0.022  2.4502 -0.3040 -0.3096
   51MOL0     H 6824   5.790   7.677  -0.198 -3.5353 -2.1774  1.0222
   51MOL0     H 6825   5.815   7.576  -0.056  0.0612  1.3818  1.2798
   51MOL0     H 6826   6.021   7.635  -0.189  0.1346 -0.0395 -0.2713
   51MOL0     H 6827   6.013   7.806  -0.170  1.2076 -1.6783 -0.7436
   51MOL0     H 6828   6.105   7.803   0.031  2.9125 -1.0227  1.9465
   51MOL0     H 6829   6.001   7.669   0.076 -4.2216  1.0716 -3.4251
   51MOL0     H 6830   6.229   7.582   0.087 -1.6197  0.5911  0.5608
   51MOL0     H 6831   6.168   7.500  -0.037 -0.4499  0.7709 -1.3591
   51MOL0     H 6832   6.270   7.656  -0.208 -2.8724 -1.6196  1.5143
   51MOL0     H 6833   6.391   7.579  -0.112  0.2295  0.0557 -3.0164
   51MOL0     H 6834   6.434   7.829  -0.146 -1.7921  2.0155  0.4362
   51MOL0     H 6835   6.282   7.875  -0.085  0.3425  2.1202  0.2348
   51MOL0     H 6836   6.613   7.722   0.020  0.9418  1.5604 -1.4248
   51MOL0     H 6837   6.708   7.673   0.287  3.4474 -0.3228  0.9826
   51MOL0     H 6838   6.755   7.836   0.318  0.5913 -1.1071 -0.7199
   51MOL0     H 6839   6.620   7.871   0.514  0.1272 -2.3932  4.6267
   51MOL0     H 6840   6.542   7.712   0.488  1.1001 -0.9815  0.8749
   51MOL0     H 6841   6.703   7.594   0.531 -2.5198 -0.0816  2.3675
   51MOL0     H 6842   6.699   7.706   0.671  3.6907  1.7599  1.2572
   51MOL0     H 6843   6.885   7.824   0.571 -1.2145  0.4680 -2.8388
   51MOL0     H 6844   6.917   7.683   0.475 -0.5695 -1.1848  0.0490
   51MOL0     H 6845   7.080   7.520   0.859  2.5202 -0.7564  1.9764
   51MOL0     H 6846   7.308   7.511   0.872 -0.0559 -0.6534 -0.2746
   51MOL0     H 6847   7.656   7.423   1.020 -1.7234 -0.1083 -0.4611
   51MOL0     H 6848   7.886   7.346   1.045 -1.1094 -0.4036 -0.0255
   51MOL0     H 6849   8.114   7.335   0.667 -1.5394 -0.7784  1.6169
   51MOL0     H 6850   8.175   7.495   0.712 -1.9052  0.9498  0.5184
   51MOL0     H 6851   8.293   7.240   0.849  1.1086  0.5724  1.5669
   51MOL0     H 6852   8.328   7.257   0.677  0.9213  2.0196 -0.2712
   51MOL0     H 6853   8.394   7.515   0.737 -0.8942 -0.4050 -2.5613
   51MOL0     H 6854   8.434   7.421   0.888 -0.6553 -1.3084 -0.3060
   51MOL0     H 6855   8.521   7.352   0.607 -0.4448 -0.8844  0.8454
   51MOL0     H 6856   8.546   7.260   0.756 -2.2888  0.3409  0.8607
   51MOL0     H 6857   8.633   7.554   0.705  0.4983  0.5632  1.8382
   51MOL0     H 6858   8.738   7.415   0.671 -0.0811 -0.7772  0.4863
   51MOL0     H 6859   8.634   7.485   0.956 -0.2665 -1.2219  0.1937
   51MOL0     H 6860   8.736   7.350   0.903 -1.8608 -1.0026 -0.2945
   51MOL0     H 6861   8.814   7.648   0.883  3.5136  1.2929  0.7904
   51MOL0     H 6862   8.905   7.513   0.822  0.5053 -0.6976  0.6862
   51MOL0     H 6863   8.819   7.546   1.112  1.3147  1.4142 -0.0808
   51MOL0     H 6864   8.919   7.403   1.056 -1.3909 -1.0438  1.8330
   51MOL0     H 6865   7.964   7.505   0.649  0.4397  2.7958  0.2529
   51MOL0     H 6866   7.758   7.597   0.646  2.1674  1.3948  1.1054
   51MOL0     H 6867   7.355   7.806   0.564  1.2130 -1.4153  0.8012
   51MOL0     H 6868   7.106   7.810   0.547 -0.8409  0.8956  2.0378
   51MOL0     H 6869   5.352   7.836   0.042 -3.5276  1.0043  0.7537
   51MOL0     H 6870   5.170   7.832   0.203  0.8193  0.5693  1.3203
   51MOL0     H 6871   4.893   7.603   0.441  0.4811 -0.5398  0.0044
   51MOL0     H 6872   4.695   7.608   0.576 -0.6766 -1.1478  1.7349
   51MOL0     H 6873   4.682   7.905   0.921 -1.9551  0.3387 -0.8733
   51MOL0     H 6874   4.718   7.748   0.990 -2.1990  0.5827  2.1148
   51MOL0     H 6875   4.505   7.788   1.070  1.7122  0.0383  0.9468
   51MOL0     H 6876   4.477   7.672   0.931 -0.1394  0.3228  0.1377
   51MOL0     H 6877   4.422   7.879   0.788  0.2852 -2.3854  0.8413
   51MOL0     H 6878   4.444   7.971   0.940  0.4739 -0.2820  1.7065
   51MOL0     H 6879   4.251   7.832   1.037 -0.0847 -2.3321 -0.1603
   51MOL0     H 6880   4.207   7.936   0.904  1.4928  0.5131  0.8462
   51MOL0     H 6881   4.167   7.537   0.733 -0.7846  1.1024 -2.0161
   51MOL0     H 6882   4.865   7.878   0.850 -0.7332 -0.2171 -0.3944
   51MOL0     H 6883   5.098   7.912   0.854  4.0984 -3.6971  1.3847
   51MOL0     H 6884   5.205   7.861   0.740 -0.2368  1.3368  2.2673
   51MOL0     H 6885   5.103   8.011   0.698 -1.0107 -0.6408 -1.8248
   52MOL0     O 6886   3.726   9.049   1.141 -0.4033  0.3711  0.2053
   52MOL0     C 6887   3.719   9.148   1.216 -0.9945  0.1130  0.2230
   52MOL0     O 6888   3.832   9.212   1.274  0.3004  0.4779 -0.2579
   52MOL0     C 6889   3.958   9.192   1.227 -0.7103  0.9448  0.1051
   52MOL0     C 6890   4.014   9.287   1.139 -0.4639  0.5680 -0.1155
   52MOL0     C 6891   4.142   9.274   1.091 -0.9922  0.1730 -0.1124
   52MOL0     C 6892   4.223   9.160   1.117  0.7408  0.1511  0.6289
   52MOL0     O 6893   4.348   9.149   1.046 -0.1874  0.4690  0.2030
   52MOL0     C 6894   4.386   9.016   0.997 -0.0536  0.5475 -0.5156
   52MOL0     C 6895   4.489   8.944   1.081 -0.6076  0.3385 -1.4484
   52MOL0     C 6896   4.614   9.026   1.121 -0.6176  0.6040 -0.3459
   52MOL0     C 6897   4.716   8.949   1.211  0.0425  0.3587 -0.7538
   52MOL0     C 6898   4.839   9.033   1.227  0.8456  0.2371 -0.5327
   52MOL0     C 6899   4.936   8.964   1.331  0.7341  0.3313 -0.6595
   52MOL0     C 6900   5.049   9.058   1.379 -0.2221 -0.3098  0.7658
   52MOL0     C 6901   5.138   9.085   1.257  0.0344  0.4349 -0.8489
   52MOL0     N 6902   5.284   9.094   1.290  0.1267  0.4283 -0.2110
   52MOL0     C 6903   5.325   9.165   1.397 -0.1981 -0.2622  0.1429
   52MOL0     C 6904   5.468   9.161   1.383 -0.0409  0.3018  0.3121
   52MOL0     C 6905   5.570   9.215   1.476  0.6809 -0.1174 -0.1447
   52MOL0     C 6906   5.617   9.354   1.423  0.1435 -0.1640  0.8598
   52MOL0     C 6907   5.716   9.330   1.304 -0.2544  0.6947  0.5336
   52MOL0     C 6908   5.765   9.467   1.247 -0.2795 -0.5167 -0.0633
   52MOL0     O 6909   5.861   9.448   1.144 -0.5700 -0.4813 -0.0003
   52MOL0     C 6910   5.999   9.454   1.172 -0.4248 -0.8936  0.0423
   52MOL0     C 6911   6.056   9.429   1.293  0.1566  0.5089 -0.1014
   52MOL0     C 6912   6.189   9.446   1.323 -0.6644 -0.0562 -0.3936
   52MOL0     C 6913   6.277   9.489   1.218  0.0768  0.8884  1.0819
   52MOL0     C 6914   6.414   9.511   1.251 -0.6831 -1.0230  0.0431
   52MOL0     O 6915   6.506   9.484   1.158 -0.9849 -0.5519  0.0853
   52MOL0     C 6916   6.635   9.488   1.193  0.7288 -0.2559 -0.5410
   52MOL0     C 6917   6.716   9.413   1.104  0.3130 -0.3702 -0.6104
   52MOL0     C 6918   6.851   9.386   1.143 -0.0261  0.6298 -0.1677
   52MOL0     C 6919   6.913   9.441   1.261  0.6970 -0.0307  0.0713
   52MOL0     O 6920   7.043   9.413   1.295  0.1155 -0.1915  0.5594
   52MOL0     C 6921   7.124   9.342   1.197  0.1473 -0.5716  0.3812
   52MOL0     C 6922   7.252   9.311   1.264 -0.0384 -0.2375  0.6610
   52MOL0     C 6923   7.367   9.318   1.167 -0.3763  0.4418  0.7727
   52MOL0     C 6924   7.505   9.270   1.230  0.2547 -0.5929 -0.0640
   52MOL0     C 6925   7.626   9.278   1.130  0.3964  0.4852 -0.1677
   52MOL0     C 6926   7.751   9.220   1.200 -0.1661  0.1211  0.4692
   52MOL0     C 6927   7.869   9.213   1.096 -0.9578  0.3097 -0.0502
   52MOL0     C 6928   8.007   9.219   1.172  0.5521  1.1500 -0.1441
   52MOL0    Cl 6929   8.122   9.169   1.046  0.2862 -0.0915  0.0926
   52MOL0     C 6930   6.836   9.519   1.344  0.3208 -0.1762  0.7707
   52MOL0     C 6931   6.694   9.545   1.307 -0.1918 -0.2327  0.3245
   52MOL0     O 6932   6.433   9.557   1.364  0.5275  0.7703  0.5674
   52MOL0     C 6933   6.221   9.512   1.092 -0.5210 -0.2048 -0.1600
   52MOL0     C 6934   6.081   9.504   1.065  0.5369  0.1832 -0.4303
   52MOL0     N 6935   5.502   9.085   1.278 -0.4120 -0.0934  0.1372
   52MOL0     N 6936   5.390   9.046   1.223 -0.0261 -0.1570  0.6474
   52MOL0     C 6937   4.166   9.067   1.208  0.6368  0.0971 -0.4023
   52MOL0     C 6938   4.033   9.074   1.260 -0.0517 -0.2749  0.5929
   52MOL0     C 6939   3.585   9.210   1.231  0.2942 -0.2403 -0.3075
   52MOL0     C 6940   3.575   9.303   1.330  0.5733  0.1653  0.0844
   52MOL0     C 6941   3.465   9.380   1.348  0.0133  0.0966  0.0949
   52MOL0     C 6942   3.352   9.349   1.282  0.2429 -0.7846  0.0370
   52MOL0     O 6943   3.248   9.439   1.295 -0.4681  0.1068  0.1409
   52MOL0     C 6944   3.130   9.383   1.353  0.7495 -0.8997 -0.0818
   52MOL0     C 6945   3.029   9.494   1.347 -0.0954 -0.4565  0.0012
   52MOL0     C 6946   2.891   9.441   1.391 -0.1367  0.6270 -0.2915
   52MOL0     C 6947   2.783   9.544   1.371  0.3592 -0.0179 -0.4088
   52MOL0     C 6948   2.650   9.487   1.394  0.2585  0.2630 -0.1850
   52MOL0     C 6949   2.537   9.453   1.414  0.2631  0.8866 -0.8474
   52MOL0     C 6950   3.352   9.256   1.174 -0.3700 -0.0379  0.1242
   52MOL0     C 6951   3.467   9.185   1.145 -0.1012 -0.1762 -0.4280
   52MOL0     C 6952   3.463   9.081   1.037 -0.7522 -0.0824 -0.2250
   52MOL0     H 6953   3.957   9.369   1.098  1.7315  2.3197  0.1230
   52MOL0     H 6954   4.181   9.342   1.016 -0.6870  0.9142  0.6962
   52MOL0     H 6955   4.296   8.953   1.001  0.0394  0.4902  1.4476
   52MOL0     H 6956   4.431   9.015   0.897 -1.8254 -0.2654 -1.3512
   52MOL0     H 6957   4.513   8.850   1.030 -0.6157 -0.5408  0.1075
   52MOL0     H 6958   4.442   8.924   1.178 -2.1111  3.0273 -1.5307
   52MOL0     H 6959   4.583   9.121   1.167  0.4271  1.1521 -0.7490
   52MOL0     H 6960   4.659   9.059   1.027 -2.9546  3.1238 -0.7059
   52MOL0     H 6961   4.678   8.932   1.312 -0.6418 -2.9487 -1.4428
   52MOL0     H 6962   4.749   8.850   1.178  2.3767  0.5911  0.6446
   52MOL0     H 6963   4.883   9.044   1.127  0.6690 -0.4920 -0.7024
   52MOL0     H 6964   4.809   9.127   1.272 -0.0864 -1.0062  1.5905
   52MOL0     H 6965   4.883   8.931   1.421  1.3793 -0.7813 -0.6710
   52MOL0     H 6966   4.977   8.870   1.293 -1.4786 -0.8584 -0.3174
   52MOL0     H 6967   5.101   9.010   1.462  1.0261  0.7816  0.6299
   52MOL0     H 6968   5.006   9.149   1.420  0.1757  0.1363  0.2006
   52MOL0     H 6969   5.124   9.007   1.181 -0.2133  1.4173 -1.8249
   52MOL0     H 6970   5.102   9.180   1.217 -3.5343  1.1600  3.3173
   52MOL0     H 6971   5.274   9.199   1.487  2.3387  1.0613  1.1960
   52MOL0     H 6972   5.523   9.228   1.574 -0.4108 -0.2200 -0.6457
   52MOL0     H 6973   5.651   9.144   1.494  0.3470 -0.2893  0.7170
   52MOL0     H 6974   5.530   9.412   1.391 -0.9457 -2.7980 -1.4431
   52MOL0     H 6975   5.670   9.411   1.499  0.6262  2.5923 -1.3916
   52MOL0     H 6976   5.669   9.273   1.224  0.7716 -0.6636  0.8508
   52MOL0     H 6977   5.790   9.265   1.352 -2.1681 -2.1760 -0.2039
   52MOL0     H 6978   5.792   9.533   1.330 -1.0014  0.3321 -0.4842
   52MOL0     H 6979   5.676   9.517   1.206  0.3589  0.4898 -0.2469
   52MOL0     H 6980   5.995   9.409   1.381  2.2461 -2.8280  0.7754
   52MOL0     H 6981   6.228   9.420   1.420 -0.2499  0.6592 -0.3604
   52MOL0     H 6982   6.673   9.370   1.015 -1.0778  0.0202 -0.1468
   52MOL0     H 6983   6.913   9.320   1.083  2.6507  1.1455  1.8454
   52MOL0     H 6984   7.072   9.250   1.167 -0.6357 -0.0317  0.0619
   52MOL0     H 6985   7.138   9.410   1.113  0.8601 -0.4756  0.5722
   52MOL0     H 6986   7.271   9.389   1.338 -1.6880 -1.3714  2.3626
   52MOL0     H 6987   7.254   9.212   1.309 -0.1209 -0.3993  0.3143
   52MOL0     H 6988   7.343   9.260   1.078  1.8817  2.7817 -1.5620
   52MOL0     H 6989   7.381   9.421   1.131  1.3890  0.2228  0.7182
   52MOL0     H 6990   7.494   9.166   1.263  1.2680 -0.6547  0.1126
   52MOL0     H 6991   7.531   9.342   1.308  0.4842 -1.5003  0.7213
   52MOL0     H 6992   7.632   9.384   1.101  1.3648  0.0009 -1.9072
   52MOL0     H 6993   7.604   9.222   1.039 -0.7753 -0.1740  0.5032
   52MOL0     H 6994   7.774   9.287   1.283 -1.4357  1.1007  0.0607
   52MOL0     H 6995   7.732   9.119   1.239  3.1043 -0.9160 -0.3611
   52MOL0     H 6996   7.871   9.292   1.020  2.6703 -0.3667 -0.8306
   52MOL0     H 6997   7.867   9.124   1.033  0.8730  1.6451 -2.1383
   52MOL0     H 6998   8.032   9.317   1.212  0.5587  1.2202 -0.3183
   52MOL0     H 6999   7.996   9.140   1.248 -0.4223  0.7416 -0.6858
   52MOL0     H 7000   6.879   9.565   1.433  1.9989 -1.6017  0.7264
   52MOL0     H 7001   6.645   9.605   1.383  0.9643  1.3346 -0.1138
   52MOL0     H 7002   6.289   9.551   1.017  0.1559  2.7955  1.8472
   52MOL0     H 7003   6.050   9.532   0.965  2.3295  1.0359 -0.7956
   52MOL0     H 7004   4.204   8.968   1.234 -1.4102 -0.3845  1.0640
   52MOL0     H 7005   3.976   8.997   1.312  0.0960 -1.5833 -1.1018
   52MOL0     H 7006   3.644   9.305   1.414 -0.1460 -0.5733  0.7190
   52MOL0     H 7007   3.472   9.468   1.411 -1.6985  0.0333  0.4098
   52MOL0     H 7008   3.143   9.343   1.454  3.4127 -0.1629 -0.0556
   52MOL0     H 7009   3.089   9.305   1.289 -3.1332  1.5947 -0.9796
   52MOL0     H 7010   3.029   9.522   1.241  1.7150  3.0787  0.7764
   52MOL0     H 7011   3.046   9.589   1.399 -0.9430  0.1805 -0.8598
   52MOL0     H 7012   2.886   9.408   1.495  1.3901 -0.6419 -0.5774
   52MOL0     H 7013   2.865   9.352   1.333  1.6005 -1.2830  1.6267
   52MOL0     H 7014   2.787   9.632   1.435 -3.3872  0.0139  0.0134
   52MOL0     H 7015   2.799   9.582   1.270  2.9815 -3.3801 -1.4724
   52MOL0     H 7016   2.439   9.426   1.450  1.1145 -1.6545 -0.2628
   52MOL0     H 7017   3.256   9.254   1.124  0.4093  0.8027 -1.4695
   52MOL0     H 7018   3.474   8.984   1.086  0.2911  0.3366  0.4095
   52MOL0     H 7019   3.377   9.081   0.969  1.0671  1.2601 -2.7056
   52MOL0     H 7020   3.549   9.100   0.971 -1.7002 -0.1041 -1.4929
   53MOL0     O 7021   3.459   3.965   0.134 -0.4055 -0.3638  0.5763
   53MOL0     C 7022   3.477   3.971   0.012  0.1432  0.2818  0.1035
   53MOL0     O 7023   3.591   4.014  -0.045 -0.0857 -0.0359 -0.6935
   53MOL0     C 7024   3.697   4.053   0.034 -0.1621  0.6863 -0.1580
   53MOL0     C 7025   3.804   3.957   0.049  0.0566  0.2188  0.4625
   53MOL0     C 7026   3.923   3.984   0.128 -0.7079 -0.0307  0.0968
   53MOL0     C 7027   3.918   4.097   0.211  0.0568  0.0674 -0.1329
   53MOL0     O 7028   4.025   4.141   0.293  0.2011  0.1980  0.5241
   53MOL0     C 7029   4.158   4.100   0.269 -0.0311 -0.5350 -0.0218
   53MOL0     C 7030   4.200   3.980   0.359  0.2353 -0.6000 -0.7169
   53MOL0     C 7031   4.140   3.995   0.506  0.5284 -0.2591 -0.7473
   53MOL0     C 7032   4.208   3.889   0.599 -0.0213  0.1037 -0.6095
   53MOL0     C 7033   4.153   3.901   0.744 -0.6286 -0.0973  0.2693
   53MOL0     C 7034   4.005   3.851   0.757 -0.2982 -0.8326  0.5547
   53MOL0     C 7035   3.944   3.862   0.896 -0.8947 -0.7630  0.3303
   53MOL0     C 7036   3.905   3.739   0.972  0.1796 -0.1078 -0.4154
   53MOL0     N 7037   3.841   3.766   1.108 -0.6124 -0.3460 -0.6866
   53MOL0     C 7038   3.712   3.800   1.139 -0.0578 -0.3269  0.5730
   53MOL0     C 7039   3.704   3.824   1.276 -0.4234  0.0167 -0.0530
   53MOL0     C 7040   3.588   3.882   1.345 -0.3954 -0.0365  0.3685
   53MOL0     C 7041   3.456   3.809   1.313  0.4719 -0.5079 -0.0336
   53MOL0     C 7042   3.346   3.839   1.419  0.2174 -0.8665  1.2893
   53MOL0     C 7043   3.290   3.976   1.375  0.3237 -0.3828 -0.3950
   53MOL0     O 7044   3.185   4.026   1.469  0.5616 -0.4360  0.2394
   53MOL0     C 7045   3.060   3.982   1.451  0.2121  0.2741  0.8974
   53MOL0     C 7046   2.997   3.907   1.546  0.4872  0.6729 -0.5381
   53MOL0     C 7047   2.869   3.860   1.534  0.0219 -0.3923  0.0983
   53MOL0     C 7048   2.790   3.902   1.427  0.0462  0.4456 -1.0443
   53MOL0     C 7049   2.648   3.868   1.422 -0.5936  0.3151  0.3410
   53MOL0     O 7050   2.596   3.828   1.538 -0.3733 -0.3855 -0.0062
   53MOL0     C 7051   2.463   3.806   1.524 -0.2312  0.4072 -0.5249
   53MOL0     C 7052   2.412   3.714   1.431 -0.4824 -0.2775 -0.4959
   53MOL0     C 7053   2.279   3.692   1.425 -0.2549  0.0253  0.5255
   53MOL0     C 7054   2.185   3.751   1.510 -0.7608  0.1938 -0.2438
   53MOL0     O 7055   2.045   3.750   1.502 -0.0936  0.1916  0.6733
   53MOL0     C 7056   1.984   3.663   1.401  0.4076  0.2907  0.6054
   53MOL0     C 7057   1.834   3.680   1.406 -0.3116  0.5054 -0.0218
   53MOL0     C 7058   1.775   3.617   1.531  0.3323  0.5684 -0.2103
   53MOL0     C 7059   1.622   3.592   1.517  0.1204  0.1614  0.7521
   53MOL0     C 7060   1.589   3.460   1.457  0.3782  0.1530  0.2673
   53MOL0     C 7061   1.447   3.423   1.444 -0.2796  0.7057  0.6800
   53MOL0     C 7062   1.390   3.483   1.313  0.3315 -0.0712 -0.0881
   53MOL0     C 7063   1.239   3.471   1.309 -0.4247  0.6184 -0.6831
   53MOL0    Cl 7064   1.174   3.297   1.297 -0.5136 -0.0030  0.6571
   53MOL0     C 7065   2.235   3.836   1.604  0.3279 -0.2005 -0.2375
   53MOL0     C 7066   2.369   3.863   1.615 -0.6127 -0.6429  0.5393
   53MOL0     O 7067   2.593   3.897   1.316  0.0361  0.1372  0.6475
   53MOL0     C 7068   2.858   3.975   1.323  1.3264 -0.0603 -0.3318
   53MOL0     C 7069   2.988   4.012   1.335 -0.5320 -0.8604 -0.2103
   53MOL0     N 7070   3.826   3.788   1.326  0.7397 -1.2389  0.8993
   53MOL0     N 7071   3.908   3.758   1.230  0.4376 -0.1376  0.4901
   53MOL0     C 7072   3.807   4.181   0.204 -0.7335 -0.7072  0.2272
   53MOL0     C 7073   3.703   4.158   0.118  0.2391  0.3539  0.3389
   53MOL0     C 7074   3.377   3.918  -0.084  0.1341  0.5425 -0.3224
   53MOL0     C 7075   3.391   3.960  -0.212 -0.4891 -0.2483  1.0084
   53MOL0     C 7076   3.298   3.924  -0.306  1.2071 -1.0107 -0.3011
   53MOL0     C 7077   3.181   3.851  -0.274 -0.3843 -0.2266  0.9438
   53MOL0     O 7078   3.099   3.818  -0.386  0.2980  0.3847 -0.4103
   53MOL0     C 7079   2.979   3.746  -0.353  0.1336 -1.1933  0.3539
   53MOL0     C 7080   2.912   3.730  -0.499 -0.1685 -0.2558 -0.0494
   53MOL0     C 7081   2.886   3.867  -0.562  0.2360  0.2514  0.4145
   53MOL0     C 7082   2.784   3.880  -0.677 -0.4658 -0.7282  1.2192
   53MOL0     C 7083   2.770   4.014  -0.739  0.2636 -0.5722 -0.4322
   53MOL0     C 7084   2.748   4.135  -0.761  0.0105  0.3284  0.3984
   53MOL0     C 7085   3.166   3.799  -0.145  0.4388  0.5914  0.9164
   53MOL0     C 7086   3.263   3.836  -0.048 -0.3636  0.1053  0.3440
   53MOL0     C 7087   3.249   3.775   0.088  0.7062  0.5714 -0.3126
   53MOL0     H 7088   3.801   3.855   0.012 -1.5799 -0.5162  2.4299
   53MOL0     H 7089   4.016   3.930   0.113 -0.4628  0.3479  0.2302
   53MOL0     H 7090   4.179   4.073   0.165 -1.2237 -0.1253 -0.3873
   53MOL0     H 7091   4.226   4.181   0.297 -0.9215 -0.5422  2.3949
   53MOL0     H 7092   4.308   3.967   0.359  0.2827 -0.2991 -1.6580
   53MOL0     H 7093   4.172   3.882   0.321  0.2258 -2.1056  2.8012
   53MOL0     H 7094   4.033   3.974   0.498  0.1804  0.3247  1.7001
   53MOL0     H 7095   4.145   4.094   0.553  0.0118 -0.3436 -0.5105
   53MOL0     H 7096   4.186   3.787   0.568 -0.0243 -0.9391  2.4827
   53MOL0     H 7097   4.317   3.897   0.594  0.0813 -0.6036  0.2786
   53MOL0     H 7098   4.198   3.842   0.825 -1.6846  1.4220  2.0447
   53MOL0     H 7099   4.169   4.004   0.775 -1.4429  1.0807 -2.9123
   53MOL0     H 7100   3.946   3.919   0.694 -0.5183 -0.6716  0.9323
   53MOL0     H 7101   3.995   3.747   0.723 -1.5404 -0.9790  1.2925
   53MOL0     H 7102   3.857   3.928   0.902 -1.1468 -0.9120 -1.3380
   53MOL0     H 7103   4.025   3.904   0.957 -0.5462 -0.7188 -0.1530
   53MOL0     H 7104   3.840   3.686   0.902  0.9012  1.0473 -2.0317
   53MOL0     H 7105   3.990   3.670   0.980 -0.2078 -1.0146 -3.1480
   53MOL0     H 7106   3.635   3.828   1.067 -0.3707 -1.1172  0.5909
   53MOL0     H 7107   3.605   3.874   1.453 -1.4866 -0.8123  0.4989
   53MOL0     H 7108   3.598   3.984   1.308  0.8244 -0.9327 -1.9402
   53MOL0     H 7109   3.422   3.826   1.210 -2.4521 -0.3008  0.8928
   53MOL0     H 7110   3.468   3.701   1.324 -2.3638 -1.0960 -1.7085
   53MOL0     H 7111   3.379   3.857   1.522 -2.4935 -3.5851  2.7704
   53MOL0     H 7112   3.256   3.779   1.431 -2.4593  2.5559  0.1460
   53MOL0     H 7113   3.260   3.980   1.270  2.1078  1.3332 -0.8968
   53MOL0     H 7114   3.368   4.053   1.377 -0.1882  0.1639 -1.0427
   53MOL0     H 7115   3.048   3.901   1.641 -0.3856 -1.2968 -0.1406
   53MOL0     H 7116   2.830   3.799   1.615 -2.6750 -1.6617 -1.9947
   53MOL0     H 7117   2.476   3.657   1.364 -1.1883 -1.5137 -0.1364
   53MOL0     H 7118   2.248   3.625   1.346  0.8175  1.8925 -1.6063
   53MOL0     H 7119   2.021   3.687   1.302 -1.1859 -2.4573 -0.7949
   53MOL0     H 7120   1.998   3.558   1.431  0.3563  0.6979  2.1390
   53MOL0     H 7121   1.808   3.786   1.398 -3.0636 -0.1997 -1.6183
   53MOL0     H 7122   1.799   3.625   1.319  2.1320 -0.5487 -0.4227
   53MOL0     H 7123   1.825   3.523   1.554 -2.0127 -0.7558 -0.2559
   53MOL0     H 7124   1.784   3.684   1.617 -4.4745  1.0269  0.1720
   53MOL0     H 7125   1.571   3.676   1.469 -1.6463 -1.7747 -0.9146
   53MOL0     H 7126   1.588   3.589   1.621  0.1437  1.8575  0.8340
   53MOL0     H 7127   1.642   3.382   1.512  0.0166  0.2082  0.6921
   53MOL0     H 7128   1.636   3.463   1.358 -0.9589 -1.0533 -0.4442
   53MOL0     H 7129   1.450   3.314   1.434 -2.6488  0.2923  3.2794
   53MOL0     H 7130   1.373   3.444   1.522 -1.0404 -0.7870  0.3970
   53MOL0     H 7131   1.448   3.438   1.232  4.2635  2.5702  0.9774
   53MOL0     H 7132   1.424   3.587   1.311  1.1627 -0.3398 -0.7564
   53MOL0     H 7133   1.203   3.509   1.405 -0.5529  1.0359 -0.8954
   53MOL0     H 7134   1.204   3.535   1.227  1.9453  0.6814 -1.7270
   53MOL0     H 7135   2.157   3.884   1.662  0.2312  1.2226 -1.4984
   53MOL0     H 7136   2.394   3.936   1.691 -1.0341  0.8404 -0.6938
   53MOL0     H 7137   2.795   4.013   1.244 -0.7654 -3.8484 -0.6770
   53MOL0     H 7138   3.037   4.081   1.267 -1.1991  3.2295  3.0359
   53MOL0     H 7139   3.819   4.276   0.254 -0.6065  0.0055 -1.1154
   53MOL0     H 7140   3.628   4.236   0.122 -0.7163 -0.4643 -0.8189
   53MOL0     H 7141   3.482   4.010  -0.246  0.4126 -0.6962  2.6525
   53MOL0     H 7142   3.317   3.956  -0.409 -1.8287  2.3042 -0.0229
   53MOL0     H 7143   2.906   3.809  -0.301  0.0523 -0.8217 -0.1989
   53MOL0     H 7144   2.990   3.649  -0.303 -0.0912 -0.3886  2.0198
   53MOL0     H 7145   2.816   3.678  -0.489 -0.6229  0.4932 -0.4401
   53MOL0     H 7146   2.975   3.666  -0.562 -0.5319 -1.5112  0.8105
   53MOL0     H 7147   2.985   3.906  -0.589 -1.2605  3.0780 -1.4971
   53MOL0     H 7148   2.851   3.930  -0.480 -0.3630  1.6345 -0.8679
   53MOL0     H 7149   2.805   3.812  -0.761 -2.6214 -0.2463  0.2175
   53MOL0     H 7150   2.685   3.842  -0.649 -1.0417 -1.4967 -1.5016
   53MOL0     H 7151   2.714   4.236  -0.771 -3.1842 -0.5491  1.2688
   53MOL0     H 7152   3.088   3.735  -0.107  0.1611 -0.7806 -1.7477
   53MOL0     H 7153   3.186   3.842   0.147  0.9249 -1.0062  1.8053
   53MOL0     H 7154   3.197   3.680   0.081  0.7122  0.4097  1.4180
   53MOL0     H 7155   3.341   3.752   0.142 -1.0619 -0.6885  2.3675
   54MOL0     O 7156   0.045   1.287  11.212  0.1730 -0.0770 -0.3451
   54MOL0     C 7157  -0.020   1.380  11.168 -0.9429  0.2795  0.2914
   54MOL0     O 7158   0.036   1.496  11.111  0.1248 -0.0123 -0.6343
   54MOL0     C 7159   0.168   1.538  11.135 -0.0555 -0.0398  0.0900
   54MOL0     C 7160   0.279   1.450  11.124 -0.0846 -0.1074  0.2512
   54MOL0     C 7161   0.414   1.497  11.133  0.3197 -0.7094  0.5878
   54MOL0     C 7162   0.433   1.629  11.160 -0.3099 -0.0560  0.3498
   54MOL0     O 7163   0.560   1.681  11.166  0.1521 -0.3356  0.3622
   54MOL0     C 7164   0.594   1.738  11.291  0.5691 -0.2384  0.4588
   54MOL0     C 7165   0.740   1.739  11.317 -0.4819 -0.4634 -0.9070
   54MOL0     C 7166   0.802   1.596  11.338  0.2606  0.4863  0.5283
   54MOL0     C 7167   0.947   1.587  11.397 -0.1811 -0.2084 -0.2481
   54MOL0     C 7168   1.007   1.444  11.397  0.5222 -0.3383  0.5572
   54MOL0     C 7169   1.142   1.447  11.458 -0.4541 -0.0641 -0.4184
   54MOL0     C 7170   1.240   1.498  11.358 -0.3900  0.1266 -0.0275
   54MOL0     C 7171   1.372   1.430  11.375 -0.8120  1.2516 -0.8169
   54MOL0     N 7172   1.480   1.487  11.292 -0.0718  0.7166 -1.1122
   54MOL0     C 7173   1.469   1.520  11.162  0.2183 -0.2420 -0.5643
   54MOL0     C 7174   1.566   1.610  11.143  0.3123  0.0133  1.0695
   54MOL0     C 7175   1.579   1.669  11.000  0.1961 -0.6532  0.6115
   54MOL0     C 7176   1.678   1.782  11.009 -0.3253  0.5703 -0.1680
   54MOL0     C 7177   1.694   1.870  10.881 -0.6023 -0.6242  0.2401
   54MOL0     C 7178   1.826   1.951  10.871 -0.0762 -0.2762  0.0091
   54MOL0     O 7179   1.934   1.862  10.889 -0.4549 -0.4723 -0.1972
   54MOL0     C 7180   2.063   1.910  10.878  0.3966  0.0404  0.0668
   54MOL0     C 7181   2.101   2.042  10.870  0.6286 -0.8419 -0.2177
   54MOL0     C 7182   2.231   2.082  10.851 -1.4162 -0.4248 -0.7762
   54MOL0     C 7183   2.333   1.988  10.845  0.3402  0.6875  0.2876
   54MOL0     C 7184   2.472   2.035  10.814  0.8257  0.1734 -0.1039
   54MOL0     O 7185   2.551   1.940  10.748 -0.0396 -0.6828  0.1758
   54MOL0     C 7186   2.682   1.965  10.729 -0.0488 -0.7772 -0.3201
   54MOL0     C 7187   2.770   2.033  10.827  0.0376  0.3386  0.5763
   54MOL0     C 7188   2.902   2.062  10.804  0.4146  0.5938 -0.5639
   54MOL0     C 7189   2.964   2.019  10.683  0.6218 -0.3143  0.4856
   54MOL0     O 7190   3.088   2.063  10.648  0.5264 -0.5946  0.3119
   54MOL0     C 7191   3.193   1.993  10.722 -0.1471 -0.3980 -0.3102
   54MOL0     C 7192   3.186   1.839  10.691 -0.4627 -1.1663 -0.1084
   54MOL0     C 7193   3.270   1.749  10.783  0.8330 -0.8761 -0.2731
   54MOL0     C 7194   3.258   1.596  10.760 -0.2913  0.2004 -0.1352
   54MOL0     C 7195   3.322   1.513  10.871 -0.2678  0.0474  0.1940
   54MOL0     C 7196   3.325   1.364  10.860 -0.7221  0.1953 -0.3433
   54MOL0     C 7197   3.405   1.310  10.984 -0.2945 -0.3457 -0.0818
   54MOL0     C 7198   3.418   1.157  10.988  1.3078 -0.4742 -0.2523
   54MOL0    Cl 7199   3.537   1.106  11.106 -0.4552  0.2305  0.0664
   54MOL0     C 7200   2.880   1.957  10.585 -0.5270  0.2921 -0.4143
   54MOL0     C 7201   2.744   1.929  10.612  0.7719  0.5860 -0.4598
   54MOL0     O 7202   2.504   2.149  10.851  0.5089 -0.3048 -0.4004
   54MOL0     C 7203   2.299   1.850  10.865  1.0862  0.2393 -0.4414
   54MOL0     C 7204   2.168   1.811  10.882  0.2447  0.6523  0.3139
   54MOL0     N 7205   1.643   1.629  11.253 -0.6345 -0.0852 -0.7434
   54MOL0     N 7206   1.586   1.558  11.341  0.1616  0.4912 -0.2137
   54MOL0     C 7207   0.329   1.719  11.175 -0.1948 -0.1445  0.2696
   54MOL0     C 7208   0.196   1.670  11.162 -0.3406 -0.5392 -0.0212
   54MOL0     C 7209  -0.165   1.373  11.157  0.3635 -0.7395 -0.7629
   54MOL0     C 7210  -0.252   1.474  11.097 -0.6616 -0.1206 -0.0725
   54MOL0     C 7211  -0.388   1.472  11.091  0.4906 -0.5559 -0.2305
   54MOL0     C 7212  -0.456   1.364  11.143 -0.4939 -0.3487 -1.0414
   54MOL0     O 7213  -0.593   1.360  11.129  0.1818 -0.2952  0.0546
   54MOL0     C 7214  -0.664   1.244  11.193 -0.0414 -0.7105 -0.5723
   54MOL0     C 7215  -0.817   1.272  11.195  0.6972 -0.3630 -0.5192
   54MOL0     C 7216  -0.847   1.368  11.322 -0.2360 -0.4190 -1.3049
   54MOL0     C 7217  -0.985   1.430  11.322 -0.3772  0.1428  0.1474
   54MOL0     C 7218  -1.090   1.333  11.335 -0.1933  0.2975 -0.3918
   54MOL0     C 7219  -1.178   1.253  11.361  0.8896 -0.3982  1.0221
   54MOL0     C 7220  -0.371   1.268  11.216 -0.5848  0.0218  0.1050
   54MOL0     C 7221  -0.230   1.272  11.221  0.0825  0.1438 -0.2988
   54MOL0     C 7222  -0.166   1.149  11.279 -0.5710  0.1777 -0.0054
   54MOL0     H 7223   0.257   1.343  11.127 -0.6000 -0.0777 -1.3758
   54MOL0     H 7224   0.506   1.441  11.126  1.2790  0.9788 -1.2024
   54MOL0     H 7225   0.560   1.842  11.298 -2.7518 -1.3261  3.7844
   54MOL0     H 7226   0.547   1.686  11.375 -0.1970  1.8477  1.4045
   54MOL0     H 7227   0.767   1.800  11.404  0.6702  2.3888 -3.1103
   54MOL0     H 7228   0.790   1.781  11.229 -0.9311 -2.7029 -2.3152
   54MOL0     H 7229   0.801   1.539  11.245  3.3993  0.6877  0.2668
   54MOL0     H 7230   0.744   1.533  11.406 -0.7000 -0.9115 -1.5075
   54MOL0     H 7231   1.010   1.657  11.342 -0.1906 -0.2490 -0.3118
   54MOL0     H 7232   0.951   1.620  11.501 -0.1875  2.8480 -1.1185
   54MOL0     H 7233   0.941   1.381  11.457  1.1951 -0.7221  0.9097
   54MOL0     H 7234   1.006   1.402  11.296  1.9280  1.9896 -0.5228
   54MOL0     H 7235   1.149   1.511  11.546  1.2055  2.7940 -2.4379
   54MOL0     H 7236   1.170   1.349  11.496 -0.5399  0.3442  0.7399
   54MOL0     H 7237   1.253   1.606  11.371  0.1088  0.0879 -0.1651
   54MOL0     H 7238   1.212   1.486  11.253  3.3909 -1.3852 -1.0246
   54MOL0     H 7239   1.391   1.410  11.481 -2.1522 -2.4261 -1.1299
   54MOL0     H 7240   1.344   1.334  11.331 -1.8950  1.9436 -1.6914
   54MOL0     H 7241   1.406   1.476  11.085  0.2430 -2.8796  0.7874
   54MOL0     H 7242   1.618   1.599  10.926  1.1844 -1.2687  1.6623
   54MOL0     H 7243   1.486   1.717  10.969 -0.7907 -3.8069 -1.8220
   54MOL0     H 7244   1.645   1.846  11.091  3.6022 -1.3367  3.2532
   54MOL0     H 7245   1.777   1.746  11.040 -0.4602  1.8869  2.0162
   54MOL0     H 7246   1.606   1.934  10.872 -0.7410 -0.8935 -0.3323
   54MOL0     H 7247   1.702   1.796  10.801  0.3150 -2.3695  1.8630
   54MOL0     H 7248   1.836   2.029  10.947 -0.6521  1.5174 -1.6666
   54MOL0     H 7249   1.838   1.994  10.771  2.0641 -2.4084 -0.7726
   54MOL0     H 7250   2.030   2.123  10.881  1.7869  0.1702 -0.0062
   54MOL0     H 7251   2.247   2.189  10.843 -1.8546 -0.1557  1.2447
   54MOL0     H 7252   2.725   2.066  10.920  0.5414  0.1267  0.8976
   54MOL0     H 7253   2.952   2.128  10.875 -1.8156  2.7923 -0.9046
   54MOL0     H 7254   3.287   2.048  10.706 -0.0133 -0.5559 -0.0867
   54MOL0     H 7255   3.168   2.003  10.828 -1.8957  0.4261 -0.7629
   54MOL0     H 7256   3.080   1.830  10.714 -1.5909  4.5697 -1.4432
   54MOL0     H 7257   3.225   1.824  10.590  1.9435 -0.4666  0.6507
   54MOL0     H 7258   3.374   1.779  10.767  1.0181  0.9223  3.2886
   54MOL0     H 7259   3.238   1.772  10.885  0.6823  0.2662 -0.5642
   54MOL0     H 7260   3.291   1.573  10.658 -1.3679 -0.1471 -0.4246
   54MOL0     H 7261   3.153   1.565  10.751 -0.0868 -0.6840  0.4018
   54MOL0     H 7262   3.275   1.555  10.960 -2.6389  2.7428 -2.0939
   54MOL0     H 7263   3.429   1.533  10.879  0.0090 -0.9884 -0.6712
   54MOL0     H 7264   3.224   1.323  10.859 -0.6785 -0.0505  1.3018
   54MOL0     H 7265   3.383   1.341  10.770  1.1869 -0.4059  0.9659
   54MOL0     H 7266   3.354   1.352  11.072  0.7934 -0.9016  0.8346
   54MOL0     H 7267   3.507   1.347  10.976  0.0709 -1.6900 -2.4259
   54MOL0     H 7268   3.320   1.111  11.003  1.1629  0.5590  2.4817
   54MOL0     H 7269   3.457   1.129  10.890  0.2775  0.3817 -0.9253
   54MOL0     H 7270   2.913   1.940  10.483 -1.1859  1.7714 -0.8993
   54MOL0     H 7271   2.686   1.879  10.534 -1.2067  0.7330  0.8263
   54MOL0     H 7272   2.377   1.775  10.855 -1.4093 -2.7235  0.8238
   54MOL0     H 7273   2.145   1.707  10.903 -0.7674  0.7504 -0.2487
   54MOL0     H 7274   0.359   1.822  11.191  2.7931 -0.5557 -1.7271
   54MOL0     H 7275   0.106   1.730  11.165  1.0043  1.6737 -0.7502
   54MOL0     H 7276  -0.200   1.558  11.053 -2.1359  0.7552 -0.2092
   54MOL0     H 7277  -0.440   1.552  11.039  0.9078 -0.8320 -1.0886
   54MOL0     H 7278  -0.632   1.240  11.298 -1.2588 -0.4179 -0.1642
   54MOL0     H 7279  -0.647   1.148  11.143  0.1111 -1.2055  0.3923
   54MOL0     H 7280  -0.882   1.185  11.205 -0.1100  0.2249 -0.5649
   54MOL0     H 7281  -0.852   1.328  11.107  0.7127  0.0376 -0.2735
   54MOL0     H 7282  -0.786   1.459  11.312 -1.2711  0.4431 -0.0564
   54MOL0     H 7283  -0.822   1.328  11.420 -3.8805  0.9785  0.3576
   54MOL0     H 7284  -1.007   1.503  11.400 -0.8698  0.7524 -0.5499
   54MOL0     H 7285  -0.987   1.481  11.225  3.5988  1.6296  0.6506
   54MOL0     H 7286  -1.245   1.180  11.402  2.4597 -1.1234  2.4323
   54MOL0     H 7287  -0.428   1.190  11.265  2.6645 -1.9424  1.0268
   54MOL0     H 7288  -0.082   1.103  11.226 -0.9133 -1.8405  1.0802
   54MOL0     H 7289  -0.127   1.171  11.379  1.8135 -1.4700 -0.4894
   54MOL0     H 7290  -0.246   1.076  11.294 -0.3422 -0.3639 -1.3103
   55MOL0     O 7291   9.363   2.525   3.790 -0.4748 -0.0866  0.3529
   55MOL0     C 7292   9.413   2.609   3.862 -1.4385  0.5948  0.2034
   55MOL0     O 7293   9.548   2.606   3.896  0.3896 -0.0473  0.4724
   55MOL0     C 7294   9.634   2.500   3.882 -0.0122  0.6677 -1.2855
   55MOL0     C 7295   9.596   2.368   3.882 -0.3107  1.1602 -0.1793
   55MOL0     C 7296   9.688   2.265   3.868  0.6823 -0.9859  0.6709
   55MOL0     C 7297   9.823   2.303   3.849  0.0313  0.2652 -0.0287
   55MOL0     O 7298   9.926   2.215   3.814 -0.5224  0.5674 -0.1922
   55MOL0     C 7299   9.889   2.084   3.762 -0.2950 -0.4862 -0.3849
   55MOL0     C 7300  10.017   2.023   3.715  0.0505  1.2027  0.7981
   55MOL0     C 7301  10.156   2.061   3.781 -0.8315 -1.0226  0.3027
   55MOL0     C 7302  10.276   2.006   3.714 -0.1195 -0.2938 -0.2235
   55MOL0     C 7303  10.401   2.064   3.781 -0.3241  0.1985 -0.9115
   55MOL0     C 7304  10.440   2.214   3.769 -0.1017 -0.8077 -0.4575
   55MOL0     C 7305  10.563   2.239   3.858  0.5542  0.0745  1.4915
   55MOL0     C 7306  10.681   2.195   3.776 -0.3811  0.1861  0.0979
   55MOL0     N 7307  10.718   2.298   3.680  0.1498  0.6734  0.3063
   55MOL0     C 7308  10.801   2.396   3.693 -0.2916 -0.1254  0.1746
   55MOL0     C 7309  10.806   2.463   3.576  0.2466  0.4730  1.1609
   55MOL0     C 7310  10.897   2.573   3.544  0.7254  0.3682 -0.2723
   55MOL0     C 7311  11.013   2.580   3.642 -0.0242  0.7069  0.0847
   55MOL0     C 7312  11.105   2.700   3.628  0.0325  0.2346 -0.6708
   55MOL0     C 7313  11.210   2.706   3.738 -1.1347  0.5382  0.9168
   55MOL0     O 7314  11.307   2.599   3.699  0.6754 -0.4174 -0.5314
   55MOL0     C 7315  11.427   2.606   3.764  0.0732 -0.9582  0.5635
   55MOL0     C 7316  11.476   2.717   3.843  0.0389  0.5303  0.0751
   55MOL0     C 7317  11.597   2.720   3.909  0.4980  0.7028 -0.0361
   55MOL0     C 7318  11.683   2.611   3.899  0.5444 -0.6820  0.7435
   55MOL0     C 7319  11.813   2.616   3.974 -0.4225  0.2982 -0.5807
   55MOL0     O 7320  11.834   2.717   4.062 -0.1841 -0.2349  0.4296
   55MOL0     C 7321  11.957   2.722   4.124  0.1037  0.4956  0.1830
   55MOL0     C 7322  11.952   2.732   4.260 -0.8390  0.3746 -0.4491
   55MOL0     C 7323  12.074   2.724   4.330  0.3522  0.4473  0.3393
   55MOL0     C 7324  12.195   2.707   4.258  0.5073 -0.1012  0.1789
   55MOL0     O 7325  12.310   2.684   4.328  0.3148 -0.1186 -0.1968
   55MOL0     C 7326  12.331   2.558   4.394 -1.0355 -0.6733  0.0255
   55MOL0     C 7327  12.472   2.552   4.439 -0.2126 -0.2607  0.1307
   55MOL0     C 7328  12.512   2.426   4.513 -0.1330  0.2176  0.4730
   55MOL0     C 7329  12.641   2.453   4.598 -0.0171  0.0640 -0.0609
   55MOL0     C 7330  12.694   2.320   4.659  0.2055 -0.2083 -0.0122
   55MOL0     C 7331  12.834   2.326   4.726 -0.1943  0.2658  0.5460
   55MOL0     C 7332  12.951   2.348   4.636  0.9148  0.1499  0.2672
   55MOL0     C 7333  13.001   2.219   4.573 -0.5726 -0.5487  0.0857
   55MOL0    Cl 7334  13.116   2.263   4.452 -0.2106 -0.0271  0.0169
   55MOL0     C 7335  12.196   2.707   4.120 -0.1428 -0.4716  0.1972
   55MOL0     C 7336  12.077   2.722   4.055  0.0237 -0.6237 -0.4211
   55MOL0     O 7337  11.880   2.521   3.954 -0.1075  0.8235 -0.0474
   55MOL0     C 7338  11.646   2.504   3.813  0.3162  0.2529 -0.0848
   55MOL0     C 7339  11.523   2.501   3.745 -0.2419 -0.3762 -0.1463
   55MOL0     N 7340  10.711   2.408   3.493 -0.0138  0.1744  0.6346
   55MOL0     N 7341  10.656   2.311   3.560  0.0602  0.0942 -0.6143
   55MOL0     C 7342   9.866   2.437   3.849  0.9726 -0.3167  0.3873
   55MOL0     C 7343   9.767   2.536   3.875  1.2845 -0.1254  0.2856
   55MOL0     C 7344   9.338   2.708   3.929  1.2722 -0.1602 -0.0386
   55MOL0     C 7345   9.376   2.749   4.061 -0.5483 -0.4281  0.9705
   55MOL0     C 7346   9.293   2.846   4.120 -0.0390 -0.8878  0.1293
   55MOL0     C 7347   9.178   2.903   4.061 -0.5739 -0.4852  0.5502
   55MOL0     O 7348   9.094   2.977   4.141 -0.2643  0.5267 -0.6247
   55MOL0     C 7349   9.014   3.080   4.071  0.3357  0.2719 -0.1131
   55MOL0     C 7350   8.930   3.150   4.175 -0.3083 -0.2706 -0.4088
   55MOL0     C 7351   8.872   3.275   4.106  1.3517 -0.2873 -0.0777
   55MOL0     C 7352   8.739   3.231   4.032 -0.4227  0.0440 -0.6204
   55MOL0     C 7353   8.662   3.348   3.987 -0.6659  0.0482 -0.4794
   55MOL0     C 7354   8.589   3.437   3.938  0.0446  0.3627 -1.0849
   55MOL0     C 7355   9.155   2.866   3.926  0.2661 -0.7882 -0.5967
   55MOL0     C 7356   9.233   2.773   3.855 -0.0365 -0.4290 -0.0817
   55MOL0     C 7357   9.194   2.764   3.707  0.4321  0.1836 -0.6895
   55MOL0     H 7358   9.494   2.332   3.891 -0.0979  0.7825  0.9066
   55MOL0     H 7359   9.643   2.166   3.867 -1.2804 -0.1519  1.0173
   55MOL0     H 7360   9.847   2.025   3.844  0.9510 -1.4534 -0.4046
   55MOL0     H 7361   9.817   2.096   3.681 -0.3180 -1.4414 -0.5162
   55MOL0     H 7362  10.034   2.039   3.608  0.3575 -0.8663  0.4886
   55MOL0     H 7363  10.007   1.916   3.733 -0.2785  1.1898  0.5522
   55MOL0     H 7364  10.157   2.036   3.887 -1.5602  0.5236  0.7065
   55MOL0     H 7365  10.181   2.167   3.769 -1.4977 -0.8491  0.3798
   55MOL0     H 7366  10.280   1.898   3.729  1.9735 -0.4312 -1.3760
   55MOL0     H 7367  10.285   2.034   3.608  2.1065  0.3042  0.0680
   55MOL0     H 7368  10.389   2.037   3.887  0.4588 -0.7425 -1.0523
   55MOL0     H 7369  10.482   2.003   3.741  0.6945 -0.2314  1.6109
   55MOL0     H 7370  10.460   2.222   3.661 -0.3298  2.7670 -0.3422
   55MOL0     H 7371  10.362   2.281   3.805  1.3461  0.1608  0.9923
   55MOL0     H 7372  10.552   2.182   3.951  0.8480  1.0728  2.1566
   55MOL0     H 7373  10.584   2.342   3.889  0.4171 -0.0271  1.9313
   55MOL0     H 7374  10.766   2.180   3.843 -0.3402  2.3301  0.5828
   55MOL0     H 7375  10.655   2.102   3.724 -1.8754 -0.6423  2.1620
   55MOL0     H 7376  10.853   2.409   3.787 -0.3804  0.6629  0.1182
   55MOL0     H 7377  10.941   2.563   3.445 -0.1632 -4.8875 -0.4032
   55MOL0     H 7378  10.836   2.664   3.543 -0.2097 -0.1833  1.5103
   55MOL0     H 7379  10.975   2.577   3.745 -0.0087 -0.7761  0.0691
   55MOL0     H 7380  11.077   2.492   3.635 -1.7694 -0.6627  0.7219
   55MOL0     H 7381  11.051   2.794   3.637 -0.6709 -0.3136  1.6777
   55MOL0     H 7382  11.152   2.702   3.529 -0.4995 -0.6828 -0.9532
   55MOL0     H 7383  11.170   2.678   3.835  1.3325 -1.3505  1.4946
   55MOL0     H 7384  11.249   2.808   3.733 -0.2572  0.3906  3.4379
   55MOL0     H 7385  11.423   2.812   3.847  3.6275  2.6952 -0.2430
   55MOL0     H 7386  11.619   2.801   3.978 -0.5372  0.7961  0.1991
   55MOL0     H 7387  11.856   2.740   4.310 -0.5240  3.4566 -0.1022
   55MOL0     H 7388  12.077   2.726   4.438  0.1742 -1.4773  0.4078
   55MOL0     H 7389  12.265   2.557   4.481  1.9881  1.1311  2.5543
   55MOL0     H 7390  12.323   2.480   4.317  2.0944  1.9824 -3.3518
   55MOL0     H 7391  12.537   2.569   4.353 -0.3557 -1.1790 -0.1755
   55MOL0     H 7392  12.508   2.632   4.505  0.3278 -3.0322  3.5586
   55MOL0     H 7393  12.424   2.391   4.569 -0.2300 -0.9223 -0.3504
   55MOL0     H 7394  12.526   2.355   4.431 -0.6506  2.7604 -1.9620
   55MOL0     H 7395  12.627   2.520   4.683  1.6351 -0.9257  1.0498
   55MOL0     H 7396  12.708   2.495   4.522 -0.2412 -1.2981 -1.0633
   55MOL0     H 7397  12.693   2.252   4.574  0.2993  0.6324 -0.7080
   55MOL0     H 7398  12.623   2.270   4.725  2.2176 -1.5951  1.2186
   55MOL0     H 7399  12.831   2.409   4.798 -2.4426  1.0571 -0.3675
   55MOL0     H 7400  12.839   2.233   4.783 -0.8479 -0.1773 -0.0986
   55MOL0     H 7401  13.033   2.398   4.689  3.4048 -2.6008 -0.7076
   55MOL0     H 7402  12.910   2.410   4.555 -0.8437  0.4642  1.3374
   55MOL0     H 7403  13.060   2.155   4.640 -0.7913 -0.9827 -0.1342
   55MOL0     H 7404  12.922   2.156   4.531  0.3778 -2.4821  1.0560
   55MOL0     H 7405  12.289   2.694   4.066 -0.6914 -0.8625 -0.6727
   55MOL0     H 7406  12.073   2.724   3.946 -2.4714  1.5853 -0.3787
   55MOL0     H 7407  11.720   2.427   3.791 -1.3576 -0.9461 -1.8131
   55MOL0     H 7408  11.506   2.424   3.670  3.8376 -0.0635 -1.6436
   55MOL0     H 7409   9.970   2.462   3.830  0.9781 -0.4165  0.2837
   55MOL0     H 7410   9.782   2.643   3.886  1.0072 -0.1795  1.2640
   55MOL0     H 7411   9.456   2.695   4.110  0.2423  1.0736  1.4056
   55MOL0     H 7412   9.319   2.875   4.221 -1.3519 -1.4383  0.6499
   55MOL0     H 7413   8.953   3.038   3.991  0.7662 -0.1091 -0.2496
   55MOL0     H 7414   9.083   3.144   4.015  0.1088 -2.0381 -3.3225
   55MOL0     H 7415   9.000   3.191   4.248 -0.8621  1.1486 -0.6301
   55MOL0     H 7416   8.853   3.082   4.211 -0.5040  0.1224 -0.0660
   55MOL0     H 7417   8.943   3.326   4.040 -1.2578  1.4854 -1.6863
   55MOL0     H 7418   8.853   3.349   4.185 -1.3896  0.2226 -1.0960
   55MOL0     H 7419   8.767   3.167   3.948 -0.2648  1.2962 -1.5498
   55MOL0     H 7420   8.674   3.168   4.093  0.0357  0.1587 -0.0074
   55MOL0     H 7421   8.528   3.513   3.894  0.9882  0.6779 -1.9067
   55MOL0     H 7422   9.068   2.905   3.874  0.0997  0.5290  0.5978
   55MOL0     H 7423   9.280   2.776   3.641  0.8073  1.1130 -0.0567
   55MOL0     H 7424   9.150   2.666   3.685 -1.3672  0.5253  1.0774
   55MOL0     H 7425   9.117   2.837   3.680 -2.1531 -1.8763  0.6600
   56MOL0     O 7426   9.869  10.671   8.024  1.3150 -0.0115  0.1856
   56MOL0     C 7427   9.986  10.704   7.999  0.7410  0.1950  0.6916
   56MOL0     O 7428  10.030  10.816   7.925 -0.5522  0.6152 -0.0423
   56MOL0     C 7429   9.946  10.900   7.862 -0.0391  0.9008  0.1378
   56MOL0     C 7430   9.982  11.025   7.840  0.4452 -0.6243 -0.5955
   56MOL0     C 7431   9.909  11.119   7.778  0.4637 -1.0026  0.2960
   56MOL0     C 7432   9.783  11.087   7.728 -0.2715 -0.2383 -0.2737
   56MOL0     O 7433   9.710  11.186   7.666 -0.5690 -0.3137  0.2941
   56MOL0     C 7434   9.589  11.155   7.599  0.1843  0.3791 -0.4826
   56MOL0     C 7435   9.530  11.276   7.520  0.5735 -0.2047  0.6174
   56MOL0     C 7436   9.628  11.330   7.423  0.1553 -0.5313 -0.5537
   56MOL0     C 7437   9.551  11.383   7.295  0.2169 -1.5722 -0.7152
   56MOL0     C 7438   9.653  11.435   7.192  0.7466  0.1756  0.2579
   56MOL0     C 7439   9.598  11.562   7.147  0.5561  0.2858 -0.0542
   56MOL0     C 7440   9.697  11.614   7.040  0.2301 -0.2562  0.3673
   56MOL0     C 7441   9.626  11.748   6.995  0.1418 -0.7271 -0.0279
   56MOL0     N 7442   9.668  11.876   7.065 -0.7233 -0.2191  0.5709
   56MOL0     C 7443   9.792  11.906   7.123  0.3589 -0.4310 -0.1137
   56MOL0     C 7444   9.789  12.045   7.139 -0.4555  0.5895 -0.0902
   56MOL0     C 7445   9.890  12.124   7.222  0.9684 -0.1805  0.3965
   56MOL0     C 7446  10.026  12.106   7.154  0.0616  0.4074  0.1075
   56MOL0     C 7447  10.123  12.181   7.246 -0.5560  0.6244  0.6407
   56MOL0     C 7448  10.266  12.140   7.199 -0.0599  0.2945  0.6691
   56MOL0     O 7449  10.350  12.195   7.292 -0.1167 -0.7441 -0.3381
   56MOL0     C 7450  10.485  12.203   7.254  0.9756  0.3470  1.3661
   56MOL0     C 7451  10.545  12.126   7.153  0.1157 -1.0062 -0.1731
   56MOL0     C 7452  10.684  12.122   7.128 -0.5543  0.2506 -0.0883
   56MOL0     C 7453  10.761  12.209   7.199  0.7975 -0.9415  0.1392
   56MOL0     C 7454  10.909  12.195   7.174 -0.2922  0.3110  0.3982
   56MOL0     O 7455  10.988  12.277   7.253 -0.5301 -0.0721 -0.0509
   56MOL0     C 7456  11.127  12.287   7.225 -0.0238  0.0144  0.4168
   56MOL0     C 7457  11.181  12.354   7.108 -0.5435  0.4278  0.5117
   56MOL0     C 7458  11.316  12.340   7.079  0.2179 -0.2938  0.7572
   56MOL0     C 7459  11.396  12.256   7.152  0.2783  0.1907 -0.9154
   56MOL0     O 7460  11.522  12.227   7.104  0.5521 -0.2165 -0.6188
   56MOL0     C 7461  11.572  12.091   7.125  0.2840 -0.5106 -0.3935
   56MOL0     C 7462  11.714  12.091   7.063  0.7276 -0.0291 -0.2305
   56MOL0     C 7463  11.813  12.149   7.165 -0.1596 -0.0867  0.3017
   56MOL0     C 7464  11.960  12.111   7.142  0.1659 -0.8816  0.5044
   56MOL0     C 7465  12.047  12.191   7.234 -0.5841 -0.8731 -0.7026
   56MOL0     C 7466  12.190  12.158   7.208 -0.2082  0.4627 -0.4305
   56MOL0     C 7467  12.281  12.250   7.295  0.1241 -0.1113 -0.0728
   56MOL0     C 7468  12.427  12.206   7.301 -0.1261  0.2575 -0.1301
   56MOL0    Cl 7469  12.510  12.187   7.135  0.3388  0.1025 -0.3459
   56MOL0     C 7470  11.342  12.190   7.267 -0.5967 -0.4239  0.2208
   56MOL0     C 7471  11.217  12.217   7.312  0.9536  0.6293  0.0393
   56MOL0     O 7472  10.952  12.113   7.089 -0.5122  0.0444 -0.1784
   56MOL0     C 7473  10.707  12.300   7.288  0.6659  0.1205  0.5607
   56MOL0     C 7474  10.567  12.295   7.315  0.6105  0.3871 -0.3103
   56MOL0     N 7475   9.669  12.093   7.096 -0.3213  0.7912  0.0752
   56MOL0     N 7476   9.610  11.993   7.046  0.1025 -0.5935 -0.0289
   56MOL0     C 7477   9.734  10.956   7.743 -0.7742 -0.2636  0.0362
   56MOL0     C 7478   9.824  10.859   7.809 -1.0201 -0.3553  0.1454
   56MOL0     C 7479  10.092  10.607   8.055  0.0968 -0.4273  0.6866
   56MOL0     C 7480  10.227  10.656   8.048 -0.1775 -0.7681 -0.5699
   56MOL0     C 7481  10.338  10.581   8.088  1.1261  0.0123  0.3433
   56MOL0     C 7482  10.322  10.447   8.121 -0.9191 -0.0709  0.8133
   56MOL0     O 7483  10.433  10.382   8.157 -0.1570  0.1397 -1.2900
   56MOL0     C 7484  10.463  10.255   8.085  0.6198 -0.2965  0.6670
   56MOL0     C 7485  10.611  10.226   8.084  0.6993  0.3329  0.5818
   56MOL0     C 7486  10.695  10.338   8.015 -0.3418  0.2004  0.2145
   56MOL0     C 7487  10.810  10.386   8.117  0.2911  0.3240  0.2196
   56MOL0     C 7488  10.747  10.453   8.233 -0.2045  0.6995  0.1555
   56MOL0     C 7489  10.705  10.523   8.327  0.5245 -0.1210  0.6324
   56MOL0     C 7490  10.194  10.396   8.124 -0.6524  0.7573  0.2892
   56MOL0     C 7491  10.080  10.476   8.101 -0.0552  1.1406  0.3485
   56MOL0     C 7492   9.943  10.411   8.114 -0.7315  0.6302 -0.2331
   56MOL0     H 7493  10.071  11.051   7.895  0.7902  0.1291 -1.4909
   56MOL0     H 7494   9.942  11.221   7.759  1.3983 -1.2590  0.4970
   56MOL0     H 7495   9.597  11.071   7.529 -1.9217  0.7053 -1.2048
   56MOL0     H 7496   9.518  11.131   7.679  1.1916 -0.0817  0.3032
   56MOL0     H 7497   9.528  11.348   7.602  2.2640 -2.3944  2.7176
   56MOL0     H 7498   9.433  11.250   7.478 -0.0310  1.4697  0.9143
   56MOL0     H 7499   9.702  11.257   7.390 -1.1284 -1.8139 -0.6734
   56MOL0     H 7500   9.690  11.404   7.476 -0.9861 -0.6430  0.9927
   56MOL0     H 7501   9.501  11.295   7.254  1.2475 -1.2199 -2.8845
   56MOL0     H 7502   9.482  11.459   7.332  1.8102 -1.0459  1.3852
   56MOL0     H 7503   9.748  11.450   7.244  1.0971 -1.2419  0.0729
   56MOL0     H 7504   9.670  11.359   7.115  0.1530  0.4848 -0.1925
   56MOL0     H 7505   9.502  11.550   7.095  1.0650 -1.0874 -0.7550
   56MOL0     H 7506   9.594  11.635   7.228 -2.1103 -2.7593  2.8746
   56MOL0     H 7507   9.706  11.543   6.957  1.6045  0.3875 -0.0592
   56MOL0     H 7508   9.800  11.628   7.072 -0.4586  1.5203  1.9826
   56MOL0     H 7509   9.638  11.767   6.888 -1.1027  0.1343 -0.0384
   56MOL0     H 7510   9.518  11.731   7.007  0.1536 -4.0640 -3.1432
   56MOL0     H 7511   9.860  11.831   7.163 -1.5024 -1.7903  0.6307
   56MOL0     H 7512   9.859  12.229   7.221 -0.0938 -0.4744 -1.1434
   56MOL0     H 7513   9.901  12.089   7.325  2.8952  0.7356  0.5606
   56MOL0     H 7514  10.047  12.001   7.136  0.1022  0.5930 -0.9955
   56MOL0     H 7515  10.025  12.156   7.056  0.8973  0.3047  0.0375
   56MOL0     H 7516  10.108  12.164   7.353 -0.1735  1.5563  0.8506
   56MOL0     H 7517  10.121  12.289   7.229  0.8896  0.3664 -1.6368
   56MOL0     H 7518  10.289  12.172   7.097  3.1983  1.0323  1.5155
   56MOL0     H 7519  10.275  12.031   7.204 -3.4739 -0.0778  1.0578
   56MOL0     H 7520  10.477  12.052   7.110  0.7085 -2.3527  1.1078
   56MOL0     H 7521  10.716  12.051   7.053 -1.7738  0.0151 -0.4115
   56MOL0     H 7522  11.105  12.399   7.045 -0.2747 -0.3424 -0.3974
   56MOL0     H 7523  11.360  12.392   6.995 -1.3217  1.6582  1.0579
   56MOL0     H 7524  11.570  12.051   7.227 -0.8293 -0.1617 -0.2639
   56MOL0     H 7525  11.503  12.021   7.076 -1.3223  1.1036 -0.5591
   56MOL0     H 7526  11.744  11.993   7.025 -0.2390 -0.0133 -1.0687
   56MOL0     H 7527  11.705  12.158   6.978 -0.0912  0.6012  0.3339
   56MOL0     H 7528  11.800  12.257   7.153 -1.2295 -0.4900 -3.3916
   56MOL0     H 7529  11.789  12.106   7.262 -0.9243  1.5056  0.8468
   56MOL0     H 7530  11.978  12.150   7.041  1.8651 -0.6044  0.8826
   56MOL0     H 7531  11.973  12.003   7.144  1.3670 -0.7408  1.1527
   56MOL0     H 7532  12.008  12.172   7.334  1.7767 -0.4578  0.3768
   56MOL0     H 7533  12.025  12.298   7.221 -0.7922 -0.5092  1.9492
   56MOL0     H 7534  12.209  12.051   7.214  1.7039  0.8126  0.2982
   56MOL0     H 7535  12.215  12.186   7.106 -3.0657 -0.3320 -1.4472
   56MOL0     H 7536  12.249  12.248   7.400 -0.6096 -0.0784 -0.2891
   56MOL0     H 7537  12.263  12.351   7.260 -0.9764  0.2322  1.3471
   56MOL0     H 7538  12.487  12.273   7.363  0.3361 -2.3726  2.4494
   56MOL0     H 7539  12.420  12.114   7.359  3.1607  2.3622  4.1662
   56MOL0     H 7540  11.408  12.136   7.335  0.8254  0.2190 -0.5851
   56MOL0     H 7541  11.178  12.179   7.406  0.9232  1.0359  0.1967
   56MOL0     H 7542  10.764  12.370   7.348 -2.6006  2.6631  0.9799
   56MOL0     H 7543  10.517  12.365   7.382 -1.4952  0.2520 -1.6539
   56MOL0     H 7544   9.636  10.925   7.710  0.0621  0.4230 -3.5181
   56MOL0     H 7545   9.778  10.762   7.824  0.2260 -0.7537  1.7302
   56MOL0     H 7546  10.245  10.753   8.003 -1.0556 -1.0859 -1.6355
   56MOL0     H 7547  10.426  10.644   8.088  0.1743  1.3812  0.2623
   56MOL0     H 7548  10.429  10.267   7.981  0.4813 -2.5860  0.4043
   56MOL0     H 7549  10.403  10.182   8.139 -2.0934  2.2120  1.3057
   56MOL0     H 7550  10.630  10.125   8.047 -0.1238 -0.0960  1.2920
   56MOL0     H 7551  10.631  10.220   8.191 -0.6061 -0.0168  0.8306
   56MOL0     H 7552  10.636  10.427   7.992  0.2213  0.1060 -1.7210
   56MOL0     H 7553  10.749  10.298   7.929  0.9546  1.0166  0.6063
   56MOL0     H 7554  10.868  10.295   8.134  0.9117  0.4796 -0.9548
   56MOL0     H 7555  10.865  10.462   8.061  1.3717  1.4387  2.6529
   56MOL0     H 7556  10.682  10.586   8.410  3.0737  1.1346  0.4997
   56MOL0     H 7557  10.171  10.295   8.154 -3.1040  0.9066 -0.8430
   56MOL0     H 7558   9.887  10.456   8.196  0.8664  0.3644  1.0592
   56MOL0     H 7559   9.895  10.436   8.019 -1.9341  0.9472  0.4440
   56MOL0     H 7560   9.954  10.303   8.130  1.4125  0.8350 -0.0210
   57MOL0     O 7561   6.740   4.879   0.133  0.0510  0.1717  0.0752
   57MOL0     C 7562   6.702   4.993   0.175 -0.1907 -0.0828 -0.0459
   57MOL0     O 7563   6.780   5.074   0.257 -0.4005  0.2170  0.3466
   57MOL0     C 7564   6.912   5.052   0.283 -0.0802  0.3917  0.4970
   57MOL0     C 7565   7.007   5.107   0.204  0.3259 -1.2277  0.9478
   57MOL0     C 7566   7.144   5.088   0.237 -0.5349  1.1844 -0.6622
   57MOL0     C 7567   7.183   5.004   0.351 -0.0638 -0.9002  0.0203
   57MOL0     O 7568   7.311   4.982   0.396 -0.4489 -0.3561  0.6881
   57MOL0     C 7569   7.344   5.000   0.538  0.6102 -0.0712 -0.5638
   57MOL0     C 7570   7.472   5.069   0.554 -0.2578 -1.1009 -0.7539
   57MOL0     C 7571   7.515   5.080   0.703 -0.4066  0.2593  0.0861
   57MOL0     C 7572   7.636   5.164   0.717  0.9791 -0.2502 -1.3389
   57MOL0     C 7573   7.682   5.176   0.863 -0.2672 -0.0088  0.3477
   57MOL0     C 7574   7.702   5.045   0.949  0.3957 -0.1433 -0.0081
   57MOL0     C 7575   7.816   4.958   0.894  0.6575  0.2283 -0.0336
   57MOL0     C 7576   7.951   5.032   0.910  0.3511  0.2692  0.7825
   57MOL0     N 7577   8.064   4.943   0.886 -0.2401 -0.4117  0.1628
   57MOL0     C 7578   8.099   4.841   0.964 -0.4016  0.5633  0.0221
   57MOL0     C 7579   8.190   4.772   0.885  0.4343  0.5999 -0.0216
   57MOL0     C 7580   8.251   4.645   0.901 -0.8892  0.9616  0.6487
   57MOL0     C 7581   8.148   4.524   0.910 -0.1941 -0.0724 -0.1579
   57MOL0     C 7582   8.198   4.383   0.937  0.5422  0.6013 -0.5813
   57MOL0     C 7583   8.262   4.377   1.077 -0.1655 -0.3303  0.1590
   57MOL0     O 7584   8.309   4.238   1.088  0.2381 -0.0952 -0.6938
   57MOL0     C 7585   8.427   4.205   1.018  0.0133  0.2180  0.4727
   57MOL0     C 7586   8.443   4.065   0.997 -0.1794  0.2869 -0.2561
   57MOL0     C 7587   8.555   4.014   0.928  0.5684 -0.0890 -0.0563
   57MOL0     C 7588   8.650   4.105   0.880 -0.4840 -0.0666  0.3071
   57MOL0     C 7589   8.764   4.047   0.797  0.1416  0.1621  0.9340
   57MOL0     O 7590   8.760   3.910   0.767  0.1929  0.4149  0.0922
   57MOL0     C 7591   8.843   3.838   0.690 -1.2605 -0.1605  0.3055
   57MOL0     C 7592   8.851   3.861   0.553 -0.8400  0.4504 -0.5294
   57MOL0     C 7593   8.935   3.780   0.482 -0.1687  0.8827  0.2230
   57MOL0     C 7594   9.032   3.698   0.546 -0.0729 -0.1138 -0.7439
   57MOL0     O 7595   9.133   3.640   0.476 -0.0993 -0.0637 -0.6940
   57MOL0     C 7596   9.092   3.563   0.363  0.1572 -1.2624 -0.9954
   57MOL0     C 7597   9.171   3.437   0.345 -0.4406  0.0017 -0.4849
   57MOL0     C 7598   9.310   3.488   0.301 -0.2244 -0.4155  0.7085
   57MOL0     C 7599   9.423   3.498   0.402 -0.1582  0.0991 -0.3895
   57MOL0     C 7600   9.556   3.515   0.324  0.0361  0.0527 -0.3285
   57MOL0     C 7601   9.672   3.517   0.423  0.4724 -0.3534  0.7531
   57MOL0     C 7602   9.801   3.531   0.341 -0.5285 -0.4945 -0.0698
   57MOL0     C 7603   9.932   3.551   0.419 -0.3561  0.2267  0.7836
   57MOL0    Cl 7604   9.978   3.391   0.489  0.1644  0.1151 -0.7426
   57MOL0     C 7605   9.023   3.680   0.681 -0.1226  0.2920 -0.3562
   57MOL0     C 7606   8.931   3.756   0.758 -0.3066  0.3937  0.0861
   57MOL0     O 7607   8.848   4.121   0.746 -0.0100 -0.2260 -0.5188
   57MOL0     C 7608   8.634   4.241   0.905  0.1503  0.2174  0.6879
   57MOL0     C 7609   8.524   4.289   0.969  0.7814  0.5663  0.1738
   57MOL0     N 7610   8.191   4.833   0.763 -1.0244 -0.1959  0.0679
   57MOL0     N 7611   8.129   4.943   0.768  0.5325  0.3710 -0.4530
   57MOL0     C 7612   7.075   4.962   0.427 -0.9990 -0.0080  0.1492
   57MOL0     C 7613   6.942   4.982   0.393 -0.0916 -0.8099  0.7636
   57MOL0     C 7614   6.572   5.046   0.129  1.1565 -0.7134  0.2343
   57MOL0     C 7615   6.537   5.189   0.122 -0.7896  0.2793  0.5891
   57MOL0     C 7616   6.416   5.241   0.091 -0.0397  0.0163 -0.0277
   57MOL0     C 7617   6.320   5.153   0.047 -0.0034 -0.2281 -0.8788
   57MOL0     O 7618   6.198   5.193  -0.007  0.4646  0.0796  0.5522
   57MOL0     C 7619   6.179   5.330  -0.055  0.6697 -0.0122  0.1067
   57MOL0     C 7620   6.034   5.342  -0.103  0.2168 -0.2332  0.3344
   57MOL0     C 7621   5.963   5.476  -0.104 -0.0626 -0.7942 -0.6191
   57MOL0     C 7622   5.815   5.464  -0.113  0.1067 -0.3334  1.4224
   57MOL0     C 7623   5.772   5.432  -0.249 -0.7873  0.6788 -0.1332
   57MOL0     C 7624   5.749   5.397  -0.361 -1.0370 -0.1053  1.0123
   57MOL0     C 7625   6.344   5.017   0.057 -0.4259  0.1992  0.3503
   57MOL0     C 7626   6.457   4.964   0.102  0.0948  0.6256 -0.1599
   57MOL0     C 7627   6.445   4.822   0.149  0.0083  0.2575  0.1947
   57MOL0     H 7628   6.983   5.177   0.125  4.0944 -0.1259  0.5865
   57MOL0     H 7629   7.222   5.135   0.178 -2.3463  0.8991 -3.4426
   57MOL0     H 7630   7.265   5.055   0.590  1.1773 -0.4072  0.7156
   57MOL0     H 7631   7.352   4.900   0.583  0.7704  0.7396  1.3281
   57MOL0     H 7632   7.464   5.174   0.525 -0.0332 -0.4859  1.2958
   57MOL0     H 7633   7.552   5.021   0.496  0.3198  0.0275 -0.9211
   57MOL0     H 7634   7.538   4.979   0.737 -3.0656 -0.0608  1.2230
   57MOL0     H 7635   7.433   5.117   0.766 -0.4586 -1.0840  0.8407
   57MOL0     H 7636   7.712   5.121   0.652  4.8912 -0.2074  2.6847
   57MOL0     H 7637   7.615   5.265   0.680 -0.5932 -0.4315 -1.0113
   57MOL0     H 7638   7.774   5.235   0.861 -0.8322  0.9099 -2.4307
   57MOL0     H 7639   7.607   5.226   0.926 -2.0421 -1.1369 -0.7584
   57MOL0     H 7640   7.721   5.077   1.052 -0.7609  0.9580 -0.1115
   57MOL0     H 7641   7.607   4.992   0.949 -1.9864  3.7339 -0.8321
   57MOL0     H 7642   7.799   4.936   0.788  1.3216 -1.8444  0.2405
   57MOL0     H 7643   7.810   4.860   0.943 -0.6929  0.8664  1.1318
   57MOL0     H 7644   7.943   5.110   0.833 -1.1750  1.5842  2.1736
   57MOL0     H 7645   7.961   5.080   1.008 -0.4722  0.3923  0.8154
   57MOL0     H 7646   8.077   4.817   1.068 -3.3550  0.8698 -0.4243
   57MOL0     H 7647   8.334   4.629   0.831  0.2386 -1.2380  2.3767
   57MOL0     H 7648   8.296   4.662   0.999 -0.7063  1.4209  0.4852
   57MOL0     H 7649   8.062   4.553   0.971  1.2732  4.8198  0.0085
   57MOL0     H 7650   8.107   4.517   0.808 -1.3699 -2.4496  0.4136
   57MOL0     H 7651   8.270   4.352   0.861 -1.1879 -1.5969 -1.4233
   57MOL0     H 7652   8.116   4.311   0.939  0.9929 -0.0520 -3.1993
   57MOL0     H 7653   8.195   4.396   1.160  0.0353  1.5264 -0.0589
   57MOL0     H 7654   8.343   4.451   1.078  0.1789 -0.6731 -0.6219
   57MOL0     H 7655   8.359   4.004   1.027  0.1558 -0.0364  0.0293
   57MOL0     H 7656   8.549   3.908   0.905  2.1963 -0.9502  2.8395
   57MOL0     H 7657   8.782   3.933   0.511  0.2621 -0.0228 -3.3779
   57MOL0     H 7658   8.923   3.764   0.375  1.5788 -3.9455  0.4896
   57MOL0     H 7659   8.990   3.524   0.364 -0.7781  0.9594 -1.5120
   57MOL0     H 7660   9.071   3.626   0.275 -2.8386 -0.6591  0.0212
   57MOL0     H 7661   9.189   3.364   0.424  4.1743 -1.8382 -2.8481
   57MOL0     H 7662   9.127   3.379   0.264 -0.6322 -1.2708  0.5046
   57MOL0     H 7663   9.340   3.435   0.211  0.9379  3.0233 -1.0975
   57MOL0     H 7664   9.290   3.589   0.263 -2.0631 -1.6434 -1.8860
   57MOL0     H 7665   9.422   3.399   0.449 -1.8340  0.5357  0.5854
   57MOL0     H 7666   9.411   3.578   0.475  0.8089  1.4151 -1.6094
   57MOL0     H 7667   9.554   3.606   0.263  2.9105  0.6180  0.2779
   57MOL0     H 7668   9.571   3.432   0.254 -0.3962 -1.1879  1.0148
   57MOL0     H 7669   9.655   3.599   0.494  1.5321 -1.4627  2.3562
   57MOL0     H 7670   9.676   3.428   0.486 -0.6039 -0.8898  0.0889
   57MOL0     H 7671   9.784   3.612   0.270 -0.1829  0.7116  1.1666
   57MOL0     H 7672   9.818   3.442   0.280 -0.4206 -0.9748  0.6537
   57MOL0     H 7673   9.997   3.573   0.334  0.3456 -0.3928  1.1537
   57MOL0     H 7674   9.919   3.633   0.491 -2.7897  2.5072 -1.9612
   57MOL0     H 7675   9.089   3.611   0.733 -0.3716  1.6268  1.8392
   57MOL0     H 7676   8.920   3.738   0.864  4.3274  1.7612  1.0534
   57MOL0     H 7677   8.714   4.305   0.869  0.1818 -0.9992 -1.5802
   57MOL0     H 7678   8.511   4.397   0.972 -2.4175  0.2513  0.7069
   57MOL0     H 7679   7.095   4.899   0.514 -0.7010 -0.1269 -0.0013
   57MOL0     H 7680   6.857   4.943   0.448 -0.5202 -0.8307  0.1057
   57MOL0     H 7681   6.615   5.259   0.152  0.1950 -0.9178  0.9094
   57MOL0     H 7682   6.388   5.346   0.092 -1.4320 -0.2798 -1.8066
   57MOL0     H 7683   6.258   5.370  -0.119  2.2580 -1.8001  0.8601
   57MOL0     H 7684   6.181   5.393   0.034  0.0926  1.0839 -0.6301
   57MOL0     H 7685   5.973   5.279  -0.038  0.6627 -1.3048 -0.2570
   57MOL0     H 7686   6.021   5.298  -0.203  2.1953  0.2245 -0.1639
   57MOL0     H 7687   6.007   5.550  -0.171  1.7440  0.8023  2.1186
   57MOL0     H 7688   5.976   5.505   0.001  0.9345  0.0722 -0.9682
   57MOL0     H 7689   5.770   5.408  -0.032  0.3534 -0.0435  1.7657
   57MOL0     H 7690   5.786   5.568  -0.095 -3.8352 -0.9264 -0.5335
   57MOL0     H 7691   5.726   5.387  -0.465  3.5028 -2.8501  0.0433
   57MOL0     H 7692   6.264   4.945   0.040  0.1600 -0.7813  1.5511
   57MOL0     H 7693   6.494   4.751   0.081  1.0513  0.0257  1.1569
   57MOL0     H 7694   6.496   4.812   0.245 -1.9089 -2.9291  1.0354
   57MOL0     H 7695   6.344   4.782   0.164 -1.4281  3.7243  0.5566
   58MOL0     O 7696  11.152   6.660   8.942 -0.3128 -0.1858 -0.0194
   58MOL0     C 7697  11.196   6.553   8.881  0.6700 -0.4705 -0.2503
   58MOL0     O 7698  11.314   6.488   8.910  0.1686 -0.1161 -0.2176
   58MOL0     C 7699  11.370   6.521   9.030 -0.2010 -0.2546 -0.8723
   58MOL0     C 7700  11.499   6.564   9.031  0.3757 -0.2256  0.0690
   58MOL0     C 7701  11.570   6.577   9.151 -0.4181 -0.2051  0.1884
   58MOL0     C 7702  11.496   6.567   9.274 -0.4319 -0.2971 -1.0465
   58MOL0     O 7703  11.569   6.593   9.387  0.4538  1.2482 -0.6226
   58MOL0     C 7704  11.562   6.488   9.477 -0.0665  0.7237 -0.2313
   58MOL0     C 7705  11.479   6.530   9.597  0.6136 -0.3637 -0.6315
   58MOL0     C 7706  11.526   6.665   9.658  0.7292  0.5478  0.3773
   58MOL0     C 7707  11.678   6.666   9.701 -0.7066 -0.8858  0.2648
   58MOL0     C 7708  11.711   6.810   9.749 -0.2466  1.0282  0.5516
   58MOL0     C 7709  11.857   6.812   9.771 -0.4809  0.1174 -0.6584
   58MOL0     C 7710  11.911   6.956   9.782 -0.6053  0.3389 -0.1699
   58MOL0     C 7711  12.055   6.975   9.837 -0.0234  0.0946  0.8235
   58MOL0     N 7712  12.147   6.878   9.771 -1.1037  0.5926 -0.4909
   58MOL0     C 7713  12.170   6.868   9.636 -0.3351  0.0078 -0.6566
   58MOL0     C 7714  12.273   6.782   9.625  0.2751 -0.4242 -0.0307
   58MOL0     C 7715  12.329   6.751   9.492 -0.6070 -0.6241 -0.6156
   58MOL0     C 7716  12.478   6.713   9.508  0.0516 -0.3311  0.3450
   58MOL0     C 7717  12.574   6.735   9.382  0.3389 -0.8313 -0.6422
   58MOL0     C 7718  12.713   6.688   9.420 -0.0682  0.1896  0.1984
   58MOL0     O 7719  12.703   6.549   9.417  0.3049 -0.9119 -0.3617
   58MOL0     C 7720  12.810   6.475   9.461 -0.4351  0.0308  0.7255
   58MOL0     C 7721  12.930   6.537   9.508  0.6723  0.2904 -0.7238
   58MOL0     C 7722  13.036   6.455   9.537 -0.2452 -0.2437  0.0786
   58MOL0     C 7723  13.033   6.318   9.530  0.1032  0.1066  0.1007
   58MOL0     C 7724  13.152   6.234   9.573  0.1843 -0.6471 -0.3400
   58MOL0     O 7725  13.273   6.295   9.600  0.0269  0.3242 -0.3788
   58MOL0     C 7726  13.370   6.210   9.652 -0.4335 -0.7186 -0.2088
   58MOL0     C 7727  13.492   6.199   9.587  0.3110 -1.0078 -0.7123
   58MOL0     C 7728  13.584   6.104   9.633 -0.1444  0.5584  0.1427
   58MOL0     C 7729  13.558   6.026   9.744 -0.4492  0.0310 -0.0305
   58MOL0     O 7730  13.644   5.927   9.787  0.2285 -0.3512 -0.2257
   58MOL0     C 7731  13.775   5.908   9.739 -0.1321 -0.5400  0.2517
   58MOL0     C 7732  13.861   5.817   9.823 -0.3926 -0.0447 -1.0166
   58MOL0     C 7733  14.006   5.800   9.766  0.2441 -0.7969 -0.5366
   58MOL0     C 7734  14.108   5.889   9.838  0.1219  0.0436  0.3553
   58MOL0     C 7735  14.242   5.860   9.780 -0.7938 -0.1173  0.4234
   58MOL0     C 7736  14.360   5.910   9.859 -0.0269  0.9398 -0.3010
   58MOL0     C 7737  14.487   5.909   9.780 -1.2367 -0.9123  0.2354
   58MOL0     C 7738  14.580   6.027   9.828  0.0228 -0.7975 -0.0285
   58MOL0    Cl 7739  14.609   6.018  10.001 -0.0455 -0.8705 -0.0582
   58MOL0     C 7740  13.437   6.045   9.810 -0.7415 -0.4707 -0.1315
   58MOL0     C 7741  13.343   6.130   9.763  0.3055  0.0408  0.1071
   58MOL0     O 7742  13.125   6.113   9.579 -0.1859 -0.4002  0.4803
   58MOL0     C 7743  12.913   6.257   9.478  0.3017  0.8340 -0.0410
   58MOL0     C 7744  12.802   6.336   9.450  0.5275  0.0104  1.0671
   58MOL0     N 7745  12.317   6.748   9.751 -0.0679 -0.1996 -0.7774
   58MOL0     N 7746  12.235   6.804   9.841 -0.6493  0.4683 -0.0304
   58MOL0     C 7747  11.359   6.529   9.268  0.2878 -0.2783 -0.0597
   58MOL0     C 7748  11.298   6.494   9.149 -0.7674  0.6568  0.2339
   58MOL0     C 7749  11.107   6.504   8.772  0.6585 -0.6803  0.1881
   58MOL0     C 7750  11.173   6.433   8.669 -0.5852 -1.0642  0.1658
   58MOL0     C 7751  11.112   6.375   8.557  0.3607  0.4864  0.5504
   58MOL0     C 7752  10.970   6.394   8.542 -0.5870  0.1711 -0.0293
   58MOL0     O 7753  10.919   6.338   8.428 -0.1978  0.7362  0.5516
   58MOL0     C 7754  10.786   6.368   8.391 -0.1391  0.0945  0.1613
   58MOL0     C 7755  10.755   6.335   8.244 -0.2719 -0.1032 -0.2676
   58MOL0     C 7756  10.788   6.187   8.180 -0.4426 -0.2196  0.2250
   58MOL0     C 7757  10.697   6.073   8.218  0.2426 -0.2585  1.0411
   58MOL0     C 7758  10.694   6.053   8.359  0.6448  0.5755 -0.0110
   58MOL0     C 7759  10.697   6.040   8.478 -0.2031  0.1461 -0.4793
   58MOL0     C 7760  10.909   6.469   8.636  0.2733 -1.3040  0.1917
   58MOL0     C 7761  10.973   6.529   8.748  0.6200 -0.7327  0.7345
   58MOL0     C 7762  10.887   6.603   8.849 -0.8448 -0.3902 -0.0584
   58MOL0     H 7763  11.541   6.579   8.931  1.2651  2.1707  0.7228
   58MOL0     H 7764  11.672   6.614   9.151  1.0525 -3.8761  0.5866
   58MOL0     H 7765  11.529   6.398   9.424 -1.2590 -0.0812  1.7553
   58MOL0     H 7766  11.662   6.472   9.518 -0.2380 -0.3616 -0.2127
   58MOL0     H 7767  11.479   6.447   9.668  0.4131 -0.3585 -0.6274
   58MOL0     H 7768  11.375   6.526   9.563  0.7326 -1.6828 -0.8954
   58MOL0     H 7769  11.465   6.678   9.748 -3.4649 -2.0677 -1.7423
   58MOL0     H 7770  11.513   6.744   9.584 -0.8706 -0.6331 -0.6503
   58MOL0     H 7771  11.706   6.591   9.775  3.6520  1.4967  1.3950
   58MOL0     H 7772  11.745   6.636   9.619  1.6699  0.5521  1.5629
   58MOL0     H 7773  11.698   6.881   9.668  2.6612 -1.8064 -2.7500
   58MOL0     H 7774  11.655   6.848   9.835 -3.0261 -2.3275  0.4361
   58MOL0     H 7775  11.886   6.762   9.864  0.8205  1.2031 -0.4432
   58MOL0     H 7776  11.909   6.754   9.694 -0.9735 -0.0075 -0.8967
   58MOL0     H 7777  11.849   7.019   9.846 -1.4859 -1.7756  1.1386
   58MOL0     H 7778  11.916   6.996   9.680 -1.0250  0.4281 -0.1583
   58MOL0     H 7779  12.077   7.079   9.811  1.1874 -0.1047  1.0203
   58MOL0     H 7780  12.057   6.959   9.945 -2.3018 -2.9429  0.5435
   58MOL0     H 7781  12.111   6.910   9.555  2.4483  0.8319 -2.4024
   58MOL0     H 7782  12.269   6.671   9.448 -1.5702 -0.5292  0.4839
   58MOL0     H 7783  12.327   6.841   9.430  2.0272 -0.8068 -1.1112
   58MOL0     H 7784  12.524   6.770   9.588 -1.0223 -1.0605  1.5217
   58MOL0     H 7785  12.483   6.606   9.530  2.2139 -0.1980  0.7568
   58MOL0     H 7786  12.580   6.842   9.363  2.9760  0.0233  3.6101
   58MOL0     H 7787  12.539   6.677   9.296 -0.6482  0.2068 -0.9530
   58MOL0     H 7788  12.729   6.742   9.514 -1.4147  0.5045  0.2631
   58MOL0     H 7789  12.778   6.721   9.338 -1.2263 -2.6971 -2.0688
   58MOL0     H 7790  12.947   6.643   9.522  0.0643  0.5562 -1.9021
   58MOL0     H 7791  13.126   6.501   9.575  1.9508 -3.4146 -0.8468
   58MOL0     H 7792  13.506   6.263   9.500 -0.5285 -0.1140 -0.2068
   58MOL0     H 7793  13.676   6.104   9.575 -1.0771  1.9976 -1.4029
   58MOL0     H 7794  13.776   5.871   9.636 -0.9063 -0.4956  0.2151
   58MOL0     H 7795  13.820   6.007   9.742  0.9585 -0.7304 -3.9733
   58MOL0     H 7796  13.862   5.858   9.925  1.1838  0.1872 -1.0976
   58MOL0     H 7797  13.820   5.715   9.832  0.5143 -0.2516  2.2663
   58MOL0     H 7798  14.034   5.697   9.787  0.7957 -0.1371  2.4313
   58MOL0     H 7799  14.008   5.819   9.658  2.0713 -1.2837 -0.6115
   58MOL0     H 7800  14.108   5.877   9.947 -0.2954  1.0689  0.4817
   58MOL0     H 7801  14.074   5.990   9.814 -1.5462 -0.6758 -0.4338
   58MOL0     H 7802  14.248   5.900   9.678  0.4714  1.5354  1.0845
   58MOL0     H 7803  14.262   5.755   9.760  0.3091  0.6255 -3.1865
   58MOL0     H 7804  14.333   6.010   9.895  2.3694  2.3386 -2.0331
   58MOL0     H 7805  14.368   5.852   9.951 -3.6469 -1.4323 -1.2977
   58MOL0     H 7806  14.463   5.942   9.678 -0.0588  1.2175  0.5875
   58MOL0     H 7807  14.539   5.814   9.780  1.5815  0.5041 -1.2257
   58MOL0     H 7808  14.673   6.007   9.774  0.0849 -2.9462  0.7524
   58MOL0     H 7809  14.549   6.129   9.806 -0.0594 -0.5552  1.1187
   58MOL0     H 7810  13.418   5.984   9.897  1.4142  0.2416  0.8948
   58MOL0     H 7811  13.253   6.141   9.821 -0.3406  2.0428 -1.1747
   58MOL0     H 7812  12.920   6.149   9.475 -0.9578  0.7000 -4.0205
   58MOL0     H 7813  12.707   6.291   9.421  1.0382 -0.2588 -0.2128
   58MOL0     H 7814  11.298   6.526   9.358 -3.6207  0.0630 -2.4850
   58MOL0     H 7815  11.194   6.465   9.140 -1.0973  1.4487  1.2900
   58MOL0     H 7816  11.279   6.410   8.663  0.3431  2.7691 -1.0503
   58MOL0     H 7817  11.177   6.325   8.486  0.8016 -0.9562  1.9041
   58MOL0     H 7818  10.776   6.475   8.407 -2.7004 -0.1210  0.3427
   58MOL0     H 7819  10.720   6.323   8.466  3.2981 -1.9976  2.2218
   58MOL0     H 7820  10.817   6.405   8.187 -1.6404  2.4552  1.1559
   58MOL0     H 7821  10.649   6.362   8.238 -0.0344  0.9327 -0.0263
   58MOL0     H 7822  10.893   6.163   8.199 -0.7125 -0.9792  0.8044
   58MOL0     H 7823  10.781   6.202   8.072  2.0707  0.2122  0.0704
   58MOL0     H 7824  10.593   6.090   8.188  0.3783 -1.0299  0.1246
   58MOL0     H 7825  10.737   5.986   8.165 -0.9163  1.1713 -2.5014
   58MOL0     H 7826  10.700   6.020   8.583  0.3612 -1.3751 -0.7538
   58MOL0     H 7827  10.802   6.485   8.626  0.4489  0.5885  0.9616
   58MOL0     H 7828  10.922   6.575   8.948 -1.1665 -0.2483  0.0987
   58MOL0     H 7829  10.901   6.711   8.839  1.0394 -0.2221  3.1662
   58MOL0     H 7830  10.780   6.581   8.855 -0.7828 -0.3963  1.3298
   59MOL0     O 7831  10.800   9.471   5.194  0.7761  0.8496 -0.4000
   59MOL0     C 7832  10.778   9.407   5.094 -0.0395  0.2713  0.0752
   59MOL0     O 7833  10.878   9.343   5.023  0.2489 -0.0271 -0.5847
   59MOL0     C 7834  11.008   9.388   5.050  0.3362  0.3187  0.1229
   59MOL0     C 7835  11.107   9.296   5.081  0.4394 -0.1376 -0.8146
   59MOL0     C 7836  11.241   9.330   5.110 -0.4381 -0.7935  0.5944
   59MOL0     C 7837  11.273   9.470   5.116 -0.6750  0.2230  0.3763
   59MOL0     O 7838  11.396   9.520   5.156  0.2991  0.8152  0.8970
   59MOL0     C 7839  11.509   9.440   5.205  0.3404 -0.0710  0.1593
   59MOL0     C 7840  11.605   9.530   5.277  0.2371  0.2606 -0.2341
   59MOL0     C 7841  11.721   9.443   5.337  0.1549  0.4210 -0.4708
   59MOL0     C 7842  11.813   9.529   5.423  0.5542 -0.3260 -0.3222
   59MOL0     C 7843  11.897   9.448   5.522 -1.2061  0.2974 -0.0377
   59MOL0     C 7844  11.987   9.547   5.600 -0.2409  0.0742 -0.3519
   59MOL0     C 7845  12.086   9.474   5.682  0.1605  0.1854 -0.0255
   59MOL0     C 7846  12.181   9.563   5.761  0.1457 -0.0134 -0.1989
   59MOL0     N 7847  12.284   9.627   5.680  0.2976 -0.1137 -0.3896
   59MOL0     C 7848  12.274   9.762   5.632 -1.1290  0.0584 -0.7618
   59MOL0     C 7849  12.389   9.781   5.564 -0.2580 -0.2719 -0.4085
   59MOL0     C 7850  12.443   9.900   5.485  0.3338 -0.0841  0.1527
   59MOL0     C 7851  12.449  10.035   5.550 -0.3153 -0.9710  0.0675
   59MOL0     C 7852  12.519  10.017   5.686 -0.0926  0.2415 -0.0490
   59MOL0     C 7853  12.530  10.141   5.764 -0.7570 -0.2626  0.2336
   59MOL0     O 7854  12.614  10.124   5.886 -0.2647  0.0347  0.0908
   59MOL0     C 7855  12.752  10.121   5.875 -0.1322  0.3817  0.7735
   59MOL0     C 7856  12.819  10.111   5.992  0.0670  0.8349  0.5280
   59MOL0     C 7857  12.959  10.073   6.000  0.3313  0.4074  0.1577
   59MOL0     C 7858  13.041  10.080   5.887  0.3288 -0.6448 -0.6573
   59MOL0     C 7859  13.192  10.072   5.893  0.9876  0.8026  0.2899
   59MOL0     O 7860  13.254  10.064   6.012  0.6082  0.5098 -0.4191
   59MOL0     C 7861  13.389  10.035   6.016  0.0062  0.3000  0.4151
   59MOL0     C 7862  13.495  10.131   6.007 -0.1328  0.2365  0.5924
   59MOL0     C 7863  13.626  10.100   6.046  0.1649 -0.1322  0.3047
   59MOL0     C 7864  13.662   9.970   6.087  0.5115  0.6464  0.1748
   59MOL0     O 7865  13.784   9.919   6.120  0.2185  0.3103 -0.4660
   59MOL0     C 7866  13.900   9.993   6.084  0.5054  1.0146 -0.1260
   59MOL0     C 7867  14.026   9.927   6.148  0.7995  0.5992 -0.3468
   59MOL0     C 7868  14.159  10.001   6.111 -0.3627 -0.4588  0.4487
   59MOL0     C 7869  14.293   9.955   6.172 -0.2704 -0.4409  0.1905
   59MOL0     C 7870  14.399  10.062   6.144  0.0846  0.1505  0.3483
   59MOL0     C 7871  14.538   9.992   6.119  0.0272 -0.2565 -0.3106
   59MOL0     C 7872  14.592   9.935   6.251 -0.5919  0.6882  0.1311
   59MOL0     C 7873  14.740   9.908   6.265  0.0192 -0.0234 -0.1344
   59MOL0    Cl 7874  14.840  10.052   6.242  0.1046 -0.3087  0.1858
   59MOL0     C 7875  13.558   9.873   6.090  0.7210 -0.3470 -0.6750
   59MOL0     C 7876  13.422   9.907   6.071  0.0189  0.3217  0.2612
   59MOL0     O 7877  13.245  10.069   5.787 -0.2448 -0.2462  0.6706
   59MOL0     C 7878  12.975  10.102   5.768  0.2947 -0.1165  0.2294
   59MOL0     C 7879  12.839  10.130   5.759 -0.2588  0.4651  0.3906
   59MOL0     N 7880  12.463   9.661   5.572  0.1728  0.1927  0.3729
   59MOL0     N 7881  12.402   9.571   5.640  0.5395 -0.2088 -0.8551
   59MOL0     C 7882  11.173   9.560   5.102 -0.2570 -0.1559  0.5777
   59MOL0     C 7883  11.044   9.526   5.061 -0.8259 -0.1129  0.4298
   59MOL0     C 7884  10.642   9.372   5.054  1.4162 -0.0588 -0.3902
   59MOL0     C 7885  10.613   9.230   5.050  0.3140  0.1438 -0.1857
   59MOL0     C 7886  10.484   9.177   5.025 -1.0541 -0.3958 -0.8283
   59MOL0     C 7887  10.380   9.267   5.002 -0.4374 -0.3800  0.0480
   59MOL0     O 7888  10.249   9.224   4.984 -0.4297 -0.0135 -0.1009
   59MOL0     C 7889  10.189   9.244   4.857 -0.9174 -0.3339 -0.8047
   59MOL0     C 7890  10.048   9.178   4.851  0.3710 -0.4752 -0.6189
   59MOL0     C 7891   9.994   9.204   4.714 -0.1664 -1.1715  0.1171
   59MOL0     C 7892   9.937   9.352   4.682 -0.4905  0.1040 -0.3051
   59MOL0     C 7893   9.917   9.373   4.541  0.5480 -0.2929  0.4838
   59MOL0     C 7894   9.894   9.371   4.426 -0.2525  0.2932  0.2671
   59MOL0     C 7895  10.409   9.402   5.001 -0.5862  0.1144 -0.4668
   59MOL0     C 7896  10.535   9.458   5.033 -0.5686  0.5566  0.0892
   59MOL0     C 7897  10.550   9.607   5.033  0.0713 -0.1193  0.6210
   59MOL0     H 7898  11.071   9.194   5.074 -2.7636  0.4628  3.1666
   59MOL0     H 7899  11.318   9.255   5.127  0.4655  0.1848  0.9341
   59MOL0     H 7900  11.474   9.371   5.283  3.0211 -1.0512  0.5736
   59MOL0     H 7901  11.551   9.385   5.120  0.3553 -0.1545  0.2206
   59MOL0     H 7902  11.549   9.581   5.356  0.1508 -1.1154  0.6402
   59MOL0     H 7903  11.642   9.608   5.210 -3.1732  3.2837  1.0444
   59MOL0     H 7904  11.781   9.402   5.255 -0.6573 -1.8056 -0.0163
   59MOL0     H 7905  11.690   9.359   5.400 -1.8340  3.2435  2.6466
   59MOL0     H 7906  11.864   9.602   5.359  0.9153 -1.9827 -2.0221
   59MOL0     H 7907  11.746   9.594   5.480 -0.1694 -0.3001 -1.1679
   59MOL0     H 7908  11.838   9.397   5.599  1.1510 -0.1974  1.5401
   59MOL0     H 7909  11.965   9.377   5.475 -0.7372  0.5639  0.2289
   59MOL0     H 7910  12.037   9.611   5.527  1.1785 -0.1077  0.4381
   59MOL0     H 7911  11.926   9.616   5.659 -0.1924  0.2055 -0.4553
   59MOL0     H 7912  12.147   9.428   5.604 -1.3191  0.3714 -1.3551
   59MOL0     H 7913  12.029   9.403   5.743 -1.6470 -0.6008 -2.4675
   59MOL0     H 7914  12.144   9.646   5.822 -0.3545  0.9403 -1.7639
   59MOL0     H 7915  12.234   9.494   5.828 -1.7749 -2.6812 -1.2817
   59MOL0     H 7916  12.189   9.825   5.655 -1.6052 -1.1648  1.0366
   59MOL0     H 7917  12.542   9.876   5.444  0.0845  0.3718 -0.7547
   59MOL0     H 7918  12.378   9.901   5.397  0.8338  1.2897 -0.2207
   59MOL0     H 7919  12.503  10.093   5.474  0.7136 -2.9173 -0.7677
   59MOL0     H 7920  12.350  10.077   5.571 -0.1189 -1.1706  1.4825
   59MOL0     H 7921  12.618   9.972   5.668 -1.1858 -3.1543  1.5556
   59MOL0     H 7922  12.469   9.940   5.745  3.6859 -1.4785  1.2558
   59MOL0     H 7923  12.430  10.167   5.800 -0.4379  0.7974  0.4069
   59MOL0     H 7924  12.572  10.220   5.701  0.8702 -1.0670  0.2689
   59MOL0     H 7925  12.763  10.123   6.084 -1.7937  0.0372 -0.4425
   59MOL0     H 7926  13.010  10.048   6.092  0.4017 -1.3505 -0.3326
   59MOL0     H 7927  13.470  10.235   5.986  1.2140  0.3506 -0.5716
   59MOL0     H 7928  13.704  10.176   6.040  0.7468 -0.6131  1.4248
   59MOL0     H 7929  13.919   9.972   5.978  0.8425 -1.8662  0.4202
   59MOL0     H 7930  13.903  10.096   6.119  1.4754 -0.0892  3.4990
   59MOL0     H 7931  14.003   9.944   6.253  3.0591  2.4445 -0.0625
   59MOL0     H 7932  14.036   9.822   6.119  4.2063  0.8405 -0.3873
   59MOL0     H 7933  14.175  10.005   6.003 -2.2980 -3.4350 -0.0563
   59MOL0     H 7934  14.151  10.105   6.146  1.1740  1.4072 -4.0555
   59MOL0     H 7935  14.323   9.855   6.139  1.6247  0.7752 -2.0720
   59MOL0     H 7936  14.285   9.949   6.281  3.3893 -1.2620  0.5456
   59MOL0     H 7937  14.402  10.125   6.233  1.3910  0.4205  0.1204
   59MOL0     H 7938  14.388  10.124   6.055  3.8596  1.0754  0.3679
   59MOL0     H 7939  14.532   9.906   6.051 -0.3131  0.3562 -1.0638
   59MOL0     H 7940  14.598  10.073   6.077 -1.5059  0.4752 -1.1618
   59MOL0     H 7941  14.538   9.840   6.260  0.5184 -0.3568 -2.9655
   59MOL0     H 7942  14.565  10.012   6.323 -2.6637  0.8854 -0.7900
   59MOL0     H 7943  14.763   9.868   6.364  3.7303 -0.9783 -1.2366
   59MOL0     H 7944  14.775   9.830   6.198 -0.0206  1.7928 -2.3960
   59MOL0     H 7945  13.586   9.774   6.126  1.0149 -0.4532 -1.1756
   59MOL0     H 7946  13.349   9.827   6.074  1.1034 -0.6738  0.9462
   59MOL0     H 7947  13.024  10.108   5.671  0.5498 -0.8341  0.3090
   59MOL0     H 7948  12.809  10.166   5.662  1.5221  3.3008  0.7749
   59MOL0     H 7949  11.192   9.667   5.110 -1.5739  0.0792  0.8950
   59MOL0     H 7950  10.977   9.607   5.036  1.4352  1.0798 -2.2459
   59MOL0     H 7951  10.688   9.154   5.073 -0.0218  0.1893  1.1699
   59MOL0     H 7952  10.478   9.069   5.016 -1.7015 -0.7846  2.8563
   59MOL0     H 7953  10.256   9.221   4.774 -2.1689  0.3516 -2.0440
   59MOL0     H 7954  10.178   9.352   4.841  0.1985 -0.1166 -0.2000
   59MOL0     H 7955   9.972   9.203   4.926 -2.3687 -2.0566 -2.6380
   59MOL0     H 7956  10.061   9.070   4.856 -1.3398 -0.6828  0.2359
   59MOL0     H 7957   9.912   9.133   4.700 -4.2650  3.4830 -3.2842
   59MOL0     H 7958  10.059   9.183   4.629 -1.0905  0.4183 -1.0410
   59MOL0     H 7959   9.844   9.352   4.739 -0.1019  0.3340  0.3433
   59MOL0     H 7960  10.008   9.426   4.722  0.6596 -1.1762  0.1000
   59MOL0     H 7961   9.864   9.352   4.324 -0.0011 -1.1751  0.4339
   59MOL0     H 7962  10.330   9.471   4.973 -1.8634 -1.0646  0.1258
   59MOL0     H 7963  10.458   9.662   5.010  0.0640 -1.0088 -1.7644
   59MOL0     H 7964  10.591   9.650   5.125 -0.3682 -1.9155  1.6980
   59MOL0     H 7965  10.621   9.632   4.953 -0.5829  1.3841  0.4802
   60MOL0     O 7966   0.488   4.135   8.079 -0.5716  0.0096  0.0993
   60MOL0     C 7967   0.461   4.239   8.125  0.0022 -0.0724  0.5255
   60MOL0     O 7968   0.552   4.346   8.154  0.3572 -0.5398  0.1208
   60MOL0     C 7969   0.677   4.338   8.209 -0.8482 -0.3003 -0.1087
   60MOL0     C 7970   0.764   4.447   8.207 -0.0269  0.2750 -0.6507
   60MOL0     C 7971   0.885   4.447   8.270 -0.3349 -0.0667  0.2111
   60MOL0     C 7972   0.948   4.338   8.324 -0.7629  0.7652 -0.9965
   60MOL0     O 7973   1.070   4.342   8.396  0.6913 -1.2796  0.4681
   60MOL0     C 7974   1.077   4.268   8.512 -0.2900  1.1478  0.6192
   60MOL0     C 7975   1.199   4.290   8.600 -0.7584  0.0551  0.1900
   60MOL0     C 7976   1.336   4.247   8.523  0.7459 -0.8573 -1.1952
   60MOL0     C 7977   1.445   4.200   8.632 -0.0081 -0.2133  0.2943
   60MOL0     C 7978   1.592   4.168   8.585 -0.2561  0.5626 -0.3230
   60MOL0     C 7979   1.689   4.170   8.707  0.6743 -0.3083  0.2453
   60MOL0     C 7980   1.840   4.173   8.660 -0.4631  0.0551 -0.6896
   60MOL0     C 7981   1.901   4.037   8.619  0.2243 -1.0524  1.1734
   60MOL0     N 7982   2.038   4.036   8.564 -0.1276 -0.0752 -0.3650
   60MOL0     C 7983   2.082   4.095   8.447  0.3477 -1.1403  0.8205
   60MOL0     C 7984   2.213   4.094   8.454 -0.0701 -0.6204 -0.5645
   60MOL0     C 7985   2.306   4.165   8.362 -0.6151  0.5326 -0.9937
   60MOL0     C 7986   2.424   4.233   8.436  0.7363 -0.4810 -1.1910
   60MOL0     C 7987   2.498   4.340   8.347 -0.4721 -0.1441  0.4238
   60MOL0     C 7988   2.606   4.409   8.435 -0.1425 -0.4300 -0.3740
   60MOL0     O 7989   2.700   4.321   8.495 -0.5695 -0.3305  0.1093
   60MOL0     C 7990   2.804   4.275   8.418 -0.3083 -0.1794  0.1711
   60MOL0     C 7991   2.822   4.297   8.277  0.6081  0.8151 -1.0218
   60MOL0     C 7992   2.934   4.242   8.219 -0.0736 -0.0823 -0.2496
   60MOL0     C 7993   3.031   4.174   8.289 -0.3623 -0.2398 -0.2952
   60MOL0     C 7994   3.163   4.142   8.229  0.6748  0.4827 -0.4007
   60MOL0     O 7995   3.260   4.128   8.324 -0.3202 -0.5839 -0.6297
   60MOL0     C 7996   3.376   4.059   8.296  0.4287 -0.6293  0.0912
   60MOL0     C 7997   3.370   3.929   8.260 -0.4762  0.6990 -0.9851
   60MOL0     C 7998   3.487   3.853   8.231 -0.2258 -1.3576  0.5206
   60MOL0     C 7999   3.615   3.908   8.244  0.0046 -0.0602 -0.3351
   60MOL0     O 8000   3.727   3.829   8.210  0.2737  0.1337  0.4635
   60MOL0     C 8001   3.853   3.890   8.208  0.4377  0.3915  0.1258
   60MOL0     C 8002   3.960   3.806   8.130  0.6908 -0.6549  0.5093
   60MOL0     C 8003   4.098   3.847   8.163  0.0157 -0.8157  0.5237
   60MOL0     C 8004   4.158   3.962   8.094 -0.0193 -0.3970 -1.1425
   60MOL0     C 8005   4.298   3.988   8.134 -0.7393 -0.1552  0.0012
   60MOL0     C 8006   4.368   4.090   8.040 -0.1146 -0.2955 -0.0075
   60MOL0     C 8007   4.507   4.123   8.107 -0.2683  0.8801 -0.0761
   60MOL0     C 8008   4.578   4.237   8.033  0.2835 -0.1254  0.2059
   60MOL0    Cl 8009   4.743   4.256   8.110 -0.3529 -0.1037 -0.5731
   60MOL0     C 8010   3.621   4.041   8.294 -0.2618  0.6339  0.2420
   60MOL0     C 8011   3.505   4.116   8.326 -0.1951 -0.0057 -0.1345
   60MOL0     O 8012   3.181   4.124   8.109 -0.4135 -0.6930 -0.0553
   60MOL0     C 8013   3.009   4.147   8.428  0.4487 -1.6727  0.4141
   60MOL0     C 8014   2.891   4.197   8.489 -0.0390  0.5597 -0.0123
   60MOL0     N 8015   2.250   4.034   8.569 -0.4770  0.2306  0.0825
   60MOL0     N 8016   2.147   3.993   8.628 -0.2856  0.1789 -0.0920
   60MOL0     C 8017   0.870   4.218   8.306 -0.3218  0.5326  1.0111
   60MOL0     C 8018   0.741   4.223   8.257  0.2340  1.0601 -0.9355
   60MOL0     C 8019   0.305   4.251   8.134 -0.1243 -0.3500  0.7207
   60MOL0     C 8020   0.224   4.144   8.091 -0.9164 -0.5437  0.1704
   60MOL0     C 8021   0.085   4.140   8.118  0.7444 -0.5820 -0.3278
   60MOL0     C 8022   0.030   4.246   8.171  0.1231 -0.0926 -0.1363
   60MOL0     O 8023  -0.101   4.228   8.195  0.3134 -0.8338  0.0638
   60MOL0     C 8024  -0.160   4.303   8.303  0.8812 -0.5199 -0.2444
   60MOL0     C 8025  -0.290   4.231   8.344  0.1289  0.0561 -0.4363
   60MOL0     C 8026  -0.352   4.307   8.459 -0.4657 -0.1139 -0.0625
   60MOL0     C 8027  -0.493   4.267   8.489  1.0460 -0.0367  0.4481
   60MOL0     C 8028  -0.545   4.311   8.612 -0.3991  0.8373  0.3231
   60MOL0     C 8029  -0.590   4.355   8.708  0.1116 -0.9211 -0.5638
   60MOL0     C 8030   0.109   4.360   8.214  0.1119 -0.0675  0.4451
   60MOL0     C 8031   0.244   4.360   8.193  0.0769 -0.5268  0.1220
   60MOL0     C 8032   0.314   4.475   8.242  0.0057 -0.2958  0.0945
   60MOL0     H 8033   0.728   4.529   8.146  1.0315  0.2969 -1.2578
   60MOL0     H 8034   0.934   4.543   8.266  1.0146 -0.6451  1.7332
   60MOL0     H 8035   0.992   4.300   8.572 -2.1236  0.6776 -1.6013
   60MOL0     H 8036   1.071   4.160   8.496 -1.9376  1.6112 -2.6176
   60MOL0     H 8037   1.193   4.241   8.698  1.1332 -0.2417  0.1876
   60MOL0     H 8038   1.214   4.397   8.621  0.6671 -0.5047  2.4140
   60MOL0     H 8039   1.362   4.340   8.470  0.5405  0.1606  0.4215
   60MOL0     H 8040   1.321   4.164   8.454  0.0527 -0.5559 -1.4144
   60MOL0     H 8041   1.455   4.286   8.699  2.3235  1.3197 -1.8705
   60MOL0     H 8042   1.417   4.114   8.694  0.5687  0.1463  1.0797
   60MOL0     H 8043   1.589   4.086   8.513 -0.2291  0.6035 -0.3710
   60MOL0     H 8044   1.631   4.254   8.529 -0.4166  2.5130  2.3743
   60MOL0     H 8045   1.676   4.265   8.758 -0.6291 -1.2484  1.7625
   60MOL0     H 8046   1.681   4.088   8.779 -2.7198 -0.7514 -0.4836
   60MOL0     H 8047   1.901   4.212   8.742 -0.6043  0.2233 -0.6625
   60MOL0     H 8048   1.848   4.244   8.576  0.0043  0.6095 -0.1815
   60MOL0     H 8049   1.892   3.976   8.710 -1.7382 -1.2491  0.8846
   60MOL0     H 8050   1.826   3.991   8.554 -2.0776  1.4110  1.9185
   60MOL0     H 8051   2.009   4.142   8.383 -3.2027 -3.7317  2.6208
   60MOL0     H 8052   2.332   4.087   8.289 -1.9018 -2.2137  1.2490
   60MOL0     H 8053   2.260   4.249   8.310 -0.5363  0.2503 -1.5210
   60MOL0     H 8054   2.395   4.263   8.537  2.1900  1.3561 -1.2577
   60MOL0     H 8055   2.495   4.154   8.465  0.9780  1.1160  3.4437
   60MOL0     H 8056   2.428   4.418   8.313  1.0376  2.3984  2.7523
   60MOL0     H 8057   2.548   4.298   8.259 -1.2916 -0.4548  0.0910
   60MOL0     H 8058   2.554   4.473   8.507 -0.4458  1.8954 -2.5257
   60MOL0     H 8059   2.664   4.480   8.375 -1.3357  1.7504  0.9233
   60MOL0     H 8060   2.758   4.359   8.215 -0.2640 -0.1671 -1.1260
   60MOL0     H 8061   2.951   4.253   8.112 -2.0814  0.1698 -0.5748
   60MOL0     H 8062   3.282   3.866   8.259  0.3690 -0.5238 -1.1185
   60MOL0     H 8063   3.487   3.751   8.196  1.2743 -0.3318 -2.9485
   60MOL0     H 8064   3.862   3.988   8.161  2.0573  0.3912  0.3844
   60MOL0     H 8065   3.891   3.903   8.310 -1.0594 -0.4234  0.8282
   60MOL0     H 8066   3.945   3.702   8.162 -2.0344 -1.4139 -2.7021
   60MOL0     H 8067   3.942   3.815   8.023  2.0467  1.9554  0.4236
   60MOL0     H 8068   4.105   3.862   8.271 -0.6947 -0.6382  0.5504
   60MOL0     H 8069   4.160   3.761   8.135 -0.6924 -0.9200 -0.8023
   60MOL0     H 8070   4.087   4.043   8.113  0.4022 -0.3876  0.6399
   60MOL0     H 8071   4.156   3.942   7.987 -2.4656 -3.2576 -0.6825
   60MOL0     H 8072   4.359   3.897   8.136 -0.5555 -0.0086  1.2259
   60MOL0     H 8073   4.300   4.045   8.227  2.9402 -0.3624  0.1736
   60MOL0     H 8074   4.384   4.044   7.942  6.0560 -0.6316  0.7228
   60MOL0     H 8075   4.305   4.178   8.027  2.2373  1.5658  0.3604
   60MOL0     H 8076   4.572   4.037   8.092 -0.3144  0.9469 -0.7240
   60MOL0     H 8077   4.498   4.135   8.215  1.9923 -3.1714  0.7459
   60MOL0     H 8078   4.590   4.217   7.926 -3.4860  0.5608 -0.4891
   60MOL0     H 8079   4.509   4.322   8.041  0.2600 -0.2713  1.7474
   60MOL0     H 8080   3.717   4.086   8.317  0.3809  0.6809 -2.2494
   60MOL0     H 8081   3.500   4.221   8.352 -1.3560  1.1167 -4.1551
   60MOL0     H 8082   3.083   4.093   8.487  1.5059 -1.2837 -0.5080
   60MOL0     H 8083   2.874   4.171   8.594  1.2382  2.3119  0.6708
   60MOL0     H 8084   0.899   4.115   8.324  0.3454  0.2809 -1.1570
   60MOL0     H 8085   0.676   4.137   8.245 -1.5193  1.6048  3.1074
   60MOL0     H 8086   0.271   4.058   8.044 -1.3711 -0.4842 -0.3883
   60MOL0     H 8087   0.023   4.057   8.086 -1.5350  1.5546 -1.9374
   60MOL0     H 8088  -0.169   4.411   8.283  3.2494  0.0561  1.3692
   60MOL0     H 8089  -0.092   4.285   8.388 -0.3563 -1.6021  0.5490
   60MOL0     H 8090  -0.276   4.129   8.379 -0.0271 -0.0252 -0.6096
   60MOL0     H 8091  -0.370   4.246   8.271 -2.9037 -0.3881  2.5626
   60MOL0     H 8092  -0.350   4.416   8.446 -2.0086  0.0314  0.7103
   60MOL0     H 8093  -0.285   4.288   8.543  1.0720 -1.7900 -1.5825
   60MOL0     H 8094  -0.558   4.306   8.410 -0.3862 -0.0075  1.5706
   60MOL0     H 8095  -0.496   4.158   8.488  0.2919 -0.1228  3.2602
   60MOL0     H 8096  -0.632   4.404   8.793 -0.7258  0.9988 -2.0031
   60MOL0     H 8097   0.059   4.437   8.272 -3.1787 -0.8738 -1.1140
   60MOL0     H 8098   0.376   4.461   8.331 -0.9217 -3.0709  0.3831
   60MOL0     H 8099   0.384   4.512   8.166  1.0793 -3.3015 -0.4901
   60MOL0     H 8100   0.256   4.566   8.263 -0.4434 -0.4750 -0.3663
   61MOL0     O 8101  11.022   5.479   2.247 -0.5641  0.0839  0.0690
   61MOL0     C 8102  10.961   5.372   2.246 -0.3184 -0.0527 -0.5523
   61MOL0     O 8103  11.012   5.247   2.224 -0.2323  0.6967  0.9273
   61MOL0     C 8104  11.144   5.228   2.191 -0.7798 -0.3165  0.1800
   61MOL0     C 8105  11.253   5.295   2.253 -0.0698  0.7084 -0.7169
   61MOL0     C 8106  11.387   5.277   2.205  0.0454 -0.7684 -0.4317
   61MOL0     C 8107  11.406   5.188   2.097 -0.4286 -0.2119  0.5173
   61MOL0     O 8108  11.521   5.159   2.028 -0.6526  1.1773 -0.1648
   61MOL0     C 8109  11.632   5.247   2.051  1.0639  0.5774  0.2548
   61MOL0     C 8110  11.751   5.209   1.959  0.6595  0.0527 -0.5692
   61MOL0     C 8111  11.874   5.308   1.975  0.8082  0.3892 -0.8097
   61MOL0     C 8112  11.836   5.447   1.913 -0.1504 -1.1832 -0.1204
   61MOL0     C 8113  11.929   5.561   1.965 -1.0322  0.4240 -0.0927
   61MOL0     C 8114  11.869   5.693   1.927  0.3345 -0.3405 -0.2922
   61MOL0     C 8115  11.956   5.812   1.984  0.3932 -0.1657  0.0680
   61MOL0     C 8116  11.931   5.938   1.905 -0.3960  0.1066  0.1266
   61MOL0     N 8117  11.984   6.057   1.968 -1.5573  0.5283 -0.1720
   61MOL0     C 8118  11.924   6.113   2.074  0.3287 -0.1876 -0.1574
   61MOL0     C 8119  12.007   6.200   2.144  0.3636  0.2340  0.1809
   61MOL0     C 8120  11.974   6.285   2.263 -0.9942 -0.0663 -0.5039
   61MOL0     C 8121  12.083   6.397   2.275  1.0032 -0.1689  0.9277
   61MOL0     C 8122  12.050   6.502   2.381 -0.5043 -0.1251 -0.5378
   61MOL0     C 8123  12.176   6.572   2.442  0.5910 -0.1334 -0.3647
   61MOL0     O 8124  12.238   6.642   2.335 -0.5151  0.1927  0.3418
   61MOL0     C 8125  12.353   6.710   2.361 -0.4659 -0.3604 -0.3539
   61MOL0     C 8126  12.429   6.750   2.250 -0.3610 -0.4279  0.6684
   61MOL0     C 8127  12.562   6.794   2.263 -0.1577  0.8671 -0.1037
   61MOL0     C 8128  12.637   6.789   2.381 -0.5866  0.7380  0.5226
   61MOL0     C 8129  12.779   6.816   2.382 -0.5497 -0.3245 -0.0578
   61MOL0     O 8130  12.851   6.793   2.495  0.5244 -0.3519 -0.0691
   61MOL0     C 8131  12.983   6.746   2.482 -0.4869  0.0803 -0.0053
   61MOL0     C 8132  13.089   6.794   2.568  0.5295  0.1202  0.2052
   61MOL0     C 8133  13.210   6.742   2.545  0.1168 -0.0762 -0.0686
   61MOL0     C 8134  13.251   6.633   2.459  1.1207 -0.7911 -0.3109
   61MOL0     O 8135  13.375   6.591   2.449 -0.5120 -0.5082 -0.8874
   61MOL0     C 8136  13.474   6.628   2.546  0.0549  0.2738  0.1088
   61MOL0     C 8137  13.593   6.565   2.484 -0.3882 -0.7855  0.6294
   61MOL0     C 8138  13.715   6.561   2.582  0.2372  0.3503  0.3725
   61MOL0     C 8139  13.757   6.704   2.630 -0.1592 -0.5217  0.1195
   61MOL0     C 8140  13.850   6.696   2.750  0.6092  0.1531 -0.7706
   61MOL0     C 8141  13.999   6.663   2.716 -0.3964 -0.7525 -0.1566
   61MOL0     C 8142  14.103   6.777   2.748  0.5038  0.2582 -0.1705
   61MOL0     C 8143  14.099   6.806   2.900 -0.5523  0.2297 -0.3770
   61MOL0    Cl 8144  14.224   6.937   2.944  0.2423 -0.4545  0.2302
   61MOL0     C 8145  13.149   6.580   2.379 -0.1929  0.5655  0.3072
   61MOL0     C 8146  13.020   6.637   2.387 -0.5538 -0.0606 -0.9792
   61MOL0     O 8147  12.833   6.847   2.277  0.1755 -0.0172 -0.6116
   61MOL0     C 8148  12.557   6.763   2.500 -0.6607  0.4476  0.6437
   61MOL0     C 8149  12.425   6.720   2.484 -0.3130 -0.2064 -0.1822
   61MOL0     N 8150  12.125   6.188   2.077 -0.4723 -0.3180  0.0411
   61MOL0     N 8151  12.112   6.101   1.975 -0.2561 -0.1178 -0.0390
   61MOL0     C 8152  11.299   5.121   2.049 -0.7808  0.5543  0.1286
   61MOL0     C 8153  11.173   5.131   2.090  0.1725 -0.5248 -0.3594
   61MOL0     C 8154  10.818   5.377   2.294  0.0520  0.3899  0.2554
   61MOL0     C 8155  10.774   5.273   2.376  0.3852  0.4498 -0.3338
   61MOL0     C 8156  10.645   5.270   2.421 -0.2114  0.3040  0.2836
   61MOL0     C 8157  10.557   5.372   2.378 -0.4872 -0.4828  0.9121
   61MOL0     O 8158  10.421   5.373   2.411  0.2248 -0.4824  0.0732
   61MOL0     C 8159  10.365   5.270   2.492  0.5346  0.6815  0.8036
   61MOL0     C 8160  10.238   5.319   2.556 -0.1124  0.7447  0.7428
   61MOL0     C 8161  10.124   5.353   2.464  0.5906  0.8659 -0.6460
   61MOL0     C 8162  10.004   5.423   2.531  0.4304  0.8657  0.4234
   61MOL0     C 8163   9.958   5.333   2.635 -0.2131 -1.4201 -0.4209
   61MOL0     C 8164   9.902   5.270   2.725 -1.0539  0.8230 -0.7871
   61MOL0     C 8165  10.596   5.482   2.308 -0.4513 -0.4481  0.4109
   61MOL0     C 8166  10.726   5.485   2.264  0.5325  0.2454 -0.0739
   61MOL0     C 8167  10.770   5.609   2.198  0.0991 -0.1223  0.2000
   61MOL0     H 8168  11.221   5.365   2.329 -1.6005  0.7670 -1.3719
   61MOL0     H 8169  11.479   5.306   2.255  1.1660 -1.8732 -1.7746
   61MOL0     H 8170  11.598   5.348   2.025  1.6837 -0.0552 -3.6699
   61MOL0     H 8171  11.657   5.248   2.157 -3.6138 -1.2241  1.6212
   61MOL0     H 8172  11.709   5.208   1.858 -1.7771  0.0840  0.3724
   61MOL0     H 8173  11.785   5.107   1.978  0.3076 -0.6263 -3.2354
   61MOL0     H 8174  11.967   5.275   1.928 -0.4134 -2.1831 -1.5850
   61MOL0     H 8175  11.882   5.339   2.080 -0.9464  1.2529 -0.8854
   61MOL0     H 8176  11.837   5.441   1.804  0.8817  0.4878 -0.2388
   61MOL0     H 8177  11.737   5.484   1.939  1.5216  3.3166  0.6534
   61MOL0     H 8178  11.936   5.553   2.074  1.2437 -0.3703 -0.2579
   61MOL0     H 8179  12.028   5.541   1.925 -0.0951  0.7170  1.9532
   61MOL0     H 8180  11.869   5.695   1.818  3.5805  0.1447 -0.3868
   61MOL0     H 8181  11.767   5.704   1.965  0.0020 -2.4748 -0.4465
   61MOL0     H 8182  12.057   5.775   1.966  0.8635 -0.1773  2.3920
   61MOL0     H 8183  11.930   5.823   2.090 -1.1406  0.3183 -0.3243
   61MOL0     H 8184  11.979   5.936   1.807  2.3323  1.4973  1.3090
   61MOL0     H 8185  11.822   5.944   1.895 -1.0324 -4.3805  2.1001
   61MOL0     H 8186  11.826   6.082   2.110  0.5309 -2.4150 -1.4121
   61MOL0     H 8187  11.878   6.336   2.247 -1.9630 -1.5999  0.2223
   61MOL0     H 8188  11.951   6.232   2.356  1.5396 -0.4544 -0.0173
   61MOL0     H 8189  12.186   6.363   2.286  0.4340 -3.7569 -2.3660
   61MOL0     H 8190  12.079   6.456   2.183 -0.8786 -0.0639  1.0335
   61MOL0     H 8191  12.004   6.457   2.469 -0.2249  2.1182  0.8310
   61MOL0     H 8192  11.976   6.567   2.333 -2.0549 -0.9611  0.6475
   61MOL0     H 8193  12.246   6.506   2.494  2.0155  2.0171  0.5900
   61MOL0     H 8194  12.137   6.643   2.515 -2.1745 -0.5575 -1.3015
   61MOL0     H 8195  12.375   6.743   2.156 -2.3641  0.8377  1.6483
   61MOL0     H 8196  12.617   6.830   2.177  0.7558 -1.3719 -0.5442
   61MOL0     H 8197  13.071   6.876   2.637  1.7984 -1.1361  2.1282
   61MOL0     H 8198  13.284   6.784   2.613 -1.2163 -1.6614  2.5155
   61MOL0     H 8199  13.480   6.737   2.549 -0.5144  0.3033  3.3520
   61MOL0     H 8200  13.451   6.594   2.647 -1.9610 -0.1098 -0.4292
   61MOL0     H 8201  13.570   6.465   2.446  3.7938 -1.8288  0.3894
   61MOL0     H 8202  13.627   6.622   2.396  3.1862 -3.4180  0.0713
   61MOL0     H 8203  13.686   6.505   2.671 -1.5282  1.1254  0.3268
   61MOL0     H 8204  13.789   6.507   2.522 -3.5632 -1.8266 -2.7798
   61MOL0     H 8205  13.669   6.764   2.654  0.7178  1.5644 -1.5308
   61MOL0     H 8206  13.806   6.762   2.551 -0.2940 -1.6649 -0.8364
   61MOL0     H 8207  13.811   6.618   2.816  1.5536  0.3472  0.0509
   61MOL0     H 8208  13.848   6.793   2.801 -1.3998 -0.4041  0.3082
   61MOL0     H 8209  14.028   6.580   2.781  0.1260 -0.0816  0.4976
   61MOL0     H 8210  14.004   6.624   2.614 -0.1279 -2.8147  0.5953
   61MOL0     H 8211  14.062   6.864   2.695 -0.8814  0.5277  1.2663
   61MOL0     H 8212  14.203   6.751   2.710  0.8503  0.2351  0.7480
   61MOL0     H 8213  14.000   6.842   2.931  0.2860 -0.2847  3.5079
   61MOL0     H 8214  14.132   6.717   2.954  0.1489  1.2383  0.9479
   61MOL0     H 8215  13.178   6.507   2.304  2.6051  0.1186  1.6656
   61MOL0     H 8216  12.944   6.603   2.317 -0.5170 -3.4935  0.4500
   61MOL0     H 8217  12.595   6.769   2.602  0.7111 -1.3400  0.3088
   61MOL0     H 8218  12.378   6.702   2.580  2.2379 -0.7555  1.0261
   61MOL0     H 8219  11.305   5.059   1.961  1.0330  2.5388 -1.2359
   61MOL0     H 8220  11.089   5.082   2.041 -0.4282  1.1359 -1.0981
   61MOL0     H 8221  10.844   5.198   2.413  0.1593  0.7710  0.7717
   61MOL0     H 8222  10.615   5.192   2.491 -0.3496  1.7099  1.8593
   61MOL0     H 8223  10.438   5.240   2.567  1.8177  3.0520  0.6006
   61MOL0     H 8224  10.346   5.185   2.426  0.7683  0.5042  0.9646
   61MOL0     H 8225  10.253   5.407   2.618  1.5132  0.2511  1.0917
   61MOL0     H 8226  10.193   5.243   2.621  0.3269  0.7522  1.0588
   61MOL0     H 8227  10.092   5.259   2.417 -1.6822  1.2455  0.0491
   61MOL0     H 8228  10.162   5.426   2.391  0.6367  0.4413 -1.0526
   61MOL0     H 8229  10.037   5.518   2.574 -1.6932  0.3097  3.6325
   61MOL0     H 8230   9.937   5.439   2.445  1.0943  3.0196  0.2324
   61MOL0     H 8231   9.867   5.235   2.820  1.4271  0.0686 -0.0740
   61MOL0     H 8232  10.525   5.561   2.285 -1.3116 -1.4850 -0.6044
   61MOL0     H 8233  10.695   5.687   2.181  2.3422  1.7539 -2.0421
   61MOL0     H 8234  10.855   5.655   2.248 -0.0867  1.4670 -0.8568
   61MOL0     H 8235  10.815   5.588   2.100  1.9241 -0.8375  1.1353
   62MOL0     O 8236   6.006  10.219   4.755 -0.5726  0.2257  0.1969
   62MOL0     C 8237   5.920  10.273   4.684  0.3651  0.8007  0.9586
   62MOL0     O 8238   5.941  10.304   4.543 -0.3801  0.1785  0.0553
   62MOL0     C 8239   6.070  10.284   4.498  0.7574  1.2645 -1.0312
   62MOL0     C 8240   6.147  10.398   4.469  0.3512  0.8492  1.1476
   62MOL0     C 8241   6.275  10.384   4.417 -0.6855 -0.5681  0.3132
   62MOL0     C 8242   6.340  10.264   4.401  0.3615 -0.1806  0.1623
   62MOL0     O 8243   6.470  10.258   4.361 -0.3010  0.3325 -0.2328
   62MOL0     C 8244   6.541  10.132   4.361  0.7820  0.3802 -0.2840
   62MOL0     C 8245   6.614  10.119   4.498  0.0298 -0.9090  0.3464
   62MOL0     C 8246   6.531  10.082   4.615 -0.4099  0.0768  0.2537
   62MOL0     C 8247   6.620  10.079   4.735 -0.8674 -0.5088  0.1607
   62MOL0     C 8248   6.574  10.028   4.868  0.8217 -0.3291  0.7491
   62MOL0     C 8249   6.682  10.047   4.975 -0.1489  1.4554  0.0830
   62MOL0     C 8250   6.816   9.969   4.958 -0.8710 -0.1919  0.0516
   62MOL0     C 8251   6.914  10.009   5.065  0.3542 -0.4054 -0.2152
   62MOL0     N 8252   7.057   9.989   5.023 -0.0160 -0.1564 -0.2016
   62MOL0     C 8253   7.120   9.870   5.011 -0.0394 -0.2755 -0.3408
   62MOL0     C 8254   7.248   9.887   4.972  0.8542 -0.0385  0.1581
   62MOL0     C 8255   7.354   9.778   4.960  0.0983  0.6236  0.1077
   62MOL0     C 8256   7.500   9.810   4.996  0.0543  0.1253  0.6534
   62MOL0     C 8257   7.560   9.914   4.903 -0.1226 -0.3175 -0.3643
   62MOL0     C 8258   7.551   9.902   4.757  0.2751  0.1188 -0.5324
   62MOL0     O 8259   7.641   9.993   4.690  0.3754 -0.7217 -0.1568
   62MOL0     C 8260   7.765   9.964   4.653 -0.1389 -0.4036 -0.3824
   62MOL0     C 8261   7.832   9.841   4.686  1.4335 -0.0023  0.5791
   62MOL0     C 8262   7.959   9.811   4.652 -0.0897  0.8070 -0.2224
   62MOL0     C 8263   8.033   9.902   4.582 -0.1755 -0.4934  0.1307
   62MOL0     C 8264   8.178   9.877   4.543 -0.5662  0.5804  0.2784
   62MOL0     O 8265   8.247   9.784   4.616  0.1094 -0.2683  1.0216
   62MOL0     C 8266   8.381   9.754   4.578  1.0302 -0.2358 -0.1292
   62MOL0     C 8267   8.472   9.859   4.608  0.0255  0.2053 -0.2567
   62MOL0     C 8268   8.603   9.850   4.573 -0.5291  0.3811  0.3284
   62MOL0     C 8269   8.636   9.743   4.485  0.6346 -0.4503  0.4036
   62MOL0     O 8270   8.772   9.732   4.450 -0.1964  1.3800  0.6090
   62MOL0     C 8271   8.815   9.642   4.348  0.0595  0.6123  0.0743
   62MOL0     C 8272   8.957   9.649   4.315 -0.1613  0.2925 -0.1024
   62MOL0     C 8273   9.060   9.616   4.420 -0.5272 -0.3806  0.2032
   62MOL0     C 8274   9.205   9.596   4.369 -0.0787 -0.0871  0.2555
   62MOL0     C 8275   9.311   9.608   4.477 -0.6228 -0.0494  0.4194
   62MOL0     C 8276   9.452   9.593   4.413  0.0379  0.0573  0.0468
   62MOL0     C 8277   9.565   9.631   4.522  0.6816  0.7770 -0.3782
   62MOL0     C 8278   9.571   9.782   4.538  0.1450 -0.1162  0.2260
   62MOL0    Cl 8279   9.703   9.819   4.639  0.4656  0.6768  0.0182
   62MOL0     C 8280   8.543   9.650   4.444  0.2384  0.0347 -0.0390
   62MOL0     C 8281   8.407   9.654   4.488 -0.2255  0.0218  0.6052
   62MOL0     O 8282   8.219   9.925   4.438 -0.5587  0.5671  0.0504
   62MOL0     C 8283   7.964  10.017   4.531 -0.9878  0.1249  0.0744
   62MOL0     C 8284   7.837  10.048   4.574 -0.0940  0.1263  1.1851
   62MOL0     N 8285   7.258  10.025   4.941 -0.3484  0.7830 -0.2891
   62MOL0     N 8286   7.144  10.085   4.983  0.5115 -0.3502  0.0089
   62MOL0     C 8287   6.263  10.145   4.431 -0.9924 -0.1921 -0.3531
   62MOL0     C 8288   6.134  10.151   4.484  0.6235 -0.0901 -0.3667
   62MOL0     C 8289   5.783  10.283   4.739  0.1937 -0.2477 -0.6277
   62MOL0     C 8290   5.687  10.329   4.649 -0.0595 -0.3804  0.6055
   62MOL0     C 8291   5.560  10.358   4.691 -0.2012 -0.1779  0.3240
   62MOL0     C 8292   5.525  10.335   4.833 -0.3857 -0.7218  0.0443
   62MOL0     O 8293   5.400  10.366   4.863  0.7114 -0.0232 -0.1136
   62MOL0     C 8294   5.362  10.369   5.000  0.5443 -0.8286 -0.3546
   62MOL0     C 8295   5.233  10.450   5.000 -0.2971 -0.3361 -0.2240
   62MOL0     C 8296   5.165  10.453   5.133  0.9246 -0.2254  0.0877
   62MOL0     C 8297   5.028  10.509   5.145  0.0439 -0.6267 -0.1995
   62MOL0     C 8298   4.974  10.497   5.282  1.0940  0.5101 -0.6321
   62MOL0     C 8299   4.929  10.481   5.395  0.1801 -0.0461 -0.1621
   62MOL0     C 8300   5.616  10.276   4.922  0.3075  0.1862  0.1169
   62MOL0     C 8301   5.749  10.250   4.873 -1.1003 -0.1649 -0.6620
   62MOL0     C 8302   5.846  10.205   4.980 -0.1519 -0.1996 -0.6202
   62MOL0     H 8303   6.102  10.496   4.488  2.2841  1.8120  0.9764
   62MOL0     H 8304   6.323  10.475   4.382 -0.5183 -0.0938  1.6951
   62MOL0     H 8305   6.488  10.037   4.351  2.2316 -0.2479 -2.9200
   62MOL0     H 8306   6.614  10.145   4.280  1.6703 -0.0234  0.4347
   62MOL0     H 8307   6.659  10.215   4.524 -0.1169 -0.1155 -2.1086
   62MOL0     H 8308   6.690  10.040   4.493 -2.7322 -3.7413 -0.3038
   62MOL0     H 8309   6.494   9.979   4.609 -0.6680  0.1823  0.0143
   62MOL0     H 8310   6.452  10.155   4.635  0.9259  2.4766 -2.4458
   62MOL0     H 8311   6.708  10.023   4.702  0.2165  0.1100  1.8550
   62MOL0     H 8312   6.664  10.177   4.755  2.5844 -2.1265  1.3579
   62MOL0     H 8313   6.479  10.078   4.887  0.1516  0.1133 -2.9747
   62MOL0     H 8314   6.538   9.925   4.860  0.6759 -0.1694 -1.0785
   62MOL0     H 8315   6.701  10.154   4.981 -3.3332  2.2035 -1.2671
   62MOL0     H 8316   6.642  10.015   5.071  1.2544  1.5673  0.7204
   62MOL0     H 8317   6.860   9.999   4.863 -3.1874 -1.2430 -1.4352
   62MOL0     H 8318   6.799   9.861   4.958  1.8304 -0.7266  2.3717
   62MOL0     H 8319   6.900  10.114   5.091  1.9739 -0.3443  0.5566
   62MOL0     H 8320   6.904   9.953   5.159 -1.2210 -1.2153 -0.8221
   62MOL0     H 8321   7.064   9.783   5.045 -0.0668  1.7916  6.2070
   62MOL0     H 8322   7.330   9.706   5.039  0.3468  2.2348  1.7244
   62MOL0     H 8323   7.341   9.729   4.863 -1.4860 -1.0979  1.1013
   62MOL0     H 8324   7.511   9.844   5.099 -0.2921 -0.2243  0.8076
   62MOL0     H 8325   7.557   9.718   4.978 -0.2597  0.1080 -0.2974
   62MOL0     H 8326   7.664   9.928   4.934 -0.1159 -1.2240  0.0464
   62MOL0     H 8327   7.509  10.008   4.923  1.4417  0.2173  1.4172
   62MOL0     H 8328   7.448   9.921   4.729 -0.3333  2.6911  2.8276
   62MOL0     H 8329   7.577   9.797   4.737  1.3571  0.6865 -2.3334
   62MOL0     H 8330   7.790   9.766   4.752  3.9280 -2.5671 -0.5394
   62MOL0     H 8331   8.008   9.715   4.666  0.8871  1.2863 -0.2296
   62MOL0     H 8332   8.443   9.938   4.677 -0.6958  0.8082 -1.2235
   62MOL0     H 8333   8.678   9.925   4.599 -1.7233  2.4824 -1.8954
   62MOL0     H 8334   8.796   9.540   4.382  3.0651  0.6531  2.3347
   62MOL0     H 8335   8.751   9.665   4.262 -2.2944 -0.4953  1.4275
   62MOL0     H 8336   8.959   9.568   4.241 -3.6715  0.1003 -0.1341
   62MOL0     H 8337   8.984   9.736   4.255  0.4236 -1.2350 -2.1651
   62MOL0     H 8338   9.042   9.694   4.494 -1.4475  0.0899 -0.5012
   62MOL0     H 8339   9.040   9.525   4.478  0.8197 -0.9710 -0.2271
   62MOL0     H 8340   9.227   9.665   4.287  0.5994 -0.5886  0.0140
   62MOL0     H 8341   9.215   9.495   4.327  2.5232  0.5611 -0.8636
   62MOL0     H 8342   9.301   9.526   4.548 -0.0979 -2.1822 -1.8461
   62MOL0     H 8343   9.304   9.703   4.532  0.7354 -0.3672  1.1955
   62MOL0     H 8344   9.463   9.489   4.378 -0.7261  0.6165 -2.0574
   62MOL0     H 8345   9.466   9.652   4.322  2.2851 -1.4997 -0.6882
   62MOL0     H 8346   9.662   9.586   4.503 -0.0013 -1.9755  1.9349
   62MOL0     H 8347   9.530   9.588   4.617 -1.8601  1.5016 -0.9084
   62MOL0     H 8348   9.576   9.827   4.439  1.9211 -0.2009  0.2541
   62MOL0     H 8349   9.475   9.801   4.588  0.7546  1.2345  0.9239
   62MOL0     H 8350   8.558   9.561   4.384 -1.8712 -0.5937  0.2876
   62MOL0     H 8351   8.335   9.575   4.472 -1.0590  0.8192  0.3459
   62MOL0     H 8352   8.011  10.098   4.476 -1.2952  0.5990  0.5028
   62MOL0     H 8353   7.794  10.138   4.530 -2.1625  1.2303  4.9580
   62MOL0     H 8354   6.307  10.046   4.426  2.7769  1.3317 -1.3173
   62MOL0     H 8355   6.090  10.057   4.516 -1.4106  0.2181 -1.9821
   62MOL0     H 8356   5.713  10.349   4.545  1.4452  1.0768  1.2122
   62MOL0     H 8357   5.494  10.404   4.618  0.5961 -0.5058 -0.6279
   62MOL0     H 8358   5.440  10.418   5.059  0.3834  0.4634 -1.1646
   62MOL0     H 8359   5.334  10.270   5.036 -1.7008  0.1049  0.6459
   62MOL0     H 8360   5.170  10.395   4.929 -0.0128 -2.2361  0.9031
   62MOL0     H 8361   5.245  10.553   4.968 -0.6158 -0.2367 -0.0309
   62MOL0     H 8362   5.219  10.511   5.208 -1.2087  0.2213  1.3611
   62MOL0     H 8363   5.141  10.347   5.151 -0.8032 -0.1388 -1.4298
   62MOL0     H 8364   5.040  10.617   5.134  0.4086 -0.3291  2.4558
   62MOL0     H 8365   4.961  10.479   5.064  0.9176  1.6714 -1.8522
   62MOL0     H 8366   4.874  10.472   5.486 -0.2891 -1.1024 -0.5339
   62MOL0     H 8367   5.587  10.256   5.025  3.1691  1.5169  1.3023
   62MOL0     H 8368   5.916  10.288   4.996  2.6578 -2.2071 -1.6529
   62MOL0     H 8369   5.797  10.180   5.074 -0.9692 -2.2437 -1.5330
   62MOL0     H 8370   5.904  10.116   4.952  2.4425  0.6931  1.4613
   63MOL0     O 8371   3.234   5.757   8.601 -0.0989 -0.1337 -0.4463
   63MOL0     C 8372   3.166   5.853   8.557  0.5395 -0.1925 -0.2148
   63MOL0     O 8373   3.186   5.986   8.581 -0.0125 -0.2866  0.3045
   63MOL0     C 8374   3.310   6.022   8.626 -0.1579 -0.2796 -0.1695
   63MOL0     C 8375   3.441   5.979   8.590 -0.6666  0.1757  0.2182
   63MOL0     C 8376   3.553   6.056   8.635 -0.7062 -0.0981  0.1459
   63MOL0     C 8377   3.545   6.159   8.728 -0.0200  0.1642  0.6148
   63MOL0     O 8378   3.653   6.230   8.757 -0.6486  0.3472 -0.0824
   63MOL0     C 8379   3.652   6.297   8.878  0.3136  1.0380 -0.0220
   63MOL0     C 8380   3.788   6.330   8.906 -0.8766  0.0021 -0.4204
   63MOL0     C 8381   3.884   6.211   8.943  0.4834  0.4042 -0.2020
   63MOL0     C 8382   3.988   6.270   9.045 -0.0072  0.2670 -0.7777
   63MOL0     C 8383   3.940   6.287   9.188 -0.3977  0.2709 -0.1846
   63MOL0     C 8384   4.007   6.403   9.270  0.3009 -0.6703  0.3497
   63MOL0     C 8385   3.970   6.395   9.419 -0.4104  0.1173  0.7570
   63MOL0     C 8386   4.050   6.290   9.506  0.2224  0.0763 -0.2213
   63MOL0     N 8387   4.193   6.321   9.502  0.3663 -0.3970  0.5032
   63MOL0     C 8388   4.252   6.444   9.488 -0.0886 -0.2696 -0.1656
   63MOL0     C 8389   4.385   6.419   9.489 -0.2010 -0.0038 -0.2992
   63MOL0     C 8390   4.500   6.507   9.454  0.4880 -0.2928 -0.1572
   63MOL0     C 8391   4.536   6.599   9.576  0.4196 -1.0044  1.1044
   63MOL0     C 8392   4.687   6.652   9.567  0.9367  0.1717 -1.1232
   63MOL0     C 8393   4.717   6.767   9.669  0.4841 -0.5574  0.3467
   63MOL0     O 8394   4.739   6.730   9.815  0.2956  0.4831 -0.3337
   63MOL0     C 8395   4.857   6.691   9.858 -0.2378 -0.4157  0.7969
   63MOL0     C 8396   4.869   6.629   9.981  0.5406  0.3073  0.8618
   63MOL0     C 8397   4.992   6.599  10.039  0.6425  0.3176  0.1891
   63MOL0     C 8398   5.110   6.607   9.960 -0.3735  0.5650 -0.0348
   63MOL0     C 8399   5.236   6.555  10.021 -0.6936  0.4535  1.1016
   63MOL0     O 8400   5.244   6.528  10.154  0.8989  0.4266  0.2644
   63MOL0     C 8401   5.364   6.483  10.206  0.4813  0.6892  0.3308
   63MOL0     C 8402   5.417   6.357  10.184 -0.2227 -0.3272  0.5067
   63MOL0     C 8403   5.552   6.339  10.211  0.4756  0.1043  0.3446
   63MOL0     C 8404   5.624   6.425  10.290 -0.1570  0.1268 -0.0124
   63MOL0     O 8405   5.754   6.406  10.334 -0.6383 -0.3785 -0.3455
   63MOL0     C 8406   5.834   6.299  10.288  0.0588 -0.1008  0.2641
   63MOL0     C 8407   5.972   6.300  10.369  0.4774  0.0485 -0.2569
   63MOL0     C 8408   6.056   6.425  10.344  0.0595 -0.2789 -0.9676
   63MOL0     C 8409   6.189   6.426  10.414  0.0627 -0.0962 -0.0786
   63MOL0     C 8410   6.253   6.562  10.394  0.1316  0.5003  0.2307
   63MOL0     C 8411   6.387   6.564  10.446  0.1101 -0.3769  0.1738
   63MOL0     C 8412   6.467   6.691  10.423  0.6474  0.1603 -0.4702
   63MOL0     C 8413   6.615   6.686  10.467 -0.5971  0.0746 -0.0054
   63MOL0    Cl 8414   6.692   6.839  10.413  0.3149 -0.5027  0.0504
   63MOL0     C 8415   5.562   6.540  10.320  0.1419  0.3150 -1.0274
   63MOL0     C 8416   5.439   6.576  10.273  0.0748  0.0761 -0.1432
   63MOL0     O 8417   5.331   6.541   9.936 -0.2487  1.1159  0.2421
   63MOL0     C 8418   5.095   6.654   9.831 -0.3617  0.7349 -0.0035
   63MOL0     C 8419   4.976   6.695   9.787  0.8008  0.3522 -0.1345
   63MOL0     N 8420   4.406   6.290   9.522  1.0248  0.8487 -0.6697
   63MOL0     N 8421   4.288   6.233   9.513 -0.0405  0.0030 -0.7308
   63MOL0     C 8422   3.417   6.187   8.780 -0.6984  0.3489  0.8837
   63MOL0     C 8423   3.303   6.127   8.730  1.2744 -0.0236  0.8792
   63MOL0     C 8424   3.036   5.800   8.506 -0.5327 -0.3212 -0.2939
   63MOL0     C 8425   2.922   5.855   8.564 -0.0177  0.7007  0.9053
   63MOL0     C 8426   2.798   5.795   8.543 -0.3362  0.0901 -0.0678
   63MOL0     C 8427   2.776   5.692   8.451 -0.9532 -0.2846  0.0690
   63MOL0     O 8428   2.661   5.636   8.411  0.2282 -0.0539  0.5406
   63MOL0     C 8429   2.544   5.671   8.482 -0.1089  0.2402  0.0894
   63MOL0     C 8430   2.417   5.599   8.414 -0.3660 -0.5777 -0.7495
   63MOL0     C 8431   2.284   5.657   8.479  0.4091  0.6989  0.2883
   63MOL0     C 8432   2.155   5.581   8.426 -0.3376 -0.0746 -0.0424
   63MOL0     C 8433   2.142   5.616   8.284  0.4179  0.1245 -0.7127
   63MOL0     C 8434   2.140   5.641   8.169 -0.5451  0.6819 -0.1469
   63MOL0     C 8435   2.893   5.647   8.379  0.5526  0.0923 -0.1179
   63MOL0     C 8436   3.024   5.705   8.408  0.1331 -0.0510  0.4680
   63MOL0     C 8437   3.152   5.661   8.337  0.1636 -0.4397 -0.7353
   63MOL0     H 8438   3.457   5.898   8.519  0.8948  0.4121  0.2631
   63MOL0     H 8439   3.655   6.032   8.607 -1.0573  0.2884 -1.6023
   63MOL0     H 8440   3.593   6.387   8.864 -2.0645 -0.5618 -0.9944
   63MOL0     H 8441   3.604   6.236   8.955  0.5550 -2.0848 -2.1525
   63MOL0     H 8442   3.780   6.392   8.996 -0.6267 -1.6941  0.8260
   63MOL0     H 8443   3.843   6.383   8.828  1.8010 -0.6156  0.9287
   63MOL0     H 8444   3.945   6.183   8.857  0.0545 -1.1573 -0.0252
   63MOL0     H 8445   3.830   6.124   8.981  1.5429 -0.3426 -0.3813
   63MOL0     H 8446   4.075   6.204   9.033  0.5656  1.3339 -2.9293
   63MOL0     H 8447   4.026   6.359   8.994 -1.6380  0.2561 -2.0977
   63MOL0     H 8448   3.832   6.305   9.186 -0.0871  2.2790 -0.6955
   63MOL0     H 8449   3.962   6.188   9.229 -1.8046 -1.6125 -3.5683
   63MOL0     H 8450   4.114   6.387   9.257  0.2617  0.2566 -1.4368
   63MOL0     H 8451   3.979   6.505   9.240 -0.1584 -0.4669  1.4395
   63MOL0     H 8452   3.862   6.381   9.426 -0.1670 -1.6886  1.3255
   63MOL0     H 8453   3.991   6.488   9.473  1.8638  0.3725 -0.4219
   63MOL0     H 8454   4.022   6.295   9.611  2.0784  5.0691  0.2854
   63MOL0     H 8455   4.037   6.186   9.474 -3.4048  0.7760 -1.5029
   63MOL0     H 8456   4.201   6.539   9.472 -0.7390 -0.2743  1.6295
   63MOL0     H 8457   4.594   6.453   9.442  0.5470 -0.1150 -0.5139
   63MOL0     H 8458   4.476   6.559   9.360  0.5638  3.9138  1.9229
   63MOL0     H 8459   4.461   6.678   9.585  1.8108  0.3725  1.0576
   63MOL0     H 8460   4.523   6.548   9.672 -0.9349 -0.0143  1.4782
   63MOL0     H 8461   4.711   6.697   9.470  2.2630  5.6794  1.3897
   63MOL0     H 8462   4.750   6.570   9.602  1.8537  0.5389 -1.8594
   63MOL0     H 8463   4.630   6.832   9.656  0.2178 -1.2448 -1.6489
   63MOL0     H 8464   4.806   6.825   9.644  0.3559  0.1205  1.4176
   63MOL0     H 8465   4.776   6.613  10.035  0.3679 -2.3871 -0.1196
   63MOL0     H 8466   5.005   6.578  10.145  0.0733  3.3069  0.9487
   63MOL0     H 8467   5.359   6.288  10.124 -0.0302 -2.0776  2.2247
   63MOL0     H 8468   5.593   6.245  10.172 -1.6866 -1.0352  0.6860
   63MOL0     H 8469   5.793   6.201  10.316 -1.0150  0.5944  1.2139
   63MOL0     H 8470   5.850   6.301  10.180 -0.2614 -2.0813  0.1406
   63MOL0     H 8471   5.943   6.299  10.474  2.6840 -3.2958  0.4713
   63MOL0     H 8472   6.023   6.206  10.347 -2.3714 -2.1227  1.6804
   63MOL0     H 8473   6.067   6.437  10.236  1.6871  0.6029 -0.7411
   63MOL0     H 8474   6.002   6.510  10.388 -1.2417 -1.8940  0.6949
   63MOL0     H 8475   6.257   6.352  10.371  1.9473  1.0307  0.8345
   63MOL0     H 8476   6.182   6.387  10.516 -1.9115  0.5737  0.0935
   63MOL0     H 8477   6.188   6.637  10.441 -1.0865 -0.4119  0.0657
   63MOL0     H 8478   6.260   6.583  10.286  0.6899  1.2148  0.3991
   63MOL0     H 8479   6.388   6.544  10.554  0.3666 -0.7056  0.1137
   63MOL0     H 8480   6.440   6.481  10.399 -1.6472 -1.2694 -0.3360
   63MOL0     H 8481   6.422   6.783  10.461  1.5243 -0.3049  1.8281
   63MOL0     H 8482   6.480   6.704  10.315  0.9968  1.2962 -0.3040
   63MOL0     H 8483   6.631   6.681  10.575 -0.3373  1.9999  0.0910
   63MOL0     H 8484   6.653   6.593  10.424 -1.8189 -0.7899  0.7045
   63MOL0     H 8485   5.621   6.607  10.382  1.2208 -2.8229  1.6454
   63MOL0     H 8486   5.395   6.674  10.287 -0.6478 -0.4839  1.7022
   63MOL0     H 8487   5.180   6.652   9.764 -1.0213  1.4659 -0.8813
   63MOL0     H 8488   4.985   6.728   9.684  2.7002 -1.4867 -0.6390
   63MOL0     H 8489   3.406   6.257   8.863  4.2720  1.9200  0.4943
   63MOL0     H 8490   3.206   6.154   8.769  0.8106 -1.4887  0.8225
   63MOL0     H 8491   2.942   5.938   8.631  1.6450 -0.6806  2.1906
   63MOL0     H 8492   2.712   5.820   8.603 -0.5365  2.2179 -1.1494
   63MOL0     H 8493   2.524   5.778   8.490  1.1463  0.3730  2.2770
   63MOL0     H 8494   2.544   5.636   8.586 -3.3588 -2.1321 -0.5289
   63MOL0     H 8495   2.423   5.491   8.433  1.0720 -0.2422  1.0818
   63MOL0     H 8496   2.419   5.609   8.305 -0.5172 -0.4105 -0.7366
   63MOL0     H 8497   2.259   5.764   8.470 -0.8627  0.4302  0.4789
   63MOL0     H 8498   2.289   5.627   8.584  2.7286  1.0572  0.3316
   63MOL0     H 8499   2.172   5.473   8.439 -1.2201 -0.4889 -1.9433
   63MOL0     H 8500   2.068   5.628   8.473  0.0242  0.5367  0.0191
   63MOL0     H 8501   2.160   5.673   8.069 -1.7362  0.4430 -0.4728
   63MOL0     H 8502   2.888   5.572   8.300 -0.0627 -0.0723  0.0727
   63MOL0     H 8503   3.127   5.613   8.241 -1.0830  1.2864 -1.3349
   63MOL0     H 8504   3.209   5.748   8.303  1.1270 -1.3680 -1.5907
   63MOL0     H 8505   3.224   5.596   8.388  2.0657  1.1413 -1.2719
   64MOL0     O 8506   7.581   2.917   0.086  0.4235 -0.4709 -0.2568
   64MOL0     C 8507   7.626   3.031   0.086 -0.6900 -0.2314 -0.3900
   64MOL0     O 8508   7.755   3.066   0.079 -0.9522  0.4822  0.2808
   64MOL0     C 8509   7.861   2.975   0.070 -0.1024 -0.2960  0.5236
   64MOL0     C 8510   7.862   2.880  -0.028 -0.7437  0.6701  0.3424
   64MOL0     C 8511   7.963   2.780  -0.030  0.4773 -0.0705  0.4151
   64MOL0     C 8512   8.066   2.788   0.056  0.0360  0.1439 -0.5732
   64MOL0     O 8513   8.161   2.702   0.036  0.1242  0.6095  0.1310
   64MOL0     C 8514   8.268   2.693   0.128  0.3287  0.5378 -0.5920
   64MOL0     C 8515   8.370   2.591   0.079  0.4142 -0.2259  0.5775
   64MOL0     C 8516   8.441   2.647  -0.042 -0.0297  0.2588  0.1813
   64MOL0     C 8517   8.526   2.534  -0.104  0.0644  0.0448  0.7302
   64MOL0     C 8518   8.600   2.589  -0.225 -0.5797  1.1253  0.1650
   64MOL0     C 8519   8.729   2.672  -0.192  0.2700  0.3844 -0.2551
   64MOL0     C 8520   8.785   2.734  -0.324  0.2538  0.1105 -0.6604
   64MOL0     C 8521   8.861   2.855  -0.279  0.6528 -0.2906 -0.7204
   64MOL0     N 8522   8.974   2.821  -0.199 -0.8713 -0.4666 -0.3021
   64MOL0     C 8523   9.082   2.737  -0.246  1.5367 -0.0814  0.9967
   64MOL0     C 8524   9.163   2.718  -0.140  0.9802  0.3902 -0.5538
   64MOL0     C 8525   9.273   2.615  -0.149  0.2486 -0.2800 -0.8901
   64MOL0     C 8526   9.386   2.648  -0.051  0.4018  0.1817 -0.4784
   64MOL0     C 8527   9.361   2.637   0.101 -0.0244  0.4483 -0.6295
   64MOL0     C 8528   9.335   2.493   0.146  0.1992  0.2199  1.5393
   64MOL0     O 8529   9.273   2.485   0.279  0.0326  0.4798  0.7434
   64MOL0     C 8530   9.134   2.503   0.294  0.3190  0.6832  1.1909
   64MOL0     C 8531   9.075   2.477   0.420 -0.0862 -0.4210 -0.1102
   64MOL0     C 8532   8.934   2.475   0.431 -0.5573 -0.1952  0.4500
   64MOL0     C 8533   8.847   2.497   0.318  0.2492  0.2553  0.1497
   64MOL0     C 8534   8.700   2.483   0.332  0.2145 -0.6204  0.8483
   64MOL0     O 8535   8.644   2.503   0.451 -0.3442 -0.2088 -0.4583
   64MOL0     C 8536   8.520   2.452   0.484 -0.2196  0.8154  0.2437
   64MOL0     C 8537   8.433   2.368   0.409  0.1419  0.0208  0.0920
   64MOL0     C 8538   8.313   2.321   0.471 -0.5364  0.3192 -0.0665
   64MOL0     C 8539   8.270   2.374   0.595  0.8753  0.7763  0.3942
   64MOL0     O 8540   8.142   2.347   0.647  0.0822 -0.6970  0.5057
   64MOL0     C 8541   8.107   2.419   0.761 -0.1035 -0.1321 -0.7969
   64MOL0     C 8542   7.971   2.388   0.807  0.0059 -0.2393  0.6882
   64MOL0     C 8543   7.943   2.231   0.819  0.1109  0.0725 -0.4798
   64MOL0     C 8544   7.806   2.217   0.870 -0.0202  0.5124  0.0093
   64MOL0     C 8545   7.750   2.071   0.851 -0.4348  0.1329 -0.1761
   64MOL0     C 8546   7.620   2.039   0.927  0.5867 -0.5823  0.4679
   64MOL0     C 8547   7.485   2.115   0.873 -0.1184  0.0414  0.1995
   64MOL0     C 8548   7.369   2.083   0.973 -1.3551 -0.3139 -0.1478
   64MOL0    Cl 8549   7.378   2.179   1.123 -0.0118  0.4639  0.4000
   64MOL0     C 8550   8.368   2.455   0.664  0.1820  0.4422  0.5398
   64MOL0     C 8551   8.489   2.486   0.612 -0.6829  0.3037  0.6764
   64MOL0     O 8552   8.651   2.443   0.229  0.2171  0.1945  0.4707
   64MOL0     C 8553   8.913   2.502   0.193  0.0897  0.6878  0.2666
   64MOL0     C 8554   9.052   2.512   0.185 -0.0511 -0.0751  0.5099
   64MOL0     N 8555   9.107   2.786  -0.028 -0.3162 -0.3311 -0.5342
   64MOL0     N 8556   9.003   2.845  -0.067  0.2905 -0.2061  0.1369
   64MOL0     C 8557   8.066   2.884   0.157  0.0192 -0.1998  0.0697
   64MOL0     C 8558   7.964   2.980   0.169 -0.2361 -0.4663  0.8902
   64MOL0     C 8559   7.526   3.138   0.091 -0.3195  0.2078 -0.6780
   64MOL0     C 8560   7.399   3.107   0.143  0.5234 -0.7266 -1.0938
   64MOL0     C 8561   7.297   3.195   0.151 -0.6810 -0.4965  0.3266
   64MOL0     C 8562   7.319   3.327   0.107  0.5022  0.0039  0.1132
   64MOL0     O 8563   7.223   3.425   0.096 -0.3619 -0.4493 -0.3387
   64MOL0     C 8564   7.095   3.393   0.152  0.6209  0.7222  0.3583
   64MOL0     C 8565   7.013   3.514   0.125 -0.5027  0.1412  0.9615
   64MOL0     C 8566   6.865   3.482   0.164  0.2452  0.6457 -0.4110
   64MOL0     C 8567   6.773   3.580   0.094  0.7894  0.0072  0.2728
   64MOL0     C 8568   6.738   3.545  -0.048  0.2775  0.3063 -0.4230
   64MOL0     C 8569   6.740   3.525  -0.168  1.1150 -0.7757  0.2400
   64MOL0     C 8570   7.433   3.359   0.042 -0.3402 -0.7791  0.0899
   64MOL0     C 8571   7.539   3.269   0.037 -0.6297  0.2434  1.0452
   64MOL0     C 8572   7.661   3.318  -0.046 -0.0137  0.1378  0.4874
   64MOL0     H 8573   7.784   2.880  -0.104  1.4981  1.6889 -2.1086
   64MOL0     H 8574   7.957   2.698  -0.100  0.0032 -0.3615  0.7917
   64MOL0     H 8575   8.313   2.793   0.127 -3.4266  2.4457  0.0272
   64MOL0     H 8576   8.232   2.668   0.228  1.7386 -2.3091 -0.7172
   64MOL0     H 8577   8.314   2.500   0.054 -0.0409 -0.3115  1.8518
   64MOL0     H 8578   8.445   2.568   0.155  1.8632  0.8889 -0.4446
   64MOL0     H 8579   8.527   2.706  -0.008 -0.2449  0.1884  0.8520
   64MOL0     H 8580   8.370   2.687  -0.116  0.2840 -0.6003 -0.6058
   64MOL0     H 8581   8.598   2.499  -0.029  3.8197  1.2778 -2.0027
   64MOL0     H 8582   8.461   2.452  -0.136  0.2275  0.0363  0.4164
   64MOL0     H 8583   8.643   2.504  -0.278 -1.7375  1.1081 -0.7850
   64MOL0     H 8584   8.531   2.645  -0.288 -1.1792 -1.8639 -2.0412
   64MOL0     H 8585   8.705   2.753  -0.123  2.4925  1.8635 -1.0935
   64MOL0     H 8586   8.804   2.610  -0.141 -0.4367 -0.6050 -0.3992
   64MOL0     H 8587   8.697   2.773  -0.376 -0.2725  0.4243  0.4388
   64MOL0     H 8588   8.837   2.653  -0.377 -0.6052  0.5290 -2.2125
   64MOL0     H 8589   8.902   2.897  -0.372  3.3781  0.0227  0.5233
   64MOL0     H 8590   8.801   2.919  -0.214  0.3727 -2.6836  1.5178
   64MOL0     H 8591   9.099   2.694  -0.344  1.4350 -1.7470  1.6751
   64MOL0     H 8592   9.239   2.511  -0.142  1.7490 -0.6706  2.6462
   64MOL0     H 8593   9.312   2.630  -0.250  2.2120  1.9614  0.1109
   64MOL0     H 8594   9.473   2.588  -0.082  2.7191  2.8943  0.3661
   64MOL0     H 8595   9.411   2.754  -0.059 -0.1220  0.2864 -0.7473
   64MOL0     H 8596   9.285   2.697   0.152 -1.2355 -0.0212 -1.8444
   64MOL0     H 8597   9.456   2.671   0.144  0.7824  0.7033 -2.5345
   64MOL0     H 8598   9.434   2.448   0.146  0.1830 -0.0322 -1.6514
   64MOL0     H 8599   9.281   2.436   0.070 -0.0711  0.9062  1.2028
   64MOL0     H 8600   9.135   2.460   0.509 -1.1754  2.8504  1.4204
   64MOL0     H 8601   8.883   2.446   0.522  0.2848 -0.7342  0.7690
   64MOL0     H 8602   8.457   2.327   0.312  2.6477 -0.6496  0.9222
   64MOL0     H 8603   8.244   2.255   0.420 -0.1687 -0.2104  0.1094
   64MOL0     H 8604   8.162   2.367   0.839 -3.7535 -4.7264 -0.8883
   64MOL0     H 8605   8.128   2.527   0.752  0.4885 -0.0402  1.1183
   64MOL0     H 8606   7.954   2.445   0.899  2.2351  2.3248 -0.3422
   64MOL0     H 8607   7.910   2.431   0.727 -0.1169 -2.1664 -0.3199
   64MOL0     H 8608   7.951   2.178   0.724  0.5423  1.4316 -1.2413
   64MOL0     H 8609   8.026   2.189   0.877 -0.7258 -1.0002 -0.0277
   64MOL0     H 8610   7.751   2.277   0.797 -0.7676  1.0475  0.9938
   64MOL0     H 8611   7.802   2.252   0.973  2.3665 -0.8359  0.6558
   64MOL0     H 8612   7.829   2.005   0.889 -0.9584 -0.9330 -0.8586
   64MOL0     H 8613   7.728   2.051   0.745 -2.0748 -2.2436  0.5238
   64MOL0     H 8614   7.592   1.933   0.934 -0.2850 -0.5522 -1.6674
   64MOL0     H 8615   7.636   2.067   1.032  4.5186 -3.5560  0.8806
   64MOL0     H 8616   7.456   2.080   0.774 -0.2051 -0.3220  0.3513
   64MOL0     H 8617   7.500   2.222   0.859  2.6445  0.0724  2.4256
   64MOL0     H 8618   7.272   2.112   0.930 -0.8687  0.1459 -0.9540
   64MOL0     H 8619   7.359   1.975   0.986 -0.4325 -0.4177 -0.2677
   64MOL0     H 8620   8.353   2.502   0.761  0.7519  1.9982 -0.0872
   64MOL0     H 8621   8.550   2.559   0.664 -1.9707  1.7481  0.2244
   64MOL0     H 8622   8.862   2.511   0.098  0.0084  1.9809  0.4215
   64MOL0     H 8623   9.088   2.521   0.084 -1.7688 -0.8781 -0.2167
   64MOL0     H 8624   8.141   2.890   0.236  2.1377  1.1529 -1.9281
   64MOL0     H 8625   7.958   3.058   0.245 -0.4964 -0.4417  0.8455
   64MOL0     H 8626   7.372   3.005   0.164 -0.7703  0.0548  1.4248
   64MOL0     H 8627   7.203   3.158   0.193 -1.7340 -1.1826 -2.4283
   64MOL0     H 8628   7.103   3.364   0.258  0.7474 -0.7286 -0.0187
   64MOL0     H 8629   7.066   3.304   0.096  0.7861 -0.2500  1.7446
   64MOL0     H 8630   7.018   3.547   0.021  3.3463 -1.4408  0.4845
   64MOL0     H 8631   7.058   3.598   0.177  0.5138 -0.2958  0.8112
   64MOL0     H 8632   6.864   3.500   0.272  1.9672  2.9119 -0.6945
   64MOL0     H 8633   6.843   3.375   0.163 -0.3469  0.7504  0.2751
   64MOL0     H 8634   6.684   3.585   0.158  0.4382 -1.4497 -0.0507
   64MOL0     H 8635   6.816   3.679   0.083  1.7732 -0.4217  0.1692
   64MOL0     H 8636   6.749   3.500  -0.271 -1.8416 -3.5161  0.5145
   64MOL0     H 8637   7.449   3.452  -0.012  2.4315 -2.8211 -3.0102
   64MOL0     H 8638   7.748   3.295   0.016  0.4786  1.1159  0.1709
   64MOL0     H 8639   7.674   3.274  -0.145 -0.7300  0.0759  0.4126
   64MOL0     H 8640   7.652   3.427  -0.048  1.5294  0.2964 -2.0290
   65MOL0     O 8641  10.467   3.130   4.843  1.0242  0.1636  0.3930
   65MOL0     C 8642  10.434   3.177   4.734 -0.1607 -1.3751  0.1782
   65MOL0     O 8643  10.520   3.237   4.641 -0.0085 -0.0360 -0.8623
   65MOL0     C 8644  10.657   3.260   4.664  0.6304 -0.3703 -0.6587
   65MOL0     C 8645  10.738   3.222   4.775  0.0952 -0.0293 -0.4814
   65MOL0     C 8646  10.874   3.262   4.792 -0.1850 -0.4448 -0.4696
   65MOL0     C 8647  10.933   3.347   4.690 -0.2217 -0.1691  0.8826
   65MOL0     O 8648  11.060   3.392   4.698 -0.2752 -0.0690  0.1829
   65MOL0     C 8649  11.136   3.368   4.582 -0.1967 -0.0922 -0.0279
   65MOL0     C 8650  11.290   3.370   4.613 -0.0388 -0.1044 -0.6941
   65MOL0     C 8651  11.379   3.332   4.491 -0.3822 -0.7824  0.3884
   65MOL0     C 8652  11.518   3.348   4.539  0.2713  0.0465 -0.1085
   65MOL0     C 8653  11.611   3.309   4.426 -0.1116 -0.1994  0.1008
   65MOL0     C 8654  11.752   3.356   4.447 -0.1722 -0.0026 -0.4895
   65MOL0     C 8655  11.803   3.292   4.567 -0.1048  0.0326 -0.1188
   65MOL0     C 8656  11.950   3.339   4.583  0.0238 -0.4801 -0.0013
   65MOL0     N 8657  12.053   3.250   4.534  0.3459  0.3228 -0.1553
   65MOL0     C 8658  12.182   3.252   4.581  0.1497 -0.0667 -0.2220
   65MOL0     C 8659  12.231   3.142   4.529  0.0510  0.0965 -0.1470
   65MOL0     C 8660  12.363   3.090   4.562 -0.6118 -0.2350  0.2607
   65MOL0     C 8661  12.369   2.944   4.605 -0.3646  0.4823  0.2050
   65MOL0     C 8662  12.290   2.912   4.734  0.2925 -0.5825 -0.1701
   65MOL0     C 8663  12.317   2.771   4.781 -0.2137  0.1291  0.1792
   65MOL0     O 8664  12.442   2.763   4.847  0.5306 -0.0560 -0.6831
   65MOL0     C 8665  12.468   2.637   4.896  0.2649 -0.5771 -0.0911
   65MOL0     C 8666  12.599   2.616   4.936  1.0273 -0.2500 -0.0086
   65MOL0     C 8667  12.638   2.511   5.016  0.7708 -0.1238  0.4736
   65MOL0     C 8668  12.543   2.406   5.044 -0.6945 -1.0522 -0.3500
   65MOL0     C 8669  12.593   2.288   5.119  0.4910  0.0363 -0.0364
   65MOL0     O 8670  12.718   2.287   5.180  0.4094 -0.4842  0.6397
   65MOL0     C 8671  12.762   2.188   5.261  0.6114  0.1781 -0.2670
   65MOL0     C 8672  12.729   2.052   5.247 -0.7109 -0.5245  0.9236
   65MOL0     C 8673  12.757   1.949   5.350 -0.1018 -0.4256  0.4173
   65MOL0     C 8674  12.806   1.990   5.471 -0.0076 -0.8290  0.1706
   65MOL0     O 8675  12.827   1.913   5.581 -0.2763  0.0157  0.3205
   65MOL0     C 8676  12.743   1.795   5.595  1.2883 -1.0090  0.3104
   65MOL0     C 8677  12.756   1.706   5.727 -0.2240 -0.3280  0.2437
   65MOL0     C 8678  12.639   1.606   5.733 -0.2532  0.8654 -0.7469
   65MOL0     C 8679  12.617   1.538   5.871  0.4893 -0.2090  0.0207
   65MOL0     C 8680  12.490   1.447   5.858 -0.5306 -0.2265 -0.6068
   65MOL0     C 8681  12.490   1.336   5.971 -0.3993 -0.4074  0.0023
   65MOL0     C 8682  12.381   1.235   5.950 -0.1278  0.0159 -0.2879
   65MOL0     C 8683  12.241   1.280   5.984 -0.4399  0.1090  0.2465
   65MOL0    Cl 8684  12.098   1.188   5.937 -0.0360  0.2724  0.0097
   65MOL0     C 8685  12.851   2.123   5.478 -0.4728  0.3226 -0.5320
   65MOL0     C 8686  12.833   2.222   5.380  0.3669  1.1058 -0.6043
   65MOL0     O 8687  12.509   2.195   5.125 -0.4553 -0.1579  0.3576
   65MOL0     C 8688  12.416   2.418   4.991 -0.2738  0.4488  0.0664
   65MOL0     C 8689  12.380   2.532   4.922  0.3999 -0.3833 -1.5793
   65MOL0     N 8690  12.144   3.077   4.453  0.9163 -0.1644 -0.2230
   65MOL0     N 8691  12.033   3.140   4.451 -0.3153 -0.1405 -0.1223
   65MOL0     C 8692  10.853   3.382   4.580 -0.2209  0.2109  0.4084
   65MOL0     C 8693  10.722   3.335   4.562 -0.1966 -0.1733  0.2649
   65MOL0     C 8694  10.292   3.166   4.687  0.8421 -1.1167  0.1931
   65MOL0     C 8695  10.264   3.205   4.552 -0.1878  0.2157  0.0969
   65MOL0     C 8696  10.132   3.230   4.510 -0.3846  0.5848 -0.2705
   65MOL0     C 8697  10.023   3.194   4.593 -0.1611 -0.6149 -0.4646
   65MOL0     O 8698   9.901   3.238   4.537 -1.0539 -0.2207  0.9040
   65MOL0     C 8699   9.791   3.264   4.630 -0.2625  0.0474 -0.2480
   65MOL0     C 8700   9.661   3.288   4.544 -0.7899 -1.1437 -0.8612
   65MOL0     C 8701   9.624   3.155   4.476  1.2480 -0.2504 -0.1902
   65MOL0     C 8702   9.489   3.170   4.392  0.4493  0.3254 -0.0868
   65MOL0     C 8703   9.368   3.211   4.468 -0.4224  0.1542 -0.2530
   65MOL0     C 8704   9.254   3.243   4.491  0.6327  0.0477 -0.2689
   65MOL0     C 8705  10.049   3.146   4.717  0.9279  0.2523  0.4459
   65MOL0     C 8706  10.178   3.135   4.770  0.1338  0.9221  0.1400
   65MOL0     C 8707  10.195   3.079   4.910  0.4001 -0.1251 -0.5331
   65MOL0     H 8708  10.698   3.153   4.848 -0.5418  1.3281  0.4952
   65MOL0     H 8709  10.937   3.233   4.875 -3.1182 -0.7017  1.8346
   65MOL0     H 8710  11.100   3.277   4.534  1.8007 -0.7965 -0.2889
   65MOL0     H 8711  11.116   3.446   4.507 -0.6563  1.4128  1.5845
   65MOL0     H 8712  11.293   3.292   4.690 -0.3383  1.0122  0.4857
   65MOL0     H 8713  11.329   3.458   4.665  1.1196 -0.4529 -0.9370
   65MOL0     H 8714  11.367   3.392   4.400  3.0677 -0.0583  0.2932
   65MOL0     H 8715  11.358   3.227   4.470  0.1278 -1.2827  2.1634
   65MOL0     H 8716  11.535   3.453   4.564 -2.9139  0.8420 -0.7424
   65MOL0     H 8717  11.526   3.276   4.621 -2.4516  0.1803  0.3771
   65MOL0     H 8718  11.609   3.200   4.411  1.8582 -0.0670 -1.4863
   65MOL0     H 8719  11.577   3.357   4.334  1.7956 -0.2998 -0.7060
   65MOL0     H 8720  11.806   3.327   4.356  1.4169  1.6291 -0.1356
   65MOL0     H 8721  11.749   3.466   4.449  0.1309 -0.0027  0.3195
   65MOL0     H 8722  11.806   3.183   4.560 -2.3025 -0.0016 -1.3162
   65MOL0     H 8723  11.734   3.323   4.646 -0.5448  1.8492 -1.1541
   65MOL0     H 8724  11.967   3.439   4.543 -0.4512  0.7084  2.5449
   65MOL0     H 8725  11.972   3.353   4.689  0.2274  0.1574 -0.1208
   65MOL0     H 8726  12.229   3.324   4.647 -0.6360 -0.3118  0.6257
   65MOL0     H 8727  12.420   3.105   4.470  0.1684 -1.2430  0.5603
   65MOL0     H 8728  12.401   3.152   4.643 -1.3867  0.7703 -0.1208
   65MOL0     H 8729  12.330   2.880   4.525  2.0998  0.0361 -0.7175
   65MOL0     H 8730  12.476   2.925   4.609 -0.5815 -1.1260 -0.6219
   65MOL0     H 8731  12.186   2.923   4.703  0.5224  0.2360 -0.6745
   65MOL0     H 8732  12.309   2.981   4.816  0.4302 -0.2855 -0.4487
   65MOL0     H 8733  12.310   2.700   4.698 -1.3026  1.2306 -0.6970
   65MOL0     H 8734  12.237   2.743   4.850 -0.8038  0.5800 -0.3128
   65MOL0     H 8735  12.675   2.691   4.913  2.6206 -1.7880 -0.0337
   65MOL0     H 8736  12.743   2.517   5.041  1.2690 -1.3426 -1.0799
   65MOL0     H 8737  12.677   2.037   5.152 -1.2614  1.4725  0.8775
   65MOL0     H 8738  12.734   1.844   5.338 -0.4683 -0.1685 -1.4245
   65MOL0     H 8739  12.642   1.834   5.605  0.3743 -2.6399 -1.7986
   65MOL0     H 8740  12.763   1.740   5.503  1.1715  0.7016 -0.7689
   65MOL0     H 8741  12.855   1.660   5.723 -1.0669 -2.1241 -2.1063
   65MOL0     H 8742  12.760   1.761   5.822  0.6759  0.2414 -0.1046
   65MOL0     H 8743  12.546   1.661   5.715 -0.2676  0.8129 -0.8328
   65MOL0     H 8744  12.646   1.530   5.655  1.2413 -1.5698  1.5855
   65MOL0     H 8745  12.601   1.618   5.944 -0.7183  0.9529 -1.4374
   65MOL0     H 8746  12.711   1.488   5.897  3.5816  4.6906 -0.3841
   65MOL0     H 8747  12.486   1.390   5.765  0.1266  1.7330 -1.8850
   65MOL0     H 8748  12.395   1.499   5.869  0.4786  1.7167 -0.6997
   65MOL0     H 8749  12.587   1.284   5.971  0.7927  1.6813 -1.3906
   65MOL0     H 8750  12.483   1.386   6.068 -0.5478  1.0303 -0.7215
   65MOL0     H 8751  12.405   1.149   6.014  3.4908  1.6756  0.8641
   65MOL0     H 8752  12.380   1.195   5.848 -1.0624  1.6374 -0.9541
   65MOL0     H 8753  12.256   1.306   6.089 -0.8129 -1.8019  0.8060
   65MOL0     H 8754  12.221   1.377   5.938 -1.4792 -0.6381 -0.9340
   65MOL0     H 8755  12.908   2.151   5.567  0.6849 -2.6953 -0.1995
   65MOL0     H 8756  12.874   2.322   5.389 -0.5906  1.4762 -0.1895
   65MOL0     H 8757  12.352   2.332   5.004 -0.1381 -0.2473 -3.0970
   65MOL0     H 8758  12.276   2.531   4.890 -0.3680 -0.8001  0.7409
   65MOL0     H 8759  10.893   3.454   4.509 -0.3894  0.7465  0.8533
   65MOL0     H 8760  10.668   3.349   4.469  2.7373  0.4807 -1.4641
   65MOL0     H 8761  10.344   3.233   4.484  0.4524  2.8991  1.8107
   65MOL0     H 8762  10.113   3.265   4.409  2.8861 -1.1239 -1.6277
   65MOL0     H 8763   9.818   3.349   4.693 -1.7345 -0.1925  0.7694
   65MOL0     H 8764   9.782   3.179   4.699  5.7603  0.1203  1.1729
   65MOL0     H 8765   9.676   3.372   4.475 -3.3017  1.8791  1.9244
   65MOL0     H 8766   9.583   3.327   4.611  0.7178  3.2431 -1.2880
   65MOL0     H 8767   9.605   3.073   4.545  2.6933 -1.9170 -1.6857
   65MOL0     H 8768   9.707   3.126   4.411  2.7873  0.8717  1.1934
   65MOL0     H 8769   9.497   3.252   4.320 -1.2346  1.4616  0.9074
   65MOL0     H 8770   9.473   3.073   4.345  0.7916 -0.3673  1.1703
   65MOL0     H 8771   9.151   3.260   4.513  1.3207  1.4253  2.2690
   65MOL0     H 8772   9.972   3.116   4.787  0.4872 -2.3572 -1.0300
   65MOL0     H 8773  10.112   3.010   4.928 -2.4013  3.1783  0.3923
   65MOL0     H 8774  10.284   3.018   4.925 -0.2744 -2.5993 -4.8414
   65MOL0     H 8775  10.185   3.165   4.977 -0.5482  0.3128 -1.2060
   66MOL0     O 8776   3.309   1.297   0.924  0.1471  0.5323 -0.0919
   66MOL0     C 8777   3.331   1.233   0.819  0.2127  0.3353  0.8813
   66MOL0     O 8778   3.445   1.173   0.778 -0.5268 -0.1602  0.0159
   66MOL0     C 8779   3.553   1.183   0.857 -0.1585 -0.3336 -0.5480
   66MOL0     C 8780   3.640   1.294   0.875 -0.0187  1.1668  0.3049
   66MOL0     C 8781   3.757   1.278   0.955 -0.1752  0.5903 -0.4382
   66MOL0     C 8782   3.777   1.157   1.029 -0.3707 -0.0597 -0.0950
   66MOL0     O 8783   3.887   1.153   1.118 -0.1319 -0.4014 -0.5561
   66MOL0     C 8784   3.885   1.056   1.225  0.2881  0.0101  0.4429
   66MOL0     C 8785   3.982   1.080   1.338  0.0205 -0.4092 -0.6983
   66MOL0     C 8786   4.129   1.091   1.284 -0.1102 -0.9096  0.5047
   66MOL0     C 8787   4.215   1.160   1.392  0.1269  0.0754  0.4744
   66MOL0     C 8788   4.354   1.136   1.347  0.0144 -0.2227  0.6286
   66MOL0     C 8789   4.448   1.212   1.432  0.7594  0.1380 -0.1715
   66MOL0     C 8790   4.589   1.225   1.371  0.1553  0.1268 -0.3523
   66MOL0     C 8791   4.654   1.080   1.363  0.1546 -0.0317  0.3492
   66MOL0     N 8792   4.786   1.094   1.301 -0.0963  0.4668  0.2882
   66MOL0     C 8793   4.903   1.123   1.358  0.3041 -1.9079  0.0309
   66MOL0     C 8794   5.008   1.122   1.266  0.4694  0.3309 -0.2365
   66MOL0     C 8795   5.155   1.143   1.280  1.1876 -0.6296  0.9717
   66MOL0     C 8796   5.202   1.223   1.160  0.0390  0.8685 -0.5039
   66MOL0     C 8797   5.353   1.268   1.155 -0.3111 -0.0664  1.0097
   66MOL0     C 8798   5.458   1.161   1.169  0.2005  0.5366 -0.6264
   66MOL0     O 8799   5.586   1.230   1.153 -0.4484  0.2909 -0.3326
   66MOL0     C 8800   5.696   1.148   1.168  0.7021  0.2244 -0.5277
   66MOL0     C 8801   5.697   1.012   1.166 -0.8564  0.6149 -0.1001
   66MOL0     C 8802   5.807   0.937   1.210 -0.3431 -0.3002 -0.1305
   66MOL0     C 8803   5.931   0.999   1.247  0.2693 -0.1909 -0.1168
   66MOL0     C 8804   6.063   0.922   1.279 -0.4468  0.1448 -0.5412
   66MOL0     O 8805   6.184   0.996   1.271 -0.1103  0.4897 -0.3595
   66MOL0     C 8806   6.310   0.957   1.316 -0.0100  0.4279  0.6246
   66MOL0     C 8807   6.396   1.055   1.361 -0.3033  0.5230 -0.9346
   66MOL0     C 8808   6.516   1.017   1.422  0.3862 -0.3781 -0.6399
   66MOL0     C 8809   6.560   0.876   1.417  0.2206 -0.7803 -0.2017
   66MOL0     O 8810   6.679   0.831   1.468 -0.7205  0.3754 -0.2313
   66MOL0     C 8811   6.791   0.922   1.462 -0.0146  0.4616 -0.1562
   66MOL0     C 8812   6.913   0.839   1.412 -0.4241 -0.0854 -0.2096
   66MOL0     C 8813   6.954   0.705   1.490 -0.9267  0.2871  0.5739
   66MOL0     C 8814   7.080   0.643   1.414 -0.5289 -0.4141  0.3913
   66MOL0     C 8815   7.130   0.525   1.490 -0.1967  0.3507 -0.0322
   66MOL0     C 8816   7.268   0.479   1.441  0.1817  0.2691 -0.0946
   66MOL0     C 8817   7.368   0.590   1.458 -0.2261  0.9341  0.1146
   66MOL0     C 8818   7.507   0.543   1.419  0.2577 -0.1563 -0.2634
   66MOL0    Cl 8819   7.630   0.637   1.499  0.0330 -0.0839  0.2822
   66MOL0     C 8820   6.472   0.780   1.377 -0.2491  0.1009 -0.6251
   66MOL0     C 8821   6.353   0.820   1.320  0.9023 -0.2525 -0.8569
   66MOL0     O 8822   6.054   0.806   1.304  0.4048  0.9591 -0.0520
   66MOL0     C 8823   5.932   1.136   1.242  0.3899  0.6829  0.1721
   66MOL0     C 8824   5.817   1.210   1.207  0.1968  0.0398  0.5839
   66MOL0     N 8825   4.936   1.092   1.150 -0.2611  0.4533  0.4804
   66MOL0     N 8826   4.814   1.066   1.174 -0.0699  0.4620  0.7773
   66MOL0     C 8827   3.700   1.041   1.002  0.3424 -0.3380 -0.1634
   66MOL0     C 8828   3.592   1.056   0.910  0.4077 -0.1874  0.2325
   66MOL0     C 8829   3.216   1.208   0.735 -0.0879  0.1716  0.0210
   66MOL0     C 8830   3.087   1.205   0.800  0.1484 -0.7852 -0.1428
   66MOL0     C 8831   2.973   1.152   0.728 -0.0972 -0.2313  0.0699
   66MOL0     C 8832   2.987   1.116   0.593 -0.1665 -0.3379 -1.2519
   66MOL0     O 8833   2.877   1.069   0.519 -0.6844 -0.6683 -0.1299
   66MOL0     C 8834   2.745   1.046   0.565  0.1756  0.6482 -0.5750
   66MOL0     C 8835   2.700   0.922   0.492 -0.3650  0.7597 -0.1138
   66MOL0     C 8836   2.548   0.898   0.509  1.2238  0.1181  0.7057
   66MOL0     C 8837   2.514   0.864   0.655  0.2520  0.0884 -0.3276
   66MOL0     C 8838   2.452   0.963   0.724  0.3508  0.6307 -0.9359
   66MOL0     C 8839   2.407   1.053   0.789 -0.4708 -0.2253 -0.8549
   66MOL0     C 8840   3.104   1.142   0.525 -1.0009 -0.4297 -0.6106
   66MOL0     C 8841   3.224   1.177   0.596 -0.1109  0.3276 -0.5197
   66MOL0     C 8842   3.354   1.156   0.522 -0.1326  0.3626 -0.0067
   66MOL0     H 8843   3.609   1.387   0.828 -0.4398  0.6606 -0.4486
   66MOL0     H 8844   3.845   1.341   0.944  1.4002 -1.1137  1.6005
   66MOL0     H 8845   3.785   1.049   1.268  0.4313 -0.9672  0.6379
   66MOL0     H 8846   3.914   0.964   1.174 -0.1528  0.5616 -0.8665
   66MOL0     H 8847   3.968   1.004   1.415 -1.0418  1.1543  0.7490
   66MOL0     H 8848   3.961   1.177   1.384  5.0166 -0.8883  3.4299
   66MOL0     H 8849   4.132   1.150   1.192 -0.3595 -1.1772  0.3213
   66MOL0     H 8850   4.172   0.993   1.263  4.6308  0.9453  0.4822
   66MOL0     H 8851   4.190   1.266   1.403  0.9161  0.3060  0.0840
   66MOL0     H 8852   4.207   1.118   1.493  1.6369  0.7510  0.9046
   66MOL0     H 8853   4.374   1.029   1.344  1.0342 -0.0448  0.8307
   66MOL0     H 8854   4.366   1.170   1.243  0.5180 -0.2776  0.6647
   66MOL0     H 8855   4.408   1.313   1.442 -0.4659 -0.5228  2.7172
   66MOL0     H 8856   4.452   1.161   1.529 -1.6929  0.9606  0.4280
   66MOL0     H 8857   4.651   1.282   1.441 -1.5463  1.4652  0.1454
   66MOL0     H 8858   4.593   1.279   1.276  0.3692 -0.0091 -0.4198
   66MOL0     H 8859   4.659   1.038   1.464  2.0037 -0.2578  0.1948
   66MOL0     H 8860   4.596   1.010   1.301 -1.0783  2.2403 -1.2173
   66MOL0     H 8861   4.915   1.152   1.462  1.1673  1.7664 -0.9249
   66MOL0     H 8862   5.181   1.176   1.381 -1.3066 -0.1026  1.5177
   66MOL0     H 8863   5.205   1.046   1.278  0.1445 -1.1934  1.2006
   66MOL0     H 8864   5.192   1.164   1.069  3.0136  0.2230 -0.5439
   66MOL0     H 8865   5.153   1.320   1.153  0.5417  1.1506 -0.2285
   66MOL0     H 8866   5.371   1.336   1.239  0.0821  1.6431 -0.4083
   66MOL0     H 8867   5.371   1.323   1.062 -2.8565  0.4095  0.7193
   66MOL0     H 8868   5.435   1.085   1.093 -0.9056  2.3169 -2.1889
   66MOL0     H 8869   5.447   1.119   1.269  1.6984  1.8601  0.1263
   66MOL0     H 8870   5.618   0.950   1.123  2.8013 -1.5310 -4.4969
   66MOL0     H 8871   5.799   0.829   1.203  0.9502 -0.4770  0.8175
   66MOL0     H 8872   6.375   1.161   1.371  1.8699  0.7703  2.7191
   66MOL0     H 8873   6.581   1.093   1.464 -0.7624  0.1574  0.2358
   66MOL0     H 8874   6.775   0.995   1.382  2.3758  0.0192 -1.1075
   66MOL0     H 8875   6.802   0.976   1.557  0.7974  0.2029 -0.1034
   66MOL0     H 8876   6.882   0.812   1.311 -0.4792  0.5846 -0.3745
   66MOL0     H 8877   6.999   0.908   1.413 -1.4536  1.2308  0.5926
   66MOL0     H 8878   6.970   0.719   1.597 -0.0825 -2.3034  0.8744
   66MOL0     H 8879   6.868   0.641   1.471 -0.9087  0.5239 -0.3580
   66MOL0     H 8880   7.158   0.718   1.401  1.7328 -2.4638  1.3858
   66MOL0     H 8881   7.045   0.599   1.320 -0.8308 -4.0603  2.0325
   66MOL0     H 8882   7.058   0.443   1.479  0.6733 -0.9871  3.1283
   66MOL0     H 8883   7.139   0.556   1.595 -0.2865  3.4633 -0.8295
   66MOL0     H 8884   7.305   0.393   1.497  0.9144  0.9471  0.4883
   66MOL0     H 8885   7.274   0.447   1.337 -0.9592 -0.9082  0.1731
   66MOL0     H 8886   7.364   0.632   1.559  2.3773  1.0085  0.2384
   66MOL0     H 8887   7.354   0.674   1.389  0.4405  0.0685 -1.1084
   66MOL0     H 8888   7.516   0.439   1.452 -0.6435 -0.0269  0.4258
   66MOL0     H 8889   7.523   0.561   1.313 -1.1137 -1.3555 -0.7129
   66MOL0     H 8890   6.494   0.674   1.382 -0.7159 -0.0322 -1.2479
   66MOL0     H 8891   6.285   0.744   1.279  0.1714 -1.1743  1.8676
   66MOL0     H 8892   6.025   1.187   1.266  1.7093 -1.9241  0.9543
   66MOL0     H 8893   5.829   1.318   1.205 -0.4853  0.1841 -3.1793
   66MOL0     H 8894   3.715   0.945   1.051 -0.0510 -0.4839 -0.3212
   66MOL0     H 8895   3.531   0.973   0.877  0.6304 -0.6152  0.8914
   66MOL0     H 8896   3.068   1.241   0.900  1.7164 -1.9611  0.6268
   66MOL0     H 8897   2.877   1.158   0.779 -0.5492  3.0990 -0.9133
   66MOL0     H 8898   2.670   1.122   0.539  1.0558  2.3661  1.5905
   66MOL0     H 8899   2.739   1.023   0.672  1.2544 -0.8976 -0.8143
   66MOL0     H 8900   2.752   0.838   0.537  1.4797  0.5202 -2.4760
   66MOL0     H 8901   2.720   0.935   0.385  1.3029  2.7062  0.3573
   66MOL0     H 8902   2.526   0.805   0.456 -2.2625  2.3576 -2.2284
   66MOL0     H 8903   2.495   0.984   0.467  2.5722  1.8826  2.4319
   66MOL0     H 8904   2.450   0.776   0.661  3.4627 -2.3647  0.5109
   66MOL0     H 8905   2.601   0.831   0.711  2.7805  0.4121 -3.7210
   66MOL0     H 8906   2.363   1.124   0.855 -0.2848 -0.6506 -0.2581
   66MOL0     H 8907   3.107   1.113   0.421  4.0196  1.6443 -1.3411
   66MOL0     H 8908   3.413   1.073   0.562  1.2166  2.0048  1.6313
   66MOL0     H 8909   3.340   1.143   0.414 -0.0155 -2.7022  0.2749
   66MOL0     H 8910   3.423   1.241   0.536  1.8460 -1.4631  2.0808
   67MOL0     O 8911   2.245   9.953   2.143 -0.6674  0.2247 -1.0086
   67MOL0     C 8912   2.321   9.980   2.052 -0.4280 -1.1147 -0.2936
   67MOL0     O 8913   2.454   9.943   2.044  0.0889 -0.0868 -0.4432
   67MOL0     C 8914   2.513   9.893   2.156  0.1250 -0.8610  0.0808
   67MOL0     C 8915   2.543   9.759   2.173  0.8719 -0.0463  0.5327
   67MOL0     C 8916   2.620   9.711   2.276 -0.2112  0.8759  0.1289
   67MOL0     C 8917   2.664   9.795   2.380 -1.6678  0.4163  0.8909
   67MOL0     O 8918   2.748   9.736   2.481 -0.3115 -0.6592 -0.0096
   67MOL0     C 8919   2.783   9.804   2.601  0.1788  1.7279 -0.5751
   67MOL0     C 8920   2.890   9.721   2.673  1.0941 -0.3278 -0.3222
   67MOL0     C 8921   3.028   9.749   2.609 -0.1226 -0.0844 -0.0815
   67MOL0     C 8922   3.127   9.689   2.704 -0.2445 -0.0766 -0.5486
   67MOL0     C 8923   3.273   9.714   2.672  0.0038  0.8761  0.5539
   67MOL0     C 8924   3.360   9.665   2.796 -0.4947 -0.1862 -0.5438
   67MOL0     C 8925   3.516   9.679   2.768 -0.8090 -0.7494 -0.7019
   67MOL0     C 8926   3.569   9.594   2.652 -0.7484  0.1824 -0.2027
   67MOL0     N 8927   3.536   9.445   2.666  0.3064 -0.0391  0.1787
   67MOL0     C 8928   3.526   9.371   2.782 -0.1213 -0.3287  0.0462
   67MOL0     C 8929   3.495   9.244   2.747  0.4062  0.6372  0.6783
   67MOL0     C 8930   3.461   9.121   2.834  0.5092 -0.1216  0.2978
   67MOL0     C 8931   3.485   8.995   2.751  0.3655  0.2385  0.1599
   67MOL0     C 8932   3.475   8.868   2.832 -0.3016 -0.6002  0.3312
   67MOL0     C 8933   3.470   8.739   2.744  0.5815 -0.3023 -0.2857
   67MOL0     O 8934   3.596   8.707   2.685  0.2873  0.0021 -0.2422
   67MOL0     C 8935   3.700   8.690   2.772  0.0558  0.5447  0.4696
   67MOL0     C 8936   3.824   8.742   2.731 -0.3211 -0.1331  0.0931
   67MOL0     C 8937   3.945   8.710   2.779 -0.7098  0.6845  1.0122
   67MOL0     C 8938   3.955   8.614   2.880 -0.0476 -0.2379  0.3302
   67MOL0     C 8939   4.086   8.568   2.929 -0.3004  0.1795  0.3718
   67MOL0     O 8940   4.189   8.636   2.886 -0.7617 -0.3513 -0.0875
   67MOL0     C 8941   4.310   8.632   2.952 -0.2207  0.0786  0.2389
   67MOL0     C 8942   4.321   8.614   3.091 -0.0503 -0.0721 -0.5540
   67MOL0     C 8943   4.453   8.626   3.145  0.8928  0.6475  0.0756
   67MOL0     C 8944   4.566   8.642   3.068  0.3442 -0.2779  0.0491
   67MOL0     O 8945   4.687   8.652   3.118  0.2402  0.9265 -0.3937
   67MOL0     C 8946   4.746   8.537   3.176 -0.0966 -0.2192 -0.3939
   67MOL0     C 8947   4.881   8.578   3.251  0.6434  0.0796 -0.4158
   67MOL0     C 8948   4.994   8.568   3.146 -0.3687 -0.9837 -0.6317
   67MOL0     C 8949   5.112   8.661   3.187  0.4355 -0.8308 -0.1263
   67MOL0     C 8950   5.233   8.638   3.096  0.0137  0.7010 -0.9368
   67MOL0     C 8951   5.311   8.492   3.108  0.1941 -0.7183 -0.3224
   67MOL0     C 8952   5.438   8.481   3.011  0.9995 -0.0226 -0.5219
   67MOL0     C 8953   5.546   8.377   3.060 -0.0094 -0.2192  0.0668
   67MOL0    Cl 8954   5.665   8.369   2.928  0.0921  0.1072 -0.0896
   67MOL0     C 8955   4.548   8.646   2.933 -0.4193 -0.2104  0.7185
   67MOL0     C 8956   4.422   8.650   2.869  0.7956 -0.0558 -0.7012
   67MOL0     O 8957   4.087   8.475   3.008 -0.1681  0.1450  0.6254
   67MOL0     C 8958   3.838   8.564   2.932  0.4702 -0.2862  0.1407
   67MOL0     C 8959   3.707   8.597   2.877 -0.0371  0.5290  0.7911
   67MOL0     N 8960   3.489   9.239   2.607  0.1029 -1.0893 -0.5669
   67MOL0     N 8961   3.509   9.360   2.565  0.1747 -0.9627 -0.0083
   67MOL0     C 8962   2.633   9.928   2.367  0.5128 -0.5599 -0.0262
   67MOL0     C 8963   2.556   9.983   2.256  0.3039  0.0080 -0.5318
   67MOL0     C 8964   2.256  10.030   1.933 -1.1942 -0.5896  0.0620
   67MOL0     C 8965   2.119  10.009   1.921  0.5919 -0.5114 -0.7397
   67MOL0     C 8966   2.049  10.048   1.808 -0.7727 -0.1899  0.7456
   67MOL0     C 8967   2.111  10.125   1.706  0.1818 -0.3741 -0.0621
   67MOL0     O 8968   2.034  10.160   1.597  0.1533 -0.3683  0.5233
   67MOL0     C 8969   1.922  10.245   1.608  0.3198  0.6559  0.1183
   67MOL0     C 8970   1.850  10.218   1.479 -0.0584  0.2283 -0.1529
   67MOL0     C 8971   1.712  10.284   1.484  0.4786 -0.2921  0.0320
   67MOL0     C 8972   1.667  10.267   1.343  0.5692 -0.1708 -0.6738
   67MOL0     C 8973   1.738  10.344   1.239 -0.1197  0.1962 -0.8391
   67MOL0     C 8974   1.798  10.422   1.169  0.7197  0.0475  1.1354
   67MOL0     C 8975   2.244  10.153   1.721 -1.3662 -0.7274  0.5972
   67MOL0     C 8976   2.318  10.105   1.828 -0.5837 -0.5114 -0.2315
   67MOL0     C 8977   2.470  10.139   1.832  0.6299  0.8641 -0.2775
   67MOL0     H 8978   2.497   9.682   2.112 -1.5779  0.4481  1.6624
   67MOL0     H 8979   2.639   9.604   2.280 -2.2381  0.5118  1.6169
   67MOL0     H 8980   2.820   9.906   2.588 -0.6142  2.2908  1.3147
   67MOL0     H 8981   2.692   9.809   2.661 -0.9409  1.3947 -2.1746
   67MOL0     H 8982   2.866   9.615   2.678  0.6038 -0.4451 -3.3005
   67MOL0     H 8983   2.889   9.766   2.773 -0.1415  0.6459 -0.7416
   67MOL0     H 8984   3.045   9.857   2.609  1.3190 -0.2793 -1.4504
   67MOL0     H 8985   3.036   9.709   2.508 -2.5346 -0.9787  0.0271
   67MOL0     H 8986   3.111   9.744   2.797  1.8765  2.4041 -1.5254
   67MOL0     H 8987   3.105   9.584   2.725 -0.3126 -0.1826 -1.1389
   67MOL0     H 8988   3.308   9.659   2.584 -0.2263 -1.3211  1.7617
   67MOL0     H 8989   3.291   9.822   2.669  0.1253  0.8454  0.0806
   67MOL0     H 8990   3.327   9.733   2.875 -0.8777 -1.0944  0.0964
   67MOL0     H 8991   3.327   9.565   2.826 -1.3381  0.5022  0.9331
   67MOL0     H 8992   3.572   9.654   2.859 -0.5749 -0.6628 -0.8214
   67MOL0     H 8993   3.541   9.784   2.750  0.2251 -0.4897  1.7597
   67MOL0     H 8994   3.529   9.637   2.560  0.4951  1.4349 -0.1976
   67MOL0     H 8995   3.678   9.603   2.652 -0.5693 -0.7955 -3.4705
   67MOL0     H 8996   3.523   9.414   2.881 -2.0715 -0.6990  0.2042
   67MOL0     H 8997   3.533   9.136   2.915 -0.3813 -1.4209  1.3675
   67MOL0     H 8998   3.364   9.118   2.884  1.4127  3.0198  2.5577
   67MOL0     H 8999   3.399   8.988   2.682 -0.6953 -2.1781  1.6173
   67MOL0     H 9000   3.576   9.006   2.692  2.9534 -1.2532  3.6193
   67MOL0     H 9001   3.381   8.875   2.887  0.4011  0.4867  1.4264
   67MOL0     H 9002   3.542   8.859   2.917 -2.5110  1.4099  2.4216
   67MOL0     H 9003   3.405   8.759   2.658 -1.6980  0.8044  1.5790
   67MOL0     H 9004   3.441   8.652   2.803  0.5950 -0.8299 -1.0365
   67MOL0     H 9005   3.817   8.816   2.651 -1.8191 -1.2188 -0.8357
   67MOL0     H 9006   4.038   8.742   2.734 -1.2196  2.0282  0.8674
   67MOL0     H 9007   4.237   8.595   3.157 -1.4877 -3.3218 -2.9836
   67MOL0     H 9008   4.476   8.620   3.251 -2.4605 -1.7753  0.8339
   67MOL0     H 9009   4.671   8.507   3.249  0.2888  1.6158  0.8230
   67MOL0     H 9010   4.759   8.455   3.106  0.1227 -1.4710  1.0712
   67MOL0     H 9011   4.881   8.670   3.311  1.9080 -0.2556  0.1328
   67MOL0     H 9012   4.903   8.499   3.324 -2.2741 -0.6611 -0.2254
   67MOL0     H 9013   5.026   8.464   3.136  0.2678 -0.7729 -0.8337
   67MOL0     H 9014   4.959   8.593   3.046 -0.6535 -0.5760 -0.4323
   67MOL0     H 9015   5.140   8.656   3.293  3.5672  0.3394 -0.8048
   67MOL0     H 9016   5.075   8.763   3.177  0.9033 -0.5550  0.8786
   67MOL0     H 9017   5.298   8.725   3.108 -1.0240  1.3131  0.5203
   67MOL0     H 9018   5.201   8.627   2.992  2.9122  1.1172 -1.9734
   67MOL0     H 9019   5.362   8.495   3.205  2.3584 -0.0447 -1.4162
   67MOL0     H 9020   5.239   8.412   3.090 -1.1455  0.6378 -1.2681
   67MOL0     H 9021   5.505   8.568   3.007  0.2596  0.5083 -2.3270
   67MOL0     H 9022   5.413   8.454   2.908  0.1632 -3.0118  0.3592
   67MOL0     H 9023   5.586   8.407   3.157 -0.1601 -0.4856  0.2148
   67MOL0     H 9024   5.505   8.276   3.065  0.7138 -0.6167 -1.4556
   67MOL0     H 9025   4.639   8.651   2.874 -0.5366  2.4054  0.6587
   67MOL0     H 9026   4.409   8.675   2.764  1.3963 -1.4731 -1.1349
   67MOL0     H 9027   3.845   8.505   3.022  1.0644  0.6058  0.7024
   67MOL0     H 9028   3.616   8.554   2.919 -1.0174  0.0685 -1.6344
   67MOL0     H 9029   2.669   9.993   2.446  2.3972  0.5584 -1.7166
   67MOL0     H 9030   2.532  10.089   2.248  2.5861  0.6904  0.7568
   67MOL0     H 9031   2.060   9.967   2.002  1.4827 -0.7561 -0.2050
   67MOL0     H 9032   1.941  10.036   1.804 -0.9210  1.1354  0.4111
   67MOL0     H 9033   1.949  10.351   1.609  0.6036  0.7493 -3.6174
   67MOL0     H 9034   1.858  10.208   1.689  2.2148 -2.1436  0.4897
   67MOL0     H 9035   1.847  10.111   1.459  0.6673  0.6206 -2.7689
   67MOL0     H 9036   1.917  10.268   1.407  0.1662  2.7163  1.6554
   67MOL0     H 9037   1.720  10.390   1.510  1.8825 -0.1637 -0.8256
   67MOL0     H 9038   1.638  10.234   1.548  0.2268 -0.9231 -0.7368
   67MOL0     H 9039   1.658  10.160   1.322 -1.0237  0.2290 -2.2294
   67MOL0     H 9040   1.565  10.305   1.342  0.3342 -0.8003 -1.1028
   67MOL0     H 9041   1.843  10.482   1.092  1.5397 -1.1929  0.6176
   67MOL0     H 9042   2.285  10.216   1.643  1.0661  1.0499  3.1311
   67MOL0     H 9043   2.496  10.186   1.737  0.3107 -0.2503 -0.9345
   67MOL0     H 9044   2.500  10.210   1.910  1.9865 -1.2363  1.2073
   67MOL0     H 9045   2.538  10.056   1.851  0.1139  0.9755  2.4560
   68MOL0     O 9046   6.028   1.537   5.306  0.2411  0.0655 -0.5400
   68MOL0     C 9047   6.079   1.456   5.381  0.5538  0.4697 -0.6282
   68MOL0     O 9048   6.005   1.365   5.456 -0.4844 -0.2630  0.0812
   68MOL0     C 9049   5.867   1.372   5.445  0.2051 -0.5846  0.4315
   68MOL0     C 9050   5.798   1.340   5.568 -0.1250  0.2339  0.3213
   68MOL0     C 9051   5.664   1.353   5.583  1.0783 -0.4882  0.2824
   68MOL0     C 9052   5.585   1.379   5.466 -0.7295 -0.4174  0.2507
   68MOL0     O 9053   5.452   1.383   5.468  0.1927  0.4306  0.0016
   68MOL0     C 9054   5.385   1.272   5.536 -1.1190  0.0245  0.2287
   68MOL0     C 9055   5.288   1.327   5.641 -0.0093 -0.9049  0.1389
   68MOL0     C 9056   5.196   1.431   5.572  0.3484 -0.0851  0.4935
   68MOL0     C 9057   5.086   1.480   5.668  0.4454 -0.0098  0.2801
   68MOL0     C 9058   4.959   1.537   5.598  0.8418  0.9899  0.7136
   68MOL0     C 9059   4.965   1.678   5.562  0.2696 -0.7588  0.2992
   68MOL0     C 9060   4.850   1.739   5.481  0.4632  0.1728  0.0288
   68MOL0     C 9061   4.720   1.723   5.561 -0.7329 -0.0694  0.0439
   68MOL0     N 9062   4.715   1.803   5.684 -0.2841 -0.5022  0.2125
   68MOL0     C 9063   4.736   1.933   5.702 -0.2060 -1.0513  0.6942
   68MOL0     C 9064   4.739   1.959   5.836  0.0135 -0.5705 -0.1966
   68MOL0     C 9065   4.785   2.085   5.897  0.3988 -0.4067  0.5413
   68MOL0     C 9066   4.922   2.062   5.955  0.2328 -0.7379 -0.8607
   68MOL0     C 9067   5.024   2.036   5.842  0.1968 -0.5064  0.5428
   68MOL0     C 9068   5.170   2.036   5.901 -0.3388 -0.4418  0.4660
   68MOL0     O 9069   5.207   1.931   5.989 -0.3360  0.1115  0.5574
   68MOL0     C 9070   5.338   1.914   6.017 -0.2780 -0.7453  0.5732
   68MOL0     C 9071   5.440   1.996   5.965 -0.4966  0.2353 -0.1831
   68MOL0     C 9072   5.573   1.957   5.970  0.2996 -0.3625 -0.2435
   68MOL0     C 9073   5.605   1.844   6.044  0.1314  0.5589  0.0632
   68MOL0     C 9074   5.750   1.796   6.052  0.3278  0.3202  0.3913
   68MOL0     O 9075   5.779   1.723   6.159  0.3137  0.3980  0.4985
   68MOL0     C 9076   5.897   1.660   6.178  0.0595 -0.3779 -0.2433
   68MOL0     C 9077   5.920   1.624   6.307 -0.3063  0.0984 -0.3552
   68MOL0     C 9078   6.047   1.577   6.345  0.2207  0.1471  0.0390
   68MOL0     C 9079   6.152   1.554   6.258 -1.0504  0.2055 -0.1041
   68MOL0     O 9080   6.273   1.512   6.305 -0.0904  0.7213 -0.9395
   68MOL0     C 9081   6.381   1.499   6.204 -0.7954 -0.2448  0.1472
   68MOL0     C 9082   6.500   1.481   6.288  0.2682  0.9228 -1.1100
   68MOL0     C 9083   6.492   1.342   6.366  0.4035 -0.0860 -0.1174
   68MOL0     C 9084   6.594   1.317   6.466 -0.1325 -0.4588  0.1242
   68MOL0     C 9085   6.729   1.289   6.397  0.6727 -0.3926  0.0119
   68MOL0     C 9086   6.848   1.267   6.479 -0.3719  0.8830  0.4243
   68MOL0     C 9087   6.961   1.201   6.401  0.2016  0.6178  0.4035
   68MOL0     C 9088   7.049   1.131   6.501  0.2079  0.3553 -0.2095
   68MOL0    Cl 9089   7.106   1.251   6.620 -0.3346 -0.3383 -0.3980
   68MOL0     C 9090   6.140   1.596   6.130  0.6145 -0.4538  0.0776
   68MOL0     C 9091   6.006   1.645   6.087 -0.3118  0.3534 -0.3820
   68MOL0     O 9092   5.823   1.848   5.969 -1.0872  0.2449  0.2956
   68MOL0     C 9093   5.504   1.767   6.108  0.4915 -0.3304  0.0784
   68MOL0     C 9094   5.370   1.802   6.088 -0.2258 -0.3315  0.3063
   68MOL0     N 9095   4.706   1.840   5.898 -0.2792 -0.6338  0.4661
   68MOL0     N 9096   4.693   1.744   5.803  0.9818 -0.3184 -0.0199
   68MOL0     C 9097   5.647   1.404   5.347  0.1297 -1.2408 -0.4480
   68MOL0     C 9098   5.786   1.403   5.335  0.4596  0.2901  0.7706
   68MOL0     C 9099   6.222   1.460   5.412  0.0232 -0.5081 -0.6616
   68MOL0     C 9100   6.283   1.348   5.478 -0.5078  0.0047  0.3263
   68MOL0     C 9101   6.418   1.338   5.502  0.0252 -0.1298 -0.0067
   68MOL0     C 9102   6.497   1.452   5.487 -0.2034 -0.2389  0.4405
   68MOL0     O 9103   6.634   1.463   5.510 -0.0994 -0.0703  0.1805
   68MOL0     C 9104   6.707   1.346   5.535 -0.5060  0.7157  0.2179
   68MOL0     C 9105   6.862   1.370   5.522  0.2218 -1.1128  0.2273
   68MOL0     C 9106   6.911   1.452   5.642 -0.1954 -0.4409  0.5390
   68MOL0     C 9107   6.882   1.600   5.627 -0.1458  0.0927 -0.5163
   68MOL0     C 9108   6.922   1.675   5.747  0.2436 -0.2640  0.1374
   68MOL0     C 9109   6.969   1.744   5.836  0.6675 -0.6836 -0.1742
   68MOL0     C 9110   6.442   1.568   5.432  0.0987 -0.4679  0.0258
   68MOL0     C 9111   6.305   1.580   5.395 -1.0212 -0.0542 -0.7574
   68MOL0     C 9112   6.250   1.718   5.341  1.3433  0.1567  0.6021
   68MOL0     H 9113   5.848   1.312   5.660 -0.1440  1.7980  0.8408
   68MOL0     H 9114   5.623   1.344   5.683  0.2499  2.4173  0.3174
   68MOL0     H 9115   5.336   1.205   5.464 -0.3231  0.5629 -0.8418
   68MOL0     H 9116   5.463   1.215   5.588 -1.9818  0.6871  2.3701
   68MOL0     H 9117   5.353   1.375   5.715 -0.5148 -0.5101  0.3364
   68MOL0     H 9118   5.226   1.252   5.690 -0.4650  1.4950  3.5394
   68MOL0     H 9119   5.147   1.380   5.489  1.2819 -1.4106  0.7297
   68MOL0     H 9120   5.258   1.509   5.527 -0.4392  0.2407 -0.0567
   68MOL0     H 9121   5.058   1.390   5.723  1.6854  0.6354  2.0591
   68MOL0     H 9122   5.133   1.541   5.746 -0.4766  1.1148 -0.0211
   68MOL0     H 9123   4.936   1.488   5.504 -0.0794 -0.5281  1.6891
   68MOL0     H 9124   4.878   1.511   5.667  2.3668 -0.0546  2.1933
   68MOL0     H 9125   4.956   1.725   5.660  1.1070  1.7551 -0.7405
   68MOL0     H 9126   5.061   1.710   5.519  0.3677  1.0899  1.7819
   68MOL0     H 9127   4.834   1.697   5.381 -0.8663  0.3816  0.1281
   68MOL0     H 9128   4.865   1.846   5.462  0.1257  0.2863  0.3820
   68MOL0     H 9129   4.637   1.749   5.495 -1.1350 -1.8014 -0.1808
   68MOL0     H 9130   4.709   1.617   5.585 -1.1379 -0.7431 -2.7721
   68MOL0     H 9131   4.769   2.005   5.627  2.3569  0.5241  3.1766
   68MOL0     H 9132   4.776   2.168   5.825 -0.7737 -1.8794 -1.1015
   68MOL0     H 9133   4.714   2.105   5.978 -0.1291 -0.5460  0.1243
   68MOL0     H 9134   4.959   2.151   6.008  0.1389 -1.9472  1.3528
   68MOL0     H 9135   4.913   1.981   6.027  1.9564 -0.5650 -0.4124
   68MOL0     H 9136   5.017   2.110   5.761  4.2717 -0.0318  0.4167
   68MOL0     H 9137   4.997   1.937   5.804 -2.4115  1.0046 -1.9285
   68MOL0     H 9138   5.193   2.128   5.956  0.0392  0.2554 -0.8305
   68MOL0     H 9139   5.230   2.039   5.810 -1.3997  0.1306 -0.2285
   68MOL0     H 9140   5.436   2.092   5.915  0.7797  1.0512  1.1743
   68MOL0     H 9141   5.650   2.011   5.916  0.9665 -1.1643 -0.1114
   68MOL0     H 9142   5.845   1.627   6.385 -0.6405 -3.0929 -0.4129
   68MOL0     H 9143   6.071   1.555   6.448 -0.0291 -2.3942 -0.3854
   68MOL0     H 9144   6.371   1.414   6.135  1.6379 -0.2766 -0.2525
   68MOL0     H 9145   6.398   1.594   6.152 -2.2842  0.2399  0.5053
   68MOL0     H 9146   6.587   1.481   6.221  1.2948 -0.4015  0.1528
   68MOL0     H 9147   6.502   1.561   6.363 -1.1699 -0.3267  0.3370
   68MOL0     H 9148   6.399   1.343   6.424  0.1893 -1.0834 -0.4164
   68MOL0     H 9149   6.473   1.269   6.286 -0.5545  2.9675 -2.8923
   68MOL0     H 9150   6.566   1.240   6.538 -0.2745 -1.1064 -0.6121
   68MOL0     H 9151   6.599   1.410   6.524 -2.0099  0.7176 -1.5025
   68MOL0     H 9152   6.743   1.364   6.318 -1.7163 -2.2214 -2.3347
   68MOL0     H 9153   6.719   1.195   6.343  2.2086 -1.4888  1.5382
   68MOL0     H 9154   6.879   1.363   6.521  2.6074  0.5531 -0.7267
   68MOL0     H 9155   6.818   1.195   6.555 -1.7834  2.6614  1.6438
   68MOL0     H 9156   7.021   1.271   6.343 -2.0049  1.5169 -0.9210
   68MOL0     H 9157   6.931   1.123   6.330  1.1525 -1.9240  2.5920
   68MOL0     H 9158   6.988   1.053   6.548 -1.7144  0.8713 -1.6906
   68MOL0     H 9159   7.129   1.076   6.450 -0.8267 -1.3199 -0.0986
   68MOL0     H 9160   6.223   1.584   6.061  0.6341  0.2541 -0.0232
   68MOL0     H 9161   5.982   1.672   5.984 -4.2143  1.1212  0.5763
   68MOL0     H 9162   5.528   1.678   6.165  0.0909 -0.7299 -0.3600
   68MOL0     H 9163   5.288   1.745   6.130  1.3858 -2.5062  0.7329
   68MOL0     H 9164   5.580   1.424   5.264 -2.8278  1.0549  2.2110
   68MOL0     H 9165   5.847   1.406   5.245  0.0866  0.7195  0.5297
   68MOL0     H 9166   6.235   1.253   5.500  1.6849 -1.5952 -1.3067
   68MOL0     H 9167   6.464   1.252   5.550 -0.1287 -1.0742 -1.5042
   68MOL0     H 9168   6.677   1.283   5.451 -1.9805 -1.3726  2.1752
   68MOL0     H 9169   6.688   1.295   5.630 -0.9928 -1.1945 -0.8558
   68MOL0     H 9170   6.866   1.427   5.429 -0.6425 -2.3384 -0.5944
   68MOL0     H 9171   6.900   1.267   5.513 -2.7273 -2.3644  1.0057
   68MOL0     H 9172   7.019   1.440   5.639 -0.3533 -1.8823 -0.5178
   68MOL0     H 9173   6.884   1.413   5.741 -0.6972 -1.3984  0.0419
   68MOL0     H 9174   6.921   1.637   5.532 -1.0079  0.2200 -0.8335
   68MOL0     H 9175   6.774   1.612   5.616  0.2208  2.7644 -2.0112
   68MOL0     H 9176   7.023   1.799   5.911  0.3014  0.7598 -0.9330
   68MOL0     H 9177   6.506   1.655   5.435 -1.2197  0.5813  3.3027
   68MOL0     H 9178   6.226   1.711   5.234 -1.0136  1.0417  1.0149
   68MOL0     H 9179   6.162   1.753   5.395 -0.3504  0.7191 -2.2874
   68MOL0     H 9180   6.320   1.801   5.351  0.7129  0.7905 -0.1381
   69MOL0     O 9181   1.814   9.339   4.328 -0.4154 -0.5576 -0.6533
   69MOL0     C 9182   1.766   9.240   4.285  0.8571  0.2795  0.0671
   69MOL0     O 9183   1.637   9.228   4.233 -0.3067  0.7010 -0.4119
   69MOL0     C 9184   1.558   9.342   4.248  0.6061  0.5264 -0.5450
   69MOL0     C 9185   1.441   9.340   4.337  1.1298  0.0970 -0.2861
   69MOL0     C 9186   1.362   9.460   4.342  0.1850 -0.2224  0.3404
   69MOL0     C 9187   1.384   9.558   4.248 -0.0731 -0.9665  0.4133
   69MOL0     O 9188   1.315   9.674   4.253 -0.4914 -0.0516  0.1042
   69MOL0     C 9189   1.288   9.744   4.126 -0.8076  0.2433  0.6761
   69MOL0     C 9190   1.310   9.895   4.147 -0.2399  0.2633 -0.0608
   69MOL0     C 9191   1.450   9.948   4.196 -0.3562  0.9026  0.9712
   69MOL0     C 9192   1.462  10.099   4.206  0.3479  1.1438  0.1249
   69MOL0     C 9193   1.437  10.173   4.065 -0.4484 -0.2813 -0.6103
   69MOL0     C 9194   1.531  10.122   3.956  0.3659 -0.4967  0.7754
   69MOL0     C 9195   1.557  10.226   3.844  0.8719 -0.7855 -0.1075
   69MOL0     C 9196   1.434  10.262   3.758 -0.9007 -0.2021  1.0491
   69MOL0     N 9197   1.395  10.156   3.668  1.0888  0.1299 -1.4288
   69MOL0     C 9198   1.278  10.153   3.597  0.9396  0.2242 -0.8736
   69MOL0     C 9199   1.289  10.050   3.515 -0.4421  0.1026 -0.9540
   69MOL0     C 9200   1.198  10.008   3.410  0.5108  0.4420  0.5832
   69MOL0     C 9201   1.170  10.130   3.320  0.3072 -0.0972 -0.8202
   69MOL0     C 9202   1.105  10.087   3.183 -0.0901 -0.2304 -0.7695
   69MOL0     C 9203   0.971  10.019   3.218  0.9100 -0.9252 -0.2913
   69MOL0     O 9204   0.926   9.973   3.090 -0.1455 -0.4096 -0.0774
   69MOL0     C 9205   0.815   9.894   3.078 -0.1839  0.0510  1.1771
   69MOL0     C 9206   0.760   9.864   2.949  0.0522  0.4399 -0.4334
   69MOL0     C 9207   0.642   9.790   2.940 -0.0162  0.0362  0.4078
   69MOL0     C 9208   0.571   9.752   3.052  0.1064 -0.4282  0.0239
   69MOL0     C 9209   0.442   9.686   3.026  0.0618 -0.5862  0.1132
   69MOL0     O 9210   0.404   9.660   2.895  0.5515 -0.8859  0.0998
   69MOL0     C 9211   0.278   9.608   2.867  0.0816 -0.0730  0.9077
   69MOL0     C 9212   0.224   9.635   2.739  0.1972  0.4498  0.1509
   69MOL0     C 9213   0.094   9.597   2.703 -0.1166  0.6711  0.0670
   69MOL0     C 9214   0.017   9.523   2.793  0.9738  0.4074 -0.2163
   69MOL0     O 9215  -0.111   9.488   2.763 -0.5266 -0.0266  0.3035
   69MOL0     C 9216  -0.160   9.358   2.812  0.3036 -0.6020  0.3328
   69MOL0     C 9217  -0.320   9.356   2.786 -0.8310 -0.2006  0.1848
   69MOL0     C 9218  -0.392   9.399   2.904  0.7765  0.0601 -0.1899
   69MOL0     C 9219  -0.536   9.435   2.875 -0.1015  0.6204 -0.5575
   69MOL0     C 9220  -0.616   9.450   3.003 -0.5376 -0.1399 -0.2222
   69MOL0     C 9221  -0.763   9.484   2.990  0.2480  0.4220 -0.1897
   69MOL0     C 9222  -0.841   9.383   2.919  1.1462  0.9807  0.1114
   69MOL0     C 9223  -0.978   9.445   2.884 -0.1353 -0.4916 -0.1980
   69MOL0    Cl 9224  -1.099   9.335   2.830 -0.2382  0.0956  0.3653
   69MOL0     C 9225   0.075   9.486   2.914  0.1719  0.0800 -0.2851
   69MOL0     C 9226   0.201   9.525   2.951 -0.1885  0.5317  0.5045
   69MOL0     O 9227   0.370   9.665   3.126  0.2801 -0.1989 -0.2483
   69MOL0     C 9228   0.614   9.783   3.176 -0.2810  0.4164  0.6688
   69MOL0     C 9229   0.731   9.857   3.182 -0.9407  0.7299 -0.0204
   69MOL0     N 9230   1.399   9.980   3.554  0.4206 -0.6791  0.6641
   69MOL0     N 9231   1.468  10.048   3.646  0.1248  0.6962 -0.4376
   69MOL0     C 9232   1.502   9.547   4.165  0.4488 -0.3323 -0.5560
   69MOL0     C 9233   1.586   9.442   4.161 -0.1416 -0.2604  0.3598
   69MOL0     C 9234   1.847   9.113   4.263 -0.5468  0.1590  0.5860
   69MOL0     C 9235   1.797   9.022   4.167  0.5283  0.5875 -0.0320
   69MOL0     C 9236   1.871   8.904   4.137  1.8466  0.7847  0.2531
   69MOL0     C 9237   1.986   8.877   4.213  0.2291  0.1202  0.3629
   69MOL0     O 9238   2.062   8.768   4.187 -0.1321 -0.2879  0.2640
   69MOL0     C 9239   1.997   8.638   4.216  0.3140  0.4473 -0.3361
   69MOL0     C 9240   2.113   8.530   4.228 -0.3196  0.4464  0.3823
   69MOL0     C 9241   2.168   8.530   4.375  0.2669  0.2306 -0.2807
   69MOL0     C 9242   2.303   8.469   4.393  0.2409  0.0477 -0.0543
   69MOL0     C 9243   2.297   8.324   4.417  0.9959 -0.9169  1.0983
   69MOL0     C 9244   2.288   8.201   4.432  0.2826 -0.0437  0.2171
   69MOL0     C 9245   2.036   8.957   4.308 -1.3832 -0.6147 -0.3060
   69MOL0     C 9246   1.967   9.078   4.334  0.3829 -0.5142 -0.5728
   69MOL0     C 9247   2.036   9.169   4.428  0.3556  0.3079 -0.6277
   69MOL0     H 9248   1.408   9.254   4.393  1.2009 -0.0849 -0.5217
   69MOL0     H 9249   1.277   9.476   4.407  0.5799  1.1539  0.5379
   69MOL0     H 9250   1.351   9.710   4.043  2.9353  1.0767  2.9487
   69MOL0     H 9251   1.185   9.724   4.094 -0.3692  0.7972 -1.1927
   69MOL0     H 9252   1.238   9.920   4.226  2.1965  0.7152  2.1380
   69MOL0     H 9253   1.286   9.949   4.055 -0.0448  0.9591  0.2901
   69MOL0     H 9254   1.520   9.906   4.124 -0.5065  1.6691  0.3603
   69MOL0     H 9255   1.479   9.894   4.286 -1.8826 -0.0712  0.9249
   69MOL0     H 9256   1.379  10.133   4.270 -1.6219 -1.3655 -0.9254
   69MOL0     H 9257   1.561  10.131   4.240  1.7279  1.1844 -3.5015
   69MOL0     H 9258   1.330  10.173   4.046 -0.0695  1.8106 -3.3828
   69MOL0     H 9259   1.459  10.279   4.081 -2.0067  0.0297 -0.3836
   69MOL0     H 9260   1.630  10.098   3.997  0.1583 -3.6424 -0.2838
   69MOL0     H 9261   1.487  10.033   3.909 -0.6883 -0.0593  0.9078
   69MOL0     H 9262   1.630  10.185   3.774 -0.2322 -0.1178 -1.6985
   69MOL0     H 9263   1.599  10.317   3.889 -0.5967 -0.0976 -0.0739
   69MOL0     H 9264   1.355  10.283   3.831 -0.7950 -2.8118  2.0262
   69MOL0     H 9265   1.445  10.348   3.692  2.2431 -1.8781 -0.8338
   69MOL0     H 9266   1.188  10.213   3.602  1.6083  1.2475 -0.8201
   69MOL0     H 9267   1.252   9.933   3.351  1.8298  1.4354  0.4809
   69MOL0     H 9268   1.117   9.955   3.461  0.7001  1.9833  2.6064
   69MOL0     H 9269   1.105  10.197   3.377  1.1410  0.2729 -0.2740
   69MOL0     H 9270   1.260  10.186   3.293 -0.0715  0.4257 -1.0164
   69MOL0     H 9271   1.166  10.014   3.129 -0.8711 -1.6072  0.1410
   69MOL0     H 9272   1.080  10.168   3.115 -0.4874 -2.3288 -3.2497
   69MOL0     H 9273   0.906  10.098   3.258 -1.8085 -3.6506  1.0828
   69MOL0     H 9274   0.978   9.940   3.293 -0.6354 -1.4977 -0.7140
   69MOL0     H 9275   0.802   9.903   2.857  0.3495  0.1205 -0.4345
   69MOL0     H 9276   0.597   9.773   2.843 -2.4281 -2.1011  1.7889
   69MOL0     H 9277   0.286   9.691   2.670  0.0058 -2.1467 -2.2917
   69MOL0     H 9278   0.047   9.613   2.606 -1.9442  0.3007  0.8376
   69MOL0     H 9279  -0.101   9.275   2.771  1.7321  0.3538  0.3493
   69MOL0     H 9280  -0.149   9.354   2.921 -0.4316 -1.0801  0.3916
   69MOL0     H 9281  -0.335   9.432   2.709  1.6168  2.7210  2.3590
   69MOL0     H 9282  -0.359   9.257   2.761 -0.7154  0.2199 -1.8469
   69MOL0     H 9283  -0.398   9.323   2.982 -1.1351  1.4070  1.0927
   69MOL0     H 9284  -0.337   9.487   2.940 -0.1957  1.4519 -1.9325
   69MOL0     H 9285  -0.575   9.352   2.816  0.0293 -0.8281  1.2808
   69MOL0     H 9286  -0.548   9.526   2.816  1.4676  0.3611 -1.3370
   69MOL0     H 9287  -0.573   9.531   3.063 -1.1848 -0.4132  0.6089
   69MOL0     H 9288  -0.607   9.369   3.075 -0.8209  2.5291  3.0657
   69MOL0     H 9289  -0.805   9.502   3.089  0.3133  0.1477 -0.1116
   69MOL0     H 9290  -0.760   9.581   2.940  4.3673  1.3676  1.5211
   69MOL0     H 9291  -0.856   9.293   2.980 -0.9460 -1.4129 -3.5743
   69MOL0     H 9292  -0.787   9.354   2.829  3.9053 -1.0767  2.2412
   69MOL0     H 9293  -1.023   9.486   2.975  3.4670  1.4165  0.9115
   69MOL0     H 9294  -0.954   9.530   2.818 -0.1142  0.7843  1.3874
   69MOL0     H 9295   0.020   9.427   2.987 -1.1333  0.2942 -1.0704
   69MOL0     H 9296   0.231   9.511   3.054  1.0416  2.3894  0.4662
   69MOL0     H 9297   0.554   9.755   3.262  0.3509  0.3013  1.0753
   69MOL0     H 9298   0.776   9.878   3.279 -0.9364  0.3794  0.0568
   69MOL0     H 9299   1.516   9.630   4.097  0.9066  0.3980  0.3971
   69MOL0     H 9300   1.679   9.450   4.105 -0.3451  1.3030  0.1995
   69MOL0     H 9301   1.706   9.034   4.109 -0.6869  3.4997  2.2146
   69MOL0     H 9302   1.834   8.839   4.058  0.8012  3.2843 -1.4626
   69MOL0     H 9303   1.924   8.619   4.137 -1.3779  0.7328  1.0818
   69MOL0     H 9304   1.942   8.640   4.311  2.4360 -1.7666  1.0773
   69MOL0     H 9305   2.195   8.544   4.157  2.3042  1.7096  3.3970
   69MOL0     H 9306   2.062   8.434   4.219 -0.7527  0.7801 -0.8730
   69MOL0     H 9307   2.100   8.484   4.447  2.6248  1.1499  2.7363
   69MOL0     H 9308   2.171   8.635   4.406 -0.2411 -0.4752  2.3754
   69MOL0     H 9309   2.370   8.480   4.307  0.6822 -2.4902 -0.0988
   69MOL0     H 9310   2.341   8.519   4.483  0.2442 -1.7063  0.9540
   69MOL0     H 9311   2.293   8.094   4.429 -1.6544 -0.1976  1.3266
   69MOL0     H 9312   2.132   8.925   4.346 -0.5413  1.4848 -0.5330
   69MOL0     H 9313   1.962   9.224   4.488  0.7744  2.2229 -1.7563
   69MOL0     H 9314   2.108   9.122   4.495  0.0124 -0.7624 -0.9848
   69MOL0     H 9315   2.088   9.245   4.369  2.6808 -1.1184 -0.5303
   70MOL0     O 9316   0.034   0.541   4.266 -0.0764  0.4659  0.0055
   70MOL0     C 9317  -0.067   0.567   4.203 -0.3435  0.0487  0.5617
   70MOL0     O 9318  -0.073   0.645   4.085 -0.1667  0.2689  0.3206
   70MOL0     C 9319   0.038   0.690   4.024  0.0807 -0.8184 -0.0466
   70MOL0     C 9320   0.056   0.829   3.999 -0.2331  1.1431  0.4417
   70MOL0     C 9321   0.164   0.861   3.914  0.3040 -0.0312  0.3715
   70MOL0     C 9322   0.256   0.764   3.864 -0.6766  0.1132 -0.0651
   70MOL0     O 9323   0.350   0.801   3.773 -0.2013 -0.2234 -0.2450
   70MOL0     C 9324   0.486   0.753   3.821 -0.4788 -0.5309  0.1783
   70MOL0     C 9325   0.584   0.862   3.842 -0.8533 -1.3313  0.0126
   70MOL0     C 9326   0.572   0.958   3.967  0.0028  1.0539  0.7443
   70MOL0     C 9327   0.708   1.043   3.978 -0.2961 -0.1134 -0.2947
   70MOL0     C 9328   0.719   1.124   4.101 -0.3731 -0.2961 -1.1237
   70MOL0     C 9329   0.727   1.045   4.222 -0.2206  0.2304 -0.7429
   70MOL0     C 9330   0.715   1.130   4.350  0.4089  0.1138  0.2373
   70MOL0     C 9331   0.714   1.043   4.471  0.9697  0.5337  0.4486
   70MOL0     N 9332   0.847   1.026   4.517  0.2757  0.1537  0.1300
   70MOL0     C 9333   0.920   1.129   4.550 -0.3922  0.0162 -0.5193
   70MOL0     C 9334   1.046   1.073   4.585 -0.0952  0.3282  0.8424
   70MOL0     C 9335   1.161   1.155   4.617  0.0509 -0.6638 -0.1232
   70MOL0     C 9336   1.188   1.153   4.772  0.4592 -0.2281 -0.2488
   70MOL0     C 9337   1.219   1.019   4.839 -0.8239 -0.7658  1.1722
   70MOL0     C 9338   1.349   0.950   4.792  0.0021 -0.1256 -0.4196
   70MOL0     O 9339   1.472   1.010   4.842  0.1506  0.0060 -0.4230
   70MOL0     C 9340   1.579   0.937   4.834 -1.0305  0.4629  0.3516
   70MOL0     C 9341   1.598   0.814   4.766  0.6160 -0.3888 -0.1769
   70MOL0     C 9342   1.722   0.752   4.764 -0.2323  0.1658 -0.1914
   70MOL0     C 9343   1.835   0.808   4.825  0.7269 -0.3619 -0.3166
   70MOL0     C 9344   1.965   0.736   4.819  0.1323 -1.1078  0.4633
   70MOL0     O 9345   2.069   0.810   4.863 -0.1159 -0.0766  0.0579
   70MOL0     C 9346   2.198   0.766   4.869 -0.3036 -0.2893  0.7686
   70MOL0     C 9347   2.250   0.638   4.842  0.0108 -0.2416 -0.0409
   70MOL0     C 9348   2.391   0.620   4.856  0.8471  0.1556 -0.5796
   70MOL0     C 9349   2.476   0.719   4.904 -0.1999  0.4440 -1.1839
   70MOL0     O 9350   2.612   0.713   4.925  0.2404 -0.2959  0.4251
   70MOL0     C 9351   2.679   0.591   4.883  0.7372  0.3212 -0.7725
   70MOL0     C 9352   2.828   0.597   4.879  1.0084 -1.0630  0.5834
   70MOL0     C 9353   2.886   0.599   5.022 -0.8001  0.1939 -0.2795
   70MOL0     C 9354   3.034   0.631   5.028  0.6457  0.2094 -1.1316
   70MOL0     C 9355   3.088   0.643   5.170 -0.0378 -0.8194 -0.4678
   70MOL0     C 9356   3.045   0.774   5.242 -0.3353  0.2899  0.4692
   70MOL0     C 9357   3.096   0.798   5.386  0.0968  0.6363  0.0502
   70MOL0     C 9358   3.062   0.927   5.466 -0.2953 -0.2712  0.4958
   70MOL0    Cl 9359   3.096   1.070   5.359 -0.2732  0.4589  0.1875
   70MOL0     C 9360   2.427   0.848   4.926  0.9906 -0.3704 -0.4113
   70MOL0     C 9361   2.286   0.867   4.904  0.6394  0.0147 -0.1878
   70MOL0     O 9362   1.968   0.621   4.778  0.5044 -0.8122  0.0554
   70MOL0     C 9363   1.816   0.936   4.887  0.6286 -0.5424 -0.7298
   70MOL0     C 9364   1.690   0.993   4.902  0.6765 -0.6817  0.5488
   70MOL0     N 9365   1.039   0.935   4.566 -0.8795 -1.0885  0.4762
   70MOL0     N 9366   0.920   0.916   4.532  0.4752  0.3363 -0.7751
   70MOL0     C 9367   0.232   0.633   3.896 -0.5253  0.6902 -0.6585
   70MOL0     C 9368   0.132   0.596   3.983  0.9358 -1.7470 -0.5885
   70MOL0     C 9369  -0.195   0.511   4.256 -0.6836  0.4345 -0.3701
   70MOL0     C 9370  -0.303   0.587   4.289  0.4410 -0.3414 -0.6410
   70MOL0     C 9371  -0.432   0.540   4.333 -0.4292  0.3033 -0.1165
   70MOL0     C 9372  -0.440   0.402   4.369  0.6470  0.7136  1.0527
   70MOL0     O 9373  -0.546   0.337   4.423 -0.6985  0.3835 -0.5750
   70MOL0     C 9374  -0.647   0.411   4.490 -0.0300  0.1685  0.0690
   70MOL0     C 9375  -0.746   0.312   4.558  0.0126 -0.4488 -0.4960
   70MOL0     C 9376  -0.685   0.193   4.632 -0.8598 -0.4410  0.5228
   70MOL0     C 9377  -0.780   0.133   4.738 -0.1285 -0.8712  0.5281
   70MOL0     C 9378  -0.729  -0.002   4.764 -0.4816  0.2174  1.7294
   70MOL0     C 9379  -0.694  -0.116   4.766  0.5326 -0.0100 -0.8762
   70MOL0     C 9380  -0.333   0.324   4.330  0.9488  0.7194  0.5351
   70MOL0     C 9381  -0.211   0.372   4.271  0.2675  0.6704 -0.2723
   70MOL0     C 9382  -0.097   0.271   4.238 -0.5262  0.5485  0.2132
   70MOL0     H 9383  -0.014   0.905   4.034 -1.3300  0.2884  0.1646
   70MOL0     H 9384   0.181   0.964   3.885  1.6930  0.9460  4.0824
   70MOL0     H 9385   0.479   0.701   3.917 -0.3438 -1.1113 -0.1244
   70MOL0     H 9386   0.534   0.692   3.744 -1.0713  1.3987 -1.8275
   70MOL0     H 9387   0.577   0.923   3.751 -3.8252 -0.8494  0.4599
   70MOL0     H 9388   0.684   0.820   3.851  0.8277  2.0416 -1.1896
   70MOL0     H 9389   0.555   0.893   4.054  1.9507 -2.1325 -1.0257
   70MOL0     H 9390   0.497   1.037   3.952 -0.6012  0.4909  0.7211
   70MOL0     H 9391   0.797   0.979   3.980  0.2883  0.6063 -1.6939
   70MOL0     H 9392   0.723   1.108   3.892 -3.3415  1.9732  0.5784
   70MOL0     H 9393   0.806   1.189   4.104 -1.2889  0.9362  0.0953
   70MOL0     H 9394   0.636   1.193   4.116  1.3287  2.1289 -2.3528
   70MOL0     H 9395   0.652   0.965   4.222 -0.7909  0.7406 -1.4018
   70MOL0     H 9396   0.826   0.998   4.220  0.0358  0.7718 -0.9817
   70MOL0     H 9397   0.614   1.172   4.344 -0.5437 -1.8308  1.5737
   70MOL0     H 9398   0.795   1.204   4.359  1.5394 -1.0471  0.0816
   70MOL0     H 9399   0.654   1.093   4.548  1.5095  0.8721  0.6569
   70MOL0     H 9400   0.681   0.941   4.451  1.9343  0.7834 -3.0461
   70MOL0     H 9401   0.879   1.229   4.565 -0.1897 -0.4331  4.7872
   70MOL0     H 9402   1.250   1.117   4.565 -0.6776 -1.4291 -0.8408
   70MOL0     H 9403   1.155   1.261   4.589 -2.3706 -0.1729  1.9455
   70MOL0     H 9404   1.265   1.229   4.787  0.3107 -0.1113 -0.0763
   70MOL0     H 9405   1.095   1.191   4.814 -0.3395 -3.4634  1.1931
   70MOL0     H 9406   1.135   0.953   4.817  0.5298 -2.4175  0.7159
   70MOL0     H 9407   1.229   1.032   4.947  0.5305  1.9595  0.7957
   70MOL0     H 9408   1.347   0.913   4.689  0.3421 -0.3707 -0.3407
   70MOL0     H 9409   1.352   0.855   4.848  4.4457 -0.1104 -0.2995
   70MOL0     H 9410   1.520   0.763   4.710 -1.1770  0.3517  1.5682
   70MOL0     H 9411   1.732   0.659   4.710 -0.7969 -0.5525  0.9057
   70MOL0     H 9412   2.188   0.554   4.814  1.3508 -0.4630 -2.6114
   70MOL0     H 9413   2.434   0.521   4.842  0.4137 -0.2140  0.5495
   70MOL0     H 9414   2.639   0.514   4.950  2.0361 -0.4614 -0.8482
   70MOL0     H 9415   2.651   0.566   4.780 -1.0694  0.1853 -0.2748
   70MOL0     H 9416   2.865   0.504   4.833 -2.2870 -1.0024 -2.6303
   70MOL0     H 9417   2.855   0.681   4.816 -1.4669 -1.1500 -0.7117
   70MOL0     H 9418   2.837   0.674   5.085  0.0769 -0.8520  1.7623
   70MOL0     H 9419   2.856   0.505   5.069 -1.0570  0.2263 -0.3773
   70MOL0     H 9420   3.048   0.724   4.972 -2.1684  1.8085  0.6002
   70MOL0     H 9421   3.091   0.550   4.982 -0.2256  0.9680 -3.7097
   70MOL0     H 9422   3.197   0.634   5.172  0.4888  3.3247  1.2261
   70MOL0     H 9423   3.054   0.556   5.227 -0.2851 -1.0370 -0.9438
   70MOL0     H 9424   3.086   0.857   5.182  2.0535 -1.4189 -0.4306
   70MOL0     H 9425   2.938   0.788   5.227 -0.1681  0.1693 -0.9326
   70MOL0     H 9426   3.205   0.794   5.385  0.0761 -1.0213  0.6002
   70MOL0     H 9427   3.063   0.713   5.446 -4.0745  1.5556 -0.6163
   70MOL0     H 9428   2.955   0.932   5.486 -0.4297 -0.2530 -0.1838
   70MOL0     H 9429   3.119   0.945   5.557 -1.8657 -0.0550  1.4757
   70MOL0     H 9430   2.488   0.932   4.956  1.4944 -0.1937 -1.8595
   70MOL0     H 9431   2.245   0.960   4.943 -0.6118 -0.7715  0.4240
   70MOL0     H 9432   1.904   0.979   4.932  0.8271 -2.2887  0.6188
   70MOL0     H 9433   1.678   1.085   4.958 -0.0097  0.6273 -1.6654
   70MOL0     H 9434   0.291   0.556   3.848  0.0539  0.4738  0.3763
   70MOL0     H 9435   0.127   0.493   4.016  0.6489 -2.5317 -2.9167
   70MOL0     H 9436  -0.294   0.695   4.283 -1.7716 -0.0223  0.6839
   70MOL0     H 9437  -0.513   0.613   4.340  1.3638  2.3962 -0.1655
   70MOL0     H 9438  -0.712   0.463   4.419 -1.1371 -1.3815 -0.1021
   70MOL0     H 9439  -0.606   0.489   4.556 -2.8465  0.6308  1.4343
   70MOL0     H 9440  -0.813   0.273   4.480 -3.5766  1.0374  1.5838
   70MOL0     H 9441  -0.801   0.372   4.631  1.4516  1.1355 -0.6714
   70MOL0     H 9442  -0.586   0.216   4.671 -1.4436  2.6773  0.4515
   70MOL0     H 9443  -0.652   0.121   4.557  0.4141  0.5682  0.0834
   70MOL0     H 9444  -0.788   0.194   4.829 -2.2545  0.2654 -0.3456
   70MOL0     H 9445  -0.874   0.118   4.685  0.3406 -0.0222 -0.5912
   70MOL0     H 9446  -0.663  -0.217   4.786 -3.4484 -1.1889  0.4439
   70MOL0     H 9447  -0.339   0.218   4.353 -1.2292  0.9237  1.0797
   70MOL0     H 9448  -0.057   0.295   4.139  0.1707  3.4431  1.0882
   70MOL0     H 9449  -0.027   0.276   4.322 -1.5664 -0.1874  1.1575
   70MOL0     H 9450  -0.150   0.176   4.227  0.6565  0.1710 -3.3177
   71MOL0     O 9451   3.819   7.608   4.732 -0.5698 -0.0916 -0.2073
   71MOL0     C 9452   3.849   7.628   4.853  0.6312  0.4652  0.2217
   71MOL0     O 9453   3.958   7.586   4.914  0.0165 -0.2735  0.8590
   71MOL0     C 9454   4.049   7.501   4.852 -0.6260 -0.7193  0.2568
   71MOL0     C 9455   4.123   7.558   4.746 -0.6773 -0.7210 -0.4479
   71MOL0     C 9456   4.220   7.477   4.681 -0.2518 -0.3921 -0.1459
   71MOL0     C 9457   4.249   7.350   4.734  0.2928  0.5637  0.4833
   71MOL0     O 9458   4.357   7.280   4.683  0.0472  0.3311 -0.0833
   71MOL0     C 9459   4.371   7.146   4.736 -0.2339  0.6866  0.8494
   71MOL0     C 9460   4.452   7.073   4.634  0.4914  0.0561 -0.0870
   71MOL0     C 9461   4.592   7.125   4.611 -0.4945  0.5087 -0.2347
   71MOL0     C 9462   4.655   7.026   4.507  0.1754  0.9825 -0.4311
   71MOL0     C 9463   4.790   7.065   4.461 -0.2290  0.1274 -0.0713
   71MOL0     C 9464   4.873   6.961   4.397  0.5866  0.3617  0.0621
   71MOL0     C 9465   5.015   7.004   4.376 -0.1041 -0.2287  0.4855
   71MOL0     C 9466   5.084   6.926   4.265 -0.3580 -0.0960 -0.5309
   71MOL0     N 9467   5.224   6.954   4.243  0.0463  0.0992  0.0211
   71MOL0     C 9468   5.292   7.084   4.232  0.6342  0.1452 -0.2750
   71MOL0     C 9469   5.413   7.050   4.179  0.0439 -0.2166  0.7248
   71MOL0     C 9470   5.529   7.142   4.144 -0.8408  0.0664 -0.2429
   71MOL0     C 9471   5.559   7.165   3.997 -0.7325 -0.0405  0.0884
   71MOL0     C 9472   5.641   7.055   3.942  1.0544 -0.3635  0.2766
   71MOL0     C 9473   5.662   7.090   3.795 -0.1252  0.2113 -0.1366
   71MOL0     O 9474   5.755   7.006   3.727  0.6732  0.3083 -0.2772
   71MOL0     C 9475   5.889   7.023   3.735 -0.5223  0.4489 -0.7155
   71MOL0     C 9476   5.966   6.934   3.659  0.6299  0.1929 -0.4521
   71MOL0     C 9477   6.110   6.943   3.665 -0.5395 -0.0584 -0.6316
   71MOL0     C 9478   6.171   7.052   3.725 -0.9556  0.3197  0.0606
   71MOL0     C 9479   6.324   7.058   3.736  0.4177 -0.3074  0.3132
   71MOL0     O 9480   6.378   7.119   3.839  0.5615 -0.4818 -0.7601
   71MOL0     C 9481   6.506   7.104   3.842 -0.7316 -0.3188 -0.6834
   71MOL0     C 9482   6.563   7.018   3.934  0.3654  0.7920  0.2382
   71MOL0     C 9483   6.699   6.989   3.943  0.9174 -0.2675  1.0645
   71MOL0     C 9484   6.786   7.061   3.851  0.5124  0.2741 -0.6810
   71MOL0     O 9485   6.911   7.033   3.868 -0.3625  0.0277  0.5420
   71MOL0     C 9486   7.000   7.091   3.763 -0.0602  0.6226 -0.0584
   71MOL0     C 9487   7.132   7.015   3.782 -0.5744  0.5672  0.1874
   71MOL0     C 9488   7.214   7.074   3.899  0.3197 -0.6275  0.5331
   71MOL0     C 9489   7.353   7.011   3.915  0.1276 -0.1328 -0.3250
   71MOL0     C 9490   7.407   7.034   4.058 -0.2669  0.1297  0.1023
   71MOL0     C 9491   7.458   7.171   4.080 -0.3423  0.4904 -0.0991
   71MOL0     C 9492   7.544   7.196   4.213  0.5651 -0.6262  0.6797
   71MOL0     C 9493   7.595   7.338   4.232 -0.0450 -0.0068  0.1864
   71MOL0    Cl 9494   7.721   7.396   4.121 -0.0992 -0.0638  0.0632
   71MOL0     C 9495   6.729   7.152   3.758  0.0351  0.3470 -0.1084
   71MOL0     C 9496   6.591   7.173   3.755  0.7016 -0.0291 -0.0539
   71MOL0     O 9497   6.384   7.021   3.636 -0.1941  0.1437  0.2132
   71MOL0     C 9498   6.099   7.147   3.786 -0.8090 -0.6940  0.0572
   71MOL0     C 9499   5.958   7.140   3.789  0.5794 -0.0991  0.3224
   71MOL0     N 9500   5.417   6.915   4.156 -0.1437  0.0955  0.0085
   71MOL0     N 9501   5.311   6.862   4.206 -0.2407  0.0698  0.1681
   71MOL0     C 9502   4.173   7.299   4.844  0.0988  0.3612  0.2501
   71MOL0     C 9503   4.076   7.377   4.904 -0.2100 -0.1513  0.4058
   71MOL0     C 9504   3.772   7.724   4.934  0.4530  0.2424  0.1036
   71MOL0     C 9505   3.638   7.742   4.896  0.0681  0.4286 -0.6105
   71MOL0     C 9506   3.550   7.825   4.956  0.1134 -0.0480 -0.3580
   71MOL0     C 9507   3.602   7.923   5.040  0.4177  0.2170 -0.8498
   71MOL0     O 9508   3.527   8.016   5.101  0.4583  0.1543  0.6506
   71MOL0     C 9509   3.398   8.039   5.038  0.2398  0.5036 -0.2665
   71MOL0     C 9510   3.339   8.176   5.090  0.6154 -0.1916 -0.1041
   71MOL0     C 9511   3.338   8.196   5.239 -0.6348 -0.2340  0.1083
   71MOL0     C 9512   3.270   8.320   5.285  0.2369  0.3281 -0.0427
   71MOL0     C 9513   3.330   8.445   5.227 -0.1164  1.0920 -0.0877
   71MOL0     C 9514   3.364   8.544   5.167  0.9827 -0.4840  0.4134
   71MOL0     C 9515   3.734   7.915   5.076  0.2050 -0.3685  0.3255
   71MOL0     C 9516   3.818   7.818   5.020 -0.5241  0.1497 -0.4149
   71MOL0     C 9517   3.973   7.843   5.052  0.3825 -0.2422  0.2857
   71MOL0     H 9518   4.105   7.658   4.707 -2.8565 -0.6646  0.5071
   71MOL0     H 9519   4.288   7.510   4.603  0.1648  1.4999  0.9568
   71MOL0     H 9520   4.426   7.134   4.829 -1.6555 -1.0557  1.5294
   71MOL0     H 9521   4.275   7.092   4.733 -0.9072  1.8899 -0.8319
   71MOL0     H 9522   4.405   7.071   4.535  3.3181 -0.1472 -1.5390
   71MOL0     H 9523   4.458   6.973   4.676 -0.1003  0.6680  1.5298
   71MOL0     H 9524   4.648   7.124   4.705  1.3046 -1.5318 -1.2491
   71MOL0     H 9525   4.596   7.221   4.558  1.3243 -0.4618 -1.9558
   71MOL0     H 9526   4.657   6.926   4.553 -4.2146 -0.2362 -2.3415
   71MOL0     H 9527   4.581   7.022   4.426 -1.3015  2.2121  0.7994
   71MOL0     H 9528   4.781   7.151   4.394 -0.9747  0.7493  0.8171
   71MOL0     H 9529   4.848   7.091   4.550  1.3623 -0.5794 -0.8463
   71MOL0     H 9530   4.877   6.868   4.455 -0.3347  0.2116 -0.0887
   71MOL0     H 9531   4.821   6.945   4.302  0.5202 -1.8541  0.4209
   71MOL0     H 9532   5.069   7.003   4.470  0.9501 -4.2971  0.0287
   71MOL0     H 9533   5.013   7.109   4.346  0.4935 -0.7228 -1.4568
   71MOL0     H 9534   5.076   6.819   4.288 -0.3716  0.1341  0.5580
   71MOL0     H 9535   5.038   6.941   4.167 -0.1262 -1.3705 -0.8508
   71MOL0     H 9536   5.255   7.186   4.242  0.4183 -0.0396  0.9582
   71MOL0     H 9537   5.496   7.237   4.186  1.9284  0.9331  0.1968
   71MOL0     H 9538   5.621   7.103   4.189 -0.4748 -2.0159 -2.6107
   71MOL0     H 9539   5.465   7.180   3.944 -1.2149  0.4483  1.0847
   71MOL0     H 9540   5.601   7.266   3.991 -2.3120  0.5847 -1.2289
   71MOL0     H 9541   5.587   6.962   3.960  3.0194 -1.0028  3.8732
   71MOL0     H 9542   5.733   7.052   4.002  1.0113 -0.9406  0.3112
   71MOL0     H 9543   5.686   7.196   3.783 -0.6759  0.2487 -0.9634
   71MOL0     H 9544   5.565   7.072   3.749 -1.0726 -0.2070  1.9164
   71MOL0     H 9545   5.909   6.855   3.610 -0.3345  0.2077  0.6088
   71MOL0     H 9546   6.172   6.867   3.619 -1.4355 -0.2634 -1.5267
   71MOL0     H 9547   6.491   6.964   3.995 -1.4487  0.2603 -2.2323
   71MOL0     H 9548   6.750   6.923   4.013  0.6588 -1.3801  0.2234
   71MOL0     H 9549   6.957   7.067   3.666 -0.2802 -2.4720  0.7010
   71MOL0     H 9550   7.026   7.194   3.790  2.5585 -0.4427  2.0161
   71MOL0     H 9551   7.115   6.910   3.808  0.0947  0.5046  0.3905
   71MOL0     H 9552   7.186   7.015   3.687 -1.0266  0.9255 -0.0716
   71MOL0     H 9553   7.227   7.179   3.872 -2.8808 -0.2884 -0.0607
   71MOL0     H 9554   7.161   7.070   3.995  1.4459  2.0714  1.3708
   71MOL0     H 9555   7.430   7.035   3.840  0.4523 -1.0010 -0.2814
   71MOL0     H 9556   7.349   6.902   3.912 -0.1849 -0.1059 -1.0225
   71MOL0     H 9557   7.484   6.957   4.070 -1.6661 -1.8522 -2.5147
   71MOL0     H 9558   7.332   7.014   4.135  0.3395  0.4875  0.7941
   71MOL0     H 9559   7.526   7.199   3.999  0.0791  0.8377  0.3660
   71MOL0     H 9560   7.376   7.244   4.076 -1.4610 -0.7993 -2.2260
   71MOL0     H 9561   7.630   7.129   4.207  1.7245  0.9134 -0.8883
   71MOL0     H 9562   7.492   7.164   4.304  0.4201 -3.4989 -0.3420
   71MOL0     H 9563   7.516   7.414   4.230  1.7421  2.0950  2.9556
   71MOL0     H 9564   7.632   7.339   4.334 -3.3865 -2.2408  1.6128
   71MOL0     H 9565   6.798   7.198   3.689  1.6852  0.6796  1.6950
   71MOL0     H 9566   6.545   7.228   3.674  0.2057  2.6798  1.9116
   71MOL0     H 9567   6.143   7.242   3.816  1.6809 -1.3684 -1.2211
   71MOL0     H 9568   5.909   7.228   3.829 -0.5921 -0.9325  0.7848
   71MOL0     H 9569   4.190   7.202   4.892 -1.8550  0.1140  0.4997
   71MOL0     H 9570   4.036   7.334   4.996  0.4827  0.2867  0.9220
   71MOL0     H 9571   3.593   7.679   4.820 -0.0434 -1.3673  0.8691
   71MOL0     H 9572   3.447   7.822   4.923 -0.3809 -1.0122  1.1698
   71MOL0     H 9573   3.341   7.953   5.076 -1.3440  1.8335  0.4924
   71MOL0     H 9574   3.401   8.044   4.929  0.2140  2.0854 -0.2078
   71MOL0     H 9575   3.239   8.168   5.049  0.9716 -0.3570 -0.9592
   71MOL0     H 9576   3.387   8.268   5.056 -0.8583  0.7350  0.2479
   71MOL0     H 9577   3.438   8.191   5.283 -0.8277  1.7787  0.9126
   71MOL0     H 9578   3.276   8.110   5.262 -0.3352 -0.7720 -1.0185
   71MOL0     H 9579   3.162   8.324   5.274  0.3756  0.3792 -1.5476
   71MOL0     H 9580   3.275   8.327   5.394  2.8898  2.3120 -0.1826
   71MOL0     H 9581   3.397   8.627   5.108  0.3100  0.6839  1.6407
   71MOL0     H 9582   3.775   7.989   5.143 -2.5606  1.6172 -0.0176
   71MOL0     H 9583   4.026   7.771   5.114 -0.0503 -0.8941 -0.0862
   71MOL0     H 9584   4.032   7.852   4.960 -1.3294  2.1584 -0.6859
   71MOL0     H 9585   3.985   7.942   5.096 -1.2649  0.7418 -1.3298
   72MOL0     O 9586   9.569   2.573   0.660 -0.4499 -0.0806 -0.4957
   72MOL0     C 9587   9.526   2.587   0.549  0.4455 -0.0916  0.9706
   72MOL0     O 9588   9.423   2.668   0.510 -0.1222 -0.4100 -0.0307
   72MOL0     C 9589   9.350   2.744   0.595 -0.6197  0.1330 -1.1608
   72MOL0     C 9590   9.212   2.771   0.565 -0.4245 -0.1078 -0.3535
   72MOL0     C 9591   9.138   2.860   0.634  0.3604 -0.2204  0.1772
   72MOL0     C 9592   9.194   2.935   0.745  0.7550  0.4402  0.7067
   72MOL0     O 9593   9.107   3.024   0.807 -0.6809  0.5394  0.8509
   72MOL0     C 9594   9.161   3.152   0.829  1.0172  0.0807 -0.8356
   72MOL0     C 9595   9.052   3.238   0.890 -0.5835 -0.1618 -0.1519
   72MOL0     C 9596   8.925   3.240   0.803 -1.0662  0.0704 -0.4284
   72MOL0     C 9597   8.902   3.347   0.700  0.2797 -0.9542  0.0064
   72MOL0     C 9598   8.775   3.314   0.618  0.4150 -0.2679 -0.3272
   72MOL0     C 9599   8.749   3.419   0.516  1.1838  0.3061  0.7522
   72MOL0     C 9600   8.601   3.412   0.455 -0.3891  0.1903  0.3019
   72MOL0     C 9601   8.572   3.528   0.358  0.6163 -0.8285 -0.5653
   72MOL0     N 9602   8.640   3.527   0.228 -0.2073  0.5334 -0.2111
   72MOL0     C 9603   8.630   3.427   0.129 -0.1948 -0.2999 -0.2488
   72MOL0     C 9604   8.710   3.461   0.028 -0.4190 -0.3970  0.2218
   72MOL0     C 9605   8.726   3.372  -0.087 -0.8914 -0.1502  0.3621
   72MOL0     C 9606   8.869   3.351  -0.121 -0.8826 -0.3920 -0.2683
   72MOL0     C 9607   8.938   3.269  -0.009 -0.7300  0.1092 -0.6857
   72MOL0     C 9608   9.091   3.283  -0.023  0.0533 -0.1032 -0.1062
   72MOL0     O 9609   9.133   3.173  -0.109 -0.5304  0.0148  0.4046
   72MOL0     C 9610   9.263   3.135  -0.110 -0.0488  0.3974  0.2875
   72MOL0     C 9611   9.291   3.021  -0.196 -0.3586 -0.1668  0.0524
   72MOL0     C 9612   9.416   2.984  -0.204  0.8949 -0.4205 -0.4881
   72MOL0     C 9613   9.518   3.036  -0.116  0.3917 -0.1353  0.2344
   72MOL0     C 9614   9.650   2.965  -0.117  0.4781 -0.1577  0.3839
   72MOL0     O 9615   9.749   3.032  -0.049  0.4544  0.0448  0.4664
   72MOL0     C 9616   9.864   2.965  -0.028  0.4807  0.1763  0.2524
   72MOL0     C 9617   9.873   2.880   0.086 -0.3620 -0.1621  0.5148
   72MOL0     C 9618   9.997   2.817   0.106  0.2798 -0.4721  0.2170
   72MOL0     C 9619  10.104   2.827   0.015  0.1203  0.0167  0.0676
   72MOL0     O 9620  10.214   2.752   0.035  0.3065  0.1950  0.3248
   72MOL0     C 9621  10.287   2.695  -0.076 -0.5201 -0.4049 -0.3370
   72MOL0     C 9622  10.381   2.583  -0.027 -0.9479 -0.2351  0.4814
   72MOL0     C 9623  10.491   2.650   0.056 -0.3600 -0.4611 -0.2037
   72MOL0     C 9624  10.612   2.559   0.057  0.1461 -0.0926  0.6416
   72MOL0     C 9625  10.727   2.607   0.141  0.0058 -0.3961 -0.0467
   72MOL0     C 9626  10.854   2.518   0.115 -0.3799  0.5550 -0.0492
   72MOL0     C 9627  10.979   2.588   0.176 -0.5171 -0.1829 -0.0928
   72MOL0     C 9628  11.014   2.711   0.080 -0.2101  0.2712 -0.0293
   72MOL0    Cl 9629  11.177   2.772   0.125  0.4134  0.2556 -0.3918
   72MOL0     C 9630  10.090   2.925  -0.090  0.2569 -0.1803 -0.2744
   72MOL0     C 9631   9.973   2.998  -0.107  0.8944  0.5817  1.0836
   72MOL0     O 9632   9.658   2.867  -0.188 -0.1052  0.0555  0.2023
   72MOL0     C 9633   9.497   3.152  -0.045  0.2143 -1.4843  0.3978
   72MOL0     C 9634   9.372   3.204  -0.048 -0.7650  0.3246  0.4942
   72MOL0     N 9635   8.779   3.572   0.071 -0.5264 -0.5543 -0.3791
   72MOL0     N 9636   8.729   3.620   0.183 -0.2006  0.0941 -0.3408
   72MOL0     C 9637   9.327   2.911   0.766  0.3158 -0.2241 -0.4398
   72MOL0     C 9638   9.406   2.815   0.694  0.4294 -0.0047  0.5485
   72MOL0     C 9639   9.590   2.529   0.425 -0.3230  0.1809  0.0325
   72MOL0     C 9640   9.634   2.619   0.324 -0.4731  0.3607 -0.1021
   72MOL0     C 9641   9.688   2.568   0.206  0.4387 -0.1328  0.6111
   72MOL0     C 9642   9.707   2.431   0.185 -0.7436  0.1155 -0.0818
   72MOL0     O 9643   9.777   2.376   0.081  0.9031 -0.1024 -0.7876
   72MOL0     C 9644   9.813   2.458  -0.030 -0.3703  0.2478 -0.0949
   72MOL0     C 9645   9.920   2.391  -0.121 -0.2959 -0.4406 -0.1873
   72MOL0     C 9646  10.029   2.319  -0.043  0.7864  0.7537 -0.2931
   72MOL0     C 9647  10.119   2.243  -0.138 -0.5847  0.7432  0.2189
   72MOL0     C 9648  10.187   2.330  -0.233  0.2528 -0.3106  1.0867
   72MOL0     C 9649  10.240   2.401  -0.319 -0.6981 -0.6526 -0.1470
   72MOL0     C 9650   9.674   2.344   0.291 -0.7570 -0.8085 -0.1399
   72MOL0     C 9651   9.613   2.392   0.408  0.1346 -0.4875  0.0527
   72MOL0     C 9652   9.597   2.296   0.519 -0.8801  0.2452  0.3574
   72MOL0     H 9653   9.171   2.732   0.473  1.1861 -1.7621 -0.4192
   72MOL0     H 9654   9.038   2.876   0.595 -0.2053 -0.7152  1.3990
   72MOL0     H 9655   9.238   3.137   0.905  1.1166  0.9847 -0.7517
   72MOL0     H 9656   9.209   3.194   0.739  1.8339 -2.6972 -1.8060
   72MOL0     H 9657   9.092   3.339   0.898 -3.6465  1.2815 -1.5581
   72MOL0     H 9658   9.017   3.199   0.986 -1.4768 -1.8997 -1.1328
   72MOL0     H 9659   8.843   3.237   0.875 -0.5671 -0.9813  0.1068
   72MOL0     H 9660   8.918   3.144   0.751  1.0378 -1.0245  1.1358
   72MOL0     H 9661   8.878   3.435   0.761 -0.1094 -3.4113  3.7401
   72MOL0     H 9662   8.979   3.354   0.623 -0.0913 -2.1234 -0.4801
   72MOL0     H 9663   8.768   3.219   0.566 -0.1410 -1.0428  1.1210
   72MOL0     H 9664   8.685   3.323   0.681  1.6018  1.8890  1.2373
   72MOL0     H 9665   8.762   3.514   0.567 -1.7697  1.4305 -0.3694
   72MOL0     H 9666   8.826   3.404   0.439  1.3931  0.3869  0.9444
   72MOL0     H 9667   8.531   3.423   0.539 -1.9051 -1.4238 -0.6846
   72MOL0     H 9668   8.585   3.316   0.405 -1.6447 -0.7760  2.3921
   72MOL0     H 9669   8.466   3.545   0.336  0.3929 -0.2089  0.8476
   72MOL0     H 9670   8.600   3.618   0.413 -1.3006  0.7656 -2.0602
   72MOL0     H 9671   8.559   3.345   0.136 -2.7682  1.6514 -2.0034
   72MOL0     H 9672   8.682   3.273  -0.076 -3.2166  0.7252 -0.4362
   72MOL0     H 9673   8.672   3.421  -0.169 -2.3415 -0.8723  0.8613
   72MOL0     H 9674   8.881   3.309  -0.221 -1.6165  3.2787 -2.0933
   72MOL0     H 9675   8.920   3.448  -0.121  1.7077 -1.6867 -0.8830
   72MOL0     H 9676   8.905   3.165  -0.016  0.6537 -0.4943  0.9637
   72MOL0     H 9677   8.910   3.306   0.090 -0.9228  1.1767 -1.1266
   72MOL0     H 9678   9.138   3.268   0.074  1.8584 -2.6116 -1.2779
   72MOL0     H 9679   9.118   3.381  -0.064 -0.3306  0.0818  0.0722
   72MOL0     H 9680   9.213   2.976  -0.257 -0.1560  0.0372 -0.3642
   72MOL0     H 9681   9.442   2.897  -0.265  2.7034  0.6350 -1.3119
   72MOL0     H 9682   9.792   2.865   0.157 -1.3368 -1.7036 -0.8369
   72MOL0     H 9683  10.011   2.753   0.193 -0.2636 -0.2130  0.5024
   72MOL0     H 9684  10.217   2.634  -0.134 -0.8711 -0.6740  0.3578
   72MOL0     H 9685  10.333   2.778  -0.131 -2.8863 -0.1270 -2.0875
   72MOL0     H 9686  10.327   2.504   0.026  1.5700 -0.7742  2.4510
   72MOL0     H 9687  10.420   2.531  -0.115 -0.5368 -3.2245  2.3149
   72MOL0     H 9688  10.520   2.743   0.005 -1.3412  0.1925  0.3798
   72MOL0     H 9689  10.460   2.681   0.157  2.3401 -0.4902  0.7007
   72MOL0     H 9690  10.634   2.528  -0.046  2.5275  0.6504  0.8707
   72MOL0     H 9691  10.577   2.466   0.104 -2.2695 -0.0418 -0.8632
   72MOL0     H 9692  10.696   2.589   0.244 -0.5298 -1.2559 -0.3528
   72MOL0     H 9693  10.735   2.714   0.119  0.4243 -0.2592  0.7236
   72MOL0     H 9694  10.833   2.423   0.165 -0.4623  1.1329  1.0446
   72MOL0     H 9695  10.867   2.500   0.008 -1.6604  0.2572 -0.1714
   72MOL0     H 9696  11.062   2.517   0.182  0.5838  1.1089  0.4222
   72MOL0     H 9697  10.955   2.628   0.275 -1.2048  0.1799 -0.3999
   72MOL0     H 9698  11.008   2.675  -0.023 -0.2927  0.0888  0.0383
   72MOL0     H 9699  10.940   2.790   0.092 -0.7038  0.1103 -1.7579
   72MOL0     H 9700  10.165   2.955  -0.161  2.2323  0.8489  2.1034
   72MOL0     H 9701   9.969   3.065  -0.192 -1.3310  0.5038  1.0719
   72MOL0     H 9702   9.580   3.193   0.012 -0.2209 -1.9475  1.3700
   72MOL0     H 9703   9.347   3.298  -0.000  1.1174  0.5073  1.1949
   72MOL0     H 9704   9.383   2.968   0.839 -0.8605  4.3753 -2.7090
   72MOL0     H 9705   9.503   2.798   0.741  0.9645 -0.3541 -0.6582
   72MOL0     H 9706   9.614   2.725   0.338  0.4692  0.7685 -1.6676
   72MOL0     H 9707   9.702   2.637   0.124  0.5014 -2.7696 -1.7326
   72MOL0     H 9708   9.858   2.552   0.004  0.3701 -0.4389  0.8832
   72MOL0     H 9709   9.727   2.479  -0.094 -0.2325 -1.3656 -0.8680
   72MOL0     H 9710   9.969   2.468  -0.182 -1.8422 -0.5756 -1.6577
   72MOL0     H 9711   9.871   2.315  -0.182 -0.1142 -0.2767 -0.5412
   72MOL0     H 9712   9.992   2.244   0.027 -1.6746  1.2899 -0.8973
   72MOL0     H 9713  10.096   2.385   0.013  0.9138 -0.3181  0.8374
   72MOL0     H 9714  10.195   2.187  -0.084 -1.4582  2.7386  3.8173
   72MOL0     H 9715  10.050   2.175  -0.190  0.8604 -2.1586  1.8491
   72MOL0     H 9716  10.276   2.469  -0.393 -3.7001  1.3922  0.0953
   72MOL0     H 9717   9.702   2.239   0.286 -0.0074 -0.6216 -0.0312
   72MOL0     H 9718   9.526   2.336   0.592 -1.0420  1.6002 -0.5028
   72MOL0     H 9719   9.553   2.214   0.460 -4.6842  3.1450 -1.2523
   72MOL0     H 9720   9.697   2.275   0.559 -0.2535  1.0277 -0.7489
   73MOL0     O 9721  10.706   8.220   1.356  0.1976  0.5258  0.1653
   73MOL0     C 9722  10.712   8.097   1.351 -0.4887  0.1502  0.2306
   73MOL0     O 9723  10.822   8.025   1.339 -0.3793 -0.3270  0.6459
   73MOL0     C 9724  10.952   8.066   1.361 -0.4217  0.8629  0.5739
   73MOL0     C 9725  10.986   8.194   1.418 -0.0092  0.5537 -0.4115
   73MOL0     C 9726  11.121   8.232   1.442 -0.0170  0.2959 -0.4718
   73MOL0     C 9727  11.227   8.143   1.399 -0.7600 -0.1031 -0.6297
   73MOL0     O 9728  11.355   8.189   1.430 -0.8173 -0.1964  0.0545
   73MOL0     C 9729  11.457   8.091   1.429 -0.4588  0.2766  0.3167
   73MOL0     C 9730  11.541   8.148   1.541 -1.3659 -0.1022 -0.3721
   73MOL0     C 9731  11.687   8.106   1.536  0.8298 -0.1158 -0.1482
   73MOL0     C 9732  11.774   8.215   1.468 -0.0415  0.0406 -0.1176
   73MOL0     C 9733  11.900   8.155   1.412  0.5772  0.3863 -0.8477
   73MOL0     C 9734  12.011   8.254   1.410 -0.5036  0.5782 -0.6278
   73MOL0     C 9735  12.149   8.210   1.346  0.6217 -0.0817 -0.5566
   73MOL0     C 9736  12.224   8.105   1.418 -0.2731  0.6894 -0.3598
   73MOL0     N 9737  12.291   8.162   1.539 -0.4644 -0.3550  0.4754
   73MOL0     C 9738  12.414   8.226   1.535  0.3225  0.2080 -0.2636
   73MOL0     C 9739  12.412   8.301   1.649 -0.1286 -0.5464  0.2517
   73MOL0     C 9740  12.523   8.397   1.698 -0.6652 -0.1302 -0.5779
   73MOL0     C 9741  12.646   8.320   1.744  1.0623  0.4926 -0.0735
   73MOL0     C 9742  12.745   8.428   1.796 -0.5560  0.3505  0.5336
   73MOL0     C 9743  12.887   8.364   1.828 -0.3681 -1.0848  0.5597
   73MOL0     O 9744  12.970   8.365   1.702  0.1939 -0.0029  0.1610
   73MOL0     C 9745  13.105   8.332   1.705  0.5991 -0.0526 -0.2626
   73MOL0     C 9746  13.165   8.255   1.807 -0.1933 -0.3452  0.2212
   73MOL0     C 9747  13.304   8.215   1.798  0.1998  0.2411 -0.4733
   73MOL0     C 9748  13.372   8.246   1.678 -0.5028  0.2422  0.7523
   73MOL0     C 9749  13.517   8.220   1.666 -0.6531  0.3831 -0.1746
   73MOL0     O 9750  13.580   8.254   1.551 -0.5024 -0.1378  0.6560
   73MOL0     C 9751  13.711   8.226   1.540  0.2165 -0.2702  0.1104
   73MOL0     C 9752  13.747   8.127   1.443 -0.2202 -0.1424 -1.1685
   73MOL0     C 9753  13.878   8.110   1.414  0.8510 -0.3684 -0.2151
   73MOL0     C 9754  13.973   8.198   1.465 -0.3242 -0.2988 -0.0991
   73MOL0     O 9755  14.101   8.180   1.415  0.2626  0.6926 -0.5247
   73MOL0     C 9756  14.149   8.059   1.350  0.5462  0.6709  0.4494
   73MOL0     C 9757  14.301   8.065   1.342  0.0430  0.7026 -0.2176
   73MOL0     C 9758  14.375   8.117   1.466  0.7377  0.7081  0.4326
   73MOL0     C 9759  14.518   8.068   1.477 -0.4025  0.4598 -1.4678
   73MOL0     C 9760  14.583   8.115   1.605 -0.2662  0.3904 -0.3897
   73MOL0     C 9761  14.721   8.058   1.611  0.2536 -0.5402 -0.2783
   73MOL0     C 9762  14.824   8.133   1.524  0.3995  0.0090  0.1433
   73MOL0     C 9763  14.969   8.126   1.575  0.0191  0.3620  0.8698
   73MOL0    Cl 9764  15.097   8.125   1.450 -0.2426  0.6221 -0.0172
   73MOL0     C 9765  13.944   8.304   1.552  0.7038 -0.5344 -0.2407
   73MOL0     C 9766  13.808   8.320   1.581 -0.2313 -0.3701 -0.1283
   73MOL0     O 9767  13.564   8.157   1.759 -0.6762  0.0462 -0.3136
   73MOL0     C 9768  13.312   8.315   1.572 -0.0498  0.3951 -0.0462
   73MOL0     C 9769  13.178   8.366   1.586 -0.7615  0.2590 -0.3778
   73MOL0     N 9770  12.294   8.272   1.716 -0.9436  0.3509 -0.6850
   73MOL0     N 9771  12.221   8.190   1.647 -0.4734 -0.1246 -0.2817
   73MOL0     C 9772  11.189   8.020   1.337  0.5867 -0.2391  0.4949
   73MOL0     C 9773  11.055   7.981   1.325  0.1966  0.1120  0.4962
   73MOL0     C 9774  10.580   8.030   1.361 -0.2750 -0.1567  1.1135
   73MOL0     C 9775  10.465   8.105   1.347 -0.4636 -0.0153  0.4623
   73MOL0     C 9776  10.341   8.050   1.343  0.5371 -0.2928  0.4500
   73MOL0     C 9777  10.331   7.914   1.367 -0.0066 -0.1946  0.2389
   73MOL0     O 9778  10.215   7.842   1.348  0.2299 -0.9892 -0.3689
   73MOL0     C 9779  10.085   7.919   1.333 -0.3174 -0.0366 -0.2664
   73MOL0     C 9780   9.970   7.825   1.289  0.8197 -0.4022  0.1141
   73MOL0     C 9781   9.875   7.768   1.406  0.3114  0.4625 -0.7695
   73MOL0     C 9782   9.777   7.656   1.361 -0.2199 -0.4730 -0.4795
   73MOL0     C 9783   9.698   7.695   1.243 -0.1419  0.2510 -0.2679
   73MOL0     C 9784   9.627   7.725   1.151 -0.4608 -0.6884 -0.2760
   73MOL0     C 9785  10.443   7.838   1.405 -0.8469  1.0551  0.5099
   73MOL0     C 9786  10.570   7.890   1.391 -0.3000 -0.1586 -0.8276
   73MOL0     C 9787  10.689   7.810   1.438 -0.4506  0.0967 -0.4827
   73MOL0     H 9788  10.921   8.275   1.450 -0.3312 -0.1597  0.8221
   73MOL0     H 9789  11.143   8.329   1.486 -2.4985  0.3511  0.8631
   73MOL0     H 9790  11.427   7.990   1.459 -0.6205  0.2974  0.2289
   73MOL0     H 9791  11.502   8.082   1.330  1.8573  1.8660  1.1447
   73MOL0     H 9792  11.510   8.113   1.640  2.7289  0.0171  1.1137
   73MOL0     H 9793  11.533   8.256   1.553 -1.6357 -0.2709  1.2408
   73MOL0     H 9794  11.699   8.011   1.484 -4.4666 -0.1681 -1.8498
   73MOL0     H 9795  11.727   8.097   1.638 -1.0826  2.5131  0.9800
   73MOL0     H 9796  11.724   8.256   1.380 -0.3776 -1.1074 -0.4722
   73MOL0     H 9797  11.785   8.299   1.537 -0.4602 -0.1131  0.1389
   73MOL0     H 9798  11.938   8.069   1.468 -1.6256 -1.1662 -1.6105
   73MOL0     H 9799  11.894   8.115   1.310  0.2395  0.5654 -0.8991
   73MOL0     H 9800  11.973   8.341   1.357 -2.5879 -0.0209 -0.1990
   73MOL0     H 9801  12.029   8.287   1.512  2.4934 -2.7939  0.1738
   73MOL0     H 9802  12.207   8.299   1.321 -0.9234  1.4086  0.8857
   73MOL0     H 9803  12.132   8.156   1.252  0.1389  2.2515 -1.8898
   73MOL0     H 9804  12.154   8.026   1.445  1.7547 -0.1776  2.8696
   73MOL0     H 9805  12.303   8.074   1.349 -0.3530  0.4706 -0.3537
   73MOL0     H 9806  12.486   8.232   1.453 -0.9836 -0.1015 -1.4823
   73MOL0     H 9807  12.543   8.454   1.607  0.0520 -2.4494 -1.9730
   73MOL0     H 9808  12.482   8.459   1.778  1.4053 -2.2951  2.3831
   73MOL0     H 9809  12.634   8.240   1.817 -0.6854 -1.4128 -2.2772
   73MOL0     H 9810  12.688   8.274   1.654  1.2740 -0.1604  0.3543
   73MOL0     H 9811  12.708   8.476   1.887  0.3791  2.7156 -0.2565
   73MOL0     H 9812  12.755   8.511   1.725  1.8758 -0.6305 -0.3982
   73MOL0     H 9813  12.876   8.258   1.853  1.2733 -1.3755  0.1679
   73MOL0     H 9814  12.937   8.431   1.899  0.3548  1.2321 -1.9288
   73MOL0     H 9815  13.116   8.214   1.894 -0.4414  0.7330  0.6033
   73MOL0     H 9816  13.363   8.171   1.877  0.0365 -0.4239 -0.7214
   73MOL0     H 9817  13.678   8.065   1.384  1.1768  0.2664 -3.3627
   73MOL0     H 9818  13.898   8.032   1.342 -0.2473 -2.0330  1.2158
   73MOL0     H 9819  14.110   7.983   1.418 -0.5609  0.3459 -0.5307
   73MOL0     H 9820  14.113   8.037   1.249  4.2329  1.8629 -1.3155
   73MOL0     H 9821  14.331   7.961   1.326  0.2636  0.6916  0.2280
   73MOL0     H 9822  14.330   8.124   1.255 -0.4035  1.1041 -0.0972
   73MOL0     H 9823  14.356   8.224   1.463 -0.9521  0.5069  2.1016
   73MOL0     H 9824  14.317   8.079   1.551  1.0505 -2.5529 -0.6661
   73MOL0     H 9825  14.581   8.116   1.401 -0.3578 -1.4459 -2.6978
   73MOL0     H 9826  14.534   7.961   1.460  0.3243  0.3340 -0.0989
   73MOL0     H 9827  14.517   8.086   1.688  0.0910  0.1525 -0.1844
   73MOL0     H 9828  14.578   8.223   1.615  0.5179  0.2724  1.7139
   73MOL0     H 9829  14.755   8.083   1.712  1.2912  0.3537 -0.8166
   73MOL0     H 9830  14.750   7.956   1.584  2.9785  0.1571 -0.3339
   73MOL0     H 9831  14.796   8.239   1.516  0.9579  0.2154  0.8222
   73MOL0     H 9832  14.827   8.093   1.422  2.6694  1.9760 -0.6620
   73MOL0     H 9833  14.989   8.219   1.628 -0.5901  1.4985 -0.8465
   73MOL0     H 9834  14.985   8.037   1.638  1.6991 -0.9625 -1.2936
   73MOL0     H 9835  14.016   8.383   1.572  0.8791 -0.0520 -2.5646
   73MOL0     H 9836  13.771   8.406   1.636  0.4143  0.5997 -1.1652
   73MOL0     H 9837  13.380   8.348   1.494 -0.5749 -0.7032 -1.0080
   73MOL0     H 9838  13.132   8.430   1.511 -2.0784 -0.6434 -0.3750
   73MOL0     H 9839  11.273   7.978   1.283  0.8699  1.2737 -0.3018
   73MOL0     H 9840  11.048   7.882   1.282  2.5246  0.9357 -2.0655
   73MOL0     H 9841  10.472   8.213   1.350  0.0123  0.0400 -1.5434
   73MOL0     H 9842  10.246   8.102   1.330 -1.1676 -3.1735  0.3965
   73MOL0     H 9843  10.093   7.988   1.248  0.6678  1.7518  1.2273
   73MOL0     H 9844  10.064   7.977   1.423 -0.7717 -0.0879 -0.3373
   73MOL0     H 9845  10.020   7.741   1.240 -0.4665 -1.4323  0.5390
   73MOL0     H 9846   9.906   7.888   1.227  2.8795 -0.1025 -1.8580
   73MOL0     H 9847   9.809   7.841   1.454 -1.8460 -1.7480 -0.1770
   73MOL0     H 9848   9.933   7.723   1.487 -0.1326 -2.6643 -2.0480
   73MOL0     H 9849   9.827   7.562   1.338  0.8424 -0.2383  0.7974
   73MOL0     H 9850   9.708   7.630   1.442  2.3718 -0.4464  1.8880
   73MOL0     H 9851   9.564   7.754   1.070 -2.4692  1.5816  1.9044
   73MOL0     H 9852  10.419   7.740   1.447  0.2849  0.3805 -0.3328
   73MOL0     H 9853  10.742   7.852   1.524 -0.0330 -2.0083  0.3666
   73MOL0     H 9854  10.665   7.708   1.468  1.0942 -0.4073 -0.8213
   73MOL0     H 9855  10.760   7.798   1.355  0.0097  1.0519 -0.2432
   74MOL0     O 9856   7.058   0.125   4.468 -0.0793  0.7833 -0.2559
   74MOL0     C 9857   6.954   0.093   4.412  0.4287  0.9192  0.3729
   74MOL0     O 9858   6.924   0.116   4.277 -0.6539  0.2067  0.3158
   74MOL0     C 9859   7.026   0.166   4.200  1.1626  0.1150  0.7062
   74MOL0     C 9860   7.013   0.275   4.110  0.1419 -0.8356 -1.1474
   74MOL0     C 9861   7.116   0.325   4.027 -0.6953  0.2206 -0.3481
   74MOL0     C 9862   7.245   0.272   4.036  0.1004 -0.4242 -0.3568
   74MOL0     O 9863   7.343   0.344   3.966 -0.0572  0.0231 -0.3661
   74MOL0     C 9864   7.459   0.264   3.937 -0.1584  0.0594 -0.2754
   74MOL0     C 9865   7.544   0.340   3.832 -1.0980  0.5855 -0.6419
   74MOL0     C 9866   7.688   0.278   3.844 -0.2800 -0.3122  0.4036
   74MOL0     C 9867   7.795   0.344   3.756 -0.2439 -0.2041  0.1663
   74MOL0     C 9868   7.937   0.307   3.807 -0.8545 -0.2253  0.2027
   74MOL0     C 9869   8.052   0.353   3.719  0.5074 -0.2267  0.3396
   74MOL0     C 9870   8.171   0.276   3.763 -0.3113 -0.2253  0.2332
   74MOL0     C 9871   8.286   0.312   3.676 -0.4562  0.2344  0.3938
   74MOL0     N 9872   8.403   0.255   3.731 -0.0129 -0.0746  0.2814
   74MOL0     C 9873   8.430   0.121   3.712  0.0636  0.0504  0.5836
   74MOL0     C 9874   8.513   0.091   3.811 -0.7507  0.6267 -0.0986
   74MOL0     C 9875   8.574  -0.048   3.843 -0.8554 -0.0854  0.4639
   74MOL0     C 9876   8.673  -0.092   3.730 -0.7570  0.7454 -0.7616
   74MOL0     C 9877   8.791   0.007   3.704 -1.0504  1.0702  0.8096
   74MOL0     C 9878   8.872  -0.046   3.591 -0.4363 -0.9288 -0.6999
   74MOL0     O 9879   8.966  -0.144   3.648 -0.9039 -0.8418  0.2945
   74MOL0     C 9880   9.095  -0.154   3.593  0.1429  0.2447  0.4867
   74MOL0     C 9881   9.152  -0.075   3.494  1.0317  1.4248  0.0955
   74MOL0     C 9882   9.277  -0.100   3.448 -1.0008  0.3751  0.2148
   74MOL0     C 9883   9.358  -0.214   3.501 -0.2801  0.3886 -0.9771
   74MOL0     C 9884   9.487  -0.252   3.439  0.0054  0.0805 -0.1004
   74MOL0     O 9885   9.529  -0.187   3.325 -0.0631 -0.0233 -0.0925
   74MOL0     C 9886   9.650  -0.214   3.272 -0.0255  0.4647  0.0262
   74MOL0     C 9887   9.757  -0.131   3.304  0.7067  0.0398  0.2248
   74MOL0     C 9888   9.879  -0.144   3.247 -0.3952 -0.4375 -0.3235
   74MOL0     C 9889   9.900  -0.242   3.148 -0.1223 -0.0457  0.1710
   74MOL0     O 9890  10.002  -0.252   3.063  0.1450  0.0482  0.2629
   74MOL0     C 9891  10.117  -0.170   3.081  0.3459  0.2102 -0.6932
   74MOL0     C 9892  10.224  -0.210   2.982  0.0507  0.3967 -0.2162
   74MOL0     C 9893  10.358  -0.138   3.000 -0.2623 -0.4294 -0.2763
   74MOL0     C 9894  10.451  -0.173   2.877  0.2960  0.9292  0.5603
   74MOL0     C 9895  10.598  -0.135   2.906 -1.1089 -0.2225  0.9947
   74MOL0     C 9896  10.609   0.004   2.976 -0.1205  0.4136  0.9927
   74MOL0     C 9897  10.753   0.051   3.007  0.4376 -0.7410 -0.2772
   74MOL0     C 9898  10.801   0.127   2.886 -0.0776  0.1881 -0.2976
   74MOL0    Cl 9899  10.945   0.221   2.931  0.0651 -0.1464  0.2074
   74MOL0     C 9900   9.795  -0.328   3.118 -0.0224 -0.3629  0.3002
   74MOL0     C 9901   9.672  -0.312   3.175  0.6598 -0.9597 -0.5735
   74MOL0     O 9902   9.541  -0.351   3.484  0.4232 -0.0401 -0.6156
   74MOL0     C 9903   9.292  -0.293   3.602 -0.0361 -0.6137  0.2173
   74MOL0     C 9904   9.164  -0.262   3.646 -1.3178  0.3863 -0.2741
   74MOL0     N 9905   8.543   0.202   3.883 -0.0904 -0.0555  0.6042
   74MOL0     N 9906   8.475   0.299   3.839  0.5408 -0.5554 -0.2298
   74MOL0     C 9907   7.258   0.164   4.122 -0.5662  0.2876  0.8344
   74MOL0     C 9908   7.151   0.112   4.198  0.5211  0.2551  0.0726
   74MOL0     C 9909   6.838   0.048   4.491 -0.1108  0.1429 -0.1560
   74MOL0     C 9910   6.715   0.040   4.428 -0.0264  0.4738  0.8937
   74MOL0     C 9911   6.597  -0.015   4.491 -0.2329  0.4196 -0.9535
   74MOL0     C 9912   6.606  -0.061   4.627  0.2476 -0.0550 -0.0970
   74MOL0     O 9913   6.498  -0.103   4.701  0.0305  0.5037  0.2395
   74MOL0     C 9914   6.383  -0.150   4.632  0.7154 -0.2385 -0.3048
   74MOL0     C 9915   6.272  -0.172   4.730  0.0563 -0.2320 -0.7888
   74MOL0     C 9916   6.253  -0.067   4.842 -0.0288  0.1552  0.5013
   74MOL0     C 9917   6.118  -0.076   4.889  0.1472 -0.3569 -0.3720
   74MOL0     C 9918   6.090  -0.201   4.955  0.4365  0.0371  0.7106
   74MOL0     C 9919   6.064  -0.308   5.004  0.2456  0.4015  0.4683
   74MOL0     C 9920   6.731  -0.055   4.691  0.6201  0.8395 -0.8982
   74MOL0     C 9921   6.845  -0.009   4.624  0.2020 -0.0735 -1.0295
   74MOL0     C 9922   6.968  -0.034   4.707  0.3537  0.0049 -0.1056
   74MOL0     H 9923   6.921   0.330   4.094 -0.6131 -1.0946  1.7531
   74MOL0     H 9924   7.085   0.407   3.963  1.5229 -0.0671 -1.9026
   74MOL0     H 9925   7.514   0.242   4.029 -1.9706  0.5347  0.9828
   74MOL0     H 9926   7.430   0.170   3.890 -1.5791  0.0357  0.5641
   74MOL0     H 9927   7.549   0.448   3.851  1.1809  0.2294  1.0897
   74MOL0     H 9928   7.499   0.321   3.734  0.5200 -0.4209 -1.2209
   74MOL0     H 9929   7.694   0.173   3.813 -0.1721  0.0455 -0.8243
   74MOL0     H 9930   7.726   0.293   3.945  1.1765  2.3455 -0.4516
   74MOL0     H 9931   7.773   0.311   3.654  0.5986 -0.3117  0.0110
   74MOL0     H 9932   7.782   0.452   3.759  1.7635  0.1158 -0.8120
   74MOL0     H 9933   7.938   0.339   3.912 -2.4199 -0.5784  0.3477
   74MOL0     H 9934   7.944   0.198   3.811  0.8317 -0.2230 -1.4134
   74MOL0     H 9935   8.021   0.330   3.616  0.3347  0.3529  0.2597
   74MOL0     H 9936   8.055   0.460   3.739 -0.5075 -0.3115  0.9793
   74MOL0     H 9937   8.152   0.170   3.744 -1.3687 -0.1683  0.8811
   74MOL0     H 9938   8.181   0.292   3.871 -0.6817 -3.3952  0.8355
   74MOL0     H 9939   8.264   0.269   3.578 -2.4235 -0.9506  1.2891
   74MOL0     H 9940   8.295   0.421   3.672  0.6940  0.1221 -0.4536
   74MOL0     H 9941   8.374   0.061   3.641  0.0666  0.9545 -0.1979
   74MOL0     H 9942   8.620  -0.049   3.942  0.6173 -0.4079 -0.1870
   74MOL0     H 9943   8.500  -0.129   3.847 -0.3768 -0.5198  0.6871
   74MOL0     H 9944   8.704  -0.185   3.778 -1.2560  0.8354 -0.2525
   74MOL0     H 9945   8.632  -0.118   3.632 -0.4933  0.8209 -0.8925
   74MOL0     H 9946   8.840   0.032   3.798  0.0562  3.2742 -0.2737
   74MOL0     H 9947   8.760   0.108   3.677 -1.2756  0.9957  0.7869
   74MOL0     H 9948   8.920   0.042   3.549 -3.5828  2.1880  1.6956
   74MOL0     H 9949   8.811  -0.093   3.513  0.5876 -1.8416 -0.9870
   74MOL0     H 9950   9.106   0.011   3.445  0.7479  0.1783 -1.9411
   74MOL0     H 9951   9.312  -0.037   3.367  0.9192 -0.4017  0.3853
   74MOL0     H 9952   9.754  -0.052   3.378  0.9511  1.5096 -1.2830
   74MOL0     H 9953   9.959  -0.075   3.270  0.1180 -1.1160 -0.0117
   74MOL0     H 9954  10.093  -0.065   3.065 -0.5832  0.0954 -0.1317
   74MOL0     H 9955  10.158  -0.179   3.182  1.1718  1.6424 -0.8782
   74MOL0     H 9956  10.243  -0.317   2.993  1.0928  0.6252  0.3302
   74MOL0     H 9957  10.191  -0.192   2.879  0.4340  0.4680 -0.3279
   74MOL0     H 9958  10.335  -0.031   3.003 -3.5764 -0.9626 -1.7706
   74MOL0     H 9959  10.398  -0.169   3.097 -1.2869 -1.7851 -0.2609
   74MOL0     H 9960  10.440  -0.112   2.786  3.0204 -0.4629 -0.8168
   74MOL0     H 9961  10.428  -0.277   2.852 -1.3790  1.6501 -1.1685
   74MOL0     H 9962  10.656  -0.158   2.816  1.3577 -3.0584  3.0879
   74MOL0     H 9963  10.631  -0.211   2.977 -2.0832 -0.3108  1.3764
   74MOL0     H 9964  10.554   0.072   2.910  1.3960 -0.8162 -1.7257
   74MOL0     H 9965  10.564  -0.011   3.075 -0.8255  1.6500  0.8717
   74MOL0     H 9966  10.818  -0.035   3.025 -0.1079 -1.2270 -0.5966
   74MOL0     H 9967  10.756   0.117   3.094  0.3424 -1.4050  0.2316
   74MOL0     H 9968  10.823   0.048   2.813 -5.0722 -0.2418 -1.7225
   74MOL0     H 9969  10.723   0.189   2.839 -0.3965  1.0168  1.2619
   74MOL0     H 9970   9.813  -0.401   3.040 -2.1664  0.1272 -0.7269
   74MOL0     H 9971   9.581  -0.361   3.140 -0.6136  2.0316 -1.8273
   74MOL0     H 9972   9.340  -0.385   3.632 -0.4701 -0.7501  0.5137
   74MOL0     H 9973   9.116  -0.322   3.721  1.3411 -1.8085 -0.1614
   74MOL0     H 9974   7.353   0.117   4.142  0.4196  1.6664 -0.3706
   74MOL0     H 9975   7.177   0.026   4.259  0.2755  2.2939  3.2844
   74MOL0     H 9976   6.694   0.083   4.331  2.6865  0.1816  0.1158
   74MOL0     H 9977   6.504  -0.014   4.436 -0.4804  0.1577 -0.5491
   74MOL0     H 9978   6.413  -0.238   4.574  1.2298  0.2829 -0.8350
   74MOL0     H 9979   6.341  -0.077   4.562  1.6115  0.9178  0.3316
   74MOL0     H 9980   6.300  -0.266   4.778  1.4263 -0.3914 -1.8427
   74MOL0     H 9981   6.175  -0.184   4.682 -0.4830  2.0438 -0.3944
   74MOL0     H 9982   6.265   0.035   4.805  1.3613  0.3199  1.3376
   74MOL0     H 9983   6.326  -0.072   4.923 -1.0720  3.6036  1.8473
   74MOL0     H 9984   6.101   0.007   4.958 -1.3296 -1.3833  0.5531
   74MOL0     H 9985   6.044  -0.064   4.809 -0.2683 -1.5163 -0.1727
   74MOL0     H 9986   6.028  -0.405   5.031 -0.7630 -0.0845 -2.2484
   74MOL0     H 9987   6.734  -0.092   4.793 -0.9450 -1.1113 -1.5014
   74MOL0     H 9988   7.049  -0.061   4.640  1.0482 -0.5654  0.9289
   74MOL0     H 9989   7.015   0.051   4.758 -0.9211 -0.1813  1.4873
   74MOL0     H 9990   6.960  -0.118   4.776  1.2208 -0.7992 -0.9618
   75MOL0     O 9991   9.626   7.347   9.709 -0.0870  0.6480  0.4550
   75MOL0     C 9992   9.645   7.234   9.754  0.1556  0.5163 -0.0575
   75MOL0     O 9993   9.767   7.193   9.810  0.0974 -0.9362 -0.4784
   75MOL0     C 9994   9.848   7.294   9.846  0.5497 -0.3882  0.2485
   75MOL0     C 9995   9.984   7.268   9.825  0.2077  0.2451  0.3777
   75MOL0     C 9996  10.073   7.359   9.875 -0.1058 -0.2249 -0.5769
   75MOL0     C 9997  10.034   7.471   9.949  0.4472 -1.1423  0.0702
   75MOL0     O 9998  10.111   7.583   9.991 -0.2286 -0.1156 -0.3555
   75MOL0     C 9999  10.212   7.619   9.902 -1.1250 -0.4657 -0.3870
   75MOL0     C10000  10.266   7.736   9.970  0.0066  0.1803 -0.2242
   75MOL0     C10001  10.397   7.794   9.908 -0.0287  0.1715 -0.1201
   75MOL0     C10002  10.451   7.895  10.015  0.0986 -0.0571 -0.2973
   75MOL0     C10003  10.584   7.974   9.984 -0.2896  0.1353  0.8053
   75MOL0     C10004  10.687   7.882   9.911  0.0681  0.5354 -0.8177
   75MOL0     C10005  10.825   7.948   9.877  0.2376  0.0323 -0.0154
   75MOL0     C10006  10.909   7.965  10.008  0.3723 -0.1483 -0.8024
   75MOL0     N10007  11.049   7.973   9.973 -0.4212 -0.1071  0.0039
   75MOL0     C10008  11.110   8.084   9.919  0.5953  0.0784 -0.1957
   75MOL0     C10009  11.240   8.046   9.908 -0.0312  0.0896  0.1829
   75MOL0     C10010  11.343   8.148   9.848 -0.1373  0.4690 -1.2926
   75MOL0     C10011  11.492   8.129   9.902  0.0468  0.6343  0.5416
   75MOL0     C10012  11.573   8.247   9.846 -0.3276  0.6508  0.3563
   75MOL0     C10013  11.725   8.209   9.843 -0.0815  0.0478 -0.6580
   75MOL0     O10014  11.801   8.327   9.829  0.5412 -0.8255  0.2140
   75MOL0     C10015  11.931   8.315   9.783 -0.5745 -0.0393 -0.0610
   75MOL0     C10016  12.002   8.198   9.750 -0.6280 -0.3662 -0.4308
   75MOL0     C10017  12.125   8.206   9.693  0.2823  0.2779  0.3181
   75MOL0     C10018  12.191   8.327   9.679 -0.2601 -0.0994  0.4855
   75MOL0     C10019  12.327   8.352   9.614 -0.5275  0.5180  0.6581
   75MOL0     O10020  12.393   8.478   9.623 -0.3063 -0.4430 -0.4494
   75MOL0     C10021  12.526   8.467   9.578  0.5243 -0.3438  0.2678
   75MOL0     C10022  12.583   8.570   9.504 -0.3012 -0.2257  0.1102
   75MOL0     C10023  12.721   8.570   9.463 -0.6333  0.3037 -0.7406
   75MOL0     C10024  12.801   8.466   9.507  0.4668 -0.4660 -0.0431
   75MOL0     O10025  12.939   8.469   9.493  1.1992 -0.3713 -0.1118
   75MOL0     C10026  13.032   8.364   9.521  0.1154 -0.2946  0.0942
   75MOL0     C10027  13.168   8.425   9.504  0.9404 -1.0869  0.9840
   75MOL0     C10028  13.286   8.334   9.539  0.2001  0.0556  0.1197
   75MOL0     C10029  13.418   8.409   9.541  0.7068  0.2288  1.0185
   75MOL0     C10030  13.539   8.313   9.560 -0.3867  0.5499  0.3851
   75MOL0     C10031  13.517   8.206   9.669  0.0069 -0.9513  0.3285
   75MOL0     C10032  13.497   8.277   9.806 -0.4845  0.5931 -0.1443
   75MOL0     C10033  13.479   8.178   9.917 -0.0583  0.1357  0.0055
   75MOL0    Cl10034  13.438   8.283  10.064 -0.1325  0.2612  0.1038
   75MOL0     C10035  12.749   8.356   9.575  0.0071 -1.3184 -0.2794
   75MOL0     C10036  12.617   8.358   9.611  1.6569  0.1938  0.0175
   75MOL0     O10037  12.355   8.258   9.535  0.0048 -0.1006 -0.0543
   75MOL0     C10038  12.124   8.437   9.718 -0.3329  0.2238  0.0358
   75MOL0     C10039  11.997   8.440   9.765  1.0207 -0.4017  0.3945
   75MOL0     N10040  11.255   7.916   9.939  0.3008  0.1906 -0.5509
   75MOL0     N10041  11.144   7.876   9.990  0.9341  0.8428 -0.9035
   75MOL0     C10042   9.897   7.496   9.962 -0.4143  0.0042 -0.5096
   75MOL0     C10043   9.802   7.411   9.916 -0.3138  0.2717  0.4575
   75MOL0     C10044   9.534   7.131   9.747  0.3851  0.3434 -0.5505
   75MOL0     C10045   9.561   6.988   9.765  0.1285  0.0605  0.2518
   75MOL0     C10046   9.464   6.890   9.753 -0.0949  0.1321 -0.6345
   75MOL0     C10047   9.331   6.924   9.721 -0.6591  0.2283  0.1173
   75MOL0     O10048   9.239   6.818   9.730 -0.6742  0.3341  0.0975
   75MOL0     C10049   9.100   6.828   9.690 -0.1867 -0.1377 -0.7813
   75MOL0     C10050   8.996   6.893   9.780 -0.1185  0.0314  0.3947
   75MOL0     C10051   8.963   6.827   9.914  0.2677 -0.6598 -0.0348
   75MOL0     C10052   9.083   6.846  10.009  1.0936  0.6147  0.3101
   75MOL0     C10053   9.040   6.837  10.149  0.2250  1.0732  0.4820
   75MOL0     C10054   9.001   6.832  10.262  0.1094  0.0490 -0.0959
   75MOL0     C10055   9.307   7.062   9.686  0.5900 -0.4390  0.6171
   75MOL0     C10056   9.401   7.160   9.711 -0.1126 -0.0667 -0.6146
   75MOL0     C10057   9.351   7.297   9.687 -0.0752 -0.0843  0.2110
   75MOL0     H10058  10.025   7.175   9.786  3.3034  2.2762 -1.6941
   75MOL0     H10059  10.179   7.356   9.856  0.2752  5.8232 -1.3612
   75MOL0     H10060  10.284   7.537   9.898 -1.1141 -0.4672 -0.1678
   75MOL0     H10061  10.178   7.650   9.802 -2.3391  0.2343  0.2214
   75MOL0     H10062  10.285   7.703  10.073  0.3124  2.2098  0.4003
   75MOL0     H10063  10.183   7.805   9.985 -1.6662 -2.1517  2.4787
   75MOL0     H10064  10.376   7.845   9.814 -0.0065 -0.5973 -0.5415
   75MOL0     H10065  10.463   7.707   9.903 -3.7166 -2.8263 -1.4665
   75MOL0     H10066  10.381   7.979  10.025 -1.3667 -1.4148  1.4272
   75MOL0     H10067  10.464   7.841  10.109 -1.7510  3.1309  2.0153
   75MOL0     H10068  10.563   8.058   9.917 -2.2206 -1.2840 -0.4734
   75MOL0     H10069  10.618   8.010  10.082  0.7918 -1.0497  0.8969
   75MOL0     H10070  10.705   7.791   9.969 -1.1458  0.8486  0.0811
   75MOL0     H10071  10.639   7.855   9.816  2.9670 -0.2210 -2.2037
   75MOL0     H10072  10.810   8.046   9.831 -1.9771  0.5685  1.6401
   75MOL0     H10073  10.885   7.883   9.813  0.4902 -1.0476  1.2786
   75MOL0     H10074  10.877   8.056  10.060 -0.8076 -1.2475  0.4688
   75MOL0     H10075  10.895   7.880  10.076  1.6069 -0.7950 -1.3133
   75MOL0     H10076  11.060   8.179   9.903  2.6989  1.5100  1.1336
   75MOL0     H10077  11.353   8.141   9.740  2.9831 -2.9916 -1.0001
   75MOL0     H10078  11.299   8.246   9.868 -2.2939 -0.5807 -0.5257
   75MOL0     H10079  11.495   8.135  10.011  2.0808  0.2278  0.5450
   75MOL0     H10080  11.531   8.030   9.878  1.9084  1.5228 -0.3215
   75MOL0     H10081  11.552   8.336   9.905 -1.8193  0.5611 -0.0103
   75MOL0     H10082  11.550   8.278   9.744  1.7517 -0.6715 -0.5989
   75MOL0     H10083  11.747   8.143   9.759  1.8748  3.3300 -2.9541
   75MOL0     H10084  11.753   8.160   9.937 -1.0734 -3.4400 -2.0577
   75MOL0     H10085  11.961   8.099   9.762 -1.8002  0.0285 -0.9728
   75MOL0     H10086  12.178   8.114   9.669 -1.7606 -0.9517  0.2686
   75MOL0     H10087  12.528   8.659   9.473 -1.7130 -0.6447  1.3048
   75MOL0     H10088  12.776   8.650   9.415 -1.4037  0.7842 -0.8452
   75MOL0     H10089  13.037   8.324   9.622  1.0505  1.0705  0.6197
   75MOL0     H10090  13.020   8.277   9.456  0.6727 -1.4640  1.4974
   75MOL0     H10091  13.178   8.454   9.399  2.3220  2.2918  1.9424
   75MOL0     H10092  13.180   8.510   9.571  2.2830 -1.6115  1.4368
   75MOL0     H10093  13.265   8.306   9.643  3.4018 -1.0612  0.6027
   75MOL0     H10094  13.292   8.252   9.468 -2.0008  1.8231 -2.2560
   75MOL0     H10095  13.406   8.488   9.616 -0.5863  1.2736 -0.2200
   75MOL0     H10096  13.431   8.455   9.442  0.2040  1.5752  1.5448
   75MOL0     H10097  13.620   8.378   9.593  2.0719 -1.1241 -1.8474
   75MOL0     H10098  13.576   8.269   9.466  1.5064  1.8164  0.4756
   75MOL0     H10099  13.436   8.143   9.632  0.1314  0.0660 -1.8453
   75MOL0     H10100  13.603   8.138   9.663  0.7717  0.0694 -1.0454
   75MOL0     H10101  13.409   8.342   9.807 -1.4492 -0.6622  1.3652
   75MOL0     H10102  13.584   8.339   9.830 -0.2127  1.0367 -2.0940
   75MOL0     H10103  13.398   8.108   9.896  1.0101 -0.9239 -0.6904
   75MOL0     H10104  13.569   8.121   9.942 -1.3146 -0.9779  2.3086
   75MOL0     H10105  12.813   8.272   9.600  2.1954  0.2423 -0.3441
   75MOL0     H10106  12.569   8.271   9.656 -3.9762  0.3391 -4.4996
   75MOL0     H10107  12.166   8.535   9.698  2.0665 -0.4925  1.1414
   75MOL0     H10108  11.952   8.533   9.796  2.3270  0.8107 -1.2073
   75MOL0     H10109   9.866   7.587  10.012 -0.5914 -0.1748 -0.2856
   75MOL0     H10110   9.699   7.431   9.946  0.5384  3.1184  1.8453
   75MOL0     H10111   9.664   6.967   9.792  0.5773 -0.4959 -1.7112
   75MOL0     H10112   9.484   6.786   9.775 -2.9846 -0.6051 -1.0487
   75MOL0     H10113   9.053   6.734   9.660 -2.0238  0.9045 -1.2548
   75MOL0     H10114   9.103   6.881   9.594  0.9390 -2.0042 -1.8534
   75MOL0     H10115   8.908   6.887   9.716 -0.1099 -0.3906  0.4170
   75MOL0     H10116   9.028   6.993   9.809 -0.3671  0.0948  0.4489
   75MOL0     H10117   8.949   6.720   9.894  0.1253 -0.5051 -0.8055
   75MOL0     H10118   8.869   6.869   9.952 -0.2912  0.3998 -2.3908
   75MOL0     H10119   9.157   6.768   9.991  1.6584  1.6604 -2.3699
   75MOL0     H10120   9.131   6.944  10.000  0.4957  0.8621 -0.2802
   75MOL0     H10121   8.972   6.843  10.364 -1.0837  1.0320 -0.5077
   75MOL0     H10122   9.204   7.086   9.666  0.2621 -3.5690 -2.2593
   75MOL0     H10123   9.245   7.305   9.661 -0.6076  0.2751  2.2954
   75MOL0     H10124   9.373   7.358   9.775 -0.2625  1.4903 -0.8106
   75MOL0     H10125   9.392   7.351   9.601 -5.4035  1.6413 -1.6446
   76MOL0     O10126   7.212  10.701   4.630 -0.8080 -0.0620  0.1139
   76MOL0     C10127   7.171  10.812   4.645 -1.0848  0.7028  0.3563
   76MOL0     O10128   7.225  10.930   4.594 -0.3870 -0.5188  0.9785
   76MOL0     C10129   7.355  10.937   4.532  0.4907  0.0444  0.9679
   76MOL0     C10130   7.384  11.035   4.438 -0.0929  0.9567  0.4760
   76MOL0     C10131   7.506  11.044   4.391 -0.3447 -0.1622 -0.0311
   76MOL0     C10132   7.611  10.958   4.423  0.3329  0.6328 -1.3011
   76MOL0     O10133   7.735  10.957   4.357 -0.1561 -0.3297 -0.1242
   76MOL0     C10134   7.754  10.845   4.265  0.2874 -0.6231 -0.2609
   76MOL0     C10135   7.690  10.879   4.129  0.0970  0.0146  0.6022
   76MOL0     C10136   7.723  10.770   4.037 -0.4714 -0.1940  0.0914
   76MOL0     C10137   7.636  10.771   3.914 -0.3075  0.8667 -0.0538
   76MOL0     C10138   7.685  10.648   3.842 -0.3360 -0.5591  0.3747
   76MOL0     C10139   7.635  10.652   3.694 -0.5298  0.4220 -0.0548
   76MOL0     C10140   7.483  10.654   3.672  0.1034 -0.3807  0.2032
   76MOL0     C10141   7.425  10.614   3.533 -0.0527  0.1776 -0.4896
   76MOL0     N10142   7.484  10.690   3.427  0.0738  0.1167 -0.5820
   76MOL0     C10143   7.448  10.820   3.379  0.6568  0.8561 -0.1022
   76MOL0     C10144   7.528  10.838   3.273  0.4368  0.0716 -0.5622
   76MOL0     C10145   7.545  10.961   3.195 -0.8401 -0.4922  0.2522
   76MOL0     C10146   7.696  10.992   3.179 -0.2563  0.5909  0.1023
   76MOL0     C10147   7.717  11.091   3.065  0.5512 -0.2242  0.0368
   76MOL0     C10148   7.864  11.128   3.062 -0.1421  0.4111 -0.0494
   76MOL0     O10149   7.882  11.222   2.959 -0.1907  0.3124 -0.4287
   76MOL0     C10150   8.010  11.252   2.915  0.7047 -0.2019 -0.4700
   76MOL0     C10151   8.127  11.188   2.964  0.8012 -0.3266 -0.0824
   76MOL0     C10152   8.250  11.209   2.910 -0.8832 -0.4047  0.4508
   76MOL0     C10153   8.267  11.295   2.797  0.0030  0.7897 -0.2634
   76MOL0     C10154   8.402  11.312   2.751  0.4465 -0.8205  1.0106
   76MOL0     O10155   8.497  11.226   2.801 -0.3482 -0.4616 -0.9445
   76MOL0     C10156   8.620  11.214   2.734  0.3725  0.1340 -0.0244
   76MOL0     C10157   8.698  11.329   2.720  1.3182  0.1482 -0.4304
   76MOL0     C10158   8.823  11.325   2.672  0.2547 -0.0225  0.8974
   76MOL0     C10159   8.878  11.194   2.649 -0.1815 -0.2481  0.5055
   76MOL0     O10160   8.995  11.167   2.597 -0.3739 -0.0475  0.3076
   76MOL0     C10161   9.037  11.262   2.491  0.1506  0.8816 -0.2813
   76MOL0     C10162   9.171  11.232   2.436  0.3848 -0.3076 -0.3366
   76MOL0     C10163   9.271  11.308   2.523  0.0515 -0.0210  0.3795
   76MOL0     C10164   9.286  11.458   2.480 -0.1968 -0.1647 -0.4070
   76MOL0     C10165   9.373  11.534   2.574  0.0248 -0.3436  0.1091
   76MOL0     C10166   9.360  11.685   2.539  0.0543  0.0325  0.3529
   76MOL0     C10167   9.431  11.773   2.635 -0.1128  0.4954  0.2497
   76MOL0     C10168   9.425  11.921   2.609 -0.1819 -0.6937  0.5498
   76MOL0    Cl10169   9.533  11.995   2.721  0.1772  0.0393  0.3330
   76MOL0     C10170   8.803  11.079   2.681 -0.6711  1.0581  0.1412
   76MOL0     C10171   8.675  11.090   2.723  0.8646 -0.8068 -0.5484
   76MOL0     O10172   8.414  11.393   2.660  0.3043 -0.9371  0.0898
   76MOL0     C10173   8.149  11.358   2.750  0.1445  0.3519  0.6474
   76MOL0     C10174   8.025  11.338   2.809  0.8158  0.2306 -0.3000
   76MOL0     N10175   7.609  10.732   3.260 -0.4191 -0.8659  0.5957
   76MOL0     N10176   7.589  10.647   3.346  0.6567 -0.1145 -0.4109
   76MOL0     C10177   7.579  10.854   4.517  0.1419 -0.2081 -0.8598
   76MOL0     C10178   7.455  10.844   4.568 -0.5332 -0.4806  0.4058
   76MOL0     C10179   7.053  10.819   4.735 -0.6254 -0.2479  0.4929
   76MOL0     C10180   6.950  10.894   4.686  0.1346 -0.0037  0.6847
   76MOL0     C10181   6.832  10.905   4.749  0.2489  0.8323  0.6163
   76MOL0     C10182   6.809  10.840   4.865 -0.9160  0.4159  0.2643
   76MOL0     O10183   6.681  10.858   4.917  0.0609  0.1087 -0.1239
   76MOL0     C10184   6.669  10.818   5.058  0.3859 -0.0557 -0.1961
   76MOL0     C10185   6.537  10.860   5.118  0.4841  0.4581  0.7018
   76MOL0     C10186   6.521  11.015   5.154 -0.7680  0.7837  0.5102
   76MOL0     C10187   6.371  11.058   5.170 -0.0771  0.2218 -0.2303
   76MOL0     C10188   6.305  10.987   5.284 -0.3615 -0.5867 -0.2490
   76MOL0     C10189   6.250  10.942   5.382 -0.8979  0.0302 -0.2186
   76MOL0     C10190   6.918  10.767   4.925  0.0811  0.4631 -0.3793
   76MOL0     C10191   7.042  10.756   4.866 -1.4585 -0.3221  0.4429
   76MOL0     C10192   7.156  10.682   4.919 -0.0993 -0.3621 -0.3717
   76MOL0     H10193   7.300  11.093   4.400 -0.9941 -0.4605  0.2044
   76MOL0     H10194   7.519  11.123   4.319  0.6711  1.4920  1.8790
   76MOL0     H10195   7.857  10.810   4.253 -0.3614 -1.9272 -2.4772
   76MOL0     H10196   7.705  10.758   4.310 -1.9928  0.9279  0.4605
   76MOL0     H10197   7.731  10.976   4.098  0.4705 -0.2920  0.1048
   76MOL0     H10198   7.583  10.898   4.133  0.3140  2.3089 -1.5532
   76MOL0     H10199   7.696  10.674   4.083  0.4900  0.0235  1.1420
   76MOL0     H10200   7.828  10.773   4.009 -0.3949  1.3217  0.4551
   76MOL0     H10201   7.530  10.759   3.937 -0.7324 -0.4510 -2.4302
   76MOL0     H10202   7.650  10.861   3.853 -1.0382  2.4351  1.9590
   76MOL0     H10203   7.793  10.639   3.828 -0.4883 -2.7564  0.1689
   76MOL0     H10204   7.644  10.559   3.890 -3.4234 -0.9976 -2.6253
   76MOL0     H10205   7.666  10.743   3.643  3.2743  0.2102  1.5731
   76MOL0     H10206   7.678  10.565   3.644 -0.1374  0.5532  0.0553
   76MOL0     H10207   7.446  10.755   3.687 -1.6006 -0.7572 -1.1848
   76MOL0     H10208   7.431  10.605   3.755 -0.8839  0.1590 -0.0881
   76MOL0     H10209   7.448  10.509   3.515  0.2883  0.5116 -2.1419
   76MOL0     H10210   7.318  10.635   3.527 -0.0653  0.2504 -0.0091
   76MOL0     H10211   7.369  10.889   3.405 -0.0336  0.1205 -0.2211
   76MOL0     H10212   7.507  10.944   3.094  2.1681 -0.6021 -0.9786
   76MOL0     H10213   7.494  11.048   3.238 -1.9074 -0.2557 -1.4054
   76MOL0     H10214   7.739  11.032   3.271  1.8644 -1.2368 -0.0214
   76MOL0     H10215   7.736  10.893   3.155 -3.1041 -0.7328  0.2825
   76MOL0     H10216   7.652  11.179   3.071 -1.4311 -1.6771  0.8199
   76MOL0     H10217   7.691  11.030   2.977  2.2240  0.8586 -1.2773
   76MOL0     H10218   7.929  11.042   3.047 -0.2396  0.5260 -1.2122
   76MOL0     H10219   7.902  11.176   3.153  0.7105  3.5180 -1.8776
   76MOL0     H10220   8.115  11.111   3.039 -0.1713 -0.5685 -0.4754
   76MOL0     H10221   8.332  11.146   2.942  1.5848 -0.4234 -4.9718
   76MOL0     H10222   8.653  11.425   2.739  1.1753  0.6852 -3.1377
   76MOL0     H10223   8.877  11.417   2.654  0.5455 -0.8168 -3.5023
   76MOL0     H10224   8.966  11.241   2.411  0.0314  0.0070  0.0406
   76MOL0     H10225   9.019  11.363   2.529 -1.1441 -0.2707  2.4499
   76MOL0     H10226   9.184  11.124   2.435 -3.4041 -1.0663  3.2891
   76MOL0     H10227   9.182  11.282   2.339  1.7286  0.2458  0.0759
   76MOL0     H10228   9.265  11.306   2.632  3.8042  2.1846  0.8265
   76MOL0     H10229   9.367  11.262   2.500 -1.0517 -1.6866 -1.1803
   76MOL0     H10230   9.184  11.497   2.480 -1.1017 -2.4060 -0.6702
   76MOL0     H10231   9.326  11.465   2.379 -0.4863  0.1528 -0.4977
   76MOL0     H10232   9.476  11.498   2.571 -0.4899 -1.8115 -1.3438
   76MOL0     H10233   9.333  11.521   2.675 -1.3545 -1.0032 -0.4905
   76MOL0     H10234   9.401  11.698   2.439 -0.1781 -0.6007  0.1723
   76MOL0     H10235   9.254  11.709   2.536 -0.1624 -0.7261 -3.8165
   76MOL0     H10236   9.537  11.748   2.638 -0.1849  0.2153  2.2777
   76MOL0     H10237   9.389  11.753   2.735  2.5976 -2.2611  0.9913
   76MOL0     H10238   9.464  11.948   2.511 -1.7175  1.3706  0.4381
   76MOL0     H10239   9.325  11.963   2.622  1.4107  3.5490  0.6910
   76MOL0     H10240   8.854  10.983   2.673  1.0104  1.6923  2.2408
   76MOL0     H10241   8.626  10.995   2.744  2.7673 -2.5083 -3.0565
   76MOL0     H10242   8.145  11.436   2.675 -0.4698 -0.2877 -0.0015
   76MOL0     H10243   7.938  11.399   2.786  0.2527 -0.4156  0.0934
   76MOL0     H10244   7.666  10.795   4.546 -0.4776 -0.3395  0.8593
   76MOL0     H10245   7.445  10.765   4.642 -2.3829 -1.5737 -0.9245
   76MOL0     H10246   6.977  10.958   4.602  4.6195  1.2776  2.7657
   76MOL0     H10247   6.748  10.959   4.706 -1.5912 -1.7590  0.7513
   76MOL0     H10248   6.751  10.868   5.110 -1.6029  1.8473  1.2627
   76MOL0     H10249   6.665  10.709   5.064 -0.3025 -0.1390 -1.6445
   76MOL0     H10250   6.527  10.805   5.213  0.4954  0.9828  1.0097
   76MOL0     H10251   6.455  10.844   5.048  1.2315 -0.4549 -0.0007
   76MOL0     H10252   6.564  11.079   5.077  0.7953 -0.6382  0.1449
   76MOL0     H10253   6.579  11.050   5.240 -1.7561 -1.1101  2.0194
   76MOL0     H10254   6.371  11.166   5.188 -4.0560 -0.0601  3.2082
   76MOL0     H10255   6.323  11.024   5.078  1.8193  0.6086 -1.4112
   76MOL0     H10256   6.200  10.904   5.469  0.8053  0.8455  1.2122
   76MOL0     H10257   6.908  10.717   5.021  0.8212  1.3245  0.1696
   76MOL0     H10258   7.214  10.756   4.976 -1.7172  2.6003 -2.3148
   76MOL0     H10259   7.112  10.603   4.980  0.7213 -0.9963 -0.5911
   76MOL0     H10260   7.213  10.636   4.837  0.2486  1.9175 -1.5064
   77MOL0     O10261   1.534   9.236   1.368  0.2856  0.5645  0.2152
   77MOL0     C10262   1.462   9.330   1.350  0.0976  0.1764  0.1885
   77MOL0     O10263   1.507   9.456   1.313 -0.4013  0.3119  0.4844
   77MOL0     C10264   1.633   9.498   1.337 -0.1481 -0.3853  0.5151
   77MOL0     C10265   1.751   9.446   1.279  0.5854 -0.3081  0.3012
   77MOL0     C10266   1.876   9.505   1.300  0.0088 -0.9635 -1.3707
   77MOL0     C10267   1.887   9.618   1.389 -1.1282 -0.3536  0.6486
   77MOL0     O10268   2.013   9.680   1.406 -0.2133  0.0889  0.0044
   77MOL0     C10269   2.018   9.790   1.491  0.3567 -0.4074  0.4739
   77MOL0     C10270   2.171   9.821   1.514  0.1563  0.2324  0.2368
   77MOL0     C10271   2.229   9.714   1.620  0.6767 -1.0121  0.1956
   77MOL0     C10272   2.373   9.766   1.653 -0.5088  0.1831 -0.4886
   77MOL0     C10273   2.438   9.661   1.737 -0.6024  0.2886  0.4031
   77MOL0     C10274   2.589   9.701   1.741 -0.0816 -0.4948 -0.8166
   77MOL0     C10275   2.665   9.606   1.842 -0.0468 -1.0428  0.2005
   77MOL0     C10276   2.811   9.628   1.867 -1.0737  0.3271 -0.0989
   77MOL0     N10277   2.832   9.777   1.881 -0.3806  0.3928 -0.1863
   77MOL0     C10278   2.805   9.853   1.989  0.0281  0.9600  0.4738
   77MOL0     C10279   2.816   9.982   1.946  0.4464 -0.1658 -0.6975
   77MOL0     C10280   2.785  10.110   2.025  0.2380  0.5669  0.4216
   77MOL0     C10281   2.863  10.130   2.152 -0.9276  0.2097 -1.2185
   77MOL0     C10282   3.014  10.157   2.139  0.1442 -0.0483 -0.9602
   77MOL0     C10283   3.085  10.179   2.272 -0.1607  0.1233  0.0153
   77MOL0     O10284   3.100  10.059   2.349  0.5541  0.1283  0.1436
   77MOL0     C10285   3.232  10.025   2.378  1.1677  0.6250 -1.1229
   77MOL0     C10286   3.295  10.029   2.506  0.6210 -0.0923  0.7343
   77MOL0     C10287   3.428   9.992   2.522 -0.6599 -0.3800 -0.0264
   77MOL0     C10288   3.505   9.937   2.418  0.5801  0.3295  0.3988
   77MOL0     C10289   3.646   9.898   2.438  0.4296 -0.6166 -0.3557
   77MOL0     O10290   3.696   9.804   2.354 -0.2809  0.4236 -0.1135
   77MOL0     C10291   3.832   9.775   2.353  0.1758 -0.0861 -0.1660
   77MOL0     C10292   3.928   9.863   2.308 -0.1729 -0.5139 -0.2290
   77MOL0     C10293   4.069   9.844   2.333  0.3410  0.8567  0.0961
   77MOL0     C10294   4.110   9.729   2.398  0.2196 -0.0704  0.0890
   77MOL0     O10295   4.247   9.704   2.419  0.0488 -0.3772 -0.2162
   77MOL0     C10296   4.309   9.584   2.386  0.3365 -0.3555 -0.6921
   77MOL0     C10297   4.363   9.522   2.510  0.0691  0.7935 -0.1959
   77MOL0     C10298   4.440   9.614   2.607  0.3328 -0.7246 -0.1429
   77MOL0     C10299   4.534   9.722   2.545 -0.2279 -0.6178 -0.1230
   77MOL0     C10300   4.668   9.670   2.481 -0.0430 -0.4109  0.3725
   77MOL0     C10301   4.752   9.766   2.401  0.0730 -0.2693 -1.1540
   77MOL0     C10302   4.824   9.690   2.286  0.4084  0.2930  0.1793
   77MOL0     C10303   4.970   9.751   2.272  0.9030  0.4041  0.0842
   77MOL0    Cl10304   5.084   9.692   2.403 -0.2189 -0.0900 -0.1255
   77MOL0     C10305   4.013   9.644   2.450  0.3035  0.1594 -0.3604
   77MOL0     C10306   3.875   9.671   2.431 -0.2134  0.8121 -0.4003
   77MOL0     O10307   3.705   9.952   2.535 -0.1383 -0.1305  0.3168
   77MOL0     C10308   3.437   9.927   2.295  0.2127 -0.3931  0.3383
   77MOL0     C10309   3.308   9.966   2.276 -0.5936 -0.0890  0.1139
   77MOL0     N10310   2.839   9.983   1.814 -0.1737  0.2036 -0.1082
   77MOL0     N10311   2.855   9.858   1.777  0.4402 -0.7894 -0.4556
   77MOL0     C10312   1.774   9.664   1.452  1.0060  1.2592 -0.2057
   77MOL0     C10313   1.646   9.602   1.424  0.2712  0.0796  0.0415
   77MOL0     C10314   1.315   9.323   1.378  0.0509  0.2918 -0.3121
   77MOL0     C10315   1.239   9.441   1.386  0.9771  0.0246  0.7757
   77MOL0     C10316   1.106   9.441   1.422  0.0458  0.3328 -0.4751
   77MOL0     C10317   1.048   9.325   1.476 -0.7172 -0.1237 -0.0812
   77MOL0     O10318   0.925   9.345   1.541 -0.8591 -0.2740 -0.2813
   77MOL0     C10319   0.876   9.246   1.643 -0.2164 -0.2068  0.2723
   77MOL0     C10320   0.738   9.185   1.613  0.1685  0.1292  0.6712
   77MOL0     C10321   0.758   9.094   1.489  0.0499  0.3510  0.5188
   77MOL0     C10322   0.632   9.068   1.410  0.4320  0.0376 -0.4299
   77MOL0     C10323   0.524   8.992   1.480 -0.0970 -0.2762 -0.1036
   77MOL0     C10324   0.444   8.910   1.535  0.5216 -0.5244  0.3818
   77MOL0     C10325   1.119   9.204   1.456  0.2039 -0.6289 -0.2448
   77MOL0     C10326   1.249   9.198   1.406  0.2054  0.5022  0.8217
   77MOL0     C10327   1.301   9.063   1.384 -0.6487  0.4945  1.1984
   77MOL0     H10328   1.731   9.368   1.207  1.7392  0.5105 -0.9491
   77MOL0     H10329   1.966   9.474   1.248  1.5911  3.7312 -1.9541
   77MOL0     H10330   1.969   9.881   1.453 -0.3021 -1.2208 -0.7083
   77MOL0     H10331   1.978   9.762   1.588 -0.9584  1.3282  0.4862
   77MOL0     H10332   2.185   9.926   1.543  1.0153  0.0282  0.6020
   77MOL0     H10333   2.228   9.802   1.422  0.4205 -0.9652  0.6368
   77MOL0     H10334   2.229   9.612   1.581  0.0028 -0.9570  0.0347
   77MOL0     H10335   2.171   9.724   1.712 -2.1128 -0.6801 -1.4957
   77MOL0     H10336   2.433   9.781   1.563 -0.0230  1.2702  0.0011
   77MOL0     H10337   2.371   9.858   1.711 -0.8012 -0.5535  0.7166
   77MOL0     H10338   2.389   9.648   1.834 -1.3125 -0.6910 -0.0618
   77MOL0     H10339   2.425   9.569   1.679 -1.3079  0.9936 -0.5824
   77MOL0     H10340   2.628   9.700   1.639 -1.3249 -0.7210 -1.3077
   77MOL0     H10341   2.597   9.803   1.780 -2.3601 -0.7814  0.6039
   77MOL0     H10342   2.643   9.504   1.810 -1.4747 -0.6696 -0.0821
   77MOL0     H10343   2.624   9.625   1.942  0.6597  3.0640 -0.0951
   77MOL0     H10344   2.852   9.579   1.955 -0.8627  1.8638  0.6981
   77MOL0     H10345   2.867   9.596   1.779 -0.4323  0.2786  0.3270
   77MOL0     H10346   2.792   9.812   2.089  2.6203 -1.4173 -0.0130
   77MOL0     H10347   2.818  10.190   1.958  0.6549 -1.5593 -2.0987
   77MOL0     H10348   2.677  10.119   2.041  0.0325 -0.2301 -0.4427
   77MOL0     H10349   2.830  10.213   2.215  1.0710  2.8276 -3.4180
   77MOL0     H10350   2.845  10.037   2.207 -3.3781  0.1404 -2.0251
   77MOL0     H10351   3.033  10.246   2.080  1.1989  0.0968 -0.4262
   77MOL0     H10352   3.061  10.070   2.093  0.8061  0.8605 -2.0542
   77MOL0     H10353   3.024  10.247   2.333 -2.1002  0.3185 -2.0204
   77MOL0     H10354   3.185  10.222   2.256  0.4394 -2.0383 -2.6888
   77MOL0     H10355   3.237  10.079   2.583 -2.0602 -1.2839 -0.4030
   77MOL0     H10356   3.482  10.015   2.613 -0.3176  0.5096 -0.4411
   77MOL0     H10357   3.886   9.942   2.246  0.5984  2.2027  2.4424
   77MOL0     H10358   4.148   9.915   2.312  0.2620  0.4781 -1.6545
   77MOL0     H10359   4.234   9.515   2.346 -0.2568 -1.7444  2.5120
   77MOL0     H10360   4.390   9.606   2.315 -0.1479  1.1540 -0.8093
   77MOL0     H10361   4.280   9.472   2.561 -1.2494  3.1761  0.1417
   77MOL0     H10362   4.426   9.442   2.471 -3.8414 -1.5359 -2.3635
   77MOL0     H10363   4.368   9.668   2.669  1.5680  1.3613 -0.4341
   77MOL0     H10364   4.497   9.558   2.682  1.2870  0.9504  0.4103
   77MOL0     H10365   4.555   9.807   2.611 -4.5244  1.3467 -0.9584
   77MOL0     H10366   4.476   9.765   2.463 -3.4619 -1.2457  1.6860
   77MOL0     H10367   4.641   9.592   2.410  0.4582 -1.2136  1.0485
   77MOL0     H10368   4.731   9.624   2.558  0.3196 -2.0544 -0.8514
   77MOL0     H10369   4.692   9.850   2.365 -2.3955 -1.3251  0.2043
   77MOL0     H10370   4.816   9.825   2.467 -0.6639 -0.3187 -0.3647
   77MOL0     H10371   4.761   9.698   2.196 -1.7280  3.2098  1.7739
   77MOL0     H10372   4.827   9.584   2.311 -1.5487 -0.7092 -3.1438
   77MOL0     H10373   5.016   9.706   2.184  3.7945 -1.9730  2.5710
   77MOL0     H10374   4.964   9.860   2.258 -1.5888  0.2645 -0.3995
   77MOL0     H10375   4.034   9.561   2.517  0.9577  1.8358  1.6168
   77MOL0     H10376   3.802   9.600   2.469  0.1838 -0.2719 -1.5471
   77MOL0     H10377   3.493   9.879   2.216 -1.6966  1.7137 -2.5109
   77MOL0     H10378   3.259   9.941   2.183 -1.9696 -2.3709  1.3550
   77MOL0     H10379   1.786   9.743   1.526  0.5754  0.2044  1.0394
   77MOL0     H10380   1.564   9.647   1.478  0.1119  2.6247 -2.0895
   77MOL0     H10381   1.287   9.538   1.376  0.4951  0.1362 -0.6671
   77MOL0     H10382   1.053   9.535   1.434  0.0555  0.2854 -0.0676
   77MOL0     H10383   0.880   9.298   1.739 -0.9788 -0.9602  0.7255
   77MOL0     H10384   0.949   9.166   1.658 -0.3124  0.3223  5.5659
   77MOL0     H10385   0.667   9.265   1.592  1.5840  1.3954  0.5630
   77MOL0     H10386   0.686   9.121   1.686  1.8071  0.1457  1.9041
   77MOL0     H10387   0.789   8.995   1.524 -2.7590 -0.8328 -0.1217
   77MOL0     H10388   0.840   9.131   1.427 -0.2130  0.7859  0.4279
   77MOL0     H10389   0.593   9.165   1.380 -0.0554  0.4606  1.4167
   77MOL0     H10390   0.665   9.012   1.322 -3.2310 -2.0048 -0.7281
   77MOL0     H10391   0.371   8.847   1.582 -2.7180  1.2408 -1.8625
   77MOL0     H10392   1.066   9.113   1.484  0.9613 -0.7317  0.9472
   77MOL0     H10393   1.378   9.028   1.453 -0.0566 -0.2285  0.2063
   77MOL0     H10394   1.217   8.994   1.395 -1.0973  0.5396 -1.3143
   77MOL0     H10395   1.335   9.059   1.280  0.6918  1.6102  1.5650
   78MOL0     O10396   0.492   7.087   7.764 -0.7178 -0.2728 -0.6513
   78MOL0     C10397   0.421   7.035   7.853 -0.1860 -0.3504  0.1848
   78MOL0     O10398   0.463   6.935   7.936  0.2756 -0.5915 -0.0451
   78MOL0     C10399   0.576   6.873   7.896  0.1666  0.2124 -0.0645
   78MOL0     C10400   0.704   6.927   7.906 -0.1646 -0.7267  0.1370
   78MOL0     C10401   0.820   6.850   7.864  0.1967 -0.4978 -0.2198
   78MOL0     C10402   0.810   6.723   7.821  0.6888 -0.1031 -0.1734
   78MOL0     O10403   0.921   6.666   7.780  0.5618  0.8386 -0.2643
   78MOL0     C10404   0.922   6.534   7.721  0.2965 -0.2531 -0.2296
   78MOL0     C10405   0.920   6.433   7.833  0.2148  0.0549 -1.3445
   78MOL0     C10406   1.052   6.434   7.910 -0.3106 -0.5311 -0.3294
   78MOL0     C10407   1.167   6.379   7.831  0.1258 -0.3876  0.0985
   78MOL0     C10408   1.285   6.324   7.923 -0.2949 -0.1471  0.0770
   78MOL0     C10409   1.394   6.258   7.847 -0.4175 -0.1463  0.4446
   78MOL0     C10410   1.523   6.246   7.931 -0.7174 -0.0887 -0.3710
   78MOL0     C10411   1.598   6.378   7.954  0.3303 -0.1644 -0.1011
   78MOL0     N10412   1.732   6.354   8.006 -0.2365 -0.2749  0.0514
   78MOL0     C10413   1.776   6.372   8.141 -0.1334 -0.0051  0.0365
   78MOL0     C10414   1.911   6.341   8.143 -0.1940  0.4214  0.1826
   78MOL0     C10415   1.999   6.344   8.266 -0.6487 -0.4572 -0.2689
   78MOL0     C10416   2.106   6.233   8.255 -0.4923 -0.8013  0.0279
   78MOL0     C10417   2.199   6.212   8.382  0.5008  0.3482  0.1249
   78MOL0     C10418   2.315   6.129   8.352  0.3736  0.5917 -0.1867
   78MOL0     O10419   2.378   6.087   8.473 -0.2081  0.1784  0.1670
   78MOL0     C10420   2.490   6.143   8.511 -0.4942  0.4305  0.1021
   78MOL0     C10421   2.540   6.272   8.467 -0.1860  0.0725 -0.0089
   78MOL0     C10422   2.665   6.314   8.508  0.1609 -0.1996  0.5631
   78MOL0     C10423   2.734   6.232   8.596  0.2618  0.4283  1.5221
   78MOL0     C10424   2.875   6.268   8.639 -0.3491  0.6248 -0.1722
   78MOL0     O10425   2.933   6.378   8.585  0.2750  0.2463  0.3924
   78MOL0     C10426   3.055   6.416   8.632  1.3763 -0.5509  0.1041
   78MOL0     C10427   3.059   6.474   8.758 -0.0574 -0.3787  0.0043
   78MOL0     C10428   3.187   6.510   8.808 -0.2798  0.0469  0.6281
   78MOL0     C10429   3.295   6.509   8.723 -0.4365  0.6889  0.1204
   78MOL0     O10430   3.413   6.576   8.769  0.3865 -0.1611 -0.3487
   78MOL0     C10431   3.525   6.590   8.682  0.2215  0.7102 -0.4321
   78MOL0     C10432   3.633   6.658   8.766 -0.0766  0.6424  0.5159
   78MOL0     C10433   3.769   6.670   8.690  0.2215  1.0010  0.1689
   78MOL0     C10434   3.885   6.720   8.781 -0.8653  0.6955  0.4829
   78MOL0     C10435   4.026   6.706   8.711 -0.4793  0.3949  0.0048
   78MOL0     C10436   4.062   6.556   8.685  0.1013  0.0498  0.1264
   78MOL0     C10437   4.213   6.548   8.665 -0.0762 -0.5931 -0.2880
   78MOL0     C10438   4.280   6.424   8.720 -0.0996 -0.1117 -0.4512
   78MOL0    Cl10439   4.452   6.435   8.657 -0.4236  0.5604  0.0075
   78MOL0     C10440   3.287   6.466   8.591 -0.2683  0.4864 -0.1793
   78MOL0     C10441   3.167   6.410   8.551 -0.7440  0.6156 -0.0521
   78MOL0     O10442   2.927   6.204   8.731  0.4879  1.0675  0.0507
   78MOL0     C10443   2.681   6.114   8.641 -0.4845 -0.2994 -0.8108
   78MOL0     C10444   2.562   6.064   8.603  0.2129  0.5684  0.4824
   78MOL0     N10445   1.955   6.317   8.017 -0.0217 -0.0769  0.3936
   78MOL0     N10446   1.854   6.319   7.934  0.5783  0.7258 -0.3941
   78MOL0     C10447   0.681   6.667   7.808  0.4789 -0.5154 -0.3595
   78MOL0     C10448   0.563   6.741   7.850 -0.6374  0.2727  0.2433
   78MOL0     C10449   0.294   7.115   7.870  0.5313  0.0617  0.2554
   78MOL0     C10450   0.286   7.246   7.809 -0.0514  0.1455 -0.1572
   78MOL0     C10451   0.173   7.322   7.822  0.6781  0.8996 -0.2034
   78MOL0     C10452   0.062   7.277   7.882 -0.1806  0.5961  0.0158
   78MOL0     O10453  -0.038   7.358   7.926 -0.4311 -0.0187 -0.5406
   78MOL0     C10454  -0.043   7.499   7.885 -0.0167  0.3124 -0.7109
   78MOL0     C10455  -0.185   7.547   7.879 -0.7264  0.2497 -0.3450
   78MOL0     C10456  -0.199   7.695   7.818  0.1781 -0.5249 -0.0643
   78MOL0     C10457  -0.352   7.728   7.795  0.0252  0.0064  0.6895
   78MOL0     C10458  -0.376   7.873   7.774 -0.5915  0.3005  0.0103
   78MOL0     C10459  -0.386   7.994   7.750 -0.2194  0.4450 -0.5912
   78MOL0     C10460   0.059   7.142   7.933  0.0429 -0.1629 -0.4325
   78MOL0     C10461   0.177   7.061   7.933 -0.1038  0.1415 -0.4564
   78MOL0     C10462   0.173   6.933   8.017  0.7688 -0.5200  0.2036
   78MOL0     H10463   0.733   7.023   7.945  0.7650 -0.4017 -1.2782
   78MOL0     H10464   0.913   6.905   7.870  1.7548 -3.0765  0.6379
   78MOL0     H10465   0.841   6.512   7.652  0.9282 -0.7590 -0.8168
   78MOL0     H10466   1.016   6.524   7.667  0.0397 -0.8159 -0.5770
   78MOL0     H10467   0.907   6.331   7.796  0.6180 -0.2350 -0.7042
   78MOL0     H10468   0.837   6.464   7.896 -0.4613  0.9112 -2.6126
   78MOL0     H10469   1.031   6.374   7.998 -1.0838  0.5348  0.2340
   78MOL0     H10470   1.071   6.529   7.960 -2.1245 -0.2366 -0.1524
   78MOL0     H10471   1.135   6.289   7.778  0.1515 -0.1668 -0.2944
   78MOL0     H10472   1.212   6.458   7.769 -2.9292  1.0335 -0.5134
   78MOL0     H10473   1.328   6.413   7.970  1.5426 -0.6519 -0.5694
   78MOL0     H10474   1.247   6.258   8.002  0.0065  1.8264  1.9727
   78MOL0     H10475   1.362   6.159   7.811 -0.5549 -0.3465  1.0971
   78MOL0     H10476   1.417   6.314   7.757  0.9674 -2.1201 -0.5006
   78MOL0     H10477   1.596   6.187   7.876  0.2729  0.2460  0.5528
   78MOL0     H10478   1.493   6.189   8.019  0.0058 -1.6839 -1.1204
   78MOL0     H10479   1.614   6.420   7.854 -2.8334 -2.6698 -1.8419
   78MOL0     H10480   1.545   6.446   8.021  1.0979  0.5120 -0.1584
   78MOL0     H10481   1.721   6.392   8.233 -0.6854  2.1369 -0.7144
   78MOL0     H10482   2.044   6.444   8.264 -2.9294  0.6492 -2.8653
   78MOL0     H10483   1.937   6.328   8.356  1.0442  1.2424  1.2852
   78MOL0     H10484   2.061   6.139   8.220  1.0778 -1.2616 -0.8215
   78MOL0     H10485   2.172   6.262   8.173 -1.1117  1.1559  0.1739
   78MOL0     H10486   2.146   6.159   8.461 -0.6100 -2.2512 -2.1968
   78MOL0     H10487   2.230   6.315   8.399 -0.8941  1.1602 -1.7590
   78MOL0     H10488   2.380   6.181   8.281  1.3709 -0.8180 -0.3286
   78MOL0     H10489   2.277   6.043   8.297 -0.4111 -0.2647  1.6179
   78MOL0     H10490   2.486   6.335   8.397 -2.0598 -1.3481  0.0831
   78MOL0     H10491   2.703   6.411   8.479 -1.1517  1.1266  2.9611
   78MOL0     H10492   2.968   6.490   8.815 -0.6870 -0.8499 -0.8292
   78MOL0     H10493   3.197   6.541   8.912  0.2281  2.1258  0.0195
   78MOL0     H10494   3.569   6.497   8.644 -0.3087  1.7406 -3.9274
   78MOL0     H10495   3.501   6.658   8.599 -0.4551 -0.1428 -0.9584
   78MOL0     H10496   3.598   6.759   8.793 -1.4694 -0.7657  4.6999
   78MOL0     H10497   3.654   6.615   8.864  2.6606  0.2919 -0.1490
   78MOL0     H10498   3.803   6.572   8.655  4.1896  0.5741  4.3560
   78MOL0     H10499   3.760   6.730   8.598  2.9782  1.7906  0.3434
   78MOL0     H10500   3.893   6.665   8.875  2.3407 -3.2109 -1.7471
   78MOL0     H10501   3.874   6.828   8.797 -2.0842  0.8362 -1.0709
   78MOL0     H10502   4.105   6.740   8.778  2.6771  0.5249 -3.4451
   78MOL0     H10503   4.030   6.764   8.618  1.9560  0.2320 -0.0575
   78MOL0     H10504   4.033   6.490   8.767 -1.9233 -0.9118 -1.2963
   78MOL0     H10505   4.005   6.521   8.599  0.1546 -1.5790  0.7193
   78MOL0     H10506   4.269   6.631   8.709  1.1520 -2.1520  1.2171
   78MOL0     H10507   4.230   6.555   8.557 -0.1489  2.0423 -0.2082
   78MOL0     H10508   4.278   6.420   8.829 -1.2373 -2.3699 -0.5004
   78MOL0     H10509   4.228   6.337   8.679  0.0823  0.1147 -1.1831
   78MOL0     H10510   3.374   6.471   8.527  0.9146 -0.0325  1.3427
   78MOL0     H10511   3.166   6.389   8.444  1.1252  0.0118  0.0167
   78MOL0     H10512   2.738   6.047   8.705 -1.9649 -1.1279 -0.3116
   78MOL0     H10513   2.514   5.976   8.645  1.7447 -1.1540 -1.1968
   78MOL0     H10514   0.672   6.564   7.775  0.2883 -0.2225 -1.2468
   78MOL0     H10515   0.464   6.699   7.862 -0.4302 -0.0873  0.7000
   78MOL0     H10516   0.369   7.286   7.751 -1.9587  3.1881 -1.0381
   78MOL0     H10517   0.185   7.420   7.777  1.2777  0.6178 -0.6770
   78MOL0     H10518  -0.005   7.523   7.785 -1.1364  0.4204 -1.1237
   78MOL0     H10519   0.023   7.543   7.960 -0.1707 -0.0300 -0.3710
   78MOL0     H10520  -0.242   7.535   7.971  1.6337  0.6118  1.2557
   78MOL0     H10521  -0.238   7.485   7.806 -1.6691  0.1790  0.3799
   78MOL0     H10522  -0.142   7.695   7.724 -0.2150 -0.6287 -0.3060
   78MOL0     H10523  -0.168   7.772   7.889 -0.9374  0.4802 -0.6471
   78MOL0     H10524  -0.385   7.687   7.699 -3.5955 -0.0615  1.7968
   78MOL0     H10525  -0.418   7.691   7.874 -1.7879  2.1839  0.2785
   78MOL0     H10526  -0.391   8.101   7.739 -1.6914  0.9027  3.2557
   78MOL0     H10527  -0.029   7.093   7.973  0.3931  0.4979  1.2271
   78MOL0     H10528   0.076   6.916   8.065  0.8282  0.3505  0.6437
   78MOL0     H10529   0.185   6.848   7.949 -0.1137  0.9685 -1.9342
   78MOL0     H10530   0.245   6.939   8.099  0.7457  1.0984  0.1255
   79MOL0     O10531   1.728   6.421   6.826 -0.1530 -0.0377  0.1018
   79MOL0     C10532   1.684   6.415   6.943  0.6990 -0.2027  0.3524
   79MOL0     O10533   1.736   6.458   7.060  0.5067  0.3173  0.4021
   79MOL0     C10534   1.869   6.498   7.057  0.2753  0.4502  0.0713
   79MOL0     C10535   1.967   6.403   7.022  0.8318  0.0655  0.4161
   79MOL0     C10536   2.097   6.435   7.032  0.1468  0.0211 -0.3335
   79MOL0     C10537   2.135   6.560   7.078 -0.0469 -0.0703 -0.5325
   79MOL0     O10538   2.268   6.579   7.089 -0.1383  0.7188 -0.5266
   79MOL0     C10539   2.313   6.609   7.220 -0.4403 -0.3056 -0.1955
   79MOL0     C10540   2.340   6.761   7.230 -0.2066  0.8957 -0.0104
   79MOL0     C10541   2.480   6.808   7.181  0.6365  1.2841 -0.2719
   79MOL0     C10542   2.511   6.949   7.207  0.4576  0.1128  0.2715
   79MOL0     C10543   2.640   6.998   7.138  0.3102  0.4917  0.2971
   79MOL0     C10544   2.755   6.981   7.240  0.1732  0.4473  0.4601
   79MOL0     C10545   2.885   6.990   7.179  0.1818  0.3466  1.2956
   79MOL0     C10546   2.998   6.990   7.282 -0.3682  0.4973 -0.4113
   79MOL0     N10547   3.124   6.988   7.200  0.3814 -0.7204 -0.0740
   79MOL0     C10548   3.176   7.081   7.110  0.0233 -0.6871  0.1173
   79MOL0     C10549   3.301   7.040   7.071  0.0277 -0.2888 -0.1546
   79MOL0     C10550   3.395   7.102   6.976 -0.3199 -0.0183  0.8365
   79MOL0     C10551   3.542   7.104   7.023  0.4139  0.2160 -0.4879
   79MOL0     C10552   3.629   7.165   6.914 -0.4780  0.1069  1.0326
   79MOL0     C10553   3.775   7.198   6.965 -0.5735 -0.2749 -0.4815
   79MOL0     O10554   3.840   7.079   7.025 -0.4068 -0.1762 -0.3426
   79MOL0     C10555   3.972   7.080   7.057 -0.3599  0.2123 -0.0403
   79MOL0     C10556   4.049   7.198   7.064  0.1635  0.3443  0.5277
   79MOL0     C10557   4.187   7.192   7.110  0.1246 -0.5616 -0.2475
   79MOL0     C10558   4.247   7.074   7.134  0.7422  0.8823 -0.3310
   79MOL0     C10559   4.392   7.062   7.159  0.2350  0.0923  0.1229
   79MOL0     O10560   4.464   7.177   7.165  0.3069  0.0910  0.1287
   79MOL0     C10561   4.598   7.168   7.194 -0.7143  1.4478  0.3886
   79MOL0     C10562   4.650   7.090   7.295  0.0733 -0.4065  0.1527
   79MOL0     C10563   4.788   7.091   7.320  0.5164 -0.0975 -1.1569
   79MOL0     C10564   4.866   7.188   7.258 -0.2250 -0.6122 -0.3506
   79MOL0     O10565   4.998   7.213   7.284  0.4211  0.1445  0.1298
   79MOL0     C10566   5.057   7.144   7.396  0.0035  0.1649  0.5281
   79MOL0     C10567   5.197   7.197   7.422 -0.1083  0.5351  0.0940
   79MOL0     C10568   5.251   7.128   7.549  0.4375 -0.9827 -0.5381
   79MOL0     C10569   5.401   7.108   7.523  0.5878  0.7752 -0.7063
   79MOL0     C10570   5.476   7.241   7.529  0.3610  0.9739  0.1812
   79MOL0     C10571   5.628   7.206   7.510  0.7394  0.5507  0.0961
   79MOL0     C10572   5.719   7.328   7.519  0.7251  0.8325  0.0888
   79MOL0     C10573   5.862   7.294   7.556  0.5748 -0.0297  0.2271
   79MOL0    Cl10574   5.934   7.175   7.438  0.2038  0.2399  0.5262
   79MOL0     C10575   4.815   7.265   7.154  0.3205  0.1076 -0.0425
   79MOL0     C10576   4.686   7.248   7.118  0.0923 -0.6622  0.1557
   79MOL0     O10577   4.448   6.951   7.156  0.4855 -0.1589  0.5693
   79MOL0     C10578   4.170   6.961   7.130  0.6073  1.1261  0.8414
   79MOL0     C10579   4.035   6.963   7.093  0.7451 -0.3865 -0.0554
   79MOL0     N10580   3.317   6.919   7.137 -0.2557 -0.0822  0.6627
   79MOL0     N10581   3.213   6.890   7.216 -0.7969  0.1549 -0.8422
   79MOL0     C10582   2.037   6.653   7.118  0.0979 -0.3550 -0.3518
   79MOL0     C10583   1.901   6.625   7.103  0.0132 -0.0790 -0.5507
   79MOL0     C10584   1.541   6.370   6.938  0.1996  0.1431  0.6985
   79MOL0     C10585   1.479   6.353   6.813  1.0063 -0.1515  0.0301
   79MOL0     C10586   1.344   6.318   6.807  0.3074  1.2775  0.2455
   79MOL0     C10587   1.264   6.297   6.917 -0.0900  0.0890 -0.3743
   79MOL0     O10588   1.126   6.279   6.918 -0.7136 -0.3625 -0.1984
   79MOL0     C10589   1.066   6.331   6.801 -0.1561 -0.8131  0.4549
   79MOL0     C10590   0.924   6.371   6.826  0.4365 -0.1478 -0.7759
   79MOL0     C10591   0.820   6.292   6.756 -0.3733 -0.2133  0.9677
   79MOL0     C10592   0.682   6.360   6.748 -0.7481 -0.3778 -0.1910
   79MOL0     C10593   0.606   6.340   6.869  0.8172  0.5747  0.5543
   79MOL0     C10594   0.545   6.302   6.963  0.3485 -0.2586  0.5197
   79MOL0     C10595   1.324   6.307   7.038  0.0674  0.2755 -0.5380
   79MOL0     C10596   1.459   6.337   7.059 -0.2136 -0.5450  0.5181
   79MOL0     C10597   1.515   6.343   7.209 -0.3143  0.6735  0.5732
   79MOL0     H10598   1.921   6.308   6.993 -0.3842  0.8769 -0.3927
   79MOL0     H10599   2.166   6.354   7.006  0.9509  1.4727 -3.2063
   79MOL0     H10600   2.241   6.571   7.292  1.4822 -1.4422  1.2292
   79MOL0     H10601   2.404   6.550   7.233 -1.2789 -1.4612  0.6381
   79MOL0     H10602   2.315   6.794   7.331  1.1082  0.4636  0.4864
   79MOL0     H10603   2.267   6.808   7.164 -3.3226 -1.7573  1.2991
   79MOL0     H10604   2.482   6.794   7.073  1.7575 -2.6033  0.1008
   79MOL0     H10605   2.544   6.726   7.215 -2.8390 -2.5044 -1.9816
   79MOL0     H10606   2.432   7.006   7.159  0.3917  1.1956  1.5914
   79MOL0     H10607   2.514   6.975   7.313  3.6434  2.1214 -0.1630
   79MOL0     H10608   2.669   6.940   7.050  1.7309 -0.6554  1.4731
   79MOL0     H10609   2.639   7.106   7.120  1.2079  0.0990 -2.5132
   79MOL0     H10610   2.741   7.064   7.310 -2.3281  1.8025 -1.4885
   79MOL0     H10611   2.753   6.879   7.278 -0.4483  0.4796  0.5364
   79MOL0     H10612   2.878   7.086   7.128 -0.7630 -1.3597 -2.1181
   79MOL0     H10613   2.898   6.910   7.105 -2.1760  0.7546  0.3684
   79MOL0     H10614   3.000   7.075   7.351  2.1341 -0.9552  1.4468
   79MOL0     H10615   2.996   6.896   7.338 -2.0906  1.8436  1.9811
   79MOL0     H10616   3.126   7.176   7.095  1.2898  0.0562  0.3922
   79MOL0     H10617   3.387   7.031   6.893 -1.8685 -0.4291  1.3080
   79MOL0     H10618   3.364   7.203   6.948  3.2167  0.7760 -0.7052
   79MOL0     H10619   3.543   7.154   7.120 -2.2681 -1.8721  0.7679
   79MOL0     H10620   3.584   7.004   7.038 -0.9062 -0.8709 -3.3186
   79MOL0     H10621   3.579   7.253   6.873 -2.2777 -0.3603  2.1138
   79MOL0     H10622   3.635   7.095   6.830 -1.3013  1.7038 -0.4046
   79MOL0     H10623   3.777   7.280   7.037 -0.5891  0.2981 -1.1308
   79MOL0     H10624   3.843   7.228   6.885  0.7896 -1.1206  0.3318
   79MOL0     H10625   4.010   7.291   7.023 -0.4573  0.4776  1.3946
   79MOL0     H10626   4.237   7.284   7.137 -0.0590  0.2932 -2.6116
   79MOL0     H10627   4.578   7.025   7.344 -2.5810  0.6258 -2.1044
   79MOL0     H10628   4.830   7.024   7.394  1.0217 -0.5812 -1.8624
   79MOL0     H10629   5.006   7.165   7.491 -0.6681  4.0509 -0.5364
   79MOL0     H10630   5.069   7.038   7.372  2.2225  0.4062  0.3476
   79MOL0     H10631   5.256   7.166   7.335  1.7220  1.0899  1.0778
   79MOL0     H10632   5.184   7.305   7.432  0.1669  0.3419  3.9353
   79MOL0     H10633   5.226   7.186   7.638  0.5659 -0.6703 -0.7046
   79MOL0     H10634   5.189   7.039   7.565  0.8090 -1.2883 -0.7611
   79MOL0     H10635   5.430   7.059   7.430 -1.1942 -0.0090 -0.8763
   79MOL0     H10636   5.446   7.053   7.606  1.5446  1.4072 -0.7872
   79MOL0     H10637   5.473   7.283   7.630  2.0835  0.5974  0.4269
   79MOL0     H10638   5.437   7.311   7.455 -4.3449  1.9988  3.1691
   79MOL0     H10639   5.650   7.131   7.586  0.1845  1.6136  1.3428
   79MOL0     H10640   5.642   7.170   7.408  0.5466  2.4555 -0.6464
   79MOL0     H10641   5.679   7.397   7.594 -2.9704  2.0416 -2.7048
   79MOL0     H10642   5.718   7.374   7.420 -0.4625 -0.1953 -0.3994
   79MOL0     H10643   5.933   7.377   7.551  0.0934  0.3359 -0.9506
   79MOL0     H10644   5.864   7.255   7.658  1.7809 -0.5832  0.0156
   79MOL0     H10645   4.875   7.333   7.094  0.7612  0.5880  0.9203
   79MOL0     H10646   4.647   7.311   7.038 -1.8185 -0.6686  1.0237
   79MOL0     H10647   4.227   6.871   7.149  1.2230  1.1952 -0.5706
   79MOL0     H10648   3.978   6.871   7.093  1.6694 -1.0549  2.4035
   79MOL0     H10649   2.065   6.751   7.155 -0.1007  0.1040 -1.3722
   79MOL0     H10650   1.831   6.702   7.135  1.7924  0.1291  3.3773
   79MOL0     H10651   1.529   6.389   6.723  0.6349 -2.6634 -1.2781
   79MOL0     H10652   1.300   6.320   6.708 -3.1829 -0.4874  1.5820
   79MOL0     H10653   1.072   6.267   6.713 -0.1208 -0.7530  0.4137
   79MOL0     H10654   1.119   6.426   6.785  1.8785 -1.8065  1.0645
   79MOL0     H10655   0.912   6.474   6.789 -1.3587  0.0821  0.3001
   79MOL0     H10656   0.915   6.375   6.935 -0.8089 -0.4350 -0.8578
   79MOL0     H10657   0.795   6.197   6.804 -1.5701 -0.9366 -0.9586
   79MOL0     H10658   0.862   6.278   6.656  3.3369 -4.1102  2.7050
   79MOL0     H10659   0.680   6.468   6.734 -2.7411 -0.7755 -4.4145
   79MOL0     H10660   0.638   6.307   6.662 -0.8559 -2.0508  0.8384
   79MOL0     H10661   0.486   6.259   7.041 -0.6848 -1.8140 -1.0387
   79MOL0     H10662   1.253   6.285   7.118 -1.2873  1.3060 -1.4118
   79MOL0     H10663   1.441   6.283   7.262  0.3231  0.7852  1.6162
   79MOL0     H10664   1.606   6.284   7.218 -1.4290 -1.3841 -0.7921
   79MOL0     H10665   1.521   6.448   7.240 -0.0572  0.7232  0.3597
   80MOL0     O10666   0.017   1.880   6.096 -0.2402 -0.2359  0.3937
   80MOL0     C10667  -0.016   1.951   6.189  0.8009 -0.3007  0.0381
   80MOL0     O10668   0.062   2.016   6.272  0.1539 -0.3407  0.0020
   80MOL0     C10669   0.191   2.055   6.243 -0.2997  0.7196  1.0370
   80MOL0     C10670   0.280   2.051   6.345 -0.3668 -0.0452 -0.1552
   80MOL0     C10671   0.411   2.086   6.332 -0.5742 -0.2236  0.0474
   80MOL0     C10672   0.457   2.148   6.208  0.4639  0.1939  0.3990
   80MOL0     O10673   0.586   2.203   6.205  0.1780 -0.3062 -0.6851
   80MOL0     C10674   0.639   2.256   6.080  0.3677 -0.1030 -0.8390
   80MOL0     C10675   0.792   2.279   6.100 -0.3034  0.4224  1.4958
   80MOL0     C10676   0.834   2.340   6.235 -1.0507 -0.2765  0.2959
   80MOL0     C10677   0.979   2.326   6.265 -0.3652 -0.2170  0.1842
   80MOL0     C10678   1.024   2.418   6.375 -0.1904  0.6531 -0.2338
   80MOL0     C10679   1.134   2.366   6.464  0.4565 -1.1282 -0.6335
   80MOL0     C10680   1.152   2.463   6.584  0.0480 -0.8078  0.1270
   80MOL0     C10681   1.262   2.574   6.552 -0.3903 -0.1216  0.0122
   80MOL0     N10682   1.399   2.509   6.544  0.0638  0.4642  0.1428
   80MOL0     C10683   1.475   2.482   6.653 -0.6621  0.6629 -0.0649
   80MOL0     C10684   1.599   2.453   6.593 -1.6257  0.0231 -0.8650
   80MOL0     C10685   1.720   2.435   6.674 -0.4977  0.2512 -0.1201
   80MOL0     C10686   1.848   2.401   6.592 -0.3114  0.1238 -0.6641
   80MOL0     C10687   1.957   2.346   6.683  0.2848  0.1968 -0.6250
   80MOL0     C10688   2.089   2.324   6.604 -1.2351  0.5776 -0.0288
   80MOL0     O10689   2.190   2.304   6.703 -0.3831  0.0528  0.0269
   80MOL0     C10690   2.313   2.284   6.662  0.4587  0.0897 -0.0893
   80MOL0     C10691   2.357   2.309   6.527 -0.5577  0.2701 -0.4054
   80MOL0     C10692   2.491   2.278   6.497  0.0372 -0.0581  0.2858
   80MOL0     C10693   2.585   2.225   6.594  0.0399 -0.6041  0.4715
   80MOL0     C10694   2.726   2.192   6.561  0.8778  0.1631 -0.0811
   80MOL0     O10695   2.803   2.132   6.664  0.2428 -0.8249  0.1169
   80MOL0     C10696   2.931   2.081   6.640 -0.3768 -0.9819 -0.1080
   80MOL0     C10697   2.965   1.977   6.723 -0.0123  0.5882 -0.6372
   80MOL0     C10698   3.094   1.918   6.711  0.1889 -0.4664 -0.5164
   80MOL0     C10699   3.190   1.963   6.614  0.6856 -0.9706  0.2092
   80MOL0     O10700   3.319   1.922   6.591 -0.0970 -0.2654 -0.4188
   80MOL0     C10701   3.382   1.834   6.673  0.5837 -1.0455 -0.6970
   80MOL0     C10702   3.525   1.842   6.630  0.2956  0.1850 -0.0207
   80MOL0     C10703   3.605   1.716   6.674 -1.1669 -0.6642 -0.7020
   80MOL0     C10704   3.712   1.739   6.790 -0.5222 -0.0888  0.9821
   80MOL0     C10705   3.778   1.607   6.820 -0.4804 -0.1926 -0.6421
   80MOL0     C10706   3.905   1.624   6.903  0.0643 -0.1769  0.4435
   80MOL0     C10707   3.955   1.505   6.977  0.6022  0.1576  0.4391
   80MOL0     C10708   4.109   1.477   6.968  0.8815  0.3356  0.1611
   80MOL0    Cl10709   4.160   1.487   6.797  0.0551  0.0864  0.0671
   80MOL0     C10710   3.145   2.069   6.528 -0.9469 -0.4210  0.1640
   80MOL0     C10711   3.022   2.125   6.540 -0.5894  0.7500 -0.2146
   80MOL0     O10712   2.767   2.229   6.450  0.5010 -0.0595 -1.0666
   80MOL0     C10713   2.531   2.197   6.717  0.3512 -0.2299 -0.6568
   80MOL0     C10714   2.397   2.228   6.758  0.0914  0.4123  0.5189
   80MOL0     N10715   1.580   2.446   6.458  0.7099  0.1179 -0.3134
   80MOL0     N10716   1.459   2.478   6.427 -0.2723  0.4196  0.5548
   80MOL0     C10717   0.365   2.145   6.099 -1.5990 -0.2703  1.6813
   80MOL0     C10718   0.234   2.109   6.119  0.4379  0.4916 -0.2175
   80MOL0     C10719  -0.164   1.978   6.210  0.1536  0.2813  0.2325
   80MOL0     C10720  -0.218   2.082   6.282  0.0320 -0.6721 -0.0887
   80MOL0     C10721  -0.350   2.111   6.305  0.8005  0.3487  0.4142
   80MOL0     C10722  -0.447   2.026   6.254  0.2315  0.3737  0.1552
   80MOL0     O10723  -0.577   2.047   6.281  0.5173  0.6851 -0.9396
   80MOL0     C10724  -0.660   1.925   6.311  0.3419 -0.1457  0.0218
   80MOL0     C10725  -0.764   1.972   6.414  0.2656 -0.0290 -0.5160
   80MOL0     C10726  -0.890   1.891   6.395 -0.1378  0.1203  0.1700
   80MOL0     C10727  -1.001   1.990   6.438 -0.3245  0.7351  0.8176
   80MOL0     C10728  -1.107   1.923   6.514 -0.6471  0.0014  0.2092
   80MOL0     C10729  -1.209   1.881   6.560  0.0042 -0.1902 -0.4406
   80MOL0     C10730  -0.406   1.918   6.187  0.1268 -1.0925  0.4398
   80MOL0     C10731  -0.269   1.895   6.166  0.5192  0.1131  0.5638
   80MOL0     C10732  -0.250   1.764   6.089 -0.2845  0.0766  0.5795
   80MOL0     H10733   0.249   2.005   6.439  1.8369  2.3726  1.9453
   80MOL0     H10734   0.478   2.073   6.415 -2.1700  0.9499  1.5930
   80MOL0     H10735   0.621   2.193   5.993  2.0398 -0.3743 -1.0191
   80MOL0     H10736   0.583   2.348   6.064 -1.3000 -0.6802  1.2458
   80MOL0     H10737   0.820   2.339   6.013 -2.8566  0.5585  0.6740
   80MOL0     H10738   0.841   2.182   6.090  1.2305  0.9805  3.1037
   80MOL0     H10739   0.787   2.283   6.315 -1.6752  1.3478  1.1217
   80MOL0     H10740   0.807   2.445   6.248  0.0241  0.4589 -2.5461
   80MOL0     H10741   0.993   2.223   6.297  2.7545 -1.4799 -4.2978
   80MOL0     H10742   1.035   2.342   6.172 -2.5176  3.4692 -0.7082
   80MOL0     H10743   1.052   2.520   6.345 -1.0424  0.0937 -3.2420
   80MOL0     H10744   0.945   2.429   6.450  0.5912 -1.2796  0.9621
   80MOL0     H10745   1.102   2.277   6.520  1.1510 -0.8459  0.2280
   80MOL0     H10746   1.228   2.341   6.414  1.1520  0.6115 -0.2607
   80MOL0     H10747   1.160   2.394   6.668 -1.7800 -2.5161 -1.0167
   80MOL0     H10748   1.061   2.523   6.593 -0.0121 -1.0424  1.2815
   80MOL0     H10749   1.249   2.627   6.457  2.7645 -0.4446 -0.7212
   80MOL0     H10750   1.264   2.645   6.635 -0.8780 -1.9712  1.6775
   80MOL0     H10751   1.451   2.493   6.759 -0.1862  1.4269 -0.0320
   80MOL0     H10752   1.738   2.529   6.727  0.6806  1.3698 -2.3589
   80MOL0     H10753   1.698   2.353   6.743 -0.6880  1.8429  1.7718
   80MOL0     H10754   1.824   2.327   6.515  0.2949  1.1655 -1.9023
   80MOL0     H10755   1.877   2.490   6.535 -0.4010 -0.2407 -1.2918
   80MOL0     H10756   1.921   2.254   6.730 -3.2079 -0.2647 -3.7786
   80MOL0     H10757   1.971   2.419   6.763 -0.1212  0.5151 -0.8395
   80MOL0     H10758   2.112   2.415   6.549 -0.9836 -0.3618 -1.5447
   80MOL0     H10759   2.079   2.240   6.534  1.4007  1.2306 -1.3233
   80MOL0     H10760   2.301   2.375   6.461 -0.2618 -0.2046 -1.1435
   80MOL0     H10761   2.521   2.300   6.395 -1.7377 -1.8542 -0.6892
   80MOL0     H10762   2.895   1.932   6.793 -1.4841 -0.6867 -2.7844
   80MOL0     H10763   3.112   1.828   6.768  1.9971 -0.8477 -1.6001
   80MOL0     H10764   3.381   1.876   6.774  2.2414  0.5181 -1.2689
   80MOL0     H10765   3.345   1.731   6.672 -1.4646 -0.3728  0.7220
   80MOL0     H10766   3.534   1.843   6.521 -0.9136 -0.9329 -0.1663
   80MOL0     H10767   3.577   1.929   6.670  1.1576 -0.2198 -0.2336
   80MOL0     H10768   3.548   1.628   6.706  1.8492 -2.3440  0.5204
   80MOL0     H10769   3.655   1.672   6.588 -2.0089 -3.2252  0.0361
   80MOL0     H10770   3.658   1.772   6.880  1.5794  3.3412  1.1723
   80MOL0     H10771   3.781   1.814   6.751 -3.5737  0.6408 -3.8167
   80MOL0     H10772   3.804   1.544   6.735  0.8717  0.8792 -1.0563
   80MOL0     H10773   3.707   1.550   6.881  2.0875 -2.5054  0.3968
   80MOL0     H10774   3.985   1.653   6.834 -0.6025 -1.4106 -0.9011
   80MOL0     H10775   3.905   1.709   6.972 -0.1896  1.9452 -1.9974
   80MOL0     H10776   3.903   1.418   6.935  2.6990 -2.3557  2.6413
   80MOL0     H10777   3.915   1.510   7.078  0.7531  1.8537  0.4314
   80MOL0     H10778   4.160   1.555   7.027 -1.3045  1.8150  0.2195
   80MOL0     H10779   4.133   1.375   7.000 -0.4999  0.0890  0.4661
   80MOL0     H10780   3.217   2.096   6.451 -1.4370  4.3996  1.0661
   80MOL0     H10781   2.993   2.198   6.465 -1.7221  1.7396  1.1384
   80MOL0     H10782   2.590   2.145   6.792 -0.0235  0.2775  0.0126
   80MOL0     H10783   2.356   2.193   6.852 -0.1756  2.8363  1.3901
   80MOL0     H10784   0.389   2.182   6.000  2.0390 -1.1146  2.1231
   80MOL0     H10785   0.162   2.121   6.039  1.4722 -1.1556 -1.4693
   80MOL0     H10786  -0.154   2.150   6.336 -1.8630  2.4363 -1.4565
   80MOL0     H10787  -0.376   2.193   6.370 -2.8983  0.9753 -1.6024
   80MOL0     H10788  -0.593   1.847   6.348 -0.0760 -1.1763 -1.2967
   80MOL0     H10789  -0.717   1.892   6.224 -4.5524 -1.1554  3.2387
   80MOL0     H10790  -0.785   2.077   6.390 -2.0493 -0.5966 -1.2608
   80MOL0     H10791  -0.734   1.972   6.519 -3.9885 -0.5773  0.9146
   80MOL0     H10792  -0.896   1.798   6.452 -1.4452 -0.3518 -0.7061
   80MOL0     H10793  -0.920   1.860   6.295 -3.6516  0.1892  1.0839
   80MOL0     H10794  -0.955   2.049   6.518  0.4311 -0.2143  1.1036
   80MOL0     H10795  -1.043   2.063   6.368  0.6370 -0.1788 -0.7830
   80MOL0     H10796  -1.300   1.863   6.614 -0.1175  1.2044 -0.1257
   80MOL0     H10797  -0.474   1.842   6.152 -1.3890  0.2823  0.2859
   80MOL0     H10798  -0.330   1.691   6.102 -0.4465 -0.4945 -2.6799
   80MOL0     H10799  -0.236   1.776   5.981 -0.3704 -2.3322  0.2403
   80MOL0     H10800  -0.154   1.719   6.117  1.2872  2.1887 -1.0342
   81MOL0     O10801   0.456  11.120  10.276  0.0025 -0.5783  0.1162
   81MOL0     C10802   0.516  11.070  10.182 -0.1793 -0.6948  0.3389
   81MOL0     O10803   0.466  10.981  10.087 -0.0818 -0.2446 -0.4391
   81MOL0     C10804   0.346  10.923  10.121  0.4032  0.0444  0.3375
   81MOL0     C10805   0.332  10.783  10.130 -0.0111  0.1902  0.6551
   81MOL0     C10806   0.216  10.720  10.174 -0.5505 -0.0719 -0.1315
   81MOL0     C10807   0.102  10.790  10.189  0.5278 -0.0702 -0.1407
   81MOL0     O10808  -0.013  10.725  10.227 -0.5927  0.0518 -0.6212
   81MOL0     C10809  -0.129  10.787  10.272  0.0616  0.1179 -0.6806
   81MOL0     C10810  -0.243  10.686  10.275  0.5437  0.8381 -0.3609
   81MOL0     C10811  -0.266  10.622  10.132  0.1642 -0.2356 -0.1650
   81MOL0     C10812  -0.345  10.730  10.054  0.0165 -0.5971 -0.1214
   81MOL0     C10813  -0.402  10.653   9.928 -0.2927  0.8860 -0.1023
   81MOL0     C10814  -0.426  10.734   9.802 -0.0784  0.3460  0.0475
   81MOL0     C10815  -0.293  10.745   9.721  0.0647 -0.0326  0.0048
   81MOL0     C10816  -0.328  10.806   9.585  0.1709  0.0566  0.0681
   81MOL0     N10817  -0.203  10.861   9.516  0.2925  0.5651 -0.5891
   81MOL0     C10818  -0.094  10.782   9.503 -0.0208 -0.1191 -0.0270
   81MOL0     C10819   0.002  10.862   9.448  0.2948  0.3332  0.1530
   81MOL0     C10820   0.148  10.825   9.415 -0.1918 -0.2874  0.2979
   81MOL0     C10821   0.246  10.941   9.415  1.2792  0.1373  0.0554
   81MOL0     C10822   0.397  10.894   9.370 -0.7342  0.0402  0.7368
   81MOL0     C10823   0.429  10.926   9.221  0.7884  0.0702 -0.0063
   81MOL0     O10824   0.507  10.813   9.170 -0.8880 -0.2266  0.3450
   81MOL0     C10825   0.646  10.838   9.177 -0.5872  0.1825  0.5984
   81MOL0     C10826   0.722  10.732   9.121 -0.0199  0.1515 -0.4198
   81MOL0     C10827   0.859  10.751   9.116 -0.4368  0.7732 -0.4341
   81MOL0     C10828   0.929  10.869   9.164 -0.3155  0.1701 -0.3008
   81MOL0     C10829   1.075  10.878   9.164  0.2642 -0.3660 -0.4925
   81MOL0     O10830   1.138  10.771   9.095 -0.6672 -0.7092 -0.3893
   81MOL0     C10831   1.264  10.783   9.043 -0.0110 -0.1200  0.1415
   81MOL0     C10832   1.337  10.906   9.030  0.2812 -0.0350  0.3171
   81MOL0     C10833   1.468  10.905   8.980 -0.9877 -0.3104 -1.0784
   81MOL0     C10834   1.525  10.785   8.929  0.0462 -0.1516 -1.4611
   81MOL0     O10835   1.655  10.764   8.887 -0.1804 -0.2534 -0.0617
   81MOL0     C10836   1.740  10.880   8.915  0.0312 -0.0499  0.0701
   81MOL0     C10837   1.875  10.863   8.855  0.1905 -0.1375 -0.5437
   81MOL0     C10838   1.949  10.742   8.915 -0.5886 -0.4535  0.1497
   81MOL0     C10839   2.089  10.725   8.853  0.8573 -0.6568 -0.4400
   81MOL0     C10840   2.140  10.591   8.898 -0.5285 -0.0899  0.5830
   81MOL0     C10841   2.283  10.571   8.854 -0.2337 -0.5588 -0.6066
   81MOL0     C10842   2.311  10.421   8.873 -1.0828  0.0935  0.1620
   81MOL0     C10843   2.373  10.392   9.012 -0.9925 -0.1770 -0.4808
   81MOL0    Cl10844   2.521  10.482   9.036 -0.0162 -0.4928 -0.7153
   81MOL0     C10845   1.447  10.665   8.936  0.1746 -0.6592  0.0339
   81MOL0     C10846   1.319  10.665   8.995  0.1033 -0.0029  0.5355
   81MOL0     O10847   1.126  10.975   9.226 -0.5659  0.0852  0.7890
   81MOL0     C10848   0.847  10.980   9.219 -0.0284  0.4887 -1.2043
   81MOL0     C10849   0.707  10.957   9.227  1.6312 -0.8900  0.8093
   81MOL0     N10850  -0.059  10.986   9.430 -0.7158  0.4285  0.1841
   81MOL0     N10851  -0.175  10.986   9.482  0.2942 -0.3166  0.7144
   81MOL0     C10852   0.102  10.926  10.153 -0.2229 -0.1644  0.1284
   81MOL0     C10853   0.226  10.991  10.118  0.2641  0.0008  0.5078
   81MOL0     C10854   0.656  11.124  10.165  0.6775  0.7026 -0.2127
   81MOL0     C10855   0.726  11.067  10.054 -0.0597 -0.2892 -0.6630
   81MOL0     C10856   0.854  11.115  10.024  0.5631  0.0333 -0.6349
   81MOL0     C10857   0.917  11.200  10.106 -0.0087 -1.0028 -0.2415
   81MOL0     O10858   1.050  11.252  10.094  0.3061 -0.4759 -0.0425
   81MOL0     C10859   1.137  11.209   9.992 -0.1937 -0.1358 -0.7725
   81MOL0     C10860   1.173  11.060  10.000 -0.4312 -0.3961 -0.4517
   81MOL0     C10861   1.309  11.021   9.935  0.2606 -0.4498  0.6025
   81MOL0     C10862   1.339  10.875   9.939  0.3810  0.0951 -1.0811
   81MOL0     C10863   1.466  10.846   9.865  0.3268 -0.0490  0.1782
   81MOL0     C10864   1.565  10.812   9.808 -0.5560 -0.2680  0.6162
   81MOL0     C10865   0.857  11.251  10.223 -0.3900 -0.3229 -0.5519
   81MOL0     C10866   0.725  11.211  10.261  0.0060  0.0862  0.7769
   81MOL0     C10867   0.674  11.261  10.394  0.1141  0.2417  0.0887
   81MOL0     H10868   0.413  10.712  10.124 -1.6420 -1.6265 -0.8691
   81MOL0     H10869   0.215  10.611  10.183 -2.0644  0.0217  1.2898
   81MOL0     H10870  -0.117  10.831  10.372 -0.6986 -1.8202  0.3349
   81MOL0     H10871  -0.154  10.869  10.205 -0.6663  0.0151 -0.5395
   81MOL0     H10872  -0.334  10.721  10.326  0.8163  3.0989 -1.3043
   81MOL0     H10873  -0.207  10.607  10.342 -1.3623  1.5849  1.6613
   81MOL0     H10874  -0.318  10.525  10.131  2.2792 -1.4696 -2.9822
   81MOL0     H10875  -0.172  10.614  10.078  1.2901  1.8410  1.3469
   81MOL0     H10876  -0.425  10.770  10.117  0.2146  0.3570 -0.4461
   81MOL0     H10877  -0.274  10.811  10.035 -0.9218  0.2616 -0.0498
   81MOL0     H10878  -0.349  10.558   9.915 -0.7544  0.8475 -2.0771
   81MOL0     H10879  -0.503  10.629   9.962  0.5949 -0.5369  1.6702
   81MOL0     H10880  -0.511  10.707   9.739  1.9619  1.4606 -3.5151
   81MOL0     H10881  -0.446  10.838   9.831  0.2447 -0.2848  2.7709
   81MOL0     H10882  -0.255  10.644   9.701 -2.2535 -0.3769 -3.3572
   81MOL0     H10883  -0.218  10.804   9.775  0.2860 -0.7120  0.4592
   81MOL0     H10884  -0.381  10.734   9.522 -1.4486  1.2600 -0.0186
   81MOL0     H10885  -0.404  10.883   9.604 -0.7464 -0.8438  0.0740
   81MOL0     H10886  -0.076  10.676   9.515 -0.4609 -0.0134  1.8379
   81MOL0     H10887   0.196  10.746   9.473 -0.6859 -0.7389  0.0960
   81MOL0     H10888   0.146  10.785   9.313 -2.6543 -1.1881  0.6337
   81MOL0     H10889   0.223  11.025   9.350  0.5509  0.0443  0.1897
   81MOL0     H10890   0.238  10.992   9.511 -1.3249  0.5908 -0.3333
   81MOL0     H10891   0.419  10.791   9.399  0.2064 -0.3630 -1.2151
   81MOL0     H10892   0.473  10.951   9.422  0.0351 -2.5283  2.6092
   81MOL0     H10893   0.467  11.023   9.186 -1.9199  1.4439  0.5170
   81MOL0     H10894   0.329  10.937   9.177 -0.5225  0.6847  2.8414
   81MOL0     H10895   0.670  10.646   9.079 -0.0601  0.9412 -2.0576
   81MOL0     H10896   0.913  10.665   9.076  3.3763  2.3184  0.9441
   81MOL0     H10897   1.283  10.998   9.051  1.2272  0.4992  0.4513
   81MOL0     H10898   1.514  11.001   8.955  0.5156 -0.5410  0.6246
   81MOL0     H10899   1.700  10.968   8.865  1.1122  0.3287 -0.1467
   81MOL0     H10900   1.733  10.904   9.022 -0.8098 -0.6192  0.1562
   81MOL0     H10901   1.853  10.843   8.750  1.4564  1.2079 -1.0976
   81MOL0     H10902   1.926  10.960   8.863 -0.4389  0.2340 -0.9804
   81MOL0     H10903   1.961  10.758   9.022 -1.5685 -0.2950  0.2456
   81MOL0     H10904   1.881  10.657   8.902 -2.3753  1.1403 -1.9139
   81MOL0     H10905   2.155  10.805   8.887  0.2201 -0.7038  0.9691
   81MOL0     H10906   2.078  10.734   8.745 -0.1054  1.1322 -0.2237
   81MOL0     H10907   2.070  10.519   8.854 -1.8554  2.5178 -1.9208
   81MOL0     H10908   2.148  10.587   9.007  0.2775 -1.5768  0.4945
   81MOL0     H10909   2.285  10.587   8.746  0.3087 -0.7265 -0.6229
   81MOL0     H10910   2.355  10.646   8.890 -1.6802  0.3742  0.4340
   81MOL0     H10911   2.380  10.390   8.794  1.0909  1.3206  1.4565
   81MOL0     H10912   2.217  10.365   8.870 -0.8520 -0.3763  1.2075
   81MOL0     H10913   2.296  10.411   9.087 -1.5949 -0.3451 -1.0510
   81MOL0     H10914   2.401  10.287   9.024  1.0587  0.3130 -0.4833
   81MOL0     H10915   1.484  10.569   8.900  0.3344 -0.4809 -0.2731
   81MOL0     H10916   1.252  10.580   9.003  0.0822 -0.2046 -1.3824
   81MOL0     H10917   0.905  11.065   9.253  1.7470 -1.4383  0.8920
   81MOL0     H10918   0.662  11.048   9.266 -0.9511 -1.6726 -0.1586
   81MOL0     H10919   0.009  10.981  10.150 -1.7623 -2.6536 -0.5108
   81MOL0     H10920   0.215  11.095  10.089 -0.9553 -0.6254 -1.4323
   81MOL0     H10921   0.680  10.997   9.985 -0.4858 -0.5622 -0.1077
   81MOL0     H10922   0.901  11.086   9.931 -0.6407  1.6880 -1.8055
   81MOL0     H10923   1.230  11.268   9.992  0.7448 -1.5156  0.9747
   81MOL0     H10924   1.082  11.232   9.901 -2.7989 -1.1361  0.4559
   81MOL0     H10925   1.094  11.003   9.950 -0.7407 -2.2157  1.8746
   81MOL0     H10926   1.182  11.030  10.105 -0.1551 -2.0887 -0.9256
   81MOL0     H10927   1.386  11.077   9.990  0.6032 -0.2179 -0.0920
   81MOL0     H10928   1.308  11.064   9.834 -0.4512 -2.1387 -0.1351
   81MOL0     H10929   1.346  10.837  10.041 -0.8586 -1.7442 -1.6415
   81MOL0     H10930   1.249  10.838   9.888 -0.4850  1.6572 -0.7667
   81MOL0     H10931   1.645  10.792   9.739 -0.6761  1.8269 -0.2156
   81MOL0     H10932   0.918  11.318  10.282 -2.9050  1.5297  0.1020
   81MOL0     H10933   0.615  11.194  10.457  0.3638 -1.1446 -1.1052
   81MOL0     H10934   0.763  11.283  10.454 -0.4072 -0.5306  1.1722
   81MOL0     H10935   0.609  11.347  10.376 -0.4207 -0.4212 -1.2500
   82MOL0     O10936   1.741   4.051   9.718  0.6164  0.1144  0.5116
   82MOL0     C10937   1.746   4.017   9.598  0.5342  0.1284  0.0307
   82MOL0     O10938   1.854   3.978   9.525 -0.2406 -0.1123  0.3207
   82MOL0     C10939   1.983   3.989   9.571 -0.6472  0.2821 -0.3098
   82MOL0     C10940   2.036   4.097   9.640 -0.5773  0.1305  0.0601
   82MOL0     C10941   2.172   4.117   9.681 -0.4213  0.3370 -0.0874
   82MOL0     C10942   2.259   4.012   9.653 -0.3401 -0.1971  0.6487
   82MOL0     O10943   2.391   4.016   9.675 -0.4357 -0.6418  0.4600
   82MOL0     C10944   2.460   4.144   9.648 -0.8976 -0.0642  0.2870
   82MOL0     C10945   2.616   4.109   9.637 -0.6481  0.0970 -0.2529
   82MOL0     C10946   2.689   4.198   9.742 -0.1248  0.4363  0.1393
   82MOL0     C10947   2.842   4.207   9.718  0.3422  0.0369 -0.6375
   82MOL0     C10948   2.918   4.275   9.841 -0.2491 -0.1078  0.4038
   82MOL0     C10949   3.072   4.262   9.813  0.3053  0.3416 -0.0617
   82MOL0     C10950   3.121   4.345   9.697  0.2824  1.1887  0.0188
   82MOL0     C10951   3.146   4.492   9.719  0.1782  0.7368  0.1228
   82MOL0     N10952   3.267   4.503   9.795 -0.3620 -0.3583 -0.2591
   82MOL0     C10953   3.383   4.426   9.795 -0.7761 -0.3117 -0.4754
   82MOL0     C10954   3.471   4.508   9.862  1.5888  0.1945 -0.6278
   82MOL0     C10955   3.614   4.491   9.891  0.3894  0.3300 -0.1894
   82MOL0     C10956   3.636   4.376   9.992  0.0746  0.1006  0.2181
   82MOL0     C10957   3.751   4.404  10.091  0.3974 -0.7557 -0.4556
   82MOL0     C10958   3.804   4.282  10.157 -0.2539  0.6084  0.4052
   82MOL0     O10959   3.912   4.320  10.244  0.0783  0.5139 -0.1890
   82MOL0     C10960   4.041   4.333  10.205  0.6919 -0.4927  0.4555
   82MOL0     C10961   4.084   4.320  10.069  0.7455  0.0833 -0.3136
   82MOL0     C10962   4.217   4.324  10.033 -0.0263  0.6816  0.1009
   82MOL0     C10963   4.321   4.344  10.130  0.6900 -0.2521  0.3624
   82MOL0     C10964   4.457   4.353  10.089 -0.2025 -0.5719  0.2600
   82MOL0     O10965   4.541   4.386  10.194 -0.7239  0.7574  0.2879
   82MOL0     C10966   4.679   4.394  10.171  0.0185  0.4344 -0.6334
   82MOL0     C10967   4.750   4.288  10.111  0.2887 -0.1088  0.3648
   82MOL0     C10968   4.890   4.289  10.118 -0.6359  0.7614  0.5940
   82MOL0     C10969   4.954   4.391  10.188  0.6414  0.3729 -0.1012
   82MOL0     O10970   5.090   4.368  10.209 -1.1199 -0.6311 -0.1146
   82MOL0     C10971   5.138   4.393  10.345 -0.1007  1.0091 -0.0318
   82MOL0     C10972   5.292   4.371  10.342  0.8939 -0.9303  0.4640
   82MOL0     C10973   5.357   4.376  10.482  0.4017  0.3341  0.2862
   82MOL0     C10974   5.498   4.316  10.483  0.5168 -0.7664 -0.2503
   82MOL0     C10975   5.564   4.345  10.616  0.4817  0.1008 -0.9274
   82MOL0     C10976   5.704   4.313  10.633  0.9426  0.4036 -0.0076
   82MOL0     C10977   5.739   4.174  10.588  0.2606 -0.3055  0.7250
   82MOL0     C10978   5.884   4.144  10.638  0.3489 -0.9406 -0.2969
   82MOL0    Cl10979   6.011   4.258  10.587  0.2472  0.1605  0.3941
   82MOL0     C10980   4.885   4.495  10.239 -0.1017 -0.2718 -0.7190
   82MOL0     C10981   4.747   4.504  10.222 -0.1171  0.6406 -1.4881
   82MOL0     O10982   4.489   4.333   9.976  0.0074 -0.4458  0.7770
   82MOL0     C10983   4.283   4.369  10.264 -0.3893  0.5623  0.4856
   82MOL0     C10984   4.144   4.364  10.299 -0.2316  0.6331 -0.1641
   82MOL0     N10985   3.403   4.621   9.905  0.2944  0.0325  0.0893
   82MOL0     N10986   3.280   4.615   9.870  0.0427  1.0932  0.0541
   82MOL0     C10987   2.206   3.893   9.592 -0.1555  0.7775 -0.1704
   82MOL0     C10988   2.073   3.881   9.551 -0.1804 -0.2068  0.3543
   82MOL0     C10989   1.616   4.013   9.524 -0.2986 -0.0856  0.6666
   82MOL0     C10990   1.619   4.004   9.374 -0.5270 -0.3894  0.8986
   82MOL0     C10991   1.502   4.000   9.301  0.0008 -0.1224 -0.4448
   82MOL0     C10992   1.376   3.973   9.358 -0.7694  0.4820 -0.4254
   82MOL0     O10993   1.277   3.963   9.268 -0.3733 -0.3788  0.1298
   82MOL0     C10994   1.147   3.956   9.316  0.5308  0.3353 -0.0798
   82MOL0     C10995   1.059   3.992   9.198 -0.1342  0.5023 -0.0413
   82MOL0     C10996   0.906   3.995   9.230 -0.8724  0.1182  0.9681
   82MOL0     C10997   0.819   4.045   9.109 -0.3661 -0.3976  0.2877
   82MOL0     C10998   0.684   4.060   9.158 -0.3797  0.5891  0.7477
   82MOL0     C10999   0.572   4.067   9.205  0.2587  0.8692  0.2419
   82MOL0     C11000   1.372   3.961   9.503  0.6027  0.2911  0.3461
   82MOL0     C11001   1.487   3.981   9.579 -0.6043  0.7755  0.0543
   82MOL0     C11002   1.473   3.970   9.734 -0.7659  0.3436 -0.5327
   82MOL0     H11003   1.971   4.182   9.657  2.3531  2.4209  0.6435
   82MOL0     H11004   2.203   4.214   9.717  1.0905  0.0897 -0.6574
   82MOL0     H11005   2.427   4.182   9.551  1.0210  0.7988 -0.0693
   82MOL0     H11006   2.455   4.213   9.732 -0.6785 -0.7353  0.8652
   82MOL0     H11007   2.642   4.116   9.531  1.5564 -0.0659  0.2078
   82MOL0     H11008   2.637   4.003   9.656  0.9538  0.6076  1.0748
   82MOL0     H11009   2.686   4.166   9.846  0.2093 -1.4376 -0.3864
   82MOL0     H11010   2.642   4.296   9.726  1.9822  1.5932  0.6245
   82MOL0     H11011   2.889   4.109   9.706  2.2860  1.1851 -3.4096
   82MOL0     H11012   2.856   4.266   9.627 -1.2307 -0.0790 -0.9795
   82MOL0     H11013   2.887   4.379   9.848 -2.9871 -0.4229 -3.5958
   82MOL0     H11014   2.894   4.229   9.938  0.9902 -1.4573  0.1051
   82MOL0     H11015   3.128   4.279   9.905 -1.5609 -0.8520  1.3780
   82MOL0     H11016   3.091   4.158   9.785 -0.8271  0.5003 -1.5870
   82MOL0     H11017   3.052   4.330   9.613  1.7906  1.1768 -1.2671
   82MOL0     H11018   3.217   4.304   9.666  0.7346  0.9798  1.6001
   82MOL0     H11019   3.171   4.532   9.621  0.1008 -0.8347 -0.5608
   82MOL0     H11020   3.061   4.546   9.762 -0.2930  1.2884 -1.4285
   82MOL0     H11021   3.410   4.334   9.744 -1.0581 -1.3236  1.1163
   82MOL0     H11022   3.673   4.474   9.801  3.2244  1.0390  1.3965
   82MOL0     H11023   3.650   4.586   9.933  1.2693 -0.0253 -0.1205
   82MOL0     H11024   3.545   4.359  10.050  0.1896  1.2535  0.7558
   82MOL0     H11025   3.649   4.284   9.935 -3.2713 -0.9294  0.8898
   82MOL0     H11026   3.713   4.477  10.163  0.8611  1.8802 -2.7037
   82MOL0     H11027   3.823   4.460  10.031 -2.6974  2.7246 -1.2557
   82MOL0     H11028   3.839   4.209  10.084  2.6510  1.8421  0.4122
   82MOL0     H11029   3.724   4.224  10.204 -2.4608  2.2574 -1.0742
   82MOL0     H11030   4.015   4.300   9.988  2.8653 -1.8433 -1.8009
   82MOL0     H11031   4.240   4.320   9.927 -1.0015  0.7205 -0.1223
   82MOL0     H11032   4.691   4.210  10.064 -0.1760  1.2317 -1.3892
   82MOL0     H11033   4.955   4.209  10.085 -0.1942  0.5016  2.0229
   82MOL0     H11034   5.115   4.492  10.385 -1.8549  0.5783  0.0998
   82MOL0     H11035   5.078   4.330  10.411 -0.2242 -1.0911 -2.0033
   82MOL0     H11036   5.322   4.281  10.287  1.6525  0.4907 -1.5583
   82MOL0     H11037   5.322   4.458  10.283 -3.7050  0.7246  0.1368
   82MOL0     H11038   5.378   4.482  10.498  1.5099 -0.1538  2.3822
   82MOL0     H11039   5.292   4.335  10.560 -0.6662  1.4866  0.0454
   82MOL0     H11040   5.549   4.351  10.393  0.0579  0.9619  0.1127
   82MOL0     H11041   5.490   4.207  10.473  1.8890 -1.2275  2.6192
   82MOL0     H11042   5.511   4.299  10.700  1.3467  0.5528 -0.1198
   82MOL0     H11043   5.554   4.450  10.642 -3.3654 -0.4664  0.6503
   82MOL0     H11044   5.759   4.384  10.570 -2.0195  3.5073  0.5859
   82MOL0     H11045   5.730   4.336  10.737 -2.9268  0.7016  1.0424
   82MOL0     H11046   5.729   4.172  10.480 -0.3291  0.6891  0.7509
   82MOL0     H11047   5.670   4.096  10.623 -0.2070  0.3801  1.3541
   82MOL0     H11048   5.868   4.148  10.746 -0.5666  3.1200 -0.4355
   82MOL0     H11049   5.911   4.045  10.599  0.4598 -1.0571  0.0713
   82MOL0     H11050   4.938   4.566  10.302  1.3624 -2.7574  1.0511
   82MOL0     H11051   4.696   4.586  10.270  1.7765  0.5327  0.8507
   82MOL0     H11052   4.351   4.413  10.337  0.1941 -0.1801  0.4024
   82MOL0     H11053   4.101   4.374  10.399 -0.0668 -2.5915  0.3312
   82MOL0     H11054   2.279   3.817   9.566 -1.4160 -0.3344 -0.5683
   82MOL0     H11055   2.032   3.790   9.509 -0.1199 -0.0163 -0.1197
   82MOL0     H11056   1.710   4.025   9.320 -0.5801  0.8760  1.2714
   82MOL0     H11057   1.511   4.012   9.193  1.4247  0.5323 -0.2717
   82MOL0     H11058   1.131   4.019   9.404  0.3272 -0.1093  0.2094
   82MOL0     H11059   1.120   3.851   9.330  0.9453 -0.4024 -3.8550
   82MOL0     H11060   1.079   3.922   9.116  0.3862  0.2562  0.2868
   82MOL0     H11061   1.092   4.090   9.165  3.2229  0.0773  1.6417
   82MOL0     H11062   0.894   4.069   9.309  1.8623  0.9772  0.6829
   82MOL0     H11063   0.872   3.899   9.270  0.7125  0.2345  2.7257
   82MOL0     H11064   0.863   4.143   9.088 -0.7871  0.1022  1.5837
   82MOL0     H11065   0.799   3.973   9.029 -1.5596 -1.1458  1.2056
   82MOL0     H11066   0.472   4.049   9.238  1.4285 -2.9912  2.3575
   82MOL0     H11067   1.279   3.927   9.547  0.0308  0.5742 -0.6137
   82MOL0     H11068   1.476   4.072   9.775 -0.5598  0.4986 -0.9318
   82MOL0     H11069   1.377   3.923   9.756 -0.4904 -0.9716 -1.9856
   82MOL0     H11070   1.551   3.905   9.775 -0.6484  0.8251  0.0248
   83MOL0     O11071   8.120   6.895   4.699  0.1072 -0.0050  0.0207
   83MOL0     C11072   8.094   6.848   4.585  0.2333  0.5286 -0.0247
   83MOL0     O11073   8.165   6.860   4.472 -0.0995  0.1691  0.2450
   83MOL0     C11074   8.279   6.945   4.472  0.6067 -0.7529  1.1743
   83MOL0     C11075   8.392   6.902   4.400 -0.0548  0.0535  0.0761
   83MOL0     C11076   8.499   6.989   4.377  0.6574 -1.2366 -0.6675
   83MOL0     C11077   8.501   7.127   4.428  1.0534  0.2386  0.0471
   83MOL0     O11078   8.609   7.209   4.404  0.7179  0.2445  0.0004
   83MOL0     C11079   8.641   7.321   4.489 -0.3483  0.9608 -0.6368
   83MOL0     C11080   8.778   7.384   4.441  0.1272 -0.7967 -0.8789
   83MOL0     C11081   8.789   7.398   4.295 -0.6613  1.0345 -0.0444
   83MOL0     C11082   8.907   7.494   4.262  0.2422 -0.2837 -0.4105
   83MOL0     C11083   8.988   7.439   4.141 -1.0271  1.9812 -0.5918
   83MOL0     C11084   9.071   7.557   4.100  0.1537 -0.1662  0.5252
   83MOL0     C11085   9.146   7.525   3.969  0.4505 -0.2778  0.5455
   83MOL0     C11086   9.248   7.408   3.975  0.1527 -0.3862 -0.8391
   83MOL0     N11087   9.369   7.441   4.058 -0.5341  0.6316  0.3014
   83MOL0     C11088   9.442   7.351   4.132 -0.5766  0.6237  0.4037
   83MOL0     C11089   9.522   7.417   4.221  0.3429 -0.0808  0.3468
   83MOL0     C11090   9.601   7.350   4.328 -0.0323  0.3339 -0.0319
   83MOL0     C11091   9.736   7.308   4.272 -0.4819  0.3037  1.2143
   83MOL0     C11092   9.823   7.417   4.236 -0.4176 -0.1692  0.4640
   83MOL0     C11093   9.852   7.542   4.325 -1.0413 -0.0391 -0.1540
   83MOL0     O11094   9.941   7.642   4.263 -0.0576  0.5752 -0.2376
   83MOL0     C11095  10.065   7.674   4.321 -0.8710  0.0850  0.0601
   83MOL0     C11096  10.165   7.697   4.231 -1.1635  0.2992  0.4974
   83MOL0     C11097  10.290   7.725   4.275 -0.7312  0.2091 -0.3488
   83MOL0     C11098  10.328   7.714   4.412 -0.4248  0.3974  0.2179
   83MOL0     C11099  10.466   7.723   4.453  0.1340 -0.5691  0.2421
   83MOL0     O11100  10.566   7.731   4.352 -0.3469 -0.6561 -0.2993
   83MOL0     C11101  10.697   7.743   4.386 -0.2826  0.5567 -0.1152
   83MOL0     C11102  10.786   7.702   4.284  0.4659  0.3920  0.3104
   83MOL0     C11103  10.925   7.715   4.298 -0.4751 -0.5722  0.4879
   83MOL0     C11104  10.977   7.775   4.413 -0.0133  0.2908  0.2433
   83MOL0     O11105  11.111   7.801   4.429 -0.1518 -0.3317  0.3492
   83MOL0     C11106  11.182   7.771   4.547  0.1321 -0.3346  0.5424
   83MOL0     C11107  11.324   7.823   4.542 -0.1769 -0.6527 -0.4997
   83MOL0     C11108  11.427   7.735   4.470 -0.3217 -0.4953  0.1025
   83MOL0     C11109  11.569   7.767   4.530  0.3383  0.7957 -0.0101
   83MOL0     C11110  11.624   7.910   4.501  0.0319 -0.6010 -0.4875
   83MOL0     C11111  11.752   7.939   4.586 -0.4588 -0.4254 -0.8565
   83MOL0     C11112  11.849   8.053   4.526  0.8048  0.3650 -0.2978
   83MOL0     C11113  11.925   8.001   4.405  0.8180  0.3108 -0.2677
   83MOL0    Cl11114  12.060   8.112   4.369  0.1474 -0.0603  0.1129
   83MOL0     C11115  10.890   7.816   4.513  0.6783 -0.0151  0.0450
   83MOL0     C11116  10.755   7.806   4.502 -0.4601 -0.1078  0.0088
   83MOL0     O11117  10.480   7.716   4.575 -0.1139  0.7044  0.0009
   83MOL0     C11118  10.224   7.686   4.508 -1.0297  0.2473  0.0047
   83MOL0     C11119  10.092   7.670   4.464 -0.9500  0.8511  0.4823
   83MOL0     N11120   9.495   7.549   4.203 -0.5208  0.0364  0.2481
   83MOL0     N11121   9.403   7.564   4.104  0.7190 -0.1149 -0.3040
   83MOL0     C11122   8.392   7.159   4.512 -0.3300  0.4435  0.2341
   83MOL0     C11123   8.285   7.071   4.528 -0.1942 -0.6472  0.4801
   83MOL0     C11124   7.966   6.761   4.587  0.4169  0.1622  0.4364
   83MOL0     C11125   7.952   6.671   4.478  0.2819  0.1586  0.5487
   83MOL0     C11126   7.845   6.578   4.471  0.3557 -0.2044  0.5498
   83MOL0     C11127   7.750   6.576   4.575 -0.7100  0.7479 -0.5479
   83MOL0     O11128   7.647   6.486   4.572  0.1291 -0.2468  0.2591
   83MOL0     C11129   7.615   6.396   4.463 -0.8703  0.2019 -0.0379
   83MOL0     C11130   7.493   6.325   4.477  0.5782 -0.4139 -0.0111
   83MOL0     C11131   7.474   6.225   4.362  0.8120  0.3828  0.1720
   83MOL0     C11132   7.375   6.117   4.414  0.2262 -0.3685  0.6481
   83MOL0     C11133   7.323   6.040   4.301 -0.3920  0.4992  0.1035
   83MOL0     C11134   7.271   5.968   4.213 -0.7601  1.1205 -0.3510
   83MOL0     C11135   7.758   6.664   4.683 -0.7934  1.0623  0.0130
   83MOL0     C11136   7.856   6.759   4.692 -0.3867 -0.7447  0.0527
   83MOL0     C11137   7.863   6.853   4.804 -0.2736  0.3022 -0.2017
   83MOL0     H11138   8.399   6.797   4.375  0.4857 -1.4222  5.2891
   83MOL0     H11139   8.591   6.964   4.325  2.6706  2.0138  1.0236
   83MOL0     H11140   8.570   7.403   4.501  0.7567  1.8773 -0.2466
   83MOL0     H11141   8.649   7.287   4.592 -0.4104  0.8272 -0.6757
   83MOL0     H11142   8.863   7.333   4.487  1.6067  2.7120  0.6766
   83MOL0     H11143   8.772   7.487   4.477 -1.1502  0.4749 -4.3343
   83MOL0     H11144   8.693   7.431   4.254 -0.5555  0.0398 -1.1642
   83MOL0     H11145   8.811   7.298   4.255  2.5439  1.2875  0.8206
   83MOL0     H11146   8.875   7.598   4.249  0.5634 -0.2149 -0.6960
   83MOL0     H11147   8.987   7.494   4.337  0.8849  4.3243 -0.7748
   83MOL0     H11148   9.045   7.350   4.166 -2.1341  0.7002 -2.3685
   83MOL0     H11149   8.935   7.405   4.052 -0.0074 -1.7761  0.0644
   83MOL0     H11150   9.003   7.643   4.090 -1.1822 -1.2953 -0.5406
   83MOL0     H11151   9.147   7.578   4.176 -1.1823 -0.6102  2.0421
   83MOL0     H11152   9.201   7.612   3.933  0.0477 -0.5391 -0.7402
   83MOL0     H11153   9.075   7.507   3.888  1.9065  2.1595 -1.3993
   83MOL0     H11154   9.197   7.324   4.025  0.8713 -0.2392  0.1680
   83MOL0     H11155   9.268   7.381   3.871 -0.4743  0.4452 -1.1794
   83MOL0     H11156   9.439   7.243   4.124  1.4195  0.6552 -1.7842
   83MOL0     H11157   9.627   7.422   4.406  1.2152 -2.2494  2.0981
   83MOL0     H11158   9.550   7.262   4.367  0.3625  0.7972  1.6206
   83MOL0     H11159   9.781   7.236   4.341  0.1829 -2.3372 -1.7604
   83MOL0     H11160   9.721   7.245   4.184  0.5125  0.8376  0.6414
   83MOL0     H11161   9.779   7.453   4.143  1.6556  0.5831 -0.2700
   83MOL0     H11162   9.922   7.381   4.206  0.7580  1.2132  2.4495
   83MOL0     H11163   9.896   7.503   4.417  1.6217  0.5149 -1.1165
   83MOL0     H11164   9.756   7.590   4.349 -0.8319  0.3199 -0.0340
   83MOL0     H11165  10.155   7.714   4.124 -0.0685  0.5598  0.4277
   83MOL0     H11166  10.365   7.754   4.202 -0.0852  1.1713  0.6531
   83MOL0     H11167  10.756   7.654   4.191  0.1724  2.2509 -0.5950
   83MOL0     H11168  10.987   7.679   4.217 -1.8376  0.2442 -0.9619
   83MOL0     H11169  11.148   7.826   4.635  1.7493  1.0082  0.3946
   83MOL0     H11170  11.173   7.662   4.553  1.6762 -0.5561 -0.4974
   83MOL0     H11171  11.320   7.921   4.493  1.4214  0.4817  1.4983
   83MOL0     H11172  11.361   7.840   4.644  0.3653  1.5180 -0.9873
   83MOL0     H11173  11.414   7.630   4.497 -1.7534 -0.2678  0.3860
   83MOL0     H11174  11.426   7.755   4.362 -0.3833  2.1785  0.5179
   83MOL0     H11175  11.644   7.699   4.489  1.6451  1.8842  0.4641
   83MOL0     H11176  11.575   7.758   4.639 -2.5097  1.2262  0.2635
   83MOL0     H11177  11.552   7.987   4.533  1.6323  1.3694 -1.3673
   83MOL0     H11178  11.637   7.927   4.394 -0.6078  1.6466 -0.2632
   83MOL0     H11179  11.729   7.957   4.691 -0.3942 -0.9307 -0.7529
   83MOL0     H11180  11.811   7.847   4.577 -1.1509 -1.1075  1.0566
   83MOL0     H11181  11.921   8.071   4.605  0.5167 -2.5284  0.7539
   83MOL0     H11182  11.790   8.143   4.507 -0.3251 -0.5790 -1.5010
   83MOL0     H11183  11.957   7.897   4.411  0.3165  0.1874  0.2911
   83MOL0     H11184  11.848   8.008   4.327  0.5645 -3.9174 -0.6260
   83MOL0     H11185  10.931   7.876   4.594  0.9772  1.8673 -1.4227
   83MOL0     H11186  10.686   7.853   4.571  0.6110  0.9064  0.4190
   83MOL0     H11187  10.245   7.689   4.615  0.9457 -0.3219 -0.3364
   83MOL0     H11188  10.018   7.634   4.535  0.1795 -2.7974 -0.0285
   83MOL0     H11189   8.402   7.252   4.567 -1.0118 -0.1801  1.4343
   83MOL0     H11190   8.212   7.108   4.599  1.3201  2.1498  0.7114
   83MOL0     H11191   8.034   6.658   4.409 -0.7749 -1.2322 -0.5024
   83MOL0     H11192   7.846   6.511   4.385 -1.7674  2.4102 -1.6925
   83MOL0     H11193   7.698   6.327   4.444 -1.2569  0.0943 -1.4068
   83MOL0     H11194   7.614   6.451   4.368 -2.2906 -0.9349 -0.7132
   83MOL0     H11195   7.407   6.391   4.485 -0.0105 -0.9196 -1.6115
   83MOL0     H11196   7.502   6.276   4.574  1.0840  2.0959  1.2736
   83MOL0     H11197   7.567   6.174   4.334  0.1595  0.4508 -2.3511
   83MOL0     H11198   7.446   6.272   4.268 -0.6201  2.5998  1.6330
   83MOL0     H11199   7.442   6.050   4.469  1.7640  0.6157  0.0443
   83MOL0     H11200   7.293   6.169   4.463  0.2666  0.3718 -0.0443
   83MOL0     H11201   7.221   5.905   4.142  0.5322 -1.9143  1.2166
   83MOL0     H11202   7.692   6.654   4.769  1.1911  1.9159  1.7234
   83MOL0     H11203   7.933   6.822   4.883 -2.7620  2.8772  3.2992
   83MOL0     H11204   7.885   6.956   4.776 -1.6113 -0.0922 -3.0932
   83MOL0     H11205   7.769   6.860   4.859  1.5559  0.6978  3.1849
   84MOL0     O11206   7.948   9.047   2.404 -0.3569 -0.4337  0.1159
   84MOL0     C11207   8.004   8.941   2.379  0.2778 -0.4222 -1.2689
   84MOL0     O11208   8.137   8.916   2.403 -0.5156  0.5883 -0.5222
   84MOL0     C11209   8.232   9.019   2.383  1.2413  0.8405 -0.6262
   84MOL0     C11210   8.212   9.150   2.331 -0.8399  0.1060 -0.7384
   84MOL0     C11211   8.320   9.236   2.317  0.0525 -0.0035 -0.5665
   84MOL0     C11212   8.453   9.204   2.353  0.8222  0.3255 -0.4417
   84MOL0     O11213   8.544   9.305   2.340 -0.3160  0.5445 -0.3616
   84MOL0     C11214   8.645   9.294   2.439  0.0851  0.4405 -0.0905
   84MOL0     C11215   8.756   9.406   2.416 -0.4630 -0.0277  0.7605
   84MOL0     C11216   8.882   9.373   2.489 -0.2857  0.1111  0.0914
   84MOL0     C11217   8.990   9.482   2.493  0.7884  0.7417  0.2919
   84MOL0     C11218   9.100   9.440   2.590 -0.0869  0.3136 -0.5150
   84MOL0     C11219   9.194   9.557   2.622 -0.9566  0.0429  1.0790
   84MOL0     C11220   9.313   9.509   2.715 -0.6506 -0.0671  0.7342
   84MOL0     C11221   9.402   9.634   2.736  0.6430  0.4944  0.3874
   84MOL0     N11222   9.503   9.622   2.837  0.0624  0.1140  0.6661
   84MOL0     C11223   9.626   9.567   2.822  0.1972  0.3094  0.9600
   84MOL0     C11224   9.684   9.576   2.942  0.0251  0.1258  0.4106
   84MOL0     C11225   9.824   9.536   3.010 -0.8229  0.1674  0.5807
   84MOL0     C11226   9.927   9.644   3.058  0.2253  0.2701 -0.6003
   84MOL0     C11227   9.949   9.733   2.933  0.0285  0.3717 -0.6149
   84MOL0     C11228  10.092   9.794   2.918  1.2944  0.1856  0.3857
   84MOL0     O11229  10.166   9.823   3.041  0.4241 -0.4040 -0.2906
   84MOL0     C11230  10.303   9.832   3.026 -0.7568 -0.1945  0.3272
   84MOL0     C11231  10.372   9.900   2.918  0.1501  0.0362 -0.6707
   84MOL0     C11232  10.507   9.921   2.908  0.0208  0.3888  0.3454
   84MOL0     C11233  10.587   9.872   3.014 -0.2869  0.2516 -0.1310
   84MOL0     C11234  10.733   9.885   3.008  0.1901 -0.9048 -0.5356
   84MOL0     O11235  10.805   9.809   3.098 -0.0823 -0.3954  0.1426
   84MOL0     C11236  10.939   9.844   3.103  0.0252  0.0063 -0.7040
   84MOL0     C11237  10.971   9.933   3.203  0.0099  0.3824  0.6856
   84MOL0     C11238  11.106   9.975   3.213 -0.7063 -0.1684 -0.0273
   84MOL0     C11239  11.213   9.925   3.132  0.4604 -0.3081  0.1299
   84MOL0     O11240  11.340   9.968   3.153 -0.2064  0.2120  0.0054
   84MOL0     C11241  11.451   9.928   3.064  0.0592 -0.3632 -0.0489
   84MOL0     C11242  11.579   9.995   3.113  0.2698 -0.5701 -0.3679
   84MOL0     C11243  11.578  10.142   3.078  0.6042 -0.6524 -0.4436
   84MOL0     C11244  11.682  10.225   3.158  0.6160 -0.4006 -0.0363
   84MOL0     C11245  11.815  10.222   3.089 -0.0085  0.2112  1.1107
   84MOL0     C11246  11.929  10.297   3.159 -0.2904 -0.0365 -0.0084
   84MOL0     C11247  12.061  10.297   3.076  0.5102 -0.2015  0.6647
   84MOL0     C11248  12.141  10.427   3.097  0.7009  0.5177  0.4858
   84MOL0    Cl11249  12.201  10.421   3.270 -0.2795 -0.2332 -0.5209
   84MOL0     C11250  11.171   9.828   3.043 -0.3556 -0.2779 -0.3085
   84MOL0     C11251  11.038   9.788   3.024 -0.9516  0.2792  1.2720
   84MOL0     O11252  10.775   9.957   2.919 -1.0173  0.6499 -0.7926
   84MOL0     C11253  10.519   9.808   3.124  0.4424 -0.1553  0.2282
   84MOL0     C11254  10.383   9.797   3.132 -0.4407 -0.7136  0.0464
   84MOL0     N11255   9.597   9.638   3.027 -0.7859 -0.8355 -0.5839
   84MOL0     N11256   9.489   9.663   2.964 -0.4362  0.0583 -0.2065
   84MOL0     C11257   8.470   9.080   2.402 -0.4573 -0.6938  0.5229
   84MOL0     C11258   8.367   8.984   2.414  0.3831  0.3508  0.1513
   84MOL0     C11259   7.913   8.837   2.327 -0.5834  0.7417  0.5731
   84MOL0     C11260   7.792   8.887   2.268  0.3121  0.5994  0.0389
   84MOL0     C11261   7.699   8.809   2.207 -1.0833 -0.0050  0.6810
   84MOL0     C11262   7.725   8.672   2.186 -0.7670 -0.1208 -0.1987
   84MOL0     O11263   7.647   8.574   2.128 -0.1242 -0.6294  0.7240
   84MOL0     C11264   7.521   8.563   2.192 -0.7399 -0.6799  0.5121
   84MOL0     C11265   7.429   8.474   2.115  0.3388  0.0886 -0.4252
   84MOL0     C11266   7.490   8.337   2.070 -0.6675 -0.5382  0.2658
   84MOL0     C11267   7.551   8.266   2.184 -0.7562 -0.4277 -0.2627
   84MOL0     C11268   7.464   8.227   2.302 -1.2338  0.1144  0.5469
   84MOL0     C11269   7.403   8.186   2.398  0.7366  1.0007 -0.0859
   84MOL0     C11270   7.840   8.613   2.244  0.0705  0.0991  0.5819
   84MOL0     C11271   7.931   8.696   2.311 -0.6172  0.5643 -0.2872
   84MOL0     C11272   8.051   8.623   2.366  0.7917  0.3841 -0.8983
   84MOL0     H11273   8.114   9.178   2.293 -0.1858  1.7281 -1.3074
   84MOL0     H11274   8.289   9.328   2.268  0.4520 -0.9726 -2.7800
   84MOL0     H11275   8.606   9.299   2.541 -0.0670  2.6913 -0.2026
   84MOL0     H11276   8.704   9.203   2.427  0.6681  0.5226  1.8166
   84MOL0     H11277   8.715   9.501   2.454  0.6171  1.2946 -1.2204
   84MOL0     H11278   8.767   9.416   2.308 -2.0610 -2.9873  0.2232
   84MOL0     H11279   8.928   9.284   2.447  2.1727  0.1562  2.4681
   84MOL0     H11280   8.861   9.340   2.591 -1.3755 -0.0112 -0.1542
   84MOL0     H11281   9.026   9.501   2.391  1.3294 -0.5205  0.2287
   84MOL0     H11282   8.945   9.572   2.534  0.5814  0.9018 -0.2814
   84MOL0     H11283   9.051   9.407   2.683 -0.5935  1.8830 -0.2030
   84MOL0     H11284   9.163   9.359   2.551  0.1700  0.4358 -0.3478
   84MOL0     H11285   9.237   9.592   2.527 -1.3343  2.5181  1.7442
   84MOL0     H11286   9.140   9.640   2.669  0.6614  2.3235 -0.8388
   84MOL0     H11287   9.364   9.431   2.658  0.8057  0.8503  0.7505
   84MOL0     H11288   9.281   9.464   2.809 -0.8072 -0.8699  0.3085
   84MOL0     H11289   9.459   9.656   2.645  0.3832  1.8027  0.5155
   84MOL0     H11290   9.329   9.713   2.756 -0.5378  0.1002 -1.9660
   84MOL0     H11291   9.661   9.536   2.724 -1.4106  2.4698 -0.3923
   84MOL0     H11292   9.792   9.476   3.096 -2.1725 -1.3563 -0.9340
   84MOL0     H11293   9.872   9.476   2.933 -0.0342  3.1245 -1.4231
   84MOL0     H11294   9.881   9.703   3.137 -0.4282 -2.8022  1.5117
   84MOL0     H11295  10.014   9.590   3.097 -0.8620 -0.6785  0.6112
   84MOL0     H11296   9.879   9.817   2.944 -0.0847  0.0397  1.6577
   84MOL0     H11297   9.923   9.681   2.841  0.2974 -0.9989  0.0619
   84MOL0     H11298  10.080   9.887   2.863  0.2922 -0.8241 -1.1836
   84MOL0     H11299  10.144   9.725   2.851  1.6582 -0.3768  1.2228
   84MOL0     H11300  10.309   9.918   2.832  0.2084  0.9416 -0.5327
   84MOL0     H11301  10.556   9.970   2.825 -2.1671  2.7708  0.3262
   84MOL0     H11302  10.903   9.978   3.274 -0.5585  4.3358 -2.0866
   84MOL0     H11303  11.136  10.028   3.304 -0.1830  0.2711 -0.4481
   84MOL0     H11304  11.448   9.818   3.063 -2.5475 -0.3587  0.3037
   84MOL0     H11305  11.434   9.964   2.962  1.6788 -0.5037 -0.3883
   84MOL0     H11306  11.592   9.991   3.222 -0.5735 -2.0548 -0.2996
   84MOL0     H11307  11.671   9.954   3.072  0.5594  1.1948 -1.5850
   84MOL0     H11308  11.596  10.144   2.970  0.5533  0.6343 -0.4411
   84MOL0     H11309  11.482  10.193   3.092  2.0659  2.2444 -0.2274
   84MOL0     H11310  11.700  10.184   3.258 -0.9495  0.7463  0.7648
   84MOL0     H11311  11.649  10.329   3.170 -1.0050 -1.0947  2.0525
   84MOL0     H11312  11.809  10.253   2.984  0.7809 -0.7100  0.7744
   84MOL0     H11313  11.856  10.121   3.082  1.3084  0.8312 -1.2756
   84MOL0     H11314  11.905  10.403   3.170  3.1519  0.7411  1.1303
   84MOL0     H11315  11.947  10.256   3.259 -0.6247  0.9207  0.4526
   84MOL0     H11316  12.040  10.279   2.970  0.1898  0.8766  0.5392
   84MOL0     H11317  12.134  10.223   3.111  0.7083 -2.5164 -3.8317
   84MOL0     H11318  12.231  10.420   3.035 -0.3190 -2.0467 -0.8624
   84MOL0     H11319  12.078  10.513   3.071  0.6980  0.7765  1.3363
   84MOL0     H11320  11.246   9.784   2.979  0.8052  0.6528  0.3754
   84MOL0     H11321  11.003   9.712   2.954 -0.5535  0.3245  1.0209
   84MOL0     H11322  10.564   9.761   3.211  1.0305 -0.7714 -0.3936
   84MOL0     H11323  10.339   9.754   3.222 -1.5832  0.4702  0.0991
   84MOL0     H11324   8.564   9.034   2.430 -1.1451 -1.4367  1.7432
   84MOL0     H11325   8.400   8.892   2.462  1.5142  0.5476 -0.1996
   84MOL0     H11326   7.771   8.993   2.260  0.5193  0.5884 -0.6580
   84MOL0     H11327   7.608   8.856   2.171  0.4252  0.6795 -2.5855
   84MOL0     H11328   7.474   8.662   2.196 -0.3239 -0.4124 -0.8204
   84MOL0     H11329   7.533   8.536   2.298  0.7253  1.0362  0.8388
   84MOL0     H11330   7.385   8.532   2.033 -1.2188  0.8389  0.8704
   84MOL0     H11331   7.340   8.454   2.175  0.7329  0.8466  0.4316
   84MOL0     H11332   7.561   8.358   1.990 -1.0685  0.4268  0.1470
   84MOL0     H11333   7.404   8.281   2.031 -0.5326 -1.7015  1.5782
   84MOL0     H11334   7.597   8.174   2.146  0.5100 -0.0054  0.2037
   84MOL0     H11335   7.636   8.318   2.229 -0.7559 -2.6154  2.4983
   84MOL0     H11336   7.351   8.144   2.482  0.4637 -1.8694 -1.5688
   84MOL0     H11337   7.868   8.510   2.223  1.3598  0.4578  0.4244
   84MOL0     H11338   8.059   8.515   2.349  0.1912 -0.3534  2.6826
   84MOL0     H11339   8.137   8.670   2.318 -0.0999 -0.5678 -3.6510
   84MOL0     H11340   8.053   8.640   2.474 -1.0657 -1.0297 -0.5892
   85MOL0     O11341   2.601   1.753   9.220 -0.0171  0.2640  0.0201
   85MOL0     C11342   2.709   1.807   9.236 -0.3276  0.3253 -0.5506
   85MOL0     O11343   2.748   1.912   9.170 -0.3322 -0.5666 -0.2271
   85MOL0     C11344   2.683   1.948   9.055 -0.2168  0.2826 -0.5499
   85MOL0     C11345   2.690   1.856   8.954 -0.5066  0.6194 -0.3545
   85MOL0     C11346   2.647   1.885   8.831  0.2858 -0.1643 -0.1853
   85MOL0     C11347   2.601   2.009   8.800  0.1112 -0.2617 -0.2241
   85MOL0     O11348   2.577   2.027   8.665 -0.0297 -0.2538 -0.4322
   85MOL0     C11349   2.546   2.160   8.617 -0.2618 -0.1045 -0.3921
   85MOL0     C11350   2.567   2.158   8.469 -0.3794 -0.4836 -0.2648
   85MOL0     C11351   2.708   2.129   8.416 -0.6776 -0.2744  0.0999
   85MOL0     C11352   2.771   2.253   8.355  0.1669  0.2301 -0.3521
   85MOL0     C11353   2.913   2.236   8.302 -0.4863  0.0314 -0.2074
   85MOL0     C11354   3.020   2.208   8.405 -0.6896  0.1548  0.1456
   85MOL0     C11355   3.145   2.154   8.334  0.4382  0.7154 -0.0516
   85MOL0     C11356   3.213   2.238   8.227  0.3858 -0.3394  0.9844
   85MOL0     N11357   3.238   2.374   8.285 -0.0267  0.6707  0.3551
   85MOL0     C11358   3.318   2.415   8.389  0.6704 -0.4960 -0.4194
   85MOL0     C11359   3.295   2.552   8.402  0.2001  0.1450 -0.1453
   85MOL0     C11360   3.368   2.643   8.504  1.1548 -0.4516  0.3801
   85MOL0     C11361   3.516   2.662   8.472 -0.1093  0.6003 -0.7322
   85MOL0     C11362   3.603   2.737   8.579  0.2212  0.3913 -0.1654
   85MOL0     C11363   3.575   2.885   8.604  0.6298  0.8996  0.8133
   85MOL0     O11364   3.563   2.965   8.481  0.0414  0.4035 -0.3022
   85MOL0     C11365   3.679   3.013   8.425 -1.0241 -0.2626 -0.2210
   85MOL0     C11366   3.806   3.005   8.476 -0.2369  0.2829  0.1702
   85MOL0     C11367   3.921   3.041   8.396 -0.0600  0.6554 -0.0724
   85MOL0     C11368   3.904   3.080   8.265 -0.1232  0.4372  0.3067
   85MOL0     C11369   4.022   3.117   8.182 -0.0089 -0.1851 -0.2114
   85MOL0     O11370   4.144   3.066   8.211  0.7890 -0.6096 -0.1406
   85MOL0     C11371   4.250   3.081   8.137  0.3180  0.5062  0.3083
   85MOL0     C11372   4.352   3.166   8.175 -0.4249  0.1431  0.0417
   85MOL0     C11373   4.468   3.172   8.098 -0.2005 -0.4846  0.4674
   85MOL0     C11374   4.478   3.116   7.969  0.0651 -0.4206 -0.6212
   85MOL0     O11375   4.581   3.156   7.890 -0.2426  0.0805 -0.0221
   85MOL0     C11376   4.597   3.097   7.763 -0.8804 -0.4490 -1.1253
   85MOL0     C11377   4.707   3.174   7.695 -0.2946 -0.2595 -0.2925
   85MOL0     C11378   4.830   3.193   7.780  0.4528 -0.8694  0.1084
   85MOL0     C11379   4.938   3.252   7.693 -0.6302  0.9825 -1.0643
   85MOL0     C11380   5.058   3.270   7.790  0.2792  0.0271 -0.0121
   85MOL0     C11381   5.183   3.316   7.717 -0.2540  0.5958  0.9409
   85MOL0     C11382   5.286   3.391   7.806  1.0939  0.1043  0.5720
   85MOL0     C11383   5.425   3.383   7.747  0.1506 -0.4367 -0.4668
   85MOL0    Cl11384   5.527   3.242   7.802 -0.1293  0.0702  0.3080
   85MOL0     C11385   4.376   3.020   7.936 -0.4023  0.2988  0.2627
   85MOL0     C11386   4.266   3.002   8.021  0.2264 -0.4633 -0.1244
   85MOL0     O11387   4.003   3.194   8.090 -0.0710 -0.2936 -0.4948
   85MOL0     C11388   3.773   3.100   8.210 -0.9653 -0.1757 -0.7516
   85MOL0     C11389   3.662   3.070   8.294  0.0316 -0.2897 -0.3071
   85MOL0     N11390   3.206   2.594   8.302 -0.0414 -0.3573 -0.4853
   85MOL0     N11391   3.172   2.484   8.237 -0.0290  1.0257  0.2585
   85MOL0     C11392   2.588   2.106   8.901 -0.1640  0.9538 -0.2196
   85MOL0     C11393   2.640   2.072   9.033 -0.3689  0.1041  0.1562
   85MOL0     C11394   2.795   1.764   9.349 -0.1840  0.4308 -0.9164
   85MOL0     C11395   2.917   1.827   9.382 -1.0307  0.0766  0.1489
   85MOL0     C11396   3.015   1.784   9.473 -0.0376 -0.5412  0.2855
   85MOL0     C11397   2.991   1.667   9.545  0.7604 -0.0597  1.3772
   85MOL0     O11398   3.079   1.606   9.641  0.8435 -0.5112  0.1294
   85MOL0     C11399   3.197   1.676   9.666 -0.5022 -0.6771 -0.7547
   85MOL0     C11400   3.299   1.668   9.553 -0.1531  0.0313 -0.5450
   85MOL0     C11401   3.444   1.642   9.599 -0.4821 -0.5619 -0.5973
   85MOL0     C11402   3.538   1.622   9.483 -0.2712  0.2338 -1.0072
   85MOL0     C11403   3.671   1.572   9.531 -0.1836 -0.7569  0.1874
   85MOL0     C11404   3.771   1.529   9.582 -0.3943  0.2649 -0.2506
   85MOL0     C11405   2.869   1.601   9.521  0.1914 -1.6229  0.1630
   85MOL0     C11406   2.773   1.641   9.425 -0.3541  0.0462 -0.4307
   85MOL0     C11407   2.657   1.553   9.404 -0.0874 -0.5977 -0.2528
   85MOL0     H11408   2.733   1.758   8.969  0.9211  1.4024  1.0128
   85MOL0     H11409   2.659   1.804   8.758  0.4047  1.2428 -1.7978
   85MOL0     H11410   2.447   2.188   8.652  0.3681  1.1726  0.4094
   85MOL0     H11411   2.610   2.238   8.658 -2.6829  2.3840 -1.0159
   85MOL0     H11412   2.531   2.251   8.424 -0.3551 -0.4269 -0.1675
   85MOL0     H11413   2.502   2.079   8.430 -1.5812 -0.9472  2.4391
   85MOL0     H11414   2.699   2.053   8.338 -0.0307  1.6402 -1.9560
   85MOL0     H11415   2.774   2.090   8.494  1.4431  2.0075 -0.4460
   85MOL0     H11416   2.713   2.293   8.272 -0.0060  0.5275 -0.0945
   85MOL0     H11417   2.772   2.336   8.427 -0.8954  0.1306 -0.2062
   85MOL0     H11418   2.891   2.150   8.238 -1.5307 -1.4473  2.0185
   85MOL0     H11419   2.944   2.312   8.230 -3.3251 -0.0814 -1.6632
   85MOL0     H11420   3.044   2.286   8.478 -0.3166  1.1086 -0.9528
   85MOL0     H11421   2.986   2.120   8.460  0.5144 -0.4894 -0.1098
   85MOL0     H11422   3.116   2.058   8.291 -2.2197  1.5107 -0.1773
   85MOL0     H11423   3.228   2.139   8.403 -1.0504 -1.0951  1.4352
   85MOL0     H11424   3.308   2.197   8.190 -0.8240 -4.3191  1.8118
   85MOL0     H11425   3.152   2.255   8.138 -2.1451 -0.8022  2.5317
   85MOL0     H11426   3.387   2.357   8.449 -1.9190 -2.2349  1.0893
   85MOL0     H11427   3.320   2.741   8.496 -0.8434 -1.4785 -1.2171
   85MOL0     H11428   3.355   2.615   8.609 -0.4001  1.0118  0.6115
   85MOL0     H11429   3.565   2.568   8.445  0.1388 -0.1119  1.9296
   85MOL0     H11430   3.516   2.733   8.388 -0.2060 -0.1347 -1.3572
   85MOL0     H11431   3.705   2.737   8.540  1.0316  2.2821  1.7475
   85MOL0     H11432   3.618   2.681   8.671  1.7216  0.6449 -0.2347
   85MOL0     H11433   3.648   2.916   8.680  0.7803 -2.7613  2.3630
   85MOL0     H11434   3.479   2.901   8.653  0.7770  1.2139  1.0057
   85MOL0     H11435   3.818   2.969   8.578 -0.5571 -2.3533 -0.6706
   85MOL0     H11436   4.023   3.038   8.431  0.2132 -1.0394 -0.8944
   85MOL0     H11437   4.334   3.221   8.267 -0.8202  0.7857 -0.4099
   85MOL0     H11438   4.552   3.229   8.138 -0.3239  0.8267 -1.0204
   85MOL0     H11439   4.626   2.992   7.779 -2.7809 -0.8977 -0.2356
   85MOL0     H11440   4.504   3.099   7.705 -1.0796 -2.1469 -0.9183
   85MOL0     H11441   4.742   3.124   7.604 -0.2959 -1.3590  0.3076
   85MOL0     H11442   4.674   3.273   7.661  0.8874  1.3873  2.9354
   85MOL0     H11443   4.808   3.269   7.856 -0.6061 -1.2707  0.2190
   85MOL0     H11444   4.862   3.103   7.833  0.0231 -0.4926  1.0296
   85MOL0     H11445   4.912   3.349   7.652 -1.8455  1.0893 -0.1006
   85MOL0     H11446   4.970   3.183   7.614 -1.5101 -0.6793 -0.0248
   85MOL0     H11447   5.087   3.174   7.835  0.7667 -0.4576 -1.3080
   85MOL0     H11448   5.038   3.341   7.871  2.4270 -0.2693  0.8448
   85MOL0     H11449   5.230   3.232   7.664 -0.5958  0.8243  0.2558
   85MOL0     H11450   5.142   3.388   7.645  1.1818  1.4688  0.9542
   85MOL0     H11451   5.292   3.356   7.910  0.6534 -0.7495  0.3236
   85MOL0     H11452   5.246   3.492   7.810 -1.1841 -0.7453  1.0446
   85MOL0     H11453   5.416   3.390   7.638 -0.9673  3.4919 -0.2899
   85MOL0     H11454   5.481   3.472   7.777 -0.2824 -0.5412  0.6999
   85MOL0     H11455   4.386   2.962   7.845 -1.8832  1.3784 -0.6307
   85MOL0     H11456   4.180   2.938   8.000 -0.0317 -1.1133  2.5773
   85MOL0     H11457   3.762   3.147   8.113 -1.6209  0.6898 -0.2763
   85MOL0     H11458   3.564   3.081   8.248 -0.8007 -0.1145  1.4414
   85MOL0     H11459   2.545   2.205   8.884 -5.1394 -1.0050 -0.6510
   85MOL0     H11460   2.665   2.136   9.117  3.6176 -1.0439  0.0697
   85MOL0     H11461   2.946   1.921   9.335 -1.4036  0.7137  1.1432
   85MOL0     H11462   3.112   1.832   9.480  1.8313 -3.8970 -0.2271
   85MOL0     H11463   3.240   1.624   9.752 -0.3371  0.7611  0.0665
   85MOL0     H11464   3.174   1.781   9.687 -0.7739 -0.8105 -0.3739
   85MOL0     H11465   3.297   1.759   9.492  0.7745 -0.4278 -1.2837
   85MOL0     H11466   3.275   1.578   9.496 -0.2662 -0.9737  1.0088
   85MOL0     H11467   3.444   1.553   9.662 -2.4323 -0.0915  0.1388
   85MOL0     H11468   3.480   1.722   9.664 -3.1670  1.8759 -1.8631
   85MOL0     H11469   3.478   1.550   9.428  0.7487 -1.5460  0.1240
   85MOL0     H11470   3.561   1.711   9.423  3.1272  0.5774  0.5442
   85MOL0     H11471   3.852   1.484   9.637  0.7137 -1.5017 -3.1231
   85MOL0     H11472   2.857   1.509   9.576  1.7171 -2.6604 -1.1390
   85MOL0     H11473   2.667   1.455   9.453  0.1485 -1.5361 -2.0979
   85MOL0     H11474   2.562   1.601   9.429  1.7857  3.4181 -0.0047
   85MOL0     H11475   2.647   1.521   9.300 -4.5288 -2.3733  0.4996
   86MOL0     O11476   0.678   2.507   9.248 -0.1562 -0.6062 -0.4441
   86MOL0     C11477   0.637   2.600   9.184  0.3952 -0.0026  0.1800
   86MOL0     O11478   0.717   2.703   9.127  0.1641  0.2231  0.1138
   86MOL0     C11479   0.851   2.695   9.149  0.5243  0.5660  1.0194
   86MOL0     C11480   0.911   2.695   9.272  0.0873 -0.5877 -0.7988
   86MOL0     C11481   1.054   2.693   9.277 -0.5861 -0.7797 -0.1653
   86MOL0     C11482   1.137   2.700   9.164  0.2152  0.5295 -0.1491
   86MOL0     O11483   1.275   2.707   9.198  0.8030  0.7971 -0.2964
   86MOL0     C11484   1.359   2.754   9.089 -0.0337 -0.0171  0.0456
   86MOL0     C11485   1.501   2.789   9.144  0.4431  0.1976  1.0457
   86MOL0     C11486   1.503   2.847   9.283 -1.2450 -0.0403 -0.5117
   86MOL0     C11487   1.648   2.890   9.310  0.5714  0.5780 -0.1343
   86MOL0     C11488   1.661   2.954   9.454  0.6027  0.3792  0.3428
   86MOL0     C11489   1.632   3.097   9.450  0.6365 -0.7314 -0.6705
   86MOL0     C11490   1.627   3.181   9.580  0.3211  0.6248  1.0817
   86MOL0     C11491   1.750   3.162   9.678 -0.4275 -0.6413  0.0955
   86MOL0     N11492   1.871   3.221   9.615 -0.8476  0.0752  0.4608
   86MOL0     C11493   1.936   3.331   9.670 -0.5508 -0.3568 -0.1180
   86MOL0     C11494   2.049   3.349   9.595 -0.8642 -0.6317  0.1392
   86MOL0     C11495   2.153   3.464   9.611 -0.7096  0.3039 -0.0976
   86MOL0     C11496   2.282   3.447   9.529  0.3535 -0.5194 -0.3746
   86MOL0     C11497   2.378   3.350   9.605 -0.3764  0.2255 -0.5653
   86MOL0     C11498   2.522   3.377   9.569 -0.7743  0.9611  0.0870
   86MOL0     O11499   2.606   3.308   9.667  0.2186  0.3998  0.6151
   86MOL0     C11500   2.739   3.319   9.648 -0.2518 -0.2594 -1.4386
   86MOL0     C11501   2.799   3.284   9.528 -0.4182 -0.5742 -0.0857
   86MOL0     C11502   2.938   3.275   9.508  0.2195  0.2595  0.5658
   86MOL0     C11503   3.025   3.318   9.613  0.3305  0.0075 -0.2025
   86MOL0     C11504   3.173   3.332   9.601  0.5785  0.3813 -0.6356
   86MOL0     O11505   3.238   3.385   9.706 -0.4690  0.1540  0.2453
   86MOL0     C11506   3.365   3.430   9.681  0.9726 -0.4749 -1.0376
   86MOL0     C11507   3.465   3.423   9.782  0.6476  0.6922 -0.3033
   86MOL0     C11508   3.586   3.489   9.770  0.2060 -0.1811  0.6337
   86MOL0     C11509   3.621   3.573   9.656  0.3513  0.4921  0.2230
   86MOL0     O11510   3.745   3.637   9.660 -0.4847  0.5207 -0.7262
   86MOL0     C11511   3.827   3.662   9.538 -0.1248 -1.0858 -0.7155
   86MOL0     C11512   3.913   3.542   9.522  0.0929  0.1854  0.6736
   86MOL0     C11513   3.843   3.425   9.452  0.7680  0.9781  0.3686
   86MOL0     C11514   3.937   3.327   9.389 -0.2710 -0.6059  0.5887
   86MOL0     C11515   3.879   3.181   9.387 -0.3939 -0.1781  0.8732
   86MOL0     C11516   3.981   3.097   9.309 -0.7712 -0.3914 -0.1094
   86MOL0     C11517   3.957   2.946   9.324  0.0297 -0.3755 -0.1597
   86MOL0     C11518   4.058   2.860   9.241 -0.1285  0.1179  0.0980
   86MOL0    Cl11519   4.232   2.886   9.298 -0.3019 -0.0672 -0.1546
   86MOL0     C11520   3.521   3.587   9.555  0.4336  0.5599  0.4296
   86MOL0     C11521   3.397   3.516   9.565 -1.2266 -0.2407 -0.2052
   86MOL0     O11522   3.223   3.287   9.505  0.2989 -0.3111  0.0792
   86MOL0     C11523   2.965   3.362   9.731 -0.6701  0.1934  0.1218
   86MOL0     C11524   2.826   3.368   9.748  0.9310 -0.8173  0.5932
   86MOL0     N11525   2.048   3.241   9.508 -0.1359  0.5049  0.1172
   86MOL0     N11526   1.948   3.160   9.524 -0.8486  0.8092 -0.0401
   86MOL0     C11527   1.074   2.704   9.040 -0.3681 -0.0567  0.4794
   86MOL0     C11528   0.931   2.694   9.034 -0.9630  0.1806  0.7524
   86MOL0     C11529   0.487   2.616   9.174 -1.0150  0.2792  0.7089
   86MOL0     C11530   0.420   2.515   9.241  0.1248  0.2684  0.5648
   86MOL0     C11531   0.283   2.501   9.224  0.7350 -0.6073 -0.4912
   86MOL0     C11532   0.205   2.592   9.155 -0.1133  0.1597  0.3376
   86MOL0     O11533   0.067   2.598   9.142 -0.8438  0.2143 -0.1056
   86MOL0     C11534  -0.003   2.499   9.225  0.6009 -0.6562 -0.0972
   86MOL0     C11535  -0.146   2.508   9.169 -0.1440 -0.7743  0.9431
   86MOL0     C11536  -0.247   2.429   9.253 -0.5711  0.1197 -0.5620
   86MOL0     C11537  -0.292   2.507   9.378  0.1457  0.3008  0.0506
   86MOL0     C11538  -0.423   2.461   9.430 -0.0399  0.0060 -0.7541
   86MOL0     C11539  -0.528   2.415   9.479 -0.9823 -1.1533  0.0186
   86MOL0     C11540   0.273   2.695   9.085 -0.7439  0.9129  0.6446
   86MOL0     C11541   0.413   2.708   9.093  0.0969 -0.5405 -0.0156
   86MOL0     C11542   0.480   2.815   9.019 -0.4651  0.6802 -1.1702
   86MOL0     H11543   0.854   2.706   9.363  1.1654  0.8776 -0.2577
   86MOL0     H11544   1.108   2.712   9.369 -1.3887  0.0561  0.1568
   86MOL0     H11545   1.378   2.673   9.018  0.6700 -0.1576  0.3849
   86MOL0     H11546   1.312   2.838   9.037 -1.1424  0.7561  2.1600
   86MOL0     H11547   1.550   2.851   9.068  0.9878  1.5818  2.4422
   86MOL0     H11548   1.547   2.690   9.141 -0.0526 -0.0086 -0.0619
   86MOL0     H11549   1.486   2.769   9.357  2.4633 -2.0399 -1.5179
   86MOL0     H11550   1.432   2.931   9.289 -3.5451 -1.8486 -1.0216
   86MOL0     H11551   1.711   2.801   9.296 -0.8218 -0.1924 -1.8105
   86MOL0     H11552   1.696   2.962   9.244  3.8890 -0.9325  0.4044
   86MOL0     H11553   1.590   2.903   9.521  0.7243  1.0669  1.0070
   86MOL0     H11554   1.758   2.933   9.500  0.6939  1.3143  0.6095
   86MOL0     H11555   1.706   3.144   9.385  2.3890 -1.7173  0.5202
   86MOL0     H11556   1.537   3.115   9.400  1.9056 -0.0164 -2.9798
   86MOL0     H11557   1.535   3.141   9.622 -0.7730 -2.1385 -3.2959
   86MOL0     H11558   1.621   3.288   9.563 -2.0415  0.1646 -1.5977
   86MOL0     H11559   1.735   3.212   9.774 -0.3259 -0.6022  0.0915
   86MOL0     H11560   1.767   3.055   9.692  0.6230 -0.7738 -1.9072
   86MOL0     H11561   1.907   3.399   9.749  0.4731  0.4819 -0.4399
   86MOL0     H11562   2.103   3.555   9.578 -0.9165  0.0503 -0.4966
   86MOL0     H11563   2.183   3.481   9.715 -0.7013 -2.4879  0.4385
   86MOL0     H11564   2.263   3.410   9.428 -2.2429  1.2850 -0.6508
   86MOL0     H11565   2.332   3.542   9.508 -0.0263 -0.3136 -0.3634
   86MOL0     H11566   2.359   3.246   9.575  1.5916 -0.1867 -0.5318
   86MOL0     H11567   2.385   3.363   9.713  1.2290  1.1234 -0.7397
   86MOL0     H11568   2.552   3.482   9.576 -0.2604  0.9413 -1.5323
   86MOL0     H11569   2.537   3.353   9.463 -0.2420 -1.6345  0.6717
   86MOL0     H11570   2.729   3.246   9.454 -2.8466 -0.8144  2.1781
   86MOL0     H11571   2.978   3.252   9.409 -0.1865  1.1678  0.1747
   86MOL0     H11572   3.442   3.370   9.874 -1.2511 -2.1689 -2.2602
   86MOL0     H11573   3.672   3.479   9.835  3.1926 -3.1938 -3.2671
   86MOL0     H11574   3.784   3.698   9.444  0.3732 -1.0720 -0.9436
   86MOL0     H11575   3.900   3.740   9.559  0.1387 -1.5188  0.0091
   86MOL0     H11576   3.999   3.569   9.460  1.0916 -4.2431 -0.1931
   86MOL0     H11577   3.959   3.509   9.616 -2.5043 -2.0115  1.2936
   86MOL0     H11578   3.795   3.368   9.533 -0.5400  0.1396 -0.9528
   86MOL0     H11579   3.757   3.440   9.385 -2.2257 -3.1126  2.8068
   86MOL0     H11580   4.025   3.331   9.453 -2.1542  2.0030  3.2725
   86MOL0     H11581   3.972   3.356   9.290 -0.3018  2.4748  1.3854
   86MOL0     H11582   3.780   3.178   9.341 -0.6637  1.8572  1.2340
   86MOL0     H11583   3.862   3.158   9.492  0.0959  1.9981  1.4769
   86MOL0     H11584   3.956   3.122   9.205  1.2858  1.7601 -0.1949
   86MOL0     H11585   4.085   3.129   9.322 -0.3007 -1.8727 -0.0568
   86MOL0     H11586   3.852   2.921   9.301 -1.0972  3.5530 -0.0932
   86MOL0     H11587   3.968   2.919   9.429  0.3141 -1.2905 -0.4122
   86MOL0     H11588   4.025   2.756   9.242 -2.1836  0.7301  1.4831
   86MOL0     H11589   4.060   2.880   9.134 -2.4153 -0.9436 -0.1927
   86MOL0     H11590   3.546   3.651   9.471  1.0247 -0.0013  0.1752
   86MOL0     H11591   3.322   3.535   9.489 -0.4283  1.4768 -0.6150
   86MOL0     H11592   3.026   3.413   9.805  0.1079  1.7231 -1.4953
   86MOL0     H11593   2.787   3.403   9.843  0.2370 -0.4766  0.1877
   86MOL0     H11594   1.130   2.695   8.948 -0.8905 -0.7092  0.2158
   86MOL0     H11595   0.886   2.696   8.935  1.6409  3.0413 -0.5214
   86MOL0     H11596   0.470   2.438   9.300 -0.3741 -0.6775 -0.2111
   86MOL0     H11597   0.239   2.414   9.271  1.6191 -0.2118  1.1745
   86MOL0     H11598  -0.003   2.523   9.332  2.0420  2.7114 -0.7346
   86MOL0     H11599   0.031   2.396   9.211 -1.7323 -1.7092  1.3751
   86MOL0     H11600  -0.145   2.474   9.065  1.4122  1.7503  0.0515
   86MOL0     H11601  -0.176   2.613   9.172 -1.6479 -1.1582  0.3660
   86MOL0     H11602  -0.208   2.331   9.282  0.2620  0.8467  0.8730
   86MOL0     H11603  -0.337   2.412   9.192 -0.7167  1.0976 -0.6224
   86MOL0     H11604  -0.222   2.497   9.461 -0.1069 -2.0300  0.0675
   86MOL0     H11605  -0.308   2.610   9.347  0.7252 -0.3123 -2.5459
   86MOL0     H11606  -0.609   2.355   9.514 -0.9535 -1.6128 -0.6825
   86MOL0     H11607   0.216   2.765   9.024  0.5698  1.9951  0.6005
   86MOL0     H11608   0.544   2.772   8.941  0.9978 -1.9419  1.2968
   86MOL0     H11609   0.402   2.883   8.981 -3.7203 -1.9219  0.3552
   86MOL0     H11610   0.551   2.867   9.084  1.0833  0.2154 -2.4343
   87MOL0     O11611   4.768   9.521   7.568 -0.1949 -0.1573 -0.7476
   87MOL0     C11612   4.732   9.553   7.461 -0.3110  0.5410  1.0142
   87MOL0     O11613   4.784   9.655   7.380  0.7173  0.1260  0.3389
   87MOL0     C11614   4.898   9.711   7.421 -0.3758 -0.0951  0.4397
   87MOL0     C11615   4.899   9.834   7.488  0.6429  0.8899 -0.5987
   87MOL0     C11616   5.020   9.902   7.505 -0.1120  0.3329  0.2913
   87MOL0     C11617   5.140   9.853   7.452 -0.0269 -0.1645  0.5685
   87MOL0     O11618   5.256   9.927   7.488 -0.7383 -0.1154  0.5383
   87MOL0     C11619   5.387   9.860   7.479  0.4981 -0.3574 -0.4731
   87MOL0     C11620   5.490   9.953   7.534 -0.2967  0.1082 -1.1661
   87MOL0     C11621   5.624   9.882   7.526  0.5330 -0.2290 -0.1095
   87MOL0     C11622   5.746   9.977   7.536 -0.4377 -0.8025 -0.5958
   87MOL0     C11623   5.890   9.923   7.539 -0.6604  0.5974  1.3034
   87MOL0     C11624   5.928   9.833   7.658 -0.0678  0.0475 -0.7535
   87MOL0     C11625   5.909   9.886   7.802  0.4655  0.1232 -0.4638
   87MOL0     C11626   5.990  10.014   7.825  0.0624 -0.6521  0.5587
   87MOL0     N11627   6.134   9.990   7.801  0.8405 -0.1919 -0.0658
   87MOL0     C11628   6.206   9.889   7.845 -0.0801  0.6658 -0.2877
   87MOL0     C11629   6.329   9.906   7.801 -0.2621 -0.4531  0.1184
   87MOL0     C11630   6.445   9.815   7.839  0.0823  0.2609  0.1996
   87MOL0     C11631   6.562   9.833   7.742  0.5812 -0.2354  0.1065
   87MOL0     C11632   6.671   9.735   7.780  0.3051  0.4542 -0.1051
   87MOL0     C11633   6.793   9.742   7.688  0.5304 -0.3451 -0.1146
   87MOL0     O11634   6.897   9.667   7.747  0.2651  0.2582 -0.0654
   87MOL0     C11635   7.001   9.646   7.661 -0.2719 -0.4524  0.5312
   87MOL0     C11636   7.070   9.526   7.676  0.6581  1.0773  0.6242
   87MOL0     C11637   7.194   9.495   7.621 -0.1537  0.9659  0.4704
   87MOL0     C11638   7.249   9.595   7.525 -0.4570  1.3255  0.6120
   87MOL0     C11639   7.380   9.577   7.451 -0.5838  0.3145 -0.7605
   87MOL0     O11640   7.454   9.472   7.497 -0.1520  0.2797  0.3352
   87MOL0     C11641   7.576   9.441   7.425  0.2954 -0.0200 -0.3778
   87MOL0     C11642   7.675   9.543   7.409 -0.5749 -0.1513 -0.2481
   87MOL0     C11643   7.804   9.509   7.359  0.8012 -0.1732  0.5727
   87MOL0     C11644   7.835   9.373   7.328 -0.3457 -0.9912 -0.5321
   87MOL0     O11645   7.963   9.355   7.288 -0.2896  0.0037  0.0363
   87MOL0     C11646   7.983   9.231   7.217  0.6393 -0.9022 -0.1317
   87MOL0     C11647   8.128   9.227   7.173 -0.1908 -0.0376  0.1670
   87MOL0     C11648   8.147   9.125   7.050 -0.6825  0.4455  0.3375
   87MOL0     C11649   8.296   9.084   7.037 -0.0261  0.1783 -0.5605
   87MOL0     C11650   8.306   8.951   6.951 -0.8525 -0.2928 -0.8051
   87MOL0     C11651   8.465   8.914   6.942 -0.5414  0.9314 -0.7067
   87MOL0     C11652   8.549   8.882   7.069 -0.5729 -0.0421  0.0686
   87MOL0     C11653   8.665   8.980   7.091  0.0423  0.7393 -0.6605
   87MOL0    Cl11654   8.786   8.954   6.970  0.2233 -0.1504  0.6136
   87MOL0     C11655   7.728   9.278   7.338  0.2045  0.1792  0.1991
   87MOL0     C11656   7.601   9.317   7.389  0.4951 -0.4460  0.0941
   87MOL0     O11657   7.416   9.651   7.357  0.9722  0.5114 -0.0207
   87MOL0     C11658   7.173   9.712   7.509 -0.2672 -0.8106  0.8839
   87MOL0     C11659   7.049   9.736   7.564  0.0540  0.0314 -0.6935
   87MOL0     N11660   6.328  10.024   7.732  0.3591 -0.5043  1.0266
   87MOL0     N11661   6.215  10.071   7.727 -0.1760 -0.4204 -0.3005
   87MOL0     C11662   5.146   9.735   7.375 -0.2200  0.9152 -0.0443
   87MOL0     C11663   5.020   9.658   7.374 -0.3199 -0.1968  0.7393
   87MOL0     C11664   4.621   9.469   7.415  0.1000  0.0971  0.6735
   87MOL0     C11665   4.497   9.531   7.385 -0.7500  0.5063  0.1471
   87MOL0     C11666   4.377   9.460   7.353  0.4009 -0.1226 -0.1150
   87MOL0     C11667   4.379   9.324   7.351  0.2537  0.1108 -0.6901
   87MOL0     O11668   4.267   9.251   7.331 -0.2318  0.0711  0.0766
   87MOL0     C11669   4.171   9.276   7.225 -0.0738  0.6484 -0.1549
   87MOL0     C11670   4.051   9.370   7.271 -0.1539  0.3574 -0.4067
   87MOL0     C11671   3.982   9.294   7.387 -0.0117  0.2407 -0.5263
   87MOL0     C11672   3.894   9.173   7.331  0.1342  0.1903  0.1723
   87MOL0     C11673   3.774   9.167   7.418 -0.6026  0.5003 -0.1578
   87MOL0     C11674   3.665   9.139   7.470 -0.9493  0.2199 -0.6917
   87MOL0     C11675   4.498   9.259   7.381 -0.2909  0.0900 -0.6612
   87MOL0     C11676   4.619   9.326   7.407  0.9741  0.2200 -0.0808
   87MOL0     C11677   4.732   9.243   7.445  0.4721  0.3570  0.1401
   87MOL0     H11678   4.801   9.877   7.510  0.1173  1.0987 -3.0418
   87MOL0     H11679   5.011   9.995   7.561 -1.6802 -0.4002  1.3393
   87MOL0     H11680   5.382   9.771   7.542  2.7070 -0.4918 -0.4132
   87MOL0     H11681   5.416   9.832   7.377  1.7471  2.4627 -0.9976
   87MOL0     H11682   5.462   9.968   7.638  0.3356 -1.0462 -0.8002
   87MOL0     H11683   5.503  10.046   7.479 -1.9878  1.4496  0.5791
   87MOL0     H11684   5.623   9.833   7.428  3.0337  2.5042 -1.6600
   87MOL0     H11685   5.636   9.805   7.603  1.7982 -0.7684 -0.8180
   87MOL0     H11686   5.740  10.040   7.447  3.8821  3.9558  2.0266
   87MOL0     H11687   5.719  10.035   7.624  0.3916  0.0332 -0.8810
   87MOL0     H11688   5.897   9.851   7.457  0.0645 -1.0016  2.7174
   87MOL0     H11689   5.964  10.001   7.521 -1.4656  1.3399  1.1232
   87MOL0     H11690   5.873   9.738   7.658 -1.0015  0.5371  1.4749
   87MOL0     H11691   6.029   9.791   7.650 -0.1295 -0.0941 -0.8041
   87MOL0     H11692   5.928   9.812   7.880 -0.6454  0.5991  0.2771
   87MOL0     H11693   5.803   9.908   7.812  0.3884  0.0982 -1.1420
   87MOL0     H11694   5.957  10.089   7.753 -1.6228 -1.1625  0.7507
   87MOL0     H11695   5.989  10.052   7.927  2.4479  0.1125  0.3553
   87MOL0     H11696   6.173   9.812   7.914 -0.6880  2.2061  1.2067
   87MOL0     H11697   6.472   9.829   7.944 -4.3219  2.7399  1.2213
   87MOL0     H11698   6.412   9.712   7.822  4.4006 -1.5804  1.5701
   87MOL0     H11699   6.521   9.811   7.643 -0.6605 -0.1696  0.5897
   87MOL0     H11700   6.593   9.937   7.738 -1.6585  0.4548 -1.1536
   87MOL0     H11701   6.639   9.631   7.781  1.4346  0.0320  3.1846
   87MOL0     H11702   6.699   9.763   7.882  1.7742  1.5503 -0.7667
   87MOL0     H11703   6.822   9.847   7.695  0.7654 -0.5205  2.9210
   87MOL0     H11704   6.781   9.713   7.583  0.4985 -0.7768  0.0058
   87MOL0     H11705   7.027   9.465   7.754 -1.1897  1.1267 -0.3138
   87MOL0     H11706   7.229   9.397   7.653 -0.4328  0.7538  0.1190
   87MOL0     H11707   7.673   9.646   7.444  1.7076 -0.1148 -0.0694
   87MOL0     H11708   7.883   9.582   7.343 -0.2306  1.3344  2.1149
   87MOL0     H11709   7.953   9.142   7.272 -2.3599 -0.8419 -1.4825
   87MOL0     H11710   7.918   9.236   7.130  1.4173 -0.3230 -0.6977
   87MOL0     H11711   8.165   9.327   7.148  3.2330 -0.7826  1.6250
   87MOL0     H11712   8.200   9.199   7.251  2.2257  1.5514 -1.3560
   87MOL0     H11713   8.091   9.032   7.066 -0.9884  0.3846 -1.0079
   87MOL0     H11714   8.117   9.172   6.956 -0.5025  1.5498  0.8127
   87MOL0     H11715   8.333   9.048   7.134  0.4128 -1.6267 -1.3641
   87MOL0     H11716   8.345   9.174   6.997 -1.7915  1.0212 -0.9208
   87MOL0     H11717   8.263   8.952   6.851  0.3195 -2.5822 -1.4014
   87MOL0     H11718   8.251   8.869   6.997  0.1535  1.2653  3.7264
   87MOL0     H11719   8.458   8.823   6.882 -0.6168 -1.1530  2.2459
   87MOL0     H11720   8.513   9.001   6.896 -0.4316  1.0617 -0.3464
   87MOL0     H11721   8.603   8.788   7.056 -0.0654  0.0696  1.2491
   87MOL0     H11722   8.479   8.876   7.153 -0.7600  0.2561 -0.0684
   87MOL0     H11723   8.633   9.084   7.084  2.3383  1.5177 -0.6586
   87MOL0     H11724   8.703   8.959   7.192 -2.0790  0.0026  0.0281
   87MOL0     H11725   7.737   9.178   7.296  1.3041  1.0864 -1.8885
   87MOL0     H11726   7.526   9.240   7.404 -1.5266  1.7460  1.7799
   87MOL0     H11727   7.202   9.793   7.443 -2.0951  0.4223  1.4935
   87MOL0     H11728   7.003   9.830   7.536  2.5527  1.4387 -0.3886
   87MOL0     H11729   5.231   9.688   7.328 -1.0436 -0.4754 -0.1994
   87MOL0     H11730   5.025   9.563   7.321  2.2191  0.4737 -0.3789
   87MOL0     H11731   4.494   9.639   7.397  1.3114  0.6164  0.0945
   87MOL0     H11732   4.283   9.514   7.344  0.4385  0.4457  2.3592
   87MOL0     H11733   4.152   9.187   7.165 -0.1233  0.0220  0.7659
   87MOL0     H11734   4.220   9.344   7.155 -0.5447  1.9807  0.7625
   87MOL0     H11735   3.991   9.375   7.179 -0.9251 -0.5954  0.0222
   87MOL0     H11736   4.071   9.473   7.298 -2.2214  0.6501  0.2268
   87MOL0     H11737   3.918   9.355   7.452 -1.5591 -2.1786  0.3847
   87MOL0     H11738   4.063   9.251   7.447  0.0852  1.3875  0.2006
   87MOL0     H11739   3.858   9.205   7.233  0.0369 -0.4338  0.0042
   87MOL0     H11740   3.945   9.076   7.332  0.6416  0.4521  0.1132
   87MOL0     H11741   3.561   9.130   7.495 -1.3812  0.8405 -2.1757
   87MOL0     H11742   4.497   9.153   7.401  1.1646  0.1908  0.0621
   87MOL0     H11743   4.717   9.136   7.433 -2.7025  0.5880  0.9906
   87MOL0     H11744   4.828   9.268   7.400  0.1057  1.6467  0.0151
   87MOL0     H11745   4.744   9.256   7.553  1.2325 -2.0790  0.3931
   88MOL0     O11746   4.583   2.289  10.111 -0.4570  0.0271 -0.7009
   88MOL0     C11747   4.602   2.172  10.154 -0.3702  0.1388 -0.8912
   88MOL0     O11748   4.677   2.080  10.098  0.0704  0.3345 -0.1622
   88MOL0     C11749   4.722   2.105   9.976 -0.6823 -0.0836  0.6835
   88MOL0     C11750   4.846   2.169   9.945  0.6348  0.1806  0.1072
   88MOL0     C11751   4.901   2.154   9.810 -0.2724 -0.8782  0.3817
   88MOL0     C11752   4.814   2.121   9.705  0.3273  0.8386 -0.2718
   88MOL0     O11753   4.862   2.106   9.580 -0.1004 -0.4246 -0.1307
   88MOL0     C11754   4.767   2.097   9.471 -1.0989  0.8575  0.2933
   88MOL0     C11755   4.837   2.157   9.346 -0.3864  0.9526  0.6235
   88MOL0     C11756   4.960   2.074   9.305 -0.3293 -0.1681 -0.7011
   88MOL0     C11757   5.040   2.106   9.178 -0.2373 -0.6451 -0.6378
   88MOL0     C11758   5.099   2.241   9.161  0.3778  0.3643  0.4453
   88MOL0     C11759   5.185   2.275   9.279  0.4182  0.1812  0.0582
   88MOL0     C11760   5.303   2.364   9.253 -0.3780  0.5435  0.0759
   88MOL0     C11761   5.408   2.361   9.370  0.6166  0.4069  0.0054
   88MOL0     N11762   5.522   2.451   9.338  0.9664  0.0768 -1.1361
   88MOL0     C11763   5.653   2.411   9.312 -0.5705  0.4438  0.4321
   88MOL0     C11764   5.717   2.521   9.274 -0.1925 -0.0206 -1.1562
   88MOL0     C11765   5.869   2.528   9.238  0.3506  0.2825  1.1292
   88MOL0     C11766   5.883   2.578   9.096 -0.1738 -0.3442 -0.1219
   88MOL0     C11767   5.837   2.466   9.003 -0.1106  0.2188 -0.2823
   88MOL0     C11768   5.883   2.495   8.863 -0.4334 -0.1594 -0.2926
   88MOL0     O11769   6.022   2.471   8.855 -0.5138  0.7540 -0.0669
   88MOL0     C11770   6.088   2.486   8.733  0.1854 -0.8871 -0.9622
   88MOL0     C11771   6.226   2.476   8.745  0.1580 -0.3677 -0.2032
   88MOL0     C11772   6.314   2.498   8.647 -0.6722 -0.2604  0.5813
   88MOL0     C11773   6.274   2.534   8.512  0.4800  0.4638 -0.8511
   88MOL0     C11774   6.373   2.570   8.405  0.3938  0.0668 -1.1086
   88MOL0     O11775   6.502   2.577   8.439 -0.5788  0.6532 -0.0387
   88MOL0     C11776   6.604   2.609   8.347 -0.1425 -0.1036 -0.1884
   88MOL0     C11777   6.677   2.721   8.384 -0.6912  0.0728 -0.2202
   88MOL0     C11778   6.774   2.773   8.299  0.2889 -0.6962  1.0806
   88MOL0     C11779   6.806   2.716   8.173  0.3407  0.4475  0.4148
   88MOL0     O11780   6.894   2.790   8.088  0.1678  0.2881 -0.1350
   88MOL0     C11781   6.933   2.719   7.969 -0.7443  0.2500 -0.2190
   88MOL0     C11782   7.039   2.792   7.890  0.5224  0.1674 -0.1847
   88MOL0     C11783   7.085   2.727   7.753  0.6271  0.1021  0.7044
   88MOL0     C11784   7.185   2.815   7.681 -1.0281 -0.3105 -0.8089
   88MOL0     C11785   7.262   2.726   7.585 -0.5906  0.1104 -0.8759
   88MOL0     C11786   7.173   2.675   7.479  0.2678  0.1164  0.6884
   88MOL0     C11787   7.248   2.623   7.361 -0.2899  0.3171  0.5162
   88MOL0     C11788   7.336   2.492   7.389 -0.4975 -0.5333  0.3128
   88MOL0    Cl11789   7.457   2.466   7.270  0.3700 -0.0144 -0.4335
   88MOL0     C11790   6.720   2.610   8.131  0.2035 -0.4809 -0.0458
   88MOL0     C11791   6.621   2.557   8.223 -0.6680  0.5832  0.4691
   88MOL0     O11792   6.328   2.579   8.291 -0.2658 -0.1492  0.6576
   88MOL0     C11793   6.132   2.547   8.499  0.4502  0.0969  0.8372
   88MOL0     C11794   6.044   2.524   8.605  0.4339  0.7346 -1.5962
   88MOL0     N11795   5.625   2.629   9.295  0.1701 -0.5159 -0.3327
   88MOL0     N11796   5.517   2.585   9.342  0.2995 -0.1070  0.5729
   88MOL0     C11797   4.693   2.059   9.736  0.5651 -0.2186  0.5603
   88MOL0     C11798   4.652   2.052   9.863  0.3437  0.4139  0.2999
   88MOL0     C11799   4.557   2.131  10.286  0.3695 -0.3189  0.3031
   88MOL0     C11800   4.441   2.198  10.331 -0.5811  0.7706 -0.1027
   88MOL0     C11801   4.377   2.150  10.449 -0.6118  0.3370  0.2798
   88MOL0     C11802   4.423   2.040  10.515  0.1990  0.1553  0.4707
   88MOL0     O11803   4.364   2.010  10.635 -0.0751 -0.0124  0.5095
   88MOL0     C11804   4.294   1.889  10.630  0.7427 -0.1172 -0.1965
   88MOL0     C11805   4.157   1.911  10.692 -0.7744  0.0823  0.7352
   88MOL0     C11806   4.169   1.906  10.843  0.7476 -0.1313  0.0633
   88MOL0     C11807   4.023   1.938  10.901 -0.2962 -0.1590 -0.1709
   88MOL0     C11808   4.011   1.901  11.042  1.2314  0.5545 -0.7065
   88MOL0     C11809   4.012   1.865  11.160 -0.3788  1.1256  0.1208
   88MOL0     C11810   4.547   1.986  10.484 -0.4848 -0.5503  0.3622
   88MOL0     C11811   4.619   2.030  10.369 -0.4955  0.0669  0.0117
   88MOL0     C11812   4.762   1.979  10.352 -0.2209  0.1512  0.5360
   88MOL0     H11813   4.917   2.203  10.019  0.6029  0.1462  0.1539
   88MOL0     H11814   5.002   2.183   9.783 -0.5482 -0.8930 -0.7103
   88MOL0     H11815   4.731   1.996   9.449 -1.0341  0.6685  1.0611
   88MOL0     H11816   4.675   2.152   9.490 -1.9668 -1.2352  2.6703
   88MOL0     H11817   4.870   2.259   9.368 -0.1924  1.2715 -1.0266
   88MOL0     H11818   4.768   2.162   9.261 -0.2862  0.1871  0.4923
   88MOL0     H11819   4.931   1.971   9.283  0.5934 -0.9147  1.2899
   88MOL0     H11820   5.036   2.066   9.384  1.1675  0.5202 -2.0276
   88MOL0     H11821   5.127   2.039   9.177  0.2665 -0.2455  2.6913
   88MOL0     H11822   4.981   2.103   9.086  2.9910  1.5886 -2.9942
   88MOL0     H11823   5.154   2.248   9.066 -0.0860 -3.1545 -0.2413
   88MOL0     H11824   5.018   2.312   9.145  0.2559  0.1799  0.2327
   88MOL0     H11825   5.124   2.303   9.365 -0.0888  1.7565 -0.7795
   88MOL0     H11826   5.225   2.181   9.318 -1.6200 -0.2520  1.2298
   88MOL0     H11827   5.278   2.470   9.247 -1.0737  0.4351  0.8408
   88MOL0     H11828   5.348   2.330   9.160 -1.7231  1.1263 -0.8166
   88MOL0     H11829   5.370   2.398   9.466  1.0182  1.4422 -0.2203
   88MOL0     H11830   5.433   2.256   9.384 -1.8159 -0.0051  2.2615
   88MOL0     H11831   5.694   2.314   9.337 -1.5574  0.4790  2.3499
   88MOL0     H11832   5.926   2.601   9.296  1.5118  0.8905 -0.6913
   88MOL0     H11833   5.923   2.433   9.247 -0.7772 -0.2853  2.2660
   88MOL0     H11834   5.824   2.670   9.086 -0.5645 -0.8158 -2.8117
   88MOL0     H11835   5.990   2.599   9.083 -0.4252  1.0143 -0.1390
   88MOL0     H11836   5.730   2.443   9.004 -0.0033 -0.3063 -0.1519
   88MOL0     H11837   5.881   2.370   9.035 -1.1210  0.3188  1.5382
   88MOL0     H11838   5.854   2.597   8.835 -0.1691  0.3854  1.3039
   88MOL0     H11839   5.830   2.426   8.797 -0.5402 -1.6088  1.2308
   88MOL0     H11840   6.268   2.437   8.837 -0.5415 -1.1705 -0.2083
   88MOL0     H11841   6.418   2.492   8.676 -0.1673  3.0463 -0.1417
   88MOL0     H11842   6.673   2.765   8.483  0.2964  2.2385 -1.0705
   88MOL0     H11843   6.826   2.864   8.328 -0.6258  1.5683 -3.3840
   88MOL0     H11844   6.980   2.621   7.980 -1.2270 -0.2226 -2.0003
   88MOL0     H11845   6.845   2.710   7.905 -1.5075 -0.0531  0.8543
   88MOL0     H11846   7.002   2.893   7.873  0.5816  0.1881 -0.1910
   88MOL0     H11847   7.130   2.803   7.950  1.3951  0.8910 -1.5725
   88MOL0     H11848   7.120   2.625   7.774 -0.0894 -0.2139  0.3973
   88MOL0     H11849   6.994   2.709   7.695 -0.9513  1.1278  2.7366
   88MOL0     H11850   7.255   2.858   7.754  0.2399 -1.4451 -1.3134
   88MOL0     H11851   7.137   2.898   7.629  3.1911  3.6233  0.7997
   88MOL0     H11852   7.322   2.652   7.639  3.0362  2.7492 -0.8792
   88MOL0     H11853   7.338   2.785   7.532 -1.5444  3.0887  0.8392
   88MOL0     H11854   7.106   2.596   7.512 -0.1018  0.2631  0.3042
   88MOL0     H11855   7.104   2.753   7.445  2.5978  1.1737 -2.0774
   88MOL0     H11856   7.313   2.699   7.316  1.2881 -0.6380  1.0992
   88MOL0     H11857   7.178   2.586   7.285  0.6495  1.3912 -0.9145
   88MOL0     H11858   7.382   2.523   7.482  1.1708 -0.7687 -0.4034
   88MOL0     H11859   7.281   2.399   7.408  0.9611 -1.4953  0.0102
   88MOL0     H11860   6.740   2.569   8.032  2.0726 -0.1770  0.1623
   88MOL0     H11861   6.559   2.469   8.208  1.6371 -1.1846  0.7243
   88MOL0     H11862   6.091   2.577   8.403  1.1267  0.2245  0.5852
   88MOL0     H11863   5.937   2.538   8.612 -0.0223 -2.5839  0.9064
   88MOL0     H11864   4.621   2.024   9.663  0.6087 -1.0896  0.9275
   88MOL0     H11865   4.552   2.013   9.878  0.2948  1.0215  1.6785
   88MOL0     H11866   4.398   2.279  10.274 -0.6882  1.6167  1.1248
   88MOL0     H11867   4.283   2.191  10.485  0.0613 -1.3394  4.6266
   88MOL0     H11868   4.336   1.804  10.685  0.5105  0.9941  1.8062
   88MOL0     H11869   4.278   1.852  10.528 -1.4121 -0.8655  0.3481
   88MOL0     H11870   4.106   1.819  10.663  0.4156 -0.0258 -1.1622
   88MOL0     H11871   4.112   2.001  10.648 -0.8806 -1.4792 -2.6381
   88MOL0     H11872   4.240   1.979  10.882  0.1304  0.6442 -0.2301
   88MOL0     H11873   4.202   1.806  10.872 -0.0117 -0.7227 -1.0570
   88MOL0     H11874   4.019   2.046  10.889 -0.6946 -0.1145  0.3490
   88MOL0     H11875   3.948   1.890  10.837  1.1809  2.2484 -4.0784
   88MOL0     H11876   4.025   1.848  11.265 -0.1438  3.6953  0.5873
   88MOL0     H11877   4.588   1.904  10.542  2.1976 -0.3815 -1.1231
   88MOL0     H11878   4.760   1.883  10.300  0.1330  1.1022 -1.3187
   88MOL0     H11879   4.829   2.051  10.304 -2.0847  1.4711 -0.1796
   88MOL0     H11880   4.802   1.962  10.452 -2.6837 -0.4323  1.4971
   89MOL0     O11881   4.837   4.946   1.189  0.0294 -0.3894 -1.2118
   89MOL0     C11882   4.862   4.825   1.200 -0.0613  0.3074 -0.1206
   89MOL0     O11883   4.952   4.780   1.280 -0.2419  0.1697 -0.1666
   89MOL0     C11884   5.038   4.845   1.367 -0.4711 -0.3104 -0.7233
   89MOL0     C11885   5.009   4.981   1.409 -1.1232  0.3358  0.4170
   89MOL0     C11886   5.087   5.040   1.507  0.1050 -0.8184  1.5989
   89MOL0     C11887   5.192   4.978   1.565  0.1868  0.1221 -0.0146
   89MOL0     O11888   5.256   5.056   1.659 -0.0763  0.4050 -0.6078
   89MOL0     C11889   5.346   4.979   1.745  0.2909  0.3592  0.1457
   89MOL0     C11890   5.428   5.078   1.823  0.2465 -0.1542 -0.3302
   89MOL0     C11891   5.342   5.118   1.947  0.0598  0.3422  0.0065
   89MOL0     C11892   5.416   5.213   2.039  0.5915 -0.3708  0.0818
   89MOL0     C11893   5.326   5.328   2.093  0.0467 -0.2955  0.0341
   89MOL0     C11894   5.207   5.273   2.175  0.4271 -0.5832  0.4922
   89MOL0     C11895   5.145   5.379   2.263  0.6008 -0.1128  0.9074
   89MOL0     C11896   5.223   5.417   2.385 -0.6276  0.4864 -0.2136
   89MOL0     N11897   5.167   5.506   2.491 -0.4712 -1.4067  0.4288
   89MOL0     C11898   5.126   5.640   2.487 -0.3111 -0.4777  0.4258
   89MOL0     C11899   5.112   5.678   2.608  0.5018  0.0141 -0.3439
   89MOL0     C11900   5.088   5.819   2.658 -0.1677 -0.8919 -0.1992
   89MOL0     C11901   5.221   5.894   2.675  0.6344 -0.6833 -0.1740
   89MOL0     C11902   5.277   5.943   2.549 -0.6430 -0.7050  0.6690
   89MOL0     C11903   5.402   6.045   2.573  0.2687 -1.2696  0.0170
   89MOL0     O11904   5.520   5.970   2.617  0.7229 -0.4088 -0.5293
   89MOL0     C11905   5.645   6.021   2.621 -0.3947 -0.6252  0.3435
   89MOL0     C11906   5.679   6.124   2.534  0.0451  0.0238  0.1424
   89MOL0     C11907   5.804   6.189   2.538  0.3275  0.1887  0.1053
   89MOL0     C11908   5.901   6.127   2.620  1.2045  0.0050  0.5356
   89MOL0     C11909   6.038   6.175   2.616 -0.5089 -0.1022  0.9569
   89MOL0     O11910   6.128   6.089   2.677 -0.4792  0.2075  0.4331
   89MOL0     C11911   6.253   6.137   2.700  0.8263  0.6637 -0.8331
   89MOL0     C11912   6.326   6.179   2.592 -1.0364 -0.0125  0.1818
   89MOL0     C11913   6.464   6.191   2.610 -0.5232 -0.4726  0.2860
   89MOL0     C11914   6.524   6.164   2.737  0.1431  0.2945 -0.1739
   89MOL0     O11915   6.656   6.168   2.762  0.4899 -0.5178  0.1599
   89MOL0     C11916   6.758   6.209   2.669 -0.2669 -0.2749  0.1842
   89MOL0     C11917   6.894   6.188   2.745  0.4901  0.5228 -0.3677
   89MOL0     C11918   6.943   6.328   2.787  0.3512 -0.0040 -0.0062
   89MOL0     C11919   7.079   6.316   2.859 -0.2204 -1.0449 -0.6551
   89MOL0     C11920   7.136   6.459   2.885  0.1741  0.1536  0.4002
   89MOL0     C11921   7.279   6.472   2.921 -0.7153 -0.0829 -0.1055
   89MOL0     C11922   7.368   6.412   2.804  0.0607  0.3349 -0.0113
   89MOL0     C11923   7.493   6.348   2.863  0.7981  0.0814  0.2345
   89MOL0    Cl11924   7.594   6.283   2.730  0.1730 -0.2600  0.0794
   89MOL0     C11925   6.448   6.121   2.839 -1.1724  0.2266 -0.6843
   89MOL0     C11926   6.311   6.111   2.827  0.4212  0.7455 -0.1217
   89MOL0     O11927   6.062   6.290   2.585  0.3439  0.6123 -0.4496
   89MOL0     C11928   5.870   6.007   2.693 -0.5855 -0.9214 -0.6336
   89MOL0     C11929   5.741   5.969   2.704  0.6775  0.0104 -0.7714
   89MOL0     N11930   5.116   5.561   2.689 -0.5341  0.0964  0.3194
   89MOL0     N11931   5.145   5.463   2.617  0.3498  0.0236  0.3406
   89MOL0     C11932   5.220   4.852   1.522  0.2396  0.3368  0.7595
   89MOL0     C11933   5.144   4.778   1.429 -0.2516 -0.0198 -0.5250
   89MOL0     C11934   4.800   4.726   1.107 -1.0914  0.1181 -0.3138
   89MOL0     C11935   4.871   4.602   1.090 -0.1815 -0.5035  0.0798
   89MOL0     C11936   4.805   4.505   1.013  0.1650 -0.2702 -0.9085
   89MOL0     C11937   4.680   4.515   0.947  0.5824  0.3022  0.0578
   89MOL0     O11938   4.630   4.403   0.880  0.1936  0.5283 -0.0662
   89MOL0     C11939   4.517   4.422   0.788 -0.7235  0.0705 -0.0504
   89MOL0     C11940   4.485   4.290   0.719  0.6860 -0.3020 -0.2354
   89MOL0     C11941   4.604   4.247   0.636  0.4154 -0.1891  0.6962
   89MOL0     C11942   4.582   4.116   0.547  1.0512 -0.2945 -1.0699
   89MOL0     C11943   4.542   4.150   0.412 -0.4217  0.1888 -0.4659
   89MOL0     C11944   4.511   4.194   0.305 -0.5857  0.6577  0.5059
   89MOL0     C11945   4.619   4.640   0.964 -0.7250 -0.3555  1.5133
   89MOL0     C11946   4.674   4.749   1.040  0.7552 -0.0193  1.1215
   89MOL0     C11947   4.604   4.885   1.049 -0.3839  0.2131 -0.3231
   89MOL0     H11948   4.928   5.042   1.370 -1.0690  0.1647  0.0328
   89MOL0     H11949   5.075   5.145   1.529  2.0029  0.8275 -3.5765
   89MOL0     H11950   5.273   4.913   1.792 -0.1409 -0.8969 -2.1059
   89MOL0     H11951   5.413   4.923   1.679 -1.3018  0.8333 -1.9861
   89MOL0     H11952   5.469   5.164   1.769  0.1897  0.8294  1.1269
   89MOL0     H11953   5.517   5.025   1.859 -0.9578 -0.8571  1.8083
   89MOL0     H11954   5.306   5.040   2.015 -0.2595  1.5217  1.2330
   89MOL0     H11955   5.260   5.172   1.899  3.1570  3.7261 -2.0478
   89MOL0     H11956   5.453   5.165   2.130 -0.9079 -1.1541  0.3081
   89MOL0     H11957   5.510   5.251   1.998  2.3747 -3.0923  1.3375
   89MOL0     H11958   5.395   5.394   2.146  0.1590  0.4746 -1.0532
   89MOL0     H11959   5.283   5.380   2.006 -1.5125 -2.3323 -0.4867
   89MOL0     H11960   5.129   5.246   2.104  1.2879 -2.2329  0.1042
   89MOL0     H11961   5.232   5.186   2.238  1.0541 -1.7008 -1.2432
   89MOL0     H11962   5.051   5.343   2.307  0.2442  0.6194  0.7585
   89MOL0     H11963   5.119   5.462   2.196 -1.3449 -0.7875  0.7412
   89MOL0     H11964   5.267   5.334   2.439 -0.4976  1.7900  1.7817
   89MOL0     H11965   5.311   5.473   2.351  0.6169 -1.4085 -0.2406
   89MOL0     H11966   5.115   5.709   2.405 -2.0529  0.2002  1.1921
   89MOL0     H11967   5.021   5.875   2.592 -0.2690  0.8255  1.2947
   89MOL0     H11968   5.029   5.823   2.750 -0.3773 -1.5469 -0.2994
   89MOL0     H11969   5.197   5.980   2.737 -1.7433 -0.4849 -1.2688
   89MOL0     H11970   5.285   5.820   2.725 -0.4230 -3.2713 -2.3726
   89MOL0     H11971   5.197   5.993   2.494  0.9328  2.3052  0.9457
   89MOL0     H11972   5.322   5.865   2.486  0.4442  1.1482 -0.9340
   89MOL0     H11973   5.377   6.120   2.649  1.7525 -1.0799  0.3382
   89MOL0     H11974   5.423   6.096   2.479 -0.2140  0.3779  0.7662
   89MOL0     H11975   5.609   6.161   2.460 -0.7381  1.1890  1.4214
   89MOL0     H11976   5.821   6.271   2.469  0.9883 -0.9482 -1.1328
   89MOL0     H11977   6.301   6.209   2.491  1.8225  1.9228 -0.0445
   89MOL0     H11978   6.525   6.206   2.522 -1.9134 -2.6712 -1.1442
   89MOL0     H11979   6.747   6.157   2.573 -2.1629 -0.7600  0.6422
   89MOL0     H11980   6.742   6.315   2.645 -1.9397 -0.4495  0.4289
   89MOL0     H11981   6.874   6.119   2.828  1.2834 -0.5588 -1.0446
   89MOL0     H11982   6.956   6.129   2.677  0.2578 -0.4079  0.2120
   89MOL0     H11983   6.956   6.383   2.693  0.1681 -1.4845 -0.9297
   89MOL0     H11984   6.865   6.373   2.849  1.2497  0.4339  0.8329
   89MOL0     H11985   7.149   6.250   2.807  1.2673 -1.7147  2.0339
   89MOL0     H11986   7.061   6.267   2.955 -1.0164 -2.1710 -1.3512
   89MOL0     H11987   7.082   6.505   2.969  2.9336  3.0376  0.8170
   89MOL0     H11988   7.109   6.515   2.795 -3.6155 -1.3061  0.4544
   89MOL0     H11989   7.305   6.574   2.953  0.6345  0.0493 -1.4898
   89MOL0     H11990   7.295   6.406   3.006 -2.2868 -0.1240  0.1929
   89MOL0     H11991   7.394   6.493   2.736  0.1727  1.0633  0.8734
   89MOL0     H11992   7.313   6.340   2.743 -2.3332  1.5745  0.5602
   89MOL0     H11993   7.554   6.429   2.904  0.8695 -0.4010  1.1269
   89MOL0     H11994   7.481   6.264   2.932  0.0647 -1.7736 -2.0431
   89MOL0     H11995   6.502   6.116   2.933  0.1614  0.4708 -1.4071
   89MOL0     H11996   6.250   6.085   2.913  1.4762  1.9869  1.0440
   89MOL0     H11997   5.944   5.963   2.759  2.0697  1.3685 -1.8869
   89MOL0     H11998   5.702   5.891   2.769  0.7720  0.7988  0.2415
   89MOL0     H11999   5.310   4.795   1.545 -0.7851 -2.4350 -1.5661
   89MOL0     H12000   5.170   4.674   1.410 -0.5361  0.2113 -2.3556
   89MOL0     H12001   4.969   4.591   1.136  0.1355 -0.1247 -0.4847
   89MOL0     H12002   4.855   4.409   1.004 -0.0045 -0.6110  1.1174
   89MOL0     H12003   4.545   4.497   0.713  2.6011  0.7632  1.6611
   89MOL0     H12004   4.426   4.457   0.838 -1.1570  0.9620 -1.4071
   89MOL0     H12005   4.398   4.310   0.657  1.4401 -0.2366 -1.3062
   89MOL0     H12006   4.457   4.210   0.788  0.2712 -0.4956 -0.6237
   89MOL0     H12007   4.682   4.224   0.709 -0.5399  0.3227  1.9209
   89MOL0     H12008   4.644   4.324   0.570  2.1279 -0.8389  0.9395
   89MOL0     H12009   4.673   4.057   0.535  0.8583 -1.0542  0.9287
   89MOL0     H12010   4.508   4.057   0.601  1.0424  0.3624 -0.3428
   89MOL0     H12011   4.480   4.220   0.206  2.3032 -1.1705 -0.9969
   89MOL0     H12012   4.523   4.654   0.915  0.0853 -1.2046 -0.3963
   89MOL0     H12013   4.507   4.877   1.000 -0.5130  1.9446 -0.4233
   89MOL0     H12014   4.590   4.910   1.154  1.3689 -3.2113  0.8713
   89MOL0     H12015   4.660   4.962   0.994 -0.1900 -1.9445 -3.4164
   90MOL0     O12016   1.391   7.589   7.310  0.3672  0.4012 -0.0178
   90MOL0     C12017   1.412   7.635   7.195  0.0689 -0.1288 -0.9492
   90MOL0     O12018   1.533   7.648   7.134  0.6179 -0.0920  0.3089
   90MOL0     C12019   1.628   7.549   7.160 -0.3381 -0.0058 -0.5551
   90MOL0     C12020   1.754   7.578   7.124  0.2789  0.6032  0.4122
   90MOL0     C12021   1.855   7.487   7.131 -1.6164  0.4484 -0.5257
   90MOL0     C12022   1.832   7.363   7.196  0.3899 -0.5756  0.1636
   90MOL0     O12023   1.927   7.266   7.215  0.4043 -0.2744  1.3066
   90MOL0     C12024   2.033   7.257   7.119 -0.2426 -0.6298  1.0721
   90MOL0     C12025   2.086   7.117   7.127  0.7034 -0.9122 -0.4658
   90MOL0     C12026   2.179   7.101   7.013 -0.9290 -0.4776  0.4357
   90MOL0     C12027   2.290   7.204   7.011  0.4935  0.0458  0.0309
   90MOL0     C12028   2.397   7.163   6.906  0.0172  0.2962 -0.1413
   90MOL0     C12029   2.510   7.272   6.888 -0.8544  0.5887 -1.0664
   90MOL0     C12030   2.630   7.206   6.828  0.9628  0.6358 -0.2933
   90MOL0     C12031   2.738   7.307   6.810 -0.5467 -0.1185  0.5288
   90MOL0     N12032   2.862   7.245   6.765 -0.3849  0.4863  0.4093
   90MOL0     C12033   2.904   7.246   6.637  0.6058 -0.1724 -0.3815
   90MOL0     C12034   3.019   7.190   6.631 -0.8969 -0.9364  0.0277
   90MOL0     C12035   3.108   7.213   6.515 -0.0994 -0.2501 -0.5817
   90MOL0     C12036   3.211   7.324   6.547  1.2509 -0.0316  0.3023
   90MOL0     C12037   3.326   7.311   6.450 -0.2200  0.1052 -0.3475
   90MOL0     C12038   3.437   7.202   6.483  0.4073  0.5542 -0.4647
   90MOL0     O12039   3.491   7.238   6.611  0.2470 -0.6431  0.4903
   90MOL0     C12040   3.613   7.307   6.592 -0.6780  0.9871 -0.7447
   90MOL0     C12041   3.617   7.444   6.615 -0.0183  0.2641  0.1665
   90MOL0     C12042   3.743   7.512   6.618 -0.5163 -0.1406  0.1591
   90MOL0     C12043   3.859   7.447   6.581  0.1773 -0.0557 -0.0402
   90MOL0     C12044   3.980   7.526   6.576  0.0967  0.4097 -0.5865
   90MOL0     O12045   4.017   7.581   6.693  0.3690 -0.1169 -0.2952
   90MOL0     C12046   4.148   7.605   6.723 -0.3500  0.3136 -0.3252
   90MOL0     C12047   4.232   7.685   6.643  1.0133 -1.0194  0.4660
   90MOL0     C12048   4.361   7.717   6.684 -0.5435  0.5592  0.7330
   90MOL0     C12049   4.413   7.676   6.810 -0.0676 -0.3836  0.1872
   90MOL0     O12050   4.536   7.731   6.841  0.3296 -0.4675 -0.0825
   90MOL0     C12051   4.604   7.689   6.961  0.3640 -0.2829  0.1599
   90MOL0     C12052   4.749   7.755   6.966 -0.0051 -0.6769 -0.2908
   90MOL0     C12053   4.823   7.719   7.097  0.4072  0.2868 -0.7420
   90MOL0     C12054   4.967   7.762   7.081 -0.1335  0.3153 -0.3229
   90MOL0     C12055   5.063   7.712   7.195  0.4913 -0.1849 -0.2800
   90MOL0     C12056   5.205   7.773   7.175 -1.1419  0.3670 -0.2465
   90MOL0     C12057   5.305   7.748   7.295 -0.1392 -0.3676  0.2712
   90MOL0     C12058   5.329   7.602   7.319 -0.8475  0.4156  0.5138
   90MOL0    Cl12059   5.453   7.589   7.440  0.1667  0.2678  0.4860
   90MOL0     C12060   4.333   7.598   6.894 -0.4086 -0.2040  0.2773
   90MOL0     C12061   4.200   7.563   6.850  0.1391  0.1242 -0.2653
   90MOL0     O12062   4.040   7.519   6.476 -0.0301  0.4580 -0.1911
   90MOL0     C12063   3.854   7.315   6.539  0.2603  0.0209  0.5826
   90MOL0     C12064   3.734   7.244   6.544  0.0102 -0.2967 -0.5480
   90MOL0     N12065   3.059   7.155   6.767 -0.0512  0.4836 -0.1478
   90MOL0     N12066   2.952   7.184   6.846 -0.2570  0.4778 -0.2464
   90MOL0     C12067   1.702   7.334   7.233 -0.3370 -0.8022  0.7053
   90MOL0     C12068   1.600   7.425   7.204 -0.0498  0.7301  0.1776
   90MOL0     C12069   1.289   7.705   7.139  0.5440  0.0406  0.9042
   90MOL0     C12070   1.169   7.684   7.200 -0.8172  0.4919 -0.2714
   90MOL0     C12071   1.055   7.765   7.166 -0.8251 -0.0627  0.0575
   90MOL0     C12072   1.058   7.862   7.068 -0.3052 -0.1460  0.4269
   90MOL0     O12073   0.956   7.948   7.040  0.5875  0.2472 -0.1922
   90MOL0     C12074   0.834   7.905   7.101  0.2092 -0.4832  0.0975
   90MOL0     C12075   0.727   8.016   7.087  0.7315  0.8006  0.3508
   90MOL0     C12076   0.691   8.032   6.938  0.0273 -0.3193 -0.3325
   90MOL0     C12077   0.567   8.112   6.924  0.1210  0.4695 -1.0616
   90MOL0     C12078   0.575   8.249   6.964 -0.6954 -0.1711 -0.7190
   90MOL0     C12079   0.588   8.370   6.988 -0.1887  0.0891  0.7800
   90MOL0     C12080   1.180   7.883   6.997 -0.4815 -0.2660 -0.8326
   90MOL0     C12081   1.296   7.807   7.035  0.1453 -0.2353 -0.1790
   90MOL0     C12082   1.426   7.844   6.959 -1.0945  0.0565 -0.3079
   90MOL0     H12083   1.779   7.679   7.093 -2.3264  1.9987  2.4257
   90MOL0     H12084   1.952   7.517   7.092 -0.7886 -0.0641  1.0590
   90MOL0     H12085   1.995   7.271   7.017  0.0953 -2.1790  0.7092
   90MOL0     H12086   2.107   7.333   7.146  0.4551  0.6463 -3.5267
   90MOL0     H12087   2.004   7.045   7.116 -0.0392 -0.5412  1.9419
   90MOL0     H12088   2.133   7.114   7.226  0.0295  0.9225 -0.0404
   90MOL0     H12089   2.121   7.112   6.921 -3.0487  0.7357  1.8533
   90MOL0     H12090   2.232   7.006   7.023  1.6157  0.8772  0.7599
   90MOL0     H12091   2.263   7.307   6.988  2.9749  0.4732 -1.2964
   90MOL0     H12092   2.336   7.204   7.110 -0.9371  1.3599  0.7528
   90MOL0     H12093   2.440   7.067   6.935 -0.8854 -0.5048 -1.3429
   90MOL0     H12094   2.350   7.141   6.810  2.0800 -0.5499 -1.0212
   90MOL0     H12095   2.461   7.347   6.825 -0.8553  2.2673  0.8351
   90MOL0     H12096   2.527   7.310   6.989 -0.3730 -3.5445  0.6226
   90MOL0     H12097   2.615   7.147   6.737 -0.3577 -1.2171  1.0471
   90MOL0     H12098   2.668   7.133   6.900 -1.1329  0.5428  0.7979
   90MOL0     H12099   2.710   7.392   6.748  5.3220  1.6875 -0.2022
   90MOL0     H12100   2.747   7.361   6.905 -0.4299  0.3264  0.2672
   90MOL0     H12101   2.856   7.296   6.553 -1.0041 -2.4889 -0.9448
   90MOL0     H12102   3.151   7.112   6.510 -1.1800 -0.7393 -0.3922
   90MOL0     H12103   3.060   7.226   6.417  0.0786  0.9384 -0.5167
   90MOL0     H12104   3.173   7.425   6.526  2.8840  0.6621  0.4930
   90MOL0     H12105   3.240   7.309   6.651 -1.2236 -0.3194  1.0035
   90MOL0     H12106   3.378   7.407   6.448  1.5770 -0.7808  0.4789
   90MOL0     H12107   3.289   7.301   6.347 -0.6251 -0.3536 -0.1625
   90MOL0     H12108   3.510   7.198   6.402  1.7254 -0.9289  0.7090
   90MOL0     H12109   3.394   7.102   6.497 -0.2183  0.7853 -0.7161
   90MOL0     H12110   3.531   7.501   6.650  0.4125  0.6533  0.5921
   90MOL0     H12111   3.749   7.615   6.652 -0.3381  0.1969 -0.8874
   90MOL0     H12112   4.185   7.702   6.546  1.1080 -1.4670  0.3360
   90MOL0     H12113   4.422   7.787   6.628  0.2613 -0.4714  0.2927
   90MOL0     H12114   4.557   7.720   7.055  2.0215 -0.1544  0.9818
   90MOL0     H12115   4.619   7.582   6.944 -3.1614 -1.0013  0.8934
   90MOL0     H12116   4.805   7.726   6.876 -1.9431 -2.6285 -0.9521
   90MOL0     H12117   4.723   7.862   6.969  1.3847 -0.3362  2.0144
   90MOL0     H12118   4.777   7.759   7.188  0.6528 -4.3300  1.7229
   90MOL0     H12119   4.820   7.610   7.103 -0.4965  0.3629  0.5735
   90MOL0     H12120   4.986   7.870   7.083 -0.3781  0.3537  0.1813
   90MOL0     H12121   5.004   7.715   6.990  2.4329 -2.1177  1.7623
   90MOL0     H12122   5.063   7.603   7.198  0.5168 -0.2827 -2.1954
   90MOL0     H12123   5.017   7.744   7.289  0.5140  0.4611 -0.4804
   90MOL0     H12124   5.240   7.720   7.086 -0.2157  1.6955 -0.7071
   90MOL0     H12125   5.193   7.881   7.166  0.3737  0.7032  1.1772
   90MOL0     H12126   5.276   7.802   7.386  2.0250 -1.5277  1.7279
   90MOL0     H12127   5.401   7.787   7.261  0.5890 -0.9833  1.5628
   90MOL0     H12128   5.239   7.547   7.350  0.2545 -2.2280 -0.6590
   90MOL0     H12129   5.371   7.549   7.233  0.1623  1.2214  0.4879
   90MOL0     H12130   4.378   7.558   6.984  4.5131 -1.5212 -2.3852
   90MOL0     H12131   4.139   7.502   6.916 -1.5387  1.7272 -0.2627
   90MOL0     H12132   3.942   7.261   6.507 -0.4536 -2.7764  2.8727
   90MOL0     H12133   3.743   7.137   6.527 -0.4126 -0.2725 -0.9703
   90MOL0     H12134   1.677   7.235   7.270 -2.7285 -1.6897 -2.8487
   90MOL0     H12135   1.494   7.414   7.227 -0.4373  2.7738 -0.4090
   90MOL0     H12136   1.155   7.607   7.275 -1.9386 -0.8241 -1.7464
   90MOL0     H12137   0.963   7.750   7.222 -0.3777 -0.6974  0.6359
   90MOL0     H12138   0.854   7.900   7.209 -0.1940 -4.4149  0.1230
   90MOL0     H12139   0.794   7.810   7.064 -2.0865 -0.3945  2.1323
   90MOL0     H12140   0.778   8.105   7.127  2.5964 -0.7275  1.5516
   90MOL0     H12141   0.635   8.003   7.144  1.8280  0.1216  2.0625
   90MOL0     H12142   0.698   7.933   6.890 -0.4748 -2.0744  2.8914
   90MOL0     H12143   0.769   8.087   6.886  1.3989 -1.2605  0.6511
   90MOL0     H12144   0.538   8.120   6.819  0.2403 -1.2648 -1.2561
   90MOL0     H12145   0.491   8.064   6.986  2.7664  0.0280  2.1338
   90MOL0     H12146   0.599   8.469   7.025  2.1207 -0.9641  3.2126
   90MOL0     H12147   1.193   7.951   6.913 -0.4201  1.9819  0.9291
   90MOL0     H12148   1.503   7.873   7.030 -1.3500 -1.2160  0.5243
   90MOL0     H12149   1.467   7.758   6.905  1.9527  2.2984 -1.8694
   90MOL0     H12150   1.413   7.928   6.890  4.2683  2.7792  1.4657
   91MOL0     O12151  10.947   0.107   1.719  0.0459 -0.4094 -0.1920
   91MOL0     C12152  10.835   0.158   1.738  0.5972  0.7113  0.0300
   91MOL0     O12153  10.798   0.292   1.741  1.1064 -0.6429  1.0095
   91MOL0     C12154  10.897   0.382   1.729  0.9918 -0.6216 -0.1043
   91MOL0     C12155  10.979   0.412   1.841 -0.3469 -0.1041  0.2598
   91MOL0     C12156  11.070   0.515   1.823  0.0169  0.2570 -0.2261
   91MOL0     C12157  11.083   0.585   1.706  0.1709 -0.6417  0.6572
   91MOL0     O12158  11.179   0.690   1.717 -0.1720  0.5687  0.5807
   91MOL0     C12159  11.170   0.783   1.606 -0.7096  0.5438 -0.4478
   91MOL0     C12160  11.284   0.887   1.613 -0.5141 -0.2076  0.6229
   91MOL0     C12161  11.279   0.980   1.742  0.4438  0.7922  0.2208
   91MOL0     C12162  11.388   1.086   1.736  0.2873  0.0445 -0.1183
   91MOL0     C12163  11.524   1.036   1.756  0.1588 -0.8746  0.3358
   91MOL0     C12164  11.635   1.143   1.741  0.0517  0.1000  0.7016
   91MOL0     C12165  11.777   1.084   1.730 -1.0378 -0.2279 -0.3447
   91MOL0     C12166  11.878   1.191   1.692  0.0101 -0.4872 -0.9189
   91MOL0     N12167  12.022   1.152   1.663 -0.0858 -0.3534  0.3436
   91MOL0     C12168  12.096   1.058   1.719 -0.0086  0.4706  0.5576
   91MOL0     C12169  12.219   1.073   1.655 -0.3939  0.2415 -0.5182
   91MOL0     C12170  12.335   0.987   1.686 -0.5732  0.1841  0.0529
   91MOL0     C12171  12.452   1.075   1.748 -0.4319  0.9539 -0.4638
   91MOL0     C12172  12.555   0.971   1.798 -0.4766  0.2942  0.7294
   91MOL0     C12173  12.688   1.021   1.868 -0.9053 -0.2434  1.1430
   91MOL0     O12174  12.773   0.907   1.881  0.2394  0.3192  0.1300
   91MOL0     C12175  12.899   0.914   1.940  0.9286  0.1871 -0.4054
   91MOL0     C12176  12.955   0.792   1.987  0.4124  0.1478  0.4255
   91MOL0     C12177  13.089   0.788   2.032 -0.2825  0.2354 -0.1940
   91MOL0     C12178  13.170   0.905   2.027  1.7815  0.0652 -0.1030
   91MOL0     C12179  13.314   0.896   2.058 -0.6665 -0.2221 -0.3683
   91MOL0     O12180  13.388   1.007   2.078 -0.0161  0.2003  1.2984
   91MOL0     C12181  13.526   0.982   2.106  0.0854 -0.0418  0.1993
   91MOL0     C12182  13.561   0.903   2.223 -0.5460 -0.7186 -0.7890
   91MOL0     C12183  13.695   0.872   2.245  0.0988 -0.3508 -0.0918
   91MOL0     C12184  13.793   0.907   2.147  0.0407 -0.0624 -0.1617
   91MOL0     O12185  13.923   0.866   2.162 -0.0489 -0.7597 -0.3356
   91MOL0     C12186  13.958   0.751   2.239  0.6202  0.0480 -0.0626
   91MOL0     C12187  14.102   0.733   2.225 -0.0509 -0.1406  0.6208
   91MOL0     C12188  14.152   0.713   2.089  0.6401  0.1396  0.9226
   91MOL0     C12189  14.298   0.655   2.084  0.2534  0.1178  0.2922
   91MOL0     C12190  14.406   0.738   2.142  0.4770  0.1859  0.1490
   91MOL0     C12191  14.518   0.647   2.186  0.0033 -0.7969 -0.6582
   91MOL0     C12192  14.643   0.636   2.104  0.0489  0.3240  0.3240
   91MOL0     C12193  14.740   0.534   2.163 -0.4841  0.5025 -0.8246
   91MOL0    Cl12194  14.816   0.618   2.302 -0.4602  0.4305 -0.2667
   91MOL0     C12195  13.757   0.982   2.035 -0.2703 -0.3097 -0.4262
   91MOL0     C12196  13.622   1.010   2.012  0.2049  0.1209  0.0184
   91MOL0     O12197  13.356   0.778   2.038  0.4607 -0.4807  0.7036
   91MOL0     C12198  13.104   1.026   2.005  0.6972 -0.1352  0.2473
   91MOL0     C12199  12.973   1.035   1.966  0.8131 -0.2385 -0.0416
   91MOL0     N12200  12.208   1.175   1.567  0.1178  1.0677  0.5319
   91MOL0     N12201  12.090   1.220   1.569  0.3873  0.3236  0.1050
   91MOL0     C12202  10.997   0.556   1.595  0.0143 -0.8419  0.1683
   91MOL0     C12203  10.911   0.452   1.605  0.0578  0.5852 -0.0093
   91MOL0     C12204  10.723   0.060   1.763 -0.1158 -0.2171 -0.2421
   91MOL0     C12205  10.673   0.048   1.897 -0.4275 -0.2017  0.5868
   91MOL0     C12206  10.570  -0.043   1.930 -0.1761  0.5194 -0.3977
   91MOL0     C12207  10.504  -0.117   1.827  1.0353 -0.4870  0.6342
   91MOL0     O12208  10.395  -0.204   1.838 -0.3768 -0.6999  1.0820
   91MOL0     C12209  10.407  -0.291   1.951  0.0957 -0.0053 -0.2413
   91MOL0     C12210  10.277  -0.372   1.966  1.1933 -0.2906  0.0192
   91MOL0     C12211  10.257  -0.441   1.828  0.5094 -0.0291  0.0448
   91MOL0     C12212  10.121  -0.518   1.837 -1.0028 -0.5825  0.0044
   91MOL0     C12213  10.086  -0.587   1.960 -0.9245  0.7679 -0.2713
   91MOL0     C12214  10.057  -0.663   2.053 -0.5375 -0.0906  0.8886
   91MOL0     C12215  10.554  -0.096   1.699  0.0318  0.2482  0.3685
   91MOL0     C12216  10.657  -0.005   1.666  0.3275 -0.5333 -0.9003
   91MOL0     C12217  10.679   0.022   1.517 -0.3650 -0.4978 -0.5704
   91MOL0     H12218  10.986   0.362   1.937  2.1599 -0.4378 -0.0404
   91MOL0     H12219  11.134   0.551   1.903  1.6823 -0.8692 -0.9912
   91MOL0     H12220  11.182   0.727   1.513 -0.9950 -1.0502  0.4342
   91MOL0     H12221  11.072   0.829   1.592 -1.3976 -1.1831 -1.5751
   91MOL0     H12222  11.288   0.950   1.524  1.7181 -1.9587 -0.6147
   91MOL0     H12223  11.382   0.842   1.591  1.0755  3.3142 -0.1644
   91MOL0     H12224  11.276   0.923   1.835 -1.3532 -0.7250 -0.7049
   91MOL0     H12225  11.182   1.031   1.747  0.0510  0.1028 -0.3076
   91MOL0     H12226  11.383   1.125   1.634 -1.9996 -0.0606 -0.0900
   91MOL0     H12227  11.376   1.159   1.816  0.3762 -2.6099  2.5035
   91MOL0     H12228  11.543   0.983   1.850  1.4884 -2.1004 -0.5606
   91MOL0     H12229  11.528   0.965   1.672 -0.7571 -0.9005  0.3119
   91MOL0     H12230  11.628   1.190   1.642  0.0429 -2.1528 -0.4318
   91MOL0     H12231  11.624   1.211   1.825 -0.9084  1.5920 -0.5722
   91MOL0     H12232  11.771   1.000   1.661 -1.5207 -1.9603  1.6927
   91MOL0     H12233  11.811   1.036   1.822  2.8296 -1.2252 -2.0878
   91MOL0     H12234  11.840   1.244   1.604 -0.6053  4.3087  1.8781
   91MOL0     H12235  11.875   1.263   1.775 -2.0889 -0.0685 -1.3176
   91MOL0     H12236  12.070   0.996   1.804 -0.2166  0.9984  0.8807
   91MOL0     H12237  12.311   0.899   1.747 -2.0342  0.4828 -0.0340
   91MOL0     H12238  12.370   0.943   1.593 -2.2639 -1.4105  0.1053
   91MOL0     H12239  12.492   1.150   1.678  0.6411  1.6486  0.8508
   91MOL0     H12240  12.407   1.126   1.833  1.0697  0.6572  0.5344
   91MOL0     H12241  12.576   0.898   1.719  0.2935  2.2796 -1.0082
   91MOL0     H12242  12.509   0.924   1.885 -0.9723 -0.3930  0.1093
   91MOL0     H12243  12.673   1.057   1.971  0.2648 -0.3860  1.3712
   91MOL0     H12244  12.732   1.097   1.802 -0.6941  0.8309  2.4675
   91MOL0     H12245  12.898   0.704   1.959 -2.1103  1.5953  0.7044
   91MOL0     H12246  13.117   0.690   2.071 -3.4015  0.2522  2.5703
   91MOL0     H12247  13.486   0.869   2.295  0.3429 -2.0786 -0.4721
   91MOL0     H12248  13.716   0.804   2.327 -2.0906  1.2798  1.9890
   91MOL0     H12249  13.938   0.753   2.347  1.4527 -4.1412  0.3498
   91MOL0     H12250  13.897   0.670   2.200 -0.7852  0.3965  1.3049
   91MOL0     H12251  14.140   0.820   2.280 -0.0504 -0.5217  1.2344
   91MOL0     H12252  14.121   0.647   2.290  1.7566 -0.2481  0.0086
   91MOL0     H12253  14.093   0.648   2.023  3.2426 -0.3778 -1.0415
   91MOL0     H12254  14.147   0.808   2.036 -0.9437 -2.0934 -3.5081
   91MOL0     H12255  14.331   0.627   1.983 -1.2883 -2.2670  0.3661
   91MOL0     H12256  14.285   0.568   2.149  0.1203  1.2244  1.8010
   91MOL0     H12257  14.374   0.789   2.233 -0.0517 -2.1202  1.3065
   91MOL0     H12258  14.437   0.818   2.074 -0.1268  1.7013  1.5909
   91MOL0     H12259  14.555   0.684   2.282 -2.2480 -1.6971  0.6164
   91MOL0     H12260  14.487   0.544   2.205  3.1324 -1.3137  2.7327
   91MOL0     H12261  14.685   0.737   2.102 -1.7721  1.1293  0.6915
   91MOL0     H12262  14.618   0.603   2.003  0.0623 -1.5092  0.8762
   91MOL0     H12263  14.680   0.450   2.198 -2.2854  2.2909  0.6029
   91MOL0     H12264  14.813   0.505   2.087  0.5715  1.4389 -0.1953
   91MOL0     H12265  13.824   1.012   1.954  2.4575 -2.2408  0.9739
   91MOL0     H12266  13.586   1.070   1.929 -2.3526 -1.2118  0.0700
   91MOL0     H12267  13.156   1.121   2.010 -0.4549  0.4835  0.9371
   91MOL0     H12268  12.913   1.125   1.960 -3.4458 -2.5007  2.8342
   91MOL0     H12269  11.008   0.613   1.504  2.4567  1.6020  1.8413
   91MOL0     H12270  10.843   0.419   1.527 -0.9992 -1.0054  1.5139
   91MOL0     H12271  10.712   0.108   1.979 -0.7667 -1.2760  1.5525
   91MOL0     H12272  10.534  -0.044   2.033 -4.0303  1.3092 -1.5570
   91MOL0     H12273  10.433  -0.243   2.046 -0.6031  0.2514 -0.1748
   91MOL0     H12274  10.488  -0.363   1.943  0.6446  0.4055  1.3173
   91MOL0     H12275  10.191  -0.316   2.004  0.1706 -1.6337 -0.2555
   91MOL0     H12276  10.300  -0.451   2.037  0.6156 -0.6268 -0.1674
   91MOL0     H12277  10.338  -0.509   1.798 -0.0936  0.4178 -2.8416
   91MOL0     H12278  10.246  -0.368   1.747  0.7424  2.1464  1.8837
   91MOL0     H12279  10.035  -0.460   1.802  0.5261  1.4294 -0.6758
   91MOL0     H12280  10.127  -0.591   1.756  1.3257 -0.0138 -0.4067
   91MOL0     H12281  10.044  -0.709   2.149 -1.5704 -0.3124  0.6545
   91MOL0     H12282  10.508  -0.150   1.617  1.5907  1.6888 -1.5262
   91MOL0     H12283  10.785   0.035   1.495 -0.4569  4.8499  0.7267
   91MOL0     H12284  10.641  -0.056   1.451  0.5866 -1.3992 -0.0769
   91MOL0     H12285  10.630   0.116   1.490 -1.0357 -0.8753 -0.6926
   92MOL0     O12286   8.051   2.561   7.091  0.1370  0.1647 -0.4841
   92MOL0     C12287   8.078   2.446   7.085 -0.5297 -0.1967  0.7733
   92MOL0     O12288   8.204   2.400   7.065  0.0295 -0.4596 -0.6806
   92MOL0     C12289   8.296   2.482   7.012  0.1419  0.3727 -0.6684
   92MOL0     C12290   8.411   2.514   7.078  0.2717 -0.6954 -0.5822
   92MOL0     C12291   8.505   2.590   7.008  0.6638  0.4155  0.0375
   92MOL0     C12292   8.490   2.639   6.878  0.3651 -0.3345 -0.0209
   92MOL0     O12293   8.582   2.720   6.808 -0.4024 -0.4192 -0.3968
   92MOL0     C12294   8.718   2.735   6.858  0.6918  0.6607 -0.0408
   92MOL0     C12295   8.799   2.807   6.745  0.2874  0.0973 -0.2670
   92MOL0     C12296   8.942   2.832   6.789  0.3234 -0.2170  0.7901
   92MOL0     C12297   9.043   2.809   6.677  0.0816 -0.0618 -0.4303
   92MOL0     C12298   9.195   2.795   6.736  0.0017  0.5568  0.9369
   92MOL0     C12299   9.260   2.926   6.791 -0.1868  0.5184 -0.4175
   92MOL0     C12300   9.400   2.895   6.845 -0.0011 -0.3025 -0.5699
   92MOL0     C12301   9.464   3.019   6.925  0.1033 -0.0118 -0.8338
   92MOL0     N12302   9.542   3.098   6.827  0.9903 -0.6016  0.3826
   92MOL0     C12303   9.502   3.203   6.755  0.5203 -0.9890  0.4936
   92MOL0     C12304   9.600   3.267   6.706 -0.6453  0.8352 -0.6718
   92MOL0     C12305   9.592   3.377   6.600  0.7877  0.6176  0.0361
   92MOL0     C12306   9.668   3.506   6.641 -0.4295 -0.4882  0.6389
   92MOL0     C12307   9.821   3.509   6.622 -0.1002 -0.3684  0.1506
   92MOL0     C12308   9.897   3.632   6.683 -0.6377  0.5278 -0.2950
   92MOL0     O12309  10.035   3.634   6.631 -0.1940  0.5680  0.0636
   92MOL0     C12310  10.122   3.733   6.679  0.4967  0.6900 -0.5649
   92MOL0     C12311  10.081   3.859   6.731 -0.0554 -0.3019  0.5843
   92MOL0     C12312  10.176   3.961   6.752 -0.1131 -0.0396 -0.1320
   92MOL0     C12313  10.308   3.935   6.739 -0.5890  0.4106 -0.1011
   92MOL0     C12314  10.412   4.032   6.780  0.2300 -1.0316 -0.8398
   92MOL0     O12315  10.543   3.990   6.775  0.1815  0.3119  0.5557
   92MOL0     C12316  10.650   4.079   6.787 -0.1546  0.1930 -0.4239
   92MOL0     C12317  10.653   4.216   6.773 -0.3949  0.0508  0.2087
   92MOL0     C12318  10.774   4.289   6.750  0.6922 -0.4756  0.4117
   92MOL0     C12319  10.894   4.219   6.741  0.3565  0.0808  0.3723
   92MOL0     O12320  11.014   4.282   6.711 -0.9874 -0.3157 -0.2258
   92MOL0     C12321  11.014   4.403   6.634  0.0387 -0.1256 -0.4324
   92MOL0     C12322  11.155   4.439   6.626 -0.5975 -0.3098  0.2642
   92MOL0     C12323  11.221   4.509   6.745  0.1017 -0.4779 -0.1876
   92MOL0     C12324  11.357   4.574   6.707  0.4890  0.1362 -0.2763
   92MOL0     C12325  11.439   4.645   6.822  0.4089  0.3657  0.6871
   92MOL0     C12326  11.573   4.687   6.759 -0.6166 -0.1988 -0.2833
   92MOL0     C12327  11.604   4.826   6.809  0.1786 -0.1927 -0.0188
   92MOL0     C12328  11.647   4.837   6.955  0.0256  0.0982  0.0617
   92MOL0    Cl12329  11.793   4.731   6.990  0.4037 -0.4562 -0.1277
   92MOL0     C12330  10.896   4.078   6.761 -0.0602 -0.2323 -0.8912
   92MOL0     C12331  10.772   4.004   6.780  0.7317 -0.1217 -0.6002
   92MOL0     O12332  10.380   4.135   6.835 -0.2048  0.1756  0.2293
   92MOL0     C12333  10.350   3.813   6.682 -0.4482 -0.0656 -0.6019
   92MOL0     C12334  10.260   3.715   6.657 -0.1684 -0.0964  0.2426
   92MOL0     N12335   9.712   3.210   6.763 -0.0811  0.8423  0.0459
   92MOL0     N12336   9.678   3.099   6.824  0.2051 -0.5909 -0.1441
   92MOL0     C12337   8.375   2.614   6.818 -0.3989 -0.1739  0.2527
   92MOL0     C12338   8.273   2.533   6.884  0.0443 -0.4484  0.1159
   92MOL0     C12339   7.983   2.336   7.119  0.2666 -0.8760  1.3308
   92MOL0     C12340   8.038   2.218   7.156 -0.8299  1.0203 -0.9655
   92MOL0     C12341   7.960   2.110   7.196 -0.3181 -0.0826 -0.1400
   92MOL0     C12342   7.823   2.118   7.203  0.0346 -1.0106  0.0593
   92MOL0     O12343   7.754   2.004   7.238  0.0645 -0.8142  0.2642
   92MOL0     C12344   7.725   1.999   7.378 -0.0742  0.9823  0.5165
   92MOL0     C12345   7.578   2.027   7.396 -0.4445 -0.5238  0.4872
   92MOL0     C12346   7.505   1.906   7.329  0.2649 -0.2280 -0.4473
   92MOL0     C12347   7.354   1.910   7.364 -0.3932 -0.7466  0.8427
   92MOL0     C12348   7.336   1.885   7.508 -0.0866 -0.0340 -0.2691
   92MOL0     C12349   7.340   1.856   7.624 -0.6580  0.0225 -0.1245
   92MOL0     C12350   7.756   2.239   7.177 -0.3275 -0.7766  0.4925
   92MOL0     C12351   7.835   2.345   7.125 -0.2363 -0.2404  0.2752
   92MOL0     C12352   7.770   2.481   7.101 -0.3114 -0.9827  0.2688
   92MOL0     H12353   8.418   2.486   7.183  1.0132 -1.1402 -0.7411
   92MOL0     H12354   8.589   2.627   7.066  0.2061  0.9295  0.3913
   92MOL0     H12355   8.730   2.794   6.949 -0.2172  1.6419 -0.5408
   92MOL0     H12356   8.753   2.635   6.887  0.4991  0.3655 -0.7801
   92MOL0     H12357   8.754   2.905   6.730 -3.2541 -1.4429 -0.6531
   92MOL0     H12358   8.794   2.751   6.651  0.4229  0.2913 -0.3896
   92MOL0     H12359   8.975   2.760   6.864 -2.0530  0.4440  2.5810
   92MOL0     H12360   8.954   2.926   6.843  0.1850 -0.3915  1.1268
   92MOL0     H12361   9.023   2.715   6.625 -1.2996  1.1969 -2.3063
   92MOL0     H12362   9.034   2.900   6.617 -1.7018  1.1710  1.5728
   92MOL0     H12363   9.203   2.704   6.795 -0.5823  0.9089  1.5813
   92MOL0     H12364   9.268   2.762   6.663  0.9979  0.3946  1.9808
   92MOL0     H12365   9.259   3.007   6.718  0.3073 -0.3644 -1.4421
   92MOL0     H12366   9.195   2.961   6.872 -2.2397 -2.1707 -0.7727
   92MOL0     H12367   9.477   2.858   6.777  1.0659  0.2820  0.2889
   92MOL0     H12368   9.381   2.815   6.918 -1.3360 -0.2895 -0.8938
   92MOL0     H12369   9.392   3.078   6.983  0.2459 -0.1204 -0.5450
   92MOL0     H12370   9.530   2.974   7.000 -2.6342 -1.2897  0.9879
   92MOL0     H12371   9.395   3.222   6.753  0.9324  1.9787  2.2086
   92MOL0     H12372   9.629   3.352   6.500  2.1826  0.2870  0.6105
   92MOL0     H12373   9.488   3.407   6.584  1.0726  0.4872 -2.5861
   92MOL0     H12374   9.633   3.589   6.579  0.7425  1.1193  2.0383
   92MOL0     H12375   9.647   3.531   6.745 -0.2874 -0.6762  0.7149
   92MOL0     H12376   9.843   3.512   6.515  0.1263 -1.0506  0.1777
   92MOL0     H12377   9.866   3.418   6.663 -1.1544 -0.7148  0.5539
   92MOL0     H12378   9.889   3.629   6.793 -2.0072 -0.7852 -0.3954
   92MOL0     H12379   9.853   3.723   6.641 -1.9326  0.1151  0.1038
   92MOL0     H12380   9.975   3.881   6.724  0.6514  3.1211 -1.6081
   92MOL0     H12381  10.156   4.064   6.780  0.5982  0.7005 -2.1563
   92MOL0     H12382  10.562   4.275   6.783  0.7841  1.8706  0.7330
   92MOL0     H12383  10.767   4.397   6.750 -0.3931 -0.5080 -1.0426
   92MOL0     H12384  10.970   4.391   6.535  0.1429  0.8743 -0.6138
   92MOL0     H12385  10.956   4.483   6.681  0.8448  0.7199 -0.8419
   92MOL0     H12386  11.218   4.351   6.608  2.6664  2.0520 -0.9627
   92MOL0     H12387  11.165   4.503   6.538 -1.5229 -1.1433 -0.4729
   92MOL0     H12388  11.150   4.582   6.785 -0.2692 -0.0694 -1.5367
   92MOL0     H12389  11.234   4.438   6.827 -2.4356 -0.3481  0.3905
   92MOL0     H12390  11.339   4.658   6.638 -0.0464  3.0959  3.1455
   92MOL0     H12391  11.418   4.498   6.657 -2.0304 -2.6981  0.7028
   92MOL0     H12392  11.445   4.581   6.910 -0.7841 -1.2726 -0.3626
   92MOL0     H12393  11.376   4.731   6.850 -2.6316 -1.6457  0.4988
   92MOL0     H12394  11.647   4.613   6.789  0.2430  1.3015  1.5289
   92MOL0     H12395  11.574   4.695   6.650  1.3108  0.7249 -0.2485
   92MOL0     H12396  11.519   4.893   6.792  0.2628 -0.5703 -2.2045
   92MOL0     H12397  11.673   4.880   6.744 -2.6029  1.3115 -1.9430
   92MOL0     H12398  11.691   4.936   6.970  1.0962 -0.3215 -0.2158
   92MOL0     H12399  11.566   4.804   7.021 -1.8931  2.7113 -0.8338
   92MOL0     H12400  10.983   4.013   6.751 -0.1190 -0.3302 -0.7642
   92MOL0     H12401  10.761   3.896   6.784  0.0825 -0.0850 -1.3142
   92MOL0     H12402  10.455   3.785   6.675 -0.3853  0.2131 -0.7706
   92MOL0     H12403  10.303   3.617   6.639  3.2268  1.2541  0.3969
   92MOL0     H12404   8.350   2.652   6.720 -0.7130  1.6182  0.9885
   92MOL0     H12405   8.189   2.512   6.819  2.0428 -2.6713 -1.9669
   92MOL0     H12406   8.145   2.196   7.152 -0.8621  0.3430  0.9627
   92MOL0     H12407   8.009   2.018   7.228 -1.2414  0.3420  2.7722
   92MOL0     H12408   7.779   2.077   7.433  0.2160  0.8898  0.3654
   92MOL0     H12409   7.740   1.900   7.424 -2.5335 -0.1053 -0.8245
   92MOL0     H12410   7.550   2.120   7.346  1.2705 -0.4513 -0.4180
   92MOL0     H12411   7.554   2.033   7.503 -0.8347  2.5406  0.3211
   92MOL0     H12412   7.541   1.805   7.354 -1.4522 -0.3402  2.0108
   92MOL0     H12413   7.504   1.919   7.221 -1.5699 -0.9648 -0.5525
   92MOL0     H12414   7.311   2.008   7.343 -0.4909 -0.1985  3.3607
   92MOL0     H12415   7.311   1.824   7.311  1.6963 -0.2507 -1.9384
   92MOL0     H12416   7.336   1.833   7.728  1.7311 -0.7772 -0.1461
   92MOL0     H12417   7.649   2.230   7.185 -0.1875 -3.7056  0.1831
   92MOL0     H12418   7.800   2.557   7.174  0.9781  2.2564 -3.3049
   92MOL0     H12419   7.801   2.521   7.004 -1.8613 -0.2236  0.0505
   92MOL0     H12420   7.661   2.480   7.102 -0.3583 -0.9724 -1.4480
   93MOL0     O12421   2.793   5.318   5.295  0.1500  0.0808 -0.2122
   93MOL0     C12422   2.688   5.270   5.332  0.2169 -0.1923 -0.1396
   93MOL0     O12423   2.660   5.137   5.372 -0.3997  0.5364  0.7451
   93MOL0     C12424   2.757   5.058   5.340  0.0104  0.3745 -0.2067
   93MOL0     C12425   2.857   5.054   5.439 -0.3387  1.0286  0.1171
   93MOL0     C12426   2.967   4.968   5.409 -0.3709  0.2950 -0.3716
   93MOL0     C12427   2.977   4.890   5.298  0.2146 -0.0702  0.1773
   93MOL0     O12428   3.076   4.801   5.275  0.1292  0.7151  0.0354
   93MOL0     C12429   3.181   4.787   5.379 -0.2338 -0.0048 -1.2046
   93MOL0     C12430   3.257   4.658   5.340  0.5057  0.8618 -0.6734
   93MOL0     C12431   3.392   4.619   5.407 -0.8642 -0.6385 -0.5926
   93MOL0     C12432   3.451   4.483   5.366 -0.1361  1.1045 -0.1774
   93MOL0     C12433   3.605   4.482   5.388 -0.2757  0.3292 -0.3390
   93MOL0     C12434   3.651   4.498   5.523 -0.0607  0.6673 -0.3584
   93MOL0     C12435   3.801   4.522   5.541  0.6837  0.1355  0.7286
   93MOL0     C12436   3.830   4.517   5.689 -0.9424  0.8273 -0.0800
   93MOL0     N12437   3.968   4.571   5.714 -1.2601  0.0917 -0.4715
   93MOL0     C12438   4.085   4.512   5.668 -0.1838  0.4037  0.0480
   93MOL0     C12439   4.187   4.601   5.692 -0.0201 -0.1020  1.1732
   93MOL0     C12440   4.333   4.578   5.666 -0.1398  0.9971 -0.0951
   93MOL0     C12441   4.423   4.632   5.782  0.2152 -0.0793  0.0845
   93MOL0     C12442   4.570   4.613   5.741  0.5373 -0.3072  0.0181
   93MOL0     C12443   4.659   4.677   5.844  0.9061  0.2286  0.4928
   93MOL0     O12444   4.776   4.691   5.770 -0.4648  0.2358  0.9362
   93MOL0     C12445   4.885   4.724   5.849  0.2288  0.1761 -0.7019
   93MOL0     C12446   4.889   4.769   5.985  0.2799  0.8340  0.4089
   93MOL0     C12447   5.003   4.789   6.058 -0.5502 -0.3189  0.4481
   93MOL0     C12448   5.123   4.765   5.998 -0.2825  0.5395  0.5689
   93MOL0     C12449   5.248   4.765   6.080  0.2880 -0.6079 -0.6650
   93MOL0     O12450   5.362   4.745   6.022 -0.0175 -0.8630 -0.4838
   93MOL0     C12451   5.477   4.753   6.097  0.7538  0.3595 -0.1835
   93MOL0     C12452   5.583   4.743   6.011  0.2548  0.2141 -1.5044
   93MOL0     C12453   5.711   4.731   6.068  0.8107  0.2144  0.1127
   93MOL0     C12454   5.735   4.737   6.214 -0.5822 -0.3947  0.2767
   93MOL0     O12455   5.865   4.732   6.257 -0.3073  0.0682  0.2367
   93MOL0     C12456   5.972   4.746   6.162 -0.5518  0.1100  0.1252
   93MOL0     C12457   6.109   4.708   6.228 -0.6863  0.3894 -0.4653
   93MOL0     C12458   6.235   4.696   6.135  0.1155  1.0536  0.4419
   93MOL0     C12459   6.365   4.712   6.210  0.3278 -0.1623  0.0629
   93MOL0     C12460   6.472   4.769   6.112  0.1021  0.2074  0.1243
   93MOL0     C12461   6.601   4.798   6.194  0.2242 -0.3232  0.3629
   93MOL0     C12462   6.705   4.860   6.110 -0.2501 -0.6344 -0.1871
   93MOL0     C12463   6.802   4.952   6.194 -0.0322 -0.1814  0.2999
   93MOL0    Cl12464   6.716   5.109   6.228 -0.1714  0.1827 -0.0323
   93MOL0     C12465   5.624   4.775   6.290 -0.1077 -0.6670  0.1583
   93MOL0     C12466   5.499   4.784   6.235  0.4269  0.2851 -0.0846
   93MOL0     O12467   5.226   4.776   6.202 -0.0020  0.1823 -0.0893
   93MOL0     C12468   5.128   4.724   5.860 -0.7190 -0.6801 -0.0717
   93MOL0     C12469   5.007   4.709   5.788  0.0949 -0.4248 -0.0163
   93MOL0     N12470   4.127   4.713   5.751 -0.4730  0.7371  0.3932
   93MOL0     N12471   4.000   4.690   5.763  0.1581 -0.1203  0.2759
   93MOL0     C12472   2.872   4.901   5.204  0.3955 -0.2318  0.5169
   93MOL0     C12473   2.763   4.987   5.224 -0.1827  0.9272 -0.2363
   93MOL0     C12474   2.566   5.366   5.345 -0.3526 -0.0717  0.3093
   93MOL0     C12475   2.441   5.308   5.387 -0.2031  0.0504 -0.5332
   93MOL0     C12476   2.326   5.386   5.414 -0.3650  0.6488  1.2774
   93MOL0     C12477   2.327   5.522   5.379 -0.4914 -0.0626 -0.0934
   93MOL0     O12478   2.214   5.585   5.425 -0.0205 -0.1551  0.7837
   93MOL0     C12479   2.206   5.724   5.388 -0.5287 -0.7899 -0.9409
   93MOL0     C12480   2.071   5.785   5.425 -0.6302  0.3855  0.5754
   93MOL0     C12481   2.042   5.776   5.569  0.1906 -0.5621 -1.0841
   93MOL0     C12482   1.909   5.830   5.613 -0.2018 -0.5492 -0.1711
   93MOL0     C12483   1.799   5.784   5.539 -0.3401 -0.2567  0.4285
   93MOL0     C12484   1.711   5.768   5.458  0.5442 -0.0204 -0.4214
   93MOL0     C12485   2.448   5.577   5.322 -0.6568 -0.7360 -0.1336
   93MOL0     C12486   2.564   5.500   5.299 -0.3132  0.2301 -1.4774
   93MOL0     C12487   2.675   5.572   5.231  0.0692 -0.4139 -0.3971
   93MOL0     H12488   2.838   5.115   5.526 -0.4626  0.0388  0.8059
   93MOL0     H12489   3.051   4.970   5.478  3.0488 -2.3230 -4.0484
   93MOL0     H12490   3.267   4.854   5.384  1.0915 -1.5770  3.6687
   93MOL0     H12491   3.138   4.775   5.479 -2.3667 -2.6885 -2.3158
   93MOL0     H12492   3.282   4.667   5.234  2.4875 -0.0097 -0.3240
   93MOL0     H12493   3.190   4.573   5.356  1.3893  0.6913  3.2935
   93MOL0     H12494   3.398   4.630   5.516  1.1021 -2.1962 -0.4716
   93MOL0     H12495   3.472   4.688   5.379 -0.7388  0.0515  1.2991
   93MOL0     H12496   3.412   4.403   5.431  1.5103  1.1289  0.8894
   93MOL0     H12497   3.436   4.461   5.260 -0.6338  4.0712 -0.8012
   93MOL0     H12498   3.640   4.386   5.349  0.6067  0.1648  0.7797
   93MOL0     H12499   3.650   4.548   5.315  1.4315  1.0492  1.2724
   93MOL0     H12500   3.599   4.582   5.571 -0.3309  1.0054 -1.2271
   93MOL0     H12501   3.624   4.404   5.571 -0.8767  1.3076  0.4832
   93MOL0     H12502   3.835   4.617   5.498 -0.9612  0.2068 -0.5277
   93MOL0     H12503   3.854   4.439   5.493  1.3361  0.1911  1.3462
   93MOL0     H12504   3.764   4.585   5.744  0.6190 -0.5634  3.8556
   93MOL0     H12505   3.817   4.418   5.734 -1.3171  1.3864  1.0921
   93MOL0     H12506   4.089   4.417   5.616 -0.2341  0.1460  0.5122
   93MOL0     H12507   4.364   4.475   5.646 -1.5844  0.6635 -0.7377
   93MOL0     H12508   4.368   4.633   5.578  2.6121  2.3193  1.6788
   93MOL0     H12509   4.412   4.740   5.796  1.6098 -0.2349  3.1006
   93MOL0     H12510   4.394   4.574   5.870  1.0438  1.0635  1.1423
   93MOL0     H12511   4.580   4.662   5.644 -0.6375 -2.9456 -1.5602
   93MOL0     H12512   4.598   4.507   5.730  0.1030 -0.3612 -0.6048
   93MOL0     H12513   4.674   4.609   5.928 -1.0309 -1.6283 -0.5560
   93MOL0     H12514   4.618   4.775   5.872 -3.5821 -1.7057  1.5974
   93MOL0     H12515   4.799   4.791   6.041 -0.3530  1.5030 -0.8221
   93MOL0     H12516   4.995   4.814   6.163 -4.2612  0.6089  0.0930
   93MOL0     H12517   5.563   4.740   5.904 -1.5209 -1.9513 -1.1847
   93MOL0     H12518   5.787   4.712   5.994  0.7708 -2.3045  0.6279
   93MOL0     H12519   5.955   4.683   6.074  0.5525 -0.3930  0.2582
   93MOL0     H12520   5.978   4.845   6.116  1.3139  1.1242  2.3589
   93MOL0     H12521   6.133   4.783   6.304  0.7757 -1.3392  0.8590
   93MOL0     H12522   6.102   4.612   6.278  0.0665 -0.5945 -2.1552
   93MOL0     H12523   6.226   4.598   6.088 -0.5999  0.8860  0.9172
   93MOL0     H12524   6.230   4.779   6.063  1.2938 -0.8820 -2.0216
   93MOL0     H12525   6.412   4.620   6.246  2.8814  0.4350 -1.4609
   93MOL0     H12526   6.347   4.777   6.296 -1.4447 -2.1486  1.2688
   93MOL0     H12527   6.440   4.863   6.066  0.6704  1.3496  1.9454
   93MOL0     H12528   6.509   4.702   6.034  1.6181  2.1405 -0.9099
   93MOL0     H12529   6.576   4.853   6.285  1.0034 -0.3534  0.5985
   93MOL0     H12530   6.640   4.705   6.236  0.8026  0.1650  0.9182
   93MOL0     H12531   6.664   4.908   6.020 -1.7313 -0.7129  0.4198
   93MOL0     H12532   6.761   4.775   6.071  2.1398  1.9988 -3.0780
   93MOL0     H12533   6.813   4.901   6.290  1.1722 -0.2788  0.1352
   93MOL0     H12534   6.898   4.958   6.141  0.5885 -0.2149  1.3842
   93MOL0     H12535   5.638   4.789   6.396  3.0671  1.9245 -0.4537
   93MOL0     H12536   5.420   4.814   6.303  1.1635  1.4219  0.3040
   93MOL0     H12537   5.218   4.693   5.807  0.2172 -0.4026  1.2979
   93MOL0     H12538   5.005   4.675   5.685 -1.8540 -1.2032  0.2338
   93MOL0     H12539   2.888   4.850   5.109  3.3934  1.2734  0.0768
   93MOL0     H12540   2.697   4.990   5.138 -1.4958  1.1875  0.7491
   93MOL0     H12541   2.435   5.208   5.428  2.5922  0.7306  1.8594
   93MOL0     H12542   2.237   5.330   5.442  1.8028 -4.9288 -1.4124
   93MOL0     H12543   2.214   5.735   5.279 -4.2032 -1.1472 -1.3863
   93MOL0     H12544   2.282   5.785   5.436 -2.3880  1.7474 -0.9900
   93MOL0     H12545   1.991   5.754   5.357  0.6850  1.8197 -1.7773
   93MOL0     H12546   2.088   5.892   5.406 -3.4423  0.7016 -0.8247
   93MOL0     H12547   2.117   5.827   5.631  1.3071 -1.3856 -1.7129
   93MOL0     H12548   2.036   5.671   5.602 -1.2761 -0.5274 -1.1720
   93MOL0     H12549   1.902   5.790   5.714  1.3850  1.1662  0.6867
   93MOL0     H12550   1.915   5.939   5.623 -2.3210 -0.4050 -0.1962
   93MOL0     H12551   1.635   5.752   5.384  1.8823  0.6748 -2.0092
   93MOL0     H12552   2.451   5.685   5.308 -0.0573 -0.2477  2.9441
   93MOL0     H12553   2.681   5.529   5.130 -0.4530 -1.5294  0.0321
   93MOL0     H12554   2.636   5.673   5.219 -1.0815 -0.6166  1.2269
   93MOL0     H12555   2.773   5.570   5.278 -0.1927  3.1136  0.6146
   94MOL0     O12556  10.726   3.461   3.296  0.1307  0.2673  0.2702
   94MOL0     C12557  10.665   3.451   3.191 -0.3967  0.3695 -0.0711
   94MOL0     O12558  10.698   3.369   3.088 -0.6902 -0.5618 -0.1893
   94MOL0     C12559  10.828   3.330   3.072 -0.6909  1.0576  0.1237
   94MOL0     C12560  10.948   3.344   3.147  1.0288 -0.9331  0.8131
   94MOL0     C12561  11.065   3.272   3.118 -0.1749  0.2675 -0.1977
   94MOL0     C12562  11.074   3.197   2.997 -0.5715 -0.6139  0.1187
   94MOL0     O12563  11.200   3.147   2.960  0.3314 -0.5882  0.7218
   94MOL0     C12564  11.286   3.095   3.065 -0.7381 -0.0551  0.3322
   94MOL0     C12565  11.348   2.969   3.008  0.2031 -0.1406  0.0340
   94MOL0     C12566  11.454   2.918   3.095 -0.3104  0.4881 -0.3291
   94MOL0     C12567  11.524   2.798   3.051 -0.5375  0.0746 -0.3843
   94MOL0     C12568  11.605   2.826   2.925 -0.5993 -0.3470  0.2966
   94MOL0     C12569  11.686   2.701   2.880  0.1194 -0.2187 -0.3693
   94MOL0     C12570  11.750   2.722   2.739  0.3291 -0.1956  0.2871
   94MOL0     C12571  11.874   2.815   2.734 -0.0275 -0.1714  0.5596
   94MOL0     N12572  12.000   2.746   2.758  0.0484  0.2983 -0.4895
   94MOL0     C12573  12.087   2.712   2.657 -0.7390 -0.7024 -0.0798
   94MOL0     C12574  12.179   2.637   2.717 -0.7656 -0.2851 -1.0353
   94MOL0     C12575  12.300   2.577   2.635  0.7862 -0.4768 -0.1971
   94MOL0     C12576  12.435   2.583   2.715  0.2457 -0.2113  0.4145
   94MOL0     C12577  12.447   2.466   2.813 -0.1232  0.2442 -0.1372
   94MOL0     C12578  12.591   2.455   2.857  0.2061 -0.0012 -0.3529
   94MOL0     O12579  12.694   2.418   2.759  0.2437 -0.1937 -0.2668
   94MOL0     C12580  12.822   2.389   2.805  0.0527  0.0222 -0.5749
   94MOL0     C12581  12.900   2.321   2.708  0.6884 -0.3238 -0.5401
   94MOL0     C12582  13.019   2.264   2.748  0.6348 -0.3775 -0.1518
   94MOL0     C12583  13.062   2.269   2.885 -0.5580 -0.6526 -0.3953
   94MOL0     C12584  13.193   2.215   2.928  0.7170  0.1815 -0.4250
   94MOL0     O12585  13.209   2.184   3.061 -0.1602  0.6744  0.2436
   94MOL0     C12586  13.311   2.102   3.115 -0.0530  0.1887 -0.1836
   94MOL0     C12587  13.307   2.059   3.252 -0.0781  0.0696  0.3567
   94MOL0     C12588  13.404   1.975   3.312  0.3629 -0.1005  1.0929
   94MOL0     C12589  13.501   1.915   3.226  0.4867 -1.1867  0.2589
   94MOL0     O12590  13.576   1.817   3.291 -0.2351  0.3908  0.6840
   94MOL0     C12591  13.719   1.809   3.255  0.0070  0.3404  0.4213
   94MOL0     C12592  13.813   1.734   3.347  0.0700 -0.2365  0.3016
   94MOL0     C12593  13.761   1.723   3.493  0.1723  0.3240  0.3405
   94MOL0     C12594  13.854   1.624   3.571  0.1485 -0.8930 -0.3073
   94MOL0     C12595  13.841   1.644   3.725  0.4569 -0.3729 -0.0157
   94MOL0     C12596  13.919   1.544   3.808 -0.0107  0.1201 -0.1674
   94MOL0     C12597  13.989   1.621   3.932  0.7659  0.0481 -0.4377
   94MOL0     C12598  14.078   1.523   4.006  0.0217  0.6888  0.0649
   94MOL0    Cl12599  14.199   1.440   3.900  0.1946  0.0090 -0.4377
   94MOL0     C12600  13.502   1.955   3.094 -0.3842  1.1279  0.4777
   94MOL0     C12601  13.411   2.049   3.039 -0.3472  0.5822  0.5963
   94MOL0     O12602  13.275   2.208   2.840  0.7165  0.1742 -0.1333
   94MOL0     C12603  12.979   2.337   2.979 -0.5226 -0.4138 -0.1866
   94MOL0     C12604  12.868   2.399   2.937  0.6994  0.0501  0.6473
   94MOL0     N12605  12.143   2.613   2.852 -1.0705 -0.1945 -0.1858
   94MOL0     N12606  12.036   2.676   2.870 -0.0840  0.1048  0.1923
   94MOL0     C12607  10.963   3.193   2.924  0.3767  0.1839  0.9684
   94MOL0     C12608  10.845   3.256   2.957  0.2694  0.2673  0.6868
   94MOL0     C12609  10.547   3.547   3.182 -1.1746  0.4074 -0.3812
   94MOL0     C12610  10.525   3.640   3.289 -0.9638 -0.3403 -0.5038
   94MOL0     C12611  10.429   3.741   3.290  0.0291  0.7239 -0.4835
   94MOL0     C12612  10.325   3.740   3.192 -0.6746  0.3264  0.2298
   94MOL0     O12613  10.218   3.827   3.183 -0.1197 -0.1485  0.0246
   94MOL0     C12614  10.155   3.875   3.305  0.5835  0.1478 -0.0509
   94MOL0     C12615  10.010   3.917   3.260  0.1961 -0.3516 -0.1000
   94MOL0     C12616   9.921   3.795   3.268  0.2851 -0.5059 -0.3277
   94MOL0     C12617   9.923   3.711   3.142 -0.1401 -0.8010 -0.5030
   94MOL0     C12618   9.807   3.619   3.134  0.6642  0.1842  0.0974
   94MOL0     C12619   9.709   3.546   3.135  0.5853 -1.0857  0.2146
   94MOL0     C12620  10.343   3.656   3.087 -0.0562  0.3002  0.8438
   94MOL0     C12621  10.453   3.560   3.073 -0.5454 -0.5962 -0.5102
   94MOL0     C12622  10.429   3.463   2.961 -0.1630  0.1658 -0.3696
   94MOL0     H12623  10.944   3.411   3.233 -1.3553 -0.3194  0.3089
   94MOL0     H12624  11.156   3.292   3.174  0.1058 -0.0846 -0.5245
   94MOL0     H12625  11.365   3.166   3.093  1.0139 -1.1953 -1.4526
   94MOL0     H12626  11.239   3.071   3.160  1.2336  2.9949  2.2523
   94MOL0     H12627  11.396   2.993   2.913  0.4200 -2.8748 -0.6402
   94MOL0     H12628  11.270   2.892   2.999  0.2177 -0.0210 -1.3228
   94MOL0     H12629  11.412   2.883   3.190  2.9493  0.9201  1.4168
   94MOL0     H12630  11.524   2.992   3.135  2.1985 -1.3730 -1.0688
   94MOL0     H12631  11.576   2.763   3.140  0.0599  2.8123  0.4456
   94MOL0     H12632  11.454   2.719   3.020 -1.4217  1.7554 -3.1339
   94MOL0     H12633  11.542   2.836   2.835  1.5595 -1.4151 -1.4372
   94MOL0     H12634  11.660   2.920   2.930  0.2003 -0.5317 -2.8204
   94MOL0     H12635  11.761   2.670   2.954  0.3267  0.4930 -0.2727
   94MOL0     H12636  11.610   2.623   2.874  0.1476 -0.2677 -0.0881
   94MOL0     H12637  11.670   2.762   2.676  0.7517 -0.1932 -0.2456
   94MOL0     H12638  11.769   2.633   2.680 -0.6597  0.0782 -0.4781
   94MOL0     H12639  11.882   2.855   2.632  2.4307  1.0057  1.1448
   94MOL0     H12640  11.862   2.899   2.802 -0.2804  0.7483 -0.5908
   94MOL0     H12641  12.076   2.745   2.554 -3.1427  1.1178  0.6548
   94MOL0     H12642  12.274   2.475   2.605  0.9223 -0.5571 -0.0438
   94MOL0     H12643  12.306   2.628   2.538 -2.9893  0.4469 -0.0886
   94MOL0     H12644  12.518   2.581   2.644 -0.6044  0.5297 -0.6365
   94MOL0     H12645  12.441   2.678   2.769 -1.2013 -0.3218  0.8135
   94MOL0     H12646  12.407   2.372   2.775 -1.4293  1.3778 -1.6792
   94MOL0     H12647  12.390   2.493   2.903  1.7491  2.8730  0.3782
   94MOL0     H12648  12.596   2.396   2.949 -2.1646 -0.9646 -0.7783
   94MOL0     H12649  12.624   2.552   2.894  0.4827 -0.0234 -0.5384
   94MOL0     H12650  12.847   2.301   2.616 -1.1226  0.9778  0.1624
   94MOL0     H12651  13.074   2.209   2.673  0.6297 -1.4580  0.6040
   94MOL0     H12652  13.233   2.100   3.320 -0.4853 -0.2790  0.1243
   94MOL0     H12653  13.397   1.953   3.418  1.1717  2.8097  1.8372
   94MOL0     H12654  13.743   1.755   3.163  1.8756  0.8994  0.5358
   94MOL0     H12655  13.757   1.911   3.250  0.0503  0.4176  1.9618
   94MOL0     H12656  13.823   1.632   3.309  2.3493 -1.0580  2.8008
   94MOL0     H12657  13.907   1.789   3.348 -0.2250  0.3519  2.8056
   94MOL0     H12658  13.785   1.819   3.540 -1.1443  0.4547  0.7822
   94MOL0     H12659  13.655   1.696   3.504  0.8458 -2.4107  0.9413
   94MOL0     H12660  13.957   1.631   3.533  1.0708  1.1026  2.2407
   94MOL0     H12661  13.830   1.526   3.530 -1.1335 -1.5610  1.8797
   94MOL0     H12662  13.733   1.639   3.745  0.9900 -1.7509  3.2323
   94MOL0     H12663  13.866   1.748   3.751 -0.7486 -0.3830  1.3823
   94MOL0     H12664  13.848   1.470   3.846 -0.3311 -0.6435 -2.1253
   94MOL0     H12665  13.994   1.493   3.747  1.1164  0.6760  0.7260
   94MOL0     H12666  13.909   1.653   4.000  1.3045 -1.2611  0.8575
   94MOL0     H12667  14.048   1.707   3.901  0.2943  0.3791 -0.4332
   94MOL0     H12668  14.137   1.583   4.076 -2.4133  0.6816  2.2356
   94MOL0     H12669  14.026   1.445   4.061 -0.0674  0.2482 -0.6333
   94MOL0     H12670  13.578   1.907   3.033 -1.1931 -0.1172  0.3910
   94MOL0     H12671  13.435   2.080   2.938  3.1284 -0.1917  1.0527
   94MOL0     H12672  13.016   2.349   3.080  1.2712  1.2122 -0.9753
   94MOL0     H12673  12.810   2.453   3.011  1.4735 -1.1490  2.1902
   94MOL0     H12674  10.968   3.135   2.832  0.2427  1.4331  0.1515
   94MOL0     H12675  10.767   3.235   2.884 -0.0935 -0.0768  1.1721
   94MOL0     H12676  10.582   3.651   3.381  0.6798 -2.1328 -1.2267
   94MOL0     H12677  10.443   3.805   3.376  1.4900  0.3308 -0.4027
   94MOL0     H12678  10.206   3.967   3.335  0.7199  0.2935 -0.7015
   94MOL0     H12679  10.169   3.810   3.392  0.0253  0.7758  0.5280
   94MOL0     H12680  10.006   3.966   3.163 -0.5439  0.5242  0.3451
   94MOL0     H12681   9.973   3.993   3.329  0.3016 -1.3382  1.0848
   94MOL0     H12682   9.818   3.825   3.289  0.6842  2.0721 -1.6670
   94MOL0     H12683   9.949   3.733   3.354 -1.0606 -0.3086  0.2780
   94MOL0     H12684   9.920   3.766   3.048 -2.6230 -3.2310 -1.9863
   94MOL0     H12685  10.016   3.654   3.131  0.8657  1.0975 -2.9190
   94MOL0     H12686   9.619   3.489   3.124  0.7993 -1.6325  1.1676
   94MOL0     H12687  10.261   3.640   3.018 -0.4540 -1.7739  1.7170
   94MOL0     H12688  10.331   3.472   2.912  0.2264  1.9055 -0.8780
   94MOL0     H12689  10.498   3.485   2.880  0.7547 -1.2499 -0.0123
   94MOL0     H12690  10.437   3.357   2.990 -5.1964 -0.9156 -1.8826
   95MOL0     O12691   3.975   9.630   9.942  1.0278 -0.4566  0.1884
   95MOL0     C12692   3.937   9.601  10.055  0.2022  0.3687 -0.3441
   95MOL0     O12693   4.030   9.602  10.165  0.7468 -0.2037  0.3906
   95MOL0     C12694   4.163   9.602  10.149  0.2057  0.4373 -0.2670
   95MOL0     C12695   4.242   9.651  10.042 -0.4787  0.0634  0.7973
   95MOL0     C12696   4.384   9.647  10.034 -0.6088  0.8031  0.1758
   95MOL0     C12697   4.446   9.615  10.152  0.1363  0.0200 -0.1357
   95MOL0     O12698   4.575   9.627  10.164  0.3742  0.0317 -0.3333
   95MOL0     C12699   4.669   9.687  10.077  0.9701  0.3977 -0.1452
   95MOL0     C12700   4.806   9.660  10.141  1.3609  1.0674  1.1844
   95MOL0     C12701   4.919   9.733  10.057  0.1472 -0.5607  0.0631
   95MOL0     C12702   5.059   9.702  10.110 -0.8478 -0.1785  0.6544
   95MOL0     C12703   5.153   9.812  10.065 -0.5693  0.1152  0.7456
   95MOL0     C12704   5.291   9.807  10.136 -0.3365  0.8416  0.4495
   95MOL0     C12705   5.387   9.886  10.042 -0.0904  0.0815 -0.3898
   95MOL0     C12706   5.451   9.985  10.137  0.0073 -0.3674 -0.5831
   95MOL0     N12707   5.558  10.048  10.059  0.6543  0.2533 -0.7345
   95MOL0     C12708   5.554  10.158   9.981 -0.2056 -0.7025  0.2769
   95MOL0     C12709   5.685  10.178   9.933  0.2856 -0.1973 -0.5072
   95MOL0     C12710   5.738  10.285   9.837 -0.2865 -0.0457  0.3540
   95MOL0     C12711   5.878  10.257   9.783 -0.4218 -0.1808 -0.5849
   95MOL0     C12712   5.932  10.362   9.690  0.1585  0.1296 -0.2718
   95MOL0     C12713   6.070  10.340   9.625  0.0172  0.0485  0.5734
   95MOL0     O12714   6.175  10.365   9.725  0.3963 -0.1729 -0.3886
   95MOL0     C12715   6.314  10.366   9.688  0.7277 -0.1213 -0.0527
   95MOL0     C12716   6.375  10.356   9.558  0.9749  0.4874  0.5296
   95MOL0     C12717   6.507  10.379   9.542  0.0728 -0.1916 -0.2011
   95MOL0     C12718   6.586  10.422   9.651  0.1181 -0.5213 -0.5932
   95MOL0     C12719   6.731  10.434   9.644  0.0093  0.2378  0.2403
   95MOL0     O12720   6.787  10.411   9.518  0.1659 -0.0074 -0.7886
   95MOL0     C12721   6.924  10.415   9.484 -0.2108  0.1113 -0.2293
   95MOL0     C12722   7.026  10.469   9.562  0.4317 -0.5854  0.1679
   95MOL0     C12723   7.159  10.451   9.525 -0.5493  0.3032  0.0147
   95MOL0     C12724   7.191  10.379   9.410  0.7260  0.3651 -0.8454
   95MOL0     O12725   7.327  10.351   9.398 -0.0764  0.3262  0.5595
   95MOL0     C12726   7.386  10.347   9.263  0.2904  0.6466 -0.5350
   95MOL0     C12727   7.484  10.464   9.250  1.3994 -0.1757 -0.4845
   95MOL0     C12728   7.560  10.457   9.111 -0.4772 -0.4056  0.7288
   95MOL0     C12729   7.704  10.504   9.126  0.0682 -0.3169  0.2456
   95MOL0     C12730   7.772  10.518   8.996  0.5271 -0.7290 -0.7689
   95MOL0     C12731   7.926  10.548   9.022  0.3315 -0.0691  0.9731
   95MOL0     C12732   8.002  10.440   9.099  0.8654  0.1164  0.4398
   95MOL0     C12733   7.973  10.290   9.084  0.0868 -0.2389 -0.2238
   95MOL0    Cl12734   8.025  10.239   8.919 -0.0662  0.4431  0.2341
   95MOL0     C12735   7.084  10.328   9.325  0.5779 -0.4338  0.7105
   95MOL0     C12736   6.952  10.336   9.368 -0.4371 -0.7757  0.2364
   95MOL0     O12737   6.796  10.460   9.746 -0.5937  0.3848  0.2413
   95MOL0     C12738   6.525  10.421   9.780 -0.7087 -0.9390  0.4147
   95MOL0     C12739   6.397  10.386   9.800 -0.4876  0.3167 -0.7432
   95MOL0     N12740   5.760  10.078   9.986 -0.1418 -1.2005 -0.4973
   95MOL0     N12741   5.689  10.012  10.077  0.4508 -0.4628  0.1025
   95MOL0     C12742   4.370   9.560  10.260  0.4146  0.7456 -0.2459
   95MOL0     C12743   4.230   9.551  10.258 -0.0400 -0.9976  0.4047
   95MOL0     C12744   3.799   9.547  10.080  0.3033 -0.4406  0.4119
   95MOL0     C12745   3.777   9.471  10.201  0.4279 -0.7143  0.0762
   95MOL0     C12746   3.646   9.418  10.226  0.2988  0.1333 -0.2356
   95MOL0     C12747   3.546   9.430  10.134  0.8838  0.1705 -0.3583
   95MOL0     O12748   3.418   9.382  10.164 -0.0080  0.4237  0.5176
   95MOL0     C12749   3.316   9.369  10.069 -0.5741  0.5137 -0.3737
   95MOL0     C12750   3.330   9.240   9.982  0.1557 -0.4871  0.7806
   95MOL0     C12751   3.234   9.242   9.864  0.7995  0.0545  0.0561
   95MOL0     C12752   3.244   9.120   9.781 -0.3716 -0.3365  0.1813
   95MOL0     C12753   3.132   9.119   9.693  0.8411  0.6476 -0.3864
   95MOL0     C12754   3.035   9.099   9.628 -0.0971  0.2836 -0.5950
   95MOL0     C12755   3.572   9.491  10.011 -0.6203  0.0897  0.5435
   95MOL0     C12756   3.692   9.560   9.983 -0.0470 -0.1561 -0.7089
   95MOL0     C12757   3.693   9.637   9.860 -0.2647  0.2381 -0.0236
   95MOL0     H12758   4.190   9.700   9.961  1.0957 -1.0084 -0.9226
   95MOL0     H12759   4.446   9.674   9.949  0.3774 -0.4002  0.4832
   95MOL0     H12760   4.670   9.650   9.974  0.0847  1.0966 -0.4204
   95MOL0     H12761   4.653   9.795  10.078  0.1959  0.3030  1.6032
   95MOL0     H12762   4.836   9.556  10.153 -2.6597 -0.8189 -2.5004
   95MOL0     H12763   4.795   9.709  10.238  0.7273  1.1479  1.0778
   95MOL0     H12764   4.908   9.840  10.039  1.1982 -0.2459  1.1676
   95MOL0     H12765   4.913   9.682   9.960 -0.5274 -1.8396  0.7486
   95MOL0     H12766   5.046   9.696  10.219 -0.0462  1.0883  0.8384
   95MOL0     H12767   5.094   9.605  10.074  3.3203  0.5563  2.1325
   95MOL0     H12768   5.174   9.786   9.961 -0.5405 -2.4092  1.3215
   95MOL0     H12769   5.108   9.911  10.078 -0.2693  0.2967  0.4145
   95MOL0     H12770   5.298   9.853  10.235  1.2657 -1.9327  1.7587
   95MOL0     H12771   5.327   9.706  10.159  0.8508  1.5755  1.9982
   95MOL0     H12772   5.334   9.932   9.958  0.8510 -0.5078 -1.3352
   95MOL0     H12773   5.462   9.819   9.998  0.0342  1.1959 -1.9715
   95MOL0     H12774   5.383  10.062  10.173 -1.1211 -1.5033 -0.2213
   95MOL0     H12775   5.502   9.946  10.226 -0.2304  2.9932  1.1899
   95MOL0     H12776   5.473  10.225   9.956 -2.1204 -3.1982 -0.6455
   95MOL0     H12777   5.660  10.293   9.761 -1.6866 -2.6794  1.4016
   95MOL0     H12778   5.750  10.375   9.897  1.3867 -1.2323  1.9176
   95MOL0     H12779   5.946  10.262   9.868 -0.0484 -1.8682 -0.7439
   95MOL0     H12780   5.890  10.153   9.750 -1.6905 -1.0255  1.4698
   95MOL0     H12781   5.939  10.456   9.745 -2.4310  0.3696 -0.2430
   95MOL0     H12782   5.856  10.377   9.613 -1.0615  0.9292  1.0331
   95MOL0     H12783   6.085  10.409   9.541  1.1498  0.1985  0.8805
   95MOL0     H12784   6.065  10.235   9.595 -0.1892  0.8146 -2.4015
   95MOL0     H12785   6.323  10.326   9.468  2.0429  0.6108 -0.1467
   95MOL0     H12786   6.557  10.365   9.447  2.3650 -2.3758  1.2215
   95MOL0     H12787   7.018  10.521   9.657  2.4289 -1.0477  0.6427
   95MOL0     H12788   7.248  10.477   9.582 -0.8710  1.9206 -0.2007
   95MOL0     H12789   7.429  10.252   9.233 -1.8895 -0.9958  1.1212
   95MOL0     H12790   7.315  10.368   9.182  0.3735 -2.0524 -1.4029
   95MOL0     H12791   7.437  10.562   9.262  0.3491 -0.8878  1.6932
   95MOL0     H12792   7.557  10.448   9.330  1.0830 -0.6599 -0.2840
   95MOL0     H12793   7.553  10.355   9.074  1.3825  0.4153 -2.2020
   95MOL0     H12794   7.506  10.523   9.042  2.6597  2.2377  0.5404
   95MOL0     H12795   7.762  10.437   9.190  0.8861 -0.4089 -0.5748
   95MOL0     H12796   7.709  10.603   9.173  1.4769 -1.2033  2.0999
   95MOL0     H12797   7.716  10.602   8.954 -0.6751 -1.3898 -0.5506
   95MOL0     H12798   7.754  10.429   8.935  2.4510 -1.5806 -0.1372
   95MOL0     H12799   7.970  10.560   8.922  1.2308 -1.3259  1.1896
   95MOL0     H12800   7.952  10.640   9.074 -0.3185 -0.0700  1.3021
   95MOL0     H12801   7.990  10.448   9.207  2.1057 -3.6336  1.0108
   95MOL0     H12802   8.106  10.469   9.081  1.5492 -2.0992  0.4771
   95MOL0     H12803   8.039  10.238   9.153 -2.0053 -1.3342  1.0522
   95MOL0     H12804   7.869  10.264   9.102  0.0162  0.8961  1.2244
   95MOL0     H12805   7.117  10.276   9.235  1.7761  2.1991 -0.4979
   95MOL0     H12806   6.878  10.276   9.317 -0.6606 -0.7497  0.5281
   95MOL0     H12807   6.593  10.440   9.863 -0.6123 -2.5817  0.7515
   95MOL0     H12808   6.364  10.385   9.904 -0.2539 -1.1891 -0.6671
   95MOL0     H12809   4.420   9.528  10.351  2.9606 -1.6163 -2.2975
   95MOL0     H12810   4.181   9.503  10.342 -1.1103  1.1103  1.0595
   95MOL0     H12811   3.839   9.447  10.287 -2.0701  0.7209  2.4567
   95MOL0     H12812   3.616   9.366  10.316  0.4413  1.2557  0.4790
   95MOL0     H12813   3.311   9.461  10.011  1.1512 -1.1209 -3.3917
   95MOL0     H12814   3.220   9.349  10.118  1.1566 -3.3548  1.9612
   95MOL0     H12815   3.305   9.148  10.035  0.6194 -0.6992  0.6383
   95MOL0     H12816   3.430   9.224   9.941  0.3040 -1.4107  1.4690
   95MOL0     H12817   3.263   9.325   9.799  1.4685 -0.8049 -0.7710
   95MOL0     H12818   3.133   9.262   9.902  0.9657 -1.3311  1.3076
   95MOL0     H12819   3.339   9.134   9.729 -0.7319 -0.3748 -0.4892
   95MOL0     H12820   3.256   9.026   9.836 -2.4088 -0.3948  0.5966
   95MOL0     H12821   2.960   9.085   9.553 -0.4138 -1.3261 -0.0121
   95MOL0     H12822   3.506   9.507   9.926  2.2347  0.3897 -1.7590
   95MOL0     H12823   3.687   9.572   9.772  4.0817  2.6790 -2.5181
   95MOL0     H12824   3.607   9.703   9.866  1.5258  2.6558  0.7658
   95MOL0     H12825   3.783   9.697   9.842 -1.0235  1.0940 -1.1538
   96MOL0     O12826   0.038   4.619   1.518 -1.0678 -0.0839 -0.1846
   96MOL0     C12827  -0.010   4.729   1.529 -0.0874  0.4916 -0.0159
   96MOL0     O12828   0.046   4.831   1.606  0.4303  0.4942 -0.5623
   96MOL0     C12829   0.171   4.873   1.568 -0.5441  0.4928 -0.1787
   96MOL0     C12830   0.230   4.954   1.658 -0.1192  1.4561 -0.6949
   96MOL0     C12831   0.356   5.007   1.632 -0.3877  0.5952  0.5598
   96MOL0     C12832   0.417   4.989   1.500 -0.1429  0.4337  0.7761
   96MOL0     O12833   0.538   5.043   1.466 -0.4641  0.3969 -0.9949
   96MOL0     C12834   0.607   5.126   1.565  0.8275 -0.4505 -0.7056
   96MOL0     C12835   0.726   5.195   1.499  0.6262 -1.0320  0.4169
   96MOL0     C12836   0.844   5.211   1.588 -0.3968  0.6402 -0.1565
   96MOL0     C12837   0.953   5.309   1.537 -0.6113 -0.9036 -0.9280
   96MOL0     C12838   1.099   5.285   1.591 -0.0994 -0.2218 -0.9482
   96MOL0     C12839   1.110   5.307   1.744 -0.2177 -1.2916 -0.1485
   96MOL0     C12840   1.255   5.304   1.791  0.0164  0.2325  0.2439
   96MOL0     C12841   1.267   5.317   1.942  0.1948 -0.4104  0.3871
   96MOL0     N12842   1.411   5.298   1.972  0.4055 -0.0305  0.4177
   96MOL0     C12843   1.469   5.176   2.002 -0.4737  0.6366  0.1801
   96MOL0     C12844   1.605   5.206   2.003  0.9488 -0.0416 -0.3053
   96MOL0     C12845   1.717   5.111   2.041 -0.0682  0.2967  0.4151
   96MOL0     C12846   1.778   5.144   2.182  0.0078 -0.3188  0.5568
   96MOL0     C12847   1.900   5.059   2.229 -0.0304 -1.0798  0.8693
   96MOL0     C12848   1.953   5.080   2.372  1.1686  0.5958  0.1905
   96MOL0     O12849   2.011   5.209   2.388 -0.1424 -0.3884  0.6138
   96MOL0     C12850   2.151   5.213   2.374 -0.7904 -0.2147  0.8608
   96MOL0     C12851   2.233   5.103   2.331  0.7516 -0.0288 -0.8645
   96MOL0     C12852   2.371   5.105   2.329 -1.2337  0.3471 -0.9014
   96MOL0     C12853   2.438   5.227   2.357 -0.1873  0.3432 -0.6268
   96MOL0     C12854   2.580   5.238   2.347 -0.3839 -0.2921  0.8507
   96MOL0     O12855   2.646   5.356   2.349  0.2500 -0.1817  0.6491
   96MOL0     C12856   2.777   5.362   2.313  0.3831  0.1063  0.1582
   96MOL0     C12857   2.862   5.425   2.398 -0.1985 -0.9087  0.5348
   96MOL0     C12858   3.006   5.421   2.380  0.4536 -0.2402  0.6062
   96MOL0     C12859   3.060   5.354   2.276 -0.3087 -0.2404  0.4470
   96MOL0     O12860   3.201   5.356   2.248 -0.1158  0.4169  0.2821
   96MOL0     C12861   3.288   5.451   2.320 -0.5976  1.0243 -0.2766
   96MOL0     C12862   3.435   5.426   2.262  0.4196 -0.3423 -0.1635
   96MOL0     C12863   3.504   5.294   2.294 -0.4462  0.1318 -0.1221
   96MOL0     C12864   3.643   5.283   2.224  0.3521  1.0889 -0.7536
   96MOL0     C12865   3.714   5.138   2.246 -0.0106  0.1786  0.4553
   96MOL0     C12866   3.865   5.146   2.205 -0.2023  0.4023  0.9766
   96MOL0     C12867   3.923   5.002   2.189  0.1161 -0.1487 -0.0157
   96MOL0     C12868   4.071   5.001   2.140  0.6136 -0.4048 -1.0839
   96MOL0    Cl12869   4.182   5.071   2.249 -0.5714 -0.4705  0.2467
   96MOL0     C12870   2.975   5.280   2.195 -0.5677  0.2713 -0.2961
   96MOL0     C12871   2.839   5.286   2.211  1.0733  1.2744 -0.3605
   96MOL0     O12872   2.640   5.135   2.358  0.6323 -0.2608  0.1600
   96MOL0     C12873   2.359   5.342   2.393 -0.4803 -0.0715  1.1025
   96MOL0     C12874   2.225   5.331   2.418  0.2490 -0.1994  0.5577
   96MOL0     N12875   1.625   5.343   1.982  0.2394  0.5831 -0.2374
   96MOL0     N12876   1.506   5.398   1.960 -0.5046  0.8117  0.4696
   96MOL0     C12877   0.350   4.909   1.411  1.2948 -0.2416  0.8051
   96MOL0     C12878   0.230   4.856   1.446 -0.0526  0.5260 -0.0913
   96MOL0     C12879  -0.135   4.768   1.458  1.0064 -0.3781  0.1392
   96MOL0     C12880  -0.208   4.889   1.504 -0.0339  0.5473  0.4570
   96MOL0     C12881  -0.322   4.930   1.436 -0.3831 -0.0267  0.1880
   96MOL0     C12882  -0.365   4.869   1.323  0.2216  0.3586 -0.1395
   96MOL0     O12883  -0.480   4.920   1.264  0.9831 -0.3039  0.3568
   96MOL0     C12884  -0.533   4.874   1.143  1.1033  0.8591  0.8414
   96MOL0     C12885  -0.634   4.749   1.149  0.3896 -0.1854 -0.5468
   96MOL0     C12886  -0.769   4.788   1.215 -1.4239 -0.5669  0.2562
   96MOL0     C12887  -0.822   4.653   1.263  0.1051 -0.1126  0.3192
   96MOL0     C12888  -0.966   4.649   1.297 -0.2582  0.3199 -0.4571
   96MOL0     C12889  -1.082   4.642   1.335  0.3097  0.9009 -0.2845
   96MOL0     C12890  -0.291   4.760   1.274  0.5114  0.3137 -0.1216
   96MOL0     C12891  -0.184   4.701   1.345  0.1479  0.3003 -0.2648
   96MOL0     C12892  -0.122   4.566   1.300 -0.8072  0.0260 -0.0945
   96MOL0     H12893   0.205   4.961   1.763  0.7467  0.7620 -0.4278
   96MOL0     H12894   0.401   5.066   1.711  0.4128  3.3383 -1.8024
   96MOL0     H12895   0.537   5.199   1.608 -0.3561 -2.8024  1.6817
   96MOL0     H12896   0.639   5.060   1.646 -2.8272 -1.7796 -0.1807
   96MOL0     H12897   0.689   5.298   1.486  0.7878 -1.0872 -0.5471
   96MOL0     H12898   0.747   5.151   1.401  0.4736 -0.9127  0.3290
   96MOL0     H12899   0.886   5.110   1.593 -2.7766 -0.4053 -0.3316
   96MOL0     H12900   0.823   5.254   1.686  0.0118  1.2505 -0.3295
   96MOL0     H12901   0.974   5.313   1.430  0.9587  1.0212 -0.6123
   96MOL0     H12902   0.918   5.411   1.557 -1.7726 -0.9849 -2.3578
   96MOL0     H12903   1.132   5.187   1.555 -2.2871 -1.0437 -0.8778
   96MOL0     H12904   1.159   5.364   1.546  0.4469  0.3361  0.6717
   96MOL0     H12905   1.070   5.407   1.764 -0.3947 -1.0883 -1.4224
   96MOL0     H12906   1.048   5.239   1.803 -0.5149 -1.2980 -0.4625
   96MOL0     H12907   1.316   5.387   1.754 -0.7778  1.8487  2.3710
   96MOL0     H12908   1.310   5.214   1.760  0.3910  1.0367 -1.5784
   96MOL0     H12909   1.233   5.413   1.981 -0.6361 -0.4098 -0.2911
   96MOL0     H12910   1.200   5.247   1.992 -1.0509  1.0379  0.8187
   96MOL0     H12911   1.418   5.086   2.033  1.4829 -0.6419 -0.1348
   96MOL0     H12912   1.673   5.011   2.054 -0.0447 -0.1252 -2.1103
   96MOL0     H12913   1.797   5.098   1.968  1.1257 -3.1660  2.1285
   96MOL0     H12914   1.797   5.250   2.195 -0.2116  0.0125 -1.5132
   96MOL0     H12915   1.706   5.105   2.255 -0.8202 -0.8627 -0.5215
   96MOL0     H12916   1.981   5.088   2.161 -0.4128 -1.9780 -0.0111
   96MOL0     H12917   1.875   4.953   2.214  0.8769 -1.2034  0.1437
   96MOL0     H12918   2.018   4.998   2.404  0.0593 -0.5668 -0.4248
   96MOL0     H12919   1.871   5.091   2.444  0.5479  1.4685 -0.6186
   96MOL0     H12920   2.173   5.028   2.281 -2.4792  1.6318  0.2149
   96MOL0     H12921   2.428   5.014   2.315  1.5902  2.0344 -1.3930
   96MOL0     H12922   2.813   5.469   2.485 -4.5031 -0.2751 -1.9434
   96MOL0     H12923   3.069   5.473   2.452 -0.2866 -2.5383  3.0691
   96MOL0     H12924   3.262   5.555   2.296 -3.6321  0.1069 -1.4256
   96MOL0     H12925   3.281   5.439   2.428 -0.2750 -0.6162 -0.4154
   96MOL0     H12926   3.432   5.446   2.155  2.5168 -0.0057 -0.2031
   96MOL0     H12927   3.489   5.511   2.306  2.0790 -1.8409  0.8276
   96MOL0     H12928   3.510   5.305   2.403  0.8624  1.5476 -0.3006
   96MOL0     H12929   3.442   5.207   2.270  0.0236 -0.2217 -0.0679
   96MOL0     H12930   3.712   5.364   2.246  1.3995  0.8033 -2.7651
   96MOL0     H12931   3.618   5.293   2.118 -1.7985  1.3841 -0.2618
   96MOL0     H12932   3.668   5.055   2.191  0.1483 -0.3606  1.1303
   96MOL0     H12933   3.706   5.113   2.352 -2.5945  1.5026  0.6420
   96MOL0     H12934   3.872   5.196   2.108 -1.2887 -0.4886  0.4170
   96MOL0     H12935   3.920   5.205   2.279  2.0326 -0.7893  0.3425
   96MOL0     H12936   3.856   4.946   2.124  0.8406 -2.4176  1.0821
   96MOL0     H12937   3.921   4.961   2.291  0.6887 -1.3631 -0.4866
   96MOL0     H12938   4.099   4.897   2.124  2.5600  0.0049 -0.6289
   96MOL0     H12939   4.072   5.060   2.048  3.0056  0.5514 -0.5295
   96MOL0     H12940   3.024   5.218   2.121  1.7532 -0.5437  1.7961
   96MOL0     H12941   2.776   5.223   2.149  0.6361 -0.5741  1.8411
   96MOL0     H12942   2.415   5.430   2.425  2.6176 -1.7160  0.5058
   96MOL0     H12943   2.171   5.414   2.462  2.4774  1.0179  1.1830
   96MOL0     H12944   0.390   4.899   1.310 -0.3171  3.1639 -0.2934
   96MOL0     H12945   0.190   4.791   1.369  2.5253 -0.5188 -0.6663
   96MOL0     H12946  -0.175   4.935   1.596 -1.8571 -0.4218  1.6640
   96MOL0     H12947  -0.376   5.013   1.480 -0.5963 -0.5981  1.0379
   96MOL0     H12948  -0.445   4.842   1.086  0.8859 -0.0751  1.0064
   96MOL0     H12949  -0.585   4.960   1.100  3.5993  2.2379  0.3956
   96MOL0     H12950  -0.588   4.668   1.207 -1.4192 -0.0297  1.2116
   96MOL0     H12951  -0.659   4.702   1.053 -1.8535 -1.8047  0.7208
   96MOL0     H12952  -0.833   4.840   1.144  0.3192  1.8303  0.3157
   96MOL0     H12953  -0.745   4.859   1.295 -0.9142  1.0949 -1.3022
   96MOL0     H12954  -0.807   4.581   1.182  2.2824 -0.2266  0.7607
   96MOL0     H12955  -0.768   4.624   1.354  1.6307 -0.8865 -0.7867
   96MOL0     H12956  -1.184   4.649   1.369  0.7157  4.9386  0.6217
   96MOL0     H12957  -0.322   4.701   1.188 -2.1869  1.6602 -0.1875
   96MOL0     H12958  -0.167   4.524   1.210 -1.0756  1.9171 -0.8942
   96MOL0     H12959  -0.021   4.593   1.269 -1.0999  2.9443  1.1328
   96MOL0     H12960  -0.127   4.494   1.382  0.5372  0.1634  0.1377
   97MOL0     O12961  11.306   7.721   8.949  0.4516  0.1649 -0.0399
   97MOL0     C12962  11.269   7.807   9.021  0.2770 -0.2435  0.6462
   97MOL0     O12963  11.342   7.892   9.092 -0.5664 -0.2640  0.5199
   97MOL0     C12964  11.480   7.896   9.092 -0.5334 -0.2112 -0.3596
   97MOL0     C12965  11.539   8.025   9.125  0.8585 -0.3508 -0.2555
   97MOL0     C12966  11.677   8.030   9.147  0.1911 -0.1133  0.0602
   97MOL0     C12967  11.757   7.921   9.132  0.0343 -0.0588 -0.0532
   97MOL0     O12968  11.898   7.926   9.144 -0.1473  0.6879 -0.3401
   97MOL0     C12969  11.963   8.029   9.232 -0.1715 -0.0207 -0.3081
   97MOL0     C12970  12.108   7.994   9.259 -0.1458 -0.1316 -0.2907
   97MOL0     C12971  12.205   8.002   9.139 -0.7828 -1.0985 -0.2729
   97MOL0     C12972  12.340   7.945   9.186 -0.2049 -0.2595  0.5862
   97MOL0     C12973  12.431   7.919   9.070  0.0198  0.7918 -0.2256
   97MOL0     C12974  12.571   7.892   9.121 -0.2550  0.1397 -0.9997
   97MOL0     C12975  12.656   7.861   9.002 -0.4661  0.0087  0.9527
   97MOL0     C12976  12.803   7.859   9.055 -0.1524 -0.0134 -0.0200
   97MOL0     N12977  12.902   7.837   8.953 -0.2434 -0.2859  1.1752
   97MOL0     C12978  12.916   7.910   8.840 -0.4361  0.4052  0.6164
   97MOL0     C12979  13.037   7.865   8.793  0.2356 -0.0327  0.1349
   97MOL0     C12980  13.097   7.922   8.665 -0.3484  0.5280  0.3517
   97MOL0     C12981  13.013   7.939   8.539  0.3134  0.2645 -0.5482
   97MOL0     C12982  12.985   7.791   8.476  0.0042 -0.3392  0.7703
   97MOL0     C12983  13.101   7.691   8.467 -0.0356 -0.4254  0.2459
   97MOL0     O12984  13.206   7.756   8.388  0.0906  0.0092  0.0341
   97MOL0     C12985  13.333   7.704   8.383  0.2411 -0.5155  0.0401
   97MOL0     C12986  13.423   7.769   8.307 -0.2558 -0.0844 -0.1609
   97MOL0     C12987  13.549   7.720   8.294  0.1287 -0.4819  0.4440
   97MOL0     C12988  13.591   7.607   8.362 -0.7723  0.0827 -0.0435
   97MOL0     C12989  13.727   7.550   8.337  0.3119 -0.4490 -0.6685
   97MOL0     O12990  13.820   7.631   8.285 -0.1670  0.0593  0.5438
   97MOL0     C12991  13.952   7.593   8.264 -0.2007  0.2625  0.3269
   97MOL0     C12992  14.018   7.668   8.161 -0.2478  0.3837  0.2191
   97MOL0     C12993  14.147   7.639   8.116  0.3343  1.0170 -0.0829
   97MOL0     C12994  14.216   7.526   8.165  0.3956 -0.6552  0.4262
   97MOL0     O12995  14.344   7.497   8.139 -0.2437 -1.1184  0.4004
   97MOL0     C12996  14.410   7.575   8.046  0.0675  0.2507  0.6845
   97MOL0     C12997  14.536   7.492   8.013  0.3932 -0.0874 -0.0202
   97MOL0     C12998  14.644   7.581   7.951  0.4897  0.0995  0.1336
   97MOL0     C12999  14.773   7.497   7.952  0.1281 -0.9891  0.3241
   97MOL0     C13000  14.877   7.581   7.886  1.0367 -0.2723  0.0795
   97MOL0     C13001  15.015   7.517   7.903 -0.4382  0.1777  0.0873
   97MOL0     C13002  15.132   7.610   7.870 -0.3231  0.1282 -0.4204
   97MOL0     C13003  15.267   7.534   7.866 -0.4796 -0.6172  0.2257
   97MOL0    Cl13004  15.402   7.634   7.811  0.3864 -0.0517  0.3043
   97MOL0     C13005  14.149   7.444   8.253 -1.0007  0.6100 -0.5435
   97MOL0     C13006  14.021   7.474   8.294  0.1659  0.7941 -0.2178
   97MOL0     O13007  13.743   7.433   8.376  0.1595 -0.0588  0.5064
   97MOL0     C13008  13.496   7.531   8.439 -0.2957 -0.6234  0.5034
   97MOL0     C13009  13.363   7.575   8.441 -0.1284 -0.9864  0.5183
   97MOL0     N13010  13.089   7.771   8.871 -0.6488 -0.5345 -0.9031
   97MOL0     N13011  13.010   7.755   8.970  0.0270 -0.5319  0.2514
   97MOL0     C13012  11.701   7.805   9.084 -1.2657 -0.3418  0.6133
   97MOL0     C13013  11.564   7.785   9.073  1.1841 -0.0672  0.4633
   97MOL0     C13014  11.123   7.823   9.054  0.0378  0.6132 -0.7514
   97MOL0     C13015  11.082   7.933   9.130  0.2514  0.3422 -0.1475
   97MOL0     C13016  10.950   7.950   9.159 -0.2134 -0.5411  0.4230
   97MOL0     C13017  10.857   7.853   9.122 -0.2098  0.9111  0.9369
   97MOL0     O13018  10.720   7.881   9.121 -0.2295 -0.1451 -0.5573
   97MOL0     C13019  10.673   8.016   9.112 -0.0016  0.3416  1.2440
   97MOL0     C13020  10.529   8.037   9.116 -0.2064 -0.5503 -0.8205
   97MOL0     C13021  10.470   7.967   9.241 -0.4758  0.2756 -0.2615
   97MOL0     C13022  10.320   7.981   9.262  0.3634 -0.4765 -0.6153
   97MOL0     C13023  10.261   7.871   9.336  0.3725 -0.0069  0.1092
   97MOL0     C13024  10.199   7.789   9.398 -0.4043 -0.4864  0.0270
   97MOL0     C13025  10.897   7.748   9.053  0.0565 -0.0876 -0.2135
   97MOL0     C13026  11.032   7.726   9.008 -0.7763 -0.4905 -0.3044
   97MOL0     C13027  11.048   7.613   8.908  0.3958 -0.4321  0.9553
   97MOL0     H13028  11.478   8.113   9.138  2.4627  0.7452  0.0885
   97MOL0     H13029  11.716   8.130   9.162 -0.1775  0.6568 -3.2757
   97MOL0     H13030  11.960   8.128   9.186 -4.7798 -0.3645 -1.2294
   97MOL0     H13031  11.922   8.047   9.332  2.0949  3.3355  0.1695
   97MOL0     H13032  12.115   7.893   9.301  1.7554  1.6024  4.1321
   97MOL0     H13033  12.148   8.056   9.340 -0.6398 -0.2817  0.0747
   97MOL0     H13034  12.215   8.107   9.112 -2.1151 -0.3853  1.7300
   97MOL0     H13035  12.175   7.944   9.052  4.7654  1.4580 -4.4405
   97MOL0     H13036  12.387   8.018   9.253  3.3573 -0.7318 -1.1635
   97MOL0     H13037  12.329   7.854   9.246  1.1580 -1.0689 -0.3608
   97MOL0     H13038  12.385   7.832   9.024 -2.3412  2.3642 -1.0469
   97MOL0     H13039  12.425   8.009   9.007 -1.1390  1.0536  0.2320
   97MOL0     H13040  12.598   7.988   9.166  1.5162  0.1280 -1.9677
   97MOL0     H13041  12.583   7.804   9.186 -0.8170 -1.6913 -3.2574
   97MOL0     H13042  12.650   7.927   8.915  2.0747 -0.2784  0.4770
   97MOL0     H13043  12.627   7.761   8.968 -1.5347  0.6541 -0.1262
   97MOL0     H13044  12.833   7.953   9.103  4.9526 -2.3978  2.3380
   97MOL0     H13045  12.814   7.784   9.134  0.9529  1.5018  1.3481
   97MOL0     H13046  12.857   7.987   8.792 -0.3573  0.0872 -0.0012
   97MOL0     H13047  13.143   8.018   8.691  0.5484  0.1691  0.1409
   97MOL0     H13048  13.188   7.869   8.633 -0.8958  1.9280 -4.1977
   97MOL0     H13049  12.915   7.985   8.559 -0.1238 -0.7197 -0.3706
   97MOL0     H13050  13.069   7.993   8.462  1.9499 -2.8366 -1.7035
   97MOL0     H13051  12.951   7.811   8.374  1.3237  3.2935  0.8953
   97MOL0     H13052  12.896   7.756   8.530 -0.0529 -2.0712 -0.3788
   97MOL0     H13053  13.066   7.599   8.420 -2.8263  0.4989  0.3767
   97MOL0     H13054  13.144   7.662   8.564  1.3923  1.8544  0.3730
   97MOL0     H13055  13.397   7.851   8.241  1.9001 -2.7787 -4.8476
   97MOL0     H13056  13.610   7.783   8.229  0.6269  0.2768  1.6156
   97MOL0     H13057  13.971   7.749   8.106  0.7685  0.3799 -0.6867
   97MOL0     H13058  14.194   7.701   8.040  1.3014  3.6252  2.4564
   97MOL0     H13059  14.351   7.597   7.956 -1.0316  0.8818  1.5398
   97MOL0     H13060  14.448   7.663   8.098  1.6693  0.2938 -0.4555
   97MOL0     H13061  14.571   7.443   8.105 -1.3524 -0.1111  0.6720
   97MOL0     H13062  14.509   7.417   7.938  1.2419  1.2944 -1.7690
   97MOL0     H13063  14.616   7.601   7.847 -0.6378 -2.4234 -0.1240
   97MOL0     H13064  14.670   7.671   8.006  1.1352 -0.6683  1.1102
   97MOL0     H13065  14.771   7.401   7.901  0.3727 -0.5069 -0.6146
   97MOL0     H13066  14.800   7.479   8.056 -0.2294 -0.9975  0.4159
   97MOL0     H13067  14.882   7.681   7.931  3.0225  0.2643 -1.2221
   97MOL0     H13068  14.848   7.598   7.782 -4.4386  1.9156  1.6047
   97MOL0     H13069  15.030   7.494   8.009  2.1628 -0.5983 -0.3741
   97MOL0     H13070  15.020   7.417   7.860  1.7588 -1.3717  3.4781
   97MOL0     H13071  15.138   7.691   7.944 -1.4263 -0.3298  0.2035
   97MOL0     H13072  15.117   7.649   7.769  2.2765 -1.3500 -1.4960
   97MOL0     H13073  15.290   7.505   7.968  0.8290  1.0366  0.4344
   97MOL0     H13074  15.263   7.449   7.798  0.3631  0.9283 -1.8668
   97MOL0     H13075  14.214   7.366   8.291 -1.6056  1.0393  1.5092
   97MOL0     H13076  13.978   7.413   8.373  1.9454  2.8322  2.4916
   97MOL0     H13077  13.519   7.437   8.487 -3.0341 -1.0856  1.0647
   97MOL0     H13078  13.299   7.509   8.497  0.9985 -0.1132  2.9695
   97MOL0     H13079  11.773   7.724   9.074 -0.8224  0.2176 -1.0071
   97MOL0     H13080  11.529   7.687   9.043  0.2307  0.3245  0.2614
   97MOL0     H13081  11.150   7.999   9.184  1.4772 -0.8438 -0.1826
   97MOL0     H13082  10.932   8.038   9.220 -0.4125 -1.7959  2.2355
   97MOL0     H13083  10.711   8.075   9.028 -0.7860 -0.1791  0.5084
   97MOL0     H13084  10.717   8.067   9.198  2.9814  0.7505 -0.3874
   97MOL0     H13085  10.476   8.007   9.026 -3.3386 -2.3897  1.4323
   97MOL0     H13086  10.507   8.144   9.127 -2.2484 -1.0315  0.3238
   97MOL0     H13087  10.524   7.986   9.334  3.2695 -1.6160 -1.8057
   97MOL0     H13088  10.490   7.862   9.219 -0.4546 -0.1696  1.7222
   97MOL0     H13089  10.306   8.078   9.311 -1.8283 -1.2192  0.3085
   97MOL0     H13090  10.272   7.980   9.164  0.6951 -4.6252 -0.9103
   97MOL0     H13091  10.151   7.701   9.436  1.6268 -1.5690  0.2208
   97MOL0     H13092  10.823   7.674   9.024  0.3917 -0.8805  0.8981
   97MOL0     H13093  10.957   7.554   8.913  0.7226 -1.5929 -3.2448
   97MOL0     H13094  11.057   7.654   8.807 -0.4745 -1.4864  0.4304
   97MOL0     H13095  11.135   7.549   8.926  0.1863 -1.0620 -0.2118
   98MOL0     O13096  10.681   3.980   3.722 -0.7540 -0.0638  0.0811
   98MOL0     C13097  10.694   4.020   3.602  0.5299 -0.0333 -0.2249
   98MOL0     O13098  10.584   4.057   3.526 -0.3789 -0.1053  1.1396
   98MOL0     C13099  10.451   4.046   3.569 -0.2852 -0.2154  0.2770
   98MOL0     C13100  10.365   4.147   3.537  0.6635 -0.3207  0.0408
   98MOL0     C13101  10.228   4.156   3.563 -0.1426 -0.1639 -0.2283
   98MOL0     C13102  10.176   4.049   3.646  0.4693 -0.1458  0.7695
   98MOL0     O13103  10.047   4.046   3.702  0.3487 -0.1068  0.1368
   98MOL0     C13104   9.984   4.171   3.707  0.8819  0.3920 -0.0004
   98MOL0     C13105   9.837   4.170   3.774  0.3525  0.8573 -0.0746
   98MOL0     C13106   9.745   4.065   3.697 -0.7683 -0.3002  0.4707
   98MOL0     C13107   9.675   4.125   3.572  0.7936 -0.2629  0.3756
   98MOL0     C13108   9.603   4.012   3.513  0.4397  0.0773  0.5936
   98MOL0     C13109   9.511   4.070   3.399 -0.9205  0.1026 -0.1546
   98MOL0     C13110   9.431   3.973   3.314  0.2448 -0.0134 -0.8680
   98MOL0     C13111   9.533   3.868   3.254  0.5460 -0.1145  0.1179
   98MOL0     N13112   9.460   3.760   3.189 -0.4272 -0.3538  0.5120
   98MOL0     C13113   9.441   3.750   3.049  0.1316 -0.6694 -0.5342
   98MOL0     C13114   9.385   3.627   3.038  0.6772  0.3713  0.0401
   98MOL0     C13115   9.338   3.560   2.904 -0.5387  0.1772 -0.1564
   98MOL0     C13116   9.457   3.475   2.861 -1.1187  0.4589 -0.2029
   98MOL0     C13117   9.435   3.408   2.719 -0.6668 -0.0041  0.6587
   98MOL0     C13118   9.578   3.351   2.682 -0.3414 -0.4337 -0.7479
   98MOL0     O13119   9.561   3.266   2.561  0.0387 -0.2313  0.4463
   98MOL0     C13120   9.678   3.237   2.500 -1.0468 -0.4735  0.2654
   98MOL0     C13121   9.659   3.188   2.378  0.3000  0.4779  0.4670
   98MOL0     C13122   9.766   3.179   2.289 -0.5672  0.3553 -0.4613
   98MOL0     C13123   9.897   3.197   2.335 -0.2292  0.6112 -0.3212
   98MOL0     C13124  10.011   3.183   2.248  0.4036  0.7182 -0.4583
   98MOL0     O13125   9.996   3.102   2.139  0.2614  0.7372  0.4064
   98MOL0     C13126  10.099   3.115   2.049 -0.3613  0.4983 -0.0238
   98MOL0     C13127  10.165   3.004   1.990  0.4735 -0.2532 -0.6866
   98MOL0     C13128  10.276   3.022   1.912  0.4774  1.0169  0.4625
   98MOL0     C13129  10.310   3.155   1.879 -0.2632  0.0731 -0.1781
   98MOL0     O13130  10.427   3.147   1.792  0.7289 -0.2375 -0.7321
   98MOL0     C13131  10.465   3.272   1.725 -0.0710 -0.0264 -0.3088
   98MOL0     C13132  10.569   3.242   1.621  0.1222 -0.1715  0.5640
   98MOL0     C13133  10.644   3.376   1.572 -0.0350  0.4368 -0.3864
   98MOL0     C13134  10.794   3.341   1.553 -0.4647  0.1543 -0.2982
   98MOL0     C13135  10.881   3.454   1.497 -0.2854 -0.2507 -0.7999
   98MOL0     C13136  11.010   3.389   1.452  0.2014 -0.5459 -0.1974
   98MOL0     C13137  11.106   3.501   1.394 -0.0050  0.4235  0.2751
   98MOL0     C13138  11.231   3.435   1.329  1.0037 -0.0972  0.6919
   98MOL0    Cl13139  11.366   3.542   1.343 -0.6351 -0.2379  0.4218
   98MOL0     C13140  10.227   3.263   1.918 -0.3264  0.1239 -0.3468
   98MOL0     C13141  10.116   3.244   2.001 -0.5464  0.0822 -0.3742
   98MOL0     O13142  10.109   3.249   2.268 -0.4762 -0.2015 -0.1859
   98MOL0     C13143   9.920   3.244   2.466  0.8280 -0.6462  0.1784
   98MOL0     C13144   9.811   3.263   2.549 -0.2441  0.0442 -0.2390
   98MOL0     N13145   9.362   3.569   3.164 -0.2261 -0.0310 -0.3454
   98MOL0     N13146   9.407   3.653   3.252 -0.0323 -0.7087 -0.4621
   98MOL0     C13147  10.259   3.932   3.669 -0.3503  0.9505 -0.1084
   98MOL0     C13148  10.391   3.935   3.628  0.3443  0.3316 -0.2575
   98MOL0     C13149  10.833   4.029   3.547  0.4710  0.3206  0.4165
   98MOL0     C13150  10.945   4.014   3.628 -0.1067  0.4473 -0.0445
   98MOL0     C13151  11.075   4.021   3.583  0.2949  0.6482  0.0449
   98MOL0     C13152  11.104   4.015   3.445  0.2714  0.7428  0.3421
   98MOL0     O13153  11.232   4.004   3.393 -0.5531 -0.2641 -0.7288
   98MOL0     C13154  11.318   3.900   3.436  0.5075  0.2809 -0.5648
   98MOL0     C13155  11.443   3.906   3.351  1.0050  0.1197 -0.0402
   98MOL0     C13156  11.508   4.048   3.366 -0.7957  0.3772  0.6231
   98MOL0     C13157  11.549   4.080   3.513 -0.3591 -0.2792  0.2094
   98MOL0     C13158  11.660   3.979   3.548 -0.2668  0.0662  0.3963
   98MOL0     C13159  11.761   3.910   3.574  0.8851 -0.1685  1.4133
   98MOL0     C13160  10.994   4.022   3.359 -0.6017 -0.8054 -0.1907
   98MOL0     C13161  10.861   4.042   3.403  0.4217  0.2209  0.4332
   98MOL0     C13162  10.749   4.046   3.300 -0.8467 -0.2664 -0.1625
   98MOL0     H13163  10.416   4.231   3.490 -0.8535 -0.5907 -2.2291
   98MOL0     H13164  10.174   4.241   3.524  0.8641  1.2208  1.2717
   98MOL0     H13165  10.042   4.244   3.765  1.9644  0.9208 -1.6651
   98MOL0     H13166   9.970   4.218   3.609 -0.1816  0.5068  0.1951
   98MOL0     H13167   9.793   4.270   3.784  0.1227  0.8387 -0.8874
   98MOL0     H13168   9.838   4.143   3.880 -1.7785  0.0746 -0.2024
   98MOL0     H13169   9.669   4.018   3.760 -2.6929  0.2301 -1.3295
   98MOL0     H13170   9.810   3.984   3.664 -0.2151  0.1292  0.4881
   98MOL0     H13171   9.599   4.202   3.583  1.3819  0.7006 -1.7890
   98MOL0     H13172   9.749   4.169   3.504  0.7229 -0.4005  0.2072
   98MOL0     H13173   9.679   3.942   3.477  1.0802  1.9611 -2.0508
   98MOL0     H13174   9.537   3.965   3.585 -0.8085 -0.0800 -0.6098
   98MOL0     H13175   9.435   4.135   3.443 -0.5748 -0.5584  1.4853
   98MOL0     H13176   9.572   4.128   3.329  1.0746  0.5480  1.8069
   98MOL0     H13177   9.396   4.028   3.227  0.4958  1.8849  0.1883
   98MOL0     H13178   9.347   3.934   3.373  2.0495 -2.4137  0.2976
   98MOL0     H13179   9.597   3.918   3.182  2.0566 -2.4216 -0.2522
   98MOL0     H13180   9.589   3.819   3.334 -1.0511  1.0682  2.0550
   98MOL0     H13181   9.483   3.822   2.979  2.1260 -1.3293 -0.0684
   98MOL0     H13182   9.251   3.498   2.926 -1.0839  1.6990  2.3265
   98MOL0     H13183   9.297   3.641   2.842  0.1308  1.0053  0.4501
   98MOL0     H13184   9.550   3.532   2.873 -1.5280  1.1801 -0.3637
   98MOL0     H13185   9.469   3.393   2.933 -0.8132 -0.1557 -0.9421
   98MOL0     H13186   9.401   3.481   2.645 -3.0663 -1.5499  0.1204
   98MOL0     H13187   9.367   3.323   2.714 -0.7251  0.0721  0.0471
   98MOL0     H13188   9.619   3.293   2.765  0.9173  0.1384 -0.9408
   98MOL0     H13189   9.642   3.440   2.681 -1.3888  0.3506 -1.2731
   98MOL0     H13190   9.560   3.163   2.341  0.2329  0.5315  0.6096
   98MOL0     H13191   9.748   3.146   2.188 -1.9145 -1.5165  0.3256
   98MOL0     H13192  10.130   2.907   2.025 -1.5955  0.8008  0.3304
   98MOL0     H13193  10.325   2.940   1.861 -0.4288  1.8038 -1.7726
   98MOL0     H13194  10.386   3.329   1.675  1.8852  0.5967 -2.9581
   98MOL0     H13195  10.492   3.346   1.800  1.9227 -1.9468  1.0050
   98MOL0     H13196  10.644   3.173   1.662  1.3691 -1.2602 -3.1359
   98MOL0     H13197  10.519   3.199   1.534 -1.2700 -1.8667  2.1252
   98MOL0     H13198  10.599   3.411   1.478  0.2943 -0.8070 -1.0291
   98MOL0     H13199  10.633   3.449   1.652  3.3270  0.4531  0.1912
   98MOL0     H13200  10.807   3.256   1.485 -0.9409  2.1350 -3.0579
   98MOL0     H13201  10.837   3.324   1.652  0.1988 -0.5117 -0.6868
   98MOL0     H13202  10.902   3.535   1.567 -2.2382 -0.1400 -0.2657
   98MOL0     H13203  10.833   3.508   1.415  1.9119  0.2843 -1.7960
   98MOL0     H13204  11.054   3.345   1.542 -0.6515 -0.5592  0.2261
   98MOL0     H13205  10.986   3.320   1.371 -1.1837 -0.3517  0.0136
   98MOL0     H13206  11.147   3.562   1.475  0.9938  2.6429 -1.7923
   98MOL0     H13207  11.060   3.567   1.321 -1.8001  0.6619  1.5505
   98MOL0     H13208  11.247   3.339   1.379  0.0810 -0.7802 -0.2961
   98MOL0     H13209  11.229   3.413   1.222  2.4317 -0.8317  0.7949
   98MOL0     H13210  10.256   3.358   1.874  3.7497 -0.9046 -0.2512
   98MOL0     H13211  10.048   3.320   2.038 -1.5344 -0.9483 -0.0269
   98MOL0     H13212  10.020   3.245   2.507  1.5820 -0.3784 -1.5761
   98MOL0     H13213   9.834   3.297   2.650 -1.0923  1.5779 -0.5347
   98MOL0     H13214  10.208   3.855   3.726  0.2768  1.6976  1.5341
   98MOL0     H13215  10.442   3.841   3.647 -0.2879 -0.1477 -0.8854
   98MOL0     H13216  10.924   4.010   3.735 -3.7512 -0.8485 -0.6639
   98MOL0     H13217  11.149   4.027   3.662 -0.5100 -0.6489  0.9291
   98MOL0     H13218  11.261   3.807   3.423 -1.8226  1.7840 -2.0283
   98MOL0     H13219  11.344   3.900   3.542  1.1519 -1.2937 -0.6937
   98MOL0     H13220  11.410   3.898   3.247 -2.4539  1.9706  0.7572
   98MOL0     H13221  11.501   3.821   3.387  2.2181  1.7407  2.0309
   98MOL0     H13222  11.446   4.124   3.318 -0.6339  0.9735  1.3354
   98MOL0     H13223  11.603   4.043   3.311 -0.7938 -0.9119  0.7202
   98MOL0     H13224  11.590   4.182   3.522 -0.3307 -0.3361  0.7713
   98MOL0     H13225  11.463   4.080   3.580  0.3963  1.4295  1.2594
   98MOL0     H13226  11.855   3.858   3.573  1.1408  0.2972  0.8846
   98MOL0     H13227  11.022   4.009   3.255  0.6332  0.5972 -0.0795
   98MOL0     H13228  10.797   4.049   3.202  0.8601 -1.9443  0.5777
   98MOL0     H13229  10.692   3.953   3.306 -0.1276 -0.6533  0.6968
   98MOL0     H13230  10.679   4.131   3.306 -2.4973 -1.4331 -1.7143
   99MOL0     O13231   4.252   2.618  11.042  0.4216 -0.5305 -0.6481
   99MOL0     C13232   4.187   2.709  10.990  0.4468 -0.0799  0.0953
   99MOL0     O13233   4.234   2.773  10.879 -0.2190  0.0363  0.5298
   99MOL0     C13234   4.371   2.778  10.857 -0.3239  0.2121  0.3026
   99MOL0     C13235   4.425   2.740  10.738  0.0160  0.7899  0.1347
   99MOL0     C13236   4.561   2.723  10.723 -0.6125 -0.8168  0.8204
   99MOL0     C13237   4.657   2.753  10.825  0.3048 -0.5854  0.0710
   99MOL0     O13238   4.791   2.751  10.806  0.7375 -0.2241  0.5505
   99MOL0     C13239   4.830   2.657  10.702  0.5628  0.7471 -0.0641
   99MOL0     C13240   4.978   2.646  10.705 -0.4673 -0.6756 -0.0154
   99MOL0     C13241   5.054   2.766  10.632 -0.0529 -0.5791 -0.2980
   99MOL0     C13242   5.211   2.754  10.624 -0.5759  0.0761  0.2772
   99MOL0     C13243   5.262   2.661  10.514 -0.3191  1.3270  0.0001
   99MOL0     C13244   5.201   2.514  10.499 -0.5526  0.2286  0.4141
   99MOL0     C13245   5.271   2.436  10.388 -1.0006 -1.0708  0.3665
   99MOL0     C13246   5.212   2.297  10.369  0.9615  1.0967 -0.0439
   99MOL0     N13247   5.236   2.256  10.225  0.4768  0.2081 -0.1458
   99MOL0     C13248   5.360   2.215  10.171 -0.0138  0.8641 -0.9427
   99MOL0     C13249   5.326   2.187  10.044  0.0776  1.2885  0.7738
   99MOL0     C13250   5.406   2.139   9.925  0.3036 -0.2902 -0.3048
   99MOL0     C13251   5.364   2.196   9.789 -0.0301 -0.0873 -1.1723
   99MOL0     C13252   5.444   2.137   9.676  0.5542 -0.1197  0.5557
   99MOL0     C13253   5.576   2.211   9.665 -0.2081  0.1015 -0.1081
   99MOL0     O13254   5.664   2.183   9.554 -0.2137 -0.3349  0.1781
   99MOL0     C13255   5.790   2.247   9.558  0.1530  0.3496 -0.4795
   99MOL0     C13256   5.906   2.166   9.537 -0.3844 -0.2082  0.4773
   99MOL0     C13257   6.043   2.213   9.543  0.5367  0.0271 -0.0383
   99MOL0     C13258   6.058   2.357   9.558  0.0044 -0.1693 -0.2353
   99MOL0     C13259   6.195   2.416   9.568  0.6045  0.2411  0.0179
   99MOL0     O13260   6.296   2.333   9.596 -0.0412 -0.1580 -0.5178
   99MOL0     C13261   6.424   2.382   9.612  0.1629  1.1335 -0.1049
   99MOL0     C13262   6.533   2.299   9.582 -0.2913  0.0290  0.2487
   99MOL0     C13263   6.665   2.348   9.612  0.2243 -0.2773 -1.0888
   99MOL0     C13264   6.686   2.470   9.683 -0.8972 -0.2945  0.7473
   99MOL0     O13265   6.800   2.519   9.740  0.6147 -0.4451  0.6244
   99MOL0     C13266   6.917   2.441   9.728 -0.0752 -0.0713 -0.8853
   99MOL0     C13267   6.995   2.475   9.603 -0.2697  0.2770 -0.6430
   99MOL0     C13268   7.109   2.376   9.572  0.4722  0.5237 -0.4392
   99MOL0     C13269   7.216   2.421   9.477  0.0945  0.2730 -0.6901
   99MOL0     C13270   7.299   2.298   9.438 -0.1619  0.5841  0.3934
   99MOL0     C13271   7.377   2.230   9.546 -0.4904  0.5674  0.5169
   99MOL0     C13272   7.506   2.151   9.497 -0.5922  0.9017  0.4931
   99MOL0     C13273   7.477   2.006   9.485  0.0144  0.0282  0.1691
   99MOL0    Cl13274   7.411   1.969   9.322  0.1505  0.6249  0.1401
   99MOL0     C13275   6.577   2.549   9.708  0.0071 -0.2564  0.0494
   99MOL0     C13276   6.447   2.509   9.672 -0.6305  0.3114  0.5058
   99MOL0     O13277   6.199   2.529   9.520  0.7586 -0.4717 -0.3965
   99MOL0     C13278   5.951   2.442   9.560 -0.3855  0.6123  0.6357
   99MOL0     C13279   5.814   2.385   9.581 -0.0160 -0.2677  0.1940
   99MOL0     N13280   5.190   2.202  10.028  0.7788 -0.1212  0.2181
   99MOL0     N13281   5.136   2.245  10.130 -0.5411  0.5337  0.3373
   99MOL0     C13282   4.604   2.785  10.949 -0.0634  0.4517  0.3840
   99MOL0     C13283   4.462   2.802  10.960  0.5135  0.3741  0.0271
   99MOL0     C13284   4.054   2.752  11.041  0.5030 -0.0676 -0.3785
   99MOL0     C13285   3.956   2.782  10.945 -0.3075 -0.1629 -0.5994
   99MOL0     C13286   3.825   2.810  10.990  0.0891  0.0790  0.2295
   99MOL0     C13287   3.785   2.798  11.123 -0.8001 -0.8696 -0.2288
   99MOL0     O13288   3.661   2.821  11.166  0.2204  0.3441 -0.0426
   99MOL0     C13289   3.578   2.702  11.177  0.0883  1.1193 -0.0941
   99MOL0     C13290   3.529   2.669  11.041  0.7001  0.5730  0.1185
   99MOL0     C13291   3.447   2.542  11.044  0.8089 -0.0578 -0.1512
   99MOL0     C13292   3.414   2.491  10.906 -0.2308  0.2109 -0.0386
   99MOL0     C13293   3.348   2.598  10.830 -0.5651 -0.7358  0.7769
   99MOL0     C13294   3.286   2.693  10.772 -0.0080  0.2758 -0.5334
   99MOL0     C13295   3.888   2.784  11.220  0.0680  0.0555  0.1825
   99MOL0     C13296   4.018   2.756  11.180 -0.6636  0.4667 -0.2621
   99MOL0     C13297   4.113   2.720  11.290 -0.3691  1.2011 -0.1919
   99MOL0     H13298   4.363   2.716  10.652  1.9082 -3.6647 -0.3008
   99MOL0     H13299   4.591   2.691  10.624  0.4695  1.5854  0.2893
   99MOL0     H13300   4.784   2.557  10.709  0.8847  0.6972  2.1964
   99MOL0     H13301   4.794   2.705  10.611 -2.1662  0.8472  0.9562
   99MOL0     H13302   5.013   2.556  10.653 -0.0256 -1.3800  1.4414
   99MOL0     H13303   5.020   2.639  10.806  2.4753  0.2023 -1.0746
   99MOL0     H13304   5.029   2.852  10.694 -1.0560 -1.3409  0.3862
   99MOL0     H13305   5.024   2.779  10.527  0.6672 -0.5259 -0.5015
   99MOL0     H13306   5.245   2.855  10.597  1.3213  0.1436  2.6466
   99MOL0     H13307   5.248   2.731  10.724  0.1465  0.6334  0.1496
   99MOL0     H13308   5.239   2.711  10.419  0.2102  2.0167  0.2283
   99MOL0     H13309   5.369   2.651  10.530 -0.5419  0.2384  0.9383
   99MOL0     H13310   5.199   2.449  10.586 -0.0815 -0.2714  0.0582
   99MOL0     H13311   5.099   2.526  10.462 -0.0599  2.4848 -0.3999
   99MOL0     H13312   5.380   2.431  10.393 -1.0505 -2.4447  0.4723
   99MOL0     H13313   5.255   2.489  10.294 -1.3588 -1.7738  0.0178
   99MOL0     H13314   5.263   2.226  10.435 -0.1340 -0.8560 -1.2204
   99MOL0     H13315   5.105   2.298  10.392  1.3623 -1.5530  2.3905
   99MOL0     H13316   5.459   2.221  10.214  0.0479  1.7140 -1.1664
   99MOL0     H13317   5.512   2.146   9.952  1.2462 -3.5723 -2.5675
   99MOL0     H13318   5.386   2.032   9.918  0.7537 -0.3884 -0.1722
   99MOL0     H13319   5.259   2.169   9.781 -0.3090  0.0443  1.1285
   99MOL0     H13320   5.371   2.305   9.795  3.1360 -0.2530  0.0908
   99MOL0     H13321   5.388   2.152   9.583 -0.0488 -0.4740  0.8588
   99MOL0     H13322   5.465   2.031   9.692 -1.9968 -0.7685  0.1161
   99MOL0     H13323   5.631   2.195   9.758 -0.6723  2.1804  0.5801
   99MOL0     H13324   5.544   2.315   9.652 -0.2895 -0.1190 -1.9468
   99MOL0     H13325   5.891   2.058   9.537 -1.3772 -0.1106 -1.8286
   99MOL0     H13326   6.133   2.153   9.546  1.0621  0.6748  4.4327
   99MOL0     H13327   6.513   2.202   9.536 -1.9836  0.2501  0.4428
   99MOL0     H13328   6.759   2.299   9.587  1.9007  1.5403  1.2797
   99MOL0     H13329   6.979   2.443   9.819 -0.8063 -0.4884 -0.3634
   99MOL0     H13330   6.889   2.336   9.714 -0.7507  0.2225 -1.7896
   99MOL0     H13331   6.935   2.474   9.511  2.7863  0.6355 -2.8238
   99MOL0     H13332   7.036   2.576   9.606  0.9704 -0.0305 -3.4857
   99MOL0     H13333   7.154   2.362   9.671 -2.0197  0.4306  0.7331
   99MOL0     H13334   7.068   2.286   9.525  2.2598  0.2418 -1.5698
   99MOL0     H13335   7.283   2.494   9.523 -0.6478  0.1752  0.6023
   99MOL0     H13336   7.175   2.449   9.380  0.5670 -2.2234 -1.6953
   99MOL0     H13337   7.375   2.338   9.370  1.7604 -0.6476  1.7160
   99MOL0     H13338   7.241   2.215   9.397  0.7503  0.6739 -1.1610
   99MOL0     H13339   7.416   2.307   9.613  3.0185 -0.8850  0.3274
   99MOL0     H13340   7.309   2.166   9.603  0.7271  0.5670  2.0119
   99MOL0     H13341   7.576   2.149   9.581 -0.6980  2.5623  0.6549
   99MOL0     H13342   7.551   2.184   9.403  1.1056  0.7001  1.2030
   99MOL0     H13343   7.566   1.945   9.502  0.2396 -0.8492 -3.3424
   99MOL0     H13344   7.398   1.985   9.557 -0.1826 -1.6109 -0.4713
   99MOL0     H13345   6.587   2.635   9.773  0.4461  0.0113 -0.3649
   99MOL0     H13346   6.368   2.577   9.701  0.6717  2.3389 -0.5124
   99MOL0     H13347   5.974   2.548   9.561 -0.4882  0.6356  1.3698
   99MOL0     H13348   5.734   2.457   9.599  1.9990  1.4750  3.0551
   99MOL0     H13349   4.667   2.799  11.037 -0.2766  0.9334  0.4613
   99MOL0     H13350   4.429   2.825  11.061  2.5084  0.0912  0.7770
   99MOL0     H13351   3.978   2.773  10.839  1.1773 -0.4230 -0.3013
   99MOL0     H13352   3.758   2.826  10.906  1.9175 -1.7463 -1.7484
   99MOL0     H13353   3.503   2.719  11.255 -1.1407 -0.0274 -0.9918
   99MOL0     H13354   3.635   2.614  11.208  0.7069  1.4583 -0.2520
   99MOL0     H13355   3.615   2.656  10.975  0.8778 -0.3777  0.5167
   99MOL0     H13356   3.463   2.751  11.010  1.3915  1.8970  2.0129
   99MOL0     H13357   3.357   2.557  11.105 -0.3934 -3.7064 -0.7765
   99MOL0     H13358   3.513   2.460  11.076  2.2748  1.3661  0.6624
   99MOL0     H13359   3.509   2.466  10.857 -0.9885  0.8069 -1.8869
   99MOL0     H13360   3.355   2.399  10.913 -1.1244  0.8440  1.1761
   99MOL0     H13361   3.239   2.783  10.739  0.1855  1.8526  2.9999
   99MOL0     H13362   3.866   2.767  11.325  1.7582  0.6583  0.6590
   99MOL0     H13363   4.093   2.763  11.389 -0.5981 -2.7061  1.6798
   99MOL0     H13364   4.108   2.612  11.307 -0.5003  1.3053  0.4866
   99MOL0     H13365   4.218   2.737  11.266 -0.2094  0.6913  0.1173
  100MOL0     O13366   0.018  10.969   8.426 -1.1259 -0.1398 -0.2868
  100MOL0     C13367  -0.029  10.865   8.390 -0.4604  0.3166 -0.3322
  100MOL0     O13368   0.040  10.749   8.362  0.4994 -0.6972 -0.2449
  100MOL0     C13369   0.175  10.751   8.364 -0.0514  0.2728 -0.8121
  100MOL0     C13370   0.259  10.752   8.475  0.4650  0.5397 -0.4153
  100MOL0     C13371   0.403  10.738   8.457  0.0473 -0.1451 -0.6431
  100MOL0     C13372   0.463  10.748   8.332 -0.0754 -0.0004  0.3538
  100MOL0     O13373   0.592  10.732   8.311 -1.0274  0.2039  0.4746
  100MOL0     C13374   0.622  10.598   8.279 -0.6158  0.1582 -1.3143
  100MOL0     C13375   0.682  10.517   8.399  0.6781 -1.4362  0.6360
  100MOL0     C13376   0.695  10.366   8.369 -0.8562 -0.0691 -0.6897
  100MOL0     C13377   0.804  10.303   8.465  1.4223 -0.9872  0.4411
  100MOL0     C13378   0.848  10.164   8.427 -0.4592  0.4726 -0.7966
  100MOL0     C13379   0.747  10.044   8.443  0.2964 -0.6736 -0.1324
  100MOL0     C13380   0.827   9.924   8.465  0.4517 -0.0437  0.9000
  100MOL0     C13381   0.756   9.802   8.414 -0.0686 -0.2333 -0.5351
  100MOL0     N13382   0.802   9.681   8.481 -0.8086 -0.3769 -0.2150
  100MOL0     C13383   0.912   9.602   8.450 -0.8931  0.0267 -0.3702
  100MOL0     C13384   0.897   9.489   8.518  0.8661 -0.4677 -0.1035
  100MOL0     C13385   0.991   9.374   8.509  0.1013  0.3210 -0.7440
  100MOL0     C13386   0.937   9.246   8.475 -0.2873  0.4382 -0.0576
  100MOL0     C13387   0.976   9.134   8.562 -0.3577 -0.0142  0.1894
  100MOL0     C13388   1.127   9.111   8.547 -0.0360 -0.2394  0.0371
  100MOL0     O13389   1.164   9.083   8.414 -0.5403 -0.4625  0.2220
  100MOL0     C13390   1.300   9.072   8.383  0.6950  0.0483  0.0151
  100MOL0     C13391   1.338   9.032   8.253  0.7304 -0.6478 -0.3225
  100MOL0     C13392   1.474   9.012   8.219  0.6293 -0.4677 -0.3090
  100MOL0     C13393   1.567   9.038   8.318  0.3247  0.4428  1.7673
  100MOL0     C13394   1.706   9.009   8.293  0.6266 -0.0819  0.2269
  100MOL0     O13395   1.780   9.008   8.407  0.2978  0.0523  0.3255
  100MOL0     C13396   1.903   8.953   8.397  0.3352 -0.3905  0.6737
  100MOL0     C13397   1.923   8.824   8.348 -0.0621  0.0699 -0.4719
  100MOL0     C13398   2.054   8.770   8.342 -0.4047  0.6180 -0.2134
  100MOL0     C13399   2.164   8.842   8.390 -0.0683 -0.2241  0.2354
  100MOL0     O13400   2.287   8.788   8.406  0.5037 -0.7099 -0.1331
  100MOL0     C13401   2.361   8.766   8.285 -0.0241 -0.4164  0.3699
  100MOL0     C13402   2.511   8.750   8.320  1.0817 -0.7231  0.4492
  100MOL0     C13403   2.575   8.886   8.352  0.3713  0.2727 -0.0365
  100MOL0     C13404   2.596   8.971   8.220  0.1756  0.7711  0.2292
  100MOL0     C13405   2.660   9.106   8.238 -0.1524  1.0366 -1.1084
  100MOL0     C13406   2.812   9.108   8.252  0.6960  0.5530  0.1961
  100MOL0     C13407   2.862   9.248   8.239 -0.0322  0.5264 -1.1929
  100MOL0     C13408   3.010   9.247   8.194 -0.2751  0.9240  0.4394
  100MOL0    Cl13409   3.115   9.187   8.325  0.3001  0.3576 -0.4084
  100MOL0     C13410   2.147   8.976   8.431  0.1229 -0.4161 -0.2918
  100MOL0     C13411   2.010   9.037   8.431 -1.0376  1.1642  0.2001
  100MOL0     O13412   1.750   9.014   8.181  0.0139  0.8972 -0.2936
  100MOL0     C13413   1.526   9.077   8.443 -0.5983 -0.2592 -0.7202
  100MOL0     C13414   1.397   9.096   8.476 -0.0205 -1.1490 -0.5742
  100MOL0     N13415   0.786   9.498   8.596 -0.5556  0.4350 -0.4200
  100MOL0     N13416   0.726   9.610   8.573 -0.4938  0.2477  0.0821
  100MOL0     C13417   0.375  10.752   8.224 -0.4557  0.3076  0.5486
  100MOL0     C13418   0.237  10.748   8.239 -0.0951  0.6394  0.5389
  100MOL0     C13419  -0.176  10.854   8.383  0.5870 -0.0438  0.4986
  100MOL0     C13420  -0.244  10.933   8.476  0.4257  0.4706 -0.0621
  100MOL0     C13421  -0.385  10.929   8.473 -0.1494 -0.0817  0.2288
  100MOL0     C13422  -0.460  10.857   8.376 -0.4470  0.5384 -0.0146
  100MOL0     O13423  -0.597  10.848   8.379 -0.1461 -0.1559  0.9935
  100MOL0     C13424  -0.678  10.910   8.483  0.7046  0.2033  0.2517
  100MOL0     C13425  -0.811  10.961   8.423  0.2394 -0.9929  0.2792
  100MOL0     C13426  -0.873  10.872   8.306  1.1497 -0.5276  0.0460
  100MOL0     C13427  -1.016  10.930   8.271 -0.0147  0.2982 -0.0800
  100MOL0     C13428  -0.994  11.069   8.218 -0.4342 -0.7454 -0.1805
  100MOL0     C13429  -0.962  11.185   8.185 -0.2836 -0.6345  1.1546
  100MOL0     C13430  -0.387  10.782   8.282  0.0313 -0.4339 -0.5116
  100MOL0     C13431  -0.243  10.772   8.289  0.2678 -0.7336 -0.4135
  100MOL0     C13432  -0.174  10.686   8.178  0.4154  0.4699 -0.5415
  100MOL0     H13433   0.231  10.766   8.579 -0.0875  0.1146 -0.4999
  100MOL0     H13434   0.466  10.725   8.544 -1.6498 -0.8828  0.5409
  100MOL0     H13435   0.530  10.551   8.241 -2.3600  2.7689 -0.6107
  100MOL0     H13436   0.694  10.594   8.197  1.5043 -0.2271  0.4731
  100MOL0     H13437   0.619  10.533   8.487 -2.1980 -5.7837 -0.3355
  100MOL0     H13438   0.774  10.565   8.434 -0.3418 -1.6167  3.8198
  100MOL0     H13439   0.717  10.346   8.264 -0.4601  1.7231 -0.9853
  100MOL0     H13440   0.598  10.318   8.386 -1.8145  0.2905 -4.3164
  100MOL0     H13441   0.898  10.360   8.463 -0.4689  2.3580 -1.5150
  100MOL0     H13442   0.765  10.301   8.567 -0.3486 -0.1988 -0.1841
  100MOL0     H13443   0.896  10.173   8.329  1.0409  3.5400  0.1145
  100MOL0     H13444   0.932  10.136   8.491 -1.4248  1.5129  0.9948
  100MOL0     H13445   0.687  10.070   8.531  0.2192 -1.6832  0.1292
  100MOL0     H13446   0.677  10.047   8.359  0.1186  1.8568  0.0442
  100MOL0     H13447   0.838   9.911   8.573  1.6852 -2.0333  0.5851
  100MOL0     H13448   0.920   9.931   8.409 -1.1035 -0.4053 -1.9223
  100MOL0     H13449   0.648   9.806   8.430 -0.0106 -0.5459 -0.0401
  100MOL0     H13450   0.778   9.796   8.307  1.2179 -0.8588 -0.2568
  100MOL0     H13451   0.989   9.628   8.378 -0.6637  1.1545  0.2647
  100MOL0     H13452   1.079   9.386   8.445  0.8103 -1.7992 -0.2474
  100MOL0     H13453   1.023   9.368   8.613  1.4470 -3.0010 -1.2446
  100MOL0     H13454   0.827   9.248   8.479 -0.6273 -5.1283  1.4044
  100MOL0     H13455   0.956   9.217   8.371  0.1467  1.0390 -0.1496
  100MOL0     H13456   0.907   9.053   8.538 -3.6090  1.8566  2.4012
  100MOL0     H13457   0.938   9.153   8.663 -1.6351 -1.2145 -0.0320
  100MOL0     H13458   1.153   9.026   8.611  1.7387  1.0632  1.1225
  100MOL0     H13459   1.179   9.197   8.589 -0.1140  0.3604 -1.0535
  100MOL0     H13460   1.260   9.006   8.183  0.9569 -2.7552  0.1164
  100MOL0     H13461   1.498   8.993   8.115 -4.3431  2.2378 -2.2820
  100MOL0     H13462   1.840   8.767   8.308  0.0108  0.5160 -1.2729
  100MOL0     H13463   2.067   8.669   8.304 -0.5234  0.4864  0.0943
  100MOL0     H13464   2.322   8.675   8.239 -3.5405  0.5016  1.2407
  100MOL0     H13465   2.346   8.848   8.215 -3.4238  0.6448  2.0985
  100MOL0     H13466   2.521   8.673   8.397  0.5298 -0.4916  0.7570
  100MOL0     H13467   2.553   8.710   8.227  0.4547  0.2710 -0.2804
  100MOL0     H13468   2.500   8.944   8.407 -0.6959  1.8433 -2.9099
  100MOL0     H13469   2.666   8.882   8.412  0.4525 -1.6462 -0.2333
  100MOL0     H13470   2.497   8.991   8.178 -1.8640 -1.5811  3.4449
  100MOL0     H13471   2.659   8.914   8.151 -0.9151  2.2135 -2.0709
  100MOL0     H13472   2.617   9.165   8.320 -0.5500  0.0915 -0.6151
  100MOL0     H13473   2.633   9.161   8.147 -2.0550 -1.6858 -2.3016
  100MOL0     H13474   2.844   9.067   8.348  1.1635  0.4148 -0.0100
  100MOL0     H13475   2.861   9.047   8.175  3.3671  0.7729  1.6030
  100MOL0     H13476   2.845   9.297   8.335 -3.5544  1.3351 -2.1038
  100MOL0     H13477   2.803   9.312   8.173 -0.6060  0.8133 -0.4209
  100MOL0     H13478   3.040   9.189   8.106 -3.7281 -2.6653  1.3331
  100MOL0     H13479   3.047   9.349   8.184  3.2378 -0.3771 -1.7022
  100MOL0     H13480   2.234   9.023   8.475 -0.4374  0.6150 -0.2493
  100MOL0     H13481   1.991   9.137   8.470 -0.3679  0.0737  3.6416
  100MOL0     H13482   1.601   9.114   8.512 -1.6907  0.2392  0.2261
  100MOL0     H13483   1.391   9.121   8.582  1.8135 -1.3371 -0.3922
  100MOL0     H13484   0.428  10.735   8.131  0.5766 -1.0781  1.3412
  100MOL0     H13485   0.179  10.746   8.148  0.5109 -1.3964  0.1397
  100MOL0     H13486  -0.187  10.997   8.544  2.8928  0.9752 -2.4073
  100MOL0     H13487  -0.440  10.988   8.545 -3.9721 -0.5641 -2.0473
  100MOL0     H13488  -0.623  10.996   8.521 -0.2121  0.1168  1.8651
  100MOL0     H13489  -0.696  10.847   8.571  0.4613  0.3852  0.3334
  100MOL0     H13490  -0.790  11.063   8.387 -2.3745 -0.4920 -0.0048
  100MOL0     H13491  -0.879  10.971   8.508  0.7034  1.8996  0.4319
  100MOL0     H13492  -0.884  10.768   8.336  1.3146 -0.4363  0.4372
  100MOL0     H13493  -0.809  10.877   8.218  1.3165  2.9530  0.1940
  100MOL0     H13494  -1.056  10.870   8.188  1.0743 -0.3484 -0.1638
  100MOL0     H13495  -1.077  10.926   8.361  1.7430  0.4522  1.1643
  100MOL0     H13496  -0.930  11.282   8.152 -2.8123 -0.0616  0.1024
  100MOL0     H13497  -0.444  10.731   8.205  2.3269 -2.0920 -1.2057
  100MOL0     H13498  -0.148  10.591   8.227 -0.2416  2.5895  4.5936
  100MOL0     H13499  -0.231  10.664   8.088  0.3345 -1.0727 -0.1537
  100MOL0     H13500  -0.078  10.726   8.146  2.1320 -1.8501  1.2806
  101MOL0     O13501   7.069   4.404   9.036 -0.3015  0.2760 -0.5630
  101MOL0     C13502   7.055   4.421   8.915  0.1553  0.1972 -0.3938
  101MOL0     O13503   7.156   4.435   8.823  0.1371 -0.2563 -0.4672
  101MOL0     C13504   7.278   4.484   8.850 -0.3469  0.8558 -0.4062
  101MOL0     C13505   7.393   4.437   8.782 -0.1985  0.3730  0.0311
  101MOL0     C13506   7.523   4.491   8.803 -0.3783  1.0721 -0.3263
  101MOL0     C13507   7.535   4.592   8.903 -0.4098 -0.6300  0.7045
  101MOL0     O13508   7.661   4.637   8.942 -0.0578  0.6410 -0.1887
  101MOL0     C13509   7.729   4.542   9.037  0.5283 -1.0075  0.6221
  101MOL0     C13510   7.772   4.404   8.985  0.1658  0.2438 -0.3844
  101MOL0     C13511   7.787   4.306   9.103 -0.0016  0.6786  0.0853
  101MOL0     C13512   7.931   4.281   9.146 -0.1135  0.2975 -0.5027
  101MOL0     C13513   7.945   4.171   9.244  0.9136  0.0283 -0.4674
  101MOL0     C13514   8.059   4.078   9.206 -0.2679 -0.2283 -0.1242
  101MOL0     C13515   8.010   3.948   9.139  0.3287  0.3399  0.2467
  101MOL0     C13516   8.116   3.865   9.075 -0.4117  0.3084  0.4183
  101MOL0     N13517   8.216   3.838   9.176  0.0145  0.2006  0.3988
  101MOL0     C13518   8.200   3.730   9.260  0.5586 -0.0453  0.5417
  101MOL0     C13519   8.303   3.741   9.336 -0.3748 -0.3149 -0.5378
  101MOL0     C13520   8.331   3.647   9.449 -0.4619  0.6962 -0.8058
  101MOL0     C13521   8.413   3.520   9.414 -1.0141 -0.0031  0.0480
  101MOL0     C13522   8.414   3.426   9.535 -1.4435  0.5890 -1.0893
  101MOL0     C13523   8.494   3.300   9.502 -0.4291 -1.0124 -0.1433
  101MOL0     O13524   8.637   3.331   9.493  0.2967 -0.2716 -0.3945
  101MOL0     C13525   8.708   3.229   9.441  0.0645  0.4408 -0.5181
  101MOL0     C13526   8.818   3.192   9.510 -0.5308 -0.0104 -0.8785
  101MOL0     C13527   8.904   3.099   9.454  0.0273  0.0932 -0.2308
  101MOL0     C13528   8.873   3.016   9.347  0.2846  0.4197  0.5653
  101MOL0     C13529   8.956   2.901   9.304 -0.0536 -0.6271 -0.8302
  101MOL0     O13530   9.060   2.865   9.380  0.1214  0.1163 -0.3531
  101MOL0     C13531   9.128   2.746   9.353 -1.0763  0.0240 -0.3943
  101MOL0     C13532   9.177   2.730   9.227  0.1682 -0.1747 -0.3599
  101MOL0     C13533   9.244   2.620   9.192 -0.4996 -0.1596 -0.0588
  101MOL0     C13534   9.279   2.523   9.282 -0.0468 -0.5601  0.4661
  101MOL0     O13535   9.347   2.406   9.255  0.0310 -0.6907  1.5290
  101MOL0     C13536   9.433   2.410   9.139  0.2135  0.8165  0.4597
  101MOL0     C13537   9.527   2.285   9.132  1.1461 -0.0706 -0.1878
  101MOL0     C13538   9.438   2.159   9.145  0.4849 -0.5417  0.2281
  101MOL0     C13539   9.512   2.029   9.140 -0.2606 -0.2811 -0.6213
  101MOL0     C13540   9.429   1.909   9.095  0.1155  0.4575 -0.0786
  101MOL0     C13541   9.326   1.856   9.200 -0.0173  0.0650 -0.7294
  101MOL0     C13542   9.256   1.725   9.169  0.5106  0.2088 -0.5076
  101MOL0     C13543   9.334   1.595   9.175  0.1462  0.4327  0.0343
  101MOL0    Cl13544   9.393   1.563   9.340  0.1878  0.3936  0.3807
  101MOL0     C13545   9.249   2.543   9.412 -0.2007 -0.3048 -0.1642
  101MOL0     C13546   9.170   2.655   9.455 -0.3485 -0.7164  0.1392
  101MOL0     O13547   8.917   2.836   9.208 -0.1119 -0.5216  0.0809
  101MOL0     C13548   8.758   3.057   9.272  0.1518 -0.6104 -0.2967
  101MOL0     C13549   8.682   3.166   9.320  0.2876 -0.6416  0.1614
  101MOL0     N13550   8.381   3.853   9.306 -0.7282  0.7085 -0.3208
  101MOL0     N13551   8.322   3.916   9.208 -0.0984  0.1305 -0.5748
  101MOL0     C13552   7.422   4.639   8.969 -0.1274  0.9720  0.0823
  101MOL0     C13553   7.299   4.580   8.948  0.1079 -0.5656 -0.4235
  101MOL0     C13554   6.913   4.418   8.863  0.0196  0.1248  0.3544
  101MOL0     C13555   6.879   4.502   8.755  1.2902 -0.9440  0.0643
  101MOL0     C13556   6.745   4.521   8.706 -0.2127  0.0982 -0.3570
  101MOL0     C13557   6.648   4.436   8.749  0.6742 -0.6863  0.1978
  101MOL0     O13558   6.526   4.434   8.678 -0.1145 -0.3576  0.5712
  101MOL0     C13559   6.406   4.430   8.755  0.0766 -0.4192 -0.5580
  101MOL0     C13560   6.288   4.495   8.691  0.0672 -0.1512 -0.1626
  101MOL0     C13561   6.174   4.484   8.794 -0.2823  0.6949 -0.6476
  101MOL0     C13562   6.042   4.533   8.736 -0.2480  0.3204 -0.0066
  101MOL0     C13563   6.003   4.474   8.608 -0.6744 -0.4252 -0.1320
  101MOL0     C13564   5.958   4.420   8.507  0.0111  0.2864  0.2386
  101MOL0     C13565   6.675   4.353   8.859  0.5261  0.7813  0.4449
  101MOL0     C13566   6.803   4.337   8.913  0.0537 -0.2465 -0.0481
  101MOL0     C13567   6.821   4.242   9.032 -0.6062  0.0054  0.9523
  101MOL0     H13568   7.382   4.351   8.716  1.3664 -0.4729  0.8133
  101MOL0     H13569   7.600   4.457   8.735 -1.8603  1.6868 -2.4204
  101MOL0     H13570   7.817   4.588   9.083  0.0227 -0.4096  1.0147
  101MOL0     H13571   7.651   4.520   9.111 -2.3167 -2.2229 -2.4520
  101MOL0     H13572   7.867   4.418   8.933  1.7286  0.1836  2.2502
  101MOL0     H13573   7.694   4.362   8.922 -0.6439  1.2033 -0.0568
  101MOL0     H13574   7.746   4.210   9.069 -2.4450  1.6639  0.0455
  101MOL0     H13575   7.718   4.330   9.185  1.1642  0.5104  1.1551
  101MOL0     H13576   7.984   4.271   9.051  0.2908  0.9896 -0.3607
  101MOL0     H13577   7.979   4.367   9.195 -0.6873 -0.4767  1.5115
  101MOL0     H13578   7.970   4.221   9.337  1.6285 -1.3911  0.1354
  101MOL0     H13579   7.849   4.119   9.252 -2.1503  4.7479 -1.8566
  101MOL0     H13580   8.129   4.137   9.146 -0.8261  0.3112 -0.2596
  101MOL0     H13581   8.111   4.049   9.298  0.6892 -2.2011 -1.2201
  101MOL0     H13582   7.940   3.969   9.058 -2.1340  0.4345  2.2991
  101MOL0     H13583   7.957   3.884   9.210  0.0824  1.3296  0.9764
  101MOL0     H13584   8.079   3.768   9.041  1.6067 -0.8080  1.2076
  101MOL0     H13585   8.168   3.921   8.997  0.5352 -1.0656  0.0299
  101MOL0     H13586   8.111   3.669   9.258 -0.5692  1.5254  0.3977
  101MOL0     H13587   8.392   3.705   9.519  3.0750 -1.5119 -1.8090
  101MOL0     H13588   8.236   3.614   9.490  0.0595  0.8424  0.5813
  101MOL0     H13589   8.357   3.474   9.333 -0.6951  1.7206 -1.2253
  101MOL0     H13590   8.510   3.562   9.385  0.5960  1.0561  5.6933
  101MOL0     H13591   8.310   3.394   9.551 -1.3001  0.1798 -0.9603
  101MOL0     H13592   8.453   3.474   9.625 -3.0814  2.0421 -1.0997
  101MOL0     H13593   8.446   3.262   9.411 -3.1741  1.8826 -0.0680
  101MOL0     H13594   8.488   3.228   9.585  0.0626 -1.3453 -0.3923
  101MOL0     H13595   8.848   3.242   9.602  0.1642  0.7593 -1.5058
  101MOL0     H13596   8.999   3.080   9.502 -0.5313  0.2624  0.9697
  101MOL0     H13597   9.169   2.802   9.146  1.5900 -1.2435 -1.5069
  101MOL0     H13598   9.276   2.622   9.089  1.3036  4.8440  0.3277
  101MOL0     H13599   9.357   2.408   9.060 -1.3800 -0.1581  1.9213
  101MOL0     H13600   9.499   2.496   9.130  0.1032  0.7009 -2.2099
  101MOL0     H13601   9.594   2.286   9.045  3.2136 -0.0412  1.3220
  101MOL0     H13602   9.591   2.269   9.219 -0.2243 -1.0855  0.6683
  101MOL0     H13603   9.356   2.161   9.218 -2.2584  1.5216 -2.5939
  101MOL0     H13604   9.380   2.173   9.053  0.2934  1.1157  0.5681
  101MOL0     H13605   9.546   2.008   9.242  0.8153  2.6759 -0.2968
  101MOL0     H13606   9.605   2.024   9.083  1.1245 -0.8314  1.5464
  101MOL0     H13607   9.508   1.835   9.077  1.2472  1.7639 -0.7378
  101MOL0     H13608   9.387   1.940   8.999  1.2968 -0.2381 -0.8412
  101MOL0     H13609   9.383   1.847   9.293  2.0485  1.3731 -1.8001
  101MOL0     H13610   9.246   1.930   9.216  0.1277  0.3424 -1.2487
  101MOL0     H13611   9.200   1.740   9.076 -1.2366  1.4872  0.6762
  101MOL0     H13612   9.182   1.714   9.249 -1.2795  1.5516 -1.9017
  101MOL0     H13613   9.273   1.513   9.136 -0.4258  0.1078  1.5241
  101MOL0     H13614   9.417   1.591   9.105 -2.1057  1.2672 -2.9182
  101MOL0     H13615   9.278   2.476   9.492  1.0883  2.4095  1.8328
  101MOL0     H13616   9.134   2.659   9.557 -2.2503 -1.5621 -0.4542
  101MOL0     H13617   8.724   3.003   9.184 -1.9779  0.9142 -0.4817
  101MOL0     H13618   8.608   3.207   9.252  0.7732 -0.2311 -0.1280
  101MOL0     H13619   7.435   4.714   9.046  1.7972  0.1855  0.5972
  101MOL0     H13620   7.208   4.610   8.999 -1.6090 -2.4726 -2.1323
  101MOL0     H13621   6.947   4.572   8.708  0.5482 -0.6352 -0.5851
  101MOL0     H13622   6.736   4.583   8.617  0.1335 -0.2113 -0.6082
  101MOL0     H13623   6.426   4.475   8.852  1.0847 -1.4995 -0.2385
  101MOL0     H13624   6.389   4.323   8.771  2.1097 -0.4306  2.1825
  101MOL0     H13625   6.250   4.461   8.593 -1.3077  0.8089  0.0032
  101MOL0     H13626   6.306   4.602   8.680 -0.7327  0.1195  1.0278
  101MOL0     H13627   6.194   4.543   8.884 -0.7654  2.6244 -1.7637
  101MOL0     H13628   6.160   4.377   8.817 -1.7511  0.9320 -0.3040
  101MOL0     H13629   5.969   4.511   8.815  2.4811 -2.7482  1.9569
  101MOL0     H13630   6.060   4.641   8.727  0.4114  0.1494 -0.8375
  101MOL0     H13631   5.902   4.372   8.429 -1.6665 -0.9287  2.0896
  101MOL0     H13632   6.595   4.292   8.901  0.8535 -1.0473 -1.4321
  101MOL0     H13633   6.805   4.293   9.127  1.0771  0.7001  0.8920
  101MOL0     H13634   6.744   4.164   9.032 -1.7492  1.0953  0.6039
  101MOL0     H13635   6.923   4.202   9.032 -0.1416  0.9418 -2.1731
  102MOL0     O13636   9.703   7.933  10.784  0.5949  0.1229 -0.4846
  102MOL0     C13637   9.743   7.815  10.779 -0.0268  0.6655  0.1680
  102MOL0     O13638   9.871   7.766  10.812  0.1895  0.1935 -0.4324
  102MOL0     C13639   9.965   7.850  10.875  0.1410  0.2611  0.1142
  102MOL0     C13640   9.932   7.944  10.977 -0.1365 -0.0074  0.6775
  102MOL0     C13641  10.029   8.018  11.042 -0.4102  0.0041  0.0060
  102MOL0     C13642  10.159   8.007  11.004 -0.1874 -1.0383 -0.3525
  102MOL0     O13643  10.262   8.065  11.073  0.2837 -0.4784  0.4975
  102MOL0     C13644  10.243   8.165  11.171  0.3816  1.1312 -0.1355
  102MOL0     C13645  10.369   8.232  11.223  0.5391  0.9291 -0.1679
  102MOL0     C13646  10.442   8.322  11.124  0.1648  0.1508 -0.1913
  102MOL0     C13647  10.483   8.265  10.987 -0.0387 -0.1840  0.4160
  102MOL0     C13648  10.581   8.365  10.907  0.3966 -0.5135  0.5139
  102MOL0     C13649  10.605   8.314  10.757 -0.4027  0.4106  0.0252
  102MOL0     C13650  10.704   8.402  10.685  0.3729 -0.0185  0.8257
  102MOL0     C13651  10.750   8.325  10.564  0.5879  0.8149  0.2461
  102MOL0     N13652  10.869   8.378  10.498 -0.0847  0.0820  0.6388
  102MOL0     C13653  10.928   8.313  10.389  0.4714 -1.0247  0.4743
  102MOL0     C13654  11.017   8.403  10.347 -0.5480  1.2491 -0.0492
  102MOL0     C13655  11.116   8.381  10.244 -0.9439  0.6882  0.2286
  102MOL0     C13656  11.267   8.403  10.278 -0.5315  0.2295 -0.0768
  102MOL0     C13657  11.353   8.337  10.174 -0.3158  0.3111  0.0274
  102MOL0     C13658  11.503   8.348  10.199 -0.4072 -0.7133 -0.2589
  102MOL0     O13659  11.544   8.481  10.189  0.2631 -0.5995  0.5738
  102MOL0     C13660  11.681   8.509  10.163 -0.3715  0.0398  0.7946
  102MOL0     C13661  11.776   8.411  10.173 -0.4993  0.7013  0.3272
  102MOL0     C13662  11.915   8.438  10.137  0.2342  0.2877 -0.4358
  102MOL0     C13663  11.948   8.564  10.099  0.0731  0.5550  0.8318
  102MOL0     C13664  12.096   8.596  10.071  0.9680  0.3906 -0.2953
  102MOL0     O13665  12.112   8.677   9.957 -0.0785 -0.0175 -1.0044
  102MOL0     C13666  12.238   8.724   9.919  0.3387  0.3493  0.1235
  102MOL0     C13667  12.358   8.649   9.897 -0.0667 -0.1457 -0.0619
  102MOL0     C13668  12.471   8.714   9.847 -1.4694  0.3030 -0.1525
  102MOL0     C13669  12.474   8.852   9.819  0.2352 -0.4585 -0.1268
  102MOL0     O13670  12.578   8.916   9.755 -0.0606  0.0662  0.1065
  102MOL0     C13671  12.698   8.836   9.729  0.2155  0.3270 -0.2986
  102MOL0     C13672  12.786   8.931   9.659 -0.7767 -0.2564 -0.0626
  102MOL0     C13673  12.917   8.864   9.608 -0.1444 -0.4030 -0.0627
  102MOL0     C13674  13.004   8.963   9.538 -0.3443 -1.4121  0.8094
  102MOL0     C13675  13.124   8.885   9.490 -0.9938 -0.3954  0.1750
  102MOL0     C13676  13.223   8.837   9.603 -0.4638 -0.2416 -0.9209
  102MOL0     C13677  13.353   8.775   9.557 -0.0014  0.0658 -0.4072
  102MOL0     C13678  13.449   8.747   9.676 -0.1401  0.1340  0.3723
  102MOL0    Cl13679  13.526   8.891   9.741  0.1399  0.0822 -0.1428
  102MOL0     C13680  12.354   8.928   9.846 -0.0665  0.0381  0.4602
  102MOL0     C13681  12.245   8.865   9.894 -0.8391 -0.9543 -0.9630
  102MOL0     O13682  12.184   8.551  10.147 -0.3207 -0.1759  0.2358
  102MOL0     C13683  11.846   8.661  10.089 -0.6935 -0.7034 -0.5327
  102MOL0     C13684  11.718   8.642  10.138  0.4063  0.6386 -0.1680
  102MOL0     N13685  11.007   8.518  10.424  0.2166  0.4476 -0.2444
  102MOL0     N13686  10.910   8.505  10.515 -0.2564 -0.8480 -0.2551
  102MOL0     C13687  10.194   7.913  10.908  0.6668  0.2363  0.3890
  102MOL0     C13688  10.102   7.829  10.838  0.4299 -0.7500 -0.3626
  102MOL0     C13689   9.648   7.707  10.725 -0.3571 -0.0864  0.5085
  102MOL0     C13690   9.702   7.589  10.659 -0.1950  0.1120  0.0551
  102MOL0     C13691   9.615   7.493  10.597 -0.3580  0.3529 -0.0124
  102MOL0     C13692   9.480   7.504  10.608  0.0117  0.1926  0.5644
  102MOL0     O13693   9.401   7.396  10.571  0.3195  0.4033 -0.5367
  102MOL0     C13694   9.257   7.400  10.571  0.8033 -0.8102  0.3172
  102MOL0     C13695   9.209   7.264  10.521 -0.0772 -0.0092 -0.2867
  102MOL0     C13696   9.053   7.237  10.500  0.6933 -0.3480 -0.0424
  102MOL0     C13697   9.036   7.082  10.473 -1.1501 -0.2325 -0.3272
  102MOL0     C13698   9.006   7.001  10.589  0.2697 -0.3836  0.3208
  102MOL0     C13699   8.963   6.924  10.676  0.5283  0.8043  0.0550
  102MOL0     C13700   9.424   7.618  10.672 -0.0330 -0.5814  0.3117
  102MOL0     C13701   9.508   7.723  10.731 -0.1194  0.7170  0.0036
  102MOL0     C13702   9.440   7.844  10.789 -0.5595 -0.0276  0.2530
  102MOL0     H13703   9.827   7.962  10.998 -0.1395 -0.7283  1.3272
  102MOL0     H13704   9.993   8.075  11.127  0.1531  0.3151  0.0399
  102MOL0     H13705  10.174   8.245  11.143 -2.4414 -0.4454  1.8973
  102MOL0     H13706  10.202   8.118  11.260 -1.3114  0.1539 -1.3657
  102MOL0     H13707  10.434   8.156  11.268  0.4820  0.0854 -1.4442
  102MOL0     H13708  10.351   8.293  11.312 -2.0943  0.6201 -0.3887
  102MOL0     H13709  10.525   8.356  11.187 -1.3205 -0.0465  1.9681
  102MOL0     H13710  10.380   8.410  11.104  0.0807  0.5143  1.5473
  102MOL0     H13711  10.544   8.175  11.002 -0.5970 -1.0042 -1.8312
  102MOL0     H13712  10.392   8.250  10.929  0.5093  0.4799 -0.6680
  102MOL0     H13713  10.534   8.464  10.901 -0.1091 -0.6658  1.6107
  102MOL0     H13714  10.679   8.387  10.951  1.2778  1.3123 -2.0872
  102MOL0     H13715  10.651   8.214  10.760 -1.1689 -0.0788 -2.4561
  102MOL0     H13716  10.509   8.314  10.705 -0.4019  2.7589 -0.0500
  102MOL0     H13717  10.788   8.442  10.744 -1.7436  4.0071  1.4728
  102MOL0     H13718  10.649   8.487  10.645 -1.2201 -1.1223  0.5960
  102MOL0     H13719  10.769   8.223  10.598 -2.7646  0.6853  2.1726
  102MOL0     H13720  10.664   8.316  10.496  0.9514 -0.6408 -0.0689
  102MOL0     H13721  10.923   8.212  10.350  4.1560 -0.8201 -0.9458
  102MOL0     H13722  11.113   8.279  10.206  4.5811  0.2108  0.2157
  102MOL0     H13723  11.084   8.431  10.152 -0.6756 -2.8867 -2.0008
  102MOL0     H13724  11.279   8.510  10.298 -1.0121 -0.4743  5.9647
  102MOL0     H13725  11.295   8.366  10.377  2.1938  1.1355 -0.4249
  102MOL0     H13726  11.341   8.383  10.075 -0.4996  0.0833 -0.0564
  102MOL0     H13727  11.336   8.229  10.179 -0.0269 -0.1800 -4.7903
  102MOL0     H13728  11.564   8.301  10.121  1.3761  2.2804 -0.8114
  102MOL0     H13729  11.513   8.302  10.298  4.8798  2.1658  0.8803
  102MOL0     H13730  11.744   8.316  10.215 -1.2373  1.1461  0.7843
  102MOL0     H13731  11.989   8.359  10.146 -0.4994 -0.5154 -1.1395
  102MOL0     H13732  12.354   8.542   9.915  0.3821 -0.0343  0.7444
  102MOL0     H13733  12.559   8.653   9.829 -0.0845  1.4699  2.2232
  102MOL0     H13734  12.748   8.814   9.824  0.1034  1.8689  0.1376
  102MOL0     H13735  12.668   8.749   9.670 -1.7030 -0.0652  1.1547
  102MOL0     H13736  12.730   8.957   9.568  0.1226 -0.4902 -0.7021
  102MOL0     H13737  12.798   9.012   9.731 -0.3124  1.4906 -2.0064
  102MOL0     H13738  12.961   8.815   9.695 -1.1789 -1.5221 -0.1426
  102MOL0     H13739  12.876   8.788   9.542 -1.9246  0.6105 -0.1900
  102MOL0     H13740  13.026   9.050   9.600  0.7191 -0.8255 -0.3487
  102MOL0     H13741  12.942   9.002   9.456  2.7017  1.7911 -0.2030
  102MOL0     H13742  13.189   8.945   9.425 -0.0677  1.2535  2.5186
  102MOL0     H13743  13.101   8.789   9.443 -0.1394 -0.4614 -0.1286
  102MOL0     H13744  13.245   8.913   9.678 -0.1700 -0.7351 -0.4999
  102MOL0     H13745  13.171   8.756   9.655  2.9230 -2.1578 -0.1806
  102MOL0     H13746  13.399   8.845   9.487  1.0392  2.8124  2.7620
  102MOL0     H13747  13.330   8.683   9.503 -0.2624 -0.7737  1.0835
  102MOL0     H13748  13.386   8.692   9.746  0.6876 -1.7102 -0.2510
  102MOL0     H13749  13.528   8.679   9.641 -0.8772  0.1127 -1.3552
  102MOL0     H13750  12.360   9.037   9.840  2.2815 -0.0942 -1.9271
  102MOL0     H13751  12.159   8.928   9.911  0.3962  0.4842  0.2668
  102MOL0     H13752  11.875   8.761  10.059  0.6637 -0.5080  1.2389
  102MOL0     H13753  11.645   8.722  10.144  0.6856  0.7966  1.7414
  102MOL0     H13754  10.296   7.916  10.871  0.1380 -1.0422 -1.3337
  102MOL0     H13755  10.127   7.765  10.754 -1.0073 -0.6669 -0.8842
  102MOL0     H13756   9.808   7.573  10.646 -0.1117  0.9326 -0.3955
  102MOL0     H13757   9.659   7.409  10.545  0.8698 -0.0778  1.6339
  102MOL0     H13758   9.218   7.484  10.514  1.2847  0.0843  1.2559
  102MOL0     H13759   9.225   7.414  10.675 -0.0701 -0.2325 -0.0175
  102MOL0     H13760   9.253   7.193  10.592 -0.9929  1.5968  2.0259
  102MOL0     H13761   9.254   7.260  10.422 -1.7808 -0.7284 -1.0779
  102MOL0     H13762   9.010   7.300  10.421  0.4214 -1.1441 -0.5493
  102MOL0     H13763   9.003   7.257  10.595 -0.7833  1.8178 -1.1991
  102MOL0     H13764   8.941   7.081  10.419 -1.6976  1.4388  0.5335
  102MOL0     H13765   9.119   7.040  10.415  0.6481  2.3012  0.2162
  102MOL0     H13766   8.925   6.845  10.739  2.5387  0.1721  0.5375
  102MOL0     H13767   9.316   7.627  10.677 -0.4266 -3.5060 -0.8745
  102MOL0     H13768   9.447   7.929  10.722  0.6119 -0.0388  0.3412
  102MOL0     H13769   9.336   7.810  10.793 -0.7013 -0.8787 -4.7625
  102MOL0     H13770   9.486   7.879  10.882  1.6250  2.9851 -1.8063
  103MOL0     O13771   7.316   4.315   1.036 -0.5194  0.4256  0.3228
  103MOL0     C13772   7.247   4.227   1.073  0.0517 -0.3287  0.2406
  103MOL0     O13773   7.282   4.125   1.164 -0.4720 -0.1796 -0.0638
  103MOL0     C13774   7.404   4.125   1.226  0.0799  0.6120 -0.3508
  103MOL0     C13775   7.404   4.150   1.362  0.2429 -0.4878 -0.8615
  103MOL0     C13776   7.528   4.138   1.438 -0.3462 -0.8102 -0.3177
  103MOL0     C13777   7.649   4.110   1.377 -0.0898  0.2615  0.3234
  103MOL0     O13778   7.765   4.083   1.458  1.1665  0.2314  0.7901
  103MOL0     C13779   7.882   4.028   1.394 -0.1811 -0.1245 -1.0742
  103MOL0     C13780   7.986   4.125   1.353  0.2731 -1.2272  0.7438
  103MOL0     C13781   8.000   4.247   1.444 -0.4661  0.5861 -0.0204
  103MOL0     C13782   8.138   4.304   1.468 -0.6064 -0.0310 -0.2807
  103MOL0     C13783   8.141   4.432   1.555  0.1595  1.0513  0.0083
  103MOL0     C13784   8.279   4.487   1.583 -0.0185  0.3382  0.5814
  103MOL0     C13785   8.380   4.490   1.458 -0.9036 -0.1794 -0.6496
  103MOL0     C13786   8.512   4.568   1.479  0.8606  0.2168  0.4757
  103MOL0     N13787   8.598   4.547   1.360  0.4820 -0.1354 -0.8849
  103MOL0     C13788   8.699   4.461   1.364  0.5485 -0.7566  0.0105
  103MOL0     C13789   8.760   4.470   1.244 -0.3499 -0.1225 -0.1544
  103MOL0     C13790   8.871   4.369   1.204  0.2716 -0.1483 -0.4500
  103MOL0     C13791   8.992   4.362   1.302 -0.4899  0.9002 -0.1261
  103MOL0     C13792   9.094   4.255   1.253  0.3466 -0.4334 -0.4493
  103MOL0     C13793   9.230   4.273   1.331 -0.6544  0.2542  0.6803
  103MOL0     O13794   9.300   4.371   1.256 -0.7769 -0.3504 -0.1790
  103MOL0     C13795   9.415   4.419   1.311  0.1587  0.7979 -0.0505
  103MOL0     C13796   9.422   4.548   1.361 -0.2727 -0.5681 -0.1931
  103MOL0     C13797   9.547   4.618   1.376  0.2426  0.8100  0.2477
  103MOL0     C13798   9.667   4.550   1.368  0.0081  0.3847  0.6809
  103MOL0     C13799   9.785   4.632   1.388 -0.9724  0.7608  0.5381
  103MOL0     O13800   9.781   4.725   1.488  0.0085  0.5946 -0.5723
  103MOL0     C13801   9.899   4.780   1.520  1.1974 -0.6596  0.3556
  103MOL0     C13802   9.989   4.718   1.606 -0.0079 -0.6593 -0.6721
  103MOL0     C13803  10.107   4.772   1.646  0.2225  0.8057 -0.4591
  103MOL0     C13804  10.146   4.889   1.584  0.0349  0.5144  0.9482
  103MOL0     O13805  10.263   4.947   1.620 -1.1093 -0.3508 -0.7172
  103MOL0     C13806  10.291   5.088   1.596  0.2070  0.6228  0.4505
  103MOL0     C13807  10.431   5.113   1.630  0.3442  0.1878 -0.6898
  103MOL0     C13808  10.480   5.257   1.597  0.1979  0.2996  0.0737
  103MOL0     C13809  10.560   5.261   1.475  0.1428 -0.3099 -0.0051
  103MOL0     C13810  10.619   5.393   1.433 -0.4654 -0.0087 -0.0010
  103MOL0     C13811  10.698   5.393   1.297  0.0208  0.5374  0.4877
  103MOL0     C13812  10.810   5.289   1.292 -0.6844 -0.3625 -0.8086
  103MOL0     C13813  10.870   5.265   1.153  0.0812 -0.4978 -0.2311
  103MOL0    Cl13814  10.976   5.391   1.095  0.2302 -0.3473  0.0236
  103MOL0     C13815  10.071   4.937   1.472 -0.9334  0.1170 -0.2365
  103MOL0     C13816   9.947   4.892   1.447  0.2406  0.0356 -0.6508
  103MOL0     O13817   9.889   4.592   1.331  0.0633 -0.0880  0.1673
  103MOL0     C13818   9.655   4.409   1.331 -0.4703 -0.3370  0.1756
  103MOL0     C13819   9.533   4.353   1.294 -0.3024 -0.0424 -0.2016
  103MOL0     N13820   8.687   4.558   1.164 -0.0163 -0.8056 -0.1253
  103MOL0     N13821   8.586   4.608   1.235 -0.7433 -0.0292 -0.9343
  103MOL0     C13822   7.649   4.102   1.235  0.0371  0.5384  0.7020
  103MOL0     C13823   7.524   4.108   1.162  0.0236 -0.8417 -0.6315
  103MOL0     C13824   7.105   4.227   1.028  0.2488  0.2959 -0.0697
  103MOL0     C13825   7.051   4.334   0.957 -0.3504 -1.1345  0.1175
  103MOL0     C13826   6.909   4.360   0.950  0.6213  0.1516 -0.9099
  103MOL0     C13827   6.824   4.276   1.011  0.3291 -0.4028 -0.4266
  103MOL0     O13828   6.681   4.294   1.011  0.1054 -0.1076 -0.2910
  103MOL0     C13829   6.625   4.391   0.941  0.2808  0.8001 -0.4267
  103MOL0     C13830   6.474   4.383   0.958  0.2720  0.0545  0.1703
  103MOL0     C13831   6.424   4.410   1.100  0.7885  0.2279  0.2074
  103MOL0     C13832   6.275   4.398   1.128 -0.3613 -0.2651  0.4959
  103MOL0     C13833   6.199   4.514   1.071 -0.2711 -0.5960 -0.8413
  103MOL0     C13834   6.122   4.596   1.030  0.2026  0.7850  0.0478
  103MOL0     C13835   6.878   4.165   1.074 -0.1311 -0.4215 -0.4298
  103MOL0     C13836   7.011   4.128   1.075 -1.0055  0.0299  0.0204
  103MOL0     C13837   7.052   3.998   1.140  0.3593 -0.6914 -1.0470
  103MOL0     H13838   7.315   4.167   1.421  2.4442 -0.7080  2.8774
  103MOL0     H13839   7.533   4.149   1.546  0.0401 -2.7179 -0.1164
  103MOL0     H13840   7.926   3.966   1.472 -1.2243  2.2313  1.5553
  103MOL0     H13841   7.855   3.962   1.312  0.1736 -2.5610  0.6669
  103MOL0     H13842   7.964   4.153   1.250 -1.3235 -0.0591  1.3596
  103MOL0     H13843   8.075   4.063   1.344  0.6266 -0.7630  0.9796
  103MOL0     H13844   7.949   4.231   1.540 -0.3792  0.3034 -0.0200
  103MOL0     H13845   7.960   4.335   1.393  0.4477  0.4563 -1.0058
  103MOL0     H13846   8.205   4.229   1.511  0.6602  1.5404  0.5881
  103MOL0     H13847   8.186   4.325   1.372  0.1532  3.3919  0.7213
  103MOL0     H13848   8.088   4.514   1.505 -0.9204 -0.0404 -0.6741
  103MOL0     H13849   8.085   4.411   1.646 -1.1452  1.2272 -0.7359
  103MOL0     H13850   8.281   4.590   1.619 -0.4246  2.0732 -3.7639
  103MOL0     H13851   8.324   4.423   1.659 -1.6352  2.2347  3.2716
  103MOL0     H13852   8.339   4.528   1.365  0.4481  1.6617 -0.5408
  103MOL0     H13853   8.420   4.388   1.451  1.4148  0.6362 -0.1464
  103MOL0     H13854   8.483   4.673   1.474 -0.0006  0.0182  1.1463
  103MOL0     H13855   8.562   4.537   1.571 -1.3345 -2.8196  0.7789
  103MOL0     H13856   8.737   4.397   1.443 -3.0115 -3.1030  0.0000
  103MOL0     H13857   8.825   4.270   1.193  0.7944 -0.5399  0.6756
  103MOL0     H13858   8.919   4.397   1.110  2.3408 -0.0060  0.5906
  103MOL0     H13859   9.034   4.463   1.292 -0.0532  0.7600  0.2300
  103MOL0     H13860   8.963   4.343   1.406 -0.5017 -1.2427 -0.4765
  103MOL0     H13861   9.107   4.263   1.144 -1.0451 -4.0779 -1.0370
  103MOL0     H13862   9.053   4.154   1.265  0.3703 -0.3388  0.5084
  103MOL0     H13863   9.292   4.183   1.340 -0.2422  0.6516  1.9157
  103MOL0     H13864   9.219   4.291   1.438 -2.7154  1.1721  0.3572
  103MOL0     H13865   9.331   4.604   1.375  0.2688 -0.3241  3.3146
  103MOL0     H13866   9.541   4.720   1.413 -1.1708  0.3784  1.2697
  103MOL0     H13867   9.964   4.618   1.642  0.3367 -1.5004 -2.6339
  103MOL0     H13868  10.173   4.728   1.719  1.6302  2.4095 -0.6935
  103MOL0     H13869  10.289   5.111   1.489  4.9671  2.3891  0.5242
  103MOL0     H13870  10.224   5.153   1.652 -0.9383 -1.0653  1.1078
  103MOL0     H13871  10.435   5.108   1.739  0.4212  1.9676 -0.5721
  103MOL0     H13872  10.497   5.037   1.589  1.4412 -0.0345  1.3532
  103MOL0     H13873  10.402   5.331   1.578  1.3911  1.1964 -1.6410
  103MOL0     H13874  10.533   5.300   1.683 -0.1383  0.6310  0.1186
  103MOL0     H13875  10.498   5.236   1.389 -0.4859 -0.3692  0.4565
  103MOL0     H13876  10.646   5.196   1.496  0.6739 -0.2712 -1.8638
  103MOL0     H13877  10.678   5.436   1.514  2.0712 -0.0878 -1.6732
  103MOL0     H13878  10.541   5.469   1.420  1.7847  2.3444 -0.6117
  103MOL0     H13879  10.631   5.361   1.217  0.9499 -1.1772  0.3541
  103MOL0     H13880  10.729   5.493   1.266 -0.4676  0.8371  0.9630
  103MOL0     H13881  10.777   5.188   1.316 -0.5033 -0.5529 -1.3355
  103MOL0     H13882  10.901   5.307   1.350 -1.0946 -0.7540 -0.0320
  103MOL0     H13883  10.916   5.166   1.150 -1.4703 -1.2409 -2.4665
  103MOL0     H13884  10.793   5.244   1.078 -0.3543 -3.1383  0.8448
  103MOL0     H13885  10.111   5.024   1.420 -1.4687  1.2463  1.1648
  103MOL0     H13886   9.882   4.948   1.380  0.2293  0.1037 -0.5818
  103MOL0     H13887   9.753   4.370   1.307  0.3208  1.7955 -0.2846
  103MOL0     H13888   9.530   4.249   1.263  0.7134 -0.8366  2.1368
  103MOL0     H13889   7.739   4.089   1.177 -0.8652 -2.4115 -0.2466
  103MOL0     H13890   7.521   4.102   1.053  0.6969  1.9146 -0.8974
  103MOL0     H13891   7.112   4.415   0.920  0.4758 -1.3681  0.9379
  103MOL0     H13892   6.876   4.446   0.894 -3.1098 -0.8142 -0.4706
  103MOL0     H13893   6.659   4.385   0.837  3.4231 -2.0299  0.5658
  103MOL0     H13894   6.652   4.488   0.984  2.1889  0.4262 -0.6865
  103MOL0     H13895   6.431   4.287   0.928 -0.0640 -0.2814  1.6386
  103MOL0     H13896   6.426   4.452   0.889  1.6695 -4.0726 -5.6890
  103MOL0     H13897   6.454   4.512   1.125 -1.3145  0.1176  3.9267
  103MOL0     H13898   6.486   4.345   1.162 -0.7366 -1.3314  0.2017
  103MOL0     H13899   6.229   4.316   1.072  0.9516  0.1054 -1.2025
  103MOL0     H13900   6.263   4.400   1.237 -2.0812  1.1711  0.3278
  103MOL0     H13901   6.057   4.676   1.004  0.1423  0.6205 -0.3061
  103MOL0     H13902   6.806   4.113   1.136  2.3648 -2.6181  0.8397
  103MOL0     H13903   6.964   3.934   1.150 -0.1571 -0.3703 -3.0389
  103MOL0     H13904   7.137   3.949   1.092  1.4024  0.9676 -0.9860
  103MOL0     H13905   7.083   4.010   1.244  3.8111 -2.9842 -1.6461
  104MOL0     O13906  10.526   4.648   9.212 -0.5747 -0.0802  0.1646
  104MOL0     C13907  10.411   4.622   9.244 -0.6822 -0.6888  0.0942
  104MOL0     O13908  10.348   4.508   9.206 -0.1220 -0.0515  0.3966
  104MOL0     C13909  10.393   4.442   9.091  0.5704 -0.3705 -0.3111
  104MOL0     C13910  10.327   4.469   8.972 -0.2905  0.3959  0.9551
  104MOL0     C13911  10.352   4.387   8.860 -0.2671  0.2476  0.2170
  104MOL0     C13912  10.455   4.290   8.865 -0.1506  1.0680  0.1201
  104MOL0     O13913  10.478   4.200   8.763  0.3237 -0.0169  0.3346
  104MOL0     C13914  10.368   4.117   8.710 -0.0999  0.0246  0.2716
  104MOL0     C13915  10.425   3.995   8.630  0.2987 -0.1365 -0.3614
  104MOL0     C13916  10.490   4.057   8.508  0.6385  0.1684  0.4453
  104MOL0     C13917  10.566   3.951   8.431  0.0812  0.2597 -0.3940
  104MOL0     C13918  10.621   4.015   8.300 -1.0028 -0.0050  1.2530
  104MOL0     C13919  10.744   3.941   8.255  0.4710  0.3358 -0.7316
  104MOL0     C13920  10.712   3.786   8.227  0.8089  1.0826  0.0092
  104MOL0     C13921  10.610   3.749   8.112  0.3869  0.2973  0.6382
  104MOL0     N13922  10.648   3.804   7.981 -0.4999  0.6257 -0.1101
  104MOL0     C13923  10.688   3.739   7.869 -0.1932 -0.6180  0.7764
  104MOL0     C13924  10.683   3.839   7.774  0.2097 -0.5712  0.7268
  104MOL0     C13925  10.722   3.836   7.632 -0.0108 -0.6708  0.0353
  104MOL0     C13926  10.872   3.795   7.624 -0.6631  1.4027  0.6228
  104MOL0     C13927  10.917   3.770   7.482  0.6117 -0.2249 -0.5382
  104MOL0     C13928  11.068   3.764   7.462  0.0884  0.3020  0.3470
  104MOL0     O13929  11.106   3.751   7.324  0.7354  0.2486 -0.9240
  104MOL0     C13930  11.234   3.780   7.290 -0.3212 -0.4799  0.1660
  104MOL0     C13931  11.241   3.800   7.158 -0.0019 -0.0591  0.2595
  104MOL0     C13932  11.359   3.845   7.097 -0.6115  0.5215 -0.9854
  104MOL0     C13933  11.478   3.859   7.169 -1.0117 -0.7704 -0.6887
  104MOL0     C13934  11.599   3.923   7.108 -0.6011 -0.3238  0.0481
  104MOL0     O13935  11.710   3.956   7.186  0.2093  0.2064  0.2200
  104MOL0     C13936  11.833   4.002   7.150  0.3044  0.5575  0.5369
  104MOL0     C13937  11.865   4.057   7.030 -0.5134 -0.5444 -0.6937
  104MOL0     C13938  11.995   4.099   7.005  0.3010  0.0204 -0.4216
  104MOL0     C13939  12.100   4.067   7.096 -0.5318  0.4577  0.2267
  104MOL0     O13940  12.239   4.079   7.049  0.1868  0.5645 -0.0645
  104MOL0     C13941  12.338   4.113   7.152  0.4436  0.1532  0.0687
  104MOL0     C13942  12.442   4.195   7.087  0.0732 -0.1289  0.1267
  104MOL0     C13943  12.547   4.230   7.191  0.1319  0.3821 -0.7354
  104MOL0     C13944  12.668   4.303   7.114  0.1985  0.4503 -0.1554
  104MOL0     C13945  12.681   4.443   7.174 -0.3171  0.4862 -0.1377
  104MOL0     C13946  12.743   4.545   7.077  0.3891 -0.2825 -0.6164
  104MOL0     C13947  12.786   4.683   7.150  0.2112 -0.3841 -0.5269
  104MOL0     C13948  12.879   4.775   7.072 -0.1273  0.4958  0.7225
  104MOL0    Cl13949  12.805   4.827   6.914 -0.0788 -0.4370  0.2525
  104MOL0     C13950  12.068   4.004   7.218 -0.0377 -0.8841  0.9111
  104MOL0     C13951  11.935   3.984   7.250 -0.6837  0.3371 -0.0580
  104MOL0     O13952  11.600   3.923   6.988 -0.5581 -0.2324  0.7951
  104MOL0     C13953  11.475   3.830   7.308 -0.2363  0.5816  0.5609
  104MOL0     C13954  11.358   3.792   7.366 -0.0905  0.6995  0.0694
  104MOL0     N13955  10.638   3.958   7.830 -0.2479  0.2128 -0.5202
  104MOL0     N13956  10.617   3.937   7.954  0.1273  0.2371 -0.8637
  104MOL0     C13957  10.530   4.261   8.982  0.2865 -1.3052 -0.6995
  104MOL0     C13958  10.494   4.340   9.092  0.4904  0.7858  0.5224
  104MOL0     C13959  10.335   4.717   9.334  0.0377 -0.1173  0.2747
  104MOL0     C13960  10.412   4.815   9.403  0.2416  0.0073 -0.5388
  104MOL0     C13961  10.355   4.906   9.494  0.0060 -0.1408  0.1274
  104MOL0     C13962  10.216   4.899   9.525 -0.3785  0.1473 -0.3442
  104MOL0     O13963  10.141   4.972   9.608  0.3518  0.2656 -0.5617
  104MOL0     C13964  10.187   5.099   9.653  0.3344 -0.0261  0.5617
  104MOL0     C13965  10.082   5.170   9.745 -0.4475 -0.8041  0.1379
  104MOL0     C13966   9.940   5.134   9.697  0.1965 -0.5867 -1.5182
  104MOL0     C13967   9.829   5.214   9.771  0.0970 -0.5083  0.2895
  104MOL0     C13968   9.712   5.206   9.690 -0.3153 -0.1537 -0.0555
  104MOL0     C13969   9.609   5.222   9.622 -0.5466 -0.7544 -0.3153
  104MOL0     C13970  10.147   4.804   9.446 -0.0505 -0.4774  0.5468
  104MOL0     C13971  10.204   4.708   9.359  0.1753  0.7577  0.7437
  104MOL0     C13972  10.115   4.605   9.301 -0.0889  0.1063  0.1809
  104MOL0     H13973  10.249   4.543   8.961  0.7944  1.4161 -0.3223
  104MOL0     H13974  10.286   4.402   8.775 -2.1212 -2.9150  0.9145
  104MOL0     H13975  10.307   4.075   8.791  1.8446 -0.0151  1.7973
  104MOL0     H13976  10.318   4.183   8.639  2.9393 -0.6131 -2.7328
  104MOL0     H13977  10.343   3.930   8.598  0.9425 -1.2206  0.1574
  104MOL0     H13978  10.498   3.937   8.686 -0.8633 -1.0820  0.2134
  104MOL0     H13979  10.557   4.141   8.531  1.1031  0.1641 -0.8030
  104MOL0     H13980  10.404   4.084   8.446 -1.6400 -0.5267  3.1478
  104MOL0     H13981  10.647   3.913   8.494 -1.1773 -2.4698 -0.2435
  104MOL0     H13982  10.498   3.869   8.407  0.2240  0.4545 -1.5240
  104MOL0     H13983  10.560   4.028   8.211  0.7079  0.0638  0.0340
  104MOL0     H13984  10.654   4.117   8.320  1.8783 -0.4313 -0.6572
  104MOL0     H13985  10.788   3.997   8.172  2.2736 -0.5659 -0.4544
  104MOL0     H13986  10.818   3.953   8.335 -1.6075 -0.3578  1.3842
  104MOL0     H13987  10.681   3.728   8.315 -0.0284  0.3159 -0.7780
  104MOL0     H13988  10.803   3.734   8.196  0.7846  1.7002 -1.1636
  104MOL0     H13989  10.607   3.640   8.108  1.4125  0.2830 -0.8253
  104MOL0     H13990  10.507   3.780   8.129 -0.1638 -0.5457 -0.9709
  104MOL0     H13991  10.723   3.636   7.860  0.0934 -0.5247  0.8221
  104MOL0     H13992  10.669   3.764   7.569  2.2998 -0.5214 -2.2330
  104MOL0     H13993  10.706   3.934   7.585 -1.3976 -1.2730 -0.8330
  104MOL0     H13994  10.934   3.875   7.666  0.7599  1.3223 -1.2353
  104MOL0     H13995  10.880   3.707   7.688 -2.2428  2.2757  2.0915
  104MOL0     H13996  10.867   3.841   7.416 -0.6105  0.5464  1.1624
  104MOL0     H13997  10.863   3.676   7.464  0.4207 -0.3965  0.8121
  104MOL0     H13998  11.113   3.680   7.515  0.7389 -0.2586 -1.0768
  104MOL0     H13999  11.111   3.859   7.498 -0.2763 -0.1945  2.1893
  104MOL0     H14000  11.153   3.792   7.096 -0.5171  2.1350  0.6369
  104MOL0     H14001  11.338   3.874   6.995 -0.2992  3.1292 -0.3721
  104MOL0     H14002  11.787   4.071   6.956 -2.7684  1.0023  1.8008
  104MOL0     H14003  12.028   4.130   6.907  0.0822 -0.8413 -0.7801
  104MOL0     H14004  12.289   4.169   7.232 -0.9618 -0.1072 -0.5775
  104MOL0     H14005  12.385   4.026   7.198 -1.7220  0.8715  4.1335
  104MOL0     H14006  12.474   4.137   6.999 -0.3146  1.3037 -0.9934
  104MOL0     H14007  12.399   4.284   7.041  0.0265 -0.3646 -0.3020
  104MOL0     H14008  12.496   4.278   7.275 -2.2206 -4.2850  0.8767
  104MOL0     H14009  12.595   4.140   7.230 -2.9459  0.5577  4.2698
  104MOL0     H14010  12.639   4.319   7.009 -1.1697  1.4780  0.3573
  104MOL0     H14011  12.763   4.248   7.117  0.4178  0.7016 -1.6716
  104MOL0     H14012  12.753   4.437   7.257 -1.6915  0.9322  1.1143
  104MOL0     H14013  12.584   4.479   7.208  1.2480  4.4874  0.5750
  104MOL0     H14014  12.829   4.507   7.022 -0.1775 -0.5462 -1.3524
  104MOL0     H14015  12.662   4.567   7.006 -0.6362  1.2136  0.9170
  104MOL0     H14016  12.832   4.656   7.245 -3.3182  1.1425  1.8239
  104MOL0     H14017  12.690   4.731   7.171 -1.2160 -1.6933 -3.3646
  104MOL0     H14018  12.890   4.870   7.127 -1.1193  0.1098  1.6049
  104MOL0     H14019  12.978   4.735   7.047 -0.5451  1.2280 -2.5786
  104MOL0     H14020  12.150   3.968   7.280  1.8076  0.5380 -0.5698
  104MOL0     H14021  11.910   3.934   7.343  1.6818 -2.4301 -0.7236
  104MOL0     H14022  11.549   3.867   7.378  0.6026  1.9747 -0.9956
  104MOL0     H14023  11.358   3.777   7.474  1.0251 -0.6077 -0.0862
  104MOL0     H14024  10.599   4.177   8.987  1.1162 -0.5871  0.2642
  104MOL0     H14025  10.555   4.329   9.181  1.5208 -0.4795 -0.3042
  104MOL0     H14026  10.521   4.819   9.394  0.1699  1.1179 -1.0697
  104MOL0     H14027  10.420   4.978   9.541 -0.5510  2.0861 -2.2692
  104MOL0     H14028  10.198   5.168   9.569  0.7011  0.3387  0.9051
  104MOL0     H14029  10.284   5.086   9.702  0.2034  0.9207  1.0859
  104MOL0     H14030  10.107   5.275   9.733  2.6282 -1.2722  1.6024
  104MOL0     H14031  10.083   5.142   9.851  0.1192  2.6733  1.1558
  104MOL0     H14032   9.923   5.026   9.694 -4.0222 -0.0896 -1.1073
  104MOL0     H14033   9.934   5.165   9.592 -0.8512 -2.5435 -2.0768
  104MOL0     H14034   9.798   5.173   9.868  2.8477 -0.6066  1.2100
  104MOL0     H14035   9.869   5.314   9.789 -0.7539 -0.1908  0.4758
  104MOL0     H14036   9.517   5.224   9.567  0.3694 -2.8139 -2.0841
  104MOL0     H14037  10.041   4.809   9.468 -0.2372 -1.6151  0.0186
  104MOL0     H14038  10.146   4.506   9.336  1.0108 -0.2175 -1.5611
  104MOL0     H14039  10.016   4.625   9.342 -0.9728 -2.6519 -0.4064
  104MOL0     H14040  10.115   4.607   9.191 -1.5522  1.2531  0.1615
  105MOL0     O14041   2.793   5.487  11.264 -0.4575 -0.4758 -0.5985
  105MOL0     C14042   2.715   5.390  11.281 -0.2795 -0.3951 -0.0824
  105MOL0     O14043   2.740   5.273  11.353 -0.7931  0.3592  0.2623
  105MOL0     C14044   2.854   5.255  11.424  0.4012 -0.6359  0.0808
  105MOL0     C14045   2.847   5.264  11.560  0.3109 -0.1109  0.3062
  105MOL0     C14046   2.952   5.231  11.648  0.2859  0.4945  0.1672
  105MOL0     C14047   3.073   5.178  11.600  0.5758 -0.8565  0.3950
  105MOL0     O14048   3.175   5.153  11.684  0.0982  0.6799  0.2126
  105MOL0     C14049   3.299   5.095  11.634 -0.1430 -0.4179 -0.1360
  105MOL0     C14050   3.395   5.066  11.747 -0.9377 -0.0112  0.0531
  105MOL0     C14051   3.540   5.060  11.702  0.3978 -0.1037  0.3406
  105MOL0     C14052   3.556   4.966  11.590 -0.1708  0.2697 -0.1563
  105MOL0     C14053   3.710   4.931  11.565 -0.0016 -0.8907  0.4456
  105MOL0     C14054   3.790   5.060  11.523 -0.1016  0.2509 -0.5072
  105MOL0     C14055   3.932   5.022  11.498  0.6617 -0.2856 -0.1461
  105MOL0     C14056   4.000   5.000  11.635  0.4425  0.5668 -0.3083
  105MOL0     N14057   4.146   4.982  11.602 -0.3495 -0.1486 -0.2953
  105MOL0     C14058   4.189   4.868  11.537  0.6932 -0.6625  0.7187
  105MOL0     C14059   4.312   4.902  11.489  0.6813 -0.6035  0.7091
  105MOL0     C14060   4.399   4.813  11.401 -0.3535 -0.2035 -0.4011
  105MOL0     C14061   4.501   4.881  11.305  0.4489 -0.5918  0.6508
  105MOL0     C14062   4.432   4.972  11.205 -0.4747 -0.2155 -0.2784
  105MOL0     C14063   4.513   5.081  11.142 -0.4081  0.1222 -0.4590
  105MOL0     O14064   4.534   5.187  11.233  1.3220 -0.5142 -0.1487
  105MOL0     C14065   4.645   5.179  11.306  0.4154  0.0785  0.0677
  105MOL0     C14066   4.775   5.148  11.251 -0.4394  0.2728  0.4061
  105MOL0     C14067   4.891   5.160  11.324  0.1498  0.7629 -0.0489
  105MOL0     C14068   4.893   5.195  11.460  0.3509 -0.6504  0.0074
  105MOL0     C14069   5.011   5.214  11.535  0.2765 -0.5597 -0.0021
  105MOL0     O14070   5.003   5.184  11.666  0.6357 -0.4241 -0.3465
  105MOL0     C14071   5.117   5.206  11.747 -0.0264 -0.5954  0.7243
  105MOL0     C14072   5.164   5.339  11.760  0.9712  0.2617 -0.6411
  105MOL0     C14073   5.271   5.361  11.838  0.2272 -0.5868  0.3927
  105MOL0     C14074   5.333   5.267  11.913 -0.2743 -0.1638 -0.8269
  105MOL0     O14075   5.432   5.299  12.004  0.0590  0.4278 -0.0349
  105MOL0     C14076   5.510   5.203  12.067 -0.4467  0.7046 -0.0278
  105MOL0     C14077   5.594   5.265  12.175 -0.1797  0.3326 -0.1819
  105MOL0     C14078   5.675   5.157  12.246 -0.5143 -0.2700 -0.0514
  105MOL0     C14079   5.791   5.117  12.160 -0.5675 -0.1140  0.0741
  105MOL0     C14080   5.852   4.986  12.211  0.6943  0.3041  0.0566
  105MOL0     C14081   5.969   4.938  12.119  0.1232 -0.1738 -0.2967
  105MOL0     C14082   6.093   5.025  12.147  0.2143  0.6227  0.6737
  105MOL0     C14083   6.210   4.957  12.090  0.1494  0.9151 -0.1253
  105MOL0    Cl14084   6.284   4.851  12.225 -0.1709  0.2387 -0.3442
  105MOL0     C14085   5.297   5.130  11.897 -0.5712  0.0598 -0.4292
  105MOL0     C14086   5.191   5.100  11.808  0.9767  0.0877 -0.3125
  105MOL0     O14087   5.111   5.254  11.472 -0.4380 -0.7679 -0.1678
  105MOL0     C14088   4.771   5.216  11.515  0.2511  0.3952  0.4515
  105MOL0     C14089   4.647   5.211  11.442 -0.1129  0.6982  0.6121
  105MOL0     N14090   4.345   5.029  11.546 -0.2218 -0.1329 -0.6988
  105MOL0     N14091   4.241   5.082  11.616 -0.4805  0.2595  0.9592
  105MOL0     C14092   3.086   5.166  11.457  0.0905  0.4991 -0.3147
  105MOL0     C14093   2.976   5.194  11.375 -0.3640 -0.9700 -0.5109
  105MOL0     C14094   2.579   5.393  11.221  0.1500  0.9352  0.0529
  105MOL0     C14095   2.518   5.520  11.217  0.1876  1.0497  0.4991
  105MOL0     C14096   2.387   5.536  11.158  0.0302 -0.2134  0.1395
  105MOL0     C14097   2.329   5.428  11.112  0.2564  0.1325 -0.1820
  105MOL0     O14098   2.218   5.450  11.034 -0.1081 -0.4079  0.3575
  105MOL0     C14099   2.137   5.338  11.003 -0.4324 -0.6977  0.0555
  105MOL0     C14100   1.988   5.382  10.968  1.0218 -0.0983  0.3198
  105MOL0     C14101   1.889   5.259  10.976 -0.4315  0.4381 -0.8536
  105MOL0     C14102   1.743   5.290  10.939  0.4724 -0.2758  0.4544
  105MOL0     C14103   1.686   5.377  11.050 -0.8126  0.6296 -0.0001
  105MOL0     C14104   1.646   5.442  11.133 -0.2657 -0.4557 -1.0611
  105MOL0     C14105   2.387   5.296  11.129 -0.0671 -1.0863  1.0927
  105MOL0     C14106   2.512   5.283  11.171 -0.3358 -0.1561  0.6687
  105MOL0     C14107   2.583   5.148  11.153 -0.2974  0.2011 -0.0795
  105MOL0     H14108   2.757   5.312  11.598  2.6515  2.5229  3.1409
  105MOL0     H14109   2.966   5.250  11.754  1.7304  1.5484 -0.1700
  105MOL0     H14110   3.291   4.996  11.588  2.7591 -0.3136 -1.0820
  105MOL0     H14111   3.347   5.161  11.561  0.4902 -1.3901 -0.6299
  105MOL0     H14112   3.361   4.977  11.801 -3.1087  0.4899 -0.4102
  105MOL0     H14113   3.396   5.154  11.812 -1.6160 -0.1055  0.1916
  105MOL0     H14114   3.596   5.028  11.790  3.7001 -2.1874 -2.2544
  105MOL0     H14115   3.590   5.154  11.678  2.0638 -0.1752  3.0920
  105MOL0     H14116   3.499   4.873  11.601  1.4747 -0.4373  3.8255
  105MOL0     H14117   3.508   5.006  11.500 -2.2818 -3.0971 -0.7041
  105MOL0     H14118   3.754   4.893  11.659  0.5474  0.6703  0.8525
  105MOL0     H14119   3.712   4.856  11.486 -0.2173  0.8471 -1.2861
  105MOL0     H14120   3.753   5.109  11.432  0.3412  0.5967 -0.5063
  105MOL0     H14121   3.785   5.131  11.606  2.0479 -0.0381 -0.0800
  105MOL0     H14122   3.980   5.097  11.434  0.4054  0.0824  0.0921
  105MOL0     H14123   3.932   4.927  11.444  1.5597 -0.3319 -0.0886
  105MOL0     H14124   3.976   5.093  11.687 -2.1206  1.4941 -2.8994
  105MOL0     H14125   3.962   4.911  11.687  3.3588 -0.4692  0.2846
  105MOL0     H14126   4.133   4.777  11.516  1.1001 -0.7421 -0.0609
  105MOL0     H14127   4.461   4.759  11.473 -0.0763  1.2215  0.4543
  105MOL0     H14128   4.341   4.742  11.342 -3.3304  0.6812  1.2395
  105MOL0     H14129   4.568   4.937  11.371  0.2898  1.9162 -1.1959
  105MOL0     H14130   4.553   4.811  11.238  0.7366  0.8163 -0.6718
  105MOL0     H14131   4.363   5.041  11.255  0.1804  1.0093 -0.9954
  105MOL0     H14132   4.374   4.915  11.132  1.3790  0.7965 -2.7051
  105MOL0     H14133   4.454   5.114  11.056  0.7349  1.5280 -0.7465
  105MOL0     H14134   4.608   5.049  11.096  0.5098  1.7030  0.2678
  105MOL0     H14135   4.795   5.122  11.148  0.6207 -1.6292  1.0345
  105MOL0     H14136   4.976   5.116  11.272 -0.3045 -1.4855  1.0080
  105MOL0     H14137   5.104   5.422  11.723 -0.1909 -0.5763 -0.6920
  105MOL0     H14138   5.298   5.462  11.867  4.3418 -2.0252  2.4087
  105MOL0     H14139   5.434   5.135  12.107 -0.5988  1.4923  1.0416
  105MOL0     H14140   5.572   5.148  11.995  0.3960 -0.3497  1.4300
  105MOL0     H14141   5.670   5.336  12.143  1.5000  0.3091  3.2958
  105MOL0     H14142   5.523   5.309  12.247 -0.1160 -0.2059  0.2128
  105MOL0     H14143   5.694   5.203  12.343 -1.5953  0.1455 -0.0200
  105MOL0     H14144   5.604   5.077  12.269 -0.9057  0.4553  1.3312
  105MOL0     H14145   5.856   5.204  12.170  0.9656 -0.7600 -3.1190
  105MOL0     H14146   5.757   5.096  12.058  0.0039  3.2903 -0.9448
  105MOL0     H14147   5.776   4.909  12.224  2.3806 -1.3185  0.7377
  105MOL0     H14148   5.900   4.990  12.310  2.0115 -2.6577 -0.3481
  105MOL0     H14149   5.988   4.834  12.149 -2.5116 -0.4679  0.5649
  105MOL0     H14150   5.937   4.930  12.015 -0.3143 -1.3770 -0.0921
  105MOL0     H14151   6.095   5.046  12.254 -1.3164 -0.0286  0.8512
  105MOL0     H14152   6.087   5.128  12.109  0.1674  0.0316 -0.9790
  105MOL0     H14153   6.179   4.902  12.001 -1.1422  1.3170  0.0566
  105MOL0     H14154   6.285   5.024  12.047 -1.2533  2.7711  0.1990
  105MOL0     H14155   5.353   5.054  11.949 -1.0643  0.8664  1.4067
  105MOL0     H14156   5.162   4.999  11.783  2.8639 -0.6632  0.3948
  105MOL0     H14157   4.771   5.247  11.619  2.8657  0.2236  0.5632
  105MOL0     H14158   4.548   5.234  11.480 -0.2936  1.6192 -0.3838
  105MOL0     H14159   3.167   5.115  11.406 -1.7130 -1.4868 -1.3840
  105MOL0     H14160   2.996   5.174  11.271  4.0758  1.4232 -0.3769
  105MOL0     H14161   2.565   5.598  11.276  0.0060  0.3903  1.5618
  105MOL0     H14162   2.325   5.623  11.136 -3.4636 -2.2125  1.3003
  105MOL0     H14163   2.123   5.288  11.099 -0.8251  1.0656  0.9672
  105MOL0     H14164   2.172   5.279  10.919  2.1557  0.0455  0.5143
  105MOL0     H14165   1.983   5.427  10.868  0.8654  1.1753  0.8721
  105MOL0     H14166   1.951   5.451  11.045 -0.2629 -1.1437  0.6671
  105MOL0     H14167   1.887   5.213  11.075  3.5274  0.8603 -0.4243
  105MOL0     H14168   1.931   5.181  10.911  0.4967  0.6482 -0.5236
  105MOL0     H14169   1.740   5.336  10.840 -0.9609 -1.3334 -0.0326
  105MOL0     H14170   1.686   5.196  10.935  1.2622 -0.7332 -0.4427
  105MOL0     H14171   1.637   5.521  11.205  2.6535 -1.8526  1.0304
  105MOL0     H14172   2.338   5.212  11.080  1.7973  0.1429 -3.4236
  105MOL0     H14173   2.572   5.092  11.246  1.6823 -1.4613 -0.7718
  105MOL0     H14174   2.545   5.078  11.077  1.1226  0.3122 -0.9342
  105MOL0     H14175   2.689   5.162  11.130  0.1844 -1.4534  0.9897
  106MOL0     O14176   1.376  10.423   0.381  0.0140 -0.2841 -0.3409
  106MOL0     C14177   1.407  10.391   0.492 -0.0085 -0.1504 -0.2113
  106MOL0     O14178   1.343  10.438   0.608 -0.1052 -0.9847  0.1953
  106MOL0     C14179   1.257  10.543   0.584 -0.4355 -0.0226 -0.4040
  106MOL0     C14180   1.120  10.512   0.571 -0.1410 -0.1194 -0.6238
  106MOL0     C14181   1.023  10.615   0.579  0.3256  0.1502  0.2384
  106MOL0     C14182   1.065  10.750   0.595 -0.1416 -0.8226  0.6479
  106MOL0     O14183   0.977  10.857   0.589 -0.1169 -0.2509  0.1224
  106MOL0     C14184   0.836  10.840   0.610 -0.1380  0.0853  0.1181
  106MOL0     C14185   0.765  10.822   0.478  0.2592  0.5320 -0.4697
  106MOL0     C14186   0.617  10.777   0.504 -0.5754  0.7385  0.2657
  106MOL0     C14187   0.526  10.775   0.379  0.2140  0.1504 -0.5013
  106MOL0     C14188   0.382  10.717   0.398  0.3571 -0.2260  0.2728
  106MOL0     C14189   0.312  10.725   0.257  0.4229  0.0863  0.2017
  106MOL0     C14190   0.155  10.713   0.283 -0.3745 -0.2154  0.7267
  106MOL0     C14191   0.080  10.725   0.151 -0.6151  0.0828  0.2935
  106MOL0     N14192   0.029  10.858   0.111 -0.1891 -0.1935 -0.9192
  106MOL0     C14193   0.116  10.954   0.058  0.1649 -0.7102 -0.2061
  106MOL0     C14194   0.033  11.066   0.046 -1.2613  0.2221  0.9068
  106MOL0     C14195   0.062  11.206   0.003 -0.6765  0.6516 -0.8225
  106MOL0     C14196   0.198  11.234  -0.049 -0.3606 -0.8570  0.4277
  106MOL0     C14197   0.192  11.379  -0.105  0.6220  0.4464  0.5629
  106MOL0     C14198   0.325  11.417  -0.153  0.0040  0.5323  0.0258
  106MOL0     O14199   0.402  11.451  -0.035  0.1066 -0.2083 -0.0483
  106MOL0     C14200   0.511  11.519  -0.041 -0.5714 -0.4139  0.1108
  106MOL0     C14201   0.546  11.580   0.079  0.3309  0.4572 -0.5466
  106MOL0     C14202   0.663  11.651   0.082 -0.0746  0.0999 -0.0479
  106MOL0     C14203   0.745  11.666  -0.036  0.1523  0.2905  1.0601
  106MOL0     C14204   0.880  11.725  -0.036  0.4118  0.3099 -0.3341
  106MOL0     O14205   0.961  11.709  -0.145 -0.5309  0.1452  0.3199
  106MOL0     C14206   1.097  11.732  -0.140 -0.7680  0.3454 -0.7404
  106MOL0     C14207   1.191  11.692  -0.040  0.0239 -0.6448 -1.1883
  106MOL0     C14208   1.325  11.742  -0.041 -0.0752 -0.2056  0.4227
  106MOL0     C14209   1.368  11.811  -0.154  0.8634 -0.1681 -0.2774
  106MOL0     O14210   1.489  11.868  -0.169  0.3658 -0.6465  0.1722
  106MOL0     C14211   1.602  11.786  -0.135  0.7139 -0.3799  0.0074
  106MOL0     C14212   1.732  11.868  -0.131 -0.4492  0.5663 -0.0742
  106MOL0     C14213   1.848  11.776  -0.122 -1.2088 -0.5546 -0.0582
  106MOL0     C14214   1.964  11.824  -0.030  0.4046 -0.4026 -0.2744
  106MOL0     C14215   2.088  11.734  -0.037 -0.5456 -0.1360  0.1193
  106MOL0     C14216   2.205  11.771   0.056  0.2430 -0.3702  0.3462
  106MOL0     C14217   2.300  11.653   0.093  0.3766 -0.1284  0.9398
  106MOL0     C14218   2.358  11.587  -0.045 -0.1507 -0.1141  1.0277
  106MOL0    Cl14219   2.459  11.702  -0.136  0.4098  0.1696 -0.3027
  106MOL0     C14220   1.274  11.836  -0.257 -0.4888  0.0143  0.2129
  106MOL0     C14221   1.146  11.792  -0.259 -0.5013  0.7853 -0.8152
  106MOL0     O14222   0.915  11.788   0.064 -0.0252  0.4158  0.0266
  106MOL0     C14223   0.694  11.614  -0.160 -0.0704  0.5242  0.2883
  106MOL0     C14224   0.581  11.535  -0.155 -0.1537 -0.2073  0.7701
  106MOL0     N14225  -0.098  11.027   0.085  0.1034 -0.2090 -0.6169
  106MOL0     N14226  -0.094  10.904   0.126  0.1531  0.1119 -0.1982
  106MOL0     C14227   1.201  10.770   0.614  0.6635  0.2884 -0.7183
  106MOL0     C14228   1.290  10.669   0.609 -0.4313 -0.6674  0.4548
  106MOL0     C14229   1.508  10.297   0.512  0.3334 -0.2541  0.3951
  106MOL0     C14230   1.498  10.214   0.615  0.6706  0.7415 -0.5327
  106MOL0     C14231   1.600  10.121   0.643 -0.0393 -0.6055  0.0351
  106MOL0     C14232   1.714  10.101   0.557  0.2371  0.3931  0.5390
  106MOL0     O14233   1.817  10.014   0.577  0.1124  0.1244  0.4382
  106MOL0     C14234   1.890  10.018   0.698  0.3186 -0.3575 -0.7578
  106MOL0     C14235   2.024   9.936   0.674 -0.2340  1.1002 -0.3759
  106MOL0     C14236   2.129  10.000   0.763  0.5517  0.8470  0.0137
  106MOL0     C14237   2.256   9.914   0.773 -0.2820 -1.1287  0.7858
  106MOL0     C14238   2.369   9.981   0.834 -0.6592  0.6162  0.0005
  106MOL0     C14239   2.472  10.040   0.878  0.0290  0.0933  0.0359
  106MOL0     C14240   1.720  10.182   0.444 -0.3046 -0.5005 -0.1958
  106MOL0     C14241   1.618  10.274   0.421  0.2235 -0.0612 -0.1580
  106MOL0     C14242   1.639  10.349   0.292  0.4561 -0.0601  0.7569
  106MOL0     H14243   1.102  10.407   0.551 -0.9951  0.1757 -1.5189
  106MOL0     H14244   0.924  10.588   0.544  0.2681  2.0791 -1.2298
  106MOL0     H14245   0.815  10.752   0.671 -2.4063 -1.1617 -2.2990
  106MOL0     H14246   0.808  10.925   0.673  1.3486 -0.5777  1.7773
  106MOL0     H14247   0.805  10.738   0.420 -1.2427 -0.8820  0.4683
  106MOL0     H14248   0.753  10.920   0.430 -1.3143  0.3169 -0.5424
  106MOL0     H14249   0.575  10.840   0.583 -2.7473  2.4442 -2.0834
  106MOL0     H14250   0.626  10.680   0.553 -0.2866  1.8286  2.5077
  106MOL0     H14251   0.513  10.878   0.345 -1.1860 -0.1608 -1.0057
  106MOL0     H14252   0.582  10.723   0.301  1.4500  0.7667 -0.0460
  106MOL0     H14253   0.379  10.619   0.445 -2.2594 -0.4402 -0.1896
  106MOL0     H14254   0.338  10.790   0.467 -0.8555  0.8023 -1.5174
  106MOL0     H14255   0.333  10.817   0.202 -0.6735  0.3600  0.2098
  106MOL0     H14256   0.354  10.652   0.188  4.0617  2.4620 -0.3924
  106MOL0     H14257   0.120  10.791   0.351 -0.8042 -0.0762  0.3506
  106MOL0     H14258   0.132  10.615   0.327 -0.6450 -0.0721  0.9045
  106MOL0     H14259   0.141  10.681   0.071 -0.2242  0.0741  0.5899
  106MOL0     H14260  -0.015  10.673   0.162 -1.1361  0.4129 -2.1790
  106MOL0     H14261   0.224  10.949   0.051  0.1579 -2.0633  0.4646
  106MOL0     H14262   0.012  11.218  -0.093  2.9612 -0.5184 -3.0793
  106MOL0     H14263   0.030  11.283   0.074 -0.1345 -1.6633  2.1458
  106MOL0     H14264   0.271  11.231   0.032 -1.2979  0.4661  1.3755
  106MOL0     H14265   0.228  11.167  -0.130 -1.7393 -0.1911 -0.6822
  106MOL0     H14266   0.157  11.449  -0.029 -1.0189  0.1591  0.1119
  106MOL0     H14267   0.121  11.386  -0.188  0.2537  0.7560  0.8967
  106MOL0     H14268   0.325  11.500  -0.224 -2.4999  1.5009  1.0293
  106MOL0     H14269   0.351  11.324  -0.204 -1.4886  0.3790 -0.4911
  106MOL0     H14270   0.478  11.574   0.163  0.2073  0.8884 -0.6106
  106MOL0     H14271   0.688  11.695   0.178 -3.6673 -3.0983  2.6728
  106MOL0     H14272   1.163  11.639   0.051 -0.7142 -4.0743 -3.2682
  106MOL0     H14273   1.388  11.727   0.047 -1.3674 -0.4975  1.3325
  106MOL0     H14274   1.584  11.730  -0.043 -0.0796  0.3303  0.3002
  106MOL0     H14275   1.611  11.717  -0.219  1.8162  1.6659 -1.6679
  106MOL0     H14276   1.738  11.908  -0.233  3.5782 -1.0027 -0.6248
  106MOL0     H14277   1.735  11.938  -0.047  1.3087 -0.6683  0.9337
  106MOL0     H14278   1.816  11.684  -0.072 -1.2945 -0.3805  0.2116
  106MOL0     H14279   1.895  11.752  -0.218 -0.1574 -1.0181  0.5587
  106MOL0     H14280   1.931  11.832   0.074  0.9948  2.4854 -0.2153
  106MOL0     H14281   1.984  11.927  -0.061 -1.5886  0.5071  1.2395
  106MOL0     H14282   2.117  11.725  -0.142 -1.6655  0.2294 -0.2297
  106MOL0     H14283   2.054  11.636  -0.003 -1.4731  0.1717  0.1035
  106MOL0     H14284   2.256  11.851   0.002  0.7658  0.3243  1.7971
  106MOL0     H14285   2.161  11.805   0.151  0.3018 -3.1900  1.4762
  106MOL0     H14286   2.237  11.579   0.142 -0.7477 -0.9990 -1.6432
  106MOL0     H14287   2.377  11.685   0.164  0.8822  0.2716  0.2210
  106MOL0     H14288   2.407  11.493  -0.021 -2.0999 -1.3512  0.3986
  106MOL0     H14289   2.278  11.563  -0.115  0.0742 -1.6671  1.2727
  106MOL0     H14290   1.330  11.897  -0.327  2.4871  2.0240  3.9498
  106MOL0     H14291   1.078  11.809  -0.343 -0.8529 -1.5107 -1.0598
  106MOL0     H14292   0.756  11.624  -0.248  0.4867 -0.3087  0.5670
  106MOL0     H14293   0.556  11.480  -0.245  2.1323  0.5330 -0.3946
  106MOL0     H14294   1.239  10.871   0.621  0.9736  0.1279  0.0212
  106MOL0     H14295   1.393  10.692   0.632 -0.5585 -0.4169  0.7890
  106MOL0     H14296   1.426  10.223   0.696  1.8095 -0.8368  0.7393
  106MOL0     H14297   1.592  10.075   0.741 -1.1906  1.8672  1.1918
  106MOL0     H14298   1.832   9.985   0.785  1.7219 -0.5866  0.1199
  106MOL0     H14299   1.932  10.118   0.709  1.5931 -0.6604 -2.4347
  106MOL0     H14300   2.053   9.928   0.569  1.2625 -1.7758  0.1524
  106MOL0     H14301   1.998   9.837   0.713 -2.0690  1.7342  0.1176
  106MOL0     H14302   2.092  10.005   0.865  0.8434 -2.9250  0.4463
  106MOL0     H14303   2.162  10.096   0.723 -1.2376  1.6383  0.3208
  106MOL0     H14304   2.231   9.817   0.816 -2.0394 -1.5481 -1.0432
  106MOL0     H14305   2.278   9.897   0.668 -0.2710 -0.8413  0.7399
  106MOL0     H14306   2.567  10.081   0.904  0.8581 -1.2530 -0.7731
  106MOL0     H14307   1.805  10.171   0.378  1.1844 -1.9898  1.8315
  106MOL0     H14308   1.736  10.327   0.246  0.0653 -0.2100 -0.0028
  106MOL0     H14309   1.558  10.315   0.228 -0.0571  3.4952 -0.6869
  106MOL0     H14310   1.634  10.457   0.308 -0.4112  0.0865 -0.4163
  107MOL0     O14311   5.823   2.073  11.237 -0.0895 -0.1345  0.9566
  107MOL0     C14312   5.766   2.006  11.316  1.0437  0.1508 -0.1377
  107MOL0     O14313   5.824   1.910  11.393  0.1181 -0.4297  0.5770
  107MOL0     C14314   5.963   1.919  11.420  0.9793 -0.1522 -0.0252
  107MOL0     C14315   6.068   1.967  11.340  0.5226 -0.1838  0.8072
  107MOL0     C14316   6.196   1.971  11.391 -1.0293 -0.2312  0.2350
  107MOL0     C14317   6.230   1.922  11.513 -1.2534 -0.9357  0.8668
  107MOL0     O14318   6.355   1.953  11.561 -0.7012 -0.4274 -0.4269
  107MOL0     C14319   6.403   1.861  11.660 -0.2762  0.2990 -0.4959
  107MOL0     C14320   6.524   1.918  11.723 -0.0443 -0.1922 -0.4715
  107MOL0     C14321   6.530   1.870  11.866  0.3694  0.1621 -0.1906
  107MOL0     C14322   6.662   1.913  11.929  0.8946  0.2649 -0.0564
  107MOL0     C14323   6.777   1.811  11.891  0.2393  0.5471 -0.9808
  107MOL0     C14324   6.759   1.680  11.969 -0.4729  0.3159  0.4311
  107MOL0     C14325   6.878   1.585  11.950 -0.9133  0.0696  0.5078
  107MOL0     C14326   7.013   1.616  12.022  0.1245  0.1497  0.4867
  107MOL0     N14327   7.064   1.512  12.115  0.7678 -0.4584 -0.4791
  107MOL0     C14328   7.126   1.544  12.231  0.9551 -0.2857 -0.1318
  107MOL0     C14329   7.141   1.417  12.289  0.0800 -0.8020  0.0033
  107MOL0     C14330   7.219   1.388  12.418 -0.5842 -0.3557  0.8186
  107MOL0     C14331   7.361   1.353  12.382 -0.2164  0.2661  0.2735
  107MOL0     C14332   7.433   1.328  12.513 -0.4550  0.4087 -0.4828
  107MOL0     C14333   7.594   1.357  12.511 -0.1375 -0.0625  0.0812
  107MOL0     O14334   7.617   1.470  12.429 -0.3379 -0.6962 -0.1381
  107MOL0     C14335   7.743   1.519  12.416 -0.2140 -1.0511  0.2795
  107MOL0     C14336   7.756   1.641  12.349 -0.0006  0.1074  0.8709
  107MOL0     C14337   7.877   1.696  12.311 -0.0189  0.0492 -0.1883
  107MOL0     C14338   7.998   1.625  12.337 -0.1822  0.4540  1.1262
  107MOL0     C14339   8.121   1.674  12.276  1.1484  0.0054  0.6796
  107MOL0     O14340   8.125   1.811  12.260  0.3349 -0.2069  0.5794
  107MOL0     C14341   8.240   1.870  12.213 -0.4942 -0.1370  1.0974
  107MOL0     C14342   8.365   1.855  12.277  0.0837 -0.2033 -0.2365
  107MOL0     C14343   8.479   1.912  12.228  0.3343 -0.7374  0.2674
  107MOL0     C14344   8.474   2.006  12.121 -0.0516  0.4182  0.0614
  107MOL0     O14345   8.599   2.066  12.083 -0.2812  0.2071  0.1089
  107MOL0     C14346   8.612   2.126  11.953  0.3400 -0.2576  0.0238
  107MOL0     C14347   8.765   2.163  11.930  0.2804  0.0367 -0.2270
  107MOL0     C14348   8.871   2.068  11.989  0.3938 -0.2327 -0.2418
  107MOL0     C14349   9.011   2.114  11.945  0.6416 -0.4589 -0.2696
  107MOL0     C14350   9.107   2.013  12.009 -0.1350 -0.2327  0.0618
  107MOL0     C14351   9.248   2.043  11.978  0.5580  0.2347  0.3682
  107MOL0     C14352   9.346   1.930  12.006 -0.7296  0.0135  0.3223
  107MOL0     C14353   9.488   1.976  11.970  0.3267  1.0716  0.2506
  107MOL0    Cl14354   9.607   1.850  11.999 -0.0618  0.4918 -0.3583
  107MOL0     C14355   8.350   2.025  12.055 -0.2494 -0.3361 -0.3630
  107MOL0     C14356   8.239   1.960  12.106  0.6440  0.4369 -0.2074
  107MOL0     O14357   8.209   1.595  12.258 -0.8941  0.2902 -0.5158
  107MOL0     C14358   7.982   1.504  12.405 -0.1344 -0.2805  0.7997
  107MOL0     C14359   7.856   1.447  12.432 -1.1166 -0.8593 -0.0837
  107MOL0     N14360   7.099   1.321  12.199  0.7947 -0.4003  1.4483
  107MOL0     N14361   7.052   1.380  12.104  0.7547  0.2047  0.1575
  107MOL0     C14362   6.126   1.868  11.586  0.2679  0.3603  0.3446
  107MOL0     C14363   5.995   1.859  11.541 -0.6327 -0.8344 -0.1112
  107MOL0     C14364   5.613   2.039  11.330 -0.2590  0.6910  0.3311
  107MOL0     C14365   5.571   2.163  11.289 -0.2589 -0.7332  0.4366
  107MOL0     C14366   5.442   2.197  11.295 -0.5572  0.7235  0.0163
  107MOL0     C14367   5.343   2.110  11.338 -0.0791 -0.0407 -0.0801
  107MOL0     O14368   5.214   2.157  11.364  0.0333 -0.1263 -0.6886
  107MOL0     C14369   5.186   2.292  11.349  0.1632  0.2246 -0.0229
  107MOL0     C14370   5.035   2.329  11.351  0.9875  0.2870 -0.0010
  107MOL0     C14371   4.983   2.283  11.497 -0.8239  0.3164  0.6203
  107MOL0     C14372   4.843   2.342  11.533 -0.7759  0.3398 -1.0019
  107MOL0     C14373   4.731   2.288  11.450 -0.4019 -0.4820 -0.1483
  107MOL0     C14374   4.652   2.236  11.368 -0.0056 -0.4009 -1.0258
  107MOL0     C14375   5.391   1.983  11.385  0.5267  0.0883  0.1582
  107MOL0     C14376   5.522   1.944  11.373 -0.4354  0.1165 -0.2222
  107MOL0     C14377   5.565   1.804  11.414 -0.4501  0.1446  0.7054
  107MOL0     H14378   6.042   2.029  11.255 -2.3919  0.4634  2.0401
  107MOL0     H14379   6.270   2.026  11.333 -0.4011 -2.8864 -1.6552
  107MOL0     H14380   6.332   1.832  11.737  1.1910  1.2658  1.3028
  107MOL0     H14381   6.429   1.772  11.602  0.8213  1.1529 -1.3744
  107MOL0     H14382   6.511   2.027  11.723  1.0972 -0.0218  0.7281
  107MOL0     H14383   6.610   1.882  11.666  0.0186 -1.7149  0.5297
  107MOL0     H14384   6.504   1.764  11.871 -1.9223  0.6830  0.2637
  107MOL0     H14385   6.452   1.915  11.928  0.9466 -1.4916  1.8286
  107MOL0     H14386   6.691   2.010  11.887  0.0585  1.1337  1.2882
  107MOL0     H14387   6.637   1.928  12.034 -4.6504 -2.1222 -0.6556
  107MOL0     H14388   6.793   1.801  11.783 -2.2242 -0.0751 -1.3359
  107MOL0     H14389   6.871   1.849  11.933  0.5924 -1.8120  0.5659
  107MOL0     H14390   6.746   1.697  12.076 -0.3563 -2.2686  0.9302
  107MOL0     H14391   6.666   1.627  11.949 -1.2222  1.9393 -0.6213
  107MOL0     H14392   6.905   1.574  11.845 -0.3822  0.3066  0.6152
  107MOL0     H14393   6.838   1.486  11.977 -0.3207 -0.1853  0.4673
  107MOL0     H14394   7.092   1.642  11.951 -0.1437 -0.0985  0.0943
  107MOL0     H14395   6.999   1.706  12.083  0.8120  1.5210 -1.3032
  107MOL0     H14396   7.148   1.647  12.257 -2.6292  0.3172  0.9419
  107MOL0     H14397   7.217   1.483  12.471  1.7142  0.0391  0.2883
  107MOL0     H14398   7.169   1.306  12.470  1.8601 -1.0178  2.2737
  107MOL0     H14399   7.362   1.255  12.334  1.0222  1.2784 -1.8811
  107MOL0     H14400   7.418   1.427  12.326 -0.3714  1.1801  1.2776
  107MOL0     H14401   7.418   1.223  12.543  3.6692 -0.2439 -0.0495
  107MOL0     H14402   7.405   1.402  12.589  0.0168 -0.0348  0.1403
  107MOL0     H14403   7.649   1.272  12.469 -0.0033  0.3591 -0.6215
  107MOL0     H14404   7.630   1.377  12.612 -0.5736  2.4079 -0.1781
  107MOL0     H14405   7.666   1.690  12.311 -1.0000 -1.0639  1.6440
  107MOL0     H14406   7.877   1.796  12.271  2.4680  2.0429  4.0994
  107MOL0     H14407   8.370   1.796  12.368  3.6687  1.3919  0.7631
  107MOL0     H14408   8.582   1.894  12.258  0.8812  2.0325  0.3488
  107MOL0     H14409   8.588   2.063  11.867  0.4287  0.9929 -0.9362
  107MOL0     H14410   8.555   2.219  11.949  1.6007  0.6011  1.2393
  107MOL0     H14411   8.785   2.161  11.822 -3.3735 -0.2121 -1.0446
  107MOL0     H14412   8.777   2.268  11.960  2.1604  0.2120 -1.4469
  107MOL0     H14413   8.871   2.083  12.097  0.5291 -0.4041 -0.2178
  107MOL0     H14414   8.853   1.964  11.961 -0.0377  0.0885 -1.1980
  107MOL0     H14415   9.032   2.216  11.978  1.2248 -0.0774 -1.7252
  107MOL0     H14416   9.013   2.118  11.836 -2.7501 -0.3554 -0.4151
  107MOL0     H14417   9.080   1.913  11.975  1.6926 -0.5110 -0.6636
  107MOL0     H14418   9.112   2.013  12.118  1.4042 -1.6745  0.0271
  107MOL0     H14419   9.251   2.060  11.870  1.7926 -2.9961 -0.2037
  107MOL0     H14420   9.283   2.140  12.017 -1.8760  0.7843  1.4003
  107MOL0     H14421   9.317   1.838  11.956 -0.8011  1.1008 -1.7506
  107MOL0     H14422   9.340   1.915  12.114  0.5702 -3.1342  0.0549
  107MOL0     H14423   9.488   2.004  11.865 -0.0123 -1.1629 -0.3931
  107MOL0     H14424   9.516   2.059  12.036 -1.4852  0.5576  1.7491
  107MOL0     H14425   8.335   2.092  11.972  0.3453 -0.0656 -0.2595
  107MOL0     H14426   8.142   1.963  12.056  0.2682  2.1932  0.5504
  107MOL0     H14427   8.069   1.452  12.444  2.0176  1.0749 -1.8628
  107MOL0     H14428   7.855   1.351  12.483  2.3527 -0.7551  0.4454
  107MOL0     H14429   6.144   1.826  11.685  1.9229 -0.8693 -0.4123
  107MOL0     H14430   5.916   1.806  11.593 -1.5138  2.9523  2.8422
  107MOL0     H14431   5.634   2.243  11.254 -1.0038 -0.9738 -1.5698
  107MOL0     H14432   5.420   2.302  11.279 -0.3467  0.9158  0.9308
  107MOL0     H14433   5.230   2.334  11.258  2.1272  0.0945  0.8209
  107MOL0     H14434   5.234   2.341  11.433  0.9160 -0.8569  0.1935
  107MOL0     H14435   4.970   2.280  11.277 -3.4611  3.0881  1.6789
  107MOL0     H14436   5.025   2.437  11.334 -3.7374 -0.1938 -1.8307
  107MOL0     H14437   5.060   2.317  11.567  0.2785  0.5721 -0.6644
  107MOL0     H14438   4.973   2.174  11.500 -2.3138  0.3992 -0.2230
  107MOL0     H14439   4.837   2.328  11.641 -0.1857  0.2517 -0.9773
  107MOL0     H14440   4.861   2.449  11.521  0.6765  0.1998 -0.2839
  107MOL0     H14441   4.576   2.193  11.307 -0.2232  3.7101 -4.0695
  107MOL0     H14442   5.314   1.913  11.417  1.1077 -0.9341 -0.6136
  107MOL0     H14443   5.469   1.755  11.431  1.0582 -3.0883  0.4633
  107MOL0     H14444   5.627   1.749  11.343 -0.6945 -0.2784  0.8229
  107MOL0     H14445   5.625   1.811  11.504 -0.2699 -1.5515  0.7475
  108MOL0     O14446   3.042   7.712   2.430  0.3102  0.9056 -0.0759
  108MOL0     C14447   3.013   7.831   2.399 -0.2293  0.6804 -0.0578
  108MOL0     O14448   3.096   7.935   2.392  0.0222 -0.4030 -0.1084
  108MOL0     C14449   3.227   7.926   2.448  1.0432 -0.7059 -0.4940
  108MOL0     C14450   3.347   7.991   2.398  0.3535 -0.2797 -0.1191
  108MOL0     C14451   3.475   7.982   2.468 -0.3543 -0.0060 -0.9686
  108MOL0     C14452   3.486   7.929   2.590 -0.2726  0.3273  0.4435
  108MOL0     O14453   3.609   7.942   2.647  0.1731  0.0062 -0.4653
  108MOL0     C14454   3.648   7.850   2.747 -0.2664  1.1420 -0.4947
  108MOL0     C14455   3.758   7.895   2.844 -0.4671 -0.6309 -0.5459
  108MOL0     C14456   3.906   7.869   2.812 -0.0369 -0.4329 -0.0671
  108MOL0     C14457   4.000   7.885   2.937  0.6058 -0.4236  0.9718
  108MOL0     C14458   3.999   8.033   2.969 -0.0155  0.5092  0.7239
  108MOL0     C14459   4.118   8.070   3.059 -1.1118  0.0944 -0.4445
  108MOL0     C14460   4.257   8.046   3.000 -0.8680  0.3897  0.9352
  108MOL0     C14461   4.271   8.101   2.851  1.2578 -0.3900 -0.6780
  108MOL0     N14462   4.415   8.105   2.813 -0.5763  0.1718  0.3644
  108MOL0     C14463   4.487   8.224   2.818 -0.6529  0.8148  0.1590
  108MOL0     C14464   4.606   8.197   2.761 -0.5782  1.6146  0.0833
  108MOL0     C14465   4.730   8.280   2.728  0.1263 -0.3868  0.1925
  108MOL0     C14466   4.730   8.320   2.583 -0.0045  0.1442  0.0549
  108MOL0     C14467   4.877   8.335   2.533  0.1233 -0.3422 -0.2623
  108MOL0     C14468   4.879   8.373   2.384 -0.5667  0.0439 -0.1631
  108MOL0     O14469   4.948   8.271   2.310 -0.8904 -1.2463 -0.6928
  108MOL0     C14470   5.080   8.255   2.314  0.0130 -0.2915  0.2174
  108MOL0     C14471   5.139   8.154   2.230  0.2030 -1.3593  0.1680
  108MOL0     C14472   5.280   8.145   2.216  0.6477 -0.9675 -0.5805
  108MOL0     C14473   5.359   8.224   2.298  0.9675 -0.3372  0.2682
  108MOL0     C14474   5.507   8.219   2.303  0.3512  0.1729  0.9370
  108MOL0     O14475   5.562   8.222   2.424  0.2541 -0.0471 -0.5079
  108MOL0     C14476   5.698   8.211   2.433  0.2170 -0.8183  0.5906
  108MOL0     C14477   5.744   8.078   2.451 -0.9184  0.5744  1.0978
  108MOL0     C14478   5.883   8.047   2.460  0.7053 -0.5700  0.1743
  108MOL0     C14479   5.982   8.151   2.454  0.4219  0.3241  0.1707
  108MOL0     O14480   6.111   8.117   2.437  0.6161 -0.2591 -0.1626
  108MOL0     C14481   6.211   8.213   2.487  0.3534  0.0429  0.1829
  108MOL0     C14482   6.307   8.247   2.381  0.4974 -0.7499 -0.0089
  108MOL0     C14483   6.397   8.135   2.333 -0.0758  0.0199  0.0458
  108MOL0     C14484   6.513   8.183   2.233 -0.7594  1.1195  0.0170
  108MOL0     C14485   6.636   8.202   2.325 -0.1224 -0.0390  0.0810
  108MOL0     C14486   6.759   8.232   2.238 -0.0325  0.0059  0.1080
  108MOL0     C14487   6.881   8.269   2.323  0.2430  0.2740  0.5975
  108MOL0     C14488   7.014   8.251   2.245 -0.2040  0.3213 -0.1141
  108MOL0    Cl14489   6.997   8.334   2.077 -0.3268  0.1088 -0.2569
  108MOL0     C14490   5.935   8.282   2.412 -1.0137 -0.5025  0.2777
  108MOL0     C14491   5.796   8.310   2.405 -1.0245  0.2919 -0.6450
  108MOL0     O14492   5.566   8.223   2.200 -1.3374 -0.5740  0.6045
  108MOL0     C14493   5.306   8.320   2.385 -0.5607 -0.1811  0.5061
  108MOL0     C14494   5.171   8.335   2.389 -0.3458  0.0844  0.4323
  108MOL0     N14495   4.604   8.061   2.725 -0.3796 -0.7442 -0.3808
  108MOL0     N14496   4.491   8.007   2.759  0.3503 -0.2577 -0.0554
  108MOL0     C14497   3.366   7.866   2.636 -0.2545 -0.3273 -0.1124
  108MOL0     C14498   3.241   7.867   2.570 -0.1360 -0.1443 -0.8083
  108MOL0     C14499   2.870   7.842   2.354 -0.2106  0.7530 -0.1987
  108MOL0     C14500   2.837   7.938   2.249 -0.6407 -0.4733 -0.3080
  108MOL0     C14501   2.711   7.945   2.187 -0.8165 -0.5401 -0.4687
  108MOL0     C14502   2.612   7.852   2.229 -0.2057  0.4333 -0.3974
  108MOL0     O14503   2.486   7.840   2.182  0.2569 -0.7097  0.6681
  108MOL0     C14504   2.457   7.910   2.060 -0.7439 -0.3650  0.1512
  108MOL0     C14505   2.325   7.869   2.013 -0.5943 -0.4004  0.3907
  108MOL0     C14506   2.213   7.897   2.113  0.6212 -0.4279 -0.4813
  108MOL0     C14507   2.067   7.878   2.069  0.5108  0.8767  0.0813
  108MOL0     C14508   1.986   7.845   2.184  0.2449  0.7677 -0.1459
  108MOL0     C14509   1.908   7.834   2.273  0.9912 -0.5715  0.1727
  108MOL0     C14510   2.640   7.772   2.339  0.3224 -0.5897 -0.6909
  108MOL0     C14511   2.766   7.760   2.404  0.6297  0.6783 -0.0712
  108MOL0     C14512   2.786   7.662   2.521  0.2370 -0.0759  0.1023
  108MOL0     H14513   3.327   8.043   2.305 -0.5782  0.4546  0.4701
  108MOL0     H14514   3.556   8.031   2.416  0.2714 -3.1109 -3.2498
  108MOL0     H14515   3.571   7.825   2.821  1.3972  1.0109  1.2681
  108MOL0     H14516   3.673   7.754   2.702 -1.6911  0.8398 -0.7119
  108MOL0     H14517   3.743   7.842   2.938  1.1465  1.2622  0.8583
  108MOL0     H14518   3.739   8.001   2.860  0.1375 -0.8523  2.0138
  108MOL0     H14519   3.932   7.928   2.723 -0.7244 -2.2380 -1.5322
  108MOL0     H14520   3.923   7.765   2.782  0.7776 -0.9288  1.9783
  108MOL0     H14521   3.965   7.827   3.023  1.5551 -1.4045  0.7223
  108MOL0     H14522   4.105   7.864   2.913  1.2375  2.2956  1.0858
  108MOL0     H14523   4.008   8.094   2.879 -1.2536 -1.7285 -1.0410
  108MOL0     H14524   3.906   8.059   3.020 -0.2064  0.8228  0.2276
  108MOL0     H14525   4.112   8.177   3.080  0.5515  0.3914 -1.3340
  108MOL0     H14526   4.116   8.013   3.152  0.3913  2.4740  1.1219
  108MOL0     H14527   4.279   7.939   2.992 -1.0744  0.3481  0.9162
  108MOL0     H14528   4.332   8.087   3.068 -0.8675 -0.4824  1.4682
  108MOL0     H14529   4.211   8.042   2.781  1.0250 -3.1186  1.6532
  108MOL0     H14530   4.235   8.205   2.855  0.5246 -0.6752  0.6895
  108MOL0     H14531   4.457   8.321   2.856  0.6565  0.4319  2.3512
  108MOL0     H14532   4.729   8.371   2.789  4.2814  0.1858 -0.3041
  108MOL0     H14533   4.823   8.231   2.757  1.7136  1.5271 -1.4009
  108MOL0     H14534   4.694   8.239   2.520 -1.5097  2.4414 -2.2360
  108MOL0     H14535   4.666   8.406   2.562 -0.9461 -0.4656  0.3870
  108MOL0     H14536   4.933   8.242   2.546 -0.2269 -0.6241 -0.7587
  108MOL0     H14537   4.934   8.415   2.582 -1.7723  2.2702 -2.0420
  108MOL0     H14538   4.923   8.474   2.380 -3.8901  1.6238 -0.6034
  108MOL0     H14539   4.774   8.389   2.355 -0.8510 -1.7309 -0.1879
  108MOL0     H14540   5.075   8.090   2.170 -0.7310  2.2288 -3.1044
  108MOL0     H14541   5.321   8.056   2.171 -0.4159 -1.4546 -0.6301
  108MOL0     H14542   5.682   7.989   2.461  0.3990 -0.2187  2.8934
  108MOL0     H14543   5.929   7.949   2.474 -0.1989 -0.8530  1.2608
  108MOL0     H14544   6.163   8.295   2.540 -1.2081 -0.0885 -0.9321
  108MOL0     H14545   6.267   8.139   2.546  0.7463 -2.1329 -2.6627
  108MOL0     H14546   6.240   8.284   2.302 -0.9370 -0.3767  1.3260
  108MOL0     H14547   6.376   8.325   2.415  0.6361 -1.1449  0.6264
  108MOL0     H14548   6.455   8.093   2.416  3.1469 -0.8110 -2.4388
  108MOL0     H14549   6.334   8.051   2.303  2.6943 -0.8098 -4.2436
  108MOL0     H14550   6.477   8.272   2.182  0.9567  1.5375 -0.5365
  108MOL0     H14551   6.527   8.106   2.157  0.3818  1.2109  0.1167
  108MOL0     H14552   6.655   8.116   2.389 -1.3404  0.8332  1.6841
  108MOL0     H14553   6.618   8.286   2.393  0.1270 -0.5546  0.7861
  108MOL0     H14554   6.794   8.148   2.178 -0.9583 -1.0153  0.9541
  108MOL0     H14555   6.735   8.312   2.167 -2.4676 -0.9448 -0.2397
  108MOL0     H14556   6.877   8.207   2.414  1.3117 -0.2047  0.3249
  108MOL0     H14557   6.875   8.374   2.354  2.3792  0.9601 -1.1319
  108MOL0     H14558   7.088   8.297   2.311  0.6859 -1.7383  0.3878
  108MOL0     H14559   7.051   8.148   2.239 -1.9039 -0.3216 -0.0402
  108MOL0     H14560   6.006   8.362   2.391  0.2675 -1.4240  0.9801
  108MOL0     H14561   5.758   8.407   2.377  0.6565  1.5069  1.0578
  108MOL0     H14562   5.383   8.391   2.414  1.5937 -1.9753 -0.5321
  108MOL0     H14563   5.130   8.415   2.449 -0.3474 -0.5684  1.3191
  108MOL0     H14564   3.374   7.816   2.732 -0.5865 -5.3465 -2.4200
  108MOL0     H14565   3.161   7.818   2.625  2.5567 -2.1845  1.6057
  108MOL0     H14566   2.902   8.015   2.209 -2.4992  0.4675 -1.7140
  108MOL0     H14567   2.686   8.019   2.111  3.2204  0.8264 -0.7125
  108MOL0     H14568   2.529   7.883   1.983 -1.7353 -1.3790 -0.4489
  108MOL0     H14569   2.463   8.018   2.072 -0.8506 -0.3264 -0.1494
  108MOL0     H14570   2.326   7.761   1.999  0.0667 -0.1976 -1.3861
  108MOL0     H14571   2.305   7.923   1.920  0.9436  0.1620  0.3567
  108MOL0     H14572   2.214   7.998   2.156 -0.7408 -1.3941  2.0163
  108MOL0     H14573   2.228   7.846   2.208 -1.2082 -1.0298 -0.4868
  108MOL0     H14574   2.022   7.961   2.014 -2.0312  0.3611  1.2469
  108MOL0     H14575   2.066   7.790   2.005 -1.5487  0.0517  1.1597
  108MOL0     H14576   1.844   7.829   2.358  3.2402  0.1242  1.9929
  108MOL0     H14577   2.563   7.706   2.378 -0.3909  0.3068 -0.5304
  108MOL0     H14578   2.811   7.562   2.485 -1.0254  0.3843 -2.2253
  108MOL0     H14579   2.863   7.690   2.593 -1.3818  2.6399  0.9244
  108MOL0     H14580   2.694   7.651   2.579  0.2307 -0.2745  0.0574
  109MOL0     O14581   3.843  10.336   8.725 -0.3133 -1.1889  0.4436
  109MOL0     C14582   3.804  10.386   8.835 -0.4001  0.1969  0.0984
  109MOL0     O14583   3.882  10.469   8.918  0.1750  1.0086  0.3183
  109MOL0     C14584   4.013  10.466   8.904  0.3582  0.2188  0.0432
  109MOL0     C14585   4.069  10.589   8.940  0.4697  0.5025  0.4367
  109MOL0     C14586   4.213  10.601   8.933  0.0526 -0.3983  0.0322
  109MOL0     C14587   4.289  10.486   8.912 -0.6332  0.0286  0.4170
  109MOL0     O14588   4.425  10.482   8.914  0.3496 -0.4618 -0.0877
  109MOL0     C14589   4.491  10.599   8.976  0.4614 -0.4083  0.1380
  109MOL0     C14590   4.617  10.553   9.045  0.0146  0.5448  0.3066
  109MOL0     C14591   4.710  10.672   9.081  0.6218 -0.7859  0.0032
  109MOL0     C14592   4.852  10.618   9.107 -0.4641 -0.2948 -0.9709
  109MOL0     C14593   4.948  10.728   9.161  0.8416 -0.3989  0.2564
  109MOL0     C14594   5.036  10.676   9.272 -0.1115 -0.0828  0.7381
  109MOL0     C14595   5.116  10.797   9.310 -0.4085 -0.3489  0.5595
  109MOL0     C14596   5.239  10.785   9.400 -0.3071  0.6582 -0.2341
  109MOL0     N14597   5.331  10.698   9.344 -0.7341 -0.4590  0.3173
  109MOL0     C14598   5.407  10.724   9.237  0.0727 -0.3718 -0.2032
  109MOL0     C14599   5.492  10.611   9.227  0.2298  0.5082  0.6174
  109MOL0     C14600   5.598  10.587   9.118  0.1004 -0.0232  0.3456
  109MOL0     C14601   5.738  10.629   9.157 -0.4356  0.5953 -0.1052
  109MOL0     C14602   5.809  10.537   9.252 -0.0579  0.4445  0.3365
  109MOL0     C14603   5.933  10.601   9.301 -0.6980 -0.5089  0.5894
  109MOL0     O14604   6.012  10.676   9.203  0.0418 -0.4501 -0.4194
  109MOL0     C14605   6.147  10.699   9.226 -0.7547 -0.5745  0.0713
  109MOL0     C14606   6.213  10.658   9.348  0.0315 -0.4287  0.5903
  109MOL0     C14607   6.353  10.668   9.356  0.3929  0.4348  0.1603
  109MOL0     C14608   6.433  10.710   9.245  0.0341  1.5136  0.1159
  109MOL0     C14609   6.582  10.715   9.251 -0.2410 -0.6300 -0.7017
  109MOL0     O14610   6.653  10.791   9.160 -0.1284  0.2469  0.2396
  109MOL0     C14611   6.782  10.790   9.140  0.7504 -0.4272 -0.1547
  109MOL0     C14612   6.877  10.711   9.206 -0.1537  0.0874 -0.2966
  109MOL0     C14613   7.004  10.718   9.174 -0.3486  0.0236  0.2088
  109MOL0     C14614   7.045  10.821   9.088  0.1870  0.0427 -0.3472
  109MOL0     O14615   7.182  10.826   9.081 -0.1848 -0.1697 -0.0983
  109MOL0     C14616   7.231  10.854   8.954  0.1618  0.4101  0.2017
  109MOL0     C14617   7.385  10.853   8.938  0.8402  0.0734 -0.0071
  109MOL0     C14618   7.465  10.943   9.039 -1.0941 -0.3258  0.6306
  109MOL0     C14619   7.608  10.895   9.041 -0.5734  1.4929  0.0485
  109MOL0     C14620   7.705  10.977   9.117 -0.3467  0.0559 -0.0799
  109MOL0     C14621   7.854  10.944   9.080  0.6066 -0.0500 -0.4217
  109MOL0     C14622   7.952  11.036   9.144 -0.6411 -0.5819 -0.0555
  109MOL0     C14623   7.969  10.991   9.290  0.1463  0.2679 -0.7359
  109MOL0    Cl14624   8.106  11.076   9.365  0.2434 -0.6604  0.6326
  109MOL0     C14625   6.956  10.894   9.011 -0.3692  0.8978  1.2103
  109MOL0     C14626   6.824  10.880   9.038  0.4301  1.4638  0.0641
  109MOL0     O14627   6.639  10.651   9.345 -0.3466  0.4382 -0.3503
  109MOL0     C14628   6.367  10.747   9.129 -0.1373 -0.1993 -0.7747
  109MOL0     C14629   6.227  10.742   9.120 -0.2979  0.1657 -0.3674
  109MOL0     N14630   5.460  10.524   9.330  0.5890 -0.0910  0.3927
  109MOL0     N14631   5.371  10.575   9.401  0.1494 -0.1659 -0.1097
  109MOL0     C14632   4.230  10.362   8.878 -0.5200  0.0246  0.2578
  109MOL0     C14633   4.092  10.350   8.881  0.1852 -0.1926  0.6908
  109MOL0     C14634   3.666  10.357   8.876  0.8270 -0.2727 -0.4701
  109MOL0     C14635   3.594  10.465   8.936 -0.0551  0.3195 -0.2886
  109MOL0     C14636   3.456  10.456   8.967 -0.2932  1.4579 -0.3801
  109MOL0     C14637   3.391  10.336   8.942  0.2906 -0.3500 -0.4451
  109MOL0     O14638   3.263  10.322   8.978 -0.3764  0.0806 -0.2019
  109MOL0     C14639   3.197  10.196   8.992  0.7763 -0.3700  0.0504
  109MOL0     C14640   3.054  10.232   8.999 -0.8298 -0.2051  0.2133
  109MOL0     C14641   2.964  10.126   9.074 -0.5238  0.0388  0.2859
  109MOL0     C14642   2.820  10.165   9.083  0.7762  0.5395 -0.4237
  109MOL0     C14643   2.759  10.183   8.953  0.3622 -0.0979  0.7992
  109MOL0     C14644   2.714  10.226   8.842  0.0547  0.6441  0.1443
  109MOL0     C14645   3.463  10.221   8.900  0.0811  0.8020  0.8431
  109MOL0     C14646   3.599  10.235   8.861  0.3311 -0.1055  0.0500
  109MOL0     C14647   3.660  10.127   8.784  0.1672  0.5185  0.7517
  109MOL0     H14648   4.016  10.679   8.969  0.9643  0.9102  0.1005
  109MOL0     H14649   4.262  10.699   8.935 -0.4937 -0.1303  0.9819
  109MOL0     H14650   4.504  10.675   8.899 -0.3944  0.4932  0.8451
  109MOL0     H14651   4.428  10.641   9.056  0.3303  0.0320 -0.1920
  109MOL0     H14652   4.667  10.490   8.971 -1.5916  1.4760 -1.6687
  109MOL0     H14653   4.584  10.498   9.133 -1.0334  1.2163  0.3469
  109MOL0     H14654   4.668  10.718   9.171  0.0777 -2.0098  0.3936
  109MOL0     H14655   4.718  10.753   9.008 -2.4732  1.0242  1.4326
  109MOL0     H14656   4.842  10.535   9.176 -0.7495 -1.8435 -2.7850
  109MOL0     H14657   4.892  10.576   9.014  0.5354 -1.3727 -0.0825
  109MOL0     H14658   5.006  10.776   9.081  1.0376 -0.6641  0.2351
  109MOL0     H14659   4.885  10.804   9.207  3.2892  1.0791  1.3966
  109MOL0     H14660   4.973  10.631   9.349 -1.9469 -0.7452 -1.0433
  109MOL0     H14661   5.096  10.595   9.230 -1.6971 -1.7000  1.4699
  109MOL0     H14662   5.047  10.865   9.362  0.5428 -0.5504  2.1635
  109MOL0     H14663   5.153  10.858   9.227  0.6510  0.6417  1.6981
  109MOL0     H14664   5.289  10.876   9.435  1.3667 -1.0459  2.2100
  109MOL0     H14665   5.199  10.743   9.494  0.3930 -2.3819 -1.1853
  109MOL0     H14666   5.395  10.808   9.169  1.2161  0.5474  0.7010
  109MOL0     H14667   5.599  10.482   9.089 -2.5446 -1.1073  3.5531
  109MOL0     H14668   5.575  10.645   9.028 -0.1801  0.1147  0.5052
  109MOL0     H14669   5.802  10.659   9.073  0.7753 -0.3190  0.4518
  109MOL0     H14670   5.726  10.723   9.210  0.8666  0.6042  0.2011
  109MOL0     H14671   5.835  10.444   9.201  1.7192  1.4057 -0.6421
  109MOL0     H14672   5.745  10.525   9.340 -0.0814  1.1805  0.4281
  109MOL0     H14673   5.992  10.516   9.335 -0.4362  0.1927  1.9494
  109MOL0     H14674   5.918  10.667   9.387  0.0923  0.1096  0.2614
  109MOL0     H14675   6.155  10.643   9.439  0.9512  2.4251  1.7426
  109MOL0     H14676   6.395  10.656   9.455 -0.9191 -1.2374  0.5600
  109MOL0     H14677   6.868  10.643   9.291  0.0313  2.9040  2.1558
  109MOL0     H14678   7.083  10.666   9.228  2.0661  3.3514  0.2133
  109MOL0     H14679   7.188  10.789   8.877 -0.9003  1.1952  0.1157
  109MOL0     H14680   7.198  10.950   8.914 -2.6189 -0.7669 -0.5857
  109MOL0     H14681   7.409  10.747   8.934  2.8486  0.4787  0.0707
  109MOL0     H14682   7.414  10.893   8.841 -1.7088  0.6503 -0.5914
  109MOL0     H14683   7.451  11.047   9.008  0.0060 -0.0005  1.1756
  109MOL0     H14684   7.413  10.931   9.135 -1.1254 -0.3215  0.6138
  109MOL0     H14685   7.645  10.881   8.939  0.7155  3.3349  0.2251
  109MOL0     H14686   7.618  10.795   9.085  0.2042  1.1969 -0.7650
  109MOL0     H14687   7.689  10.963   9.225  0.3239 -1.3913 -0.1468
  109MOL0     H14688   7.684  11.082   9.094 -0.0644 -0.3828 -2.6407
  109MOL0     H14689   7.878  10.839   9.097 -3.2430 -1.3043 -1.6578
  109MOL0     H14690   7.869  10.956   8.972 -1.9171  0.5138 -0.7847
  109MOL0     H14691   7.908  11.136   9.144 -1.5283 -0.8835  2.8195
  109MOL0     H14692   8.046  11.030   9.088 -1.0505 -1.3404 -0.6755
  109MOL0     H14693   7.872  11.011   9.336 -0.4043 -3.0865 -0.1997
  109MOL0     H14694   7.998  10.886   9.301 -1.8793 -0.1165  1.6094
  109MOL0     H14695   6.988  10.947   8.922 -1.2011 -0.8855 -0.2036
  109MOL0     H14696   6.748  10.928   8.977  0.5368  1.1887 -0.2881
  109MOL0     H14697   6.431  10.771   9.044  0.0511 -1.7036 -1.0952
  109MOL0     H14698   6.179  10.768   9.026  0.0240  0.0431 -0.5651
  109MOL0     H14699   4.289  10.279   8.840  0.5102  0.9501 -0.2390
  109MOL0     H14700   4.034  10.261   8.859 -0.4659  0.3864 -0.0162
  109MOL0     H14701   3.645  10.556   8.965  2.8552  0.0857 -4.0178
  109MOL0     H14702   3.398  10.540   9.004 -1.8000  0.5908 -0.6828
  109MOL0     H14703   3.221  10.145   9.086  1.9633 -2.2666 -1.2225
  109MOL0     H14704   3.211  10.129   8.907 -1.1059 -1.1519  0.3090
  109MOL0     H14705   3.015  10.263   8.901 -1.7697  1.1005  0.9639
  109MOL0     H14706   3.046  10.319   9.065  2.4109  0.8039 -0.5414
  109MOL0     H14707   3.010  10.113   9.173  0.5045 -1.5309 -0.3650
  109MOL0     H14708   2.966  10.039   9.009 -2.4558  1.6702 -2.1399
  109MOL0     H14709   2.775  10.082   9.137  0.9214  0.5446 -0.2927
  109MOL0     H14710   2.818  10.261   9.135  3.5696  1.8772 -2.4665
  109MOL0     H14711   2.674  10.273   8.754 -0.1260  0.7114  0.2604
  109MOL0     H14712   3.420  10.121   8.897  1.7573  0.0626 -0.4910
  109MOL0     H14713   3.671  10.150   8.678 -0.3492 -1.2355  0.2861
  109MOL0     H14714   3.763  10.114   8.821 -0.0267 -0.6862  0.9002
  109MOL0     H14715   3.602  10.034   8.787 -0.2810  0.7730  0.1045
  110MOL0     O14716   5.555   0.747   3.238  0.3590  0.1275 -0.3135
  110MOL0     C14717   5.650   0.731   3.162 -0.0372 -0.3558  1.0355
  110MOL0     O14718   5.676   0.620   3.094  0.2957  0.4789 -0.0151
  110MOL0     C14719   5.617   0.508   3.139 -0.0683  0.2104 -0.1762
  110MOL0     C14720   5.697   0.417   3.211  0.9999  0.0685 -0.1359
  110MOL0     C14721   5.645   0.305   3.265  0.6346  0.1351  0.4352
  110MOL0     C14722   5.505   0.281   3.267  0.3502 -1.3681 -0.2130
  110MOL0     O14723   5.458   0.183   3.357  0.0939 -0.3453 -0.3385
  110MOL0     C14724   5.315   0.177   3.385 -0.4929  0.3167  0.8843
  110MOL0     C14725   5.278   0.078   3.502 -0.2842 -0.4718  0.2841
  110MOL0     C14726   5.130   0.076   3.545 -0.0969 -0.1860 -0.1107
  110MOL0     C14727   5.126   0.004   3.681  0.7950 -0.5663  0.0607
  110MOL0     C14728   4.979   0.007   3.729  0.4640  0.1846  0.0452
  110MOL0     C14729   4.961  -0.100   3.843 -1.6976  0.9216 -0.7988
  110MOL0     C14730   4.829  -0.081   3.913 -0.0235  0.3673 -0.1972
  110MOL0     C14731   4.813  -0.172   4.043 -0.1316 -0.4221  0.2472
  110MOL0     N14732   4.712  -0.116   4.140 -0.6422  0.0847  0.1853
  110MOL0     C14733   4.738  -0.078   4.269 -0.3381 -0.1414  0.4114
  110MOL0     C14734   4.618  -0.057   4.330 -0.4616  0.2758 -0.5100
  110MOL0     C14735   4.597  -0.015   4.472  0.5545 -0.5264 -0.7253
  110MOL0     C14736   4.632  -0.122   4.590  0.0724  0.1231 -0.2613
  110MOL0     C14737   4.780  -0.111   4.616  0.5503 -0.4477 -0.8761
  110MOL0     C14738   4.816  -0.150   4.762  0.6004 -0.1574  0.5019
  110MOL0     O14739   4.783  -0.287   4.783  0.3614 -0.2567  0.2536
  110MOL0     C14740   4.697  -0.304   4.879  0.4191 -0.5727 -0.4427
  110MOL0     C14741   4.734  -0.293   5.011 -0.5070 -0.0087 -0.0716
  110MOL0     C14742   4.635  -0.294   5.110 -0.7855  1.2189  0.5622
  110MOL0     C14743   4.492  -0.312   5.083 -0.8373  0.6720  0.2125
  110MOL0     C14744   4.391  -0.321   5.191 -0.0031 -0.3156 -0.1177
  110MOL0     O14745   4.269  -0.373   5.161  0.4866  0.2547  0.0533
  110MOL0     C14746   4.175  -0.354   5.258  0.6261 -0.1455  0.3486
  110MOL0     C14747   4.121  -0.459   5.330 -0.0678  0.1477 -0.0003
  110MOL0     C14748   4.027  -0.434   5.426  0.2136  1.3944  0.0939
  110MOL0     C14749   3.982  -0.307   5.456 -0.0753  0.1889  0.1549
  110MOL0     O14750   3.905  -0.287   5.564  0.9752 -0.1439 -0.2884
  110MOL0     C14751   3.772  -0.334   5.543  0.7746 -0.2202 -0.0657
  110MOL0     C14752   3.714  -0.388   5.674 -0.0325 -0.1811 -0.4681
  110MOL0     C14753   3.568  -0.422   5.661 -0.5957  0.0599  1.3346
  110MOL0     C14754   3.495  -0.414   5.794  0.7858  0.1015 -0.6460
  110MOL0     C14755   3.340  -0.417   5.787 -0.2717  0.0775 -0.0886
  110MOL0     C14756   3.296  -0.558   5.733  0.4829 -0.2096  0.0265
  110MOL0     C14757   3.143  -0.576   5.731  0.3029 -0.5249  0.2839
  110MOL0     C14758   3.077  -0.482   5.642  0.4693  0.2142  0.7149
  110MOL0    Cl14759   3.128  -0.495   5.468 -0.3461  0.2914  0.5684
  110MOL0     C14760   4.034  -0.196   5.381 -0.6069 -0.0781 -0.8512
  110MOL0     C14761   4.131  -0.229   5.287 -0.1211 -0.0274  0.2050
  110MOL0     O14762   4.428  -0.273   5.304 -0.7236  0.4343 -0.0799
  110MOL0     C14763   4.454  -0.326   4.942  0.3238  0.0534 -0.3210
  110MOL0     C14764   4.560  -0.321   4.848  0.0599  0.8671 -0.5862
  110MOL0     N14765   4.522  -0.061   4.234 -0.4507 -0.3296  0.3022
  110MOL0     N14766   4.582  -0.079   4.118  0.8042  0.8744  0.6077
  110MOL0     C14767   5.430   0.366   3.194 -0.1704  0.5755  0.3175
  110MOL0     C14768   5.484   0.475   3.123  0.3306 -0.0272 -0.7279
  110MOL0     C14769   5.738   0.844   3.135 -0.1173 -0.1467  0.4575
  110MOL0     C14770   5.875   0.815   3.112 -0.0631 -0.3258  0.4530
  110MOL0     C14771   5.965   0.908   3.064  0.0376 -0.4307 -0.6383
  110MOL0     C14772   5.923   1.038   3.035  0.6417  0.6332  0.8539
  110MOL0     O14773   6.018   1.115   2.989  0.2040  0.0606  0.1168
  110MOL0     C14774   5.987   1.255   2.996 -0.7477 -0.0869  0.6038
  110MOL0     C14775   6.105   1.339   2.943  0.1370  0.2963 -0.6615
  110MOL0     C14776   6.233   1.311   3.015  0.5294  0.1907  0.4207
  110MOL0     C14777   6.339   1.415   2.993  0.9749  0.2549  0.4822
  110MOL0     C14778   6.383   1.429   2.855  0.4646  0.5516  0.3321
  110MOL0     C14779   6.398   1.428   2.735 -0.5639  0.3890  0.0622
  110MOL0     C14780   5.787   1.066   3.050  0.4899 -0.2379  0.2403
  110MOL0     C14781   5.692   0.971   3.098 -0.9717  0.7811 -0.7671
  110MOL0     C14782   5.544   1.000   3.099  0.9825 -0.2146 -0.3351
  110MOL0     H14783   5.800   0.445   3.230  1.0297  0.4723 -0.8656
  110MOL0     H14784   5.715   0.236   3.309 -0.3109 -1.5054 -0.5446
  110MOL0     H14785   5.274   0.274   3.415 -1.1070  0.4705 -0.3611
  110MOL0     H14786   5.261   0.119   3.309 -1.3669 -0.2672  1.9313
  110MOL0     H14787   5.349   0.095   3.583  0.9937  1.9131 -1.2175
  110MOL0     H14788   5.292  -0.026   3.473 -1.7837 -0.3994 -0.7932
  110MOL0     H14789   5.061   0.032   3.472  2.6028  0.3208 -3.1849
  110MOL0     H14790   5.089   0.177   3.548 -0.1729 -0.2168 -0.1112
  110MOL0     H14791   5.167  -0.095   3.659 -0.6616 -1.9887  3.1242
  110MOL0     H14792   5.181   0.061   3.756 -0.9974  2.2453 -0.5676
  110MOL0     H14793   4.952   0.107   3.764 -2.3333 -0.5195  0.0763
  110MOL0     H14794   4.913  -0.004   3.643  0.4747 -2.1448  0.2577
  110MOL0     H14795   4.971  -0.204   3.810  1.3938  1.2087 -1.0850
  110MOL0     H14796   5.042  -0.078   3.913 -0.5826  0.8967 -2.0324
  110MOL0     H14797   4.753  -0.118   3.844 -2.0799 -0.4070  2.3192
  110MOL0     H14798   4.822   0.027   3.934  1.0142  0.4340 -0.1169
  110MOL0     H14799   4.792  -0.273   4.006 -0.8504  0.9502 -3.6012
  110MOL0     H14800   4.910  -0.181   4.092  0.5732  1.2080 -0.7223
  110MOL0     H14801   4.834  -0.081   4.320 -0.3056  1.7798  0.5353
  110MOL0     H14802   4.645   0.083   4.476 -2.0468  0.8578 -0.8995
  110MOL0     H14803   4.491   0.006   4.493  1.2544  0.5290  2.1985
  110MOL0     H14804   4.565  -0.097   4.673 -1.4949 -1.8256 -0.8778
  110MOL0     H14805   4.605  -0.221   4.552 -3.3218  1.2419 -1.0471
  110MOL0     H14806   4.822  -0.012   4.598 -1.1514  0.3644 -0.5821
  110MOL0     H14807   4.821  -0.188   4.550  0.1746 -1.8761  0.5041
  110MOL0     H14808   4.767  -0.073   4.822 -0.2270 -0.9235  0.8231
  110MOL0     H14809   4.922  -0.147   4.791 -0.1297 -1.3580  3.7392
  110MOL0     H14810   4.842  -0.281   5.023 -0.9884  2.0644  3.3361
  110MOL0     H14811   4.661  -0.267   5.212  2.0025 -0.3975  0.3779
  110MOL0     H14812   4.164  -0.557   5.314 -0.4028  0.3199 -2.3607
  110MOL0     H14813   4.002  -0.520   5.488 -1.2837  1.5675 -0.2233
  110MOL0     H14814   3.706  -0.252   5.512 -0.3818  0.0885  2.8175
  110MOL0     H14815   3.775  -0.413   5.468  3.4670  0.6471 -0.9772
  110MOL0     H14816   3.769  -0.473   5.715 -1.3297 -1.6706 -1.6710
  110MOL0     H14817   3.730  -0.311   5.750 -0.9322 -1.7497  1.3977
  110MOL0     H14818   3.518  -0.363   5.584 -0.9104 -1.6438  0.1590
  110MOL0     H14819   3.568  -0.526   5.626 -0.7122  0.8105 -1.0995
  110MOL0     H14820   3.519  -0.317   5.839  0.1789  1.2008 -2.5337
  110MOL0     H14821   3.531  -0.496   5.857  3.3938  0.3341 -1.6877
  110MOL0     H14822   3.297  -0.337   5.726 -1.9191 -0.0537  0.8467
  110MOL0     H14823   3.298  -0.400   5.886  0.1006 -0.3915  0.1555
  110MOL0     H14824   3.329  -0.568   5.629 -0.4669 -1.7875 -0.1481
  110MOL0     H14825   3.348  -0.629   5.797  2.1905  0.5695 -0.4410
  110MOL0     H14826   3.109  -0.551   5.832  0.6874  0.9119  0.0935
  110MOL0     H14827   3.117  -0.680   5.710  0.9539 -0.2617 -2.1980
  110MOL0     H14828   2.970  -0.504   5.648  0.6567 -1.0288 -0.1373
  110MOL0     H14829   3.103  -0.381   5.677  3.8868 -0.5788  0.8803
  110MOL0     H14830   4.017  -0.091   5.401  4.3960  0.6014  1.1267
  110MOL0     H14831   4.177  -0.153   5.224  0.0401  0.7746  1.2562
  110MOL0     H14832   4.352  -0.349   4.915  0.6363 -2.6263  0.4110
  110MOL0     H14833   4.528  -0.335   4.746  0.0705 -0.3890 -0.4295
  110MOL0     H14834   5.325   0.343   3.185 -0.5565  2.8539 -2.2626
  110MOL0     H14835   5.416   0.542   3.072 -0.5224 -1.9339 -2.1625
  110MOL0     H14836   5.906   0.714   3.134 -3.7000 -1.2190  2.3020
  110MOL0     H14837   6.067   0.873   3.055 -0.0754 -0.7409 -0.7216
  110MOL0     H14838   5.971   1.289   3.099  1.7343  0.8552  0.7579
  110MOL0     H14839   5.899   1.285   2.940  0.0824 -2.3746 -2.1690
  110MOL0     H14840   6.072   1.443   2.950 -2.8356 -0.6517  2.1199
  110MOL0     H14841   6.117   1.318   2.836  1.5621 -1.1256 -0.2577
  110MOL0     H14842   6.277   1.212   3.000 -0.5056  0.1099 -2.9324
  110MOL0     H14843   6.214   1.322   3.122 -1.9600 -2.1325  0.3079
  110MOL0     H14844   6.304   1.517   3.012  1.4231  0.4185  0.4547
  110MOL0     H14845   6.425   1.403   3.061  1.1646 -0.3371  0.1413
  110MOL0     H14846   6.413   1.443   2.630 -1.1588  1.1707  0.0798
  110MOL0     H14847   5.748   1.167   3.038  2.9735  0.9643  1.5160
  110MOL0     H14848   5.515   1.074   3.023  1.0987  0.2827  0.0995
  110MOL0     H14849   5.490   0.911   3.068 -0.5375  0.5443  0.0417
  110MOL0     H14850   5.507   1.045   3.192 -2.9266 -0.6335 -1.5015
  111MOL0     O14851   4.625  11.023  10.860  1.1698 -0.0189 -0.2900
  111MOL0     C14852   4.578  10.952  10.953 -0.0295  0.5486  0.0711
  111MOL0     O14853   4.657  10.876  11.034 -0.2104  0.0571 -0.7599
  111MOL0     C14854   4.792  10.868  11.023 -0.7220 -0.0598 -0.3026
  111MOL0     C14855   4.878  10.978  11.019 -0.9619 -0.0393  0.5668
  111MOL0     C14856   5.019  10.965  11.019  0.0333  0.2935  0.6368
  111MOL0     C14857   5.081  10.838  11.024 -0.1621 -0.4914 -0.5611
  111MOL0     O14858   5.219  10.823  11.031  0.6576  0.0320 -0.2642
  111MOL0     C14859   5.257  10.752  11.148 -0.0273  0.6527 -0.3584
  111MOL0     C14860   5.407  10.725  11.151 -0.5980  0.5262  0.4776
  111MOL0     C14861   5.491  10.841  11.096 -0.2935  0.2925  0.4415
  111MOL0     C14862   5.640  10.829  11.117 -0.4773  0.2563 -0.8428
  111MOL0     C14863   5.725  10.945  11.072  0.6259  0.6262 -0.7126
  111MOL0     C14864   5.880  10.931  11.075  0.6689 -0.5602 -0.5668
  111MOL0     C14865   5.928  10.833  11.191 -0.0357  0.1392 -0.2455
  111MOL0     C14866   6.084  10.808  11.191 -0.1053 -0.5232 -0.0553
  111MOL0     N14867   6.154  10.924  11.231  0.2001 -0.7486 -0.8385
  111MOL0     C14868   6.218  11.014  11.147  0.1656  0.3207 -0.3557
  111MOL0     C14869   6.305  11.083  11.225 -0.4065  0.5436  0.7268
  111MOL0     C14870   6.393  11.198  11.187  0.2350  0.4541  0.6221
  111MOL0     C14871   6.512  11.134  11.111 -1.3026 -0.1435 -0.5669
  111MOL0     C14872   6.602  11.250  11.051  0.4534 -0.3384  0.1369
  111MOL0     C14873   6.723  11.195  10.977  0.4247  0.2148 -0.2037
  111MOL0     O14874   6.797  11.098  11.051  0.3721  0.1514 -0.1451
  111MOL0     C14875   6.930  11.065  11.019  0.0021 -0.1458  0.4258
  111MOL0     C14876   6.990  10.974  11.105 -1.0991  0.2400  0.1183
  111MOL0     C14877   7.118  10.915  11.073 -0.6290 -0.1230  0.1263
  111MOL0     C14878   7.195  10.963  10.963  0.1387 -0.2739 -0.0526
  111MOL0     C14879   7.329  10.916  10.929  0.3433 -0.2020 -0.5634
  111MOL0     O14880   7.362  10.798  10.988  1.1308 -0.0155  0.1570
  111MOL0     C14881   7.487  10.748  10.978  0.0862 -0.4126  0.3649
  111MOL0     C14882   7.604  10.822  10.999  0.2315 -0.8096 -0.3553
  111MOL0     C14883   7.736  10.776  10.974 -0.1271 -0.4174 -0.2602
  111MOL0     C14884   7.749  10.658  10.915  0.0737 -0.7161 -0.6324
  111MOL0     O14885   7.873  10.618  10.871  0.4827 -0.0364  0.1948
  111MOL0     C14886   7.884  10.492  10.806  0.3219  0.0995 -0.7609
  111MOL0     C14887   8.019  10.456  10.752 -0.8817  0.5988 -0.3872
  111MOL0     C14888   8.092  10.572  10.692 -0.2716  0.2572 -0.6894
  111MOL0     C14889   8.148  10.512  10.562 -0.1970 -0.2679  0.3619
  111MOL0     C14890   8.217  10.621  10.478 -0.0951  0.3420  0.0047
  111MOL0     C14891   8.132  10.731  10.429  0.3196  0.3139  0.8307
  111MOL0     C14892   7.986  10.699  10.386  0.9712  0.1949  0.5276
  111MOL0     C14893   7.915  10.828  10.345 -0.1439 -0.0135 -0.3890
  111MOL0    Cl14894   7.974  10.877  10.187  0.0208  0.1480  0.1780
  111MOL0     C14895   7.628  10.584  10.881 -0.1642  0.4249 -0.3444
  111MOL0     C14896   7.501  10.621  10.925  0.4317 -0.0483 -0.0705
  111MOL0     O14897   7.390  10.964  10.835  0.6805  0.0398  0.2074
  111MOL0     C14898   7.133  11.065  10.889  0.0599 -1.0165  0.2198
  111MOL0     C14899   6.999  11.108  10.912 -0.1192  0.0627 -0.4652
  111MOL0     N14900   6.272  11.055  11.356 -0.4280 -0.1227  0.0848
  111MOL0     N14901   6.184  10.962  11.361  0.0939 -0.1084 -0.1350
  111MOL0     C14902   4.987  10.730  11.040 -0.7919 -0.4668  0.8102
  111MOL0     C14903   4.846  10.741  11.044 -0.1896 -0.1907  0.3552
  111MOL0     C14904   4.426  10.943  10.978  0.6021 -0.0232  0.3674
  111MOL0     C14905   4.341  11.060  10.973  1.1879 -0.6746  0.2072
  111MOL0     C14906   4.203  11.051  10.992 -0.6215  0.3881 -0.1975
  111MOL0     C14907   4.139  10.930  11.016  0.3179  0.2344 -0.3987
  111MOL0     O14908   4.001  10.909  11.029 -0.2486 -0.0504 -0.5870
  111MOL0     C14909   3.909  10.998  10.964 -0.8067 -0.1075  0.8196
  111MOL0     C14910   3.760  10.968  10.999 -0.6126 -0.3482 -0.5725
  111MOL0     C14911   3.653  11.078  10.964  0.3259 -0.2276 -0.9382
  111MOL0     C14912   3.515  11.028  10.965 -0.0556  0.8252 -0.7210
  111MOL0     C14913   3.437  11.143  10.910 -0.0012  0.3274 -0.1645
  111MOL0     C14914   3.376  11.245  10.882  0.5488 -0.7164 -0.2034
  111MOL0     C14915   4.219  10.818  11.027 -0.0082  0.1884 -0.2639
  111MOL0     C14916   4.361  10.821  11.009 -1.1448  0.6063  0.3948
  111MOL0     C14917   4.447  10.699  11.028  0.3590  0.0420 -0.4131
  111MOL0     H14918   4.833  11.076  11.022 -0.3323  0.2362  1.5633
  111MOL0     H14919   5.069  11.058  10.994 -4.3849  2.6093 -0.6539
  111MOL0     H14920   5.224  10.814  11.231  1.1826  2.5918 -1.2683
  111MOL0     H14921   5.209  10.654  11.149  0.0509  0.5815 -1.6138
  111MOL0     H14922   5.427  10.644  11.079  2.0292  1.0094  0.5404
  111MOL0     H14923   5.433  10.691  11.252  0.2984 -3.1017 -0.7999
  111MOL0     H14924   5.483  10.926  11.165  0.6455 -0.9268  2.1543
  111MOL0     H14925   5.466  10.869  10.993 -1.3439 -0.6034  0.4363
  111MOL0     H14926   5.670  10.796  11.217 -0.3861  1.7178 -0.3651
  111MOL0     H14927   5.663  10.738  11.060  0.3191  2.1284 -3.7173
  111MOL0     H14928   5.707  10.958  10.965 -1.2035 -2.8008 -0.9604
  111MOL0     H14929   5.708  11.035  11.133 -2.3861 -0.5743  0.3882
  111MOL0     H14930   5.918  10.896  10.978  0.6134 -2.2764 -0.0139
  111MOL0     H14931   5.922  11.030  11.096 -2.7253  1.2111 -1.4011
  111MOL0     H14932   5.879  10.736  11.176  0.0262  0.0084  0.3684
  111MOL0     H14933   5.873  10.855  11.284  1.3665 -3.2791  1.5870
  111MOL0     H14934   6.101  10.735  11.271 -0.0288 -0.0936  0.3229
  111MOL0     H14935   6.115  10.768  11.094  3.7829  1.7591  0.0577
  111MOL0     H14936   6.217  11.027  11.039  0.3079 -2.0666 -0.7049
  111MOL0     H14937   6.338  11.266  11.122 -2.3882 -1.7543  0.3411
  111MOL0     H14938   6.433  11.257  11.270 -1.7084  1.4774  0.9011
  111MOL0     H14939   6.579  11.092  11.186 -2.8046 -3.1673 -0.7680
  111MOL0     H14940   6.481  11.057  11.040  2.6883 -2.0757 -0.5047
  111MOL0     H14941   6.626  11.308  11.140  0.2964  0.6472 -0.4514
  111MOL0     H14942   6.539  11.312  10.987 -0.5314 -1.6092 -0.1735
  111MOL0     H14943   6.796  11.271  10.949  2.6884 -2.6446 -2.9778
  111MOL0     H14944   6.693  11.137  10.889 -0.5669  0.4640 -0.0387
  111MOL0     H14945   6.936  10.939  11.193  0.1667 -1.7849  0.1504
  111MOL0     H14946   7.152  10.831  11.133  2.2264  0.9179  0.0980
  111MOL0     H14947   7.590  10.928  11.019 -0.8047 -0.4745 -2.5614
  111MOL0     H14948   7.824  10.835  10.997 -0.4200  0.0613 -0.3514
  111MOL0     H14949   7.849  10.416  10.876  2.0985  0.7838  0.9416
  111MOL0     H14950   7.828  10.496  10.712 -1.1306  0.9058  0.1000
  111MOL0     H14951   8.076  10.422  10.838 -3.6430  0.2828  1.4265
  111MOL0     H14952   8.007  10.373  10.682 -0.2713  1.7461 -1.9305
  111MOL0     H14953   8.027  10.659  10.673 -0.4774  0.0273 -1.0599
  111MOL0     H14954   8.174  10.607  10.755 -0.0226 -1.9167  0.2611
  111MOL0     H14955   8.073  10.469  10.494  0.7803 -0.0496 -0.8881
  111MOL0     H14956   8.218  10.432  10.589  1.4844 -0.0511 -2.8210
  111MOL0     H14957   8.271  10.571  10.397  3.3949  2.0693  1.0509
  111MOL0     H14958   8.296  10.670  10.537  2.5774 -3.7300  0.2168
  111MOL0     H14959   8.120  10.812  10.503  0.4844 -1.1717  2.5595
  111MOL0     H14960   8.192  10.767  10.345  0.5278 -0.0159  0.8372
  111MOL0     H14961   7.923  10.648  10.459 -0.6553 -1.8422 -2.1274
  111MOL0     H14962   7.978  10.630  10.302 -2.1477  1.5350 -0.4341
  111MOL0     H14963   7.808  10.815  10.325 -0.0340 -0.3791 -0.7347
  111MOL0     H14964   7.930  10.905  10.421  2.4187  0.1517 -0.9762
  111MOL0     H14965   7.639  10.484  10.840 -0.5424 -0.3994  1.4788
  111MOL0     H14966   7.414  10.559  10.904  2.2914 -2.2514 -1.8086
  111MOL0     H14967   7.175  11.111  10.800  1.4599  0.0599  1.3870
  111MOL0     H14968   6.974  11.187  10.843 -1.3903 -0.6864 -0.8821
  111MOL0     H14969   5.043  10.637  11.045 -0.9688 -0.5054  2.2709
  111MOL0     H14970   4.789  10.649  11.055 -0.9628  0.1909 -0.3447
  111MOL0     H14971   4.385  11.159  10.963  0.8891 -0.6445 -1.0448
  111MOL0     H14972   4.153  11.148  10.991  0.3312  0.8858 -0.6163
  111MOL0     H14973   3.907  10.980  10.856 -0.8983 -2.0013  1.1035
  111MOL0     H14974   3.941  11.102  10.979  2.0135 -0.0712 -3.5915
  111MOL0     H14975   3.782  10.949  11.104  2.0991  0.6522 -0.8527
  111MOL0     H14976   3.728  10.878  10.947  1.7930 -1.1547 -0.8080
  111MOL0     H14977   3.666  11.121  10.865 -0.2642  1.3163 -0.3704
  111MOL0     H14978   3.668  11.162  11.033 -1.6995  0.0314 -0.7668
  111MOL0     H14979   3.501  10.941  10.899  2.0277  0.2141 -0.4277
  111MOL0     H14980   3.489  10.995  11.066  1.5322 -2.1738 -1.1477
  111MOL0     H14981   3.326  11.338  10.862  2.4698  0.1730 -1.1534
  111MOL0     H14982   4.166  10.730  11.065 -2.6504  2.3253  1.4202
  111MOL0     H14983   4.493  10.702  11.127 -1.4847 -0.1136  0.4939
  111MOL0     H14984   4.392  10.605  11.037 -1.8833  1.2635 -0.6660
  111MOL0     H14985   4.523  10.689  10.950 -2.2790  0.4952 -3.2294
  112MOL0     O14986   2.005   9.444   4.684 -0.7008 -0.2458 -0.7198
  112MOL0     C14987   1.945   9.470   4.786 -0.2473  0.0887 -0.9050
  112MOL0     O14988   1.993   9.451   4.911  0.0415  0.1938  0.1849
  112MOL0     C14989   2.116   9.394   4.938  0.9467 -0.6345  0.1928
  112MOL0     C14990   2.205   9.468   5.002 -0.6400  0.1255 -0.2181
  112MOL0     C14991   2.339   9.421   5.014 -0.1194  0.3441  0.1158
  112MOL0     C14992   2.378   9.298   4.957 -0.5223 -0.6049 -0.9832
  112MOL0     O14993   2.507   9.250   4.967  0.1118  0.7114 -0.4004
  112MOL0     C14994   2.609   9.347   4.923 -0.1211 -0.6806  0.9990
  112MOL0     C14995   2.722   9.286   4.836 -0.0366 -0.2900  0.1728
  112MOL0     C14996   2.854   9.252   4.906 -0.6003 -0.1370  0.1775
  112MOL0     C14997   2.970   9.240   4.802  0.6215 -0.1413  0.9819
  112MOL0     C14998   3.107   9.200   4.866  0.2821  0.0239  0.3962
  112MOL0     C14999   3.189   9.158   4.757 -0.7726  0.2663 -0.1334
  112MOL0     C15000   3.326   9.119   4.814  0.9015 -0.3421 -0.3593
  112MOL0     C15001   3.422   9.099   4.695  0.2560 -0.5668 -0.3172
  112MOL0     N15002   3.550   9.052   4.739  0.9902 -0.1914  0.0121
  112MOL0     C15003   3.618   9.085   4.856  0.6989 -0.2886 -0.2128
  112MOL0     C15004   3.725   9.003   4.853  1.1433  0.8112  0.4177
  112MOL0     C15005   3.836   8.986   4.954 -0.3246 -0.0476 -0.4917
  112MOL0     C15006   3.839   8.856   5.033  0.1728 -1.6554 -0.7568
  112MOL0     C15007   3.885   8.743   4.941 -0.0574  0.8828  0.3189
  112MOL0     C15008   3.946   8.626   5.011 -0.0297 -0.7555 -0.2035
  112MOL0     O15009   4.068   8.668   5.067 -0.1264 -0.3946  0.0468
  112MOL0     C15010   4.161   8.579   5.126  0.8583 -0.1762 -0.2574
  112MOL0     C15011   4.138   8.445   5.150 -0.3437  0.8773  0.1294
  112MOL0     C15012   4.236   8.369   5.209  0.3958  0.3976  0.0087
  112MOL0     C15013   4.358   8.435   5.247  0.1701  0.4321  0.4536
  112MOL0     C15014   4.455   8.354   5.315  0.2190  0.0539  0.6878
  112MOL0     O15015   4.561   8.415   5.375 -0.5047 -0.3143  0.0902
  112MOL0     C15016   4.675   8.345   5.404 -0.5801  0.1484 -0.7709
  112MOL0     C15017   4.793   8.356   5.326  1.1295 -0.2982 -0.3270
  112MOL0     C15018   4.911   8.281   5.360  0.3952 -0.5590  0.2925
  112MOL0     C15019   4.915   8.188   5.465  0.3969  0.0655 -0.0882
  112MOL0     O15020   5.020   8.116   5.517  0.0707  0.1698  0.0045
  112MOL0     C15021   5.133   8.091   5.428 -0.3500 -0.6478 -0.3284
  112MOL0     C15022   5.211   7.982   5.499  0.0902 -0.4886  0.0698
  112MOL0     C15023   5.321   7.916   5.407 -0.3323  0.3677  0.5225
  112MOL0     C15024   5.377   7.803   5.490  0.0049  0.1328 -0.2087
  112MOL0     C15025   5.489   7.720   5.420  0.3214 -0.3545 -0.4261
  112MOL0     C15026   5.506   7.579   5.479  0.3472 -0.0262 -0.0492
  112MOL0     C15027   5.620   7.516   5.396 -0.7124  0.6689 -0.1403
  112MOL0     C15028   5.572   7.444   5.275 -0.3572  0.2946 -0.6886
  112MOL0    Cl15029   5.453   7.323   5.315  0.1493 -0.1130 -0.4555
  112MOL0     C15030   4.799   8.172   5.535 -0.1318  0.3834  0.5772
  112MOL0     C15031   4.678   8.240   5.503  0.6265  0.2661 -0.4227
  112MOL0     O15032   4.437   8.236   5.312 -0.2776  0.5424  0.6129
  112MOL0     C15033   4.378   8.568   5.215 -0.8846 -0.0920 -0.3935
  112MOL0     C15034   4.279   8.643   5.162 -0.3115  0.4211  0.2695
  112MOL0     N15035   3.725   8.942   4.731  0.5629 -0.0136 -0.3797
  112MOL0     N15036   3.619   8.967   4.668  0.2031  0.3481 -0.2005
  112MOL0     C15037   2.277   9.220   4.901 -0.9068 -0.0432 -0.3629
  112MOL0     C15038   2.155   9.276   4.884  0.3006  0.5401  0.9667
  112MOL0     C15039   1.810   9.526   4.761  0.9934  0.0222 -0.2492
  112MOL0     C15040   1.742   9.490   4.640 -0.0047  0.3082 -0.5719
  112MOL0     C15041   1.614   9.534   4.618  0.1608 -0.6703 -1.0465
  112MOL0     C15042   1.551   9.624   4.707 -0.4263 -0.2285  0.7181
  112MOL0     O15043   1.429   9.666   4.679  0.2274 -0.5191  0.2676
  112MOL0     C15044   1.356   9.731   4.789  0.0940 -0.4747  1.0864
  112MOL0     C15045   1.209   9.729   4.745  0.7287  0.9885  0.1865
  112MOL0     C15046   1.174   9.815   4.621  0.8050 -0.4691  0.4236
  112MOL0     C15047   1.033   9.811   4.563  0.9486 -0.2007 -0.0271
  112MOL0     C15048   0.949   9.824   4.681 -0.4462 -0.9064  0.5642
  112MOL0     C15049   0.873   9.830   4.771  0.4189  0.2778 -0.2063
  112MOL0     C15050   1.616   9.664   4.821 -0.9055  0.3103 -0.1084
  112MOL0     C15051   1.744   9.615   4.844  0.2473 -0.8977 -0.9964
  112MOL0     C15052   1.817   9.675   4.964  1.0460  0.0939  0.0271
  112MOL0     H15053   2.171   9.561   5.049 -1.2472 -0.6840  1.0068
  112MOL0     H15054   2.413   9.470   5.075  1.2980 -0.8320 -0.5960
  112MOL0     H15055   2.576   9.433   4.864 -1.8209 -1.1792  1.1769
  112MOL0     H15056   2.642   9.393   5.017 -3.0100 -1.8133  2.7128
  112MOL0     H15057   2.755   9.364   4.767  2.3420  1.6106  3.2182
  112MOL0     H15058   2.679   9.200   4.784 -1.1050  0.1923  0.2162
  112MOL0     H15059   2.857   9.153   4.951  3.5690  0.0181  0.6672
  112MOL0     H15060   2.866   9.316   4.994  0.2713 -1.2095  0.8656
  112MOL0     H15061   2.930   9.168   4.731 -0.6461  1.2263  0.2440
  112MOL0     H15062   2.975   9.329   4.738  1.0872 -0.0993  1.0718
  112MOL0     H15063   3.138   9.293   4.913  0.7117  0.8043 -1.3502
  112MOL0     H15064   3.087   9.115   4.931  1.3298  0.2873  1.0849
  112MOL0     H15065   3.151   9.066   4.710 -0.8644 -0.7711  1.8625
  112MOL0     H15066   3.213   9.240   4.689  1.6821  0.0592  0.3915
  112MOL0     H15067   3.318   9.030   4.877  0.9886  0.9689  1.6082
  112MOL0     H15068   3.368   9.201   4.873  2.7957 -1.6967  0.2934
  112MOL0     H15069   3.375   9.018   4.640  3.0570 -0.4873 -3.0801
  112MOL0     H15070   3.440   9.192   4.639 -0.8803  0.3735  0.8041
  112MOL0     H15071   3.590   9.167   4.922  0.7894  0.3667 -0.9685
  112MOL0     H15072   3.934   8.997   4.907  0.9377  0.4806  2.0720
  112MOL0     H15073   3.834   9.068   5.026  0.4090 -3.2801  3.6307
  112MOL0     H15074   3.907   8.867   5.117 -2.0566 -1.0537  1.0709
  112MOL0     H15075   3.737   8.837   5.067 -2.0738  2.6078 -4.1250
  112MOL0     H15076   3.969   8.768   4.875  2.2665 -3.0477  1.4238
  112MOL0     H15077   3.806   8.706   4.875  2.2054 -0.6763 -1.7130
  112MOL0     H15078   3.975   8.546   4.941  1.4226 -0.5276  0.1104
  112MOL0     H15079   3.869   8.588   5.080 -1.5231 -0.9685 -1.9007
  112MOL0     H15080   4.057   8.391   5.101 -0.9749 -0.0445  2.0814
  112MOL0     H15081   4.213   8.267   5.237  1.5740  0.0715 -0.1258
  112MOL0     H15082   4.798   8.440   5.257  1.6897 -1.1927 -1.4115
  112MOL0     H15083   5.002   8.304   5.305  1.2777 -0.4424  1.7585
  112MOL0     H15084   5.101   8.058   5.329 -0.0262 -0.0104 -0.6544
  112MOL0     H15085   5.208   8.171   5.424  0.5032 -1.3883  0.4283
  112MOL0     H15086   5.259   8.023   5.588 -0.0305 -2.6422  1.2008
  112MOL0     H15087   5.144   7.908   5.543  0.7897 -0.2987  1.5087
  112MOL0     H15088   5.279   7.865   5.320  2.7612 -2.6378  0.5830
  112MOL0     H15089   5.404   7.979   5.373  0.6829  1.8410  5.0056
  112MOL0     H15090   5.299   7.728   5.503  0.8520 -0.6071  0.7328
  112MOL0     H15091   5.416   7.842   5.585 -1.0473 -1.0190  0.7223
  112MOL0     H15092   5.576   7.785   5.409  0.1306  0.0747  0.5182
  112MOL0     H15093   5.452   7.696   5.320  1.0411  1.0728 -1.0656
  112MOL0     H15094   5.529   7.593   5.585  1.4860 -0.0535 -0.2710
  112MOL0     H15095   5.415   7.519   5.476  0.8329 -0.8880  1.3595
  112MOL0     H15096   5.667   7.437   5.455 -3.5062 -0.4283  0.7640
  112MOL0     H15097   5.697   7.587   5.364 -2.7358  2.8193 -0.5628
  112MOL0     H15098   5.530   7.517   5.205  0.7044  0.7118 -0.9076
  112MOL0     H15099   5.649   7.384   5.226  1.0442  0.5664  1.1047
  112MOL0     H15100   4.789   8.094   5.610 -0.5734 -1.5424 -1.3732
  112MOL0     H15101   4.589   8.202   5.553  2.1674 -0.0381  2.2915
  112MOL0     H15102   4.473   8.608   5.249  0.0432 -0.6915 -2.1670
  112MOL0     H15103   4.306   8.748   5.153  0.6226  0.2244  0.6765
  112MOL0     H15104   2.306   9.130   4.847 -1.8665 -1.2097  0.9975
  112MOL0     H15105   2.091   9.221   4.815  1.0525  0.7635  0.0610
  112MOL0     H15106   1.795   9.429   4.567 -0.5240  1.0444 -1.6008
  112MOL0     H15107   1.562   9.509   4.525  1.7378  1.1666 -2.4990
  112MOL0     H15108   1.380   9.837   4.795 -2.4311  0.4381 -2.0945
  112MOL0     H15109   1.369   9.674   4.881 -0.2301 -1.1737  0.7045
  112MOL0     H15110   1.143   9.758   4.827 -0.4205 -0.5709 -0.1558
  112MOL0     H15111   1.183   9.623   4.742  0.4755  1.0799 -1.1230
  112MOL0     H15112   1.244   9.805   4.538  1.0152 -0.5865  0.6148
  112MOL0     H15113   1.189   9.919   4.651 -2.3430  0.6293 -1.2533
  112MOL0     H15114   1.040   9.901   4.502  1.0566  0.7794  1.3972
  112MOL0     H15115   1.008   9.737   4.486 -0.2735  1.5675 -1.4358
  112MOL0     H15116   0.801   9.850   4.847  1.6210  1.5515  0.6647
  112MOL0     H15117   1.575   9.731   4.897 -1.3847  0.4512 -0.4814
  112MOL0     H15118   1.918   9.711   4.941  0.6452  0.8088 -0.6559
  112MOL0     H15119   1.762   9.763   5.000 -1.7373 -1.3018 -0.5407
  112MOL0     H15120   1.824   9.602   5.045  0.7198 -0.3608 -0.3499
  113MOL0     O15121   5.698  10.183   7.925 -0.4430 -1.3475  0.6852
  113MOL0     C15122   5.665  10.251   8.027 -0.4221  0.3718 -0.0266
  113MOL0     O15123   5.752  10.336   8.098 -0.4580 -1.2153 -0.3434
  113MOL0     C15124   5.882  10.335   8.054  0.4846 -0.0792  0.0266
  113MOL0     C15125   5.975  10.259   8.120 -0.3642  0.0421  0.8677
  113MOL0     C15126   6.108  10.252   8.076  0.1057 -0.4973 -0.4486
  113MOL0     C15127   6.153  10.341   7.985 -1.0375 -0.0869  1.1913
  113MOL0     O15128   6.282  10.359   7.945  0.2747  0.2428  0.4336
  113MOL0     C15129   6.375  10.261   7.987 -0.5686 -0.1361 -0.4586
  113MOL0     C15130   6.489  10.312   7.907 -0.9728  0.2743 -0.2633
  113MOL0     C15131   6.609  10.232   7.946 -0.4291 -0.5134  0.6442
  113MOL0     C15132   6.735  10.287   7.871 -0.4486 -0.2234  0.2407
  113MOL0     C15133   6.848  10.201   7.935 -0.1898  0.7728 -0.7785
  113MOL0     C15134   6.987  10.247   7.898 -0.4423  0.4986  0.5399
  113MOL0     C15135   7.097  10.149   7.937 -0.3486 -0.1549 -0.0807
  113MOL0     C15136   7.098  10.010   7.869 -0.1508  0.6583  0.6568
  113MOL0     N15137   7.178  10.015   7.734  0.8178 -0.5684  0.3512
  113MOL0     C15138   7.313  10.027   7.728  0.5280  0.1763 -0.0398
  113MOL0     C15139   7.337  10.074   7.601 -0.4311 -0.1983 -0.5334
  113MOL0     C15140   7.472  10.094   7.537  0.4755  0.6157  0.3158
  113MOL0     C15141   7.504   9.967   7.471  0.6528  0.1256  1.1174
  113MOL0     C15142   7.648   9.953   7.417 -0.2189 -0.9350  1.1658
  113MOL0     C15143   7.690  10.025   7.280 -0.0064  0.1646 -0.9124
  113MOL0     O15144   7.836   9.983   7.253  0.3557  0.3943 -0.0449
  113MOL0     C15145   7.936  10.043   7.326  0.3551 -0.3801  0.8731
  113MOL0     C15146   8.071  10.004   7.306  0.2077  0.5387  0.0197
  113MOL0     C15147   8.173  10.066   7.372  0.5508 -0.4504  0.9074
  113MOL0     C15148   8.152  10.181   7.449 -1.0017  0.5873 -0.0119
  113MOL0     C15149   8.261  10.257   7.507  0.3936 -0.5141  0.8321
  113MOL0     O15150   8.391  10.214   7.487  0.4058  0.0165  0.0181
  113MOL0     C15151   8.501  10.275   7.545 -0.2817  0.3207  0.5996
  113MOL0     C15152   8.602  10.193   7.589 -0.1765 -0.1005  0.4780
  113MOL0     C15153   8.727  10.253   7.643  0.4453  0.0106 -0.2421
  113MOL0     C15154   8.747  10.394   7.649  0.5430  0.4918  0.3161
  113MOL0     O15155   8.863  10.458   7.688 -0.2706  0.1678  0.5826
  113MOL0     C15156   8.985  10.378   7.701 -0.0058  0.9164 -0.0377
  113MOL0     C15157   9.029  10.355   7.559  0.1350 -0.3794  0.4370
  113MOL0     C15158   9.178  10.300   7.543  0.4772  0.5451 -0.5254
  113MOL0     C15159   9.179  10.167   7.614  0.1430 -0.5202 -0.4594
  113MOL0     C15160   9.324  10.110   7.604 -0.2864  0.6056  0.0125
  113MOL0     C15161   9.420  10.147   7.713  0.6457 -0.1860  0.0335
  113MOL0     C15162   9.558  10.199   7.659  0.1140 -0.1571  0.5356
  113MOL0     C15163   9.641  10.268   7.769  0.8405  0.0049  0.0417
  113MOL0    Cl15164   9.696  10.136   7.871 -0.2768  0.1054 -0.1154
  113MOL0     C15165   8.640  10.467   7.597 -0.4020 -0.5176 -0.1174
  113MOL0     C15166   8.525  10.411   7.549 -0.2309 -0.4207 -0.1087
  113MOL0     O15167   8.233  10.368   7.555 -0.1869  0.5156 -0.0639
  113MOL0     C15168   8.017  10.217   7.469  1.0488 -0.7937 -0.0553
  113MOL0     C15169   7.914  10.150   7.414 -0.0703  0.5729 -0.7224
  113MOL0     N15170   7.222  10.084   7.532  0.1447 -1.2356  0.7511
  113MOL0     N15171   7.128  10.048   7.612 -0.8922 -0.5593  0.5051
  113MOL0     C15172   6.059  10.419   7.924 -0.4561  0.2099  0.0966
  113MOL0     C15173   5.925  10.429   7.962 -0.0486 -0.2372 -0.2197
  113MOL0     C15174   5.528  10.240   8.070 -0.1412  0.0454  0.0937
  113MOL0     C15175   5.510  10.282   8.199  0.9381  0.5627  0.4782
  113MOL0     C15176   5.381  10.280   8.255 -0.2819 -0.4423  0.2252
  113MOL0     C15177   5.268  10.245   8.183 -0.0881  0.8012  0.2640
  113MOL0     O15178   5.146  10.240   8.244 -0.2131  0.1427 -0.2078
  113MOL0     C15179   5.042  10.156   8.185 -0.2223  0.0334  0.2463
  113MOL0     C15180   4.943  10.147   8.287  1.5481 -0.2305 -0.1276
  113MOL0     C15181   4.830  10.046   8.260  0.1384  0.9008  0.7556
  113MOL0     C15182   4.701  10.073   8.345 -0.0598 -0.7234  1.3340
  113MOL0     C15183   4.610   9.964   8.335 -0.6677  0.6541  0.0623
  113MOL0     C15184   4.516   9.893   8.325  0.1674  0.2157  0.9301
  113MOL0     C15185   5.290  10.199   8.048 -0.0731  0.3079 -0.6358
  113MOL0     C15186   5.420  10.179   7.998 -0.4674  0.0614 -1.2487
  113MOL0     C15187   5.435  10.119   7.857  0.0031 -0.4194  0.7087
  113MOL0     H15188   5.942  10.186   8.193  1.9120 -0.7546  1.1807
  113MOL0     H15189   6.166  10.167   8.113  0.9299 -1.7046 -4.1217
  113MOL0     H15190   6.402  10.274   8.092  3.0252  4.2668 -1.5689
  113MOL0     H15191   6.346  10.158   7.964 -0.1840 -0.7264  1.5440
  113MOL0     H15192   6.522  10.415   7.920  1.0299 -0.2851 -0.5620
  113MOL0     H15193   6.462  10.292   7.802 -1.5671 -2.4492  0.3188
  113MOL0     H15194   6.588  10.132   7.909  1.9129 -0.8841  0.1483
  113MOL0     H15195   6.618  10.215   8.053  2.6794 -2.9154  0.1409
  113MOL0     H15196   6.723  10.263   7.765 -2.4495  3.2191 -0.4659
  113MOL0     H15197   6.757  10.393   7.881 -0.6381 -0.0561 -0.9497
  113MOL0     H15198   6.842  10.203   8.044 -1.4399  1.4249 -0.8431
  113MOL0     H15199   6.847  10.095   7.907  3.9126  1.3542 -4.4088
  113MOL0     H15200   6.995  10.274   7.793  1.7632  0.9641  0.7784
  113MOL0     H15201   7.007  10.338   7.954  2.7551  0.4181 -0.3139
  113MOL0     H15202   7.073  10.129   8.042  0.0820  1.4572  0.3490
  113MOL0     H15203   7.201  10.185   7.931 -0.9532  1.7553  0.2164
  113MOL0     H15204   7.147   9.939   7.936 -0.1516  0.2092  0.1863
  113MOL0     H15205   7.001   9.967   7.841  0.7235 -0.2444 -1.1344
  113MOL0     H15206   7.381   9.985   7.801  2.2139  0.7143 -1.2164
  113MOL0     H15207   7.467  10.167   7.455  1.3445  0.7952  0.4157
  113MOL0     H15208   7.547  10.137   7.603 -1.3328  0.2660  2.7101
  113MOL0     H15209   7.491   9.880   7.536  0.0503 -2.5204 -2.2541
  113MOL0     H15210   7.429   9.956   7.393  0.0342  3.7583  1.0693
  113MOL0     H15211   7.659   9.845   7.407 -1.4744 -1.0170  0.5491
  113MOL0     H15212   7.717   9.976   7.499 -1.4388 -0.6463  2.1394
  113MOL0     H15213   7.684  10.133   7.291 -0.1603  0.1638 -0.9983
  113MOL0     H15214   7.619   9.998   7.202 -0.6535 -0.7806 -0.0301
  113MOL0     H15215   8.108   9.933   7.233  0.5469  0.5064  0.2224
  113MOL0     H15216   8.275  10.043   7.342  0.6835  0.6186  0.5020
  113MOL0     H15217   8.579  10.087   7.587  0.9242 -0.3458  0.0611
  113MOL0     H15218   8.793  10.189   7.700 -1.1165 -0.5273  1.0150
  113MOL0     H15219   9.058  10.444   7.748 -0.2977  1.3923 -0.2283
  113MOL0     H15220   8.970  10.284   7.753  0.0833  0.5087 -0.7370
  113MOL0     H15221   8.971  10.279   7.505  0.7154 -0.3216 -0.2900
  113MOL0     H15222   9.016  10.449   7.505 -1.7038 -0.5239  0.5689
  113MOL0     H15223   9.189  10.287   7.435 -4.5982 -1.0879 -1.1372
  113MOL0     H15224   9.249  10.372   7.582 -0.8284  0.7986  1.5647
  113MOL0     H15225   9.108  10.095   7.571 -2.5616 -0.4185  3.3610
  113MOL0     H15226   9.154  10.175   7.720 -0.1621 -1.3624 -0.4534
  113MOL0     H15227   9.368  10.144   7.509  0.5684  0.2913  0.2844
  113MOL0     H15228   9.303  10.002   7.606 -1.3822  0.7808 -0.9259
  113MOL0     H15229   9.375  10.226   7.773 -0.9339 -1.9541  1.2980
  113MOL0     H15230   9.439  10.065   7.783  1.5724 -0.1289 -0.1489
  113MOL0     H15231   9.548  10.273   7.578  1.9627 -0.4038  0.0469
  113MOL0     H15232   9.617  10.123   7.608  0.5274  1.6170 -1.8484
  113MOL0     H15233   9.727  10.322   7.729  1.5052 -2.5736 -2.3217
  113MOL0     H15234   9.577  10.339   7.822  0.5463  1.1570 -1.7868
  113MOL0     H15235   8.660  10.574   7.586  0.7082 -0.4462  2.0117
  113MOL0     H15236   8.453  10.480   7.506 -0.1106  0.1750  0.6345
  113MOL0     H15237   7.991  10.292   7.543  3.6058  0.1112  0.0317
  113MOL0     H15238   7.820  10.196   7.440  0.8796  1.2932  1.6563
  113MOL0     H15239   6.098  10.490   7.852  1.7656 -0.1600  0.8259
  113MOL0     H15240   5.853  10.501   7.927  0.7134 -0.2911 -1.9756
  113MOL0     H15241   5.596  10.302   8.262  1.4496  1.5811 -0.5184
  113MOL0     H15242   5.362  10.311   8.357  2.1995  0.3552  0.4994
  113MOL0     H15243   5.082  10.057   8.160 -0.5694 -0.6521  2.2710
  113MOL0     H15244   4.995  10.207   8.100  1.3165 -0.6608 -1.0951
  113MOL0     H15245   4.910  10.251   8.299  1.0208 -0.2679 -1.1388
  113MOL0     H15246   4.993  10.131   8.383 -0.4493  0.7828  1.1403
  113MOL0     H15247   4.862   9.942   8.275 -2.4591  0.0858  1.1453
  113MOL0     H15248   4.790  10.059   8.159 -0.0416 -2.0841  0.3368
  113MOL0     H15249   4.723  10.089   8.451 -1.7587  0.7656  1.4963
  113MOL0     H15250   4.644  10.158   8.307 -2.3512 -2.2031  1.2970
  113MOL0     H15251   4.431   9.828   8.317 -0.6665  1.4922 -2.7789
  113MOL0     H15252   5.201  10.188   7.987 -0.9586  4.6540 -0.4455
  113MOL0     H15253   5.339  10.088   7.815  0.1100  1.8805 -1.4930
  113MOL0     H15254   5.473  10.200   7.794  3.0421 -2.3637 -0.1902
  113MOL0     H15255   5.508  10.038   7.852 -1.8173 -2.1006 -0.1511
  114MOL0     O15256   2.187   6.197   3.354 -0.6582 -0.1510 -0.2030
  114MOL0     C15257   2.244   6.255   3.263  0.3411 -0.1881 -0.1995
  114MOL0     O15258   2.323   6.363   3.268 -0.1667 -0.3910 -0.2854
  114MOL0     C15259   2.381   6.398   3.388  0.3921  0.0656 -0.2494
  114MOL0     C15260   2.501   6.469   3.386 -0.2992 -0.1111 -0.5011
  114MOL0     C15261   2.573   6.502   3.492 -0.0301 -0.5412  0.3541
  114MOL0     C15262   2.524   6.477   3.619 -0.3240 -0.0439  0.0977
  114MOL0     O15263   2.588   6.498   3.734 -0.4516  0.5047  0.2303
  114MOL0     C15264   2.728   6.478   3.731 -0.3556  1.1169  0.8150
  114MOL0     C15265   2.773   6.440   3.874  0.2131  0.0004  0.2738
  114MOL0     C15266   2.931   6.427   3.883  0.8745  0.4016  0.0328
  114MOL0     C15267   2.990   6.289   3.851  0.1103  0.0027  0.8872
  114MOL0     C15268   3.147   6.293   3.865 -0.0034  0.0981 -0.5060
  114MOL0     C15269   3.230   6.237   3.746  0.1001  0.2914 -0.3611
  114MOL0     C15270   3.347   6.141   3.774 -0.1469  0.4963 -0.3253
  114MOL0     C15271   3.297   5.992   3.786 -0.1021  1.0305  0.2275
  114MOL0     N15272   3.417   5.904   3.787  0.1074 -0.0573 -0.1389
  114MOL0     C15273   3.501   5.882   3.894 -0.1668 -0.7167  0.7406
  114MOL0     C15274   3.588   5.781   3.863 -0.1625  0.0093  0.1056
  114MOL0     C15275   3.686   5.727   3.967  0.4691  0.4263  0.4623
  114MOL0     C15276   3.758   5.596   3.915  0.0261  0.0616 -0.2169
  114MOL0     C15277   3.880   5.567   3.999 -0.5056  0.3767 -0.0223
  114MOL0     C15278   3.992   5.653   3.951 -0.6620 -1.0855  0.1127
  114MOL0     O15279   4.108   5.617   4.022 -0.2317  0.1656 -0.1903
  114MOL0     C15280   4.232   5.637   3.975 -0.8712  0.1207  0.8324
  114MOL0     C15281   4.278   5.714   3.863 -0.6111 -0.0199  0.3059
  114MOL0     C15282   4.414   5.713   3.824  0.0184 -0.1865  0.2404
  114MOL0     C15283   4.496   5.613   3.871  0.5162  0.2183  0.1033
  114MOL0     C15284   4.635   5.606   3.830  0.0099 -0.1348  0.1233
  114MOL0     O15285   4.690   5.711   3.755  0.3660  0.8945  0.6978
  114MOL0     C15286   4.825   5.721   3.738  0.0652  0.8899 -0.3433
  114MOL0     C15287   4.930   5.666   3.821 -0.1001  0.8428  0.5291
  114MOL0     C15288   5.059   5.691   3.793  0.3003  0.9431 -0.1294
  114MOL0     C15289   5.095   5.768   3.684 -0.5272  0.4590 -0.5215
  114MOL0     O15290   5.229   5.785   3.678  0.1354 -1.1277 -0.1771
  114MOL0     C15291   5.288   5.863   3.568  0.8956 -0.1539 -0.0652
  114MOL0     C15292   5.430   5.888   3.594 -0.7852  0.0880 -0.6382
  114MOL0     C15293   5.502   5.784   3.687 -1.0878  0.8220  0.6630
  114MOL0     C15294   5.656   5.803   3.664  0.3451 -0.3019 -0.0554
  114MOL0     C15295   5.720   5.908   3.753 -0.2146 -0.7053 -0.5926
  114MOL0     C15296   5.877   5.911   3.738 -0.3293  0.1350 -0.9208
  114MOL0     C15297   5.934   5.996   3.848  0.1480  0.4050  0.9105
  114MOL0     C15298   6.081   5.993   3.833 -0.5639  0.4506  0.3045
  114MOL0    Cl15299   6.144   6.084   3.976  0.2397  0.2105  0.1694
  114MOL0     C15300   5.001   5.822   3.597  0.2213  0.5136  1.0551
  114MOL0     C15301   4.861   5.796   3.626  0.4412 -0.8338 -0.1064
  114MOL0     O15302   4.689   5.496   3.854  0.0860  0.1815 -0.2955
  114MOL0     C15303   4.446   5.524   3.968 -0.0827  0.3557 -0.4003
  114MOL0     C15304   4.319   5.547   4.030 -0.3713 -0.4183 -0.8937
  114MOL0     N15305   3.558   5.748   3.729 -0.4779  0.4029  0.4246
  114MOL0     N15306   3.454   5.820   3.691  0.2104 -0.4447  1.4623
  114MOL0     C15307   2.409   6.407   3.634 -0.7454 -1.1462  0.0531
  114MOL0     C15308   2.333   6.365   3.518 -0.0399 -0.7250 -0.7545
  114MOL0     C15309   2.210   6.204   3.126 -0.2997 -0.1454 -0.2135
  114MOL0     C15310   2.211   6.061   3.107  0.0274 -0.2199  0.5730
  114MOL0     C15311   2.195   6.009   2.981  0.6976  0.6258 -0.0464
  114MOL0     C15312   2.173   6.089   2.867 -0.5807 -0.3370 -0.8860
  114MOL0     O15313   2.158   6.019   2.750 -0.0798  0.4115 -0.7576
  114MOL0     C15314   2.088   6.081   2.642  0.4814 -0.1313  0.2773
  114MOL0     C15315   2.075   5.984   2.524 -0.1692 -0.1450 -0.4199
  114MOL0     C15316   1.961   6.021   2.422 -0.6399 -0.2753 -0.4851
  114MOL0     C15317   1.986   6.173   2.380 -0.6184 -0.9479  0.7687
  114MOL0     C15318   2.120   6.194   2.315 -0.1828  0.2284  0.3583
  114MOL0     C15319   2.225   6.190   2.255  1.1055  0.1805  0.4790
  114MOL0     C15320   2.162   6.231   2.884 -0.0256  0.2592 -0.2303
  114MOL0     C15321   2.175   6.283   3.013 -1.6057 -0.7825 -0.2485
  114MOL0     C15322   2.162   6.431   3.015 -0.2260 -0.0829 -0.1315
  114MOL0     H15323   2.544   6.476   3.286  0.6904  0.7055 -0.0476
  114MOL0     H15324   2.669   6.544   3.466 -1.6372  1.6266 -2.7059
  114MOL0     H15325   2.746   6.392   3.667 -4.0950 -0.3068  1.4120
  114MOL0     H15326   2.773   6.573   3.699  0.3141  0.9263  1.1731
  114MOL0     H15327   2.715   6.351   3.902 -0.4468  0.2535 -0.2566
  114MOL0     H15328   2.743   6.504   3.957  1.0998 -2.0059  2.2465
  114MOL0     H15329   2.962   6.457   3.984 -0.4188  3.3285 -0.3430
  114MOL0     H15330   2.973   6.491   3.805 -0.5390 -0.3882 -1.4152
  114MOL0     H15331   2.945   6.216   3.920 -1.3622 -0.8097 -0.8545
  114MOL0     H15332   2.956   6.249   3.755 -0.6716  0.3233  1.0224
  114MOL0     H15333   3.180   6.395   3.889  1.8384 -1.0774  2.4525
  114MOL0     H15334   3.165   6.233   3.955 -0.1977 -2.2585 -1.9725
  114MOL0     H15335   3.163   6.179   3.682 -0.9140  0.8667  0.1337
  114MOL0     H15336   3.257   6.329   3.694  1.5355  0.4194  0.5583
  114MOL0     H15337   3.394   6.168   3.868  0.3888  0.4768 -0.5877
  114MOL0     H15338   3.423   6.162   3.699 -1.8332  0.4665 -2.1306
  114MOL0     H15339   3.245   5.957   3.876 -1.5239  0.0482 -0.9373
  114MOL0     H15340   3.227   5.983   3.703 -0.3900  1.6090  0.4024
  114MOL0     H15341   3.501   5.927   3.993  2.2802 -1.2783  1.0589
  114MOL0     H15342   3.758   5.804   3.997  0.7744 -0.0610  1.0092
  114MOL0     H15343   3.630   5.692   4.055  0.4095 -1.5954 -0.3334
  114MOL0     H15344   3.687   5.515   3.933 -0.9707  0.9542 -0.0177
  114MOL0     H15345   3.788   5.604   3.810  1.7382  2.2267  0.3592
  114MOL0     H15346   3.900   5.462   3.981 -2.9067  0.0656 -1.2673
  114MOL0     H15347   3.853   5.577   4.105  1.9409 -0.6841  0.7549
  114MOL0     H15348   3.974   5.760   3.969  2.5666 -0.5438  0.6332
  114MOL0     H15349   4.004   5.656   3.842 -1.9592  5.3748 -0.2867
  114MOL0     H15350   4.209   5.791   3.830 -1.1952 -0.4668  0.4633
  114MOL0     H15351   4.448   5.783   3.748 -1.5346 -0.4459 -0.7471
  114MOL0     H15352   4.902   5.619   3.915  3.5180  1.4392  2.1081
  114MOL0     H15353   5.143   5.648   3.846  1.5055 -0.6004 -3.0642
  114MOL0     H15354   5.269   5.798   3.482 -0.9253  0.6569 -0.3258
  114MOL0     H15355   5.236   5.955   3.540 -0.3565 -0.9784 -0.5467
  114MOL0     H15356   5.464   5.889   3.490 -1.3652 -1.5099 -0.8741
  114MOL0     H15357   5.452   5.983   3.643  1.5307 -0.4797 -0.4544
  114MOL0     H15358   5.469   5.792   3.791 -1.4955 -0.3017  0.6382
  114MOL0     H15359   5.486   5.678   3.664 -3.3254  1.6039 -1.8233
  114MOL0     H15360   5.681   5.834   3.563  2.2942 -0.3154  0.3949
  114MOL0     H15361   5.702   5.706   3.684 -0.7059 -0.7551  0.2418
  114MOL0     H15362   5.701   5.888   3.859  2.3133 -0.6473 -0.0682
  114MOL0     H15363   5.675   6.006   3.731 -0.5324 -0.3762  1.3091
  114MOL0     H15364   5.915   5.808   3.739 -0.0492  0.2382 -0.9607
  114MOL0     H15365   5.895   5.946   3.636 -0.3413  2.7385 -0.1027
  114MOL0     H15366   5.909   5.942   3.940 -2.1289 -2.1822 -1.0478
  114MOL0     H15367   5.891   6.096   3.844  0.2660  0.4285  0.1728
  114MOL0     H15368   6.115   5.890   3.844  2.6480  1.6344  3.1511
  114MOL0     H15369   6.119   6.037   3.741  0.9904 -0.8477  0.2802
  114MOL0     H15370   5.027   5.862   3.499 -0.8639 -1.1519  0.0275
  114MOL0     H15371   4.783   5.844   3.568  2.7870  3.1741 -0.3771
  114MOL0     H15372   4.500   5.444   4.016 -0.2478  0.1425 -0.5680
  114MOL0     H15373   4.288   5.490   4.117  3.6899 -0.2295  0.8574
  114MOL0     H15374   2.374   6.386   3.735 -1.0975  0.0698  0.2031
  114MOL0     H15375   2.241   6.311   3.532 -1.4211  1.2258 -1.8137
  114MOL0     H15376   2.237   5.996   3.190 -1.4570 -0.3366  0.9753
  114MOL0     H15377   2.207   5.902   2.967 -3.4618  0.0525 -0.2456
  114MOL0     H15378   2.139   6.176   2.624 -0.4781  0.3253 -0.1048
  114MOL0     H15379   1.988   6.108   2.677  0.0916  0.4841 -1.2513
  114MOL0     H15380   2.054   5.881   2.553  2.4110 -1.8034 -3.6886
  114MOL0     H15381   2.168   5.977   2.465 -0.3645 -0.5311 -0.6841
  114MOL0     H15382   1.861   6.004   2.464 -0.8997  2.4698  0.2042
  114MOL0     H15383   1.970   5.966   2.329  1.0983 -2.9387  1.1275
  114MOL0     H15384   1.911   6.195   2.303 -2.5080 -0.7325  2.6064
  114MOL0     H15385   1.964   6.251   2.453  0.7119  0.1766  0.0323
  114MOL0     H15386   2.320   6.190   2.205  0.0737  2.2158 -1.6938
  114MOL0     H15387   2.141   6.291   2.796  1.3458  0.7503 -0.2394
  114MOL0     H15388   2.105   6.467   2.929 -1.1771 -4.6378 -1.6395
  114MOL0     H15389   2.117   6.476   3.105  2.5507  0.9751  0.8242
  114MOL0     H15390   2.263   6.472   3.016 -1.3234  2.9651  1.8060
  115MOL0     O15391   5.128   2.580   9.436 -0.4153 -0.4311  0.2581
  115MOL0     C15392   5.033   2.664   9.423 -0.2213  0.3167  0.3384
  115MOL0     O15393   5.045   2.795   9.402 -0.2323 -0.3932 -0.1199
  115MOL0     C15394   5.163   2.857   9.390 -0.9922  0.7303  0.5036
  115MOL0     C15395   5.264   2.822   9.294  0.2812 -1.6642 -0.6993
  115MOL0     C15396   5.375   2.908   9.289  0.2019  0.5157  0.0202
  115MOL0     C15397   5.384   3.025   9.363 -0.1188  0.0415 -0.0612
  115MOL0     O15398   5.484   3.114   9.341 -1.1043  0.1406 -0.3972
  115MOL0     C15399   5.615   3.051   9.318  0.7674  0.0707 -0.3977
  115MOL0     C15400   5.722   3.130   9.377 -0.2106 -0.9315  0.1155
  115MOL0     C15401   5.860   3.080   9.379 -0.5076 -0.2941  0.1836
  115MOL0     C15402   5.907   3.026   9.243 -0.0990 -0.2532  0.1954
  115MOL0     C15403   6.054   2.982   9.243 -1.1559 -1.0116  0.2570
  115MOL0     C15404   6.094   2.914   9.107 -0.2422  0.2456 -0.2509
  115MOL0     C15405   6.246   2.880   9.110 -0.1731 -0.3976  0.2646
  115MOL0     C15406   6.332   2.995   9.162  0.0411  0.4006  0.6041
  115MOL0     N15407   6.475   2.962   9.156 -0.3205 -0.0373 -0.2097
  115MOL0     C15408   6.570   3.060   9.134  0.3297 -0.4664 -0.8939
  115MOL0     C15409   6.686   3.000   9.143  0.5210  0.3605 -1.3293
  115MOL0     C15410   6.819   3.063   9.132  0.4479  0.2462 -0.2705
  115MOL0     C15411   6.862   3.127   9.267 -0.2108  0.4352 -0.3427
  115MOL0     C15412   6.996   3.209   9.262 -0.2822  0.0446 -0.6251
  115MOL0     C15413   7.121   3.135   9.223 -0.7503 -0.3022  0.6760
  115MOL0     O15414   7.126   3.115   9.078 -0.0573 -0.6790 -0.2642
  115MOL0     C15415   7.221   3.023   9.042 -0.0920  0.1688  0.3567
  115MOL0     C15416   7.202   2.964   8.919  0.8467 -0.7640  0.3310
  115MOL0     C15417   7.296   2.882   8.862  0.8685  0.2150  0.0111
  115MOL0     C15418   7.412   2.849   8.926 -0.1954  0.2533  0.0610
  115MOL0     C15419   7.511   2.772   8.856  0.1928  0.3705  0.2636
  115MOL0     O15420   7.632   2.750   8.920  0.1789 -0.4527  0.5606
  115MOL0     C15421   7.737   2.698   8.850  0.0101  0.5435  0.6068
  115MOL0     C15422   7.831   2.771   8.787  0.3775 -0.6973  0.9380
  115MOL0     C15423   7.939   2.704   8.717 -0.6293  0.1473  0.3736
  115MOL0     C15424   7.958   2.566   8.710 -0.0606 -0.0323 -0.2215
  115MOL0     O15425   8.046   2.491   8.646 -0.1793  0.3957  0.9304
  115MOL0     C15426   8.180   2.538   8.616  0.8330 -0.6449 -1.2769
  115MOL0     C15427   8.255   2.439   8.537 -0.7654 -0.0370 -0.4741
  115MOL0     C15428   8.403   2.451   8.575  0.4760 -0.0135 -0.2839
  115MOL0     C15429   8.454   2.575   8.506 -0.5693 -0.3400  0.6230
  115MOL0     C15430   8.608   2.595   8.515  0.5050  0.5969  0.9094
  115MOL0     C15431   8.694   2.492   8.432 -1.1132 -0.7148  0.1163
  115MOL0     C15432   8.841   2.502   8.482 -0.4296  0.5729 -0.2614
  115MOL0     C15433   8.929   2.404   8.408 -0.7156 -0.5336 -0.2065
  115MOL0    Cl15434   8.897   2.247   8.475 -0.5509 -0.3533 -0.0474
  115MOL0     C15435   7.854   2.502   8.775  0.6810  0.6171 -0.8607
  115MOL0     C15436   7.741   2.558   8.838  1.3772 -0.5713  0.1809
  115MOL0     O15437   7.484   2.728   8.748 -0.2412  0.0446 -0.0049
  115MOL0     C15438   7.428   2.901   9.058 -0.0379  0.5730  0.2349
  115MOL0     C15439   7.333   2.987   9.110  0.1428  0.4028  0.4949
  115MOL0     N15440   6.660   2.865   9.165  0.2390 -1.3322 -0.1313
  115MOL0     N15441   6.535   2.839   9.154  0.5368  0.0673  0.0673
  115MOL0     C15442   5.283   3.058   9.451 -0.3094 -0.2903  0.0007
  115MOL0     C15443   5.173   2.976   9.471  0.1518  0.0918  0.5900
  115MOL0     C15444   4.888   2.613   9.418 -0.7698  0.1858  0.4160
  115MOL0     C15445   4.801   2.661   9.321  0.3113 -0.6886  0.0803
  115MOL0     C15446   4.672   2.608   9.307 -0.3786 -0.0628 -0.0564
  115MOL0     C15447   4.630   2.513   9.405  0.1568 -0.7230  0.1846
  115MOL0     O15448   4.516   2.443   9.404 -1.1842 -0.6532  0.3244
  115MOL0     C15449   4.407   2.537   9.384 -0.0896  0.8103 -0.8391
  115MOL0     C15450   4.286   2.446   9.396 -0.2299  0.3336 -0.6525
  115MOL0     C15451   4.158   2.518   9.386  0.4805  0.3795 -1.1310
  115MOL0     C15452   4.042   2.418   9.427  0.4116 -0.6271 -0.2402
  115MOL0     C15453   3.916   2.481   9.411  0.4184 -0.1653 -0.5087
  115MOL0     C15454   3.818   2.544   9.399 -0.5188  0.2131 -0.2760
  115MOL0     C15455   4.719   2.474   9.508  0.0188 -0.7615 -0.1990
  115MOL0     C15456   4.847   2.521   9.520  1.0259  1.2611 -0.1254
  115MOL0     C15457   4.930   2.475   9.638 -0.5215  0.8662  0.0279
  115MOL0     H15458   5.246   2.741   9.225 -0.7596 -0.6546 -1.6606
  115MOL0     H15459   5.455   2.876   9.224 -0.1938  4.2614 -2.6402
  115MOL0     H15460   5.624   2.958   9.374  0.6385  1.7205  2.5337
  115MOL0     H15461   5.639   3.026   9.214 -0.1645 -2.2011 -0.1148
  115MOL0     H15462   5.710   3.163   9.480 -2.7045  1.4237 -0.8059
  115MOL0     H15463   5.725   3.225   9.323  1.5172  1.2194  3.6522
  115MOL0     H15464   5.859   3.004   9.458  0.7859 -2.7854 -2.0118
  115MOL0     H15465   5.933   3.152   9.416 -2.0676  1.7889 -0.6544
  115MOL0     H15466   5.848   2.936   9.221  0.2625 -1.0762  2.2844
  115MOL0     H15467   5.891   3.093   9.158  2.2620 -1.7827 -1.5825
  115MOL0     H15468   6.117   3.071   9.251  0.0440 -1.9430  1.9409
  115MOL0     H15469   6.079   2.918   9.329 -3.1968 -1.0360  0.8863
  115MOL0     H15470   6.040   2.820   9.098 -0.0659  0.2672 -1.6759
  115MOL0     H15471   6.072   2.989   9.030 -1.2720  1.1744  0.8910
  115MOL0     H15472   6.292   2.841   9.018  1.7450  3.4159 -0.6067
  115MOL0     H15473   6.247   2.799   9.183 -1.4721 -1.2057 -0.5714
  115MOL0     H15474   6.311   3.088   9.108  2.2877  1.4493  1.4368
  115MOL0     H15475   6.316   3.009   9.269  3.1724  0.5647  1.1422
  115MOL0     H15476   6.547   3.166   9.128 -0.6260 -0.7134 -1.9828
  115MOL0     H15477   6.898   2.994   9.102  0.7067 -0.3685  1.6733
  115MOL0     H15478   6.811   3.137   9.051 -0.5125  0.2167 -0.2177
  115MOL0     H15479   6.779   3.182   9.314 -0.0821  0.7698 -0.4990
  115MOL0     H15480   6.881   3.050   9.342  3.0774  0.5574 -0.8893
  115MOL0     H15481   7.019   3.252   9.359 -0.8482 -1.7424  0.3451
  115MOL0     H15482   6.983   3.288   9.187 -2.1833 -1.5628 -2.1274
  115MOL0     H15483   7.125   3.035   9.267 -1.8304 -0.3143  0.7718
  115MOL0     H15484   7.206   3.198   9.251 -0.0613 -0.3468 -1.1734
  115MOL0     H15485   7.108   2.981   8.867  1.5167 -0.4472 -0.8232
  115MOL0     H15486   7.293   2.859   8.756 -2.5349 -1.4455  0.3360
  115MOL0     H15487   7.816   2.878   8.792 -0.2414 -0.7907  1.1256
  115MOL0     H15488   8.008   2.776   8.675 -0.0828  1.0431  2.6275
  115MOL0     H15489   8.171   2.630   8.556 -1.9148 -0.2032 -0.3097
  115MOL0     H15490   8.219   2.546   8.718 -0.6775  0.3488 -0.7485
  115MOL0     H15491   8.210   2.344   8.569 -2.1675  1.3160  1.7497
  115MOL0     H15492   8.234   2.464   8.432 -1.7929  0.5628 -0.1362
  115MOL0     H15493   8.420   2.461   8.682  2.3628 -1.9048 -0.3277
  115MOL0     H15494   8.458   2.364   8.537  0.8085  0.3811 -0.7274
  115MOL0     H15495   8.406   2.664   8.549  1.6236  1.0681  0.3385
  115MOL0     H15496   8.438   2.561   8.399  2.4084 -0.3249  0.0898
  115MOL0     H15497   8.632   2.596   8.621 -0.7618  0.2969  1.2216
  115MOL0     H15498   8.637   2.692   8.474  2.5844  0.2587  1.4911
  115MOL0     H15499   8.659   2.389   8.443 -0.3257 -0.8350  1.8546
  115MOL0     H15500   8.693   2.504   8.323  0.8377 -0.6138  0.0649
  115MOL0     H15501   8.845   2.478   8.588  1.0852  0.7380 -0.2565
  115MOL0     H15502   8.884   2.601   8.462 -0.5225  0.7812  0.5384
  115MOL0     H15503   8.908   2.392   8.301 -0.7948  1.4062 -0.4309
  115MOL0     H15504   9.034   2.429   8.425 -0.3884 -1.6916 -0.3732
  115MOL0     H15505   7.852   2.394   8.765 -1.6152  0.7576 -2.5461
  115MOL0     H15506   7.652   2.511   8.880  2.9467 -1.8330  2.3326
  115MOL0     H15507   7.519   2.863   9.104  1.0196 -0.5518 -2.5311
  115MOL0     H15508   7.356   3.038   9.203  1.5523 -3.1211  2.3011
  115MOL0     H15509   5.279   3.154   9.502  2.1097 -0.4506  0.6225
  115MOL0     H15510   5.093   3.004   9.538  1.9160  2.2334  1.9279
  115MOL0     H15511   4.840   2.734   9.250  1.0565 -1.5453 -0.4149
  115MOL0     H15512   4.605   2.646   9.230 -0.3904 -0.2419 -0.1350
  115MOL0     H15513   4.411   2.583   9.285 -2.1451  2.2529 -0.3178
  115MOL0     H15514   4.394   2.612   9.463 -2.4378 -1.0393  0.6826
  115MOL0     H15515   4.299   2.405   9.497 -0.0976  0.8402 -0.4629
  115MOL0     H15516   4.293   2.371   9.317  1.4011  0.9922 -1.1746
  115MOL0     H15517   4.140   2.545   9.281 -1.5020 -4.4882 -2.3386
  115MOL0     H15518   4.163   2.609   9.446 -1.2457  0.1949 -0.6574
  115MOL0     H15519   4.044   2.333   9.358  2.7988 -0.3565 -0.5954
  115MOL0     H15520   4.058   2.375   9.527  2.1791  1.2234  0.3411
  115MOL0     H15521   3.732   2.602   9.374 -0.8567 -0.4959 -0.7770
  115MOL0     H15522   4.676   2.397   9.571 -0.7700 -1.3621 -1.4347
  115MOL0     H15523   4.966   2.375   9.613  1.9838  1.3681  1.3426
  115MOL0     H15524   5.012   2.546   9.652  1.2422 -1.2598  1.0198
  115MOL0     H15525   4.882   2.484   9.736 -0.0472  1.0462  0.2465
  116MOL0     O15526   7.845  11.079   3.906  0.0716 -0.4569  0.4679
  116MOL0     C15527   7.934  11.163   3.898 -0.5395 -0.1222  0.4102
  116MOL0     O15528   8.016  11.184   3.789 -0.5621 -0.1315  0.3555
  116MOL0     C15529   7.994  11.125   3.671  0.0318  0.0107  0.3042
  116MOL0     C15530   7.939  10.992   3.652 -0.1223 -0.1341  0.1024
  116MOL0     C15531   7.933  10.948   3.524  0.8461 -0.1092  1.0376
  116MOL0     C15532   7.975  11.024   3.412 -0.2029 -0.2765 -0.1572
  116MOL0     O15533   7.985  10.967   3.283 -0.5343 -0.9721 -0.7445
  116MOL0     C15534   8.047  10.837   3.270  0.4903  0.0759  0.7411
  116MOL0     C15535   8.110  10.824   3.129  0.0359  0.3813  0.2218
  116MOL0     C15536   8.181  10.686   3.112 -0.3684  0.8067 -0.3279
  116MOL0     C15537   8.092  10.574   3.058 -0.4649 -0.2325 -0.2450
  116MOL0     C15538   8.150  10.435   3.082 -0.1630 -0.0806  0.7039
  116MOL0     C15539   8.268  10.400   2.988 -0.7999 -0.8483  0.1390
  116MOL0     C15540   8.337  10.277   3.031 -0.2389  0.5395 -0.6251
  116MOL0     C15541   8.469  10.263   2.953  0.9483  0.1837 -0.2734
  116MOL0     N15542   8.567  10.190   3.033  0.2295 -0.4612  0.5096
  116MOL0     C15543   8.689  10.253   3.058 -0.4669 -0.0776 -0.2360
  116MOL0     C15544   8.767  10.151   3.105  0.3971  0.1734 -0.0853
  116MOL0     C15545   8.907  10.153   3.163 -0.6316 -0.0067 -0.3350
  116MOL0     C15546   9.014  10.172   3.048  0.1917  0.6177 -0.1970
  116MOL0     C15547   9.047  10.042   2.955  0.0607  0.4986 -0.0844
  116MOL0     C15548   9.194  10.022   2.940 -1.5626 -1.1881 -0.0292
  116MOL0     O15549   9.261  10.126   2.867  1.5412 -0.9800  1.0464
  116MOL0     C15550   9.397  10.115   2.871  0.7564 -0.8775  0.2194
  116MOL0     C15551   9.474  10.014   2.929 -0.9922  0.0304  0.2343
  116MOL0     C15552   9.618  10.016   2.925  0.0504 -1.2023 -0.6003
  116MOL0     C15553   9.675  10.128   2.865 -0.7296  1.0315 -0.3598
  116MOL0     C15554   9.823  10.147   2.860  0.8194  0.3145 -0.5151
  116MOL0     O15555   9.872  10.264   2.911  0.5782 -0.7208 -0.1160
  116MOL0     C15556  10.007  10.276   2.923  0.5724 -0.7845  0.2437
  116MOL0     C15557  10.086  10.197   3.006  0.1364 -0.1552  0.2005
  116MOL0     C15558  10.223  10.220   3.005 -1.0971 -0.5088  0.2012
  116MOL0     C15559  10.286  10.320   2.933 -0.4674 -0.1973 -0.7944
  116MOL0     O15560  10.420  10.333   2.949 -0.5126 -0.7618  0.1609
  116MOL0     C15561  10.484  10.448   2.883 -0.2009  0.3583 -0.8057
  116MOL0     C15562  10.635  10.428   2.870  0.1978 -0.1553  0.3912
  116MOL0     C15563  10.663  10.291   2.816 -0.2312  0.0493 -0.0273
  116MOL0     C15564  10.813  10.268   2.775  0.0350 -1.6964 -0.2182
  116MOL0     C15565  10.902  10.277   2.900  0.2334  0.7636 -0.3272
  116MOL0     C15566  11.039  10.284   2.845 -0.4287  0.1898  0.1814
  116MOL0     C15567  11.131  10.336   2.955 -0.1622  0.0801  0.3463
  116MOL0     C15568  11.267  10.341   2.893  0.2279 -0.5762 -0.5138
  116MOL0    Cl15569  11.374  10.427   3.012 -0.1683  0.0202 -0.1190
  116MOL0     C15570  10.208  10.413   2.868  0.8487  0.6294  0.5115
  116MOL0     C15571  10.069  10.378   2.859 -0.3426 -0.8652  0.6203
  116MOL0     O15572   9.892  10.050   2.827 -0.4233 -0.7675  0.2511
  116MOL0     C15573   9.600  10.235   2.810  0.6792  0.5504 -0.8472
  116MOL0     C15574   9.462  10.228   2.809 -0.1386  0.0730 -0.1267
  116MOL0     N15575   8.699  10.027   3.082 -0.0373 -0.1810  0.4905
  116MOL0     N15576   8.580  10.053   3.046 -0.0377  0.5315  0.6359
  116MOL0     C15577   8.026  11.151   3.435 -0.0959  0.2988 -1.0585
  116MOL0     C15578   8.030  11.203   3.565 -0.2831  0.5265  0.1256
  116MOL0     C15579   7.949  11.261   4.004 -0.0130 -0.3289  0.5938
  116MOL0     C15580   7.822  11.311   4.038  0.6019 -0.3151 -0.0004
  116MOL0     C15581   7.803  11.393   4.148  0.2020 -1.2477 -0.3234
  116MOL0     C15582   7.912  11.438   4.223  0.2331  0.3611  0.4316
  116MOL0     O15583   7.888  11.506   4.338 -0.2134 -0.4665 -0.5490
  116MOL0     C15584   7.989  11.568   4.426 -0.5480  0.7245  0.6325
  116MOL0     C15585   7.952  11.582   4.574  0.9421 -0.6479 -0.3799
  116MOL0     C15586   7.824  11.656   4.601 -0.6674 -0.1152 -0.4985
  116MOL0     C15587   7.782  11.617   4.740  0.2207  0.1156 -0.2292
  116MOL0     C15588   7.667  11.705   4.775 -1.3430 -1.4080 -1.0833
  116MOL0     C15589   7.590  11.797   4.803 -0.0994  0.6761  1.0790
  116MOL0     C15590   8.042  11.393   4.187  0.7565 -0.3795  0.1709
  116MOL0     C15591   8.067  11.300   4.080  0.6363  0.3209 -0.2565
  116MOL0     C15592   8.214  11.267   4.048  0.1484 -0.1393  1.2270
  116MOL0     H15593   7.919  10.921   3.732  0.8280 -0.8661 -0.2984
  116MOL0     H15594   7.891  10.849   3.506  1.2230 -0.2533  0.9543
  116MOL0     H15595   8.134  10.818   3.334  1.1803  1.0078  0.1031
  116MOL0     H15596   7.976  10.759   3.301 -1.3525  1.1324 -0.6316
  116MOL0     H15597   8.181  10.907   3.124  1.9806 -0.9873  2.7382
  116MOL0     H15598   8.029  10.837   3.057 -0.4007  1.0482  0.8336
  116MOL0     H15599   8.227  10.673   3.211 -1.3261  1.3017  0.2043
  116MOL0     H15600   8.260  10.689   3.037 -0.0565 -2.3354 -0.2612
  116MOL0     H15601   7.998  10.579   3.115 -2.2425 -1.0779 -2.8980
  116MOL0     H15602   8.059  10.608   2.960 -0.5327  2.2031  0.5662
  116MOL0     H15603   8.177  10.440   3.188  1.7783  0.1699  0.2354
  116MOL0     H15604   8.071  10.364   3.055 -1.0314  1.1696 -0.1640
  116MOL0     H15605   8.240  10.397   2.882  0.6776 -0.4951 -0.2835
  116MOL0     H15606   8.347  10.475   2.998  0.5804 -2.1690 -0.4088
  116MOL0     H15607   8.267  10.194   3.016 -2.7907  2.4621 -0.0047
  116MOL0     H15608   8.353  10.286   3.138 -1.1090  0.0450 -0.4461
  116MOL0     H15609   8.447  10.201   2.866  2.4202  0.6184 -0.9829
  116MOL0     H15610   8.507  10.358   2.914  0.6445  0.9352  1.1812
  116MOL0     H15611   8.708  10.360   3.057 -0.4508 -0.0824 -0.4541
  116MOL0     H15612   8.916  10.235   3.235  2.2062  0.3228 -0.9342
  116MOL0     H15613   8.937  10.061   3.214  1.6153  1.8630  1.9486
  116MOL0     H15614   8.976  10.252   2.983  0.3351  0.1400 -0.8777
  116MOL0     H15615   9.103  10.219   3.090  0.5612  0.1934 -0.5098
  116MOL0     H15616   9.017  10.056   2.851  2.2312  1.2437 -0.6746
  116MOL0     H15617   9.018   9.948   3.002  1.8438 -1.3536 -2.4198
  116MOL0     H15618   9.211   9.933   2.879 -0.0232 -0.0022 -1.4692
  116MOL0     H15619   9.248  10.003   3.033 -0.8921  3.5599  0.8018
  116MOL0     H15620   9.430   9.927   2.977  0.1460 -0.7960 -0.1689
  116MOL0     H15621   9.684   9.952   2.982 -2.0145 -1.4407  1.6673
  116MOL0     H15622  10.045  10.117   3.067 -0.4226  1.0888  1.5144
  116MOL0     H15623  10.277  10.150   3.068  0.9497  0.4437 -0.4162
  116MOL0     H15624  10.444  10.452   2.781 -0.3139  1.3385 -0.7307
  116MOL0     H15625  10.465  10.544   2.930  2.5166  0.2654  0.6267
  116MOL0     H15626  10.676  10.504   2.801  0.6558 -2.3266 -1.8921
  116MOL0     H15627  10.670  10.444   2.972 -4.1135  1.4854  1.8662
  116MOL0     H15628  10.639  10.213   2.889  0.9885  1.4514  1.9437
  116MOL0     H15629  10.603  10.261   2.729  0.4338 -0.5223 -0.2974
  116MOL0     H15630  10.844  10.344   2.703  2.0824 -2.2413  0.0254
  116MOL0     H15631  10.826  10.170   2.727  1.5855 -1.3006 -0.6503
  116MOL0     H15632  10.887  10.188   2.961 -0.2323 -0.1241 -1.6937
  116MOL0     H15633  10.875  10.362   2.964  1.7166 -0.6612  2.3411
  116MOL0     H15634  11.062  10.184   2.807 -1.2256  0.4280 -1.0014
  116MOL0     H15635  11.057  10.346   2.757 -1.0297 -0.4040 -0.3776
  116MOL0     H15636  11.133  10.278   3.048  0.1223  0.6459  0.7015
  116MOL0     H15637  11.095  10.436   2.980  0.2329  0.5961 -1.0366
  116MOL0     H15638  11.315  10.244   2.880  2.2479  0.1665  0.8833
  116MOL0     H15639  11.268  10.394   2.797  2.5986 -3.1821 -2.0816
  116MOL0     H15640  10.243  10.507   2.827 -0.4807  1.1125  0.4525
  116MOL0     H15641  10.013  10.445   2.795  1.7726  0.9665  0.5343
  116MOL0     H15642   9.646  10.320   2.762 -1.6161  1.9667 -0.6588
  116MOL0     H15643   9.399  10.301   2.760  1.5310  1.9098  0.3346
  116MOL0     H15644   8.066  11.214   3.355  1.1272 -0.3772 -1.0076
  116MOL0     H15645   8.057  11.307   3.583 -0.0261 -0.0248  3.6862
  116MOL0     H15646   7.734  11.285   3.980  0.8278  0.8100 -0.8684
  116MOL0     H15647   7.701  11.417   4.178 -0.1200 -0.3025 -1.9988
  116MOL0     H15648   8.026  11.663   4.387  0.6091  0.7653  1.7618
  116MOL0     H15649   8.064  11.489   4.423 -1.6580 -0.3725 -3.0240
  116MOL0     H15650   8.036  11.622   4.632  0.5029 -2.2060  1.3973
  116MOL0     H15651   7.949  11.480   4.611  0.7583 -0.7078 -0.5578
  116MOL0     H15652   7.739  11.620   4.543 -1.3994 -0.9183  1.0053
  116MOL0     H15653   7.834  11.765   4.597 -3.3418  0.2887  1.3180
  116MOL0     H15654   7.760  11.511   4.754  0.5694 -0.0213 -0.7003
  116MOL0     H15655   7.861  11.642   4.811 -2.1893  1.1558  2.3044
  116MOL0     H15656   7.533  11.884   4.831  0.2783  0.2972  3.1928
  116MOL0     H15657   8.133  11.415   4.242  2.3207  1.2918 -2.8465
  116MOL0     H15658   8.231  11.159   4.054  2.8487  0.1169 -0.2982
  116MOL0     H15659   8.241  11.295   3.946 -2.0817 -1.6242  0.1427
  116MOL0     H15660   8.288  11.310   4.116  1.3867 -1.8637  1.0299
  117MOL0     O15661   8.107   2.316   7.985  0.2472 -0.5717  0.6844
  117MOL0     C15662   8.097   2.332   8.107 -0.1660 -0.2461  0.4141
  117MOL0     O15663   8.202   2.313   8.194  0.7210 -0.2565 -0.5021
  117MOL0     C15664   8.329   2.302   8.139  0.4218  0.0838 -0.0044
  117MOL0     C15665   8.419   2.410   8.129  0.2788  0.0273 -0.2444
  117MOL0     C15666   8.556   2.392   8.086 -0.1186  0.0380 -0.1318
  117MOL0     C15667   8.604   2.263   8.063 -0.8958 -0.4499 -0.5888
  117MOL0     O15668   8.732   2.223   8.030 -0.0127 -0.9547  0.4632
  117MOL0     C15669   8.822   2.334   8.015  0.1019 -0.6864  0.7329
  117MOL0     C15670   8.955   2.277   7.979 -0.3728 -0.9724  0.2394
  117MOL0     C15671   9.001   2.168   8.067 -0.2178 -0.2169  0.4621
  117MOL0     C15672   9.134   2.111   8.017  0.2436  0.6311  0.4723
  117MOL0     C15673   9.185   2.007   8.119 -1.1374 -0.2183  0.2807
  117MOL0     C15674   9.320   1.964   8.073  0.5078  0.4267 -0.2308
  117MOL0     C15675   9.365   1.854   8.173  0.6230 -0.3700  0.7708
  117MOL0     C15676   9.455   1.919   8.286 -0.4694 -0.3362 -0.4455
  117MOL0     N15677   9.581   1.972   8.236 -0.4328  0.8626  0.1913
  117MOL0     C15678   9.672   1.899   8.158 -0.0400 -0.5851 -0.5047
  117MOL0     C15679   9.767   1.993   8.125 -0.2664  0.5046  0.6176
  117MOL0     C15680   9.900   1.980   8.047  0.7328 -0.5913  0.4091
  117MOL0     C15681  10.017   1.976   8.150  0.1663  0.6138 -0.8280
  117MOL0     C15682  10.132   1.890   8.086  0.4483 -0.3892 -0.2682
  117MOL0     C15683  10.256   1.872   8.177  0.0846 -0.4220  0.9702
  117MOL0     O15684  10.358   1.807   8.094  0.4367  0.0875  0.7369
  117MOL0     C15685  10.462   1.891   8.060  0.0782  0.2622  0.2543
  117MOL0     C15686  10.463   1.963   7.941 -0.2478  0.5978  0.6049
  117MOL0     C15687  10.561   2.050   7.902 -0.0859 -0.5107 -0.0894
  117MOL0     C15688  10.665   2.078   7.990 -0.1949  0.3834  0.3403
  117MOL0     C15689  10.773   2.169   7.952 -0.6004 -0.8144  0.1914
  117MOL0     O15690  10.765   2.229   7.831  0.1023  0.7848 -0.0661
  117MOL0     C15691  10.878   2.291   7.791 -0.3135 -0.1941  0.2599
  117MOL0     C15692  10.900   2.426   7.823  1.0610 -0.1255 -0.0931
  117MOL0     C15693  11.026   2.486   7.781 -0.9245  0.7240 -0.8757
  117MOL0     C15694  11.116   2.414   7.709 -0.3140 -0.8884 -0.4336
  117MOL0     O15695  11.237   2.480   7.682 -0.0599 -0.2839 -0.0144
  117MOL0     C15696  11.347   2.431   7.603 -0.3105  0.1347  0.2509
  117MOL0     C15697  11.441   2.339   7.686  0.5082  0.1710  0.2155
  117MOL0     C15698  11.563   2.305   7.601  0.0532 -0.1037 -0.0767
  117MOL0     C15699  11.639   2.196   7.681 -0.1256  0.2847  0.5940
  117MOL0     C15700  11.780   2.157   7.634  0.2275 -0.3339  0.2746
  117MOL0     C15701  11.809   2.012   7.621 -0.1269 -0.2797 -0.1598
  117MOL0     C15702  11.941   1.967   7.573  0.6887  0.1304 -0.2108
  117MOL0     C15703  12.046   1.990   7.683 -1.1017  0.0806  0.4639
  117MOL0    Cl15704  12.192   1.896   7.635 -0.2503  0.6885  0.4259
  117MOL0     C15705  11.094   2.276   7.685  0.1828 -0.3925 -0.0309
  117MOL0     C15706  10.974   2.217   7.716  0.4359  0.1050  0.3720
  117MOL0     O15707  10.868   2.193   8.034  0.5998 -0.8063 -0.0607
  117MOL0     C15708  10.666   2.011   8.114  0.6622  0.4473  1.0993
  117MOL0     C15709  10.568   1.916   8.149 -0.1619  0.1319  0.3600
  117MOL0     N15710   9.728   2.112   8.175 -0.2448 -0.1766 -0.1220
  117MOL0     N15711   9.617   2.102   8.245 -0.3439 -0.6031  0.2643
  117MOL0     C15712   8.509   2.161   8.069  0.3551 -0.0377  0.6413
  117MOL0     C15713   8.373   2.178   8.098 -0.2357  0.3007  0.1621
  117MOL0     C15714   7.966   2.350   8.168 -0.0758  1.3392 -0.4112
  117MOL0     C15715   7.964   2.313   8.306  0.1951  0.7861  0.3050
  117MOL0     C15716   7.837   2.313   8.378 -0.7250 -0.0527  0.2053
  117MOL0     C15717   7.712   2.351   8.319  0.8410  0.0574  0.3066
  117MOL0     O15718   7.582   2.339   8.372 -0.1449  0.6318  0.0114
  117MOL0     C15719   7.579   2.335   8.516  0.0772  0.4463  0.2360
  117MOL0     C15720   7.441   2.285   8.578  0.0814  0.1010  0.0486
  117MOL0     C15721   7.382   2.161   8.509 -0.6882 -0.5910  0.0186
  117MOL0     C15722   7.329   2.064   8.605  0.0632  0.1619 -0.1720
  117MOL0     C15723   7.238   2.109   8.703  0.0569 -0.9835  0.1517
  117MOL0     C15724   7.154   2.175   8.766 -0.3901  1.2594 -0.2757
  117MOL0     C15725   7.723   2.390   8.179  0.4331  0.0567 -0.3106
  117MOL0     C15726   7.844   2.394   8.105 -0.5783 -0.3368 -0.4946
  117MOL0     C15727   7.848   2.448   7.964 -0.5256  0.0093  0.9080
  117MOL0     H15728   8.393   2.510   8.163 -1.2361 -0.6946  0.8234
  117MOL0     H15729   8.608   2.482   8.058  0.3244  0.1169  0.9052
  117MOL0     H15730   8.790   2.400   7.934 -0.1429 -2.6320 -0.8240
  117MOL0     H15731   8.826   2.391   8.109  0.6613  0.9434 -0.2234
  117MOL0     H15732   9.031   2.356   7.981  0.1553 -1.4704  2.0880
  117MOL0     H15733   8.955   2.231   7.880  0.8882 -1.2738  0.3556
  117MOL0     H15734   8.931   2.086   8.086 -0.4934  0.2913  1.7986
  117MOL0     H15735   9.021   2.200   8.170 -0.8412 -0.8382  0.7907
  117MOL0     H15736   9.115   2.062   7.921 -0.2498  2.3159 -0.3326
  117MOL0     H15737   9.205   2.189   7.991  0.2152  0.2256 -0.8784
  117MOL0     H15738   9.186   2.052   8.219  1.3899 -0.3672  0.3777
  117MOL0     H15739   9.114   1.924   8.120 -0.2171 -1.0107  0.9605
  117MOL0     H15740   9.318   1.919   7.974  1.0128 -3.7994  1.4591
  117MOL0     H15741   9.383   2.052   8.065  2.3054 -0.8748 -1.0428
  117MOL0     H15742   9.424   1.780   8.119 -0.8345 -2.2249  1.6073
  117MOL0     H15743   9.277   1.809   8.220 -1.8647  2.6491 -0.6827
  117MOL0     H15744   9.387   1.988   8.336 -0.1441 -1.5343  1.7677
  117MOL0     H15745   9.471   1.829   8.346  0.1150 -1.8518 -2.7225
  117MOL0     H15746   9.676   1.794   8.131  2.2148  0.1380 -3.4590
  117MOL0     H15747   9.896   1.897   7.976 -1.8773 -1.8511  1.9087
  117MOL0     H15748   9.907   2.067   7.982  0.6496 -0.2655  0.8338
  117MOL0     H15749  10.048   2.078   8.174  0.1928  0.3951  0.1425
  117MOL0     H15750   9.974   1.930   8.240  2.3847  2.9015  1.5588
  117MOL0     H15751  10.167   1.925   7.989  1.3887  1.3615  0.6606
  117MOL0     H15752  10.091   1.791   8.063 -4.0250  1.5225 -1.8096
  117MOL0     H15753  10.231   1.810   8.263 -2.2912 -0.4699  0.3233
  117MOL0     H15754  10.298   1.964   8.218  0.0608 -1.0875  2.5759
  117MOL0     H15755  10.383   1.933   7.875  0.6849  1.1582 -0.8280
  117MOL0     H15756  10.552   2.103   7.808  0.6529  1.3293  0.8311
  117MOL0     H15757  10.825   2.477   7.882  1.5618  2.3094 -1.4285
  117MOL0     H15758  11.052   2.586   7.813 -2.3973  1.9212 -3.1529
  117MOL0     H15759  11.314   2.372   7.517 -2.2264 -2.6648  2.7203
  117MOL0     H15760  11.405   2.520   7.578  0.0295  0.9604  3.5949
  117MOL0     H15761  11.470   2.385   7.781  2.8013  3.0370 -1.7008
  117MOL0     H15762  11.387   2.245   7.701  2.0963 -1.2012 -2.0731
  117MOL0     H15763  11.529   2.275   7.501 -1.1543  2.3800 -0.4746
  117MOL0     H15764  11.623   2.393   7.576  1.5968 -1.2309 -0.4885
  117MOL0     H15765  11.571   2.113   7.699  0.9449 -1.3728 -2.3489
  117MOL0     H15766  11.664   2.228   7.783 -2.0015  0.3574  1.0611
  117MOL0     H15767  11.848   2.213   7.700 -2.0216 -0.9190  3.3327
  117MOL0     H15768  11.795   2.197   7.533  0.5659 -1.0705  0.0265
  117MOL0     H15769  11.795   1.972   7.722  0.8530  1.5124  0.7368
  117MOL0     H15770  11.738   1.970   7.550 -1.0556 -1.1074  1.2035
  117MOL0     H15771  11.972   2.010   7.478  0.7707 -0.5096 -0.4841
  117MOL0     H15772  11.939   1.860   7.550 -0.6706 -0.0523  0.6290
  117MOL0     H15773  12.073   2.095   7.696  2.6019 -0.4501 -1.4269
  117MOL0     H15774  12.028   1.949   7.783  1.4518  0.5506  1.2022
  117MOL0     H15775  11.168   2.217   7.631 -0.8242 -0.7085 -1.1164
  117MOL0     H15776  10.957   2.114   7.687  2.8011 -0.6765  1.4868
  117MOL0     H15777  10.750   2.040   8.176  2.5426  2.1268 -1.9744
  117MOL0     H15778  10.566   1.864   8.244 -2.7709  3.7257  2.5319
  117MOL0     H15779   8.540   2.061   8.038 -3.4526 -1.3702  0.6407
  117MOL0     H15780   8.292   2.106   8.089 -0.1638  0.0564  1.3339
  117MOL0     H15781   8.049   2.282   8.366  0.9637 -2.1673 -2.0971
  117MOL0     H15782   7.843   2.279   8.481 -2.4882  0.1051  0.3927
  117MOL0     H15783   7.593   2.436   8.556  0.0012  0.9894 -1.0777
  117MOL0     H15784   7.655   2.273   8.563 -0.1525  0.9490  1.3193
  117MOL0     H15785   7.366   2.364   8.561 -2.0339 -1.3853  1.8747
  117MOL0     H15786   7.445   2.258   8.683 -1.3142 -1.7520 -0.3184
  117MOL0     H15787   7.455   2.114   8.443 -0.4578 -0.2392  0.0229
  117MOL0     H15788   7.304   2.188   8.437 -0.3608 -3.8339 -1.7441
  117MOL0     H15789   7.281   1.982   8.549  0.4064 -0.7778  0.8709
  117MOL0     H15790   7.414   2.015   8.653  2.0662  2.1207 -1.5550
  117MOL0     H15791   7.078   2.233   8.816 -1.3336 -1.7850  2.1271
  117MOL0     H15792   7.632   2.428   8.134 -0.1866 -1.8923 -0.8186
  117MOL0     H15793   7.879   2.376   7.887 -0.7941  0.8794 -0.0360
  117MOL0     H15794   7.749   2.481   7.930  0.0375  0.5700 -0.2629
  117MOL0     H15795   7.917   2.531   7.947 -1.1569  0.4909  0.6690
  118MOL0     O15796   7.957   2.219  10.130  0.4889 -0.9161  0.2529
  118MOL0     C15797   7.994   2.314  10.071 -1.1519  0.0973 -0.0674
  118MOL0     O15798   8.120   2.317  10.011  0.0013 -0.2023 -0.2751
  118MOL0     C15799   8.212   2.210  10.028  0.1824 -0.6197  0.0456
  118MOL0     C15800   8.305   2.195   9.928 -0.1801  0.8056 -0.4918
  118MOL0     C15801   8.424   2.120   9.939 -0.0955  0.1040 -0.0109
  118MOL0     C15802   8.453   2.042  10.056  0.4722  0.5063 -0.3695
  118MOL0     O15803   8.572   1.977  10.082  0.2680 -0.1180  1.0926
  118MOL0     C15804   8.670   1.963   9.981 -1.0667 -0.3630  0.8479
  118MOL0     C15805   8.768   2.080   9.992 -1.1554 -0.3652 -0.7298
  118MOL0     C15806   8.888   2.050   9.901 -0.0083 -0.3625 -0.3130
  118MOL0     C15807   8.983   1.943   9.960  0.2111  0.4519  0.0378
  118MOL0     C15808   9.125   1.957   9.910 -0.2470  0.0789  0.4015
  118MOL0     C15809   9.221   1.851   9.972 -0.1846 -0.0021 -0.8441
  118MOL0     C15810   9.242   1.868  10.125 -0.0680  0.3896 -0.0779
  118MOL0     C15811   9.359   1.782  10.172 -0.3791 -0.0713  0.1779
  118MOL0     N15812   9.427   1.846  10.286 -0.4434 -0.2125 -0.2267
  118MOL0     C15813   9.496   1.963  10.284 -0.3054 -0.1682 -0.2379
  118MOL0     C15814   9.545   1.979  10.410  0.0016 -0.6865 -0.2017
  118MOL0     C15815   9.635   2.083  10.459  0.6988  0.6779 -0.1654
  118MOL0     C15816   9.777   2.050  10.413 -0.2551 -0.4566 -0.7486
  118MOL0     C15817   9.833   1.919  10.448 -0.2316 -0.3360  0.0780
  118MOL0     C15818   9.987   1.923  10.460  0.6327 -0.1149 -0.1263
  118MOL0     O15819  10.046   1.935  10.327  0.1424  0.6135 -0.4879
  118MOL0     C15820  10.182   1.979  10.330  0.4880  0.4553  0.4299
  118MOL0     C15821  10.242   1.992  10.208  0.1739 -0.6573  0.9964
  118MOL0     C15822  10.381   2.031  10.191  0.3033 -0.6339  0.1760
  118MOL0     C15823  10.464   2.036  10.303  0.6279 -1.0348  0.3085
  118MOL0     C15824  10.611   2.044  10.293 -0.3848  0.9701  0.3663
  118MOL0     O15825  10.664   2.047  10.164 -0.1815 -0.0589 -0.0483
  118MOL0     C15826  10.799   2.069  10.143  0.2392 -0.6153  0.1295
  118MOL0     C15827  10.864   2.007  10.038 -0.4325 -0.2389  0.2328
  118MOL0     C15828  11.004   2.022  10.020 -0.1918  0.3934 -0.0625
  118MOL0     C15829  11.075   2.110  10.105  0.8675 -0.3226  0.4387
  118MOL0     O15830  11.210   2.136  10.081  0.1050  0.3817 -0.6158
  118MOL0     C15831  11.303   2.200  10.178  0.4271  0.7736  0.2030
  118MOL0     C15832  11.423   2.253  10.090  0.3226 -1.7667  1.0127
  118MOL0     C15833  11.516   2.147  10.023  0.1681  1.1597 -1.2042
  118MOL0     C15834  11.620   2.109  10.127 -0.5845 -0.0202  0.3050
  118MOL0     C15835  11.728   2.012  10.080  0.0916 -0.4377  0.0720
  118MOL0     C15836  11.867   2.014  10.155 -0.4034 -0.2244  0.1607
  118MOL0     C15837  11.957   1.903  10.100  0.3159 -0.2663  0.4175
  118MOL0     C15838  12.104   1.940  10.124 -0.2594  0.0511  0.1061
  118MOL0    Cl15839  12.211   1.808  10.054  0.6010 -0.1071 -0.0189
  118MOL0     C15840  11.009   2.170  10.213 -0.1911  1.1179  0.1129
  118MOL0     C15841  10.876   2.143  10.238 -0.3257  0.4971  0.7714
  118MOL0     O15842  10.670   2.022  10.400  0.2293  0.0273 -0.2292
  118MOL0     C15843  10.403   2.031  10.435 -0.1390 -1.0319  0.7832
  118MOL0     C15844  10.262   2.004  10.448 -0.3014  0.6230  0.1675
  118MOL0     N15845   9.499   1.877  10.484 -0.1294 -0.4022 -0.1792
  118MOL0     N15846   9.431   1.791  10.413  0.6844 -0.2193 -0.3286
  118MOL0     C15847   8.359   2.056  10.161  0.6197  0.5757  0.0681
  118MOL0     C15848   8.233   2.125  10.137  0.4345  0.9609  0.7121
  118MOL0     C15849   7.904   2.432  10.056 -1.2919  0.3807 -0.5312
  118MOL0     C15850   7.958   2.535   9.964 -0.7488  0.1461 -0.9732
  118MOL0     C15851   7.880   2.650   9.946 -0.2802 -0.5358 -0.2477
  118MOL0     C15852   7.755   2.670   9.999  0.4247 -0.3983 -0.1221
  118MOL0     O15853   7.688   2.783   9.967 -0.7164  0.1275  0.5377
  118MOL0     C15854   7.600   2.839  10.060 -0.4235 -0.8739 -0.0543
  118MOL0     C15855   7.558   2.968   9.996 -0.6040 -0.8448 -0.0390
  118MOL0     C15856   7.429   3.024  10.068 -0.0114 -0.1566  0.4390
  118MOL0     C15857   7.302   2.937  10.041 -0.0593 -0.2735 -0.0928
  118MOL0     C15858   7.184   3.019  10.016 -0.7985  1.1936  0.4345
  118MOL0     C15859   7.091   3.090   9.990 -0.1707  0.5303  0.0684
  118MOL0     C15860   7.703   2.562  10.069  0.7657  0.3287 -0.7523
  118MOL0     C15861   7.773   2.449  10.106  0.3469  0.5944 -0.3201
  118MOL0     C15862   7.692   2.348  10.194  0.0950 -0.1021  0.2363
  118MOL0     H15863   8.309   2.258   9.840  0.4925  1.5576  0.0559
  118MOL0     H15864   8.488   2.124   9.851 -0.6910 -1.1747 -0.5318
  118MOL0     H15865   8.723   1.870  10.006 -2.0927 -1.3142 -0.3481
  118MOL0     H15866   8.631   1.955   9.880 -1.0111 -0.4197  0.8312
  118MOL0     H15867   8.808   2.083  10.095 -2.2593  1.5753 -0.3131
  118MOL0     H15868   8.720   2.172   9.957 -1.7952  0.0882  1.2012
  118MOL0     H15869   8.949   2.140   9.890 -0.0952 -0.1131  1.0674
  118MOL0     H15870   8.860   2.022   9.799  1.2508 -1.3276 -0.4221
  118MOL0     H15871   8.986   1.959  10.069 -1.6270  0.0985  0.1759
  118MOL0     H15872   8.944   1.843   9.941 -0.2931  0.8440 -1.0692
  118MOL0     H15873   9.123   1.932   9.804  0.5168  2.2192 -0.1781
  118MOL0     H15874   9.166   2.056   9.932  1.1164 -0.6308  1.2458
  118MOL0     H15875   9.171   1.758   9.944  1.6063 -1.3706  0.3062
  118MOL0     H15876   9.319   1.850   9.924  0.0176 -3.8856 -0.6659
  118MOL0     H15877   9.151   1.848  10.182  0.4071 -0.3832  0.4221
  118MOL0     H15878   9.265   1.974  10.137  2.9061 -0.0860 -0.8718
  118MOL0     H15879   9.344   1.676  10.192  3.5072 -1.0200 -1.1786
  118MOL0     H15880   9.434   1.771  10.094 -0.0516 -0.2433  0.5131
  118MOL0     H15881   9.530   2.026  10.202  1.5201 -0.7659  0.0100
  118MOL0     H15882   9.619   2.184  10.421 -1.6644 -0.0861 -1.3636
  118MOL0     H15883   9.627   2.075  10.568 -1.0826  2.3457 -0.1263
  118MOL0     H15884   9.787   2.064  10.305 -1.2399  0.8825 -0.6958
  118MOL0     H15885   9.843   2.123  10.461 -1.0146 -0.0652 -0.2888
  118MOL0     H15886   9.813   1.851  10.365 -0.4168 -0.1393 -0.0379
  118MOL0     H15887   9.804   1.890  10.549  0.7581 -0.9867  0.1956
  118MOL0     H15888  10.026   1.833  10.509 -2.4334 -0.9047  1.0717
  118MOL0     H15889  10.004   2.017  10.513  0.7558  0.4209 -1.0895
  118MOL0     H15890  10.182   1.994  10.118  0.0928  0.6180  1.0670
  118MOL0     H15891  10.428   2.049  10.095 -0.8375  0.3620 -0.2246
  118MOL0     H15892  10.807   1.942   9.972  1.7193 -1.5288 -0.4393
  118MOL0     H15893  11.059   1.981   9.936 -1.3279  1.4233 -1.3619
  118MOL0     H15894  11.262   2.285  10.233 -1.7893  1.1061 -1.8101
  118MOL0     H15895  11.325   2.118  10.248 -0.1526 -1.5123 -2.1250
  118MOL0     H15896  11.368   2.302  10.009 -0.2620 -4.9697 -0.6976
  118MOL0     H15897  11.480   2.331  10.141  0.1304 -0.8937 -0.0760
  118MOL0     H15898  11.459   2.057   9.997  1.9249 -0.0454 -1.0552
  118MOL0     H15899  11.545   2.181   9.923 -0.5249 -1.0401 -2.2285
  118MOL0     H15900  11.572   2.068  10.216 -1.4836  1.7873  0.6922
  118MOL0     H15901  11.675   2.194  10.170 -0.4429  0.0899 -0.0872
  118MOL0     H15902  11.745   2.038   9.975  1.2323  0.9532  0.5694
  118MOL0     H15903  11.683   1.913  10.090  0.9206 -0.6143  2.5729
  118MOL0     H15904  11.920   2.108  10.138  0.9106 -0.6678  1.5339
  118MOL0     H15905  11.850   2.012  10.264  1.2864 -1.0480  0.4360
  118MOL0     H15906  11.951   1.884   9.993  0.1698 -0.3011  0.4321
  118MOL0     H15907  11.932   1.813  10.157 -1.1968 -0.7498 -0.9569
  118MOL0     H15908  12.138   2.031  10.073  2.2505 -0.8204  0.0981
  118MOL0     H15909  12.136   1.954  10.227  0.5042  3.5487 -0.4725
  118MOL0     H15910  11.071   2.233  10.276 -0.4095  3.0459 -1.4949
  118MOL0     H15911  10.832   2.186  10.327 -0.0392  0.3628  0.9787
  118MOL0     H15912  10.467   2.045  10.521 -0.0625  0.6665  0.4790
  118MOL0     H15913  10.219   1.983  10.546 -1.3186  1.1795 -0.1435
  118MOL0     H15914   8.364   1.996  10.251 -3.8737  0.2810  0.3449
  118MOL0     H15915   8.161   2.131  10.218 -2.6600  2.8168 -1.9266
  118MOL0     H15916   8.054   2.519   9.917  0.2785 -0.8745  1.2986
  118MOL0     H15917   7.931   2.729   9.891  0.1816  0.5102  1.6151
  118MOL0     H15918   7.645   2.869  10.156  0.2101  1.7584 -1.0926
  118MOL0     H15919   7.508   2.783  10.078 -0.9714 -0.1944 -0.7005
  118MOL0     H15920   7.551   2.958   9.887  0.9087  0.6581 -0.3329
  118MOL0     H15921   7.643   3.035  10.015  1.7396 -4.1858  2.5259
  118MOL0     H15922   7.393   3.123  10.036 -0.3451 -1.1721 -2.6050
  118MOL0     H15923   7.443   3.030  10.176  0.7214 -0.2979  0.3539
  118MOL0     H15924   7.332   2.857   9.973  2.8715 -0.2644  1.0379
  118MOL0     H15925   7.273   2.875  10.127  0.2333 -2.2670 -1.3531
  118MOL0     H15926   7.006   3.153   9.971 -0.5317 -0.0450 -0.2543
  118MOL0     H15927   7.604   2.568  10.114  0.7294 -2.1555 -0.3611
  118MOL0     H15928   7.639   2.269  10.139  0.6753 -1.3634  1.4304
  118MOL0     H15929   7.766   2.307  10.264 -0.6731  1.2923  1.9352
  118MOL0     H15930   7.620   2.396  10.260  0.4043  0.6777  0.0121
  119MOL0     O15931  10.297   1.388   2.454 -0.1342 -0.2270 -0.5514
  119MOL0     C15932  10.261   1.305   2.367 -0.4524 -0.1539 -0.5590
  119MOL0     O15933  10.154   1.217   2.382  0.1061  0.3980  0.5575
  119MOL0     C15934  10.077   1.237   2.490 -0.5830 -0.4274  0.2169
  119MOL0     C15935   9.974   1.334   2.491 -0.7442 -0.2641  0.2245
  119MOL0     C15936   9.902   1.365   2.600 -0.1756  0.0375 -0.0160
  119MOL0     C15937   9.932   1.305   2.719  0.3352  0.8651  0.5200
  119MOL0     O15938   9.844   1.351   2.817  0.5179  0.1831  0.1094
  119MOL0     C15939   9.864   1.305   2.948  0.2080  0.6330 -0.3088
  119MOL0     C15940   9.816   1.400   3.063 -0.1080  0.5307  0.7955
  119MOL0     C15941   9.909   1.520   3.071 -0.2335  0.1010  0.0649
  119MOL0     C15942   9.931   1.552   3.218  0.5078  1.1441 -0.8504
  119MOL0     C15943  10.017   1.668   3.234  0.4086  0.1471  0.5869
  119MOL0     C15944  10.063   1.695   3.380  0.4992  0.3026 -0.4073
  119MOL0     C15945  10.168   1.798   3.406  0.1671  0.7403  0.1039
  119MOL0     C15946  10.304   1.757   3.356 -0.0429 -0.6033  0.1460
  119MOL0     N15947  10.361   1.650   3.431 -0.7618  0.5162 -0.5902
  119MOL0     C15948  10.332   1.518   3.401  0.8091  0.1585 -1.1540
  119MOL0     C15949  10.390   1.449   3.503 -1.4065  0.6178 -0.6625
  119MOL0     C15950  10.412   1.291   3.493  1.0700 -0.4592  0.3442
  119MOL0     C15951  10.528   1.261   3.396 -0.2905 -0.2061  0.2657
  119MOL0     C15952  10.664   1.272   3.462 -0.1052 -0.0808 -0.4007
  119MOL0     C15953  10.736   1.416   3.462  0.3535 -0.4472  0.3832
  119MOL0     O15954  10.779   1.446   3.326  0.4681  0.2293 -0.1943
  119MOL0     C15955  10.912   1.464   3.306 -0.5746 -0.2832 -0.4356
  119MOL0     C15956  10.988   1.348   3.285 -0.0304 -0.1156  0.2896
  119MOL0     C15957  11.125   1.354   3.278 -0.6998 -0.6569  1.1452
  119MOL0     C15958  11.193   1.479   3.289 -0.0813 -1.1302 -0.1099
  119MOL0     C15959  11.347   1.486   3.295  0.6435 -0.2989 -0.2598
  119MOL0     O15960  11.417   1.596   3.280 -0.1296 -0.4575 -0.2016
  119MOL0     C15961  11.552   1.606   3.273  0.2062 -0.0992 -0.9775
  119MOL0     C15962  11.633   1.522   3.194  1.6387 -0.1302  0.3041
  119MOL0     C15963  11.763   1.543   3.176 -0.7289 -0.0087 -0.6910
  119MOL0     C15964  11.826   1.645   3.250 -0.0447  0.1215  0.5843
  119MOL0     O15965  11.962   1.659   3.224 -0.2683  0.2888 -0.4261
  119MOL0     C15966  12.049   1.739   3.307 -0.5320  0.3984 -0.1028
  119MOL0     C15967  12.179   1.667   3.304 -0.3471 -0.2836  0.2081
  119MOL0     C15968  12.291   1.734   3.384  0.4129 -0.4997  1.1189
  119MOL0     C15969  12.271   1.769   3.527 -0.6067  0.5946  0.2636
  119MOL0     C15970  12.402   1.833   3.584 -0.1728  0.9440 -0.3707
  119MOL0     C15971  12.507   1.727   3.617  0.4409  0.1335  0.2226
  119MOL0     C15972  12.616   1.788   3.702  0.0771 -1.0521  0.2141
  119MOL0     C15973  12.720   1.688   3.749  0.7570  0.3404  0.9058
  119MOL0    Cl15974  12.639   1.572   3.863  0.1342 -0.1616  0.0616
  119MOL0     C15975  11.755   1.730   3.323  0.9372 -0.9710  0.0555
  119MOL0     C15976  11.618   1.709   3.352  0.4488  0.1183  1.0002
  119MOL0     O15977  11.395   1.377   3.317 -0.3148 -0.0175 -0.1104
  119MOL0     C15978  11.115   1.596   3.297  0.3086 -0.0441  0.5369
  119MOL0     C15979  10.978   1.583   3.317  0.2750 -0.7483  0.5507
  119MOL0     N15980  10.449   1.543   3.586  0.5240 -0.4222 -0.7900
  119MOL0     N15981  10.430   1.668   3.549  0.5782  0.7121  0.6526
  119MOL0     C15982  10.039   1.215   2.731  1.2948  0.4129 -0.1147
  119MOL0     C15983  10.114   1.185   2.618 -0.0888 -0.0679  0.0978
  119MOL0     C15984  10.340   1.303   2.238 -0.4230 -0.1541  0.4872
  119MOL0     C15985  10.479   1.332   2.245  0.2905  0.0529  0.1667
  119MOL0     C15986  10.555   1.323   2.129  0.0089 -0.7763 -0.7982
  119MOL0     C15987  10.504   1.287   2.009 -0.2445  0.5637  0.0575
  119MOL0     O15988  10.593   1.257   1.900  0.3042  0.3703  0.2233
  119MOL0     C15989  10.559   1.322   1.777  0.6537  0.4923 -0.4917
  119MOL0     C15990  10.509   1.215   1.675 -0.4860 -0.0605  0.0411
  119MOL0     C15991  10.593   1.087   1.684 -0.9935 -0.8944 -1.1259
  119MOL0     C15992  10.537   0.974   1.595  0.3451  0.1288  0.3817
  119MOL0     C15993  10.532   1.005   1.455 -0.2774  0.1780  0.6512
  119MOL0     C15994  10.525   1.025   1.334 -0.3860  0.1873 -0.1162
  119MOL0     C15995  10.372   1.254   1.995  0.2197  0.0002  0.3288
  119MOL0     C15996  10.287   1.268   2.106 -0.3297  0.3047 -0.7488
  119MOL0     C15997  10.138   1.220   2.103  0.2265  0.4241  0.0197
  119MOL0     H15998   9.953   1.381   2.395 -2.7943  0.8605  1.1739
  119MOL0     H15999   9.818   1.432   2.585  0.1596  0.1681 -1.4296
  119MOL0     H16000   9.808   1.211   2.948  0.9598  0.1683 -1.4127
  119MOL0     H16001   9.971   1.290   2.965  0.0725 -2.1909 -1.4516
  119MOL0     H16002   9.826   1.348   3.159  2.4278 -1.1215 -0.2748
  119MOL0     H16003   9.715   1.437   3.041  1.0536  2.0711 -2.5415
  119MOL0     H16004   9.865   1.604   3.016 -3.5617 -0.1794  2.0064
  119MOL0     H16005  10.006   1.499   3.026  0.8411  2.0769  1.2967
  119MOL0     H16006   9.833   1.567   3.264 -0.4053 -0.2417 -2.2697
  119MOL0     H16007   9.980   1.466   3.266 -3.5572 -0.7839  0.3018
  119MOL0     H16008  10.104   1.660   3.168 -0.3568 -1.7248 -0.2653
  119MOL0     H16009   9.974   1.761   3.195 -0.2048 -0.1532  0.5424
  119MOL0     H16010   9.973   1.725   3.434 -0.8915 -2.1877 -1.2108
  119MOL0     H16011  10.102   1.600   3.418 -0.4660 -0.1918 -0.6266
  119MOL0     H16012  10.167   1.817   3.514 -0.4170  1.8045 -0.0712
  119MOL0     H16013  10.133   1.891   3.359  0.4608 -0.0332 -1.7527
  119MOL0     H16014  10.308   1.730   3.250 -2.3856 -0.1494 -0.0964
  119MOL0     H16015  10.369   1.844   3.368 -0.9151 -0.1922  2.1185
  119MOL0     H16016  10.277   1.481   3.315  1.5650 -0.1888 -1.4930
  119MOL0     H16017  10.425   1.257   3.596 -1.5506 -0.5073  0.7240
  119MOL0     H16018  10.323   1.236   3.461 -0.1955  1.6993 -0.0774
  119MOL0     H16019  10.513   1.161   3.355  2.4632 -0.7372  0.3760
  119MOL0     H16020  10.529   1.330   3.312 -0.4269 -0.4624  0.0512
  119MOL0     H16021  10.740   1.215   3.409 -0.2667 -0.8584  0.1812
  119MOL0     H16022  10.648   1.243   3.567 -2.1886 -0.0858 -0.6802
  119MOL0     H16023  10.819   1.417   3.533  0.6586  0.0381  0.0254
  119MOL0     H16024  10.667   1.497   3.486  1.9215  1.0048  0.1767
  119MOL0     H16025  10.943   1.250   3.274  2.4382 -1.1529 -1.4263
  119MOL0     H16026  11.179   1.259   3.273  1.6197  0.6315 -0.1493
  119MOL0     H16027  11.579   1.448   3.135 -0.9572  1.8400  0.0060
  119MOL0     H16028  11.813   1.474   3.109  1.9382 -0.0948  1.2197
  119MOL0     H16029  12.057   1.840   3.265  0.7775 -0.4759 -2.0710
  119MOL0     H16030  12.012   1.743   3.410 -2.9763 -1.5086 -0.8021
  119MOL0     H16031  12.169   1.567   3.348  1.8782  0.3419  2.3572
  119MOL0     H16032  12.218   1.671   3.202 -2.3749  0.6234 -0.5878
  119MOL0     H16033  12.386   1.684   3.360  1.7252  2.5679 -0.7270
  119MOL0     H16034  12.317   1.828   3.335 -2.9854  0.1704  0.3209
  119MOL0     H16035  12.240   1.678   3.580 -3.7801 -0.0055 -2.2596
  119MOL0     H16036  12.181   1.830   3.541 -0.5830  0.2585  2.0611
  119MOL0     H16037  12.370   1.878   3.679 -1.4147  0.6428 -0.6312
  119MOL0     H16038  12.441   1.911   3.517 -0.0969 -0.7546 -2.4009
  119MOL0     H16039  12.450   1.649   3.668 -0.3489 -0.4521 -1.4620
  119MOL0     H16040  12.549   1.694   3.521 -1.4723 -0.2184 -0.5425
  119MOL0     H16041  12.572   1.834   3.791  0.6172  2.6665 -1.2417
  119MOL0     H16042  12.662   1.870   3.646 -0.0804 -1.3151 -0.3073
  119MOL0     H16043  12.763   1.628   3.668 -0.1731  1.3087 -0.3315
  119MOL0     H16044  12.793   1.754   3.797  0.4581  3.0686 -2.0834
  119MOL0     H16045  11.794   1.820   3.370  0.4355  0.0154 -1.3592
  119MOL0     H16046  11.565   1.773   3.422 -0.5816 -0.1597  0.4959
  119MOL0     H16047  11.151   1.698   3.293  0.2865 -0.0704 -0.8818
  119MOL0     H16048  10.919   1.673   3.335  2.0727  0.5296  0.2697
  119MOL0     H16049  10.080   1.170   2.821  2.8804 -0.4334 -1.2187
  119MOL0     H16050  10.202   1.122   2.622 -1.1043 -1.5102  0.9124
  119MOL0     H16051  10.509   1.364   2.344 -1.6783  1.9009  0.2486
  119MOL0     H16052  10.658   1.350   2.150 -1.1721  1.1656  3.5442
  119MOL0     H16053  10.654   1.360   1.738  2.8341 -1.9263  2.0199
  119MOL0     H16054  10.487   1.400   1.799  0.9789  0.3870  1.0244
  119MOL0     H16055  10.512   1.255   1.573  0.7291 -0.6674 -0.1773
  119MOL0     H16056  10.409   1.194   1.715 -1.1476 -0.4853 -1.7413
  119MOL0     H16057  10.584   1.048   1.786  1.1889  1.5870  0.1526
  119MOL0     H16058  10.699   1.105   1.665 -1.2838  4.4007  0.6614
  119MOL0     H16059  10.586   0.878   1.616  1.9754  1.3649  2.7988
  119MOL0     H16060  10.433   0.957   1.624  0.8576 -1.2174  1.5243
  119MOL0     H16061  10.507   1.056   1.233  0.7184  1.5279  0.0713
  119MOL0     H16062  10.338   1.215   1.900 -0.9673  1.8840 -0.0793
  119MOL0     H16063  10.128   1.122   2.151 -1.2851  1.1876  1.3959
  119MOL0     H16064  10.066   1.285   2.155 -0.4236 -1.1950  1.2027
  119MOL0     H16065  10.104   1.222   1.999  0.2697  1.8679  0.0067
  120MOL0     O16066  10.280   0.919   8.839 -0.2099 -0.2144 -0.1988
  120MOL0     C16067  10.234   0.840   8.753  0.0291  0.4244 -0.2368
  120MOL0     O16068  10.306   0.768   8.665 -0.2751  0.1786  0.8226
  120MOL0     C16069  10.441   0.771   8.640  0.5153  0.6809  0.3212
  120MOL0     C16070  10.530   0.772   8.744 -0.5570 -0.1729 -0.4038
  120MOL0     C16071  10.667   0.797   8.713 -0.1491  0.1437  0.7310
  120MOL0     C16072  10.715   0.803   8.586 -0.4423 -0.2224  0.3937
  120MOL0     O16073  10.850   0.809   8.585 -0.1745  0.3288 -0.2377
  120MOL0     C16074  10.916   0.885   8.481 -0.3722 -0.0573 -0.1120
  120MOL0     C16075  11.059   0.841   8.507  0.5064  0.2654 -0.4627
  120MOL0     C16076  11.149   0.941   8.436  0.1772  0.3445 -0.1522
  120MOL0     C16077  11.291   0.902   8.450 -0.3585 -0.3706  0.0797
  120MOL0     C16078  11.376   1.014   8.383  0.0066 -0.1550 -0.2131
  120MOL0     C16079  11.527   0.997   8.424 -0.1846  0.0906  0.1679
  120MOL0     C16080  11.610   1.114   8.380 -0.2878  0.2270 -0.0642
  120MOL0     C16081  11.751   1.068   8.348 -0.4792 -0.6972  0.3911
  120MOL0     N16082  11.819   1.174   8.275 -0.1549  0.2644  0.7891
  120MOL0     C16083  11.936   1.223   8.304 -0.8291 -0.4163  0.1756
  120MOL0     C16084  11.968   1.321   8.209  0.5839  0.4402  0.1589
  120MOL0     C16085  12.087   1.417   8.201  0.0557  0.7917 -0.4453
  120MOL0     C16086  12.226   1.351   8.214  0.0540 -0.3173 -0.1357
  120MOL0     C16087  12.339   1.457   8.215 -0.7845 -0.4780 -0.0079
  120MOL0     C16088  12.356   1.537   8.349  0.9198  0.4294 -0.0543
  120MOL0     O16089  12.455   1.643   8.339 -0.2261 -0.9686 -1.0543
  120MOL0     C16090  12.585   1.613   8.365  0.0434  0.1162  0.9783
  120MOL0     C16091  12.691   1.713   8.358  0.6942  0.0311 -0.8709
  120MOL0     C16092  12.825   1.695   8.381  0.6943  0.6239  0.6715
  120MOL0     C16093  12.863   1.561   8.403  0.0495  0.0778  0.1143
  120MOL0     C16094  13.001   1.523   8.441  0.1702  0.1746  0.3989
  120MOL0     O16095  13.015   1.400   8.502 -0.0011 -1.0001 -0.6044
  120MOL0     C16096  13.148   1.349   8.497  0.3211 -1.0067  0.1795
  120MOL0     C16097  13.189   1.256   8.397 -0.3483  0.2815  0.7610
  120MOL0     C16098  13.316   1.201   8.391 -0.7851 -0.1086 -0.6176
  120MOL0     C16099  13.411   1.248   8.479 -0.2551 -0.8787  0.1164
  120MOL0     O16100  13.536   1.187   8.485  0.5327  0.5009 -0.9307
  120MOL0     C16101  13.629   1.222   8.588  0.2216  0.1131 -0.6935
  120MOL0     C16102  13.741   1.118   8.591 -0.2140  0.6383  0.3201
  120MOL0     C16103  13.867   1.156   8.501 -0.0426 -0.1623  0.2149
  120MOL0     C16104  13.961   1.030   8.501  0.6237 -0.1884  0.3340
  120MOL0     C16105  14.081   1.035   8.403  1.0742 -0.9669  0.3829
  120MOL0     C16106  14.130   0.896   8.377 -0.6890  0.8184  0.4497
  120MOL0     C16107  14.217   0.843   8.500  0.7244  0.4789  0.1221
  120MOL0     C16108  14.210   0.689   8.504 -0.9742  0.1968  0.8333
  120MOL0    Cl16109  14.316   0.624   8.389  0.0809  0.2950  0.3451
  120MOL0     C16110  13.373   1.346   8.572 -0.3701  0.5735  0.1677
  120MOL0     C16111  13.243   1.394   8.587 -0.0704  1.0678 -0.6406
  120MOL0     O16112  13.088   1.609   8.431  0.4521  0.6041 -0.7507
  120MOL0     C16113  12.773   1.459   8.404 -1.2065  0.0409  0.6618
  120MOL0     C16114  12.635   1.484   8.385  0.2198  0.6403  1.1004
  120MOL0     N16115  11.865   1.322   8.117 -1.0336 -0.4743 -0.0387
  120MOL0     N16116  11.780   1.226   8.153  0.6758 -0.0384  0.0683
  120MOL0     C16117  10.623   0.809   8.475  0.0653  0.4753 -1.0321
  120MOL0     C16118  10.488   0.784   8.508  0.0955 -0.5215 -0.1282
  120MOL0     C16119  10.098   0.793   8.768 -0.5519 -0.4553 -0.4149
  120MOL0     C16120  10.031   0.817   8.888  0.0253 -0.2942 -0.0373
  120MOL0     C16121   9.892   0.790   8.914 -0.4026 -0.0898  1.2985
  120MOL0     C16122   9.817   0.729   8.810  0.1897  0.6250 -0.0256
  120MOL0     O16123   9.683   0.708   8.821 -0.2969 -0.6418 -0.2652
  120MOL0     C16124   9.609   0.737   8.941  0.1650 -0.4748 -0.2439
  120MOL0     C16125   9.475   0.668   8.939  0.3378 -0.9790 -0.5739
  120MOL0     C16126   9.470   0.521   8.883 -0.3613 -0.7417  0.0275
  120MOL0     C16127   9.338   0.449   8.898  0.2646 -1.2979 -0.7367
  120MOL0     C16128   9.329   0.406   9.039  0.6621  0.2834 -0.0701
  120MOL0     C16129   9.320   0.373   9.158  0.1764 -1.0305  0.1778
  120MOL0     C16130   9.885   0.693   8.693  0.0652 -0.0215 -0.6514
  120MOL0     C16131  10.020   0.731   8.670 -0.0469  0.4368  0.2668
  120MOL0     C16132  10.063   0.709   8.532 -0.0629  0.0978 -1.1466
  120MOL0     H16133  10.496   0.771   8.847 -1.4928 -0.3702 -0.7081
  120MOL0     H16134  10.748   0.807   8.785  1.0883 -0.9726 -0.4522
  120MOL0     H16135  10.888   0.855   8.379 -0.2535 -2.6537  0.5462
  120MOL0     H16136  10.901   0.992   8.494  0.2454 -0.0127  0.2718
  120MOL0     H16137  11.081   0.743   8.463 -3.5409 -0.6210 -0.9048
  120MOL0     H16138  11.085   0.825   8.612  0.1477 -0.0503 -0.4177
  120MOL0     H16139  11.130   1.040   8.480 -1.2840  0.6757 -1.4216
  120MOL0     H16140  11.124   0.941   8.329 -1.2089  1.0483  0.1481
  120MOL0     H16141  11.315   0.911   8.556 -1.2667  0.5596  0.2306
  120MOL0     H16142  11.315   0.802   8.413 -1.6399 -0.3144 -0.9835
  120MOL0     H16143  11.368   1.008   8.274  1.6928 -1.5222 -0.2911
  120MOL0     H16144  11.339   1.112   8.416  0.8577  0.5081 -1.1660
  120MOL0     H16145  11.529   0.987   8.533 -0.9370 -0.1133  0.1701
  120MOL0     H16146  11.561   0.900   8.388 -1.2810 -0.4465  0.5269
  120MOL0     H16147  11.610   1.187   8.462  0.0337 -2.9671  3.0157
  120MOL0     H16148  11.568   1.163   8.292  0.1964  1.0444  0.1471
  120MOL0     H16149  11.807   1.048   8.440 -3.0130 -1.9760  1.7730
  120MOL0     H16150  11.743   0.976   8.291  0.2389 -1.7141  1.8813
  120MOL0     H16151  12.005   1.199   8.384  2.6775  0.2387 -2.3782
  120MOL0     H16152  12.074   1.472   8.108 -2.3414  1.4354  0.2054
  120MOL0     H16153  12.078   1.491   8.281  0.3277  3.3865 -2.6828
  120MOL0     H16154  12.231   1.288   8.303  1.7036 -2.3314 -1.5414
  120MOL0     H16155  12.245   1.274   8.138  5.5220 -0.6256  1.1016
  120MOL0     H16156  12.327   1.531   8.135  1.2704 -0.3441 -0.2560
  120MOL0     H16157  12.425   1.397   8.185 -1.0792  0.5118 -3.1771
  120MOL0     H16158  12.373   1.471   8.435 -2.0815 -0.0172  0.3261
  120MOL0     H16159  12.253   1.564   8.375  0.3929 -1.8535  0.4409
  120MOL0     H16160  12.660   1.816   8.352  0.1261 -0.1647 -1.3571
  120MOL0     H16161  12.899   1.773   8.368  0.9342  0.2979  0.0344
  120MOL0     H16162  13.124   1.231   8.313 -1.9983  2.2689  1.3695
  120MOL0     H16163  13.349   1.129   8.317  1.8097 -1.6414  1.8085
  120MOL0     H16164  13.670   1.324   8.583  0.9038 -0.2075 -2.0004
  120MOL0     H16165  13.578   1.205   8.683  0.8370 -2.1429 -0.6999
  120MOL0     H16166  13.769   1.100   8.695  2.1619  1.6434 -0.0877
  120MOL0     H16167  13.698   1.023   8.557 -1.5902  1.4785 -0.3979
  120MOL0     H16168  13.831   1.180   8.401  2.9685 -1.8816 -1.4119
  120MOL0     H16169  13.924   1.234   8.552  2.5517 -1.8799  0.1488
  120MOL0     H16170  13.894   0.950   8.470  0.9212 -1.7731  3.4341
  120MOL0     H16171  13.992   1.021   8.606  0.4896 -1.3453  0.2832
  120MOL0     H16172  14.159   1.094   8.451  2.2781 -0.9367 -1.5099
  120MOL0     H16173  14.052   1.093   8.316  1.8051  0.4350  1.0479
  120MOL0     H16174  14.045   0.828   8.370  0.0536 -0.2850  1.7301
  120MOL0     H16175  14.188   0.890   8.284 -1.7713 -0.5379 -0.1829
  120MOL0     H16176  14.172   0.878   8.594  0.4983  0.0936  0.1601
  120MOL0     H16177  14.321   0.875   8.505  1.2798 -1.0184 -1.0433
  120MOL0     H16178  14.246   0.658   8.603  0.0887 -3.9216 -0.6189
  120MOL0     H16179  14.106   0.655   8.496 -0.8335 -0.3457  1.2130
  120MOL0     H16180  13.440   1.379   8.651  2.8114  0.2717 -2.2401
  120MOL0     H16181  13.219   1.464   8.667 -0.9591 -0.8996  0.9068
  120MOL0     H16182  12.807   1.357   8.417 -0.5673  0.2539  0.6865
  120MOL0     H16183  12.562   1.404   8.396  2.0000 -0.6656  6.7400
  120MOL0     H16184  10.661   0.822   8.374 -0.2696 -1.0875 -1.3806
  120MOL0     H16185  10.413   0.773   8.430 -0.3939 -1.2362  0.4368
  120MOL0     H16186  10.072   0.878   8.968 -1.0646 -1.5038  1.5117
  120MOL0     H16187   9.837   0.810   9.005 -1.8530 -0.4603  0.5320
  120MOL0     H16188   9.610   0.844   8.965 -0.8272 -0.0423 -1.9476
  120MOL0     H16189   9.659   0.698   9.029  0.7911  1.4385  0.2899
  120MOL0     H16190   9.408   0.730   8.879 -0.8455  0.9496  2.5115
  120MOL0     H16191   9.443   0.673   9.043  0.0299 -2.1377 -0.6064
  120MOL0     H16192   9.552   0.461   8.924 -0.0565 -1.2347 -1.2576
  120MOL0     H16193   9.489   0.539   8.776  0.5774  3.1893  0.6806
  120MOL0     H16194   9.251   0.514   8.881 -0.1153  0.4099  5.3632
  120MOL0     H16195   9.319   0.363   8.833 -2.0580  0.7689 -3.0263
  120MOL0     H16196   9.314   0.361   9.264 -1.0267  1.1440  0.4243
  120MOL0     H16197   9.835   0.642   8.611  2.4568 -3.4833 -0.1694
  120MOL0     H16198   9.983   0.705   8.457  0.0154  2.1428 -1.4051
  120MOL0     H16199  10.127   0.793   8.503 -0.3018  0.6101 -0.2180
  120MOL0     H16200  10.121   0.618   8.515 -1.1412 -0.4441 -2.1004
  121MOL0     O16201   3.690   2.738   1.635  0.4695 -0.0555 -0.2740
  121MOL0     C16202   3.657   2.810   1.732 -0.5985 -0.2798  0.0693
  121MOL0     O16203   3.748   2.873   1.816 -0.1002 -0.4617 -0.2353
  121MOL0     C16204   3.880   2.837   1.819 -0.3679 -0.6515  0.0113
  121MOL0     C16205   3.967   2.900   1.733 -0.5407 -0.4408  0.4350
  121MOL0     C16206   4.103   2.865   1.722 -0.0504  0.0350 -0.6362
  121MOL0     C16207   4.151   2.767   1.811 -0.3160  0.9410 -0.3535
  121MOL0     O16208   4.283   2.724   1.814  0.1836 -0.1570  0.1432
  121MOL0     C16209   4.385   2.777   1.725 -1.0508  0.1443 -0.4296
  121MOL0     C16210   4.460   2.904   1.772 -0.2747  0.5772 -0.6679
  121MOL0     C16211   4.552   2.966   1.668 -0.0012  0.7923  0.5095
  121MOL0     C16212   4.661   2.866   1.621  0.3385  1.0831  0.1179
  121MOL0     C16213   4.738   2.929   1.499 -0.1815 -0.3976  0.2442
  121MOL0     C16214   4.841   2.831   1.450  0.5401 -0.1485  0.1156
  121MOL0     C16215   4.922   2.886   1.333 -0.1323 -0.2985 -0.1840
  121MOL0     C16216   5.026   2.998   1.388 -0.6122  0.3242  0.2356
  121MOL0     N16217   5.117   3.029   1.275 -0.1564 -0.3885  0.5034
  121MOL0     C16218   5.232   2.964   1.231  0.2840  0.1621 -0.6207
  121MOL0     C16219   5.271   3.015   1.109 -0.1350  0.0994 -0.1940
  121MOL0     C16220   5.377   2.969   1.020 -0.2421  0.6485 -0.1874
  121MOL0     C16221   5.476   3.074   0.972 -0.3914 -0.2987  0.6896
  121MOL0     C16222   5.595   3.114   1.054 -0.7009 -0.0322 -0.2131
  121MOL0     C16223   5.694   2.991   1.086  0.2135  0.3118  0.4750
  121MOL0     O16224   5.774   2.964   0.974 -0.3895 -0.0791  0.2702
  121MOL0     C16225   5.869   2.867   0.971 -0.9586  0.2885 -0.2619
  121MOL0     C16226   5.894   2.766   1.067  0.6195 -0.7997  0.1872
  121MOL0     C16227   6.001   2.679   1.041  0.3949 -0.2587 -0.2395
  121MOL0     C16228   6.063   2.670   0.916 -0.2899 -0.0057  0.5469
  121MOL0     C16229   6.157   2.555   0.880  0.1131 -0.9970 -1.4155
  121MOL0     O16230   6.205   2.497   0.983 -0.4565  0.0247 -0.0886
  121MOL0     C16231   6.316   2.421   0.977  0.2551  0.2622  0.5256
  121MOL0     C16232   6.326   2.304   0.892  0.8052  0.3768  0.1704
  121MOL0     C16233   6.446   2.237   0.886  0.0643  0.6686 -0.0136
  121MOL0     C16234   6.556   2.273   0.965 -0.3841  0.2944  0.0006
  121MOL0     O16235   6.679   2.225   0.946  0.3006 -0.3937  0.2479
  121MOL0     C16236   6.757   2.307   0.850 -0.5968 -0.0873 -0.1390
  121MOL0     C16237   6.893   2.227   0.823  0.4397 -0.3857 -0.6412
  121MOL0     C16238   7.014   2.296   0.903 -0.0503  0.7429 -0.0709
  121MOL0     C16239   6.993   2.293   1.057  0.6780  0.5243 -0.3722
  121MOL0     C16240   7.087   2.393   1.132  0.0706 -0.1600  0.2643
  121MOL0     C16241   7.098   2.362   1.281  0.7771  0.5779  0.0477
  121MOL0     C16242   7.210   2.429   1.346  0.0845 -0.5619  0.7075
  121MOL0     C16243   7.224   2.422   1.495  0.7305 -0.2820 -0.3188
  121MOL0    Cl16244   7.259   2.266   1.569  0.1955  0.1724  0.0413
  121MOL0     C16245   6.542   2.383   1.051  0.5119  0.2448  0.3937
  121MOL0     C16246   6.420   2.453   1.058 -0.4117  0.5529  0.4243
  121MOL0     O16247   6.199   2.540   0.766  0.9156 -0.4896  0.7511
  121MOL0     C16248   6.029   2.767   0.823 -0.1313 -0.4553 -0.3844
  121MOL0     C16249   5.933   2.860   0.849  0.3453  0.7765  0.0145
  121MOL0     N16250   5.186   3.122   1.088  0.3059  0.0010  0.5090
  121MOL0     N16251   5.098   3.129   1.180 -0.0108  0.2683 -0.4319
  121MOL0     C16252   4.066   2.711   1.905  0.6167 -0.1852 -0.0507
  121MOL0     C16253   3.929   2.738   1.899  0.5143  0.0778  0.0214
  121MOL0     C16254   3.509   2.831   1.747  0.0387 -0.2418 -0.2586
  121MOL0     C16255   3.419   2.765   1.657 -0.0156  0.0876  0.5105
  121MOL0     C16256   3.283   2.797   1.653 -0.5687 -0.5593  0.4860
  121MOL0     C16257   3.229   2.883   1.756 -1.0430 -0.4027 -0.0865
  121MOL0     O16258   3.092   2.912   1.762  0.9537  0.2458 -0.6301
  121MOL0     C16259   3.011   2.794   1.784  0.5323  1.0274 -0.2877
  121MOL0     C16260   2.868   2.831   1.740 -1.6051  0.4949 -0.6741
  121MOL0     C16261   2.850   2.847   1.590  0.3849  0.0972  0.8658
  121MOL0     C16262   2.713   2.898   1.560 -0.1115  0.3078 -0.0010
  121MOL0     C16263   2.695   2.878   1.414  0.2627 -0.6286 -0.6522
  121MOL0     C16264   2.691   2.865   1.295  0.7167  1.2809  0.0765
  121MOL0     C16265   3.320   2.940   1.849  0.6702 -0.5810  0.0841
  121MOL0     C16266   3.457   2.915   1.850 -0.7429 -1.3478  0.0266
  121MOL0     C16267   3.541   3.005   1.946  0.0954  0.1462  0.2373
  121MOL0     H16268   3.920   2.965   1.659  1.2176  1.4818  0.9313
  121MOL0     H16269   4.166   2.918   1.651 -0.6342 -0.0150 -1.1975
  121MOL0     H16270   4.464   2.702   1.722 -2.0495 -0.9077 -2.7584
  121MOL0     H16271   4.357   2.779   1.619  1.9755  0.4044 -1.3100
  121MOL0     H16272   4.525   2.889   1.859 -0.1510  0.4758 -0.7772
  121MOL0     H16273   4.393   2.985   1.801 -1.4816  0.4022 -2.7734
  121MOL0     H16274   4.596   3.061   1.701 -1.7717  2.5342 -1.7898
  121MOL0     H16275   4.487   2.983   1.582 -0.2581  0.8097  0.7046
  121MOL0     H16276   4.729   2.860   1.706 -2.1448  1.5708  2.2614
  121MOL0     H16277   4.620   2.767   1.599 -0.0825  1.4958 -1.0730
  121MOL0     H16278   4.671   2.964   1.420  2.1283  0.2726 -1.5394
  121MOL0     H16279   4.777   3.024   1.538 -0.4487  0.5077 -1.5794
  121MOL0     H16280   4.917   2.827   1.528 -0.0336 -1.3615  0.6227
  121MOL0     H16281   4.806   2.731   1.424 -1.5847  0.1190  1.7387
  121MOL0     H16282   4.865   2.936   1.254  1.9680  0.9329 -0.9970
  121MOL0     H16283   4.976   2.802   1.288  1.2707  0.2546  0.4095
  121MOL0     H16284   4.964   3.086   1.404  0.0262  1.4993 -3.0682
  121MOL0     H16285   5.084   2.972   1.477  0.0814  0.3682 -0.1979
  121MOL0     H16286   5.273   2.868   1.263 -0.0146 -0.8211 -2.9746
  121MOL0     H16287   5.428   2.890   1.075 -0.8860 -1.7037 -2.7649
  121MOL0     H16288   5.334   2.928   0.928  1.0243  0.3900 -0.6772
  121MOL0     H16289   5.522   3.044   0.877  1.3731  2.3802  0.5958
  121MOL0     H16290   5.418   3.164   0.949  0.7257 -0.0869 -1.5979
  121MOL0     H16291   5.559   3.160   1.147 -4.8293 -1.7501 -0.7516
  121MOL0     H16292   5.648   3.187   0.993 -0.2730  0.5301  0.8055
  121MOL0     H16293   5.642   2.907   1.133  1.4248  0.5868  2.4336
  121MOL0     H16294   5.769   3.021   1.160 -0.8313 -1.1822  2.2038
  121MOL0     H16295   5.846   2.778   1.164  1.4383 -0.7489  0.5909
  121MOL0     H16296   6.024   2.607   1.119  0.3483 -0.1337 -0.1114
  121MOL0     H16297   6.240   2.275   0.834  1.4828 -2.5152  0.4889
  121MOL0     H16298   6.451   2.144   0.830  1.4929  0.2114  0.8017
  121MOL0     H16299   6.697   2.299   0.759  0.3211 -1.8242 -0.6339
  121MOL0     H16300   6.770   2.410   0.886 -0.4426  0.4371 -1.6554
  121MOL0     H16301   6.888   2.120   0.841  2.3013 -0.3431  0.4051
  121MOL0     H16302   6.927   2.228   0.718  0.1461 -1.5114 -0.7560
  121MOL0     H16303   7.106   2.250   0.867 -3.1402 -3.3326 -3.8507
  121MOL0     H16304   7.013   2.400   0.870  1.4622  0.6284 -0.5503
  121MOL0     H16305   7.015   2.193   1.095  1.2206  0.6992 -0.2145
  121MOL0     H16306   6.889   2.313   1.087  0.9544  1.5791 -0.0558
  121MOL0     H16307   7.057   2.497   1.119  1.7572  0.2146 -0.9128
  121MOL0     H16308   7.185   2.380   1.086 -0.3687  0.0922 -0.7471
  121MOL0     H16309   7.010   2.399   1.335  1.4146  2.2410  0.0125
  121MOL0     H16310   7.118   2.257   1.301 -1.0242  0.4802  1.6619
  121MOL0     H16311   7.218   2.529   1.303  3.4626 -1.0003  0.0802
  121MOL0     H16312   7.293   2.377   1.298  1.0458  1.5365 -0.0130
  121MOL0     H16313   7.303   2.490   1.527 -1.0878  2.5207 -1.4129
  121MOL0     H16314   7.132   2.472   1.528  0.9362 -0.4097  0.4787
  121MOL0     H16315   6.618   2.406   1.124 -0.3963 -0.5266  1.6111
  121MOL0     H16316   6.426   2.545   1.117  0.7941  0.9539 -0.2928
  121MOL0     H16317   6.076   2.761   0.726 -1.4540 -2.0845 -0.9521
  121MOL0     H16318   5.903   2.929   0.772 -2.3345 -0.6439 -0.3275
  121MOL0     H16319   4.089   2.625   1.967 -2.3058 -2.1220 -1.4427
  121MOL0     H16320   3.862   2.679   1.961  1.0773 -3.5357 -2.4825
  121MOL0     H16321   3.459   2.703   1.577  1.8551  0.6653  0.9417
  121MOL0     H16322   3.215   2.771   1.572 -0.7377 -0.1371  0.4895
  121MOL0     H16323   3.007   2.772   1.891 -1.8235  1.5434 -0.2149
  121MOL0     H16324   3.049   2.712   1.721 -0.2143  1.7160 -1.6889
  121MOL0     H16325   2.841   2.917   1.802 -3.3900  0.0881 -0.8287
  121MOL0     H16326   2.795   2.756   1.774 -3.9636  1.5971 -2.9097
  121MOL0     H16327   2.884   2.751   1.547  1.7332  0.1497  1.7367
  121MOL0     H16328   2.923   2.918   1.551 -0.1864  0.0399 -0.3348
  121MOL0     H16329   2.631   2.851   1.614  0.0748  2.2444  2.0958
  121MOL0     H16330   2.708   3.005   1.581 -3.2252  0.1733  0.3810
  121MOL0     H16331   2.684   2.837   1.192 -0.1928  1.3479  0.1132
  121MOL0     H16332   3.265   2.994   1.925  0.8577 -0.5032  0.1665
  121MOL0     H16333   3.617   2.945   1.997  0.3742 -0.7370 -1.1814
  121MOL0     H16334   3.584   3.086   1.886  0.0385  0.3450  0.4635
  121MOL0     H16335   3.470   3.047   2.018 -0.0481 -0.1208  0.2500
  122MOL0     O16336   9.312   0.872   0.210  0.5086 -0.5120 -0.3248
  122MOL0     C16337   9.264   0.753   0.214 -0.4346 -0.7469  0.0960
  122MOL0     O16338   9.324   0.631   0.172 -0.0991 -0.9588  0.6571
  122MOL0     C16339   9.444   0.639   0.104 -0.2990  0.3538 -0.4526
  122MOL0     C16340   9.460   0.717  -0.008  0.3137  0.3466  0.6409
  122MOL0     C16341   9.571   0.699  -0.086  0.5777 -0.8097 -0.0613
  122MOL0     C16342   9.667   0.598  -0.055  0.5325  0.9252  0.9836
  122MOL0     O16343   9.778   0.580  -0.136  0.4201  0.1402  0.7730
  122MOL0     C16344   9.825   0.696  -0.209 -0.1521  0.5625  0.5340
  122MOL0     C16345   9.977   0.694  -0.246  0.3293  0.9926 -0.3269
  122MOL0     C16346  10.025   0.563  -0.310 -0.1649  0.4090  0.2766
  122MOL0     C16347  10.180   0.572  -0.331 -0.9055 -1.0083  0.2865
  122MOL0     C16348  10.230   0.448  -0.390  0.4683  0.4616 -0.6351
  122MOL0     C16349  10.380   0.468  -0.414 -0.1177 -0.4670 -0.1143
  122MOL0     C16350  10.416   0.535  -0.551 -0.1600 -0.0904  0.0320
  122MOL0     C16351  10.573   0.550  -0.558 -0.4373 -0.5360 -0.3961
  122MOL0     N16352  10.604   0.630  -0.675 -0.7858  0.2926  0.1612
  122MOL0     C16353  10.665   0.752  -0.671 -0.6030  0.2770  0.2139
  122MOL0     C16354  10.697   0.780  -0.798 -0.1220  0.6637  0.1951
  122MOL0     C16355  10.762   0.911  -0.855  1.1788 -1.1109 -0.8435
  122MOL0     C16356  10.904   0.932  -0.810  0.7169 -0.4714 -0.1401
  122MOL0     C16357  11.006   0.823  -0.843 -0.1794  0.4043  0.1755
  122MOL0     C16358  11.156   0.855  -0.809  0.1561  0.4387  0.2013
  122MOL0     O16359  11.196   0.984  -0.857 -0.4725  0.1470 -0.9492
  122MOL0     C16360  11.328   1.018  -0.859  0.4905  1.2066 -0.8749
  122MOL0     C16361  11.432   0.923  -0.873 -0.0075  0.4949  0.0036
  122MOL0     C16362  11.561   0.970  -0.885 -0.5907  0.4575 -0.0321
  122MOL0     C16363  11.596   1.097  -0.853  0.1004 -0.0726 -0.4439
  122MOL0     C16364  11.738   1.137  -0.848 -0.7185  0.1880 -1.0399
  122MOL0     O16365  11.831   1.035  -0.852  0.2098 -0.2280 -0.7235
  122MOL0     C16366  11.961   1.074  -0.832  1.0509 -0.0488 -0.6887
  122MOL0     C16367  12.031   1.019  -0.718 -0.5060  0.5365 -0.2477
  122MOL0     C16368  12.169   1.051  -0.703  0.3053 -0.6559  1.7247
  122MOL0     C16369  12.236   1.133  -0.802  0.6620 -0.4784  0.6556
  122MOL0     O16370  12.373   1.144  -0.800 -0.2600 -0.0766 -0.4857
  122MOL0     C16371  12.443   1.113  -0.684 -0.4048 -0.5768 -1.0004
  122MOL0     C16372  12.593   1.131  -0.706  0.1578 -0.5098 -0.6573
  122MOL0     C16373  12.658   1.036  -0.806  0.6875  0.1255  0.1706
  122MOL0     C16374  12.809   1.059  -0.816 -0.0860  0.1751  0.0522
  122MOL0     C16375  12.852   1.042  -0.952 -0.4195  1.0054  0.2962
  122MOL0     C16376  13.008   1.038  -0.962  0.2078 -0.4840  0.3505
  122MOL0     C16377  13.063   0.999  -1.099  0.1668  0.2517  0.6776
  122MOL0     C16378  13.215   1.002  -1.110 -0.0250 -0.1954 -1.3718
  122MOL0    Cl16379  13.261   0.883  -0.990 -0.2753 -0.3719  0.1204
  122MOL0     C16380  12.165   1.192  -0.911  0.8005  0.0588 -0.2986
  122MOL0     C16381  12.030   1.155  -0.929 -0.0396 -0.5522 -0.2049
  122MOL0     O16382  11.761   1.252  -0.837 -0.1352 -0.4032 -0.4169
  122MOL0     C16383  11.490   1.186  -0.820  0.0667  0.5991 -0.5473
  122MOL0     C16384  11.351   1.144  -0.823 -0.4197  0.5534  0.2183
  122MOL0     N16385  10.669   0.668  -0.874  0.6646 -0.3979  0.1837
  122MOL0     N16386  10.624   0.583  -0.795 -0.8240 -0.9816  0.3150
  122MOL0     C16387   9.641   0.512   0.051  1.1801 -0.6908  0.7421
  122MOL0     C16388   9.533   0.533   0.133  0.3327  0.4428 -0.6218
  122MOL0     C16389   9.136   0.731   0.282  1.1224 -0.6381  0.8518
  122MOL0     C16390   9.128   0.637   0.394 -0.4091  0.9103 -0.6720
  122MOL0     C16391   9.012   0.633   0.469  1.3608 -0.0788  0.1186
  122MOL0     C16392   8.908   0.716   0.437  0.2245  0.3614  0.0039
  122MOL0     O16393   8.796   0.726   0.525  0.1764 -0.3209 -0.2784
  122MOL0     C16394   8.707   0.625   0.510  0.3350 -0.4521  0.6519
  122MOL0     C16395   8.563   0.680   0.530 -0.3847 -0.0360  0.0497
  122MOL0     C16396   8.540   0.824   0.485 -0.0328  0.8738  0.0088
  122MOL0     C16397   8.399   0.843   0.418 -0.1837 -0.2219 -0.7418
  122MOL0     C16398   8.327   0.946   0.488  0.3501  0.2296 -0.3904
  122MOL0     C16399   8.259   1.029   0.546 -0.2380  0.5597  0.1220
  122MOL0     C16400   8.906   0.809   0.338  0.1928 -0.5683 -0.1531
  122MOL0     C16401   9.022   0.821   0.265  0.1498 -0.3249 -0.7662
  122MOL0     C16402   9.021   0.932   0.172 -0.1175 -0.9962  0.0698
  122MOL0     H16403   9.379   0.782  -0.039  1.1728  1.3188  0.3684
  122MOL0     H16404   9.575   0.768  -0.170 -2.5347 -0.2104  0.1553
  122MOL0     H16405   9.768   0.709  -0.302  1.4786  0.4008 -0.5247
  122MOL0     H16406   9.810   0.790  -0.156 -1.5152  0.7299 -0.1061
  122MOL0     H16407  10.026   0.709  -0.149  0.9344  1.7669 -0.7384
  122MOL0     H16408  10.002   0.780  -0.309 -1.9093  2.3324  0.4909
  122MOL0     H16409   9.966   0.540  -0.399 -0.6449 -1.6650  1.0810
  122MOL0     H16410   9.996   0.477  -0.250  0.5638  1.4374  2.1653
  122MOL0     H16411  10.205   0.649  -0.406  0.7754 -2.6829 -0.9635
  122MOL0     H16412  10.222   0.593  -0.232  0.7103 -2.1239 -0.1309
  122MOL0     H16413  10.220   0.365  -0.320  1.9510 -2.6105 -3.8178
  122MOL0     H16414  10.177   0.429  -0.483  0.6170  1.4600 -0.9367
  122MOL0     H16415  10.423   0.539  -0.343 -0.8589  0.5664 -0.6582
  122MOL0     H16416  10.436   0.374  -0.411  0.7535  0.0162 -0.7976
  122MOL0     H16417  10.375   0.636  -0.558  0.5560  0.2857  0.9708
  122MOL0     H16418  10.372   0.473  -0.629 -0.8009 -0.8162  0.9551
  122MOL0     H16419  10.619   0.596  -0.470  0.2055  2.0069 -1.9352
  122MOL0     H16420  10.630   0.458  -0.571  1.9325  0.8729 -0.6038
  122MOL0     H16421  10.677   0.804  -0.577 -0.1096 -0.4054  0.5367
  122MOL0     H16422  10.752   0.911  -0.964  0.4426 -3.5674 -0.8449
  122MOL0     H16423  10.703   0.998  -0.827  0.1472 -1.2629 -2.4198
  122MOL0     H16424  10.932   1.030  -0.850 -1.3666  0.6247  0.9480
  122MOL0     H16425  10.895   0.941  -0.702 -6.2609 -0.6304 -0.3182
  122MOL0     H16426  11.000   0.809  -0.952  0.3337  1.9852 -0.0757
  122MOL0     H16427  10.978   0.733  -0.787 -0.0049 -0.0601 -0.4703
  122MOL0     H16428  11.204   0.778  -0.871 -0.5434 -0.8044  1.1625
  122MOL0     H16429  11.189   0.845  -0.706  0.3025  0.1328  0.1266
  122MOL0     H16430  11.411   0.817  -0.877 -1.4079  0.7760 -0.8476
  122MOL0     H16431  11.634   0.893  -0.906 -1.0520  0.1639 -0.5902
  122MOL0     H16432  11.982   0.953  -0.647 -0.6535  2.2018  1.2619
  122MOL0     H16433  12.213   1.005  -0.616  1.1221  0.3873  1.8932
  122MOL0     H16434  12.424   1.177  -0.598  2.2269 -0.2768 -0.5558
  122MOL0     H16435  12.424   1.010  -0.650  2.2932 -0.4905  1.1504
  122MOL0     H16436  12.610   1.236  -0.733  0.5729 -0.0837  1.1336
  122MOL0     H16437  12.651   1.104  -0.617  2.6933  2.6991 -1.1475
  122MOL0     H16438  12.633   0.931  -0.785  0.4498  0.6556  2.8717
  122MOL0     H16439  12.615   1.062  -0.903 -1.1993  1.2592  1.2611
  122MOL0     H16440  12.866   0.992  -0.752 -0.8225 -0.9852 -0.4814
  122MOL0     H16441  12.830   1.161  -0.782  1.2042 -0.9763  2.9718
  122MOL0     H16442  12.807   1.112  -1.024  1.7184  0.1980 -1.9839
  122MOL0     H16443  12.816   0.945  -0.985  2.3857  0.8783 -2.8839
  122MOL0     H16444  13.026   1.145  -0.947  1.5092 -0.7524  0.8123
  122MOL0     H16445  13.061   0.978  -0.888 -0.1265 -2.3473 -0.8517
  122MOL0     H16446  13.030   1.067  -1.179 -0.0006  0.6131  1.0499
  122MOL0     H16447  13.031   0.900  -1.135 -0.5510  0.4739  0.6806
  122MOL0     H16448  13.251   0.980  -1.211 -0.1082 -2.5203 -0.9602
  122MOL0     H16449  13.256   1.097  -1.076 -2.8325  0.4340  0.6762
  122MOL0     H16450  12.219   1.248  -0.987  2.1328 -0.9085 -0.0915
  122MOL0     H16451  11.988   1.192  -1.022  2.5007 -0.5042 -1.4243
  122MOL0     H16452  11.516   1.288  -0.795 -1.6183  0.6784  1.1647
  122MOL0     H16453  11.270   1.212  -0.800  1.3423  2.6082  0.6406
  122MOL0     H16454   9.692   0.418   0.070 -1.0013 -2.0946 -0.0245
  122MOL0     H16455   9.507   0.455   0.203 -0.6809  0.2583 -1.1782
  122MOL0     H16456   9.215   0.577   0.419 -0.9051 -0.1291 -1.3897
  122MOL0     H16457   9.004   0.571   0.558 -2.2071 -2.9224 -1.8926
  122MOL0     H16458   8.723   0.534   0.568 -2.3826 -0.2240  1.9021
  122MOL0     H16459   8.715   0.608   0.402  0.0577 -2.2866  0.8942
  122MOL0     H16460   8.543   0.677   0.638  0.2619 -0.4777  0.1666
  122MOL0     H16461   8.496   0.601   0.495 -0.1511 -1.7653  3.1171
  122MOL0     H16462   8.606   0.840   0.399 -0.3076 -0.2447 -0.4430
  122MOL0     H16463   8.561   0.898   0.562 -1.2823  1.8071 -0.5014
  122MOL0     H16464   8.397   0.879   0.315 -3.8406  2.0265 -0.0695
  122MOL0     H16465   8.331   0.759   0.429  0.2998 -0.3259  2.3324
  122MOL0     H16466   8.204   1.107   0.595 -0.8850 -0.2379  0.6887
  122MOL0     H16467   8.831   0.886   0.327  2.3714  1.7301  0.1792
  122MOL0     H16468   9.015   1.024   0.231 -2.7010 -0.9378 -0.1799
  122MOL0     H16469   9.100   0.931   0.097 -0.0884 -0.2543  0.0857
  122MOL0     H16470   8.931   0.933   0.110 -1.0418 -2.3516  1.2889
  123MOL0     O16471   9.054   8.229  10.062  0.5634  0.0620 -0.8368
  123MOL0     C16472   9.093   8.275   9.954 -0.8386  0.6072  0.8777
  123MOL0     O16473   9.204   8.360   9.941  0.0501  0.0670 -0.1851
  123MOL0     C16474   9.312   8.336  10.023 -0.4429 -0.4011  0.7274
  123MOL0     C16475   9.407   8.442  10.041  0.2158  0.8117 -0.1577
  123MOL0     C16476   9.520   8.418  10.110 -0.4384  0.3865  1.0803
  123MOL0     C16477   9.562   8.296  10.163 -0.3243 -0.3434  0.4333
  123MOL0     O16478   9.694   8.296  10.230  0.3343 -0.3392  0.1388
  123MOL0     C16479   9.750   8.164  10.240  0.2692  0.1607  0.9792
  123MOL0     C16480   9.889   8.184  10.311  0.3174  0.5484 -0.1862
  123MOL0     C16481  10.013   8.175  10.219  0.0710  0.3629  1.2420
  123MOL0     C16482  10.128   8.251  10.285 -0.2673  0.2253 -0.7019
  123MOL0     C16483  10.253   8.233  10.202 -0.3658  0.5127  0.3926
  123MOL0     C16484  10.384   8.300  10.259  0.7524 -1.1463  1.0237
  123MOL0     C16485  10.479   8.333  10.145 -0.4265  1.0433 -0.6990
  123MOL0     C16486  10.616   8.390  10.209 -0.0841  0.2374 -0.4274
  123MOL0     N16487  10.725   8.401  10.109 -0.2316  0.3892 -0.8318
  123MOL0     C16488  10.749   8.509  10.026 -0.1412  0.1335 -0.2934
  123MOL0     C16489  10.843   8.468   9.941 -0.1234  0.5588 -0.1213
  123MOL0     C16490  10.897   8.533   9.811  0.5762  0.6322 -0.1273
  123MOL0     C16491  11.044   8.498   9.774  0.3682  0.2552  1.2767
  123MOL0     C16492  11.092   8.590   9.654  0.1530 -0.0204 -0.3279
  123MOL0     C16493  11.226   8.562   9.601  0.0800 -0.2862  0.4542
  123MOL0     O16494  11.326   8.583   9.704 -0.0077 -0.0468  0.1112
  123MOL0     C16495  11.457   8.620   9.683 -0.3242 -0.1609  0.0239
  123MOL0     C16496  11.515   8.656   9.560 -0.3920 -0.3521 -0.2411
  123MOL0     C16497  11.647   8.685   9.546 -0.6276 -0.5630 -0.6028
  123MOL0     C16498  11.734   8.703   9.656  0.5190 -0.2225  0.3312
  123MOL0     C16499  11.866   8.765   9.652  0.1610 -0.0319  0.3258
  123MOL0     O16500  11.912   8.780   9.528 -0.4968  0.4503  0.4525
  123MOL0     C16501  12.039   8.811   9.494 -0.0335  0.6871  0.3422
  123MOL0     C16502  12.148   8.789   9.574  0.3709 -0.8661 -0.4860
  123MOL0     C16503  12.279   8.819   9.526  0.2551 -0.1845 -0.0483
  123MOL0     C16504  12.294   8.879   9.407  0.3985  0.4019  0.1593
  123MOL0     O16505  12.400   8.947   9.354 -0.2529 -0.0683  0.2940
  123MOL0     C16506  12.482   9.015   9.445  0.3171 -0.0106 -0.1805
  123MOL0     C16507  12.541   9.145   9.394  0.1885 -0.6863 -0.1868
  123MOL0     C16508  12.606   9.233   9.503 -0.3847  0.2085 -0.1844
  123MOL0     C16509  12.740   9.291   9.455 -0.2247 -0.1354  1.4151
  123MOL0     C16510  12.808   9.335   9.576 -0.4845  0.2731 -0.5432
  123MOL0     C16511  12.933   9.414   9.523 -0.2031 -0.2158  0.4970
  123MOL0     C16512  13.055   9.382   9.604 -0.2772  1.4712 -0.6153
  123MOL0     C16513  13.166   9.318   9.513 -0.6420 -0.1205 -0.3367
  123MOL0    Cl16514  13.218   9.434   9.379 -0.0680  0.0890  0.0114
  123MOL0     C16515  12.188   8.895   9.323 -0.3023  0.1981 -0.3468
  123MOL0     C16516  12.056   8.863   9.368 -0.0091 -0.3408 -0.5626
  123MOL0     O16517  11.920   8.802   9.759 -0.1082  0.3621 -0.5636
  123MOL0     C16518  11.680   8.655   9.783 -0.7019 -0.0582  0.3487
  123MOL0     C16519  11.551   8.607   9.790 -0.1851 -0.7383  0.2637
  123MOL0     N16520  10.882   8.340   9.968  0.7308 -0.0176 -0.0281
  123MOL0     N16521  10.805   8.296  10.071  0.3445 -0.2227  0.2670
  123MOL0     C16522   9.475   8.193  10.144 -0.4498 -0.3309  0.7321
  123MOL0     C16523   9.351   8.206  10.069  0.5298 -0.6129  0.3622
  123MOL0     C16524   8.995   8.248   9.840 -0.5732 -0.3794  0.0719
  123MOL0     C16525   8.860   8.245   9.858 -0.7146  0.2792 -0.8624
  123MOL0     C16526   8.777   8.206   9.753 -0.1048  0.5632 -0.3574
  123MOL0     C16527   8.827   8.181   9.625 -0.4434 -0.0775 -0.7198
  123MOL0     O16528   8.740   8.140   9.524 -0.3191 -0.2280  0.4792
  123MOL0     C16529   8.765   8.187   9.387 -0.2904 -0.1656 -0.2390
  123MOL0     C16530   8.772   8.337   9.354  0.4300 -0.9913  0.7570
  123MOL0     C16531   8.632   8.401   9.389  0.7918  0.1153 -0.2813
  123MOL0     C16532   8.595   8.526   9.315  0.4387 -0.1484 -0.5456
  123MOL0     C16533   8.700   8.628   9.329 -0.4252 -0.5047  0.2216
  123MOL0     C16534   8.782   8.721   9.334 -0.1891 -0.7764  0.9279
  123MOL0     C16535   8.965   8.184   9.607 -0.1527 -0.1083 -0.0750
  123MOL0     C16536   9.052   8.225   9.712  0.3171  0.6100 -0.3513
  123MOL0     C16537   9.198   8.213   9.681 -0.3789  0.7034  0.2374
  123MOL0     H16538   9.377   8.542  10.010 -0.9436  0.4014 -0.4199
  123MOL0     H16539   9.587   8.501  10.130 -1.5507  1.9304 -1.1432
  123MOL0     H16540   9.692   8.097  10.304 -0.4604 -0.0570  0.1093
  123MOL0     H16541   9.760   8.117  10.142 -1.6470  0.0668  0.7844
  123MOL0     H16542   9.894   8.108  10.389 -1.3669  1.1595  0.5759
  123MOL0     H16543   9.885   8.283  10.358 -0.6711  0.9697 -1.0968
  123MOL0     H16544   9.985   8.229  10.128 -1.7558 -0.3570  1.3312
  123MOL0     H16545  10.038   8.071  10.201 -0.8275  0.6355 -2.2998
  123MOL0     H16546  10.101   8.356  10.293  0.1771  0.2590  0.6343
  123MOL0     H16547  10.143   8.210  10.386 -3.5601 -0.0921 -0.2399
  123MOL0     H16548  10.288   8.131  10.187 -1.5503  0.0659  0.5691
  123MOL0     H16549  10.224   8.273  10.104 -1.8547 -3.2237 -0.8326
  123MOL0     H16550  10.346   8.397  10.293 -0.1022 -1.2133  0.2948
  123MOL0     H16551  10.433   8.247  10.342  0.3342 -2.5278  0.4157
  123MOL0     H16552  10.432   8.409  10.083 -4.8557  0.2394  1.2749
  123MOL0     H16553  10.503   8.247  10.081 -0.8746  1.8773 -2.0145
  123MOL0     H16554  10.607   8.485  10.262  3.4434  1.2531 -1.3431
  123MOL0     H16555  10.638   8.317  10.287  0.7214  3.5465  2.6789
  123MOL0     H16556  10.691   8.600  10.015 -1.7829 -0.5273  2.1459
  123MOL0     H16557  10.826   8.510   9.731  0.8427 -2.5452  0.4030
  123MOL0     H16558  10.886   8.641   9.824  0.2002  0.4286  1.4088
  123MOL0     H16559  11.122   8.505   9.851  0.5973 -0.8704  1.1592
  123MOL0     H16560  11.046   8.395   9.737 -0.6754  1.3130 -2.0160
  123MOL0     H16561  11.092   8.692   9.694 -4.2150  0.0887 -0.0413
  123MOL0     H16562  11.024   8.586   9.568  1.5840  0.3182 -1.5022
  123MOL0     H16563  11.244   8.632   9.519 -1.6190  0.4941  0.7083
  123MOL0     H16564  11.235   8.458   9.569  1.7871 -0.4353  1.3339
  123MOL0     H16565  11.467   8.645   9.463 -0.2543  2.3808 -0.6916
  123MOL0     H16566  11.670   8.718   9.445  2.8297  0.2147  0.3040
  123MOL0     H16567  12.132   8.746   9.672 -0.7028  1.9327  0.6731
  123MOL0     H16568  12.360   8.806   9.598 -1.6368 -0.3526  2.1816
  123MOL0     H16569  12.409   9.043   9.521 -2.9639 -2.2703 -2.1938
  123MOL0     H16570  12.544   8.944   9.499 -1.0950  1.3583  3.6060
  123MOL0     H16571  12.620   9.124   9.321 -0.2805  1.7272 -1.4800
  123MOL0     H16572  12.457   9.195   9.346  2.1203  0.6150 -2.3914
  123MOL0     H16573  12.537   9.313   9.532  0.0482  1.4501 -2.3955
  123MOL0     H16574  12.627   9.172   9.592  1.8692  0.5655 -0.4103
  123MOL0     H16575  12.717   9.374   9.388 -1.4363 -0.7874  0.9919
  123MOL0     H16576  12.800   9.215   9.405  0.1539 -0.6314  2.5820
  123MOL0     H16577  12.845   9.254   9.640 -0.5910  1.5902  1.2665
  123MOL0     H16578  12.736   9.397   9.631 -1.6223 -1.2294 -0.2908
  123MOL0     H16579  12.951   9.391   9.418  0.7208 -2.1592  1.0384
  123MOL0     H16580  12.925   9.523   9.527 -0.5193 -0.2357  0.4771
  123MOL0     H16581  13.032   9.314   9.686  1.0021  0.1731 -1.2826
  123MOL0     H16582  13.099   9.477   9.637  0.8258  0.7757 -0.0045
  123MOL0     H16583  13.245   9.280   9.578  0.0593 -0.4015 -1.3313
  123MOL0     H16584  13.114   9.235   9.466  0.2181  0.2599 -2.0602
  123MOL0     H16585  12.203   8.951   9.232  0.1332 -0.1707 -0.5045
  123MOL0     H16586  11.975   8.866   9.296  0.4316 -0.2505 -1.0614
  123MOL0     H16587  11.731   8.651   9.879 -1.3298  0.7962  0.7319
  123MOL0     H16588  11.507   8.565   9.880 -0.5014 -0.2583  0.3348
  123MOL0     H16589   9.503   8.093  10.176 -0.9212 -1.4215 -1.9145
  123MOL0     H16590   9.294   8.114  10.064 -0.7031 -0.0490  2.7036
  123MOL0     H16591   8.833   8.275   9.959  1.7703  1.2525 -0.4169
  123MOL0     H16592   8.671   8.193   9.771 -0.3832  0.8015 -1.6896
  123MOL0     H16593   8.685   8.149   9.323 -3.6176  2.7508  1.8642
  123MOL0     H16594   8.858   8.145   9.348  1.8538  1.2400  2.9621
  123MOL0     H16595   8.780   8.349   9.245  1.1797 -0.4452  0.8613
  123MOL0     H16596   8.850   8.395   9.404 -1.3257  0.5763  1.8123
  123MOL0     H16597   8.620   8.413   9.497  0.2785  0.6801 -0.3946
  123MOL0     H16598   8.565   8.319   9.361  1.2412  0.0547 -1.2003
  123MOL0     H16599   8.581   8.500   9.209 -1.9610 -2.3317  0.1807
  123MOL0     H16600   8.507   8.574   9.358  1.4767  0.6988  0.6966
  123MOL0     H16601   8.858   8.795   9.318 -1.6518  0.0239 -4.8842
  123MOL0     H16602   9.008   8.162   9.510  0.3887 -4.2432  0.9100
  123MOL0     H16603   9.262   8.292   9.722  1.9053 -0.9718  0.1130
  123MOL0     H16604   9.234   8.116   9.717  0.0105  0.5629 -0.5104
  123MOL0     H16605   9.215   8.215   9.573  2.4443 -0.3443  0.5564
  124MOL0     O16606   4.605   0.102   4.868  0.8445 -0.1574 -0.6005
  124MOL0     C16607   4.601   0.211   4.815  0.4480 -0.3608 -0.7833
  124MOL0     O16608   4.712   0.264   4.748 -0.5800 -0.0824  0.1138
  124MOL0     C16609   4.840   0.226   4.787  0.0006 -0.0135 -0.7526
  124MOL0     C16610   4.940   0.214   4.694  0.1937  0.0629 -0.5217
  124MOL0     C16611   5.064   0.166   4.738 -0.6735 -0.0842  0.4934
  124MOL0     C16612   5.095   0.137   4.873  0.7327  0.7196  0.0470
  124MOL0     O16613   5.206   0.064   4.901 -0.4713  0.4129 -0.2944
  124MOL0     C16614   5.321   0.145   4.906  0.1745  0.0940 -0.0523
  124MOL0     C16615   5.433   0.090   4.993  0.2514  0.3396 -0.5379
  124MOL0     C16616   5.416   0.115   5.142  0.5211 -0.5437 -0.1477
  124MOL0     C16617   5.545   0.083   5.223 -0.1977  0.4895 -0.5522
  124MOL0     C16618   5.571  -0.069   5.240 -0.3646 -0.5938 -0.0864
  124MOL0     C16619   5.722  -0.110   5.254  0.3970  0.3060 -1.1487
  124MOL0     C16620   5.742  -0.259   5.286 -0.4875  0.3117  0.9959
  124MOL0     C16621   5.883  -0.286   5.345 -0.0324  0.4275 -0.7210
  124MOL0     N16622   5.905  -0.234   5.480 -0.2320 -0.2271  0.4990
  124MOL0     C16623   5.962  -0.113   5.505 -0.0685 -0.7616  0.4238
  124MOL0     C16624   6.003  -0.121   5.632 -0.1135 -0.2132  0.4241
  124MOL0     C16625   6.075  -0.008   5.703  0.0233 -0.1744  0.3295
  124MOL0     C16626   6.206  -0.045   5.764  0.3445 -0.7167  0.0181
  124MOL0     C16627   6.326  -0.043   5.667 -0.8232 -0.3652 -0.4785
  124MOL0     C16628   6.436  -0.111   5.749  0.6935  0.0553 -0.0469
  124MOL0     O16629   6.569  -0.074   5.698 -1.2268  0.1178 -0.2441
  124MOL0     C16630   6.673  -0.104   5.788 -0.2117 -0.1880  0.0813
  124MOL0     C16631   6.655  -0.159   5.914 -0.2223 -0.3343 -0.0075
  124MOL0     C16632   6.767  -0.181   5.993 -0.7051  0.0399  0.8300
  124MOL0     C16633   6.897  -0.154   5.949 -0.6337 -0.1212 -0.5134
  124MOL0     C16634   7.010  -0.180   6.038  0.2924 -0.0749  0.4960
  124MOL0     O16635   6.982  -0.207   6.171  0.5125 -0.3471  0.2882
  124MOL0     C16636   7.080  -0.237   6.258  0.5948  1.1075  0.4615
  124MOL0     C16637   7.087  -0.157   6.380  0.4907  0.2307  0.8798
  124MOL0     C16638   7.198  -0.162   6.466  0.9432  0.1343  0.3772
  124MOL0     C16639   7.301  -0.247   6.439 -0.1134 -0.2117 -0.1561
  124MOL0     O16640   7.405  -0.241   6.523 -0.0032  0.4130 -0.1323
  124MOL0     C16641   7.533  -0.243   6.460 -0.1857 -1.4806  0.3810
  124MOL0     C16642   7.645  -0.201   6.548 -0.1134 -0.3456 -0.3524
  124MOL0     C16643   7.776  -0.191   6.465 -0.0259 -0.4939 -0.5740
  124MOL0     C16644   7.876  -0.124   6.561  0.5470  0.9419  0.0203
  124MOL0     C16645   8.020  -0.117   6.510  0.8957 -0.3605 -0.5904
  124MOL0     C16646   8.132  -0.116   6.612 -0.5452  0.2801 -0.2618
  124MOL0     C16647   8.272  -0.105   6.559  0.3271 -0.3256  0.3930
  124MOL0     C16648   8.375  -0.060   6.661 -0.0413  0.4606  0.8228
  124MOL0    Cl16649   8.383  -0.214   6.754  0.0308 -0.0756 -0.3720
  124MOL0     C16650   7.293  -0.328   6.324 -0.3247 -0.1518  0.0893
  124MOL0     C16651   7.187  -0.324   6.234 -0.3995 -0.7308 -0.1762
  124MOL0     O16652   7.119  -0.175   5.986  0.2643  0.0625 -0.3961
  124MOL0     C16653   6.910  -0.085   5.832  0.2321 -0.2763  0.2015
  124MOL0     C16654   6.803  -0.065   5.746  0.9149  0.0736 -0.3130
  124MOL0     N16655   5.970  -0.241   5.686  0.7842 -0.1616 -0.0014
  124MOL0     N16656   5.912  -0.307   5.589 -0.5816  0.0564 -0.2358
  124MOL0     C16657   4.992   0.160   4.968  0.5884 -0.6521  0.1495
  124MOL0     C16658   4.864   0.195   4.925  0.0808  0.3064  0.2678
  124MOL0     C16659   4.465   0.276   4.804 -0.3300 -0.0088 -0.9441
  124MOL0     C16660   4.363   0.202   4.864  0.8190  0.0180  0.6262
  124MOL0     C16661   4.233   0.249   4.861 -0.0125 -0.1665  0.1727
  124MOL0     C16662   4.202   0.370   4.788 -0.4828  0.4406 -0.0880
  124MOL0     O16663   4.072   0.398   4.777  0.7009  0.2191  0.4751
  124MOL0     C16664   4.032   0.536   4.769  0.8263  0.2377  0.0333
  124MOL0     C16665   3.879   0.523   4.740  0.3651 -0.5672 -0.2014
  124MOL0     C16666   3.802   0.650   4.760 -0.0098 -0.5837  0.4285
  124MOL0     C16667   3.643   0.632   4.746 -0.6904 -0.5875  0.0146
  124MOL0     C16668   3.566   0.720   4.836  0.0260 -0.3021  0.3825
  124MOL0     C16669   3.484   0.787   4.895  0.7693 -0.3675 -0.7196
  124MOL0     C16670   4.305   0.443   4.730  0.2097  0.0911 -0.2377
  124MOL0     C16671   4.440   0.399   4.739  0.2142  0.1219 -0.4883
  124MOL0     C16672   4.534   0.477   4.656  0.2928  0.0469  1.4730
  124MOL0     H16673   4.919   0.220   4.588 -0.5036 -2.9202 -0.6479
  124MOL0     H16674   5.132   0.144   4.657 -0.8177 -0.3319  0.4368
  124MOL0     H16675   5.356   0.139   4.802 -3.3265  0.6251 -1.3675
  124MOL0     H16676   5.286   0.241   4.945 -1.7450 -1.5630  2.6349
  124MOL0     H16677   5.527   0.139   4.967  2.2248 -3.2804 -0.7367
  124MOL0     H16678   5.447  -0.017   4.977  1.5109  0.6019 -1.2244
  124MOL0     H16679   5.334   0.057   5.185  1.9933 -1.8329  1.0260
  124MOL0     H16680   5.385   0.219   5.154 -0.9300 -0.8374 -1.0556
  124MOL0     H16681   5.628   0.133   5.172  0.6101  0.7695  1.0099
  124MOL0     H16682   5.523   0.119   5.323  2.0887 -1.4838  0.7663
  124MOL0     H16683   5.531  -0.108   5.334 -0.6376  3.1072  1.5004
  124MOL0     H16684   5.531  -0.133   5.161 -1.0463 -1.3049  0.8081
  124MOL0     H16685   5.776  -0.098   5.160  0.4775 -0.4289 -1.2032
  124MOL0     H16686   5.760  -0.046   5.334 -1.8519  0.4630 -0.1099
  124MOL0     H16687   5.725  -0.316   5.195 -3.2360 -0.8729  2.1265
  124MOL0     H16688   5.662  -0.296   5.351  0.3432 -2.2266  0.6532
  124MOL0     H16689   5.906  -0.393   5.352  3.5335  1.1327  0.6370
  124MOL0     H16690   5.953  -0.233   5.280 -0.5517  1.2129 -0.6533
  124MOL0     H16691   5.961  -0.028   5.438  0.9201 -1.0811 -0.0259
  124MOL0     H16692   6.090   0.069   5.627 -0.1240  0.2945  0.7665
  124MOL0     H16693   6.023   0.037   5.788  3.4333  3.6440  0.7748
  124MOL0     H16694   6.215   0.030   5.842 -0.7021  0.4377 -0.9330
  124MOL0     H16695   6.205  -0.145   5.808  0.8678 -0.9764 -0.5360
  124MOL0     H16696   6.345   0.059   5.634  0.6385 -1.0514 -1.8946
  124MOL0     H16697   6.310  -0.103   5.577 -0.5257  0.8231 -1.3440
  124MOL0     H16698   6.422  -0.219   5.756 -0.8915  0.2756  0.6493
  124MOL0     H16699   6.431  -0.068   5.850 -0.8011  1.7232 -0.7771
  124MOL0     H16700   6.563  -0.214   5.936  0.4322 -2.4836 -2.1859
  124MOL0     H16701   6.746  -0.226   6.090  0.0847 -3.0517 -0.3277
  124MOL0     H16702   7.005  -0.088   6.399 -0.5084  0.1214 -2.4367
  124MOL0     H16703   7.197  -0.096   6.553 -1.7945 -0.8052  1.1795
  124MOL0     H16704   7.551  -0.345   6.424 -0.4118 -1.5410  0.4349
  124MOL0     H16705   7.534  -0.187   6.366 -2.1674  0.5609  1.4922
  124MOL0     H16706   7.645  -0.102   6.594  1.6584 -0.0327 -0.9403
  124MOL0     H16707   7.645  -0.271   6.632  1.1441  1.1895  0.9746
  124MOL0     H16708   7.806  -0.296   6.462  0.5428 -0.8270  5.1651
  124MOL0     H16709   7.767  -0.132   6.373  2.7276 -3.2608 -2.8137
  124MOL0     H16710   7.878  -0.186   6.652 -3.9105 -1.8858 -1.4510
  124MOL0     H16711   7.846  -0.025   6.595 -2.2482 -0.2811  1.4857
  124MOL0     H16712   8.023  -0.026   6.449 -3.0526  1.0451  0.9882
  124MOL0     H16713   8.036  -0.203   6.445 -1.4460  0.5980 -2.5828
  124MOL0     H16714   8.125  -0.029   6.677 -0.0111 -0.4947  0.8720
  124MOL0     H16715   8.120  -0.207   6.672 -3.2592  0.7883  0.0589
  124MOL0     H16716   8.275  -0.029   6.481 -0.5374 -1.9162 -1.2853
  124MOL0     H16717   8.301  -0.203   6.519  0.4045 -0.4884  0.8455
  124MOL0     H16718   8.470  -0.032   6.615 -0.8069 -1.4737 -2.2471
  124MOL0     H16719   8.337   0.021   6.723  1.0433  0.9673  0.8518
  124MOL0     H16720   7.368  -0.406   6.310 -0.5971 -0.0321 -2.8088
  124MOL0     H16721   7.195  -0.392   6.150 -2.0116 -1.3296  0.1220
  124MOL0     H16722   7.002  -0.046   5.788  0.2149 -0.7519 -0.2575
  124MOL0     H16723   6.810  -0.019   5.648 -0.7492 -0.6156 -0.7838
  124MOL0     H16724   4.999   0.142   5.075 -1.6034  1.3415  0.6917
  124MOL0     H16725   4.783   0.207   4.997 -0.6567  0.1874 -0.5200
  124MOL0     H16726   4.381   0.109   4.917  2.2227 -0.5851 -0.8162
  124MOL0     H16727   4.152   0.204   4.919  0.5651  2.2466  3.1129
  124MOL0     H16728   4.084   0.606   4.704  0.5503 -0.8568 -1.4045
  124MOL0     H16729   4.039   0.586   4.866 -3.7982  1.4299 -0.0030
  124MOL0     H16730   3.851   0.446   4.813  1.8555  0.3808  1.4612
  124MOL0     H16731   3.855   0.472   4.646  1.5777 -1.3277 -0.1209
  124MOL0     H16732   3.838   0.727   4.691 -2.7793 -0.6993 -1.3078
  124MOL0     H16733   3.836   0.691   4.856 -0.2907 -1.4499  0.9053
  124MOL0     H16734   3.607   0.652   4.644  1.2662  0.6928 -0.4908
  124MOL0     H16735   3.622   0.530   4.776 -2.1936  0.2720  2.1019
  124MOL0     H16736   3.390   0.828   4.925 -0.7207 -1.1128 -3.9054
  124MOL0     H16737   4.290   0.535   4.675  3.4326  0.6937 -0.3075
  124MOL0     H16738   4.485   0.565   4.614  0.8750 -1.2573 -2.4439
  124MOL0     H16739   4.615   0.502   4.724 -0.6131  1.2869  2.1329
  124MOL0     H16740   4.572   0.420   4.570  0.4591 -0.5951  1.9594
  125MOL0     O16741   2.902   6.267   1.173  0.3194  0.3487  0.3176
  125MOL0     C16742   2.970   6.290   1.075  1.3793 -1.1081 -0.1415
  125MOL0     O16743   3.106   6.268   1.068  0.5032 -0.1490  0.8514
  125MOL0     C16744   3.165   6.197   1.163 -0.1288 -0.0937 -0.1164
  125MOL0     C16745   3.117   6.154   1.291 -0.3386 -0.2508 -0.1514
  125MOL0     C16746   3.199   6.089   1.377  0.1523 -0.3191 -0.2674
  125MOL0     C16747   3.335   6.061   1.350  0.2005 -0.7123 -0.2662
  125MOL0     O16748   3.401   5.993   1.453  0.1011 -0.1755 -0.1859
  125MOL0     C16749   3.535   6.013   1.464 -1.5705  0.2698  0.0017
  125MOL0     C16750   3.600   5.914   1.559 -0.2989 -0.0060  0.7927
  125MOL0     C16751   3.564   5.943   1.702  0.3908 -0.2694 -0.3525
  125MOL0     C16752   3.631   6.072   1.765 -0.2463 -0.8491  1.1060
  125MOL0     C16753   3.619   6.068   1.912  0.7100 -0.7841  0.1523
  125MOL0     C16754   3.700   6.166   1.991  0.2117  0.9003  0.7564
  125MOL0     C16755   3.636   6.308   1.998 -0.7464 -0.0422  0.6195
  125MOL0     C16756   3.692   6.395   2.118  0.5679  0.0089  0.6089
  125MOL0     N16757   3.666   6.338   2.250  0.3176  0.5280  0.2597
  125MOL0     C16758   3.542   6.334   2.313 -0.6489  0.5056  0.7834
  125MOL0     C16759   3.578   6.312   2.441  0.4437  0.6601 -0.7432
  125MOL0     C16760   3.490   6.304   2.566 -0.9046  1.0304  0.7024
  125MOL0     C16761   3.476   6.448   2.608  0.0756  0.1413 -0.0400
  125MOL0     C16762   3.605   6.499   2.681 -0.2618  0.6009 -0.2365
  125MOL0     C16763   3.656   6.421   2.802  0.6529  0.7565  0.0377
  125MOL0     O16764   3.748   6.504   2.875  0.2804 -0.6165  0.1566
  125MOL0     C16765   3.805   6.447   2.985  0.4767 -0.0124 -0.2326
  125MOL0     C16766   3.901   6.522   3.057 -0.1186 -0.1224  0.5293
  125MOL0     C16767   3.975   6.475   3.161 -0.1580  0.5138  0.3828
  125MOL0     C16768   3.962   6.336   3.206 -0.7723  0.9209  0.0753
  125MOL0     C16769   4.054   6.283   3.314 -0.4743  0.4452 -0.5293
  125MOL0     O16770   4.135   6.377   3.379 -0.7368 -0.2700 -0.0105
  125MOL0     C16771   4.213   6.344   3.488  1.2217 -0.0674  0.4983
  125MOL0     C16772   4.341   6.388   3.496 -0.4169  0.2643 -0.1605
  125MOL0     C16773   4.426   6.349   3.607  1.0330 -0.4630  0.5638
  125MOL0     C16774   4.368   6.272   3.709 -0.7358  0.4912  0.1930
  125MOL0     O16775   4.442   6.225   3.818  0.3325  0.8420 -0.1911
  125MOL0     C16776   4.578   6.197   3.786 -0.4226 -0.4425 -0.2430
  125MOL0     C16777   4.621   6.097   3.895  0.4714  0.1274  0.1799
  125MOL0     C16778   4.764   6.058   3.896 -0.2935 -0.2357 -0.1125
  125MOL0     C16779   4.797   5.972   4.018 -0.7184 -0.0545  0.1796
  125MOL0     C16780   4.955   5.953   4.024 -0.0981  1.3760 -0.0246
  125MOL0     C16781   4.999   5.844   4.126 -0.2275  0.0641 -0.5454
  125MOL0     C16782   4.963   5.882   4.273  0.7247 -0.1605 -0.7737
  125MOL0     C16783   4.824   5.829   4.329 -0.6699  0.1238  0.4675
  125MOL0    Cl16784   4.769   5.681   4.249  0.0175 -0.1066 -0.2227
  125MOL0     C16785   4.237   6.241   3.709  0.0311 -0.9079  0.4925
  125MOL0     C16786   4.153   6.276   3.596  0.3543  0.6406  0.5414
  125MOL0     O16787   4.044   6.168   3.352  0.4392 -0.5807  0.3269
  125MOL0     C16788   3.874   6.256   3.129  0.0254 -0.2074  0.8775
  125MOL0     C16789   3.801   6.312   3.025 -1.1250 -0.4615 -0.1840
  125MOL0     N16790   3.712   6.301   2.439 -1.0537 -0.8788 -0.7892
  125MOL0     N16791   3.769   6.303   2.324 -0.6573 -0.1675  0.7304
  125MOL0     C16792   3.387   6.102   1.227  0.1343 -0.3137 -0.0383
  125MOL0     C16793   3.298   6.155   1.131 -0.4348  0.4765  0.3485
  125MOL0     C16794   2.893   6.331   0.959  0.6507  0.6076 -1.4968
  125MOL0     C16795   2.936   6.442   0.894  0.5524 -0.4772  0.2154
  125MOL0     C16796   2.860   6.501   0.792  0.1638 -0.2165 -0.2989
  125MOL0     C16797   2.739   6.444   0.750  0.2253  0.8036 -0.1149
  125MOL0     O16798   2.657   6.484   0.650  0.8854 -0.2513  0.2984
  125MOL0     C16799   2.693   6.613   0.591  0.0221 -0.2299  0.3222
  125MOL0     C16800   2.586   6.668   0.496  0.3726  0.5082  0.7769
  125MOL0     C16801   2.552   6.557   0.386 -0.0985  0.2224  0.7686
  125MOL0     C16802   2.661   6.493   0.304 -0.6490  0.1324  0.0049
  125MOL0     C16803   2.758   6.587   0.251 -0.1699 -0.0852  0.5496
  125MOL0     C16804   2.818   6.683   0.212 -0.0515  0.5845  0.7596
  125MOL0     C16805   2.708   6.319   0.800 -0.1051 -0.4600  0.0471
  125MOL0     C16806   2.778   6.263   0.907 -1.0586  0.0813  0.3593
  125MOL0     C16807   2.743   6.133   0.960 -0.2687  0.5257 -0.2366
  125MOL0     H16808   3.017   6.163   1.333 -0.4129 -0.9504 -0.1778
  125MOL0     H16809   3.149   6.046   1.464 -1.1356  0.0419 -0.7953
  125MOL0     H16810   3.580   5.981   1.370 -0.7039 -0.7248  0.7403
  125MOL0     H16811   3.559   6.117   1.487 -0.9467  0.2987 -0.7289
  125MOL0     H16812   3.709   5.918   1.552 -0.3197  1.0091  0.9512
  125MOL0     H16813   3.566   5.812   1.538  2.7885 -1.5724  2.6666
  125MOL0     H16814   3.579   5.865   1.777 -0.8357  0.3045  0.5327
  125MOL0     H16815   3.455   5.951   1.711  0.4545  2.4134 -0.9883
  125MOL0     H16816   3.733   6.071   1.726 -1.9392 -0.7981 -4.0124
  125MOL0     H16817   3.589   6.164   1.724  2.5635 -0.0304 -0.1400
  125MOL0     H16818   3.515   6.056   1.944  0.3964 -0.7566 -0.8529
  125MOL0     H16819   3.659   5.969   1.938 -0.9798 -1.6173 -0.2851
  125MOL0     H16820   3.717   6.128   2.092 -4.4673 -1.2988  0.9768
  125MOL0     H16821   3.797   6.168   1.942  0.4680 -0.3653  1.1869
  125MOL0     H16822   3.527   6.298   2.001 -0.8497  0.7504  0.0884
  125MOL0     H16823   3.651   6.355   1.900  0.7354 -2.0640 -0.2010
  125MOL0     H16824   3.800   6.412   2.116  0.4025  1.0994 -0.9092
  125MOL0     H16825   3.655   6.498   2.115 -0.6675 -0.3169  2.5036
  125MOL0     H16826   3.446   6.343   2.263 -0.1382  0.2165 -0.2877
  125MOL0     H16827   3.397   6.254   2.538 -1.1849 -0.7300  4.1871
  125MOL0     H16828   3.542   6.241   2.640 -0.7780  0.0148 -0.2259
  125MOL0     H16829   3.473   6.514   2.521  1.5171  0.5117  0.1728
  125MOL0     H16830   3.386   6.455   2.669  0.0839  2.1918 -0.1955
  125MOL0     H16831   3.583   6.602   2.713 -0.2467  0.1877  1.1644
  125MOL0     H16832   3.690   6.492   2.612 -1.8272 -1.9738 -2.0509
  125MOL0     H16833   3.709   6.332   2.768 -1.8321 -1.4533  1.4970
  125MOL0     H16834   3.570   6.390   2.863  0.3119  0.5459 -0.5378
  125MOL0     H16835   3.900   6.629   3.040  1.7176  0.3008  2.6642
  125MOL0     H16836   4.055   6.531   3.208  1.6215 -0.3784 -1.4260
  125MOL0     H16837   4.363   6.456   3.414 -1.4298 -0.6772 -1.2575
  125MOL0     H16838   4.528   6.387   3.604  1.0025 -0.4298 -0.2099
  125MOL0     H16839   4.589   6.153   3.686  1.1325  0.9764 -0.7506
  125MOL0     H16840   4.648   6.281   3.791 -0.0720 -0.7568  0.1627
  125MOL0     H16841   4.603   6.137   3.995 -4.2346 -1.4971  0.2661
  125MOL0     H16842   4.552   6.012   3.888 -0.2743  0.5738  1.6200
  125MOL0     H16843   4.792   6.002   3.806  4.2548  1.3250  0.0815
  125MOL0     H16844   4.816   6.154   3.895 -0.3699 -0.1807  0.7821
  125MOL0     H16845   4.753   5.872   4.014 -1.0664  0.1408 -1.3601
  125MOL0     H16846   4.767   6.020   4.112 -1.0181 -2.4963  1.4091
  125MOL0     H16847   5.002   6.049   4.046 -0.3185  2.0134 -2.0569
  125MOL0     H16848   4.992   5.913   3.929 -0.9389  1.7291 -0.5167
  125MOL0     H16849   4.946   5.750   4.112  1.1565 -0.9614  0.6911
  125MOL0     H16850   5.107   5.828   4.117  0.0736  1.7526 -0.2234
  125MOL0     H16851   4.962   5.990   4.289 -3.6520 -0.2083  0.5581
  125MOL0     H16852   5.043   5.837   4.332 -0.0801 -1.2677 -0.5076
  125MOL0     H16853   4.834   5.796   4.433 -0.3751 -3.1095 -0.4962
  125MOL0     H16854   4.747   5.906   4.318  0.8734  1.4967 -1.4229
  125MOL0     H16855   4.193   6.202   3.800 -1.5407 -1.5205 -0.4838
  125MOL0     H16856   4.048   6.251   3.605  0.8834 -1.7241  0.7947
  125MOL0     H16857   3.871   6.150   3.153 -1.2818  0.2064  2.8660
  125MOL0     H16858   3.755   6.235   2.965 -0.7922 -0.3914 -0.5305
  125MOL0     H16859   3.492   6.085   1.202  0.1170  1.1030 -1.2140
  125MOL0     H16860   3.336   6.183   1.033  2.1778  0.1748  1.1769
  125MOL0     H16861   3.025   6.494   0.927  1.4017 -0.0291 -2.5104
  125MOL0     H16862   2.905   6.591   0.751 -0.8495  1.2748  1.6691
  125MOL0     H16863   2.782   6.599   0.529 -0.5426 -0.6681 -0.4213
  125MOL0     H16864   2.698   6.690   0.668  1.3013  0.9280 -0.8513
  125MOL0     H16865   2.608   6.758   0.439 -0.1519  0.2558  0.1582
  125MOL0     H16866   2.493   6.687   0.552 -0.8893 -0.3000 -0.9477
  125MOL0     H16867   2.492   6.612   0.313 -2.2229 -1.5434  1.0798
  125MOL0     H16868   2.491   6.481   0.436 -0.3984 -0.0943 -0.0674
  125MOL0     H16869   2.703   6.415   0.369 -3.1850 -1.5161 -0.1973
  125MOL0     H16870   2.615   6.434   0.224 -0.4459  1.0189 -0.7818
  125MOL0     H16871   2.864   6.774   0.178 -2.1094  1.5584  0.4028
  125MOL0     H16872   2.625   6.257   0.767 -1.8604  0.2252  2.7810
  125MOL0     H16873   2.704   6.135   1.063 -0.3767 -0.4014 -0.2456
  125MOL0     H16874   2.669   6.080   0.899  0.0084 -3.4143  2.4414
  125MOL0     H16875   2.834   6.072   0.961 -0.2590  0.5143  1.1499
  126MOL0     O16876   2.159   3.585   4.516  0.4140  0.7435  0.3260
  126MOL0     C16877   2.159   3.675   4.429  0.9364  0.1636  0.6861
  126MOL0     O16878   2.261   3.748   4.384  0.5931  0.4477  0.2824
  126MOL0     C16879   2.385   3.741   4.430  0.6862 -0.3590 -0.7065
  126MOL0     C16880   2.457   3.862   4.445 -0.4554 -0.5798 -0.8470
  126MOL0     C16881   2.593   3.869   4.488 -0.1460  0.7061  1.3019
  126MOL0     C16882   2.663   3.750   4.513  0.3271  0.7804 -0.6594
  126MOL0     O16883   2.793   3.753   4.563 -0.0255  0.2608 -0.2687
  126MOL0     C16884   2.884   3.852   4.541 -0.8900  0.5598  0.2941
  126MOL0     C16885   3.018   3.789   4.575 -0.4161  0.0109 -0.0927
  126MOL0     C16886   3.128   3.890   4.568 -0.9396  0.4292  0.4667
  126MOL0     C16887   3.264   3.824   4.564 -0.8579  0.4691  0.8138
  126MOL0     C16888   3.375   3.926   4.580 -1.1632  0.0603  0.6667
  126MOL0     C16889   3.511   3.859   4.561  0.5152  0.3057 -0.3446
  126MOL0     C16890   3.556   3.787   4.683  0.4460  0.1881  0.2150
  126MOL0     C16891   3.680   3.696   4.658  0.3386  0.4924 -0.0916
  126MOL0     N16892   3.803   3.773   4.642 -0.6946 -0.3636  1.0318
  126MOL0     C16893   3.885   3.803   4.745 -0.0525 -0.8990  0.5555
  126MOL0     C16894   3.992   3.848   4.686 -0.1158 -0.5392  0.9259
  126MOL0     C16895   4.112   3.916   4.749 -0.3050  0.1001 -0.9406
  126MOL0     C16896   4.237   3.845   4.694  0.3001 -0.1828  0.4724
  126MOL0     C16897   4.361   3.872   4.782  0.5767 -0.6981  0.0200
  126MOL0     C16898   4.490   3.805   4.739  0.5938  0.2880  0.4393
  126MOL0     O16899   4.560   3.754   4.852 -0.3625  0.7832  0.0947
  126MOL0     C16900   4.688   3.697   4.840 -0.1463 -0.7037  0.4935
  126MOL0     C16901   4.742   3.665   4.715 -0.6537  0.7774  0.1428
  126MOL0     C16902   4.870   3.608   4.703  0.0614 -0.2535  0.5789
  126MOL0     C16903   4.952   3.591   4.825  0.4001  0.3099  0.4441
  126MOL0     C16904   5.086   3.520   4.820  0.9087  0.0357 -0.0513
  126MOL0     O16905   5.104   3.436   4.924  0.1438 -0.1609  0.7268
  126MOL0     C16906   5.223   3.371   4.939  0.1157  0.5402 -0.3035
  126MOL0     C16907   5.331   3.433   5.008  0.3395 -0.3512  0.4809
  126MOL0     C16908   5.449   3.368   5.029 -0.0818  0.2296 -0.3635
  126MOL0     C16909   5.457   3.236   4.988  0.4818  0.2327  0.6582
  126MOL0     O16910   5.565   3.169   5.031 -0.1427  0.0417 -0.4355
  126MOL0     C16911   5.618   3.054   4.968 -0.3882  0.2781  0.4901
  126MOL0     C16912   5.765   3.041   4.996  0.1882 -0.5208  0.5347
  126MOL0     C16913   5.816   2.913   4.939  0.2508  0.3070 -0.2384
  126MOL0     C16914   5.967   2.881   4.971  0.0416  0.0018  0.0975
  126MOL0     C16915   6.009   2.742   4.924  0.3192  0.0591 -0.4398
  126MOL0     C16916   6.153   2.722   4.982 -0.6349 -0.3332  0.3394
  126MOL0     C16917   6.197   2.574   4.953 -0.3101  0.8705  0.9721
  126MOL0     C16918   6.243   2.552   4.815 -0.6248  0.5977 -0.4594
  126MOL0    Cl16919   6.407   2.614   4.787  0.0599  0.0071 -0.1884
  126MOL0     C16920   5.353   3.173   4.921  0.1846  0.1571  0.3903
  126MOL0     C16921   5.235   3.235   4.910 -0.1709  0.3198 -0.5240
  126MOL0     O16922   5.152   3.525   4.715  0.9670  0.5820  0.0500
  126MOL0     C16923   4.900   3.645   4.939 -0.1053 -0.0380  0.0270
  126MOL0     C16924   4.762   3.690   4.958 -0.6374  0.3074 -0.9291
  126MOL0     N16925   3.972   3.863   4.549 -0.9172  0.4027 -0.5220
  126MOL0     N16926   3.855   3.815   4.526 -0.6428 -0.1291  0.0884
  126MOL0     C16927   2.588   3.631   4.489  0.6787 -0.2337  0.1445
  126MOL0     C16928   2.456   3.628   4.438  0.8086  0.0261  0.7071
  126MOL0     C16929   2.020   3.706   4.383  0.4555 -0.3693  0.4161
  126MOL0     C16930   2.011   3.833   4.318  0.3780  1.1082 -0.0598
  126MOL0     C16931   1.883   3.876   4.284  0.2168  0.3595 -0.4237
  126MOL0     C16932   1.764   3.791   4.295 -0.5250  0.1852  0.2516
  126MOL0     O16933   1.634   3.827   4.253 -0.0352 -0.2108  0.1041
  126MOL0     C16934   1.619   3.918   4.146  0.1116  0.0531  0.0259
  126MOL0     C16935   1.476   3.931   4.088  0.4751 -0.6967 -0.1720
  126MOL0     C16936   1.437   3.809   4.012 -0.2543  1.0112  0.3839
  126MOL0     C16937   1.317   3.851   3.921 -0.6902 -0.0452 -1.0078
  126MOL0     C16938   1.208   3.761   3.917  0.8107  0.2894 -0.2187
  126MOL0     C16939   1.109   3.701   3.898  0.6370  0.3742  0.7812
  126MOL0     C16940   1.785   3.666   4.348  0.1932  0.5642 -0.2324
  126MOL0     C16941   1.911   3.619   4.388 -0.0070 -1.0256 -0.1860
  126MOL0     C16942   1.906   3.478   4.431 -0.6620 -0.2829  0.2501
  126MOL0     H16943   2.402   3.953   4.426 -0.4786 -0.3273  0.3416
  126MOL0     H16944   2.639   3.968   4.492 -0.2130  0.8362 -0.3812
  126MOL0     H16945   2.885   3.887   4.437 -3.7821 -1.5451 -0.5611
  126MOL0     H16946   2.861   3.927   4.618  0.0654 -1.5136  2.7379
  126MOL0     H16947   3.033   3.722   4.491 -1.1931 -0.2469 -0.0348
  126MOL0     H16948   3.017   3.748   4.677 -2.2566  1.1007  0.3734
  126MOL0     H16949   3.121   3.965   4.648 -2.4145  0.0268  0.7430
  126MOL0     H16950   3.113   3.952   4.478  0.9748 -1.8860 -1.5838
  126MOL0     H16951   3.263   3.747   4.642  3.5678  1.9779  2.6724
  126MOL0     H16952   3.268   3.770   4.469  0.2984  1.2021  0.4230
  126MOL0     H16953   3.359   4.000   4.502  0.7615 -1.5833 -1.4035
  126MOL0     H16954   3.366   3.982   4.674  2.6193  0.5397  0.8904
  126MOL0     H16955   3.513   3.786   4.479 -0.3962  1.4170 -1.3861
  126MOL0     H16956   3.582   3.937   4.535 -0.4889  1.0041 -1.0523
  126MOL0     H16957   3.478   3.716   4.711 -3.1058  2.7026 -2.3894
  126MOL0     H16958   3.582   3.861   4.759 -0.6076  0.0501  0.7239
  126MOL0     H16959   3.693   3.637   4.749 -0.3706 -0.5545 -0.6571
  126MOL0     H16960   3.660   3.630   4.574  0.6670 -3.3209  2.5386
  126MOL0     H16961   3.860   3.787   4.850 -1.1883 -1.0532  0.2769
  126MOL0     H16962   4.108   4.023   4.725 -0.7024  0.8817  2.1114
  126MOL0     H16963   4.104   3.905   4.858  0.2558 -2.2416 -1.0919
  126MOL0     H16964   4.210   3.739   4.690 -0.4842  0.0475 -2.5134
  126MOL0     H16965   4.269   3.875   4.594 -1.3248 -0.1936 -0.0685
  126MOL0     H16966   4.336   3.821   4.875 -2.0507  2.1757  1.0533
  126MOL0     H16967   4.377   3.978   4.802  1.2571 -0.4507 -1.6785
  126MOL0     H16968   4.550   3.883   4.692  0.8207  0.2415  0.6450
  126MOL0     H16969   4.465   3.724   4.670  2.8376  0.1915 -0.3374
  126MOL0     H16970   4.679   3.677   4.627  1.0095 -1.4554 -1.4948
  126MOL0     H16971   4.914   3.581   4.608  0.5660 -3.9402  1.6705
  126MOL0     H16972   5.335   3.539   5.031  0.7971 -0.9474  3.5779
  126MOL0     H16973   5.540   3.418   5.060  1.0817  0.5989 -3.9236
  126MOL0     H16974   5.582   2.961   5.013  1.6045 -0.5857  0.4231
  126MOL0     H16975   5.601   3.056   4.860  0.1797 -1.9336  0.3151
  126MOL0     H16976   5.821   3.124   4.951 -2.2620  0.2142 -1.3390
  126MOL0     H16977   5.778   3.039   5.105  0.2703 -1.7337  0.5113
  126MOL0     H16978   5.750   2.827   4.954 -1.8839  1.9527  0.4236
  126MOL0     H16979   5.822   2.927   4.831  2.2266  2.4644  0.0918
  126MOL0     H16980   5.974   2.874   5.080 -3.8580 -1.4611  0.4274
  126MOL0     H16981   6.037   2.955   4.933 -1.8897  1.1748 -1.4129
  126MOL0     H16982   6.005   2.742   4.815 -1.0668  0.5222 -0.4155
  126MOL0     H16983   5.946   2.671   4.977  0.2232  0.7167  0.3479
  126MOL0     H16984   6.218   2.803   4.947  0.3463 -1.7618 -1.3379
  126MOL0     H16985   6.149   2.738   5.090  2.5129  1.9518  0.2628
  126MOL0     H16986   6.111   2.511   4.978 -0.1030  1.3517  3.0497
  126MOL0     H16987   6.273   2.539   5.023 -0.9197 -0.8272  0.8181
  126MOL0     H16988   6.264   2.445   4.807  0.3624  0.9367 -4.5887
  126MOL0     H16989   6.171   2.576   4.737 -1.8487 -1.5276 -0.0674
  126MOL0     H16990   5.363   3.069   4.892 -1.7249 -0.3059  1.2497
  126MOL0     H16991   5.144   3.185   4.881  1.1910 -3.1262  0.7146
  126MOL0     H16992   4.960   3.640   5.029  0.7885  0.7966 -0.5044
  126MOL0     H16993   4.720   3.712   5.056 -1.1076 -0.6528 -0.8970
  126MOL0     H16994   2.650   3.542   4.501  2.0278  0.7386  0.5893
  126MOL0     H16995   2.410   3.530   4.426  2.6911 -0.6740 -1.5929
  126MOL0     H16996   2.092   3.901   4.293 -0.6912  2.0354 -1.1597
  126MOL0     H16997   1.881   3.975   4.241  1.0365  0.3930 -0.3968
  126MOL0     H16998   1.686   3.882   4.067 -0.1828  0.7468 -0.5404
  126MOL0     H16999   1.649   4.019   4.174  3.0225 -0.2126 -1.7133
  126MOL0     H17000   1.472   4.021   4.026  0.4992 -0.1268  0.6420
  126MOL0     H17001   1.407   3.947   4.171  1.0447  0.9146  0.0267
  126MOL0     H17002   1.394   3.732   4.077 -0.8891  2.7372  2.1039
  126MOL0     H17003   1.514   3.777   3.942  2.0762 -1.0722  3.6019
  126MOL0     H17004   1.281   3.951   3.946 -0.2581 -0.2487  0.4885
  126MOL0     H17005   1.357   3.852   3.819 -0.9675  2.3602 -1.1451
  126MOL0     H17006   1.018   3.644   3.890  0.6195 -0.2818  4.1177
  126MOL0     H17007   1.695   3.606   4.335 -0.1672  1.2672 -1.0844
  126MOL0     H17008   1.818   3.430   4.387  0.7252 -0.7540 -2.2281
  126MOL0     H17009   1.992   3.421   4.392 -0.0377 -0.6664  2.1089
  126MOL0     H17010   1.916   3.469   4.539  1.5902  2.2221  0.3539
  127MOL0     O17011   5.103   4.483   0.051  0.4395  0.0366  0.0160
  127MOL0     C17012   5.046   4.492  -0.063  0.0520  0.3812  0.2008
  127MOL0     O17013   5.103   4.505  -0.182 -0.3883  0.4987  0.3295
  127MOL0     C17014   5.239   4.486  -0.203  0.6562 -0.4179  0.9585
  127MOL0     C17015   5.303   4.377  -0.151  0.2961  0.5166  1.1251
  127MOL0     C17016   5.439   4.361  -0.169  0.1519  0.0394  0.6092
  127MOL0     C17017   5.505   4.453  -0.252 -0.0584  0.4055 -0.6328
  127MOL0     O17018   5.637   4.438  -0.293 -0.5030  0.2054  0.5932
  127MOL0     C17019   5.727   4.325  -0.256 -0.4848  0.3515  0.6322
  127MOL0     C17020   5.864   4.381  -0.252 -0.7196 -0.3387  0.1579
  127MOL0     C17021   5.975   4.295  -0.184 -0.6205 -0.1043 -0.6405
  127MOL0     C17022   6.116   4.358  -0.184  0.0075 -0.7721 -0.9134
  127MOL0     C17023   6.197   4.341  -0.320 -1.1462  0.8059 -0.0436
  127MOL0     C17024   6.335   4.408  -0.304 -1.1556  0.4243  0.4605
  127MOL0     C17025   6.421   4.391  -0.434  0.4179 -0.4840 -1.1552
  127MOL0     C17026   6.558   4.474  -0.424  0.3906  0.1265 -0.4434
  127MOL0     N17027   6.635   4.469  -0.307 -1.4858 -0.4980 -0.8049
  127MOL0     C17028   6.656   4.560  -0.205 -0.1371  0.3239 -0.5820
  127MOL0     C17029   6.747   4.499  -0.114  0.6642  0.8337 -0.6055
  127MOL0     C17030   6.796   4.557   0.024  0.9308 -0.4239  0.4331
  127MOL0     C17031   6.933   4.626   0.030  0.4263  0.0937  0.2849
  127MOL0     C17032   6.987   4.646   0.173 -0.1815 -0.0288 -0.0141
  127MOL0     C17033   7.131   4.696   0.170 -0.1991  0.4764 -0.2281
  127MOL0     O17034   7.219   4.621   0.092 -0.4346  0.2710  0.8792
  127MOL0     C17035   7.355   4.636   0.100 -0.5681 -1.5332 -0.0735
  127MOL0     C17036   7.418   4.743   0.170  1.5892  0.6074  0.3005
  127MOL0     C17037   7.557   4.751   0.178  0.5842  0.4591 -0.0799
  127MOL0     C17038   7.640   4.660   0.114  0.3467 -0.3316  0.4778
  127MOL0     C17039   7.787   4.659   0.113 -0.9405  0.3208  1.2873
  127MOL0     O17040   7.840   4.741   0.208  1.0591 -0.7919  0.2966
  127MOL0     C17041   7.973   4.778   0.215  0.7818  0.4781  0.6396
  127MOL0     C17042   8.001   4.848   0.331  0.0525 -0.2391 -0.7596
  127MOL0     C17043   8.129   4.873   0.367  0.5258  0.0766  0.7236
  127MOL0     C17044   8.228   4.850   0.275  0.1741 -1.0915 -0.3727
  127MOL0     O17045   8.352   4.879   0.323  0.3909  0.0325 -0.2451
  127MOL0     C17046   8.474   4.840   0.257  0.0369  0.7618  0.6445
  127MOL0     C17047   8.594   4.899   0.335 -0.0600 -0.8991 -0.3777
  127MOL0     C17048   8.731   4.870   0.276 -0.6550  0.4672 -0.3916
  127MOL0     C17049   8.837   4.889   0.375 -0.4199 -0.2140  0.0387
  127MOL0     C17050   8.978   4.878   0.311 -0.7724  0.1228 -0.4474
  127MOL0     C17051   9.093   4.891   0.407 -0.8832 -0.7211 -0.5416
  127MOL0     C17052   9.150   5.042   0.410 -0.4097 -0.8944  0.1536
  127MOL0     C17053   9.293   5.040   0.474  1.0019  0.5280 -0.1670
  127MOL0    Cl17054   9.386   5.150   0.378  0.0756 -0.3844  0.0669
  127MOL0     C17055   8.203   4.799   0.150  0.6935  0.9498 -0.1638
  127MOL0     C17056   8.071   4.762   0.118 -0.2296 -0.3299  0.4424
  127MOL0     O17057   7.852   4.586   0.030  0.0394 -1.1774 -0.1753
  127MOL0     C17058   7.578   4.564   0.042  0.5163  1.2398  0.1687
  127MOL0     C17059   7.439   4.547   0.035 -0.3125 -0.2688 -0.3718
  127MOL0     N17060   6.768   4.371  -0.166  0.2610 -0.0564 -0.2004
  127MOL0     N17061   6.704   4.354  -0.281 -0.0154  0.0689 -0.5698
  127MOL0     C17062   5.443   4.574  -0.284  1.2587  0.0874  0.3563
  127MOL0     C17063   5.306   4.585  -0.262 -0.5183 -0.4812  0.1360
  127MOL0     C17064   4.902   4.480  -0.065  0.2869 -0.4463  0.1792
  127MOL0     C17065   4.823   4.490  -0.184 -0.1780  0.0452  0.4736
  127MOL0     C17066   4.682   4.497  -0.188  0.4567 -0.3093  0.2019
  127MOL0     C17067   4.611   4.493  -0.069 -0.7942 -0.6295 -0.5093
  127MOL0     O17068   4.479   4.485  -0.054  0.0788 -0.2536  0.3814
  127MOL0     C17069   4.406   4.426  -0.164 -0.3364  0.2165  0.7107
  127MOL0     C17070   4.271   4.367  -0.115 -0.2637 -0.5957  0.2307
  127MOL0     C17071   4.168   4.481  -0.083 -0.2347  0.2261 -0.0506
  127MOL0     C17072   4.030   4.420  -0.044  0.5832 -0.6537  0.2352
  127MOL0     C17073   3.968   4.347  -0.156  0.1683 -0.5470  0.1378
  127MOL0     C17074   3.917   4.287  -0.256 -0.2271  0.6177  0.0111
  127MOL0     C17075   4.687   4.482   0.047  0.6511 -0.3444  0.2087
  127MOL0     C17076   4.826   4.480   0.056  0.0801  1.0575 -0.0032
  127MOL0     C17077   4.878   4.451   0.196 -0.2895 -0.9904 -0.2102
  127MOL0     H17078   5.253   4.299  -0.095  0.8317 -0.9350 -0.3332
  127MOL0     H17079   5.492   4.270  -0.140  0.6643 -0.8515 -2.7280
  127MOL0     H17080   5.707   4.294  -0.153 -0.6161  0.1091  0.5351
  127MOL0     H17081   5.731   4.239  -0.324 -3.8437  0.2869  0.3354
  127MOL0     H17082   5.866   4.481  -0.209 -1.5453  1.3270 -3.3410
  127MOL0     H17083   5.899   4.415  -0.350  3.1198 -0.6129  1.2470
  127MOL0     H17084   5.979   4.203  -0.244 -1.7151  0.2575 -1.3098
  127MOL0     H17085   5.943   4.267  -0.083 -3.3149 -0.0682 -1.3835
  127MOL0     H17086   6.104   4.464  -0.160 -0.8123 -1.2756  1.1418
  127MOL0     H17087   6.173   4.314  -0.102 -1.4306 -2.4505 -0.7324
  127MOL0     H17088   6.204   4.233  -0.334  0.5872  1.0534 -1.4189
  127MOL0     H17089   6.140   4.386  -0.401 -0.0016  0.2360 -1.2002
  127MOL0     H17090   6.333   4.512  -0.271 -0.9300 -0.5296  3.7979
  127MOL0     H17091   6.394   4.359  -0.227  0.6008 -0.6604 -1.4662
  127MOL0     H17092   6.366   4.437  -0.516 -2.7900  0.9147  1.5406
  127MOL0     H17093   6.416   4.284  -0.455 -0.8391 -1.3329  2.6036
  127MOL0     H17094   6.611   4.458  -0.519  0.8291 -1.0004 -0.0305
  127MOL0     H17095   6.526   4.578  -0.425 -0.4398 -0.0840  1.1151
  127MOL0     H17096   6.604   4.654  -0.193  1.3395  1.3972 -2.0235
  127MOL0     H17097   6.712   4.620   0.055 -0.9417 -2.8276  0.5361
  127MOL0     H17098   6.812   4.478   0.097  0.7891  1.2034  2.3078
  127MOL0     H17099   6.994   4.559  -0.030  1.7070  0.5673  1.0217
  127MOL0     H17100   6.915   4.726  -0.010  1.3763  1.0350  2.0731
  127MOL0     H17101   6.965   4.555   0.229 -1.5385  0.8535  0.9423
  127MOL0     H17102   6.934   4.726   0.225 -3.8741 -1.7379 -0.8427
  127MOL0     H17103   7.171   4.702   0.272  0.2993 -2.1092 -0.2166
  127MOL0     H17104   7.130   4.801   0.139 -1.1307  0.3294 -0.7138
  127MOL0     H17105   7.354   4.821   0.209 -0.6488  0.7978 -3.2933
  127MOL0     H17106   7.598   4.834   0.234 -2.0534  1.4602  0.4880
  127MOL0     H17107   7.923   4.873   0.401  0.8315  0.2377 -0.0392
  127MOL0     H17108   8.146   4.906   0.470  0.8809 -3.0238  1.7624
  127MOL0     H17109   8.483   4.731   0.245  0.6063  0.8378  0.3314
  127MOL0     H17110   8.461   4.872   0.153 -1.0373 -1.3688  0.0603
  127MOL0     H17111   8.576   5.006   0.351 -1.5132 -1.2735  0.7262
  127MOL0     H17112   8.573   4.857   0.434 -0.0395 -1.2206 -0.5102
  127MOL0     H17113   8.729   4.764   0.248  0.5270  0.5101 -0.6614
  127MOL0     H17114   8.750   4.932   0.188  0.6811  1.6418  0.6862
  127MOL0     H17115   8.818   4.815   0.453  1.1961 -1.7357 -0.9374
  127MOL0     H17116   8.834   4.994   0.408 -0.0024 -0.2641  0.2493
  127MOL0     H17117   8.986   4.956   0.235 -1.5444 -0.2096 -0.8866
  127MOL0     H17118   8.991   4.786   0.253  2.1621 -0.5263  1.0521
  127MOL0     H17119   9.062   4.875   0.511  1.7089  3.7173  1.2074
  127MOL0     H17120   9.174   4.822   0.381 -0.5177 -0.0292 -1.3091
  127MOL0     H17121   9.072   5.104   0.456 -1.0526 -0.4299 -1.4927
  127MOL0     H17122   9.166   5.080   0.309  0.8356  0.0308  0.6568
  127MOL0     H17123   9.283   5.072   0.578 -0.9098  0.9394 -0.4423
  127MOL0     H17124   9.335   4.939   0.468  0.5541  0.3528 -0.4998
  127MOL0     H17125   8.280   4.784   0.076  0.3944 -0.7433 -0.1744
  127MOL0     H17126   8.039   4.726   0.021  0.9086 -1.0647  0.3134
  127MOL0     H17127   7.647   4.497  -0.008  0.3097 -0.2333  1.7702
  127MOL0     H17128   7.401   4.470  -0.030  1.4746  0.2989 -2.1877
  127MOL0     H17129   5.501   4.657  -0.323  1.1488  0.0776  0.1716
  127MOL0     H17130   5.259   4.682  -0.274 -2.5070 -1.3856  0.2338
  127MOL0     H17131   4.878   4.493  -0.278 -2.2595  0.7682 -0.7784
  127MOL0     H17132   4.638   4.487  -0.286 -1.4603  0.7116  0.8998
  127MOL0     H17133   4.462   4.337  -0.195 -0.7144  0.0227  0.5733
  127MOL0     H17134   4.392   4.493  -0.249  1.0742 -0.8148 -0.4044
  127MOL0     H17135   4.286   4.309  -0.023  0.7680  0.0724  0.4974
  127MOL0     H17136   4.234   4.300  -0.194  0.1191 -1.4461  0.7508
  127MOL0     H17137   4.150   4.549  -0.167  0.0255  2.1122  1.3550
  127MOL0     H17138   4.220   4.540  -0.007 -0.8436  0.4203  0.2269
  127MOL0     H17139   4.030   4.368   0.052 -1.6142  2.7366  2.2618
  127MOL0     H17140   3.967   4.508  -0.029  2.6582  0.6685  1.6804
  127MOL0     H17141   3.877   4.244  -0.346 -0.9079  1.5591 -0.1496
  127MOL0     H17142   4.629   4.477   0.139 -1.3019 -2.2247 -1.0426
  127MOL0     H17143   4.949   4.525   0.233  1.8653 -2.5119 -1.0957
  127MOL0     H17144   4.805   4.432   0.276  1.8912 -2.2859  1.5812
  127MOL0     H17145   4.938   4.360   0.195 -0.4747 -1.1986  1.9168
  128MOL0     O17146   9.703  10.889   4.220  0.0062  1.4616  0.0992
  128MOL0     C17147   9.728  10.833   4.329  0.1459 -0.5540 -0.2465
  128MOL0     O17148   9.650  10.843   4.442  0.7711  0.7626  0.2901
  128MOL0     C17149   9.548  10.938   4.452  0.0711 -0.3746  0.1037
  128MOL0     C17150   9.530  11.046   4.372  0.4470 -0.8428  0.3546
  128MOL0     C17151   9.411  11.130   4.387 -1.0787 -0.6527  0.4881
  128MOL0     C17152   9.314  11.094   4.480  0.5112  0.1827  0.6334
  128MOL0     O17153   9.191  11.146   4.513  0.0310  0.5544  0.3033
  128MOL0     C17154   9.176  11.289   4.495 -1.0392 -0.0620  0.5020
  128MOL0     C17155   9.033  11.320   4.496  0.5713 -0.5778  0.4459
  128MOL0     C17156   8.963  11.281   4.629 -0.2176  0.0541  1.0642
  128MOL0     C17157   8.810  11.296   4.621  0.4472 -0.8446  0.2144
  128MOL0     C17158   8.754  11.176   4.546  0.7131 -0.2439 -0.3804
  128MOL0     C17159   8.599  11.187   4.513  0.1260 -0.5900  1.4580
  128MOL0     C17160   8.560  11.285   4.413  0.1236 -0.7476 -0.4632
  128MOL0     C17161   8.614  11.259   4.274  0.1149  0.2297 -0.9208
  128MOL0     N17162   8.574  11.126   4.228 -0.0448  0.0270 -0.2618
  128MOL0     C17163   8.663  11.034   4.191  0.7512 -0.8679  0.9744
  128MOL0     C17164   8.583  10.941   4.131  1.0265 -0.4545  0.0213
  128MOL0     C17165   8.631  10.814   4.065 -0.0953 -0.8027  0.3151
  128MOL0     C17166   8.693  10.841   3.921 -0.9165 -0.1126 -0.3040
  128MOL0     C17167   8.699  10.710   3.838 -0.4758  0.4345 -0.0464
  128MOL0     C17168   8.818  10.711   3.731  1.1340 -1.2305 -0.3531
  128MOL0     O17169   8.806  10.815   3.642  0.0772  0.4996 -0.9233
  128MOL0     C17170   8.893  10.828   3.531  0.1383  0.5013  0.5305
  128MOL0     C17171   9.009  10.753   3.524 -1.5029 -1.9307  0.2856
  128MOL0     C17172   9.093  10.766   3.411  0.0923 -0.4309  0.4804
  128MOL0     C17173   9.052  10.849   3.296 -0.1400  0.0288  0.4365
  128MOL0     C17174   9.153  10.878   3.187 -1.0692 -0.4238  0.3043
  128MOL0     O17175   9.128  10.975   3.097 -0.2287  0.1261 -0.4495
  128MOL0     C17176   9.193  10.972   2.972 -0.4126  0.0139 -0.2887
  128MOL0     C17177   9.131  10.968   2.848 -0.8701  0.6455  0.7235
  128MOL0     C17178   9.192  10.960   2.724 -0.0894  0.3311  0.1316
  128MOL0     C17179   9.330  10.972   2.722  0.2604  0.4643 -0.3553
  128MOL0     O17180   9.382  10.959   2.590  0.2412 -0.2095 -0.0182
  128MOL0     C17181   9.523  10.947   2.578  0.2114  0.0184  0.3911
  128MOL0     C17182   9.583  11.086   2.589 -1.1973  0.1735 -0.7380
  128MOL0     C17183   9.738  11.076   2.612 -0.1805  0.0930 -0.0929
  128MOL0     C17184   9.801  11.221   2.605 -0.2886 -0.1771  0.1951
  128MOL0     C17185   9.950  11.228   2.673  0.5835 -0.3434  0.6008
  128MOL0     C17186  10.028  11.354   2.626 -0.4273  0.2661 -0.2765
  128MOL0     C17187  10.166  11.353   2.688  0.5318 -0.0668  0.1307
  128MOL0     C17188  10.243  11.478   2.639 -0.2006  0.3763 -0.1697
  128MOL0    Cl17189  10.394  11.474   2.739  0.1476 -0.3528 -0.1245
  128MOL0     C17190   9.395  10.981   2.844  0.0515 -0.3661  0.9151
  128MOL0     C17191   9.332  10.978   2.970 -0.5573 -0.2542  0.5036
  128MOL0     O17192   9.251  10.802   3.188  0.3265  0.6235 -0.1454
  128MOL0     C17193   8.931  10.919   3.304 -0.3996 -0.0811 -0.1238
  128MOL0     C17194   8.854  10.912   3.426 -0.1554 -0.4351 -0.1514
  128MOL0     N17195   8.453  10.988   4.135 -0.0614 -0.0999  0.5234
  128MOL0     N17196   8.447  11.100   4.194  0.0464  1.0970 -0.0853
  128MOL0     C17197   9.338  10.981   4.557 -0.6576 -1.2210  0.5783
  128MOL0     C17198   9.451  10.908   4.551 -0.1413 -0.7387  0.0008
  128MOL0     C17199   9.855  10.750   4.339 -0.2861  0.6670  0.5419
  128MOL0     C17200   9.936  10.761   4.223  0.1665 -0.3392 -0.2994
  128MOL0     C17201  10.058  10.692   4.227 -0.0871  0.7858 -0.3395
  128MOL0     C17202  10.106  10.622   4.340 -0.4408 -0.4701 -0.6150
  128MOL0     O17203  10.232  10.555   4.340 -0.0745 -0.2123 -0.3063
  128MOL0     C17204  10.339  10.634   4.279  0.5383  0.2855  0.1488
  128MOL0     C17205  10.461  10.598   4.358 -0.4402 -0.0179  0.2537
  128MOL0     C17206  10.589  10.665   4.307 -0.4190 -0.3997  0.2342
  128MOL0     C17207  10.698  10.670   4.413 -0.6524 -0.4818  0.0531
  128MOL0     C17208  10.807  10.743   4.350 -0.2299 -0.6782 -0.3148
  128MOL0     C17209  10.897  10.805   4.291  0.1585  0.3579 -0.8596
  128MOL0     C17210  10.024  10.618   4.455  0.7488  0.3889 -0.6066
  128MOL0     C17211   9.894  10.671   4.454 -0.1331 -0.3214 -0.5403
  128MOL0     C17212   9.804  10.655   4.577  0.6977  0.7288 -0.1477
  128MOL0     H17213   9.597  11.080   4.293 -1.2096 -0.1922 -0.8325
  128MOL0     H17214   9.395  11.219   4.327  0.8662 -0.8713 -0.4341
  128MOL0     H17215   9.235  11.350   4.565  0.2668  0.8926 -1.3514
  128MOL0     H17216   9.214  11.322   4.398  0.7235 -2.7666  0.1665
  128MOL0     H17217   8.986  11.293   4.400  0.8761  1.6141 -0.3924
  128MOL0     H17218   9.037  11.429   4.482  0.7313 -0.0243  3.9199
  128MOL0     H17219   8.997  11.355   4.702  0.2715  2.4883 -1.4751
  128MOL0     H17220   9.001  11.179   4.644 -0.8403 -0.4228 -0.4009
  128MOL0     H17221   8.771  11.311   4.722 -1.4561  0.0960 -0.6217
  128MOL0     H17222   8.788  11.390   4.570 -0.2113 -0.7351  0.6937
  128MOL0     H17223   8.807  11.158   4.453 -0.3677 -0.7108 -0.9286
  128MOL0     H17224   8.765  11.095   4.620 -3.0978  0.5472  1.3315
  128MOL0     H17225   8.544  11.093   4.510 -1.7070  0.4369  0.0444
  128MOL0     H17226   8.556  11.229   4.604  1.0989 -0.0638  1.6927
  128MOL0     H17227   8.610  11.376   4.447 -0.0957 -0.0930 -1.8255
  128MOL0     H17228   8.452  11.304   4.411  0.5625  1.9980 -2.0938
  128MOL0     H17229   8.585  11.343   4.210 -0.8668  1.0712  0.5525
  128MOL0     H17230   8.724  11.262   4.277  0.1122  2.0714  2.0713
  128MOL0     H17231   8.771  11.038   4.206  0.6296 -1.3649  2.1394
  128MOL0     H17232   8.697  10.775   4.143 -0.2175  1.7200  1.7726
  128MOL0     H17233   8.548  10.744   4.050  0.9807 -1.8215 -1.1650
  128MOL0     H17234   8.633  10.913   3.865 -2.8529 -0.9016  0.6457
  128MOL0     H17235   8.791  10.882   3.947 -0.5020 -0.9984 -0.4448
  128MOL0     H17236   8.606  10.703   3.780 -0.7215 -1.5636  0.5298
  128MOL0     H17237   8.704  10.624   3.905 -1.4991  0.6343  0.3162
  128MOL0     H17238   8.803  10.620   3.673 -1.4236 -1.3117  0.3281
  128MOL0     H17239   8.914  10.710   3.783  0.1003 -0.7326  1.6641
  128MOL0     H17240   9.041  10.691   3.607 -0.4618  1.0336  2.2786
  128MOL0     H17241   9.192  10.722   3.412  1.9144  3.1307 -1.9219
  128MOL0     H17242   9.023  10.959   2.845 -0.7124 -2.8648 -2.3573
  128MOL0     H17243   9.139  10.972   2.630  2.5037  2.9992 -1.1342
  128MOL0     H17244   9.571  10.883   2.651  4.8088  1.8828 -0.6725
  128MOL0     H17245   9.534  10.918   2.473 -1.3628  0.4172  0.0795
  128MOL0     H17246   9.546  11.153   2.511 -3.5889 -1.8491 -1.4943
  128MOL0     H17247   9.535  11.127   2.679 -2.2313 -2.2384 -0.1194
  128MOL0     H17248   9.760  11.038   2.711 -0.9239 -0.4659 -0.1315
  128MOL0     H17249   9.788  11.011   2.540 -2.6035  1.4493 -3.3059
  128MOL0     H17250   9.745  11.293   2.664  0.9750  0.5951  0.4749
  128MOL0     H17251   9.795  11.254   2.501 -0.2640 -0.6821  0.0304
  128MOL0     H17252  10.005  11.137   2.647  0.6716 -1.0299  2.9646
  128MOL0     H17253   9.928  11.229   2.780 -4.3929 -1.1222 -0.1443
  128MOL0     H17254  10.050  11.351   2.519  1.2737  0.3880  0.0364
  128MOL0     H17255   9.959  11.438   2.639 -2.8472 -1.5468 -0.7112
  128MOL0     H17256  10.216  11.264   2.648 -0.8686 -1.2228  0.8735
  128MOL0     H17257  10.152  11.346   2.796 -1.9219  1.4761 -0.0218
  128MOL0     H17258  10.277  11.462   2.536 -0.8762 -1.4118 -0.1409
  128MOL0     H17259  10.193  11.574   2.656  1.0383  0.8153  1.0953
  128MOL0     H17260   9.502  10.997   2.852 -0.1298 -0.1949  4.6627
  128MOL0     H17261   9.393  11.005   3.055  0.3040  0.8805 -0.4427
  128MOL0     H17262   8.917  10.982   3.217 -0.2219  0.0784 -0.0382
  128MOL0     H17263   8.765  10.971   3.439  0.6655  0.8618 -0.2386
  128MOL0     H17264   9.260  10.955   4.628  1.3622 -3.7516  2.0245
  128MOL0     H17265   9.471  10.820   4.611 -0.1643 -2.2059 -2.0532
  128MOL0     H17266   9.918  10.831   4.142  0.6778  0.5329  0.3299
  128MOL0     H17267  10.125  10.702   4.143  1.5700  0.0846  0.8451
  128MOL0     H17268  10.319  10.741   4.294  0.2584  0.3909 -0.9486
  128MOL0     H17269  10.358  10.605   4.176 -1.3072 -0.2013 -0.0872
  128MOL0     H17270  10.476  10.490   4.350 -1.9385 -0.1004 -2.4598
  128MOL0     H17271  10.439  10.625   4.462 -0.2510 -0.2974  0.3694
  128MOL0     H17272  10.567  10.768   4.276 -0.5611 -0.1224  1.2059
  128MOL0     H17273  10.623  10.611   4.219 -2.7607  0.0080 -0.9893
  128MOL0     H17274  10.661  10.721   4.502 -0.3130  0.4278 -0.3155
  128MOL0     H17275  10.729  10.569   4.443  4.3202  0.8606  0.3656
  128MOL0     H17276  10.977  10.858   4.243  3.0947 -2.0877  1.0020
  128MOL0     H17277  10.054  10.568   4.546  0.8717  3.0458  0.9168
  128MOL0     H17278   9.709  10.613   4.541  0.5374  0.3944  0.6537
  128MOL0     H17279   9.847  10.585   4.649 -0.0060 -0.5850 -0.9553
  128MOL0     H17280   9.786  10.754   4.620 -1.3044 -0.5437  2.1939
  129MOL0     O17281   3.597   8.632   8.223 -0.8114  0.8855 -0.5715
  129MOL0     C17282   3.639   8.535   8.287 -0.4895  0.0165 -0.0864
  129MOL0     O17283   3.772   8.508   8.305 -0.6130  0.2586  0.0910
  129MOL0     C17284   3.862   8.616   8.291  0.3546  0.7158 -0.6834
  129MOL0     C17285   3.963   8.616   8.194  0.1385  0.3547 -0.0068
  129MOL0     C17286   4.059   8.714   8.183  0.4097 -0.1933  0.4579
  129MOL0     C17287   4.045   8.826   8.261  1.3023 -0.5533  0.3683
  129MOL0     O17288   4.140   8.923   8.265  0.5194 -0.3422 -0.3006
  129MOL0     C17289   4.141   9.013   8.153 -0.0789  0.8979 -0.5317
  129MOL0     C17290   4.275   8.984   8.074 -0.2101 -0.2384 -0.1756
  129MOL0     C17291   4.406   8.998   8.160  0.2157  0.3083  0.1146
  129MOL0     C17292   4.401   9.130   8.244 -1.6662 -0.2348 -0.1000
  129MOL0     C17293   4.535   9.163   8.310  0.0727 -0.3615 -0.4822
  129MOL0     C17294   4.631   9.231   8.212 -0.1063  0.2641  0.5795
  129MOL0     C17295   4.758   9.290   8.279 -0.3939 -0.6145 -0.6777
  129MOL0     C17296   4.853   9.377   8.188 -0.1986 -0.3703 -0.3007
  129MOL0     N17297   4.959   9.453   8.257 -0.3211 -0.4770  0.4059
  129MOL0     C17298   4.984   9.587   8.228 -0.1676 -0.3155 -0.3954
  129MOL0     C17299   5.091   9.617   8.300 -0.0888  0.3041  0.0176
  129MOL0     C17300   5.145   9.756   8.313  0.3346 -0.0520 -0.6962
  129MOL0     C17301   5.284   9.763   8.372 -0.0875 -0.1151  0.0878
  129MOL0     C17302   5.349   9.902   8.368 -0.3212  0.2478  0.1257
  129MOL0     C17303   5.467   9.907   8.464 -1.1094  0.3246  0.4757
  129MOL0     O17304   5.544  10.032   8.453 -1.5776 -0.8089  0.1742
  129MOL0     C17305   5.674  10.000   8.415 -0.5719  0.2893  0.7617
  129MOL0     C17306   5.692   9.980   8.284 -0.0336 -0.3602  0.3826
  129MOL0     C17307   5.820   9.942   8.232  0.5264 -0.3700  0.1106
  129MOL0     C17308   5.928   9.927   8.325 -0.5233 -0.7738  0.1950
  129MOL0     C17309   6.069   9.910   8.277  1.1071 -1.4465 -0.2717
  129MOL0     O17310   6.174   9.935   8.361  0.0743 -0.3333  0.8047
  129MOL0     C17311   6.300   9.920   8.303  1.0151  0.3640 -0.6659
  129MOL0     C17312   6.358   9.808   8.267 -0.3184 -0.3857 -0.4902
  129MOL0     C17313   6.499   9.807   8.233  0.6657  0.3878  0.6859
  129MOL0     C17314   6.568   9.929   8.227 -0.1758  0.4646  0.4837
  129MOL0     O17315   6.688   9.926   8.172 -0.1454  0.1954  0.4859
  129MOL0     C17316   6.796   9.850   8.228  0.6573 -0.8279  0.5516
  129MOL0     C17317   6.843   9.903   8.361  0.0198 -0.7349  0.2581
  129MOL0     C17318   6.989   9.869   8.378 -0.1872 -0.4329  0.1144
  129MOL0     C17319   7.096   9.958   8.299  0.6357  0.7899 -0.0554
  129MOL0     C17320   7.235   9.916   8.351  0.7450 -0.6249  0.0414
  129MOL0     C17321   7.347   9.999   8.312 -0.5979 -0.7047  0.2368
  129MOL0     C17322   7.371  10.017   8.160 -0.0639 -0.7555  0.0994
  129MOL0     C17323   7.505  10.093   8.131  0.3358 -0.2785  0.3131
  129MOL0    Cl17324   7.504  10.166   7.970  0.2004 -0.3583  0.3553
  129MOL0     C17325   6.503  10.047   8.266  0.5036  0.4580  0.6573
  129MOL0     C17326   6.372  10.035   8.311  0.7144  0.6187 -0.5472
  129MOL0     O17327   6.078   9.889   8.154 -0.9088  0.9054  0.3601
  129MOL0     C17328   5.906   9.961   8.459  1.0299  0.1818 -0.6129
  129MOL0     C17329   5.776   9.991   8.501 -0.7631 -1.2351  0.3645
  129MOL0     N17330   5.130   9.511   8.373 -0.5676 -0.9173 -0.1453
  129MOL0     N17331   5.057   9.411   8.342 -0.6015 -0.5277 -0.1941
  129MOL0     C17332   3.935   8.835   8.355  0.7182  0.1959  0.1933
  129MOL0     C17333   3.845   8.725   8.378  0.0894  0.0404  0.6388
  129MOL0     C17334   3.537   8.437   8.338  0.0841  0.7256  0.5175
  129MOL0     C17335   3.569   8.356   8.449 -0.4045  0.5133  0.2893
  129MOL0     C17336   3.482   8.256   8.493  0.1237 -0.3845 -0.1801
  129MOL0     C17337   3.350   8.247   8.449  0.0017  0.6503 -0.8165
  129MOL0     O17338   3.264   8.159   8.504 -0.6353 -0.3922 -0.7578
  129MOL0     C17339   3.296   8.086   8.627 -0.6941 -0.5313  0.8932
  129MOL0     C17340   3.185   7.995   8.672 -0.5774 -0.3432  0.1786
  129MOL0     C17341   3.059   8.072   8.716 -0.3462  0.0171  0.2588
  129MOL0     C17342   2.956   7.969   8.753 -0.5085  0.0837 -0.7424
  129MOL0     C17343   2.834   8.042   8.767 -0.4889  0.2938 -0.4886
  129MOL0     C17344   2.731   8.104   8.774 -0.1065  0.3372  0.0345
  129MOL0     C17345   3.315   8.327   8.340 -0.2840 -0.3414  0.2107
  129MOL0     C17346   3.403   8.413   8.276  0.1285  0.8231 -0.2738
  129MOL0     C17347   3.360   8.472   8.141  0.4528 -0.2630  0.3001
  129MOL0     H17348   3.964   8.518   8.146 -1.2672 -2.0520  4.2444
  129MOL0     H17349   4.138   8.688   8.113 -1.9060 -2.0803 -1.6705
  129MOL0     H17350   4.060   9.014   8.080  1.0700  1.7488 -1.8531
  129MOL0     H17351   4.150   9.116   8.190  1.8963  0.8293 -0.7210
  129MOL0     H17352   4.269   9.057   7.992 -0.5748  0.5888  0.5787
  129MOL0     H17353   4.278   8.878   8.048  3.3238 -0.3091  0.0616
  129MOL0     H17354   4.486   9.008   8.087 -1.5907  0.4771 -1.9220
  129MOL0     H17355   4.427   8.911   8.223 -2.3531  1.1693  2.3644
  129MOL0     H17356   4.380   9.213   8.177  1.0435 -2.2506 -3.8383
  129MOL0     H17357   4.330   9.122   8.326 -0.7698 -1.4264  0.5934
  129MOL0     H17358   4.505   9.240   8.382 -0.0965 -2.7397  2.1600
  129MOL0     H17359   4.578   9.077   8.361  0.4208 -1.0510 -1.8936
  129MOL0     H17360   4.659   9.158   8.135 -0.3082  0.8634 -0.0696
  129MOL0     H17361   4.586   9.310   8.152  2.5172  2.9669  1.9144
  129MOL0     H17362   4.817   9.206   8.318  1.1821  0.5918 -0.3657
  129MOL0     H17363   4.734   9.354   8.365 -0.0547 -0.6509 -0.5565
  129MOL0     H17364   4.888   9.310   8.109 -2.5240  2.1040 -3.7150
  129MOL0     H17365   4.809   9.454   8.124  2.7159  1.1865 -0.5604
  129MOL0     H17366   4.930   9.664   8.173  0.8938  2.0584  1.7000
  129MOL0     H17367   5.147   9.811   8.218 -0.3267  2.7398  0.7818
  129MOL0     H17368   5.077   9.815   8.375 -0.0856  0.5646 -1.7254
  129MOL0     H17369   5.277   9.725   8.475  2.3454  1.2904  0.8541
  129MOL0     H17370   5.338   9.682   8.322 -1.1749 -2.0709  1.8691
  129MOL0     H17371   5.278   9.981   8.397 -0.1955  0.2190  0.5178
  129MOL0     H17372   5.377   9.935   8.268  0.5867  2.5286  1.0574
  129MOL0     H17373   5.535   9.822   8.460 -0.7780  0.5556  1.1496
  129MOL0     H17374   5.422   9.887   8.562 -0.7659 -1.9755  0.2386
  129MOL0     H17375   5.605   9.994   8.220  0.1310 -1.3351 -0.0782
  129MOL0     H17376   5.830   9.939   8.124 -2.0666 -1.5333 -0.1744
  129MOL0     H17377   6.293   9.721   8.275 -1.6687  0.7642  2.2489
  129MOL0     H17378   6.553   9.714   8.217  0.3405  0.2834  0.1761
  129MOL0     H17379   6.766   9.748   8.252  1.3367 -1.1866 -0.0908
  129MOL0     H17380   6.870   9.846   8.148 -2.1923 -1.3337 -2.2396
  129MOL0     H17381   6.843  10.012   8.367  1.0850 -0.7719  1.7105
  129MOL0     H17382   6.786   9.860   8.444  0.1592 -1.6676 -0.1110
  129MOL0     H17383   7.011   9.869   8.485  0.2803  0.8609  0.0372
  129MOL0     H17384   7.011   9.764   8.356 -1.0425 -0.4662 -0.6429
  129MOL0     H17385   7.076  10.065   8.313 -1.0116  0.3060  1.6528
  129MOL0     H17386   7.101   9.934   8.192  1.9452 -1.7546  0.5045
  129MOL0     H17387   7.254   9.812   8.323  0.7347 -0.8165  0.7380
  129MOL0     H17388   7.234   9.913   8.460  0.6223 -0.2113  0.0559
  129MOL0     H17389   7.362  10.094   8.364  0.3501 -1.5731  1.6025
  129MOL0     H17390   7.434   9.953   8.359 -2.7098 -2.2033  2.8991
  129MOL0     H17391   7.285  10.072   8.121  0.8070 -0.8615 -2.1073
  129MOL0     H17392   7.378   9.926   8.100  0.5527  0.3747 -1.6130
  129MOL0     H17393   7.507  10.173   8.205 -4.1729  0.7456 -0.4033
  129MOL0     H17394   7.591  10.027   8.151  0.1355 -0.9794 -1.0451
  129MOL0     H17395   6.569  10.130   8.291  0.2837  0.5531  0.9250
  129MOL0     H17396   6.317  10.118   8.354 -0.2517 -0.9669  1.4131
  129MOL0     H17397   5.980   9.963   8.538 -2.0201 -0.2298  2.5260
  129MOL0     H17398   5.758  10.027   8.602  1.7532  1.5847 -0.0473
  129MOL0     H17399   3.917   8.927   8.411 -3.8908  1.0407 -2.2003
  129MOL0     H17400   3.760   8.724   8.446 -1.9447  3.9798 -1.5248
  129MOL0     H17401   3.670   8.352   8.488  0.4764 -0.8294 -1.9570
  129MOL0     H17402   3.516   8.191   8.573 -1.8236  1.7666  2.5904
  129MOL0     H17403   3.318   8.159   8.706 -1.9926  0.2642  0.5487
  129MOL0     H17404   3.385   8.024   8.616  0.4205  1.3405 -1.5246
  129MOL0     H17405   3.224   7.931   8.751 -1.1003  0.2506  0.9356
  129MOL0     H17406   3.158   7.926   8.591 -2.6113 -0.1424  0.6332
  129MOL0     H17407   3.030   8.147   8.642  4.3796 -0.9176 -2.9860
  129MOL0     H17408   3.082   8.126   8.809 -1.5405  2.3120 -0.7087
  129MOL0     H17409   2.951   7.907   8.663  0.5393  0.9896 -1.4507
  129MOL0     H17410   2.982   7.907   8.840  0.6980  3.1555  1.2553
  129MOL0     H17411   2.639   8.157   8.760 -0.0537  0.5219  0.3883
  129MOL0     H17412   3.217   8.322   8.294  0.1450  2.0110 -1.1765
  129MOL0     H17413   3.436   8.475   8.063  0.7094 -1.0847  0.5096
  129MOL0     H17414   3.274   8.421   8.095  0.8620 -0.8703  0.2036
  129MOL0     H17415   3.343   8.578   8.161  1.6334 -0.2830  1.5331
  130MOL0     O17416   4.613   0.576  10.260 -0.1693  0.4409  0.1210
  130MOL0     C17417   4.569   0.462  10.277  0.9783 -0.0001  0.1867
  130MOL0     O17418   4.638   0.362  10.335  0.0801  0.0459  0.4785
  130MOL0     C17419   4.767   0.378  10.368 -0.0419 -0.1499 -0.6302
  130MOL0     C17420   4.810   0.338  10.496  0.0709  0.7248 -0.7724
  130MOL0     C17421   4.941   0.346  10.543 -0.2976  0.0077 -0.0520
  130MOL0     C17422   5.044   0.398  10.458  0.0655 -0.8421  0.0876
  130MOL0     O17423   5.180   0.415  10.488  0.4570  0.2157  0.4009
  130MOL0     C17424   5.236   0.293  10.555  0.0676 -0.4747  0.5856
  130MOL0     C17425   5.296   0.200  10.457  0.5077 -0.9272  0.1331
  130MOL0     C17426   5.447   0.212  10.441  0.3728 -0.0455 -0.0447
  130MOL0     C17427   5.490   0.354  10.408  0.1978  0.4183  0.4115
  130MOL0     C17428   5.638   0.370  10.364  0.7273  0.5909  0.3505
  130MOL0     C17429   5.745   0.313  10.464  0.0519  0.9628 -0.8508
  130MOL0     C17430   5.736   0.360  10.609  0.4059 -0.7452 -0.0322
  130MOL0     C17431   5.809   0.249  10.694 -0.3283 -0.5114 -0.7387
  130MOL0     N17432   5.957   0.280  10.692  0.1035 -0.0123 -0.1949
  130MOL0     C17433   6.049   0.244  10.592 -0.0927  0.1969 -0.5509
  130MOL0     C17434   6.169   0.299  10.638  0.6498 -0.3770  0.1216
  130MOL0     C17435   6.293   0.317  10.558 -0.4717  0.4546  0.1696
  130MOL0     C17436   6.411   0.262  10.639 -0.3866 -0.2038  0.5619
  130MOL0     C17437   6.542   0.312  10.583 -0.0230 -0.0606 -0.2725
  130MOL0     C17438   6.663   0.249  10.651  0.1034 -0.6440  0.9610
  130MOL0     O17439   6.653   0.257  10.794  0.5955  0.8342 -0.1145
  130MOL0     C17440   6.766   0.231  10.864 -0.0644  0.5113 -0.0428
  130MOL0     C17441   6.771   0.270  10.997  0.5072  0.1940 -0.0454
  130MOL0     C17442   6.893   0.262  11.068 -0.8859 -0.3415 -0.3937
  130MOL0     C17443   7.006   0.197  11.009 -0.2676 -0.0884 -0.1043
  130MOL0     C17444   7.134   0.170  11.094  0.5443 -0.0926  0.3566
  130MOL0     O17445   7.236   0.110  11.027  0.7277 -0.6796 -0.4219
  130MOL0     C17446   7.326   0.037  11.095 -0.1114 -0.1982 -0.9775
  130MOL0     C17447   7.448   0.094  11.094 -0.3850  0.0154  0.4881
  130MOL0     C17448   7.546   0.024  11.165 -0.0834 -0.0478 -0.2799
  130MOL0     C17449   7.527  -0.107  11.230 -0.0970  0.0811  0.0222
  130MOL0     O17450   7.624  -0.169  11.307 -1.0474 -0.1646  0.9999
  130MOL0     C17451   7.763  -0.115  11.308 -0.6905 -1.2814 -0.2640
  130MOL0     C17452   7.847  -0.217  11.375  0.2474  0.6284 -0.5105
  130MOL0     C17453   7.995  -0.159  11.400 -0.2576  0.3352  0.2652
  130MOL0     C17454   8.020  -0.141  11.547  0.1677 -0.9497 -0.1564
  130MOL0     C17455   8.143  -0.215  11.591  0.4818 -0.4039  0.4977
  130MOL0     C17456   8.268  -0.185  11.504  0.3287  0.8391  0.0396
  130MOL0     C17457   8.399  -0.245  11.568 -0.6069  0.1438  0.2073
  130MOL0     C17458   8.525  -0.251  11.479 -0.0617  0.3416  0.7517
  130MOL0    Cl17459   8.533  -0.382  11.335 -0.2484  0.2351 -0.1708
  130MOL0     C17460   7.405  -0.170  11.216 -0.3689 -0.2828 -0.1863
  130MOL0     C17461   7.305  -0.092  11.150  0.1792 -0.1709  0.7949
  130MOL0     O17462   7.136   0.195  11.215  0.3303  0.4099 -0.2799
  130MOL0     C17463   6.994   0.151  10.875  0.2722  0.2824 -0.1283
  130MOL0     C17464   6.878   0.180  10.800 -0.2677 -0.3724 -0.2847
  130MOL0     N17465   6.148   0.352  10.767  0.6804 -0.0098  0.4031
  130MOL0     N17466   6.023   0.342  10.798 -0.3007 -0.3134 -0.4328
  130MOL0     C17467   5.004   0.430  10.330 -0.3610 -0.3651  0.4425
  130MOL0     C17468   4.875   0.424  10.291  0.2386  0.6000  0.0265
  130MOL0     C17469   4.439   0.420  10.219 -0.7145 -0.6295  0.3432
  130MOL0     C17470   4.447   0.317  10.129  0.4808 -0.1252  0.6261
  130MOL0     C17471   4.330   0.283  10.060  1.0169  0.3041 -0.0575
  130MOL0     C17472   4.211   0.342  10.088  0.2429 -0.2925  0.6271
  130MOL0     O17473   4.102   0.288  10.029 -0.5589 -0.0199  0.5634
  130MOL0     C17474   3.968   0.348  10.049 -0.2021  0.4529 -0.1738
  130MOL0     C17475   3.873   0.292   9.943  0.6086  0.3576 -0.3913
  130MOL0     C17476   3.722   0.351   9.969 -0.7095 -0.8156  0.0447
  130MOL0     C17477   3.624   0.299   9.859 -0.5983 -0.3226 -0.3951
  130MOL0     C17478   3.485   0.342   9.893  0.3017 -0.3273 -0.2109
  130MOL0     C17479   3.367   0.377   9.916  1.1058 -0.7933  0.8303
  130MOL0     C17480   4.202   0.441  10.192  0.6651  0.1996  0.0986
  130MOL0     C17481   4.318   0.484  10.254 -0.2635 -0.1377  0.6018
  130MOL0     C17482   4.308   0.595  10.358 -0.3674  0.4052  0.4396
  130MOL0     H17483   4.735   0.308  10.568 -0.1763  2.4838 -0.2338
  130MOL0     H17484   4.958   0.319  10.647  1.3161 -0.3809 -0.3817
  130MOL0     H17485   5.308   0.329  10.628 -1.0361  0.8719  1.0618
  130MOL0     H17486   5.159   0.229  10.600 -0.2935  0.2273  0.9903
  130MOL0     H17487   5.234   0.192  10.367  1.0863 -0.3651 -0.3272
  130MOL0     H17488   5.286   0.102  10.503  0.0285 -1.1011 -0.3248
  130MOL0     H17489   5.488   0.151  10.360  1.8733  1.3152 -0.3650
  130MOL0     H17490   5.501   0.180  10.531 -1.6432 -2.0617  0.5315
  130MOL0     H17491   5.432   0.396  10.325 -1.3312  1.4649  1.9319
  130MOL0     H17492   5.465   0.427  10.485 -2.0107 -0.7221  0.8582
  130MOL0     H17493   5.661   0.317  10.271  0.2560 -0.9730  1.0769
  130MOL0     H17494   5.653   0.478  10.356 -0.9954  0.8937  0.7030
  130MOL0     H17495   5.726   0.206  10.456  2.4443  0.5505 -2.1642
  130MOL0     H17496   5.849   0.331  10.434  1.3218 -1.2366  1.8171
  130MOL0     H17497   5.630   0.368  10.637  1.0415  3.3620  1.8898
  130MOL0     H17498   5.775   0.461  10.623 -2.2616  0.5362 -1.0821
  130MOL0     H17499   5.767   0.244  10.795 -0.5978  1.0959 -0.7407
  130MOL0     H17500   5.783   0.150  10.654 -0.7340 -0.5017 -0.5093
  130MOL0     H17501   6.033   0.197  10.496  2.4282  0.6956 -1.2700
  130MOL0     H17502   6.294   0.260  10.465  0.3249  1.6319 -0.5751
  130MOL0     H17503   6.304   0.421  10.524 -0.6513 -0.3799 -2.6497
  130MOL0     H17504   6.412   0.293  10.744  1.6383 -0.3522  0.6182
  130MOL0     H17505   6.397   0.154  10.639  1.8211 -0.5363  1.1471
  130MOL0     H17506   6.548   0.420  10.596  0.2523 -0.0655 -0.3624
  130MOL0     H17507   6.544   0.275  10.479 -3.5837 -2.6066  0.3441
  130MOL0     H17508   6.743   0.302  10.597  1.6473 -2.8804  0.9213
  130MOL0     H17509   6.673   0.144  10.623 -3.7564 -0.7102 -0.6512
  130MOL0     H17510   6.684   0.306  11.052 -0.0749 -1.7093  0.3396
  130MOL0     H17511   6.886   0.296  11.171 -0.5732  0.8202 -0.7433
  130MOL0     H17512   7.472   0.187  11.044  0.6098 -0.1889  0.5810
  130MOL0     H17513   7.645   0.068  11.167 -0.7632  1.5698 -0.8442
  130MOL0     H17514   7.801  -0.089  11.209 -3.1841 -0.6860 -1.1517
  130MOL0     H17515   7.767  -0.025  11.371 -0.0016 -2.1112  0.9175
  130MOL0     H17516   7.795  -0.249  11.466  0.1855 -1.0485 -1.1122
  130MOL0     H17517   7.864  -0.302  11.309  0.3281  1.8862 -2.1572
  130MOL0     H17518   8.058  -0.233  11.350 -1.7668  1.7496 -4.2195
  130MOL0     H17519   8.012  -0.061  11.356 -1.4940  0.2292 -0.5339
  130MOL0     H17520   7.950  -0.197  11.610  1.5364  0.3206  2.6715
  130MOL0     H17521   8.027  -0.034  11.571 -0.0376 -0.8625 -0.4805
  130MOL0     H17522   8.128  -0.323  11.584  0.6165 -0.3985  0.0790
  130MOL0     H17523   8.172  -0.184  11.691  0.3246 -0.0007  0.4183
  130MOL0     H17524   8.258  -0.226  11.403 -1.9057 -1.9549  1.2380
  130MOL0     H17525   8.287  -0.078  11.496  2.0217  0.7531  2.1644
  130MOL0     H17526   8.383  -0.347  11.604  0.7007 -0.0521  0.2827
  130MOL0     H17527   8.428  -0.181  11.651 -1.8466  0.4379  0.4376
  130MOL0     H17528   8.558  -0.157  11.435 -0.8660 -0.1939 -1.0778
  130MOL0     H17529   8.608  -0.277  11.545 -0.8124  2.1903  2.5600
  130MOL0     H17530   7.389  -0.274  11.241  0.8491 -1.0190 -2.2166
  130MOL0     H17531   7.210  -0.138  11.122 -0.9768  1.2591  2.1811
  130MOL0     H17532   7.079   0.099  10.832  0.9918  2.5358 -1.6106
  130MOL0     H17533   6.879   0.151  10.695 -1.9776 -1.7105  0.0181
  130MOL0     H17534   5.082   0.469  10.265 -0.7614  1.2064  0.8554
  130MOL0     H17535   4.859   0.460  10.190 -2.0751  1.6307  0.6777
  130MOL0     H17536   4.541   0.266  10.108 -0.0091 -0.7254 -0.2011
  130MOL0     H17537   4.346   0.213   9.979  4.3316  2.0529 -1.0751
  130MOL0     H17538   3.963   0.456  10.032 -0.3109  0.2720 -1.3801
  130MOL0     H17539   3.927   0.335  10.150 -0.0961  3.4850  0.3620
  130MOL0     H17540   3.866   0.183   9.950 -2.6534  0.4805  0.1693
  130MOL0     H17541   3.907   0.327   9.845  3.1165 -0.4889  0.1220
  130MOL0     H17542   3.728   0.460   9.962 -0.2553 -0.7960  0.6508
  130MOL0     H17543   3.691   0.314  10.067 -0.1061 -0.8544  0.2189
  130MOL0     H17544   3.655   0.350   9.768  0.1491 -1.0958 -0.5880
  130MOL0     H17545   3.631   0.193   9.834  0.0305 -0.4400  0.2566
  130MOL0     H17546   3.267   0.416   9.927 -0.0944 -2.0046 -3.6605
  130MOL0     H17547   4.106   0.481  10.222  0.6559  1.8573 -1.9336
  130MOL0     H17548   4.306   0.690  10.305 -0.3488  0.7262  1.0059
  130MOL0     H17549   4.220   0.588  10.422 -0.0788  2.3965  1.1144
  130MOL0     H17550   4.396   0.597  10.423 -0.4957  0.8285  0.6030
  131MOL0     O17551   2.468   5.712   7.067  0.2935  0.5897  0.0523
  131MOL0     C17552   2.457   5.624   6.978 -0.1591 -0.2622 -0.4318
  131MOL0     O17553   2.556   5.577   6.893 -0.2869 -0.7440 -0.8437
  131MOL0     C17554   2.678   5.642   6.861 -0.4237 -0.0185  0.4463
  131MOL0     C17555   2.724   5.767   6.900  0.0054 -0.2626  0.5403
  131MOL0     C17556   2.844   5.819   6.856  0.0115 -0.9073  0.4373
  131MOL0     C17557   2.927   5.751   6.772  0.8901  0.0248  1.1526
  131MOL0     O17558   3.043   5.799   6.713 -0.0812 -0.8572 -0.1663
  131MOL0     C17559   3.094   5.925   6.759 -0.4903  0.5792  0.7113
  131MOL0     C17560   3.160   5.905   6.897 -0.2482 -0.0265 -0.2749
  131MOL0     C17561   3.234   6.034   6.942 -0.0563  0.4976 -0.1251
  131MOL0     C17562   3.292   6.021   7.082 -0.9099 -0.0206  1.0133
  131MOL0     C17563   3.320   6.161   7.154  0.8900  0.2659  0.2242
  131MOL0     C17564   3.379   6.130   7.299  0.3690 -0.2250 -0.8620
  131MOL0     C17565   3.460   6.243   7.358 -0.4698  0.5162  0.4354
  131MOL0     C17566   3.606   6.258   7.310 -1.0492  0.2594 -1.0177
  131MOL0     N17567   3.679   6.144   7.360  0.0088  0.0762 -0.0577
  131MOL0     C17568   3.720   6.132   7.489 -0.2856 -0.8235 -0.8028
  131MOL0     C17569   3.782   6.014   7.485 -0.1253  0.3711  0.5531
  131MOL0     C17570   3.833   5.932   7.601 -0.4669  0.5305 -0.8162
  131MOL0     C17571   3.724   5.880   7.692 -0.1698  0.1593 -0.7143
  131MOL0     C17572   3.765   5.762   7.794  0.2016  0.2909 -0.0141
  131MOL0     C17573   3.900   5.788   7.869 -0.0484  0.1932  0.3666
  131MOL0     O17574   3.919   5.691   7.976  0.0238 -0.1107  0.2785
  131MOL0     C17575   4.041   5.706   8.037 -0.2557  0.2566 -0.1527
  131MOL0     C17576   4.141   5.799   8.010  0.4255 -0.1630  0.4245
  131MOL0     C17577   4.249   5.815   8.097  1.0132 -0.2085 -0.6426
  131MOL0     C17578   4.260   5.733   8.210  0.0106 -0.3231 -0.2219
  131MOL0     C17579   4.382   5.753   8.296  0.1824  1.1209 -0.1616
  131MOL0     O17580   4.496   5.799   8.243  0.5051  0.4351 -0.0766
  131MOL0     C17581   4.609   5.810   8.321  0.3112  0.7889 -0.2105
  131MOL0     C17582   4.621   5.897   8.429 -0.5436 -1.5049  0.2626
  131MOL0     C17583   4.750   5.941   8.474  0.8678  1.4051  0.6380
  131MOL0     C17584   4.864   5.884   8.413  0.6277 -0.8051  0.1285
  131MOL0     O17585   4.986   5.918   8.446 -0.8879  0.0978 -0.5119
  131MOL0     C17586   5.001   6.055   8.477 -0.3465 -0.2494 -1.4613
  131MOL0     C17587   5.144   6.086   8.439 -0.4160  0.2845  0.0207
  131MOL0     C17588   5.194   6.233   8.457  0.0370  0.4495 -0.8867
  131MOL0     C17589   5.335   6.250   8.407  0.3613  0.0389 -0.4340
  131MOL0     C17590   5.378   6.387   8.472  0.5192 -0.9038 -0.8058
  131MOL0     C17591   5.530   6.417   8.434  0.3342  0.6660 -0.4505
  131MOL0     C17592   5.632   6.313   8.498 -0.1800  0.4195  0.3624
  131MOL0     C17593   5.775   6.351   8.465 -0.5390  0.7204  0.0010
  131MOL0    Cl17594   5.820   6.513   8.531 -0.3116  0.6122  0.0181
  131MOL0     C17595   4.850   5.783   8.323  0.5708 -0.8259 -0.7791
  131MOL0     C17596   4.725   5.757   8.279 -0.6113  0.7288  0.0704
  131MOL0     O17597   4.374   5.699   8.410  0.5908  0.1240  0.3222
  131MOL0     C17598   4.159   5.633   8.240  0.2101 -0.0508 -0.6690
  131MOL0     C17599   4.051   5.625   8.147  0.5372 -0.1481 -0.5149
  131MOL0     N17600   3.780   5.958   7.359 -0.2938  0.1587 -0.1623
  131MOL0     N17601   3.715   6.037   7.282  0.1730 -0.1288 -1.0692
  131MOL0     C17602   2.880   5.630   6.716  0.2684  0.8350  0.1980
  131MOL0     C17603   2.754   5.580   6.762 -0.2986 -0.2926  0.0215
  131MOL0     C17604   2.358   5.517   6.999  0.7390  0.7163 -0.3171
  131MOL0     C17605   2.395   5.377   6.985 -1.0568 -0.0819  0.2317
  131MOL0     C17606   2.306   5.273   7.005  0.3299  1.3150 -0.4916
  131MOL0     C17607   2.174   5.294   7.048 -0.8335  0.1828 -0.4325
  131MOL0     O17608   2.096   5.186   7.084 -0.0828 -0.7147 -1.0258
  131MOL0     C17609   1.967   5.210   7.115  0.4882 -0.1700 -0.2647
  131MOL0     C17610   1.871   5.232   6.985  0.9269  0.5597  0.0703
  131MOL0     C17611   1.721   5.188   6.999 -0.9894 -0.4020  0.2418
  131MOL0     C17612   1.656   5.255   7.117 -0.0921 -1.5436 -0.5605
  131MOL0     C17613   1.580   5.156   7.195  0.8784  0.7250 -0.5303
  131MOL0     C17614   1.519   5.078   7.267 -0.4201  0.4024 -0.5581
  131MOL0     C17615   2.138   5.429   7.063  0.1888 -0.3464  0.0857
  131MOL0     C17616   2.224   5.542   7.044  0.7743  0.4812  0.0093
  131MOL0     C17617   2.168   5.678   7.045  0.3965 -0.1597  0.0437
  131MOL0     H17618   2.672   5.830   6.972 -1.0222  1.5595 -1.6474
  131MOL0     H17619   2.878   5.918   6.882  3.9577 -2.0690  0.3621
  131MOL0     H17620   3.169   5.947   6.682 -1.4687 -0.6795 -0.6542
  131MOL0     H17621   3.017   6.002   6.760 -1.6605 -0.5112 -0.9217
  131MOL0     H17622   3.226   5.819   6.889 -0.9509 -0.4089 -3.2809
  131MOL0     H17623   3.084   5.880   6.972 -0.1502 -2.6352 -0.9802
  131MOL0     H17624   3.151   6.105   6.940 -4.3746 -3.9602  0.0358
  131MOL0     H17625   3.308   6.069   6.870  2.4276  0.9561  2.4790
  131MOL0     H17626   3.224   5.963   7.146 -0.3607 -0.7119  0.9771
  131MOL0     H17627   3.391   5.978   7.066 -1.5846 -0.7675 -1.6713
  131MOL0     H17628   3.383   6.209   7.079 -1.9926  0.1265 -2.5336
  131MOL0     H17629   3.229   6.219   7.170 -0.0280 -1.8303  3.7420
  131MOL0     H17630   3.298   6.110   7.370  0.7857  1.9027  0.2779
  131MOL0     H17631   3.441   6.040   7.291  0.8290  0.1326 -1.3312
  131MOL0     H17632   3.464   6.231   7.467 -3.1095  0.0166  0.5546
  131MOL0     H17633   3.411   6.340   7.344  0.1260  0.6658 -0.6514
  131MOL0     H17634   3.607   6.249   7.201 -1.8106 -1.2540 -0.9216
  131MOL0     H17635   3.657   6.351   7.336  2.4051 -1.8237  0.2815
  131MOL0     H17636   3.708   6.208   7.566  1.6936 -0.4956 -0.7704
  131MOL0     H17637   3.883   5.855   7.542  0.6615  0.0436  0.7050
  131MOL0     H17638   3.901   5.989   7.666 -1.8786 -0.1110  1.3434
  131MOL0     H17639   3.690   5.961   7.757 -0.8856 -1.2045  0.7059
  131MOL0     H17640   3.648   5.843   7.622  0.6558 -0.9173 -1.0725
  131MOL0     H17641   3.761   5.667   7.740 -0.0114  0.3175 -0.0484
  131MOL0     H17642   3.689   5.757   7.873  1.6706 -1.9259  1.3570
  131MOL0     H17643   3.898   5.889   7.912 -0.9934 -0.0309  0.8704
  131MOL0     H17644   3.985   5.774   7.802 -0.1002 -1.3835  0.5966
  131MOL0     H17645   4.128   5.875   7.934  1.1191 -1.9240 -1.5647
  131MOL0     H17646   4.324   5.890   8.072 -0.1567  1.4463  0.5637
  131MOL0     H17647   4.524   5.930   8.465  0.2939  0.4717  0.8527
  131MOL0     H17648   4.757   6.008   8.559 -0.0566  0.5725  1.3892
  131MOL0     H17649   4.932   6.119   8.420 -0.3254  0.8323 -0.3062
  131MOL0     H17650   4.989   6.081   8.582 -0.2542 -1.8748 -1.0139
  131MOL0     H17651   5.209   6.017   8.493 -1.5066 -2.6809 -2.1699
  131MOL0     H17652   5.149   6.050   8.335  0.2133 -1.4188  0.6026
  131MOL0     H17653   5.120   6.301   8.413  0.2646  1.2913  0.0044
  131MOL0     H17654   5.191   6.243   8.566 -0.3085 -0.7191 -0.7731
  131MOL0     H17655   5.337   6.248   8.298 -0.0805 -3.1419 -0.4902
  131MOL0     H17656   5.396   6.164   8.438 -1.3756 -2.1783 -2.6979
  131MOL0     H17657   5.365   6.391   8.581 -1.6796  4.5257 -0.9109
  131MOL0     H17658   5.315   6.471   8.441  3.6019  2.1406  0.4747
  131MOL0     H17659   5.542   6.395   8.327  0.9134 -1.3375 -0.0216
  131MOL0     H17660   5.544   6.518   8.474  0.7567 -0.3957  2.2459
  131MOL0     H17661   5.622   6.213   8.457  0.1521  1.1175 -1.5263
  131MOL0     H17662   5.617   6.313   8.607  1.7824 -0.4789  0.6770
  131MOL0     H17663   5.846   6.272   8.492 -0.5736  0.9375  0.7379
  131MOL0     H17664   5.786   6.354   8.356 -1.9544 -1.4577 -0.2738
  131MOL0     H17665   4.933   5.733   8.275  0.6730 -0.6822 -0.7498
  131MOL0     H17666   4.710   5.686   8.197  0.0830  1.2132 -0.4886
  131MOL0     H17667   4.157   5.566   8.325  1.1462  1.0595  0.2577
  131MOL0     H17668   3.963   5.570   8.178  1.9236 -0.0206  4.7276
  131MOL0     H17669   2.933   5.586   6.632 -0.6521  1.3875 -0.6975
  131MOL0     H17670   2.707   5.498   6.709  2.4851 -0.8250 -1.8801
  131MOL0     H17671   2.497   5.352   6.959  0.5359  4.5685  0.9998
  131MOL0     H17672   2.333   5.169   6.985 -1.2942  0.7320  0.1495
  131MOL0     H17673   1.945   5.285   7.192 -2.1268 -1.4310  0.3424
  131MOL0     H17674   1.936   5.122   7.172  4.9442 -1.0479  1.1977
  131MOL0     H17675   1.919   5.180   6.902 -0.0664  0.8277 -0.6957
  131MOL0     H17676   1.879   5.335   6.948  0.7688  0.6708  0.3474
  131MOL0     H17677   1.714   5.079   7.006  1.4092 -0.6432 -0.0508
  131MOL0     H17678   1.663   5.227   6.915 -1.8826  1.1174  1.4973
  131MOL0     H17679   1.725   5.297   7.191 -1.0753 -1.7683  0.5134
  131MOL0     H17680   1.594   5.339   7.085 -0.3387 -1.2359  0.6801
  131MOL0     H17681   1.456   5.012   7.323 -1.5277  0.9552 -1.1141
  131MOL0     H17682   2.038   5.455   7.094  0.3178 -0.0758  0.2735
  131MOL0     H17683   2.195   5.742   6.960 -1.4926  2.5284  1.3052
  131MOL0     H17684   2.059   5.672   7.052 -0.2049  3.1169 -3.1044
  131MOL0     H17685   2.196   5.737   7.133  1.1731 -0.1345 -0.2099
  132MOL0     O17686   2.786  11.237   8.879  0.2070  0.1508 -0.0714
  132MOL0     C17687   2.824  11.351   8.896 -0.2578  0.4649  0.1809
  132MOL0     O17688   2.957  11.385   8.915 -0.7968 -0.2928  0.2534
  132MOL0     C17689   3.068  11.299   8.912  0.3726  0.0938  0.9896
  132MOL0     C17690   3.068  11.182   8.837 -0.5728 -0.5417  0.0189
  132MOL0     C17691   3.175  11.091   8.841  0.2729  0.1330  0.1561
  132MOL0     C17692   3.287  11.120   8.917  0.7014  0.6283  0.6454
  132MOL0     O17693   3.396  11.037   8.938  0.0193  0.3232 -0.3319
  132MOL0     C17694   3.417  10.915   8.865  0.0949 -0.3208 -0.3788
  132MOL0     C17695   3.561  10.867   8.887  0.3526 -0.3645  0.2180
  132MOL0     C17696   3.663  10.976   8.844  0.3384  0.3396  0.3106
  132MOL0     C17697   3.810  10.914   8.848 -0.7257  0.4478  0.2211
  132MOL0     C17698   3.918  10.998   8.779  0.3181 -0.6221 -0.6088
  132MOL0     C17699   4.052  10.923   8.769 -0.0227 -0.4150 -0.3426
  132MOL0     C17700   4.144  11.002   8.674  0.2305 -0.2343  0.7020
  132MOL0     C17701   4.295  10.974   8.666 -0.6637  0.2515  0.4358
  132MOL0     N17702   4.359  10.992   8.797  0.3444 -0.1495 -0.2873
  132MOL0     C17703   4.383  11.108   8.860  0.6738  0.1728 -0.1739
  132MOL0     C17704   4.454  11.068   8.973 -0.5594 -0.7492 -0.3475
  132MOL0     C17705   4.510  11.156   9.079  0.0217  0.2811 -0.2051
  132MOL0     C17706   4.452  11.115   9.207  0.2724  0.2596 -0.2190
  132MOL0     C17707   4.523  10.987   9.268 -0.1426 -0.3387 -0.0457
  132MOL0     C17708   4.478  10.949   9.409 -0.3192 -0.6176  0.4845
  132MOL0     O17709   4.516  11.048   9.508  1.2031 -0.5443 -0.3027
  132MOL0     C17710   4.644  11.041   9.563 -0.3131 -0.3607  0.2726
  132MOL0     C17711   4.753  10.949   9.539 -0.0847 -0.0004 -0.2988
  132MOL0     C17712   4.880  10.975   9.596 -0.1017 -0.3926  0.2374
  132MOL0     C17713   4.907  11.092   9.664  0.4391 -0.1248 -0.0910
  132MOL0     C17714   5.039  11.127   9.719 -0.3798 -0.9862  0.2553
  132MOL0     O17715   5.137  11.035   9.702  0.5229 -0.3677 -0.0157
  132MOL0     C17716   5.271  11.073   9.713 -0.3567  0.5904  0.2299
  132MOL0     C17717   5.331  11.186   9.653  0.1873  0.1035 -0.6986
  132MOL0     C17718   5.469  11.204   9.665 -0.8258  0.4310 -0.3558
  132MOL0     C17719   5.547  11.113   9.748 -0.5844  0.5237 -0.0260
  132MOL0     O17720   5.667  11.160   9.774 -0.2659 -0.1809 -0.6639
  132MOL0     C17721   5.753  11.087   9.862 -0.1563  0.3934 -0.8860
  132MOL0     C17722   5.864  11.180   9.912  0.3073 -0.3176  0.0743
  132MOL0     C17723   5.804  11.316   9.969 -0.6040  0.2529  0.0555
  132MOL0     C17724   5.917  11.422   9.979  0.4612 -0.2013  0.1433
  132MOL0     C17725   5.870  11.558  10.044 -0.4140  0.4083 -0.9944
  132MOL0     C17726   5.986  11.645  10.083 -0.2729  0.6333 -0.3165
  132MOL0     C17727   5.935  11.785  10.119  0.3185  0.4804  0.3575
  132MOL0     C17728   6.016  11.886  10.190 -0.6746  0.5850 -0.1584
  132MOL0    Cl17729   6.194  11.890  10.137 -0.1527  0.2099 -0.0917
  132MOL0     C17730   5.489  11.000   9.790 -0.5203  0.0030 -0.9932
  132MOL0     C17731   5.356  10.979   9.772 -0.5091 -0.3676 -0.5180
  132MOL0     O17732   5.060  11.237   9.772 -0.1409 -0.1020  0.1614
  132MOL0     C17733   4.796  11.175   9.698  0.6538  1.3541  0.3678
  132MOL0     C17734   4.671  11.149   9.653  0.4087 -0.6759 -0.5312
  132MOL0     N17735   4.474  10.931   8.957  0.4255 -0.6913 -0.5099
  132MOL0     N17736   4.414  10.890   8.854  0.1874  0.3317 -0.5259
  132MOL0     C17737   3.295  11.238   8.982  0.6117 -0.2010  0.9597
  132MOL0     C17738   3.188  11.329   8.974  0.2649 -0.4728 -0.0280
  132MOL0     C17739   2.724  11.456   8.894  0.0489  0.0226  0.5530
  132MOL0     C17740   2.654  11.483   8.771  0.0788  0.1938 -0.2203
  132MOL0     C17741   2.564  11.587   8.770  0.5280  0.3320  0.4737
  132MOL0     C17742   2.544  11.669   8.879 -0.3132  0.1716  0.8571
  132MOL0     O17743   2.453  11.766   8.873 -0.4524  0.1928 -0.3512
  132MOL0     C17744   2.406  11.836   8.991 -0.1330 -0.5690 -0.1855
  132MOL0     C17745   2.274  11.913   8.954 -0.2360 -1.3933 -0.3161
  132MOL0     C17746   2.150  11.829   8.926 -0.7187 -0.2858 -0.4424
  132MOL0     C17747   2.016  11.916   8.909 -0.0324  0.2264 -0.0015
  132MOL0     C17748   1.910  11.831   8.847 -1.2122  0.8712 -0.0354
  132MOL0     C17749   1.831  11.759   8.785  0.4346  0.0816 -0.4629
  132MOL0     C17750   2.616  11.644   8.991  0.3946 -0.1811  0.1941
  132MOL0     C17751   2.706  11.537   9.006 -0.9023 -0.7110  0.6449
  132MOL0     C17752   2.773  11.521   9.129 -0.4504  0.4413 -0.6587
  132MOL0     H17753   2.994  11.168   8.759  0.9209  1.4756 -1.8984
  132MOL0     H17754   3.172  11.009   8.771  0.1947  1.1956 -1.1327
  132MOL0     H17755   3.341  10.842   8.894  0.4153  0.0967  1.7040
  132MOL0     H17756   3.411  10.933   8.757  2.1152 -2.8372 -1.0071
  132MOL0     H17757   3.576  10.775   8.831  2.0356  0.7726 -1.3027
  132MOL0     H17758   3.585  10.842   8.991 -1.4855 -0.2331  0.7143
  132MOL0     H17759   3.661  11.056   8.918  1.7846 -1.0131  1.8821
  132MOL0     H17760   3.641  11.005   8.741  3.5705  0.8059 -0.3661
  132MOL0     H17761   3.848  10.886   8.947 -0.8191 -2.5516 -0.4841
  132MOL0     H17762   3.794  10.817   8.799 -0.1821  0.4764 -0.0301
  132MOL0     H17763   3.882  11.023   8.678 -0.5272  2.2006  0.3074
  132MOL0     H17764   3.935  11.092   8.831  0.0904  0.3097 -2.1429
  132MOL0     H17765   4.098  10.912   8.868 -0.1100 -0.4277 -0.3041
  132MOL0     H17766   4.037  10.821   8.732  1.3624 -0.7119 -0.1553
  132MOL0     H17767   4.128  11.110   8.680 -0.5503 -0.3327  0.5236
  132MOL0     H17768   4.102  10.971   8.577 -0.0168  4.1485 -0.8490
  132MOL0     H17769   4.305  10.875   8.621 -2.4684  0.5839 -0.8258
  132MOL0     H17770   4.344  11.047   8.601 -1.0516  1.2520  1.2403
  132MOL0     H17771   4.353  11.209   8.833 -0.1617 -0.6053 -2.2938
  132MOL0     H17772   4.619  11.149   9.074  0.1314  1.5615 -5.0327
  132MOL0     H17773   4.475  11.255   9.049 -1.4449 -1.3835 -5.1046
  132MOL0     H17774   4.492  11.201   9.261  0.9527  1.0020 -1.8123
  132MOL0     H17775   4.343  11.108   9.203  0.3161 -1.3948  0.6996
  132MOL0     H17776   4.631  11.002   9.280 -0.5631  4.4210 -0.3143
  132MOL0     H17777   4.506  10.907   9.195  0.8046  0.5130 -1.2399
  132MOL0     H17778   4.533  10.859   9.439  1.4490  1.4525  4.2071
  132MOL0     H17779   4.370  10.932   9.409 -0.3838 -0.3631  2.0081
  132MOL0     H17780   4.749  10.850   9.495  1.7227  0.6262 -2.0686
  132MOL0     H17781   4.951  10.893   9.593 -0.7466 -0.9243 -0.9388
  132MOL0     H17782   5.278  11.262   9.597  1.9761  3.6973  2.0756
  132MOL0     H17783   5.519  11.297   9.638  1.3722 -0.2836  0.9373
  132MOL0     H17784   5.702  11.041   9.947 -1.1822  0.2595 -1.5631
  132MOL0     H17785   5.793  11.005   9.802  0.7016  0.4019 -0.3508
  132MOL0     H17786   5.937  11.145   9.986  1.1151 -0.5071 -0.7935
  132MOL0     H17787   5.924  11.211   9.826 -0.3006  0.2317 -0.1600
  132MOL0     H17788   5.734  11.361   9.899  1.1170  0.1283 -1.8624
  132MOL0     H17789   5.768  11.301  10.071  0.1555  4.7013  1.2085
  132MOL0     H17790   5.962  11.443   9.882  2.3021  1.6562  1.3280
  132MOL0     H17791   5.997  11.385  10.044  0.0109 -1.6038 -0.0621
  132MOL0     H17792   5.825  11.539  10.141  0.4500 -1.0466 -0.8507
  132MOL0     H17793   5.801  11.612   9.978 -0.2908  1.2463 -0.4601
  132MOL0     H17794   6.042  11.598  10.164  1.2032 -0.6930 -2.0088
  132MOL0     H17795   6.062  11.648  10.004  1.7240 -1.3623  1.3900
  132MOL0     H17796   5.852  11.762  10.185  0.9438  2.3981  1.8754
  132MOL0     H17797   5.888  11.839  10.036  0.0557  2.2210  1.6015
  132MOL0     H17798   5.963  11.981  10.194 -0.2184  0.8005  3.1956
  132MOL0     H17799   6.022  11.861  10.296  1.7907  0.2208 -0.3079
  132MOL0     H17800   5.544  10.925   9.846 -0.1191  0.0041 -1.3802
  132MOL0     H17801   5.313  10.889   9.815 -0.9398 -0.9679 -2.1080
  132MOL0     H17802   4.814  11.267   9.751  0.9925  1.5361 -0.0553
  132MOL0     H17803   4.589  11.216   9.679  2.2960  1.8714 -0.7799
  132MOL0     H17804   3.388  11.273   9.026  2.4531  1.3758 -3.5423
  132MOL0     H17805   3.192  11.425   9.025 -1.6086 -0.9484  1.0815
  132MOL0     H17806   2.671  11.428   8.679  1.9262 -0.1881  0.3070
  132MOL0     H17807   2.494  11.603   8.690  2.0416  0.0718 -0.9667
  132MOL0     H17808   2.481  11.907   9.026 -1.2044 -1.1986  4.0899
  132MOL0     H17809   2.400  11.768   9.077  2.0582 -2.5764 -1.4977
  132MOL0     H17810   2.300  11.985   8.876  2.1227 -0.9611  0.7915
  132MOL0     H17811   2.251  11.977   9.039  0.0121 -0.5113 -0.8960
  132MOL0     H17812   2.143  11.756   9.007  1.2466  0.3903  0.3923
  132MOL0     H17813   2.167  11.781   8.829 -2.5345  0.2720 -1.0746
  132MOL0     H17814   1.982  11.951   9.007 -5.3848 -0.6098 -1.2332
  132MOL0     H17815   2.032  11.995   8.835 -2.9913  0.1494 -0.8221
  132MOL0     H17816   1.751  11.700   8.746  0.6133 -0.3091 -0.2401
  132MOL0     H17817   2.606  11.709   9.077  1.2321  0.2407 -0.0104
  132MOL0     H17818   2.860  11.588   9.128  0.2418 -0.3814 -2.9457
  132MOL0     H17819   2.705  11.548   9.210 -0.3680  0.9971 -0.7698
  132MOL0     H17820   2.801  11.416   9.142 -0.8822  0.4410  0.3385
  133MOL0     O17821   4.189   1.844   5.434 -0.0041 -0.0868  0.1191
  133MOL0     C17822   4.198   1.761   5.344  1.0591 -0.9584 -0.0543
  133MOL0     O17823   4.122   1.768   5.234  0.3135  0.3552 -0.0589
  133MOL0     C17824   4.020   1.857   5.230  0.4548  1.1688 -0.3008
  133MOL0     C17825   3.888   1.812   5.242 -0.2534  0.2406  0.4438
  133MOL0     C17826   3.798   1.916   5.260  0.0436  0.7603 -0.1131
  133MOL0     C17827   3.832   2.052   5.250 -0.6007 -0.5626  0.3472
  133MOL0     O17828   3.746   2.155   5.280  0.0033  0.1853 -0.4054
  133MOL0     C17829   3.604   2.152   5.259  0.2687 -0.4196  0.1295
  133MOL0     C17830   3.520   2.244   5.346 -0.2674  0.4473  0.9148
  133MOL0     C17831   3.577   2.384   5.330 -0.4624 -0.8912 -0.1941
  133MOL0     C17832   3.513   2.480   5.432 -0.3161  0.1689 -0.8325
  133MOL0     C17833   3.572   2.623   5.416  0.5242 -0.6664  0.4255
  133MOL0     C17834   3.533   2.723   5.526 -0.2946  0.2533  0.2961
  133MOL0     C17835   3.547   2.865   5.472 -0.1121  0.7915 -0.0651
  133MOL0     C17836   3.697   2.907   5.461 -0.9012  0.2440 -0.0276
  133MOL0     N17837   3.778   2.910   5.582  0.0097  0.5466  0.0098
  133MOL0     C17838   3.881   2.824   5.619 -0.2265 -0.4757  0.6827
  133MOL0     C17839   3.928   2.874   5.734 -0.7098  0.3996  0.2336
  133MOL0     C17840   4.033   2.834   5.832 -0.6992 -0.2837 -0.3514
  133MOL0     C17841   4.163   2.799   5.759  0.0373  0.4443  0.7820
  133MOL0     C17842   4.234   2.905   5.671  0.8445  0.5624 -1.1191
  133MOL0     C17843   4.380   2.855   5.648  0.6780  0.3568  0.2225
  133MOL0     O17844   4.380   2.733   5.568  0.2957  0.1334 -0.2236
  133MOL0     C17845   4.497   2.660   5.549 -0.8047 -0.5999  0.5010
  133MOL0     C17846   4.489   2.552   5.461 -0.4662 -0.2661  0.5464
  133MOL0     C17847   4.593   2.467   5.445  0.4131  0.6312  0.7071
  133MOL0     C17848   4.712   2.488   5.519  0.5851 -0.0669  0.0811
  133MOL0     C17849   4.821   2.390   5.504  1.3694 -0.2387 -0.5048
  133MOL0     O17850   4.819   2.288   5.412 -0.3027  0.9393 -0.0608
  133MOL0     C17851   4.915   2.188   5.399 -0.8049  0.3259 -0.3258
  133MOL0     C17852   5.035   2.170   5.476 -0.2533 -0.6256 -1.1475
  133MOL0     C17853   5.114   2.060   5.449 -0.7676 -0.0250 -0.2113
  133MOL0     C17854   5.089   1.974   5.342 -0.1722 -0.6406  0.4562
  133MOL0     O17855   5.188   1.881   5.325  0.5592  0.1394  0.3831
  133MOL0     C17856   5.142   1.765   5.252  0.1732  0.6349  0.4774
  133MOL0     C17857   5.244   1.650   5.259 -0.0743  0.3764 -0.1364
  133MOL0     C17858   5.354   1.682   5.163 -0.0750  0.4786 -0.5628
  133MOL0     C17859   5.419   1.809   5.186 -0.0561 -0.1909 -0.4620
  133MOL0     C17860   5.552   1.791   5.122  0.6567  0.3504 -0.4870
  133MOL0     C17861   5.664   1.712   5.199  0.2497  0.0807  0.1244
  133MOL0     C17862   5.810   1.770   5.192  0.5948  0.3657 -0.3037
  133MOL0     C17863   5.851   1.824   5.059 -0.0937 -0.4077 -0.0935
  133MOL0    Cl17864   6.012   1.872   5.051 -0.3441  0.1559 -0.3265
  133MOL0     C17865   4.977   1.993   5.260  0.5291 -0.5982 -0.0965
  133MOL0     C17866   4.887   2.099   5.297  0.2562 -0.7010  0.0396
  133MOL0     O17867   4.911   2.408   5.584  0.0730  0.7034  0.4063
  133MOL0     C17868   4.720   2.594   5.611 -0.4307 -0.8549  0.7475
  133MOL0     C17869   4.620   2.692   5.616  0.2211  0.9148 -1.2399
  133MOL0     N17870   3.867   2.996   5.756  0.0901 -0.0801 -0.2735
  133MOL0     N17871   3.769   3.004   5.669  0.3939  0.5072 -0.2236
  133MOL0     C17872   3.960   2.084   5.202 -0.1598  0.2943  0.7105
  133MOL0     C17873   4.058   1.986   5.202  0.9723  0.3075 -0.6996
  133MOL0     C17874   4.315   1.673   5.343  0.2334 -0.3715  0.6413
  133MOL0     C17875   4.381   1.650   5.219  0.5923 -0.3394  0.3092
  133MOL0     C17876   4.491   1.565   5.205  0.2333  0.3261 -0.9333
  133MOL0     C17877   4.537   1.504   5.318  0.3126  0.5088 -0.2399
  133MOL0     O17878   4.640   1.413   5.319 -0.5473 -0.5265  0.3831
  133MOL0     C17879   4.739   1.437   5.218  0.6149  0.3766 -0.4179
  133MOL0     C17880   4.852   1.326   5.228  0.3410  0.6495  0.3722
  133MOL0     C17881   4.961   1.358   5.129 -0.5284  0.2306 -0.0439
  133MOL0     C17882   5.092   1.280   5.172  0.2703 -0.5192  1.1829
  133MOL0     C17883   5.193   1.285   5.057  0.3205 -1.0245 -0.1901
  133MOL0     C17884   5.276   1.301   4.969 -0.5038  0.1005 -0.7668
  133MOL0     C17885   4.463   1.513   5.438 -0.6476 -0.6240  0.1864
  133MOL0     C17886   4.359   1.604   5.456  0.6082  0.4180 -1.3591
  133MOL0     C17887   4.299   1.613   5.596 -0.3487  0.6110  0.4470
  133MOL0     H17888   3.867   1.707   5.256 -0.4533  0.3350  0.8689
  133MOL0     H17889   3.700   1.881   5.288  0.1294  0.5728 -0.0509
  133MOL0     H17890   3.591   2.178   5.153  0.6365 -2.0062 -0.3437
  133MOL0     H17891   3.563   2.051   5.270 -1.3366  0.3077  1.2125
  133MOL0     H17892   3.522   2.208   5.450 -1.9436  0.5892  1.0254
  133MOL0     H17893   3.416   2.233   5.315  1.4729 -0.5621 -6.2931
  133MOL0     H17894   3.557   2.425   5.231  1.7867 -0.5683 -0.5800
  133MOL0     H17895   3.686   2.391   5.338 -0.1069 -1.7496 -3.1947
  133MOL0     H17896   3.404   2.484   5.436 -0.2969  3.2477 -0.8700
  133MOL0     H17897   3.547   2.447   5.531  1.0661 -0.2079 -1.4018
  133MOL0     H17898   3.681   2.617   5.416  0.4941 -1.5544 -0.5143
  133MOL0     H17899   3.537   2.660   5.319  1.0029  1.9163  1.1474
  133MOL0     H17900   3.430   2.699   5.551  0.5096 -3.1903  0.7389
  133MOL0     H17901   3.584   2.700   5.621 -1.8140 -1.5934  0.7201
  133MOL0     H17902   3.497   2.932   5.542  2.8251  3.2705 -0.1241
  133MOL0     H17903   3.484   2.881   5.384  0.2909  4.3837  0.1473
  133MOL0     H17904   3.755   2.845   5.392 -3.4008  1.4818 -3.4890
  133MOL0     H17905   3.689   3.008   5.419 -0.7838  0.0343 -0.5478
  133MOL0     H17906   3.919   2.743   5.559 -2.7334 -1.6178  0.4875
  133MOL0     H17907   4.060   2.911   5.904 -0.2258 -1.6519  0.9715
  133MOL0     H17908   4.011   2.747   5.895  1.0913 -0.6385 -0.1834
  133MOL0     H17909   4.245   2.763   5.823  0.3616 -2.3165 -1.0030
  133MOL0     H17910   4.146   2.719   5.686  1.1979  2.6519 -2.0778
  133MOL0     H17911   4.226   3.006   5.712  1.8331 -0.3781  1.6333
  133MOL0     H17912   4.193   2.902   5.570  3.2773  1.3535 -2.2126
  133MOL0     H17913   4.442   2.853   5.738  0.7743 -1.0558  0.1542
  133MOL0     H17914   4.427   2.935   5.590  0.5046  0.2854 -0.0176
  133MOL0     H17915   4.386   2.530   5.432 -0.9909  0.1829  2.0019
  133MOL0     H17916   4.575   2.382   5.380  0.3054  0.9004  0.3826
  133MOL0     H17917   5.064   2.232   5.560 -0.0326 -2.8997  0.5390
  133MOL0     H17918   5.204   2.045   5.508 -0.6198  1.1787 -0.1051
  133MOL0     H17919   5.048   1.722   5.288  0.5297  1.0015  1.9158
  133MOL0     H17920   5.126   1.787   5.146 -0.8080 -1.8305  0.0560
  133MOL0     H17921   5.295   1.646   5.356 -1.0253 -1.7613  0.3333
  133MOL0     H17922   5.200   1.553   5.233 -2.8216  1.9753 -1.8459
  133MOL0     H17923   5.420   1.595   5.161 -0.4892 -0.1194  3.1288
  133MOL0     H17924   5.308   1.700   5.066  0.6297 -1.6686 -1.3228
  133MOL0     H17925   5.418   1.843   5.290 -4.0730  1.9807 -0.9996
  133MOL0     H17926   5.367   1.892   5.138 -0.0267 -0.2310 -0.5622
  133MOL0     H17927   5.576   1.897   5.110  0.0301  0.4567 -0.8380
  133MOL0     H17928   5.537   1.762   5.017 -0.8494 -0.0036 -0.1900
  133MOL0     H17929   5.644   1.719   5.306  4.5022 -0.2684  1.1498
  133MOL0     H17930   5.669   1.609   5.163  0.6626  0.0026  0.4012
  133MOL0     H17931   5.884   1.692   5.211  0.6450  0.1995 -1.1569
  133MOL0     H17932   5.819   1.855   5.260  1.6363  1.8612 -2.2040
  133MOL0     H17933   5.825   1.758   4.977 -1.3677  2.0267 -1.7696
  133MOL0     H17934   5.789   1.914   5.055  2.3226  1.3315 -1.0935
  133MOL0     H17935   4.945   1.925   5.181 -0.9615 -1.4735  1.2078
  133MOL0     H17936   4.790   2.108   5.248  0.4135 -1.2342 -0.3811
  133MOL0     H17937   4.805   2.602   5.678 -0.7541  0.8290  1.0070
  133MOL0     H17938   4.640   2.770   5.688  1.7046 -0.4474 -0.1017
  133MOL0     H17939   3.980   2.191   5.196 -3.4981  1.0582  1.2202
  133MOL0     H17940   4.164   2.008   5.196  1.1236 -0.3146 -0.4461
  133MOL0     H17941   4.359   1.710   5.131  0.0306  0.2175  0.8281
  133MOL0     H17942   4.529   1.548   5.105  0.7056  1.3680 -0.9472
  133MOL0     H17943   4.792   1.531   5.238  0.5534  0.4289 -0.5012
  133MOL0     H17944   4.691   1.433   5.120 -1.1022 -1.2728  0.4205
  133MOL0     H17945   4.806   1.232   5.197  1.2987  0.6208 -1.0932
  133MOL0     H17946   4.885   1.313   5.331  1.2249  1.4806  0.2157
  133MOL0     H17947   4.986   1.464   5.128  0.6886 -0.0132 -2.7383
  133MOL0     H17948   4.915   1.319   5.038 -2.8550  2.7495 -0.0749
  133MOL0     H17949   5.139   1.332   5.256 -0.7575  1.6885  0.4481
  133MOL0     H17950   5.076   1.175   5.198  0.3541 -1.1908 -1.2724
  133MOL0     H17951   5.350   1.322   4.894  0.6940 -0.8956  0.0906
  133MOL0     H17952   4.507   1.473   5.529 -0.1071  1.4768  0.9234
  133MOL0     H17953   4.275   1.716   5.628 -1.4371  0.2322  0.9163
  133MOL0     H17954   4.198   1.570   5.596  1.2556 -3.6133  1.1858
  133MOL0     H17955   4.371   1.576   5.669 -1.1935  0.1396  1.0532
  134MOL0     O17956   1.490  11.172   7.322 -0.0627 -0.6328 -0.7381
  134MOL0     C17957   1.448  11.126   7.426 -0.2331 -0.3382  0.1051
  134MOL0     O17958   1.503  11.142   7.552 -0.0222 -0.3169 -0.0294
  134MOL0     C17959   1.637  11.159   7.573 -0.0983  0.2980  0.7635
  134MOL0     C17960   1.706  11.048   7.629  0.7162 -0.0891  0.0113
  134MOL0     C17961   1.835  11.062   7.662  0.0930  0.0503 -0.8725
  134MOL0     C17962   1.905  11.176   7.638  0.4610 -0.2396  0.4152
  134MOL0     O17963   2.029  11.208   7.687  0.6187 -0.4785  0.1779
  134MOL0     C17964   2.146  11.161   7.630 -0.8147 -0.1601  0.0348
  134MOL0     C17965   2.210  11.269   7.534 -0.8118  0.2099  0.4011
  134MOL0     C17966   2.344  11.220   7.472  0.1468 -0.2704 -0.3297
  134MOL0     C17967   2.414  11.345   7.419  0.0371  0.2513  0.2953
  134MOL0     C17968   2.547  11.322   7.337  0.1952  0.1739  0.2883
  134MOL0     C17969   2.645  11.257   7.430  0.0119  0.0632 -0.3727
  134MOL0     C17970   2.788  11.292   7.387  0.0495 -0.0263  0.0130
  134MOL0     C17971   2.901  11.234   7.479  1.2141  0.5912 -0.7204
  134MOL0     N17972   3.037  11.244   7.444 -0.7516  0.3598 -0.5574
  134MOL0     C17973   3.083  11.201   7.319  0.6659  0.3065 -0.7414
  134MOL0     C17974   3.204  11.149   7.340 -0.1591  0.1295 -0.7833
  134MOL0     C17975   3.298  11.078   7.246  0.7991  0.9705 -0.5448
  134MOL0     C17976   3.362  11.159   7.130 -0.2861  0.9509  0.6260
  134MOL0     C17977   3.486  11.089   7.056  0.3826 -0.0555 -1.5294
  134MOL0     C17978   3.611  11.140   7.129  0.3090 -0.3139  1.0426
  134MOL0     O17979   3.720  11.071   7.070  0.0474  0.2675  0.4443
  134MOL0     C17980   3.845  11.138   7.071 -0.1447 -0.3932  0.2872
  134MOL0     C17981   3.952  11.073   7.015  0.3681 -0.4127  0.2418
  134MOL0     C17982   4.077  11.127   7.013 -0.9902  0.7237  0.6043
  134MOL0     C17983   4.106  11.254   7.062 -0.5877 -0.5372 -0.4442
  134MOL0     C17984   4.243  11.309   7.085 -0.4223 -0.0436  0.3780
  134MOL0     O17985   4.330  11.250   7.000  0.2844 -0.2921 -0.2383
  134MOL0     C17986   4.453  11.301   6.975 -0.4522  0.1556 -0.7981
  134MOL0     C17987   4.492  11.442   6.956  0.2184  1.0241  0.0993
  134MOL0     C17988   4.622  11.480   6.906  0.5905 -0.2057  0.4452
  134MOL0     C17989   4.714  11.376   6.882  0.0120 -0.3328  0.5538
  134MOL0     O17990   4.832  11.420   6.832 -0.4148  0.6112 -0.0773
  134MOL0     C17991   4.944  11.335   6.863 -1.0850  0.6444 -0.5601
  134MOL0     C17992   5.061  11.417   6.844  0.1187 -0.0380 -0.3012
  134MOL0     C17993   5.188  11.327   6.848 -0.2780  0.4952  0.4217
  134MOL0     C17994   5.293  11.402   6.752  0.2928 -0.5933 -0.1563
  134MOL0     C17995   5.439  11.366   6.762 -0.9170 -0.1342 -0.0182
  134MOL0     C17996   5.536  11.471   6.686 -0.3697 -0.1283  0.2403
  134MOL0     C17997   5.505  11.507   6.537 -1.4379  0.6604 -0.5422
  134MOL0     C17998   5.556  11.404   6.445 -0.2214 -0.3018 -0.4637
  134MOL0    Cl17999   5.453  11.254   6.438  0.0253  0.0039  0.2770
  134MOL0     C18000   4.678  11.241   6.892 -0.0121  1.0538  0.5263
  134MOL0     C18001   4.551  11.200   6.947 -0.5512 -0.7767 -1.2140
  134MOL0     O18002   4.269  11.398   7.163  0.1799 -0.8850 -0.6048
  134MOL0     C18003   4.000  11.319   7.126 -0.5203  0.2258 -0.3176
  134MOL0     C18004   3.874  11.262   7.132  0.3824  0.6744  0.4091
  134MOL0     N18005   3.238  11.191   7.464  1.1236 -0.2074 -0.0664
  134MOL0     N18006   3.141  11.254   7.527 -1.1091  0.8411 -0.1367
  134MOL0     C18007   1.848  11.280   7.577 -0.6020 -0.1771 -0.0190
  134MOL0     C18008   1.710  11.278   7.548  0.0627 -0.8848  0.1967
  134MOL0     C18009   1.320  11.053   7.423  0.2299  0.6580  0.3111
  134MOL0     C18010   1.251  11.023   7.544  0.0407 -0.8639  0.2915
  134MOL0     C18011   1.117  10.978   7.543 -0.6334 -0.0525  0.6749
  134MOL0     C18012   1.059  10.934   7.424 -1.2059 -0.4630 -0.6085
  134MOL0     O18013   0.933  10.882   7.434 -0.2953  0.7628 -0.6698
  134MOL0     C18014   0.879  10.827   7.316  0.6297  0.5287 -0.5931
  134MOL0     C18015   0.722  10.795   7.333 -0.2513 -0.5783 -0.0003
  134MOL0     C18016   0.686  10.672   7.419 -0.1223 -0.5794 -0.1106
  134MOL0     C18017   0.538  10.655   7.438 -0.4200  0.9088 -0.0172
  134MOL0     C18018   0.469  10.632   7.307 -0.5379  0.4971 -0.2102
  134MOL0     C18019   0.409  10.625   7.204 -0.0138 -0.3094 -0.4377
  134MOL0     C18020   1.144  10.938   7.308 -0.0660  0.5631 -0.5619
  134MOL0     C18021   1.265  10.998   7.304  0.0080  0.2013  0.1071
  134MOL0     C18022   1.350  10.967   7.183 -0.4529  0.6903 -0.7028
  134MOL0     H18023   1.640  10.963   7.647 -0.4142  0.7211 -0.1831
  134MOL0     H18024   1.876  10.985   7.726 -0.7707  0.5398  0.3158
  134MOL0     H18025   2.217  11.147   7.711 -0.0514 -2.4240 -0.9259
  134MOL0     H18026   2.136  11.063   7.581 -0.4320 -0.6328  0.8798
  134MOL0     H18027   2.228  11.359   7.593 -1.0470  2.1895 -2.3319
  134MOL0     H18028   2.143  11.300   7.453  2.2417 -0.9234 -2.8266
  134MOL0     H18029   2.307  11.161   7.388 -3.3488  1.0714  0.0971
  134MOL0     H18030   2.403  11.161   7.543 -0.1045 -0.7853 -0.5420
  134MOL0     H18031   2.340  11.390   7.352 -0.5472 -2.8241 -1.3437
  134MOL0     H18032   2.422  11.405   7.510  1.2177 -1.2667  1.2616
  134MOL0     H18033   2.530  11.257   7.251 -0.2053  1.4369 -0.6197
  134MOL0     H18034   2.579  11.420   7.300  1.2010 -0.7024 -1.2600
  134MOL0     H18035   2.620  11.282   7.533 -1.5809 -1.0544 -0.4542
  134MOL0     H18036   2.643  11.148   7.424 -1.6475  0.0068  0.7142
  134MOL0     H18037   2.795  11.401   7.391 -3.4477  0.2557  1.9879
  134MOL0     H18038   2.801  11.247   7.288 -0.8465 -0.2963  0.0070
  134MOL0     H18039   2.881  11.271   7.580 -2.1223  1.6443 -1.6409
  134MOL0     H18040   2.875  11.128   7.470  0.2773  0.8957 -2.0593
  134MOL0     H18041   3.020  11.198   7.231 -0.8334 -0.0813  0.3054
  134MOL0     H18042   3.374  11.019   7.298 -0.7317 -0.6837 -0.0496
  134MOL0     H18043   3.237  11.000   7.200  1.4172 -0.3271  0.7636
  134MOL0     H18044   3.281  11.172   7.057  0.9039 -1.7704 -1.3800
  134MOL0     H18045   3.399  11.254   7.168  2.0611  1.1137 -1.7891
  134MOL0     H18046   3.487  11.121   6.951 -2.5848  1.7134 -1.1581
  134MOL0     H18047   3.484  10.980   7.060  2.1592 -0.0844 -0.1186
  134MOL0     H18048   3.590  11.119   7.234 -0.9138 -0.7507  0.7248
  134MOL0     H18049   3.621  11.249   7.123 -1.7037 -0.1256  0.3075
  134MOL0     H18050   3.928  10.978   6.967  0.7946  0.4161 -1.7335
  134MOL0     H18051   4.143  11.068   6.950  0.5247  0.4133  2.4092
  134MOL0     H18052   4.431  11.532   6.964  0.0154  1.0648 -1.6029
  134MOL0     H18053   4.646  11.585   6.897 -1.1117  0.4648  2.6404
  134MOL0     H18054   4.950  11.289   6.962 -0.6205  2.8660  0.5078
  134MOL0     H18055   4.953  11.258   6.786  2.2796 -1.0339  1.2929
  134MOL0     H18056   5.055  11.464   6.745  3.4973 -2.5953 -1.9184
  134MOL0     H18057   5.054  11.492   6.924  0.3443  0.0686 -0.3809
  134MOL0     H18058   5.208  11.312   6.954 -0.9519  0.8914  0.6133
  134MOL0     H18059   5.158  11.231   6.807 -3.0733  1.7475 -0.7309
  134MOL0     H18060   5.279  11.511   6.755 -0.9062 -0.7252 -0.4489
  134MOL0     H18061   5.274  11.384   6.646  1.8441  0.6336 -0.6918
  134MOL0     H18062   5.449  11.262   6.729 -3.4468 -1.1522  2.0847
  134MOL0     H18063   5.475  11.369   6.865  1.3646  1.2565 -0.7733
  134MOL0     H18064   5.558  11.562   6.744 -1.2738 -1.7780  3.3910
  134MOL0     H18065   5.634  11.423   6.686  0.1825  0.8559 -1.7872
  134MOL0     H18066   5.561  11.597   6.512  3.2133 -1.8970 -0.3839
  134MOL0     H18067   5.399  11.525   6.518 -2.2272  0.9132  3.3561
  134MOL0     H18068   5.568  11.447   6.345  2.1129  0.4291  0.0569
  134MOL0     H18069   5.657  11.368   6.467 -0.3353 -0.9877 -1.0221
  134MOL0     H18070   4.747  11.162   6.867  0.8676  1.4769  1.5029
  134MOL0     H18071   4.526  11.094   6.954  3.3984 -1.7474  0.6296
  134MOL0     H18072   4.009  11.414   7.177  0.5830 -0.6940  1.2843
  134MOL0     H18073   3.802  11.310   7.197  0.4121  0.7093  0.4162
  134MOL0     H18074   1.910  11.366   7.553  2.8581 -2.6151 -0.6070
  134MOL0     H18075   1.659  11.350   7.485  1.8957 -1.1603 -1.7169
  134MOL0     H18076   1.302  11.052   7.635  0.1863  2.4937 -0.7271
  134MOL0     H18077   1.066  10.974   7.639  0.0345  1.5585  1.1279
  134MOL0     H18078   0.938  10.736   7.304 -0.9837 -0.4145 -1.7508
  134MOL0     H18079   0.900  10.892   7.231  1.2393  0.7499 -0.2823
  134MOL0     H18080   0.674  10.784   7.235  0.6046  1.2995 -0.6886
  134MOL0     H18081   0.672  10.882   7.376 -0.4327 -0.0821 -1.1740
  134MOL0     H18082   0.734  10.688   7.516  1.5883 -0.7935 -0.8728
  134MOL0     H18083   0.735  10.585   7.374 -0.5448  0.2067 -2.2133
  134MOL0     H18084   0.513  10.574   7.507  0.5283 -2.3460 -3.1984
  134MOL0     H18085   0.498  10.752   7.471 -2.0592  0.6949 -1.2545
  134MOL0     H18086   0.355  10.615   7.112 -0.6869  0.2553 -0.1177
  134MOL0     H18087   1.112  10.889   7.216 -1.0656  0.6829 -0.2892
  134MOL0     H18088   1.319  11.031   7.100  0.9763  1.1126 -0.9473
  134MOL0     H18089   1.456  10.966   7.211 -1.1659 -0.8447  2.5271
  134MOL0     H18090   1.322  10.864   7.160  3.1486 -0.7105  0.5514
  135MOL0     O18091   2.637   0.540   7.839  0.9070  0.3503 -0.8939
  135MOL0     C18092   2.685   0.423   7.814  1.0359 -0.6593  0.3609
  135MOL0     O18093   2.614   0.303   7.823 -0.5377  0.6868  0.7800
  135MOL0     C18094   2.480   0.307   7.848  0.1767 -0.5591 -0.0667
  135MOL0     C18095   2.398   0.310   7.740  0.1393 -1.0571 -0.4465
  135MOL0     C18096   2.259   0.306   7.767  0.0864 -1.0383 -0.0230
  135MOL0     C18097   2.202   0.306   7.899 -0.9185 -0.3975 -0.0364
  135MOL0     O18098   2.065   0.319   7.927  0.0336 -0.2797  0.1674
  135MOL0     C18099   1.981   0.306   7.810  0.0056  0.2150 -0.8950
  135MOL0     C18100   1.825   0.339   7.854 -0.0863 -0.9683  0.2954
  135MOL0     C18101   1.817   0.458   7.952  0.3185  0.8709 -0.8579
  135MOL0     C18102   1.670   0.494   7.970  0.1863 -0.6905  0.0698
  135MOL0     C18103   1.664   0.619   8.061  0.3149  0.2629 -0.1045
  135MOL0     C18104   1.515   0.654   8.096  0.6309 -0.1926  0.6846
  135MOL0     C18105   1.438   0.700   7.971  0.0121  1.1620 -0.4045
  135MOL0     C18106   1.299   0.768   8.012 -0.2578  0.3054  0.3307
  135MOL0     N18107   1.214   0.786   7.890  0.4398 -0.0888 -0.0067
  135MOL0     C18108   1.106   0.708   7.868 -0.0396 -0.4352 -0.3688
  135MOL0     C18109   1.056   0.738   7.744 -0.7750  0.6139 -0.4529
  135MOL0     C18110   0.934   0.676   7.685  0.0561 -0.8049  0.2750
  135MOL0     C18111   0.805   0.730   7.752 -0.0987 -0.0283  0.1859
  135MOL0     C18112   0.677   0.702   7.681 -0.6242 -0.2119 -0.0369
  135MOL0     C18113   0.553   0.798   7.690 -0.2178 -0.2984  0.0213
  135MOL0     O18114   0.441   0.736   7.621 -0.3581  0.0808 -0.0240
  135MOL0     C18115   0.312   0.736   7.662  0.2700  0.2696  0.2629
  135MOL0     C18116   0.224   0.631   7.643  0.9128  0.0432 -0.4354
  135MOL0     C18117   0.093   0.633   7.665  0.3213 -0.7904 -0.0924
  135MOL0     C18118   0.032   0.758   7.713 -0.6023 -0.6031 -0.5461
  135MOL0     C18119  -0.116   0.772   7.732  0.1313  0.6353 -1.0350
  135MOL0     O18120  -0.189   0.662   7.737  0.6326  0.7517 -0.3636
  135MOL0     C18121  -0.321   0.675   7.706 -0.6751  0.1794 -0.8449
  135MOL0     C18122  -0.411   0.608   7.787 -0.2852  1.0668 -0.6841
  135MOL0     C18123  -0.549   0.622   7.771  0.6325 -0.1066 -0.2397
  135MOL0     C18124  -0.605   0.695   7.668  0.2764 -0.2141 -1.0229
  135MOL0     O18125  -0.745   0.685   7.666 -0.3953 -0.8113  0.1916
  135MOL0     C18126  -0.819   0.764   7.566  0.0213 -0.2304 -0.4863
  135MOL0     C18127  -0.966   0.712   7.588 -0.2638 -0.2297  1.3171
  135MOL0     C18128  -0.989   0.573   7.532  0.1698 -0.4148 -0.3544
  135MOL0     C18129  -1.133   0.547   7.501  0.3358  0.3066  1.1301
  135MOL0     C18130  -1.160   0.398   7.460  0.8809  0.6014 -0.1495
  135MOL0     C18131  -1.097   0.366   7.327 -0.3347 -0.1531 -0.0811
  135MOL0     C18132  -1.138   0.239   7.256  0.9833  0.2103  0.3119
  135MOL0     C18133  -1.261   0.256   7.164 -0.2065  0.4587 -0.3685
  135MOL0    Cl18134  -1.325   0.097   7.104 -0.2473 -0.0136 -0.1453
  135MOL0     C18135  -0.516   0.768   7.586  1.0255  0.6733 -0.1914
  135MOL0     C18136  -0.370   0.761   7.617  0.5855  1.0426 -0.0116
  135MOL0     O18137  -0.157   0.882   7.752  0.3719  0.2453 -0.9971
  135MOL0     C18138   0.120   0.872   7.731  0.2100 -0.2624  0.0309
  135MOL0     C18139   0.254   0.858   7.714 -0.4863 -0.0787 -0.0573
  135MOL0     N18140   1.140   0.831   7.693 -0.4203 -0.4489 -0.1264
  135MOL0     N18141   1.237   0.861   7.780  0.3641  0.5543 -0.4061
  135MOL0     C18142   2.302   0.326   8.000 -0.2849 -0.6191  0.5776
  135MOL0     C18143   2.437   0.301   7.982  0.1783  0.2049  0.0478
  135MOL0     C18144   2.827   0.410   7.782 -0.3945  0.1703  0.0610
  135MOL0     C18145   2.881   0.299   7.718 -0.3123  0.5560 -0.5932
  135MOL0     C18146   3.020   0.280   7.696  0.3292 -0.6086  0.7468
  135MOL0     C18147   3.107   0.374   7.737 -0.0365 -0.2678  0.1188
  135MOL0     O18148   3.243   0.362   7.713  0.3110  0.0514  0.2570
  135MOL0     C18149   3.286   0.227   7.692  0.4611  0.6136  0.4977
  135MOL0     C18150   3.441   0.203   7.697 -0.0766  0.8512 -0.1344
  135MOL0     C18151   3.479   0.059   7.668  0.3688  0.8108  0.4692
  135MOL0     C18152   3.503   0.029   7.514  0.2620  0.2757  0.1865
  135MOL0     C18153   3.622   0.102   7.469 -0.3581  0.0237 -0.3631
  135MOL0     C18154   3.709   0.175   7.424  0.9696  0.8020  1.0705
  135MOL0     C18155   3.057   0.499   7.787 -0.0268 -0.0316  0.3667
  135MOL0     C18156   2.920   0.516   7.814 -0.8467 -0.3745  0.1104
  135MOL0     C18157   2.885   0.658   7.870  0.5258 -0.5071 -0.1241
  135MOL0     H18158   2.428   0.324   7.637  0.8288  3.1543  0.1652
  135MOL0     H18159   2.185   0.305   7.688 -1.9872  2.1708  1.6745
  135MOL0     H18160   2.018   0.374   7.733  2.3632 -0.3947 -0.3790
  135MOL0     H18161   1.982   0.203   7.773  2.7692 -0.5296  0.9986
  135MOL0     H18162   1.783   0.248   7.897 -0.1345 -0.9925  0.1982
  135MOL0     H18163   1.780   0.369   7.758  0.0193  1.1181  0.8402
  135MOL0     H18164   1.873   0.534   7.896  0.6870 -0.2170 -2.0398
  135MOL0     H18165   1.865   0.447   8.049 -1.6753 -3.1820 -0.0824
  135MOL0     H18166   1.625   0.521   7.875  0.7088  0.1311  0.0374
  135MOL0     H18167   1.608   0.419   8.020 -0.8540 -0.7326 -1.2291
  135MOL0     H18168   1.730   0.604   8.147  1.2435  0.2058 -0.8188
  135MOL0     H18169   1.700   0.710   8.011 -0.0029 -1.0732 -2.9089
  135MOL0     H18170   1.471   0.564   8.141 -0.5747  1.5013  3.1094
  135MOL0     H18171   1.521   0.730   8.174 -2.5948  0.5601  0.3610
  135MOL0     H18172   1.420   0.608   7.913  5.8474  0.3758 -1.5342
  135MOL0     H18173   1.498   0.765   7.908 -1.5522  2.9929 -0.0828
  135MOL0     H18174   1.242   0.709   8.085 -1.3872  1.2313  0.2168
  135MOL0     H18175   1.321   0.864   8.059  1.5062 -0.7981  1.8915
  135MOL0     H18176   1.074   0.636   7.943 -0.4867 -1.9144 -1.9219
  135MOL0     H18177   0.934   0.717   7.583 -1.3475 -0.5310  0.3748
  135MOL0     H18178   0.933   0.567   7.693  1.6346 -1.1335 -2.5161
  135MOL0     H18179   0.805   0.696   7.856 -3.9170  0.6499  0.5274
  135MOL0     H18180   0.813   0.839   7.750  3.3479 -0.1365 -2.2057
  135MOL0     H18181   0.643   0.602   7.711 -1.4730  0.0853  0.0448
  135MOL0     H18182   0.696   0.693   7.574 -1.2423  3.0266 -0.5376
  135MOL0     H18183   0.577   0.899   7.655 -0.8840  0.7195  2.3132
  135MOL0     H18184   0.524   0.807   7.795 -2.4994 -0.9520 -0.5151
  135MOL0     H18185   0.261   0.534   7.611 -0.4309 -0.3037 -1.0149
  135MOL0     H18186   0.036   0.542   7.647 -0.6023 -0.6794  1.9468
  135MOL0     H18187  -0.387   0.542   7.869  0.4856  0.8277 -1.0918
  135MOL0     H18188  -0.615   0.573   7.842  2.7125 -2.9720 -0.0729
  135MOL0     H18189  -0.822   0.872   7.584 -0.1726 -0.5944  2.0063
  135MOL0     H18190  -0.779   0.738   7.468  1.8103 -0.2524  0.2067
  135MOL0     H18191  -0.981   0.728   7.695 -0.4161  3.1370  0.9111
  135MOL0     H18192  -1.035   0.778   7.535 -0.3366 -1.7350 -0.5401
  135MOL0     H18193  -0.927   0.562   7.443  0.8761  0.3449  0.0327
  135MOL0     H18194  -0.965   0.496   7.605 -0.8687 -0.5996 -0.1899
  135MOL0     H18195  -1.164   0.605   7.413  0.0758 -2.5212 -0.7776
  135MOL0     H18196  -1.193   0.571   7.589  1.4848 -0.2703  2.0971
  135MOL0     H18197  -1.269   0.393   7.448  0.8092  0.4218  0.5685
  135MOL0     H18198  -1.149   0.328   7.543  1.2374 -1.0110 -1.5080
  135MOL0     H18199  -1.115   0.451   7.260  0.2512 -1.5932 -2.1749
  135MOL0     H18200  -0.990   0.351   7.343 -0.4294 -1.6205 -0.6912
  135MOL0     H18201  -1.155   0.156   7.325 -0.9730  0.1905 -0.1301
  135MOL0     H18202  -1.054   0.202   7.198 -0.3630  1.5988 -2.7315
  135MOL0     H18203  -1.333   0.314   7.223 -1.0302 -0.8064 -0.0734
  135MOL0     H18204  -1.238   0.303   7.068 -1.7766 -0.6009 -1.3131
  135MOL0     H18205  -0.549   0.847   7.519  3.2948  0.8614 -1.1730
  135MOL0     H18206  -0.302   0.820   7.556  2.4833  0.2857  1.2915
  135MOL0     H18207   0.073   0.957   7.778 -0.5443 -1.6708  1.9814
  135MOL0     H18208   0.320   0.938   7.746  0.2340 -1.2185  1.4607
  135MOL0     H18209   2.264   0.341   8.101 -2.5283  0.3002 -0.3348
  135MOL0     H18210   2.512   0.304   8.060  0.2945  1.0421 -0.0830
  135MOL0     H18211   2.814   0.219   7.690  0.4288 -0.1094 -0.4767
  135MOL0     H18212   3.042   0.181   7.655 -1.1946 -0.7720  0.2531
  135MOL0     H18213   3.260   0.208   7.588  0.3278  1.6726  0.3278
  135MOL0     H18214   3.232   0.154   7.754 -0.0624  0.8956  0.3798
  135MOL0     H18215   3.466   0.226   7.801 -1.4902  1.0557  0.1860
  135MOL0     H18216   3.496   0.279   7.642 -1.2174  1.8508  0.0573
  135MOL0     H18217   3.407  -0.012   7.710  0.0224  0.9685  0.1515
  135MOL0     H18218   3.566   0.034   7.728  0.9258  1.4108 -0.0719
  135MOL0     H18219   3.525  -0.077   7.496 -1.8833 -0.0997 -0.4538
  135MOL0     H18220   3.415   0.048   7.453  0.4120 -0.5902 -0.3170
  135MOL0     H18221   3.784   0.235   7.377  1.6247 -2.7449 -2.9555
  135MOL0     H18222   3.123   0.578   7.822 -2.7574  2.6456 -0.1661
  135MOL0     H18223   2.971   0.725   7.868  0.5966 -0.5986 -2.0068
  135MOL0     H18224   2.801   0.703   7.817  0.4748 -1.1654 -0.6185
  135MOL0     H18225   2.855   0.637   7.973  1.0939 -1.2866 -0.1007
  136MOL0     O18226   2.579   9.220   4.476  0.2720  0.4061 -0.0562
  136MOL0     C18227   2.592   9.314   4.400 -0.0741 -0.3975 -0.0898
  136MOL0     O18228   2.702   9.324   4.323 -0.0567 -1.0154 -0.5527
  136MOL0     C18229   2.816   9.257   4.365  0.0997 -1.0594  0.3705
  136MOL0     C18230   2.836   9.118   4.346  0.2196  0.8935  0.6979
  136MOL0     C18231   2.962   9.061   4.361  0.0878 -0.2499 -0.3455
  136MOL0     C18232   3.073   9.146   4.397 -0.5049 -0.0529 -0.1272
  136MOL0     O18233   3.198   9.091   4.426  0.2887 -0.6563 -0.3074
  136MOL0     C18234   3.229   8.975   4.351  0.3031 -0.5887 -0.3906
  136MOL0     C18235   3.384   8.975   4.332 -0.6394 -0.5883  0.4595
  136MOL0     C18236   3.447   9.101   4.267 -0.2029 -0.7445 -0.2713
  136MOL0     C18237   3.590   9.077   4.222  1.4074 -0.7439  0.2431
  136MOL0     C18238   3.692   9.064   4.337  0.8859  1.1283 -0.0162
  136MOL0     C18239   3.823   9.034   4.282 -0.5516 -0.4717 -0.8217
  136MOL0     C18240   3.937   9.092   4.361 -0.1481 -0.0630  0.1948
  136MOL0     C18241   3.940   9.009   4.492  0.4992 -0.1893  0.5727
  136MOL0     N18242   4.074   9.012   4.555  0.1016  0.7215  0.1921
  136MOL0     C18243   4.184   8.951   4.502  0.7688  0.1171 -0.1154
  136MOL0     C18244   4.284   8.982   4.592 -0.0185 -0.1035 -0.0320
  136MOL0     C18245   4.422   8.923   4.574  0.0348  0.2929 -0.2344
  136MOL0     C18246   4.538   9.014   4.508  0.9324 -0.7488  0.6323
  136MOL0     C18247   4.685   8.954   4.542 -0.4115  0.0638 -0.2788
  136MOL0     C18248   4.697   8.803   4.534  0.6380 -0.7787 -0.3984
  136MOL0     O18249   4.816   8.750   4.599  0.0068  0.6621  0.8508
  136MOL0     C18250   4.935   8.743   4.545 -0.1223 -0.4267  0.7168
  136MOL0     C18251   4.959   8.774   4.406 -0.4674 -0.2483 -0.0121
  136MOL0     C18252   5.092   8.760   4.358  0.8070 -0.9816 -0.1867
  136MOL0     C18253   5.190   8.696   4.431 -0.2250  0.0554  0.1200
  136MOL0     C18254   5.329   8.682   4.366 -0.1933  0.2804  0.0281
  136MOL0     O18255   5.439   8.647   4.437 -0.4423  0.2476 -0.0616
  136MOL0     C18256   5.561   8.627   4.369 -0.2601  0.9936  0.5220
  136MOL0     C18257   5.574   8.545   4.257  0.3205  0.2889  0.8997
  136MOL0     C18258   5.694   8.523   4.193  0.3650  0.0145 -1.3992
  136MOL0     C18259   5.810   8.567   4.252  0.2973  0.8254 -0.0527
  136MOL0     O18260   5.939   8.533   4.208 -0.2704  0.3571 -0.6179
  136MOL0     C18261   5.960   8.472   4.080  0.7704  0.6874  0.1448
  136MOL0     C18262   5.932   8.319   4.091 -0.3775  0.1972 -0.4750
  136MOL0     C18263   6.009   8.256   4.212  0.4643  0.4980 -0.5259
  136MOL0     C18264   6.159   8.273   4.210 -0.4984  0.2337 -0.5221
  136MOL0     C18265   6.238   8.161   4.287  0.4081 -0.8075  0.5462
  136MOL0     C18266   6.392   8.191   4.299  0.5299  0.3423  0.1918
  136MOL0     C18267   6.467   8.095   4.393 -0.4673 -0.5150 -0.3770
  136MOL0     C18268   6.603   8.146   4.435  0.6294  0.2549 -0.2420
  136MOL0    Cl18269   6.723   8.122   4.296  0.6348 -0.3796 -0.2899
  136MOL0     C18270   5.801   8.636   4.375  0.6842 -0.7874  0.1633
  136MOL0     C18271   5.676   8.666   4.424  0.4763 -0.6713  0.1192
  136MOL0     O18272   5.330   8.696   4.243 -0.8785  0.3022 -0.5683
  136MOL0     C18273   5.165   8.665   4.561 -0.3115  0.0490 -0.9669
  136MOL0     C18274   5.044   8.693   4.617 -0.3282 -0.6258 -0.6288
  136MOL0     N18275   4.239   9.071   4.688 -0.3537  0.4578 -0.0901
  136MOL0     N18276   4.109   9.081   4.670  0.3938  0.4558 -0.2384
  136MOL0     C18277   3.056   9.279   4.416  0.0856 -0.1251 -0.2771
  136MOL0     C18278   2.929   9.334   4.397  0.2448 -0.2607 -0.3435
  136MOL0     C18279   2.483   9.415   4.391 -0.8985 -0.5435  0.1266
  136MOL0     C18280   2.490   9.520   4.296  0.1439  0.3925 -0.3341
  136MOL0     C18281   2.391   9.610   4.283  0.3482 -0.5416  1.6761
  136MOL0     C18282   2.277   9.595   4.355  0.8026  0.2734  0.8641
  136MOL0     O18283   2.169   9.678   4.321  0.4514 -0.0207  0.3197
  136MOL0     C18284   2.040   9.626   4.358  0.1188 -0.8239  0.1074
  136MOL0     C18285   1.934   9.723   4.305  0.7321 -0.1186 -0.1767
  136MOL0     C18286   1.952   9.864   4.353  0.7385 -0.4579 -0.4928
  136MOL0     C18287   1.866   9.961   4.267 -0.0862  0.0511  0.1526
  136MOL0     C18288   1.842  10.091   4.339  0.8446  0.0553 -0.4514
  136MOL0     C18289   1.824  10.205   4.385 -0.3318  0.4487 -0.3641
  136MOL0     C18290   2.265   9.494   4.454 -0.2656  0.6190  0.5456
  136MOL0     C18291   2.368   9.405   4.473  0.5130 -0.0209  0.3581
  136MOL0     C18292   2.350   9.317   4.598 -0.1636 -0.0762  0.2885
  136MOL0     H18293   2.750   9.057   4.323 -0.1238  1.1201  1.3814
  136MOL0     H18294   2.961   8.952   4.355  1.1383 -0.3310  0.4851
  136MOL0     H18295   3.198   8.881   4.398  0.8168 -0.9884 -0.8458
  136MOL0     H18296   3.184   8.976   4.252 -0.2874 -0.2171 -0.1258
  136MOL0     H18297   3.413   8.894   4.265 -1.0589 -2.1027  2.0348
  136MOL0     H18298   3.431   8.956   4.429  0.9898 -0.5072 -0.2887
  136MOL0     H18299   3.437   9.183   4.339 -1.3066 -2.4401  1.6115
  136MOL0     H18300   3.388   9.116   4.176 -1.3778  1.1930  0.7465
  136MOL0     H18301   3.592   8.988   4.158  0.0407 -1.9077  1.7454
  136MOL0     H18302   3.622   9.166   4.166  2.0153 -0.8410  0.4407
  136MOL0     H18303   3.689   9.158   4.392 -0.3633  0.7190  0.6514
  136MOL0     H18304   3.664   8.977   4.397 -0.6328  1.1234 -0.6802
  136MOL0     H18305   3.836   8.927   4.268  0.6262 -0.4037 -0.3962
  136MOL0     H18306   3.829   9.093   4.190 -2.4271  2.6661  0.8817
  136MOL0     H18307   3.926   9.200   4.373  0.0969 -0.1375  1.1915
  136MOL0     H18308   4.026   9.072   4.301 -0.9379 -1.7621 -0.4775
  136MOL0     H18309   3.874   9.054   4.567 -0.4352  1.0015 -0.9113
  136MOL0     H18310   3.910   8.903   4.485 -0.4791  0.1102  0.0199
  136MOL0     H18311   4.181   8.883   4.417 -0.3846  0.6993 -0.5689
  136MOL0     H18312   4.450   8.876   4.669 -0.2084 -1.5646 -1.0487
  136MOL0     H18313   4.407   8.843   4.501  1.7913 -1.2593  0.9911
  136MOL0     H18314   4.522   9.006   4.401 -0.0777 -2.4427  0.8873
  136MOL0     H18315   4.526   9.121   4.532 -2.5078 -1.4123  2.5716
  136MOL0     H18316   4.713   8.974   4.645 -2.0104  2.3905 -0.2124
  136MOL0     H18317   4.759   9.001   4.477  0.3213  2.8528  2.3860
  136MOL0     H18318   4.694   8.768   4.430  1.5121 -2.5216  0.1287
  136MOL0     H18319   4.605   8.765   4.579  0.3356  1.5805  1.1802
  136MOL0     H18320   4.884   8.806   4.334  0.1337 -3.2020 -2.1653
  136MOL0     H18321   5.110   8.802   4.260  1.0529 -0.7465 -0.0416
  136MOL0     H18322   5.482   8.500   4.220  0.4512  0.6162  0.1786
  136MOL0     H18323   5.692   8.467   4.100  0.0167 -3.8702  0.7417
  136MOL0     H18324   5.893   8.516   4.007 -2.1690 -1.0803  1.5991
  136MOL0     H18325   6.065   8.490   4.052  0.9969  0.9539  1.1169
  136MOL0     H18326   5.824   8.300   4.097 -0.1797 -0.5997  1.0438
  136MOL0     H18327   5.967   8.267   4.002 -0.6477 -1.5208  0.3772
  136MOL0     H18328   5.971   8.290   4.309  0.1951  4.2227 -1.7808
  136MOL0     H18329   5.981   8.151   4.199 -0.1414  0.1747  2.4817
  136MOL0     H18330   6.185   8.369   4.255  2.8820 -0.1930 -1.3268
  136MOL0     H18331   6.197   8.266   4.108  0.4015 -1.2135 -0.1166
  136MOL0     H18332   6.213   8.072   4.229 -0.7356 -0.6549  0.7848
  136MOL0     H18333   6.193   8.154   4.386  0.9360 -0.8972  0.7840
  136MOL0     H18334   6.440   8.185   4.201 -0.1544  1.3917 -0.2252
  136MOL0     H18335   6.404   8.293   4.335  0.7679 -0.2594  1.8999
  136MOL0     H18336   6.487   8.005   4.334  1.0948 -1.3481  1.3515
  136MOL0     H18337   6.411   8.067   4.483  0.8499  1.0163  0.9910
  136MOL0     H18338   6.601   8.247   4.477 -2.3114  0.0134  0.3751
  136MOL0     H18339   6.647   8.080   4.511  1.0463  1.2822  0.4320
  136MOL0     H18340   5.892   8.676   4.419 -1.6911  3.5384  1.8688
  136MOL0     H18341   5.689   8.703   4.525  2.0286 -2.4474  0.6336
  136MOL0     H18342   5.244   8.620   4.621 -0.5552 -0.5814 -1.1147
  136MOL0     H18343   5.025   8.658   4.718 -0.5934 -0.7131 -0.7087
  136MOL0     H18344   3.130   9.352   4.448 -0.4314  0.8248 -1.1690
  136MOL0     H18345   2.928   9.443   4.406  2.3347 -0.3450  1.8551
  136MOL0     H18346   2.577   9.533   4.231 -0.6708  2.1592 -1.1587
  136MOL0     H18347   2.400   9.694   4.215  3.3051  0.1080  2.6892
  136MOL0     H18348   2.024   9.619   4.466  0.5331  0.4861  0.2809
  136MOL0     H18349   2.033   9.524   4.320  1.7828 -0.4166 -1.4582
  136MOL0     H18350   1.836   9.679   4.326 -0.7833  1.7525 -2.6780
  136MOL0     H18351   1.949   9.724   4.197 -1.9637  0.1522 -0.6353
  136MOL0     H18352   2.055   9.902   4.347  0.8168 -0.8017 -1.7845
  136MOL0     H18353   1.931   9.867   4.460 -1.3181  1.2790 -0.8753
  136MOL0     H18354   1.922   9.987   4.176 -0.4111  2.3196  0.5525
  136MOL0     H18355   1.775   9.908   4.237  0.3646 -0.7446  0.1625
  136MOL0     H18356   1.806  10.298   4.434 -1.1736  0.1569 -0.1110
  136MOL0     H18357   2.175   9.483   4.514  0.6285  1.5488  2.1124
  136MOL0     H18358   2.316   9.221   4.558  0.9696  0.5734 -2.4920
  136MOL0     H18359   2.438   9.302   4.662  0.1495  1.7190  0.3416
  136MOL0     H18360   2.271   9.359   4.661  0.2636  0.7824  0.2733
  137MOL0     O18361   8.490   2.256  10.907  0.0164  0.3537  0.6337
  137MOL0     C18362   8.435   2.327  10.823  0.6949 -0.4510  0.0392
  137MOL0     O18363   8.428   2.304  10.686 -0.0091  0.1243  0.4908
  137MOL0     C18364   8.514   2.225  10.624 -0.0050 -0.7674  0.6842
  137MOL0     C18365   8.467   2.152  10.512 -0.2188  0.3420  0.0498
  137MOL0     C18366   8.560   2.068  10.441 -0.4338 -1.2958 -0.0920
  137MOL0     C18367   8.694   2.054  10.478  0.0375  0.3047 -0.5592
  137MOL0     O18368   8.769   1.958  10.410  0.3850 -0.2321  0.3883
  137MOL0     C18369   8.899   1.933  10.457 -0.8837  0.9762  0.0159
  137MOL0     C18370   9.001   2.031  10.395  0.2874  0.5516  0.4765
  137MOL0     C18371   9.125   2.017  10.486  0.1303 -0.4494 -0.4802
  137MOL0     C18372   9.128   2.119  10.593  0.9487  0.1426 -0.0555
  137MOL0     C18373   9.276   2.169  10.618 -0.3205  0.7928  0.1786
  137MOL0     C18374   9.280   2.266  10.738 -0.1316  0.2368  0.6003
  137MOL0     C18375   9.422   2.329  10.741 -0.1638 -0.3491 -0.8466
  137MOL0     C18376   9.417   2.453  10.838 -0.2767  0.2306  0.5808
  137MOL0     N18377   9.358   2.578  10.768  0.2332 -0.3514  0.1319
  137MOL0     C18378   9.442   2.684  10.717  0.8384 -0.1466  0.0849
  137MOL0     C18379   9.360   2.791  10.708  1.0036  0.0207  0.3683
  137MOL0     C18380   9.401   2.924  10.660  0.1469 -0.4648  0.3211
  137MOL0     C18381   9.445   2.923  10.518  0.5120 -1.3540  0.5118
  137MOL0     C18382   9.522   3.042  10.464 -0.1701  0.4610 -1.4115
  137MOL0     C18383   9.666   3.043  10.517 -0.3389  0.1517  0.4433
  137MOL0     O18384   9.727   2.929  10.454  0.8631 -0.9840 -0.2645
  137MOL0     C18385   9.867   2.920  10.462  0.1364  0.3689 -0.4436
  137MOL0     C18386   9.959   3.017  10.425 -0.9555 -0.0718 -0.3972
  137MOL0     C18387  10.096   2.977  10.440 -0.1540  0.1165 -0.7945
  137MOL0     C18388  10.140   2.849  10.471 -0.4877  0.1986  0.8913
  137MOL0     C18389  10.286   2.811  10.487  0.3944  0.3031 -0.2128
  137MOL0     O18390  10.378   2.901  10.435  0.0878  0.6498 -0.6755
  137MOL0     C18391  10.515   2.868  10.408 -0.6425 -0.2885  0.1010
  137MOL0     C18392  10.554   2.863  10.279 -0.9865  0.6596 -0.3336
  137MOL0     C18393  10.683   2.832  10.240 -0.7662 -0.1791 -0.5876
  137MOL0     C18394  10.777   2.802  10.342  0.0531 -0.1954 -0.2552
  137MOL0     O18395  10.907   2.762  10.308  0.8730  0.2292  0.0723
  137MOL0     C18396  10.973   2.659  10.377  1.1125 -0.3734 -0.2183
  137MOL0     C18397  11.067   2.581  10.296 -0.5401 -0.2651  0.7745
  137MOL0     C18398  11.205   2.659  10.309  0.1864  0.0202  0.2799
  137MOL0     C18399  11.306   2.618  10.206  0.2839 -0.4107  0.3574
  137MOL0     C18400  11.440   2.656  10.266 -0.8464  0.0149 -0.0496
  137MOL0     C18401  11.551   2.622  10.159  0.5780 -1.0215 -0.3480
  137MOL0     C18402  11.695   2.645  10.212 -0.3417 -0.2318 -0.0756
  137MOL0     C18403  11.789   2.628  10.093  0.2723  0.2869  0.0213
  137MOL0    Cl18404  11.805   2.462  10.043  0.1105  0.1202  0.4525
  137MOL0     C18405  10.747   2.805  10.475  0.9790 -0.4769 -0.1066
  137MOL0     C18406  10.611   2.837  10.506 -0.3996 -0.5209 -0.5260
  137MOL0     O18407  10.317   2.698  10.531 -0.1716  0.0609  0.4041
  137MOL0     C18408  10.044   2.757  10.497  0.5119 -0.0567 -0.4373
  137MOL0     C18409   9.909   2.794  10.493  0.1966  0.5767 -0.2943
  137MOL0     N18410   9.235   2.758  10.749  0.2488  1.0886  0.7450
  137MOL0     N18411   9.235   2.634  10.787  0.6040 -0.5653 -0.5583
  137MOL0     C18412   8.742   2.133  10.589  0.8087  0.1943  0.0968
  137MOL0     C18413   8.651   2.221  10.655 -0.9454  0.2103 -0.2590
  137MOL0     C18414   8.367   2.452  10.864 -0.7856 -0.1781 -0.3081
  137MOL0     C18415   8.371   2.565  10.782 -0.2466  0.4164 -0.4523
  137MOL0     C18416   8.300   2.677  10.816  0.5838  0.3664  0.3649
  137MOL0     C18417   8.209   2.676  10.912  1.6427  0.2683  0.0407
  137MOL0     O18418   8.125   2.787  10.943 -0.0683  0.5056  0.4924
  137MOL0     C18419   8.113   2.904  10.859  0.6486 -0.8926 -0.4584
  137MOL0     C18420   8.214   3.015  10.895 -0.1166  0.4621 -0.7174
  137MOL0     C18421   8.229   3.044  11.043 -0.2354 -0.1877  0.2595
  137MOL0     C18422   8.337   3.152  11.065 -0.2683  0.0511  0.0291
  137MOL0     C18423   8.407   3.143  11.192  0.1089  0.4153  0.1576
  137MOL0     C18424   8.423   3.124  11.310  1.0205  0.4283 -0.0390
  137MOL0     C18425   8.210   2.573  11.006 -0.2681 -0.4930 -0.0703
  137MOL0     C18426   8.278   2.454  10.975  0.4216 -0.4124  0.3951
  137MOL0     C18427   8.234   2.333  11.046 -0.2070 -0.7751  0.6516
  137MOL0     H18428   8.361   2.158  10.486 -0.8089 -0.4680  2.0875
  137MOL0     H18429   8.539   2.014  10.349 -0.8539  2.0654 -2.1306
  137MOL0     H18430   8.898   1.942  10.566 -0.2222  0.3620  0.0797
  137MOL0     H18431   8.935   1.834  10.428  2.5992  1.4967  2.0948
  137MOL0     H18432   8.969   2.136  10.395  1.2677  0.8520  0.5564
  137MOL0     H18433   9.033   2.000  10.295  0.8625  0.0059  0.8322
  137MOL0     H18434   9.219   2.031  10.432 -0.8665  2.5440 -1.6664
  137MOL0     H18435   9.124   1.917  10.531 -0.8831  0.7103  2.3149
  137MOL0     H18436   9.064   2.203  10.565 -0.6725 -1.2640 -0.7492
  137MOL0     H18437   9.094   2.067  10.683 -2.9016  0.2993 -1.2404
  137MOL0     H18438   9.340   2.081  10.626 -0.5939  0.3805 -1.7208
  137MOL0     H18439   9.304   2.221  10.526  0.1443  1.2038  0.5431
  137MOL0     H18440   9.212   2.348  10.715 -0.5906 -0.2710  0.1160
  137MOL0     H18441   9.260   2.203  10.825 -0.8057 -4.3670 -2.5063
  137MOL0     H18442   9.451   2.364  10.642 -1.0531 -0.6382 -1.2159
  137MOL0     H18443   9.485   2.249  10.781  1.8105  2.6982  2.9528
  137MOL0     H18444   9.358   2.442  10.928 -1.7899 -1.9128 -0.5809
  137MOL0     H18445   9.519   2.476  10.872  0.2115  2.4308 -2.0211
  137MOL0     H18446   9.549   2.673  10.701  0.6037 -1.9507 -0.4296
  137MOL0     H18447   9.331   3.005  10.678 -0.0289 -0.6087  0.2910
  137MOL0     H18448   9.490   2.958  10.714 -1.3319  1.6427  1.5257
  137MOL0     H18449   9.496   2.828  10.499  0.7579 -1.5675  2.1034
  137MOL0     H18450   9.353   2.917  10.458 -0.4923  0.4065  1.7828
  137MOL0     H18451   9.469   3.133  10.494 -2.9800 -1.4941 -0.0407
  137MOL0     H18452   9.506   3.047  10.356 -4.8721  2.6894 -0.8607
  137MOL0     H18453   9.683   3.035  10.625  0.5975  1.2658  0.3996
  137MOL0     H18454   9.708   3.137  10.480 -0.3987  0.6801  1.6849
  137MOL0     H18455   9.925   3.120  10.414  0.1325  0.6417  2.1709
  137MOL0     H18456  10.165   3.057  10.414  1.1549  0.2376  2.5455
  137MOL0     H18457  10.471   2.881  10.211  0.6724  2.3938 -2.0514
  137MOL0     H18458  10.727   2.840  10.141  3.5906  0.6011  1.1797
  137MOL0     H18459  11.015   2.713  10.463 -1.5834  2.2144 -0.3601
  137MOL0     H18460  10.902   2.584  10.411  1.3079 -0.8971 -0.9405
  137MOL0     H18461  11.077   2.479  10.333 -4.1596 -0.6551  1.0628
  137MOL0     H18462  11.038   2.575  10.191  3.5872 -1.0096 -0.4705
  137MOL0     H18463  11.182   2.765  10.295 -1.8130 -0.1023  2.1513
  137MOL0     H18464  11.245   2.651  10.410  1.2614  0.4711 -0.0893
  137MOL0     H18465  11.283   2.659  10.108 -0.6402 -0.1800  0.6612
  137MOL0     H18466  11.304   2.509  10.201 -0.9555 -0.3408 -1.3148
  137MOL0     H18467  11.464   2.606  10.360  0.6207  0.3216 -0.2392
  137MOL0     H18468  11.450   2.765  10.276  2.5767  0.2368 -3.5637
  137MOL0     H18469  11.540   2.518  10.128  1.8409 -1.4279  0.4962
  137MOL0     H18470  11.534   2.693  10.077  3.1670  1.1630  0.8265
  137MOL0     H18471  11.710   2.583  10.301  0.8606  0.2504  0.0848
  137MOL0     H18472  11.700   2.747  10.251 -3.7810 -0.1426  0.4180
  137MOL0     H18473  11.760   2.687  10.006 -0.8383  1.2896  1.0357
  137MOL0     H18474  11.890   2.666  10.112 -0.2329  1.9267 -0.4412
  137MOL0     H18475  10.814   2.793  10.560 -0.3271  0.5409  1.1059
  137MOL0     H18476  10.579   2.837  10.610  0.2573  1.9959 -0.2453
  137MOL0     H18477  10.071   2.653  10.516 -2.4059 -0.8089  0.2170
  137MOL0     H18478   9.835   2.719  10.520 -2.8592  2.3249 -3.0113
  137MOL0     H18479   8.846   2.125  10.619  0.6057 -0.7035  0.5981
  137MOL0     H18480   8.683   2.299  10.724  0.2301 -1.1830  0.8339
  137MOL0     H18481   8.424   2.562  10.687 -0.7863 -1.6389 -0.7207
  137MOL0     H18482   8.294   2.765  10.753  2.7549  0.8424  0.7429
  137MOL0     H18483   8.011   2.939  10.882  0.3684 -0.9705 -1.5274
  137MOL0     H18484   8.116   2.894  10.751  6.1281 -0.5801 -0.5714
  137MOL0     H18485   8.195   3.112  10.849  0.7613  0.8307 -0.3336
  137MOL0     H18486   8.307   2.985  10.845  0.1334 -0.7893  0.4412
  137MOL0     H18487   8.257   2.950  11.091 -0.2625 -0.9093 -1.0911
  137MOL0     H18488   8.139   3.080  11.094  0.7895  2.0446  0.5949
  137MOL0     H18489   8.406   3.147  10.980 -0.3694 -0.0719 -0.0472
  137MOL0     H18490   8.297   3.254  11.063 -0.1636  0.2154  2.6946
  137MOL0     H18491   8.418   3.096  11.413  0.0363  0.2225 -0.1304
  137MOL0     H18492   8.137   2.585  11.085 -0.7516  0.7597 -0.6730
  137MOL0     H18493   8.212   2.256  10.971  0.2220  1.5397 -2.0209
  137MOL0     H18494   8.314   2.298  11.113 -1.1184 -1.9240  1.1648
  137MOL0     H18495   8.155   2.353  11.119 -1.0828 -1.6985 -0.0118
  138MOL0     O18496   9.904   0.680   4.942  0.0677 -0.3486  0.1776
  138MOL0     C18497   9.934   0.589   4.871 -1.1810  0.9826  0.1522
  138MOL0     O18498  10.012   0.587   4.756  0.1694 -0.0837  0.5596
  138MOL0     C18499  10.099   0.688   4.716 -0.4075 -0.2167  0.0827
  138MOL0     C18500  10.101   0.822   4.772  0.0030  0.6318  0.5005
  138MOL0     C18501  10.201   0.906   4.731 -0.5851 -0.1658  0.4184
  138MOL0     C18502  10.297   0.869   4.632  0.6875 -0.4568  0.0636
  138MOL0     O18503  10.399   0.951   4.588 -0.0137 -0.3011  0.3060
  138MOL0     C18504  10.415   1.086   4.635  0.0800 -0.3716 -0.3564
  138MOL0     C18505  10.527   1.145   4.546 -0.2429 -0.6395  0.3188
  138MOL0     C18506  10.666   1.083   4.572  0.8856 -0.6415  0.6634
  138MOL0     C18507  10.767   1.169   4.489 -0.2574 -0.1111 -0.3521
  138MOL0     C18508  10.906   1.097   4.505 -0.1688  0.1070 -0.0604
  138MOL0     C18509  11.009   1.133   4.394  0.2974 -0.3778 -0.2858
  138MOL0     C18510  11.138   1.048   4.410 -0.3523  0.1862  0.3047
  138MOL0     C18511  11.258   1.107   4.340  0.3297  0.0822  0.1706
  138MOL0     N18512  11.392   1.049   4.375  0.2650 -0.3394 -0.3579
  138MOL0     C18513  11.436   0.924   4.351  0.2445 -0.0878  0.1734
  138MOL0     C18514  11.550   0.911   4.419 -0.0621 -0.5370 -0.1455
  138MOL0     C18515  11.642   0.788   4.408 -0.1026  0.2851 -0.6024
  138MOL0     C18516  11.698   0.762   4.267 -0.7387 -0.0074 -0.1041
  138MOL0     C18517  11.760   0.619   4.268  0.3650  0.1736 -0.6660
  138MOL0     C18518  11.873   0.590   4.375 -0.2773  0.3962  0.8468
  138MOL0     O18519  11.922   0.454   4.362  0.1950  0.1515  0.3050
  138MOL0     C18520  12.057   0.436   4.390 -0.4864  0.8805  0.2884
  138MOL0     C18521  12.120   0.323   4.343 -0.1426 -0.2228  0.4540
  138MOL0     C18522  12.250   0.290   4.380  0.6593  0.3983  0.4961
  138MOL0     C18523  12.328   0.374   4.458  0.3852 -0.3001  0.2873
  138MOL0     C18524  12.470   0.342   4.481  0.5195  1.0412  0.4266
  138MOL0     O18525  12.524   0.396   4.599  0.4543 -0.6285 -0.2417
  138MOL0     C18526  12.655   0.356   4.637  0.0722 -0.5601  0.4753
  138MOL0     C18527  12.690   0.228   4.667 -0.9690  0.6142  0.3622
  138MOL0     C18528  12.825   0.192   4.702 -0.2242 -0.0604 -0.0438
  138MOL0     C18529  12.919   0.293   4.719  0.0389 -0.3361  0.1179
  138MOL0     O18530  13.030   0.286   4.794 -0.6184  0.3815  0.4183
  138MOL0     C18531  13.080   0.160   4.846 -0.2032  0.8297 -0.2295
  138MOL0     C18532  13.222   0.175   4.912  0.1980  0.2994 -0.5725
  138MOL0     C18533  13.292   0.040   4.922  0.2122  0.8043  0.2869
  138MOL0     C18534  13.427   0.055   5.011 -0.3029  0.6756 -0.0997
  138MOL0     C18535  13.494  -0.086   5.001 -0.5209 -0.9484  0.1484
  138MOL0     C18536  13.653  -0.067   5.049  0.7070  0.3974 -0.7045
  138MOL0     C18537  13.751  -0.011   4.935  0.1875  0.0837 -0.5919
  138MOL0     C18538  13.889  -0.071   4.959  0.2007  0.0509 -0.1962
  138MOL0    Cl18539  14.003  -0.021   4.825  0.1160  0.0985 -0.5370
  138MOL0     C18540  12.873   0.423   4.701 -0.0177 -0.4373 -0.4604
  138MOL0     C18541  12.751   0.458   4.651 -0.1601  0.1410 -0.0004
  138MOL0     O18542  12.533   0.279   4.394  0.2678 -0.0154 -0.0887
  138MOL0     C18543  12.269   0.491   4.505  0.8163 -0.4836  0.7875
  138MOL0     C18544  12.135   0.531   4.462  1.0122 -0.2908 -0.1425
  138MOL0     N18545  11.583   1.035   4.470  0.6368  0.4848  0.4076
  138MOL0     N18546  11.494   1.117   4.439  0.4605  0.2959 -0.0027
  138MOL0     C18547  10.297   0.741   4.569 -0.4685  0.4872 -0.1497
  138MOL0     C18548  10.198   0.652   4.617  0.0140  0.2214 -0.1548
  138MOL0     C18549   9.891   0.458   4.933  0.4009 -0.7634  0.2786
  138MOL0     C18550   9.911   0.428   5.072  0.3177  0.4168  0.3816
  138MOL0     C18551   9.856   0.312   5.125 -0.6771 -0.1752 -0.4391
  138MOL0     C18552   9.784   0.220   5.045 -0.9907 -1.0517  0.0860
  138MOL0     O18553   9.713   0.118   5.095  0.0178  1.0034  0.2553
  138MOL0     C18554   9.584   0.151   5.164  0.6141  0.4291 -0.3977
  138MOL0     C18555   9.597   0.188   5.307  0.0802  0.9124 -0.4674
  138MOL0     C18556   9.672   0.089   5.383  0.0406 -0.6763  0.0117
  138MOL0     C18557   9.637   0.097   5.540 -0.0464  0.4676 -0.2256
  138MOL0     C18558   9.636   0.229   5.608  0.3253  0.3534  0.1681
  138MOL0     C18559   9.639   0.333   5.667  0.8704 -0.4277  0.7909
  138MOL0     C18560   9.768   0.247   4.906 -0.6979  0.2790  0.5006
  138MOL0     C18561   9.835   0.359   4.847 -0.2589  0.9014  0.5302
  138MOL0     C18562   9.830   0.370   4.696  0.5437 -0.1863  0.0007
  138MOL0     H18563  10.036   0.855   4.853  1.7031 -3.3609  3.8449
  138MOL0     H18564  10.204   1.004   4.777  0.6595 -0.2890  0.6197
  138MOL0     H18565  10.323   1.145   4.641  0.6780  0.4307  2.5489
  138MOL0     H18566  10.443   1.075   4.740  0.4517 -0.2855 -0.4426
  138MOL0     H18567  10.525   1.251   4.571  1.2038 -0.3967 -0.5160
  138MOL0     H18568  10.498   1.130   4.442 -1.8679 -0.2974  0.6812
  138MOL0     H18569  10.667   0.974   4.564 -0.1895 -0.6021 -0.2239
  138MOL0     H18570  10.688   1.104   4.677  1.4743  0.4814  0.3281
  138MOL0     H18571  10.730   1.181   4.387 -2.7419  1.4487  0.6203
  138MOL0     H18572  10.786   1.265   4.539  1.1196 -0.6479  0.1812
  138MOL0     H18573  10.942   1.123   4.605 -4.4483 -0.1285  1.7759
  138MOL0     H18574  10.884   0.991   4.495 -0.7866  0.3403 -1.2539
  138MOL0     H18575  10.962   1.107   4.298  0.6724  1.2133 -0.9344
  138MOL0     H18576  11.027   1.241   4.396  2.8371 -0.7390 -0.8261
  138MOL0     H18577  11.128   0.941   4.392  3.0373 -0.0906 -0.5001
  138MOL0     H18578  11.159   1.053   4.517 -0.6314 -0.4675  0.3946
  138MOL0     H18579  11.257   1.091   4.232  1.7980  0.0036  0.1431
  138MOL0     H18580  11.255   1.215   4.358  0.3496 -0.1788  2.0079
  138MOL0     H18581  11.390   0.840   4.300  0.7098  1.4418 -2.9544
  138MOL0     H18582  11.716   0.796   4.488  0.9503 -1.9870 -1.2648
  138MOL0     H18583  11.572   0.708   4.435 -1.0623  1.7294  1.5237
  138MOL0     H18584  11.626   0.761   4.185 -0.3844  1.3235 -0.4620
  138MOL0     H18585  11.786   0.826   4.251  1.0381 -1.6533  2.3221
  138MOL0     H18586  11.805   0.597   4.171  0.2283  0.2337 -0.7440
  138MOL0     H18587  11.673   0.554   4.280  1.8106 -1.7366 -0.1961
  138MOL0     H18588  11.834   0.600   4.477 -0.2864  1.0282  0.7890
  138MOL0     H18589  11.945   0.671   4.363 -0.9005  0.8736  0.2285
  138MOL0     H18590  12.085   0.244   4.277  0.0401 -1.4190  1.7454
  138MOL0     H18591  12.290   0.199   4.337 -0.4470 -0.1346  0.5746
  138MOL0     H18592  12.620   0.145   4.662 -0.2665  0.0199  0.3104
  138MOL0     H18593  12.843   0.089   4.728  2.6152  0.3255 -0.1752
  138MOL0     H18594  13.008   0.125   4.921  1.9847  0.3364  1.7643
  138MOL0     H18595  13.091   0.083   4.769 -0.0150 -1.6721  2.1240
  138MOL0     H18596  13.281   0.242   4.849  0.2792  0.2734 -0.5242
  138MOL0     H18597  13.212   0.223   5.010 -0.0155 -0.6958 -0.0924
  138MOL0     H18598  13.237  -0.036   4.979 -0.5232  1.7889  0.9275
  138MOL0     H18599  13.322  -0.001   4.825  0.7423  0.6810  0.4987
  138MOL0     H18600  13.397   0.078   5.113 -1.7387 -0.3746 -0.2634
  138MOL0     H18601  13.503   0.124   4.971  1.8728 -1.1519  0.6676
  138MOL0     H18602  13.495  -0.125   4.899  3.0473  1.3533 -0.8861
  138MOL0     H18603  13.438  -0.154   5.065 -0.3915 -1.1586  0.0392
  138MOL0     H18604  13.645  -0.006   5.139 -1.9834  2.3417 -2.0977
  138MOL0     H18605  13.688  -0.165   5.082 -1.1655  0.0095  0.2886
  138MOL0     H18606  13.754   0.098   4.930  1.5581  0.0551 -0.8424
  138MOL0     H18607  13.711  -0.054   4.842 -1.9765 -1.4556  0.9492
  138MOL0     H18608  13.934  -0.052   5.057  0.1803 -0.7057 -0.0330
  138MOL0     H18609  13.879  -0.179   4.952  0.2951 -0.0834  1.3914
  138MOL0     H18610  12.936   0.505   4.732 -1.6166  0.3960  0.7276
  138MOL0     H18611  12.724   0.562   4.636  1.3068  0.6515  0.7206
  138MOL0     H18612  12.319   0.570   4.560  0.5111  1.1115 -1.1335
  138MOL0     H18613  12.079   0.614   4.503  2.3310 -0.4902  2.2431
  138MOL0     H18614  10.382   0.716   4.506 -0.6534 -1.5479  0.3410
  138MOL0     H18615  10.196   0.553   4.573  2.2605 -0.4087  1.0388
  138MOL0     H18616   9.962   0.499   5.135  1.9748  1.6877 -2.2050
  138MOL0     H18617   9.853   0.300   5.233 -2.8891  0.3387 -0.3923
  138MOL0     H18618   9.512   0.071   5.143 -1.9587  2.5298 -0.0316
  138MOL0     H18619   9.548   0.242   5.116  0.1404  0.4707  0.0315
  138MOL0     H18620   9.502   0.212   5.355  0.0221 -2.1673  1.2309
  138MOL0     H18621   9.647   0.285   5.305  0.0800  0.9232 -2.6745
  138MOL0     H18622   9.781   0.092   5.388  0.1654  2.4442 -1.9751
  138MOL0     H18623   9.634  -0.007   5.348 -0.8136 -0.3695  0.0757
  138MOL0     H18624   9.541   0.047   5.555  1.7603 -3.0323  0.6841
  138MOL0     H18625   9.708   0.028   5.585  0.5727  0.3955 -1.2726
  138MOL0     H18626   9.638   0.430   5.712  0.0889 -0.4920  0.9235
  138MOL0     H18627   9.703   0.184   4.846 -2.1710  1.1711  1.1022
  138MOL0     H18628   9.801   0.472   4.670  1.6660  0.2747  0.5152
  138MOL0     H18629   9.928   0.360   4.648  1.0803 -1.8253  1.3394
  138MOL0     H18630   9.756   0.301   4.654  0.0380  1.8104 -2.6398
  139MOL0     O18631   5.645   6.176   9.064  0.1466 -0.2502  0.3193
  139MOL0     C18632   5.617   6.179   8.938 -0.4909 -0.3179 -0.2819
  139MOL0     O18633   5.690   6.233   8.842  0.3892  0.3555 -0.3187
  139MOL0     C18634   5.803   6.297   8.880  0.1861  0.7028  0.1647
  139MOL0     C18635   5.805   6.400   8.969  0.2259 -0.2750  0.1419
  139MOL0     C18636   5.925   6.477   8.984  0.2807 -0.5513  0.5942
  139MOL0     C18637   6.046   6.449   8.910 -0.1382 -0.5138 -0.0349
  139MOL0     O18638   6.162   6.513   8.921  0.2470 -0.3626  0.1978
  139MOL0     C18639   6.162   6.650   8.929 -0.3158 -0.1086  0.3580
  139MOL0     C18640   6.276   6.708   8.842 -0.3100  0.3329  0.9269
  139MOL0     C18641   6.414   6.654   8.881 -0.1506 -0.9097  1.8465
  139MOL0     C18642   6.521   6.722   8.785  0.1595 -1.2665  0.5353
  139MOL0     C18643   6.671   6.693   8.831 -0.3950  0.8119 -0.5545
  139MOL0     C18644   6.767   6.767   8.736 -0.6983  0.4660 -0.6914
  139MOL0     C18645   6.908   6.767   8.817 -0.0929 -0.7150 -0.5180
  139MOL0     C18646   7.012   6.835   8.734  0.3477  0.1845  0.2970
  139MOL0     N18647   7.144   6.853   8.803 -0.2612 -0.6259 -0.0826
  139MOL0     C18648   7.238   6.943   8.763 -0.2568 -0.2046 -0.6555
  139MOL0     C18649   7.353   6.902   8.829 -0.2150 -0.0759 -0.7986
  139MOL0     C18650   7.487   6.947   8.809  0.0445 -0.2538 -0.5450
  139MOL0     C18651   7.512   7.016   8.670  0.5296 -0.1914  0.7017
  139MOL0     C18652   7.631   7.108   8.650 -0.2632  0.9212  0.1145
  139MOL0     C18653   7.768   7.048   8.685  0.1157  0.9345  0.0038
  139MOL0     O18654   7.863   7.142   8.637  0.5036 -0.7371  0.1446
  139MOL0     C18655   7.993   7.142   8.677 -0.1763  0.0876  0.0869
  139MOL0     C18656   8.060   7.257   8.635  1.0657  0.0192 -0.4878
  139MOL0     C18657   8.193   7.273   8.664 -0.6588 -2.2883  0.3908
  139MOL0     C18658   8.260   7.171   8.727 -0.3441 -0.6421 -0.2278
  139MOL0     C18659   8.408   7.192   8.748 -1.1834 -0.4067 -0.1049
  139MOL0     O18660   8.477   7.083   8.799 -0.5822 -0.1128  0.5751
  139MOL0     C18661   8.606   7.078   8.820  0.2675 -0.2851 -0.4739
  139MOL0     C18662   8.656   6.949   8.804 -0.2535  0.0950 -0.3214
  139MOL0     C18663   8.790   6.919   8.829 -0.2045  0.3233 -0.1091
  139MOL0     C18664   8.877   7.018   8.862  0.3489 -0.7023 -0.3051
  139MOL0     O18665   9.009   6.975   8.876  0.6639 -0.3879 -0.3263
  139MOL0     C18666   9.111   7.076   8.868 -0.0436 -0.4082  0.6256
  139MOL0     C18667   9.249   7.006   8.886  0.2142 -0.3681 -0.6388
  139MOL0     C18668   9.351   7.115   8.921  0.1500  1.2635  0.4194
  139MOL0     C18669   9.502   7.071   8.910  0.8921  0.3433  0.4540
  139MOL0     C18670   9.596   7.185   8.922 -0.0510 -1.4033 -0.1751
  139MOL0     C18671   9.745   7.132   8.909  0.9821 -0.4575 -1.1984
  139MOL0     C18672   9.847   7.250   8.903  0.1564  0.1914  0.6017
  139MOL0     C18673   9.833   7.361   9.000  0.5988 -0.2323 -0.4385
  139MOL0    Cl18674   9.972   7.467   8.979  0.0449 -0.1014  0.0954
  139MOL0     C18675   8.824   7.150   8.892 -0.3834 -0.6047  0.1015
  139MOL0     C18676   8.687   7.176   8.871 -0.1646 -0.1071 -0.0936
  139MOL0     O18677   8.458   7.300   8.730 -0.3250 -0.2526 -0.0758
  139MOL0     C18678   8.195   7.051   8.762 -0.5084 -0.1905 -0.3454
  139MOL0     C18679   8.063   7.042   8.743 -0.5213  0.3497 -0.2496
  139MOL0     N18680   7.321   6.809   8.916  0.1105  0.4219 -0.0781
  139MOL0     N18681   7.198   6.771   8.896 -0.2407  0.2419  0.0950
  139MOL0     C18682   6.042   6.346   8.823 -0.0481 -0.6374  1.3122
  139MOL0     C18683   5.920   6.274   8.804 -0.4985 -0.0164  0.5957
  139MOL0     C18684   5.501   6.097   8.897  0.9009 -0.3115 -0.0778
  139MOL0     C18685   5.494   6.034   8.770 -0.1584  0.3539  0.6726
  139MOL0     C18686   5.385   5.952   8.732 -0.3327 -0.7188  0.3943
  139MOL0     C18687   5.290   5.920   8.824  0.4591 -0.5545 -0.1820
  139MOL0     O18688   5.196   5.837   8.780  0.2829  0.7589  0.2762
  139MOL0     C18689   5.107   5.772   8.870  0.1312  0.0018 -1.0292
  139MOL0     C18690   4.975   5.739   8.801  0.0593 -0.6502 -0.1925
  139MOL0     C18691   4.872   5.696   8.903 -0.0789  0.7128 -1.0307
  139MOL0     C18692   4.789   5.571   8.852 -0.4762 -0.9771 -1.0442
  139MOL0     C18693   4.692   5.606   8.750 -0.4220  0.0184 -0.2624
  139MOL0     C18694   4.597   5.637   8.688  0.4467  0.3000  0.8012
  139MOL0     C18695   5.291   5.977   8.950 -0.8929  0.3188 -0.5165
  139MOL0     C18696   5.393   6.064   8.986  0.0731 -0.5623  1.1428
  139MOL0     C18697   5.371   6.132   9.127  0.2636 -0.2887  0.5849
  139MOL0     H18698   5.724   6.433   9.033  0.3773 -1.2172  0.8516
  139MOL0     H18699   5.921   6.556   9.058 -1.9934  0.1598 -0.2353
  139MOL0     H18700   6.076   6.699   8.884 -0.1921  0.2823  0.5482
  139MOL0     H18701   6.163   6.680   9.034 -2.1561  0.5552  0.2179
  139MOL0     H18702   6.287   6.815   8.861  2.0663  0.3874 -0.4576
  139MOL0     H18703   6.246   6.713   8.737 -0.5865  0.9615  1.0320
  139MOL0     H18704   6.413   6.545   8.866  0.8637 -0.6768 -0.1762
  139MOL0     H18705   6.434   6.679   8.986  1.3723  0.3483  1.2932
  139MOL0     H18706   6.513   6.676   8.687 -0.1000 -0.0947 -0.0086
  139MOL0     H18707   6.523   6.832   8.778  3.8239 -1.2820 -0.8408
  139MOL0     H18708   6.671   6.733   8.933  1.8857  0.1312 -0.2206
  139MOL0     H18709   6.694   6.586   8.828  0.1362  0.8624  0.8729
  139MOL0     H18710   6.763   6.720   8.638 -4.6319  2.8655 -1.8848
  139MOL0     H18711   6.732   6.870   8.723  1.0706  1.3330  0.8841
  139MOL0     H18712   6.940   6.663   8.824  0.6252 -0.4555  0.1551
  139MOL0     H18713   6.889   6.806   8.917 -3.5293 -2.2818 -0.4218
  139MOL0     H18714   7.025   6.781   8.639 -0.4797  1.1786 -0.4046
  139MOL0     H18715   6.971   6.932   8.705  0.9432  0.0690 -1.0423
  139MOL0     H18716   7.216   7.028   8.699 -2.7454 -1.2100 -1.2493
  139MOL0     H18717   7.513   7.020   8.887  1.7552 -0.4366 -0.9086
  139MOL0     H18718   7.560   6.867   8.821  0.8841  0.5943  0.1683
  139MOL0     H18719   7.510   6.937   8.594  0.0794 -0.0722  0.5822
  139MOL0     H18720   7.429   7.087   8.657 -0.8910 -1.8368  0.4662
  139MOL0     H18721   7.630   7.197   8.714  1.3474 -0.4527  2.1851
  139MOL0     H18722   7.629   7.142   8.546 -1.6649 -0.1379 -0.2309
  139MOL0     H18723   7.782   6.953   8.633 -1.1193 -0.5866  2.3114
  139MOL0     H18724   7.785   7.033   8.792 -1.9221  0.3845  0.2835
  139MOL0     H18725   8.009   7.324   8.566 -1.6432 -3.9335 -2.7737
  139MOL0     H18726   8.252   7.358   8.633 -1.0580 -1.3219  2.1442
  139MOL0     H18727   8.589   6.869   8.773  0.2317 -1.7620  2.9384
  139MOL0     H18728   8.818   6.820   8.794 -0.9883  0.2493 -0.5790
  139MOL0     H18729   9.113   7.132   8.773 -0.7299  1.9080  1.8975
  139MOL0     H18730   9.095   7.149   8.948  0.5399 -0.7694  1.0786
  139MOL0     H18731   9.240   6.939   8.972 -1.1390  0.8042  0.1767
  139MOL0     H18732   9.295   6.949   8.805  2.2126 -1.2746  1.0329
  139MOL0     H18733   9.336   7.201   8.855 -1.3040  0.3426 -0.5145
  139MOL0     H18734   9.352   7.153   9.024  2.4465  1.3276  0.4180
  139MOL0     H18735   9.516   7.025   8.812  0.0725 -0.6335  0.7828
  139MOL0     H18736   9.518   6.983   8.972  0.3395 -0.9135 -1.1377
  139MOL0     H18737   9.582   7.238   9.017  3.1229  0.4678 -0.6286
  139MOL0     H18738   9.573   7.251   8.838 -2.2791 -1.5144  0.2889
  139MOL0     H18739   9.777   7.056   8.982  1.1783  2.4578  2.0004
  139MOL0     H18740   9.743   7.079   8.813 -1.9232 -0.8783 -0.9846
  139MOL0     H18741   9.847   7.284   8.799 -1.7240  1.0048  0.8325
  139MOL0     H18742   9.944   7.204   8.926 -0.5611 -0.8533  1.6110
  139MOL0     H18743   9.742   7.420   8.985 -0.1880 -1.0304  0.9707
  139MOL0     H18744   9.820   7.322   9.101 -0.9308 -0.2537 -0.6264
  139MOL0     H18745   8.889   7.234   8.913  0.7919 -1.7877  1.4449
  139MOL0     H18746   8.653   7.276   8.898  1.9054  0.7030 -0.2886
  139MOL0     H18747   8.252   6.966   8.799 -2.6219 -1.1719  0.8345
  139MOL0     H18748   8.006   6.960   8.785 -2.2980 -0.3317 -3.6408
  139MOL0     H18749   6.137   6.314   8.782 -0.4531 -1.0228  0.6593
  139MOL0     H18750   5.910   6.188   8.738 -1.5172 -2.6701  3.9172
  139MOL0     H18751   5.579   6.042   8.702  0.0076 -0.5936  0.7642
  139MOL0     H18752   5.386   5.900   8.636  2.2349 -2.4030  1.2319
  139MOL0     H18753   5.078   5.840   8.950 -0.6813 -1.4546 -0.0360
  139MOL0     H18754   5.144   5.677   8.910 -1.6155  0.2967  1.5357
  139MOL0     H18755   4.994   5.667   8.721  4.5383  1.2170 -1.1370
  139MOL0     H18756   4.944   5.829   8.747 -0.5960 -0.4525  0.4954
  139MOL0     H18757   4.801   5.777   8.923 -0.7554  0.4191 -2.0977
  139MOL0     H18758   4.919   5.668   8.997 -0.4211  2.4668 -0.2986
  139MOL0     H18759   4.852   5.490   8.814  0.7158 -0.4361 -0.2940
  139MOL0     H18760   4.747   5.526   8.942  0.3989 -3.8836 -1.9918
  139MOL0     H18761   4.502   5.664   8.646  1.3163  1.9022 -0.2973
  139MOL0     H18762   5.216   5.943   9.022 -2.4328  2.1121 -1.1963
  139MOL0     H18763   5.379   6.240   9.114 -1.1135 -0.3728 -1.5174
  139MOL0     H18764   5.269   6.121   9.164 -1.6234  0.7152 -3.7000
  139MOL0     H18765   5.447   6.097   9.198  0.6166 -1.0862 -0.1637
  140MOL0     O18766   2.778   5.742   2.394 -0.5064  1.0270  0.3697
  140MOL0     C18767   2.697   5.717   2.304 -0.4868 -0.1266 -0.1578
  140MOL0     O18768   2.729   5.710   2.176  0.3194  0.3102 -0.6156
  140MOL0     C18769   2.861   5.717   2.135 -0.1399  0.2194  1.2853
  140MOL0     C18770   2.932   5.610   2.070 -0.4745  0.1076  0.3930
  140MOL0     C18771   3.059   5.633   2.031 -0.4960  0.0194 -0.1791
  140MOL0     C18772   3.116   5.765   2.030  0.1279  0.1862  0.4282
  140MOL0     O18773   3.238   5.791   1.971 -0.0346  0.5379 -1.0194
  140MOL0     C18774   3.265   5.713   1.851  0.3321  0.3248  0.2992
  140MOL0     C18775   3.379   5.612   1.888  0.0665 -0.5183 -0.5875
  140MOL0     C18776   3.451   5.576   1.759 -0.2778  0.6443 -0.4394
  140MOL0     C18777   3.582   5.510   1.786 -0.0692 -0.3144  0.2295
  140MOL0     C18778   3.653   5.465   1.657 -0.2735 -0.5394  0.4994
  140MOL0     C18779   3.797   5.418   1.681 -0.1111 -0.2322  1.0718
  140MOL0     C18780   3.884   5.393   1.564 -0.4339 -0.8182 -0.0848
  140MOL0     C18781   4.006   5.326   1.615  0.0291 -0.0958  1.3000
  140MOL0     N18782   4.111   5.426   1.645 -0.1495 -0.3862  0.2297
  140MOL0     C18783   4.157   5.460   1.770  0.6101  0.0474 -0.2436
  140MOL0     C18784   4.238   5.568   1.754 -0.0362  0.1436 -1.0078
  140MOL0     C18785   4.324   5.629   1.858  0.1456 -0.3048  0.4892
  140MOL0     C18786   4.470   5.611   1.830  0.2411  0.7920  0.1861
  140MOL0     C18787   4.553   5.658   1.948 -0.4303 -0.2017  0.3468
  140MOL0     C18788   4.700   5.654   1.915  0.6022 -0.6038  0.4203
  140MOL0     O18789   4.778   5.726   2.010 -0.7134  0.0821 -0.2703
  140MOL0     C18790   4.915   5.706   2.012  0.3469 -0.0838  1.0250
  140MOL0     C18791   5.000   5.643   1.922  0.8938  0.4894  0.2093
  140MOL0     C18792   5.138   5.644   1.933 -0.1045  1.2215  0.4512
  140MOL0     C18793   5.196   5.702   2.045  0.2363  0.1107  0.7619
  140MOL0     C18794   5.344   5.709   2.065 -0.4411  0.0298 -0.3846
  140MOL0     O18795   5.420   5.656   1.965 -0.1169 -0.0117 -0.0406
  140MOL0     C18796   5.550   5.681   1.983 -0.4013  1.1102  0.1909
  140MOL0     C18797   5.634   5.576   2.019  0.2943  0.2520  0.4098
  140MOL0     C18798   5.768   5.597   2.036 -0.5078  1.0192  0.2811
  140MOL0     C18799   5.829   5.711   1.999 -0.9480 -0.2988  0.4549
  140MOL0     O18800   5.971   5.723   2.020  0.0293 -0.0775  0.0567
  140MOL0     C18801   6.041   5.796   1.919 -0.6699  0.5654 -0.2444
  140MOL0     C18802   6.183   5.737   1.937  0.1849  0.4268  0.7994
  140MOL0     C18803   6.279   5.800   1.836 -0.5662  0.7529 -1.1527
  140MOL0     C18804   6.312   5.942   1.884  0.8138  0.1891  0.1355
  140MOL0     C18805   6.439   5.993   1.820 -1.1055  0.3507  0.6092
  140MOL0     C18806   6.409   6.059   1.681 -0.1712 -0.9660 -0.4143
  140MOL0     C18807   6.542   6.088   1.598 -0.1200  0.6274  0.2203
  140MOL0     C18808   6.647   6.159   1.687 -0.0995 -0.1879 -0.1279
  140MOL0    Cl18809   6.803   6.185   1.596  0.7518 -0.1142 -0.0119
  140MOL0     C18810   5.747   5.822   1.962 -0.4238  0.9414 -0.4629
  140MOL0     C18811   5.607   5.802   1.949 -0.6828  0.1884  0.2147
  140MOL0     O18812   5.386   5.753   2.169  0.0009 -0.0611  0.2204
  140MOL0     C18813   5.116   5.758   2.145 -0.1571 -0.3985  0.2722
  140MOL0     C18814   4.978   5.764   2.124 -0.9744  0.6068 -0.6188
  140MOL0     N18815   4.234   5.600   1.617 -0.8575 -0.3289 -0.5370
  140MOL0     N18816   4.166   5.511   1.556 -0.2616 -0.5251  0.0375
  140MOL0     C18817   3.041   5.870   2.084  0.5001 -0.1192 -0.3756
  140MOL0     C18818   2.909   5.843   2.121  0.1058 -0.3979 -0.3904
  140MOL0     C18819   2.552   5.694   2.322  0.3204 -0.3334 -0.2940
  140MOL0     C18820   2.463   5.672   2.213 -0.2216 -0.3795 -0.4317
  140MOL0     C18821   2.327   5.680   2.219  0.6170 -0.2412 -0.1083
  140MOL0     C18822   2.261   5.683   2.349 -0.2569 -0.9376  0.2047
  140MOL0     O18823   2.117   5.677   2.361  1.1371 -0.0347 -0.5374
  140MOL0     C18824   2.045   5.645   2.244 -0.3702 -0.5181 -0.3195
  140MOL0     C18825   1.892   5.669   2.271 -0.0274  0.2479 -0.1153
  140MOL0     C18826   1.816   5.536   2.296 -0.3868 -0.2817 -0.0900
  140MOL0     C18827   1.663   5.557   2.294  0.3896  0.5754 -0.5339
  140MOL0     C18828   1.597   5.440   2.351 -0.0222  0.3087 -0.3136
  140MOL0     C18829   1.530   5.350   2.381 -0.2545  0.0741 -0.2250
  140MOL0     C18830   2.341   5.696   2.457 -0.8711 -0.5774 -0.0717
  140MOL0     C18831   2.482   5.694   2.447  0.2852  0.3966 -0.3618
  140MOL0     C18832   2.551   5.718   2.578  0.4083  0.3666  0.1125
  140MOL0     H18833   2.888   5.511   2.062 -3.5892  1.5187 -1.7611
  140MOL0     H18834   3.104   5.543   1.991 -0.7988  0.3429 -1.2782
  140MOL0     H18835   3.184   5.664   1.796  2.7934 -0.7310 -2.7248
  140MOL0     H18836   3.309   5.780   1.777 -0.3839 -0.3288 -0.7467
  140MOL0     H18837   3.340   5.522   1.936  0.1884  0.4637  1.4558
  140MOL0     H18838   3.461   5.659   1.944 -0.2555  0.5622 -1.0036
  140MOL0     H18839   3.476   5.669   1.707  2.5425  0.2715  0.0575
  140MOL0     H18840   3.391   5.502   1.705 -2.1296  1.6331  0.1767
  140MOL0     H18841   3.651   5.583   1.830  0.8425 -0.6823 -0.5494
  140MOL0     H18842   3.554   5.420   1.842 -0.2736 -1.6615 -1.9367
  140MOL0     H18843   3.599   5.380   1.615 -1.5346  0.3767  0.2043
  140MOL0     H18844   3.666   5.542   1.580 -3.3262  1.5163  1.8336
  140MOL0     H18845   3.850   5.494   1.739 -0.9805  0.3950  1.0688
  140MOL0     H18846   3.790   5.328   1.742  2.2353 -0.7860  0.6037
  140MOL0     H18847   3.910   5.487   1.513 -1.1253 -0.6761 -0.1926
  140MOL0     H18848   3.830   5.325   1.497 -1.9733  1.3603 -1.1972
  140MOL0     H18849   3.990   5.256   1.698  0.5756 -2.6164 -0.5918
  140MOL0     H18850   4.042   5.261   1.535 -2.0539 -0.2214  0.4243
  140MOL0     H18851   4.141   5.402   1.860  1.0828 -0.4524 -0.4717
  140MOL0     H18852   4.306   5.736   1.866  1.8056  0.0366  0.0609
  140MOL0     H18853   4.303   5.585   1.956 -0.0059  1.8823  1.4898
  140MOL0     H18854   4.482   5.503   1.818  1.3511  0.7556  1.3684
  140MOL0     H18855   4.488   5.661   1.735 -2.5130 -1.6600 -1.8071
  140MOL0     H18856   4.528   5.606   2.041  0.0651  0.4786  0.8678
  140MOL0     H18857   4.530   5.765   1.958  2.0949  0.4305  0.0527
  140MOL0     H18858   4.695   5.717   1.826 -3.5349 -1.3029 -0.0410
  140MOL0     H18859   4.739   5.555   1.889 -1.2919 -0.7695 -2.1862
  140MOL0     H18860   4.948   5.595   1.840 -0.6643 -0.1747  1.5039
  140MOL0     H18861   5.195   5.589   1.859 -1.2175  3.0060 -1.8255
  140MOL0     H18862   5.596   5.474   2.017 -1.1528  0.7695 -0.4706
  140MOL0     H18863   5.837   5.517   2.062  2.6823  3.5599  0.1418
  140MOL0     H18864   6.011   5.769   1.817 -1.8259 -2.4076  0.7696
  140MOL0     H18865   6.038   5.905   1.930  0.7112  0.8254 -1.9795
  140MOL0     H18866   6.221   5.757   2.038  1.9379  1.8804 -0.0764
  140MOL0     H18867   6.166   5.630   1.926 -1.8853  0.7718  0.1803
  140MOL0     H18868   6.377   5.750   1.842  0.5754  2.7760 -2.0741
  140MOL0     H18869   6.237   5.789   1.736 -1.5484  1.9470 -0.8882
  140MOL0     H18870   6.317   5.944   1.993 -1.8377  2.0516  0.3162
  140MOL0     H18871   6.230   6.013   1.870  0.5212 -0.4808 -1.9409
  140MOL0     H18872   6.500   5.904   1.802 -2.0132 -0.4219  1.2642
  140MOL0     H18873   6.486   6.071   1.881 -1.7902  2.6884 -1.6820
  140MOL0     H18874   6.345   5.983   1.634 -0.7671 -1.7757  1.5897
  140MOL0     H18875   6.348   6.150   1.683 -3.3295 -2.9167  0.3691
  140MOL0     H18876   6.523   6.141   1.504  1.4049 -4.7528 -3.6566
  140MOL0     H18877   6.583   5.993   1.562  1.7880  2.0577 -1.5832
  140MOL0     H18878   6.609   6.256   1.722 -2.4855 -0.9109 -0.5263
  140MOL0     H18879   6.676   6.103   1.776 -0.5770 -3.1785 -1.7525
  140MOL0     H18880   5.791   5.921   1.961  0.4997  0.5545  0.0646
  140MOL0     H18881   5.544   5.885   1.918  2.2018  2.3756 -0.2739
  140MOL0     H18882   5.158   5.803   2.235 -0.8929  1.5736 -0.3333
  140MOL0     H18883   4.916   5.809   2.200  0.9490  0.1225  1.3203
  140MOL0     H18884   3.068   5.975   2.081  1.7484 -0.1427  3.6366
  140MOL0     H18885   2.854   5.927   2.160  1.3197  0.5852 -0.7350
  140MOL0     H18886   2.509   5.663   2.115  3.4878  1.1790  0.9651
  140MOL0     H18887   2.273   5.691   2.126  0.6626  0.7410 -0.0259
  140MOL0     H18888   2.066   5.546   2.203  3.2977  0.7700 -2.0396
  140MOL0     H18889   2.065   5.716   2.163 -2.1252  1.0681  0.5606
  140MOL0     H18890   1.844   5.706   2.180 -3.0233 -1.4126  0.6629
  140MOL0     H18891   1.887   5.745   2.350 -0.2821 -0.9563  1.0613
  140MOL0     H18892   1.844   5.480   2.386  0.3991 -0.1327 -0.2281
  140MOL0     H18893   1.837   5.480   2.204  0.7353  1.0992 -0.7233
  140MOL0     H18894   1.624   5.646   2.343  0.1134  0.2433 -0.1484
  140MOL0     H18895   1.640   5.564   2.187 -0.0850 -1.2791 -0.5938
  140MOL0     H18896   1.467   5.271   2.415  1.0913 -1.9222 -2.0978
  140MOL0     H18897   2.291   5.713   2.552  0.1390 -0.6771  0.4941
  140MOL0     H18898   2.609   5.810   2.580 -0.1268  0.6923  1.0490
  140MOL0     H18899   2.487   5.719   2.666 -0.8456  4.3205 -0.6390
  140MOL0     H18900   2.625   5.637   2.574  0.2257  0.1926  0.2216
  141MOL0     O18901  10.844  11.271   5.650 -0.3621  0.8844  0.2127
  141MOL0     C18902  10.726  11.292   5.636  0.1998 -0.9821 -0.5167
  141MOL0     O18903  10.667  11.417   5.632 -0.0737 -0.1812  0.7398
  141MOL0     C18904  10.746  11.516   5.587  0.5812 -1.4207 -0.0568
  141MOL0     C18905  10.768  11.546   5.457 -0.1775 -0.7872 -0.3509
  141MOL0     C18906  10.836  11.666   5.426  0.0691 -0.0833 -0.3583
  141MOL0     C18907  10.855  11.769   5.522 -0.6576  0.0095  0.6257
  141MOL0     O18908  10.912  11.889   5.487 -0.5482 -0.3126  0.1022
  141MOL0     C18909  11.016  11.872   5.390 -0.5106  0.2306 -0.4653
  141MOL0     C18910  11.113  12.002   5.393  0.2148  0.8955 -0.6766
  141MOL0     C18911  11.261  11.977   5.361 -0.6767 -0.2980  0.8652
  141MOL0     C18912  11.333  12.109   5.310  0.3373 -0.6350  1.3539
  141MOL0     C18913  11.477  12.097   5.266  0.0495  0.3732  0.1098
  141MOL0     C18914  11.498  11.997   5.148 -0.1909 -0.1917 -0.2598
  141MOL0     C18915  11.644  12.006   5.084 -0.2979 -0.6252 -0.3212
  141MOL0     C18916  11.666  11.924   4.953 -0.1149  0.7689 -0.4052
  141MOL0     N18917  11.782  11.972   4.885  0.3493  0.3732  0.1673
  141MOL0     C18918  11.904  11.991   4.940  0.2812  0.0402  0.0261
  141MOL0     C18919  11.981  12.038   4.842 -0.0978 -0.4487 -0.1612
  141MOL0     C18920  12.123  12.084   4.858 -0.5116 -0.5085 -0.1269
  141MOL0     C18921  12.221  11.966   4.819  0.3310 -0.3870  0.1303
  141MOL0     C18922  12.235  11.856   4.926  0.0440 -0.1064  0.2599
  141MOL0     C18923  12.360  11.769   4.912  0.1122 -0.4085 -0.7071
  141MOL0     O18924  12.355  11.673   5.015  0.4516  0.6523 -0.6654
  141MOL0     C18925  12.474  11.631   5.073  0.0113  0.2025 -0.5492
  141MOL0     C18926  12.594  11.630   5.013 -0.2068  0.3267 -0.0004
  141MOL0     C18927  12.712  11.585   5.079  0.2062  0.3284  1.2471
  141MOL0     C18928  12.701  11.545   5.210 -0.1032  0.1058 -0.1496
  141MOL0     C18929  12.826  11.488   5.272  0.1430  0.5145  0.0090
  141MOL0     O18930  12.941  11.541   5.258 -0.5409 -0.3248  0.1525
  141MOL0     C18931  13.051  11.474   5.302  0.4006 -0.0874 -1.1766
  141MOL0     C18932  13.099  11.363   5.241  0.1879  0.4073 -0.3463
  141MOL0     C18933  13.206  11.295   5.295 -0.4592  0.1979  0.6703
  141MOL0     C18934  13.249  11.333   5.425  0.2209  0.1524 -0.4299
  141MOL0     O18935  13.362  11.285   5.489 -0.0405 -0.1264  0.3532
  141MOL0     C18936  13.409  11.154   5.462 -0.0395 -0.5340  0.2305
  141MOL0     C18937  13.530  11.123   5.549  0.0197  0.2170  0.3800
  141MOL0     C18938  13.592  10.986   5.507  0.0958 -0.5682 -0.3735
  141MOL0     C18939  13.709  10.963   5.602 -0.1395  0.0708 -0.8462
  141MOL0     C18940  13.795  10.852   5.551  0.2908  0.1560 -0.0501
  141MOL0     C18941  13.925  10.847   5.637 -0.0737  0.0174  0.1853
  141MOL0     C18942  13.886  10.806   5.784 -0.0100 -0.1861  0.1652
  141MOL0     C18943  14.016  10.780   5.859 -0.0918 -0.0088 -0.3119
  141MOL0    Cl18944  14.101  10.930   5.875  0.2502  0.2919 -0.2250
  141MOL0     C18945  13.200  11.447   5.483  0.6656  0.8604 -0.2621
  141MOL0     C18946  13.095  11.524   5.422  0.2927  0.1214  0.1874
  141MOL0     O18947  12.804  11.383   5.329 -0.5824  0.0240 -0.3207
  141MOL0     C18948  12.574  11.547   5.271 -0.2156 -0.5895  0.0517
  141MOL0     C18949  12.464  11.587   5.202 -0.3259 -0.0795  0.4787
  141MOL0     N18950  11.906  12.051   4.729 -0.2501  0.3425 -0.7752
  141MOL0     N18951  11.784  12.018   4.762  0.0141 -0.6110 -0.1997
  141MOL0     C18952  10.811  11.743   5.647  0.1659  0.0578  0.2495
  141MOL0     C18953  10.766  11.618   5.676  0.0720  0.8484  0.2299
  141MOL0     C18954  10.643  11.164   5.630 -0.7459  0.1636  0.1298
  141MOL0     C18955  10.686  11.055   5.704 -0.0700 -0.3066 -0.9831
  141MOL0     C18956  10.612  10.943   5.681  0.8468  1.3425 -0.4242
  141MOL0     C18957  10.494  10.929   5.605  0.1834  0.1525 -0.6467
  141MOL0     O18958  10.424  10.802   5.600  0.1250 -0.8960 -0.2309
  141MOL0     C18959  10.306  10.781   5.519 -0.9145 -0.3698  0.4133
  141MOL0     C18960  10.274  10.629   5.509 -0.4127  0.9509  0.5821
  141MOL0     C18961  10.362  10.536   5.419  0.6255 -0.0589 -0.0916
  141MOL0     C18962  10.489  10.490   5.483 -0.6708  0.0189 -0.1940
  141MOL0     C18963  10.541  10.400   5.386  0.2935  0.4935  0.2783
  141MOL0     C18964  10.598  10.317   5.310  0.0997 -0.3565  0.2068
  141MOL0     C18965  10.447  11.044   5.544 -1.0595  0.4729  0.5046
  141MOL0     C18966  10.526  11.161   5.551  0.2858 -0.4888  0.1526
  141MOL0     C18967  10.476  11.278   5.480 -0.0575  0.5510  0.6478
  141MOL0     H18968  10.742  11.471   5.383  0.2708 -0.5645 -0.7431
  141MOL0     H18969  10.854  11.685   5.321  0.0128  1.3361 -0.1229
  141MOL0     H18970  11.085  11.793   5.423 -1.0922  0.4782  1.4372
  141MOL0     H18971  10.973  11.855   5.291  2.4421 -1.4936 -1.5712
  141MOL0     H18972  11.103  12.037   5.497 -0.2612  1.3360 -0.8682
  141MOL0     H18973  11.072  12.071   5.319 -0.7202  0.5710 -0.4696
  141MOL0     H18974  11.272  11.895   5.289  2.3660  0.6594  0.1138
  141MOL0     H18975  11.317  11.957   5.453  2.0061  2.1173 -0.1075
  141MOL0     H18976  11.283  12.144   5.219  3.4066 -1.6643 -0.8740
  141MOL0     H18977  11.329  12.181   5.391  0.7056 -1.9589  2.5919
  141MOL0     H18978  11.516  12.192   5.230 -0.0957  0.1122 -0.7633
  141MOL0     H18979  11.544  12.061   5.345  0.9532 -0.0595 -0.8304
  141MOL0     H18980  11.486  11.896   5.189  0.5168 -0.1557  0.0620
  141MOL0     H18981  11.426  12.014   5.068 -0.0376 -2.2295 -0.8869
  141MOL0     H18982  11.722  11.989   5.157  0.9884  4.6606 -0.0759
  141MOL0     H18983  11.652  12.114   5.065  0.0150 -0.9067 -1.9289
  141MOL0     H18984  11.674  11.819   4.983 -1.4066  0.2658 -1.7478
  141MOL0     H18985  11.589  11.930   4.876  0.0586  0.7905 -0.5793
  141MOL0     H18986  11.923  11.982   5.046 -2.7007 -0.0024  0.6314
  141MOL0     H18987  12.156  12.171   4.801  5.0939 -1.6366  0.7430
  141MOL0     H18988  12.133  12.125   4.959 -4.3104 -1.7145  0.9036
  141MOL0     H18989  12.178  11.922   4.729 -1.9059 -1.0384  1.4473
  141MOL0     H18990  12.319  12.012   4.805 -0.7176  1.3294 -2.4980
  141MOL0     H18991  12.152  11.784   4.922  0.0476 -0.0563 -0.9705
  141MOL0     H18992  12.228  11.903   5.024 -2.2990 -1.3186  0.7514
  141MOL0     H18993  12.448  11.833   4.927 -1.0207  1.1340 -0.4141
  141MOL0     H18994  12.367  11.729   4.811 -1.4642  0.8775 -1.3666
  141MOL0     H18995  12.606  11.651   4.908 -0.5238 -0.9629 -0.3119
  141MOL0     H18996  12.801  11.583   5.016 -1.1254  0.5865 -0.7424
  141MOL0     H18997  13.064  11.327   5.145  1.3901 -0.1941 -0.5767
  141MOL0     H18998  13.253  11.215   5.239 -5.6993 -1.9369 -1.3338
  141MOL0     H18999  13.329  11.084   5.489  1.0615 -1.4041  1.3740
  141MOL0     H19000  13.434  11.149   5.356  3.1978  1.6617  0.7493
  141MOL0     H19001  13.606  11.198   5.526  1.5771 -0.9625  1.4732
  141MOL0     H19002  13.500  11.108   5.653 -0.3050  1.2706  0.4467
  141MOL0     H19003  13.514  10.909   5.511  0.7960 -1.6627 -4.1038
  141MOL0     H19004  13.637  10.993   5.408  1.7570  2.0211  0.4695
  141MOL0     H19005  13.678  10.941   5.704  0.6953 -0.8822 -0.7793
  141MOL0     H19006  13.771  11.054   5.608  0.4161 -0.3908  1.3035
  141MOL0     H19007  13.833  10.859   5.449  1.9969 -2.7177  0.2828
  141MOL0     H19008  13.750  10.753   5.556  2.3212 -0.8345 -0.3423
  141MOL0     H19009  13.991  10.776   5.587  1.6761  1.4470  0.4053
  141MOL0     H19010  13.965  10.948   5.630 -1.6042  0.7589  1.3283
  141MOL0     H19011  13.820  10.718   5.780 -0.8209  0.3501  1.2246
  141MOL0     H19012  13.829  10.877   5.845 -1.9023 -0.3657 -1.2673
  141MOL0     H19013  14.008  10.741   5.961  0.4980 -0.8756 -0.5867
  141MOL0     H19014  14.077  10.711   5.801 -0.1054 -2.6802  2.5554
  141MOL0     H19015  13.252  11.466   5.576  0.5297 -1.7673  0.4138
  141MOL0     H19016  13.071  11.616   5.473  3.0337  0.3164  1.2878
  141MOL0     H19017  12.564  11.517   5.375  2.1394  0.2306  0.5738
  141MOL0     H19018  12.370  11.576   5.254 -1.3926  0.2429 -1.3152
  141MOL0     H19019  10.813  11.818   5.726 -1.6904 -1.0784  1.4397
  141MOL0     H19020  10.727  11.601   5.776 -0.5995 -1.7049 -0.3829
  141MOL0     H19021  10.763  11.054   5.780 -0.3330 -0.4138 -0.7132
  141MOL0     H19022  10.658  10.853   5.720  1.2267  2.0519  0.8345
  141MOL0     H19023  10.328  10.825   5.421 -0.7211 -0.8411  0.2436
  141MOL0     H19024  10.219  10.825   5.569 -1.1050 -1.7553  1.3738
  141MOL0     H19025  10.172  10.614   5.474 -0.2347 -0.8501  0.7554
  141MOL0     H19026  10.269  10.585   5.609 -3.4335 -1.6911 -0.5645
  141MOL0     H19027  10.380  10.583   5.322 -1.0874  2.3262  0.6367
  141MOL0     H19028  10.291  10.454   5.403  1.8793 -1.3764  0.8223
  141MOL0     H19029  10.552  10.579   5.486 -1.9163  1.0253 -1.7954
  141MOL0     H19030  10.488  10.442   5.581  3.1322  0.5107  0.2357
  141MOL0     H19031  10.643  10.249   5.241  0.7615  2.6838 -2.6540
  141MOL0     H19032  10.362  11.040   5.476 -1.3997  1.0175  0.8922
  141MOL0     H19033  10.436  11.360   5.541 -1.7274  1.6333 -1.7343
  141MOL0     H19034  10.554  11.318   5.415  0.4940 -1.7124 -0.1998
  141MOL0     H19035  10.385  11.244   5.429 -0.0298  1.0567  0.2606
  142MOL0     O19036   8.245   8.361   9.897 -0.1407  0.9299  0.7799
  142MOL0     C19037   8.293   8.376   9.785  0.3186 -0.1822  0.4393
  142MOL0     O19038   8.422   8.416   9.757 -0.4276  0.5114 -0.3351
  142MOL0     C19039   8.510   8.461   9.851 -0.2606  0.1691 -0.3782
  142MOL0     C19040   8.505   8.400   9.979 -0.4854  0.0470 -1.3102
  142MOL0     C19041   8.594   8.440  10.080  0.1232 -0.7136  0.2955
  142MOL0     C19042   8.691   8.541  10.047  1.1130 -0.2349  0.5577
  142MOL0     O19043   8.781   8.581  10.135  0.2627  0.2638  0.0972
  142MOL0     C19044   8.920   8.595  10.091  0.0040 -0.6240 -0.4600
  142MOL0     C19045   8.965   8.738  10.104 -0.8101 -0.4090 -0.3610
  142MOL0     C19046   9.114   8.770  10.077 -0.5907 -1.0780 -0.4860
  142MOL0     C19047   9.181   8.780  10.220 -0.4115 -1.1363 -0.3888
  142MOL0     C19048   9.330   8.797  10.225  0.1755  0.5054  0.9336
  142MOL0     C19049   9.376   8.878  10.347 -0.2518 -0.1180  0.6218
  142MOL0     C19050   9.530   8.890  10.346  0.5149  0.3709 -0.8166
  142MOL0     C19051   9.598   8.750  10.376 -0.0711  0.6740 -0.3662
  142MOL0     N19052   9.740   8.775  10.426  0.9473  0.1279  0.0149
  142MOL0     C19053   9.766   8.843  10.540 -0.8569  0.2614 -1.0786
  142MOL0     C19054   9.907   8.866  10.528 -0.5108  0.3283  0.4638
  142MOL0     C19055   9.997   8.957  10.608  0.4643 -0.6993 -0.5652
  142MOL0     C19056  10.142   8.905  10.638 -0.4907 -0.2707 -0.2532
  142MOL0     C19057  10.235   9.013  10.710  0.4885  0.7378 -0.3610
  142MOL0     C19058  10.274   9.125  10.613  0.7562 -0.2500 -0.2077
  142MOL0     O19059  10.377   9.207  10.666 -0.0531  0.3093 -0.2064
  142MOL0     C19060  10.513   9.164  10.668  0.4358 -1.1417 -0.4020
  142MOL0     C19061  10.557   9.043  10.619  0.7345  0.4093  0.1907
  142MOL0     C19062  10.699   9.019  10.609  0.7946  0.4372 -0.0170
  142MOL0     C19063  10.790   9.100  10.674  0.4756  0.0564 -0.1649
  142MOL0     C19064  10.936   9.089  10.645 -0.6778  0.0472 -1.1682
  142MOL0     O19065  10.978   8.966  10.626  0.0217  0.1015  0.9688
  142MOL0     C19066  11.108   8.922  10.621 -0.2635 -0.2728  0.6150
  142MOL0     C19067  11.215   9.000  10.574 -0.7953  0.5634 -1.1244
  142MOL0     C19068  11.347   8.945  10.556 -0.5638 -0.3215 -0.8836
  142MOL0     C19069  11.368   8.810  10.589 -0.8059 -0.1585 -0.7315
  142MOL0     O19070  11.485   8.739  10.571 -0.2836  0.7070  0.9503
  142MOL0     C19071  11.563   8.754  10.444  0.9571 -0.2495  0.1143
  142MOL0     C19072  11.693   8.830  10.484 -0.2775  1.0197 -1.1126
  142MOL0     C19073  11.777   8.734  10.586 -0.2088  0.0111 -0.1762
  142MOL0     C19074  11.899   8.801  10.634 -0.7085  0.1566 -0.8476
  142MOL0     C19075  11.982   8.687  10.694  0.7682 -0.3471  0.2327
  142MOL0     C19076  12.113   8.745  10.744  0.0878  0.1107  0.2889
  142MOL0     C19077  12.216   8.766  10.632 -0.1444  0.4769  0.4568
  142MOL0     C19078  12.349   8.802  10.694 -0.3348  0.9953  0.0016
  142MOL0    Cl19079  12.362   8.954  10.769  0.3276  0.2821 -0.1556
  142MOL0     C19080  11.258   8.734  10.645 -0.3968  0.7130 -0.3383
  142MOL0     C19081  11.131   8.791  10.648 -0.5008 -0.6303 -0.4581
  142MOL0     O19082  11.010   9.187  10.671  0.3129 -0.3371 -0.6136
  142MOL0     C19083  10.743   9.209  10.744 -0.0841 -0.1254 -0.2929
  142MOL0     C19084  10.607   9.248  10.732 -0.3484 -0.4505  0.0941
  142MOL0     N19085   9.949   8.817  10.403  0.7230 -0.3574  0.3791
  142MOL0     N19086   9.846   8.766  10.344  0.2770  0.9299 -0.0239
  142MOL0     C19087   8.683   8.613   9.926 -0.1063 -0.3390 -0.0634
  142MOL0     C19088   8.595   8.570   9.830 -0.0306  0.8310  0.2370
  142MOL0     C19089   8.209   8.352   9.670  0.4931 -0.6544  0.0292
  142MOL0     C19090   8.258   8.372   9.545 -0.1499  0.2863  1.3545
  142MOL0     C19091   8.177   8.380   9.431 -1.2699 -0.4757  0.1951
  142MOL0     C19092   8.048   8.329   9.432 -0.8884  0.4814 -0.3302
  142MOL0     O19093   7.977   8.302   9.311  0.0965  0.1631 -0.3492
  142MOL0     C19094   7.923   8.420   9.252  0.7661  1.1625  0.9047
  142MOL0     C19095   7.774   8.435   9.305 -0.6178  0.2850 -0.5282
  142MOL0     C19096   7.694   8.521   9.210 -0.2267 -0.5164  0.4233
  142MOL0     C19097   7.559   8.570   9.244  0.3278  0.2041  0.3613
  142MOL0     C19098   7.526   8.588   9.389 -0.2631  0.4819 -0.1366
  142MOL0     C19099   7.496   8.631   9.495  0.3604  0.4294  0.6136
  142MOL0     C19100   7.992   8.302   9.558  0.2458 -0.6733  0.8793
  142MOL0     C19101   8.067   8.317   9.671 -0.6862 -0.8629 -0.5017
  142MOL0     C19102   7.992   8.282   9.798 -0.5585 -0.4669  0.4338
  142MOL0     H19103   8.464   8.300   9.979  1.8884 -1.0362  0.5409
  142MOL0     H19104   8.597   8.389  10.175  1.5390  0.2663  0.8109
  142MOL0     H19105   8.981   8.539  10.163  1.2682  0.0650 -0.9676
  142MOL0     H19106   8.932   8.544   9.995 -0.5914 -1.1748 -0.2513
  142MOL0     H19107   8.942   8.767  10.207  1.0529 -1.9116  0.5371
  142MOL0     H19108   8.898   8.801  10.044  0.1691  1.3673  0.3196
  142MOL0     H19109   9.126   8.861  10.019 -3.8401 -0.2163 -0.0386
  142MOL0     H19110   9.151   8.690  10.011 -0.3572  0.1022 -1.8237
  142MOL0     H19111   9.133   8.861  10.275  0.2746 -0.4304 -0.8296
  142MOL0     H19112   9.152   8.685  10.267  0.2272 -1.2946 -0.3135
  142MOL0     H19113   9.368   8.695  10.217 -0.1309  0.4099  0.6974
  142MOL0     H19114   9.376   8.843  10.137  0.1918 -0.1316  0.6068
  142MOL0     H19115   9.326   8.975  10.348  0.0884  0.2403 -3.0967
  142MOL0     H19116   9.351   8.826  10.440  2.7834 -1.0451  1.0159
  142MOL0     H19117   9.547   8.956  10.431  3.2458 -0.3589 -0.7045
  142MOL0     H19118   9.567   8.936  10.254  0.0721  0.0613 -1.1534
  142MOL0     H19119   9.559   8.679  10.450 -0.2712  2.1376  0.9667
  142MOL0     H19120   9.613   8.697  10.281  1.5475  1.6996 -0.7376
  142MOL0     H19121   9.691   8.874  10.612 -3.7911 -2.1591 -2.8315
  142MOL0     H19122  10.020   9.049  10.552 -0.8765  1.5368  2.2541
  142MOL0     H19123   9.949   8.992  10.700 -0.0337 -0.3570 -0.9527
  142MOL0     H19124  10.127   8.826  10.712 -1.1713  1.4393  1.5211
  142MOL0     H19125  10.193   8.860  10.552  0.2242 -0.2888  0.1717
  142MOL0     H19126  10.322   8.958  10.747 -1.3278 -1.4486  0.9616
  142MOL0     H19127  10.184   9.057  10.796 -3.9290 -1.5063 -1.5174
  142MOL0     H19128  10.184   9.185  10.598  0.0459 -0.7894  1.6643
  142MOL0     H19129  10.295   9.082  10.515 -0.3242  0.6379 -0.8514
  142MOL0     H19130  10.482   8.978  10.576 -0.1051  1.9331 -0.7546
  142MOL0     H19131  10.729   8.925  10.563  1.3701  0.8252 -0.4551
  142MOL0     H19132  11.202   9.108  10.568  0.7012  0.8380  0.1072
  142MOL0     H19133  11.422   9.012  10.514 -0.8498  0.7850  0.2785
  142MOL0     H19134  11.576   8.655  10.401 -1.9087 -1.3498  1.5613
  142MOL0     H19135  11.514   8.815  10.368  0.9473  0.6881  0.8513
  142MOL0     H19136  11.750   8.830  10.390  0.8471 -0.5086 -0.4835
  142MOL0     H19137  11.685   8.932  10.523 -1.4363  0.4039  0.3419
  142MOL0     H19138  11.720   8.702  10.674 -0.4799  3.3648  1.0187
  142MOL0     H19139  11.806   8.650  10.522 -1.1148 -2.5530  2.5790
  142MOL0     H19140  11.881   8.888  10.698 -0.2186 -0.1567 -0.2777
  142MOL0     H19141  11.962   8.851  10.560  0.8641 -0.3411  0.1002
  142MOL0     H19142  12.010   8.612  10.620 -1.3027 -0.2088 -0.7566
  142MOL0     H19143  11.928   8.643  10.778  1.5411  1.6803  1.8796
  142MOL0     H19144  12.091   8.838  10.798 -1.4729 -0.8389  1.3553
  142MOL0     H19145  12.153   8.668  10.811  0.9922 -0.0810 -0.4447
  142MOL0     H19146  12.192   8.839  10.554  2.0652 -0.1561 -0.9300
  142MOL0     H19147  12.229   8.676  10.571  3.0656  2.3309 -1.9338
  142MOL0     H19148  12.364   8.718  10.763  0.4664  0.9136 -0.2695
  142MOL0     H19149  12.422   8.785  10.615 -1.2309 -0.2392 -0.5965
  142MOL0     H19150  11.286   8.629  10.638  2.6159  1.4683 -1.2372
  142MOL0     H19151  11.046   8.727  10.668 -2.6347  1.5205 -2.0285
  142MOL0     H19152  10.812   9.263  10.808 -1.5447  0.8332  0.5363
  142MOL0     H19153  10.566   9.331  10.787 -0.7146  0.0125 -0.8580
  142MOL0     H19154   8.745   8.697   9.898 -0.4711  0.2180  0.7511
  142MOL0     H19155   8.596   8.624   9.736 -1.2375  1.3097  0.4847
  142MOL0     H19156   8.365   8.384   9.533 -0.2840 -0.2792 -0.9591
  142MOL0     H19157   8.230   8.380   9.336 -1.1691  0.3882  0.2476
  142MOL0     H19158   7.927   8.411   9.143  0.4691  1.8550  0.8309
  142MOL0     H19159   7.985   8.505   9.280  2.6645  0.2652 -0.3981
  142MOL0     H19160   7.780   8.481   9.404  2.8753  2.6712 -1.6747
  142MOL0     H19161   7.735   8.334   9.322  1.2638 -0.5314 -0.7970
  142MOL0     H19162   7.664   8.455   9.128 -1.2081  1.0753 -0.5390
  142MOL0     H19163   7.748   8.615   9.195  0.9206 -1.2509 -0.2104
  142MOL0     H19164   7.539   8.663   9.190  2.1417  0.8829  0.7761
  142MOL0     H19165   7.490   8.495   9.206  1.0742 -2.6449  3.9906
  142MOL0     H19166   7.490   8.671   9.594  1.1920 -1.1569  1.3423
  142MOL0     H19167   7.886   8.284   9.569 -0.2342 -0.1327 -2.0762
  142MOL0     H19168   7.885   8.293   9.777 -0.2673 -1.4374 -1.8357
  142MOL0     H19169   8.007   8.179   9.835 -0.2054 -0.6517 -0.2159
  142MOL0     H19170   8.008   8.353   9.879 -0.2846  1.3200 -1.1236
  143MOL0     O19171   7.950   6.839   3.820  1.0666  0.2173 -0.7944
  143MOL0     C19172   7.942   6.850   3.701 -0.0496 -0.2356  0.2672
  143MOL0     O19173   8.041   6.865   3.614  0.0764  0.0491 -0.4877
  143MOL0     C19174   8.178   6.851   3.628  0.3765 -0.8561 -1.2261
  143MOL0     C19175   8.246   6.820   3.514 -0.0281 -0.1001 -0.2798
  143MOL0     C19176   8.385   6.821   3.501 -0.1493 -0.2640  0.1218
  143MOL0     C19177   8.459   6.854   3.619 -0.4591  1.1530  0.4808
  143MOL0     O19178   8.599   6.889   3.603 -0.0351 -0.0369 -0.4859
  143MOL0     C19179   8.680   6.823   3.504 -0.1594  0.5505 -0.0206
  143MOL0     C19180   8.828   6.856   3.531 -0.3719 -0.6865 -1.8182
  143MOL0     C19181   8.936   6.829   3.415  0.4509  0.9555 -0.6991
  143MOL0     C19182   9.066   6.895   3.470 -0.2952  0.4844  0.6467
  143MOL0     C19183   9.141   6.963   3.352  0.1061 -0.4694 -0.0244
  143MOL0     C19184   9.279   7.020   3.413 -0.0673 -0.1589 -0.9869
  143MOL0     C19185   9.399   6.965   3.346  0.4221 -0.1078 -0.0609
  143MOL0     C19186   9.427   6.814   3.364 -0.3511  0.1989 -0.2895
  143MOL0     N19187   9.456   6.783   3.510 -0.0738 -0.2320  0.7128
  143MOL0     C19188   9.558   6.829   3.587 -0.1645  0.5570  0.4807
  143MOL0     C19189   9.554   6.747   3.697  0.6211  0.0544  0.4947
  143MOL0     C19190   9.648   6.750   3.808  0.2906  0.1396  0.9530
  143MOL0     C19191   9.771   6.668   3.769 -0.0946 -0.5280 -0.8551
  143MOL0     C19192   9.858   6.610   3.880 -0.0950 -0.5156 -0.3095
  143MOL0     C19193   9.949   6.715   3.946 -0.0384  0.5397  0.3813
  143MOL0     O19194  10.054   6.756   3.863 -1.1887  0.4103  0.8505
  143MOL0     C19195  10.179   6.700   3.885  0.6699 -0.1527 -0.4760
  143MOL0     C19196  10.205   6.580   3.956 -0.1514  0.3352  0.4764
  143MOL0     C19197  10.328   6.518   3.948  0.0684 -1.3618 -0.1207
  143MOL0     C19198  10.431   6.569   3.867 -0.2957  0.8987 -0.3680
  143MOL0     C19199  10.562   6.504   3.870  0.4798  0.6270  0.0742
  143MOL0     O19200  10.655   6.540   3.781  0.2949  0.1172 -1.0368
  143MOL0     C19201  10.783   6.483   3.765  0.2954 -0.0537 -0.3430
  143MOL0     C19202  10.831   6.530   3.637 -0.1119  0.4242  0.4760
  143MOL0     C19203  10.956   6.495   3.601 -0.4416  0.0666  0.7688
  143MOL0     C19204  11.045   6.434   3.689 -0.0769 -0.2689  0.2825
  143MOL0     O19205  11.165   6.389   3.661 -0.5637  0.1134  0.3283
  143MOL0     C19206  11.252   6.479   3.581  0.1945 -0.5216  0.0452
  143MOL0     C19207  11.395   6.419   3.568 -0.5455  0.5992 -0.2266
  143MOL0     C19208  11.461   6.392   3.701 -0.7261 -0.5267 -0.4929
  143MOL0     C19209  11.594   6.476   3.727 -0.1755  0.3551 -0.8968
  143MOL0     C19210  11.683   6.415   3.842  0.0218 -0.0689 -0.6858
  143MOL0     C19211  11.734   6.275   3.812  0.9276 -0.6909  1.3584
  143MOL0     C19212  11.866   6.263   3.888 -0.3486 -0.5317  0.0344
  143MOL0     C19213  11.928   6.123   3.899  0.5135 -0.6003 -0.2036
  143MOL0    Cl19214  12.090   6.122   3.984  0.2174  0.1002  0.1269
  143MOL0     C19215  10.998   6.403   3.818  0.7683 -0.0924  0.3269
  143MOL0     C19216  10.866   6.414   3.847 -1.4751 -0.0060 -0.1723
  143MOL0     O19217  10.573   6.404   3.943 -0.0273  0.0051 -0.6938
  143MOL0     C19218  10.408   6.686   3.795 -0.2277 -0.0587 -0.1277
  143MOL0     C19219  10.280   6.751   3.802 -0.1324 -0.0227  1.0119
  143MOL0     N19220   9.440   6.664   3.692  0.4018  0.0000 -0.1817
  143MOL0     N19221   9.394   6.682   3.577  0.1886 -0.5634  0.3636
  143MOL0     C19222   8.391   6.890   3.741 -0.3007 -0.3021  0.9918
  143MOL0     C19223   8.247   6.896   3.745 -0.3712 -0.2455 -0.3948
  143MOL0     C19224   7.807   6.849   3.646  1.3469 -0.2401  0.0625
  143MOL0     C19225   7.782   6.909   3.519 -0.6465 -0.4221  0.2812
  143MOL0     C19226   7.656   6.920   3.458 -0.3953  0.2966  0.6201
  143MOL0     C19227   7.544   6.869   3.518 -0.0142  0.1670 -0.2969
  143MOL0     O19228   7.420   6.871   3.466  0.1535  0.3356  0.1361
  143MOL0     C19229   7.394   6.931   3.340 -0.0287 -0.5318  0.1803
  143MOL0     C19230   7.246   6.933   3.321 -0.2146  0.1166  0.6900
  143MOL0     C19231   7.199   6.798   3.270  0.2562 -0.5568 -0.5891
  143MOL0     C19232   7.056   6.761   3.293 -0.2541 -0.0363  0.1510
  143MOL0     C19233   6.964   6.841   3.207 -0.3238 -0.4451 -0.3227
  143MOL0     C19234   6.887   6.900   3.147  0.1797  0.1669 -0.7787
  143MOL0     C19235   7.567   6.800   3.639  0.1060 -0.2175  0.3285
  143MOL0     C19236   7.686   6.792   3.706 -0.5430  1.0936 -0.3821
  143MOL0     C19237   7.701   6.703   3.831 -0.2167  0.8535 -0.2047
  143MOL0     H19238   8.183   6.782   3.434 -0.2159 -2.4088  0.8681
  143MOL0     H19239   8.434   6.795   3.408  2.6705  2.5902  0.6606
  143MOL0     H19240   8.689   6.717   3.527  4.1984  0.7163 -0.2184
  143MOL0     H19241   8.647   6.850   3.403  0.1475  2.2543  0.3012
  143MOL0     H19242   8.852   6.797   3.620  0.3724  0.3562 -1.3019
  143MOL0     H19243   8.842   6.961   3.558  2.8054 -1.6304  0.7962
  143MOL0     H19244   8.901   6.873   3.320  0.1626  0.3566 -0.8743
  143MOL0     H19245   8.952   6.722   3.399 -1.4894 -0.4534  4.6112
  143MOL0     H19246   9.037   6.971   3.543 -2.0606  0.1295  0.3603
  143MOL0     H19247   9.129   6.819   3.517  0.6555  0.9312  0.1143
  143MOL0     H19248   9.164   6.899   3.265 -1.6660  2.2215 -2.6557
  143MOL0     H19249   9.083   7.050   3.322  3.5562  2.2851  0.6325
  143MOL0     H19250   9.285   7.129   3.399  0.6658 -0.1303 -0.5026
  143MOL0     H19251   9.288   7.009   3.521  0.5706  0.7217 -0.9389
  143MOL0     H19252   9.484   7.017   3.391 -1.0444  1.7701  0.6535
  143MOL0     H19253   9.399   6.987   3.239 -0.5933 -2.8268 -0.7009
  143MOL0     H19254   9.348   6.751   3.323  0.7848 -0.1915 -2.0200
  143MOL0     H19255   9.517   6.784   3.310  2.2050  1.2759  3.0281
  143MOL0     H19256   9.635   6.901   3.565  1.1980 -0.8077  0.6388
  143MOL0     H19257   9.687   6.846   3.842 -0.7482  1.0417 -0.3090
  143MOL0     H19258   9.600   6.712   3.898 -0.4647  0.3125  0.6255
  143MOL0     H19259   9.749   6.581   3.706 -1.8572 -1.0673  0.4220
  143MOL0     H19260   9.836   6.721   3.699  0.3278 -1.7977 -1.4515
  143MOL0     H19261   9.909   6.527   3.831  2.0504  0.2462  0.5049
  143MOL0     H19262   9.781   6.581   3.953 -0.3603  2.5192  0.7808
  143MOL0     H19263   9.985   6.682   4.044  2.4285  2.0973  0.1020
  143MOL0     H19264   9.893   6.807   3.963  0.1689  0.4066  1.9817
  143MOL0     H19265  10.119   6.532   4.003 -0.7772  1.3242  0.3792
  143MOL0     H19266  10.343   6.425   4.002  1.4208 -1.0114  0.1377
  143MOL0     H19267  10.772   6.583   3.563  0.7212  0.7027  0.0059
  143MOL0     H19268  10.985   6.526   3.501  1.5731  0.5692  1.4727
  143MOL0     H19269  11.205   6.486   3.482  2.1892 -2.0767 -1.0706
  143MOL0     H19270  11.265   6.578   3.626  1.7417  1.0887 -3.5747
  143MOL0     H19271  11.387   6.328   3.507  0.0429  1.5500 -1.7699
  143MOL0     H19272  11.453   6.496   3.516  1.3106 -2.6339 -3.4366
  143MOL0     H19273  11.395   6.400   3.787 -0.4693  1.6133 -0.4275
  143MOL0     H19274  11.485   6.286   3.693  0.0930 -0.5166  1.3223
  143MOL0     H19275  11.567   6.576   3.760 -0.8366 -0.1194  0.0471
  143MOL0     H19276  11.656   6.485   3.637  2.6079 -3.2186  0.4275
  143MOL0     H19277  11.625   6.408   3.934 -1.1799  1.2100 -1.3037
  143MOL0     H19278  11.763   6.487   3.862  1.0103 -1.1402 -0.7071
  143MOL0     H19279  11.660   6.197   3.833 -0.2560 -0.5235 -1.6295
  143MOL0     H19280  11.750   6.279   3.704 -0.4384  4.0361  1.0995
  143MOL0     H19281  11.835   6.292   3.989 -3.0571 -2.4315 -0.1590
  143MOL0     H19282  11.929   6.339   3.840 -2.6391  0.2639 -1.9004
  143MOL0     H19283  11.853   6.065   3.953 -2.9596  2.5019 -1.3008
  143MOL0     H19284  11.957   6.096   3.797  0.1919  0.8355 -0.7063
  143MOL0     H19285  11.071   6.376   3.894  1.8314  2.4344  0.3315
  143MOL0     H19286  10.830   6.385   3.945 -0.4461  0.5800  0.3868
  143MOL0     H19287  10.498   6.737   3.760 -0.1368 -1.0324 -1.3798
  143MOL0     H19288  10.264   6.830   3.729  1.4235  0.1456  0.8053
  143MOL0     H19289   8.442   6.903   3.836  0.5595 -1.5637  0.7304
  143MOL0     H19290   8.193   6.917   3.837  0.1830 -1.5450  0.2680
  143MOL0     H19291   7.862   6.961   3.468  0.7620 -3.3842 -0.7531
  143MOL0     H19292   7.645   6.972   3.363  2.5154 -0.1420 -0.0468
  143MOL0     H19293   7.438   6.870   3.260 -0.1311 -0.2000 -0.1308
  143MOL0     H19294   7.430   7.032   3.320 -2.0067 -0.1208 -1.7910
  143MOL0     H19295   7.227   7.003   3.240  2.1705 -2.2142 -2.1334
  143MOL0     H19296   7.196   6.961   3.414 -1.1957  1.0893 -0.1110
  143MOL0     H19297   7.271   6.729   3.315  2.4218  0.5118 -2.2429
  143MOL0     H19298   7.223   6.790   3.163 -0.2001  2.9246 -1.0616
  143MOL0     H19299   7.051   6.654   3.272  0.8269 -0.2735  1.0366
  143MOL0     H19300   7.019   6.773   3.395 -2.6956 -1.7419 -0.4342
  143MOL0     H19301   6.823   6.955   3.081  1.0221  1.6538 -0.4207
  143MOL0     H19302   7.481   6.749   3.681  0.6912 -1.9388 -0.4598
  143MOL0     H19303   7.600   6.688   3.870  0.0314  0.6631  0.3774
  143MOL0     H19304   7.737   6.602   3.809  0.6663  0.9548  0.6961
  143MOL0     H19305   7.765   6.739   3.912  1.3789 -1.2860 -0.4556
  144MOL0     O19306   4.217   1.398   4.999 -0.0553 -0.1307  0.2834
  144MOL0     C19307   4.271   1.459   4.908 -0.5137  0.1639  0.9975
  144MOL0     O19308   4.374   1.417   4.835  0.3226  0.5007 -0.3682
  144MOL0     C19309   4.457   1.312   4.850  0.2885  0.0520  0.2984
  144MOL0     C19310   4.461   1.218   4.952  0.0204  0.1211 -0.0960
  144MOL0     C19311   4.571   1.129   4.967 -0.3298 -0.5632  1.4205
  144MOL0     C19312   4.671   1.128   4.875 -0.1903 -0.5073  0.2560
  144MOL0     O19313   4.784   1.056   4.904  0.0135  0.4483 -0.3052
  144MOL0     C19314   4.902   1.067   4.820  0.6461  0.8728 -1.0932
  144MOL0     C19315   5.007   0.990   4.903 -0.7490 -0.4739  0.6587
  144MOL0     C19316   5.151   1.000   4.844  0.6533 -1.1088  0.4586
  144MOL0     C19317   5.198   0.876   4.773  0.1865  0.6200  0.5495
  144MOL0     C19318   5.341   0.873   4.694  0.7310  0.2955 -1.2043
  144MOL0     C19319   5.446   0.935   4.780  0.8876  0.1776  0.1587
  144MOL0     C19320   5.589   0.889   4.725  0.0796  0.3245 -0.2391
  144MOL0     C19321   5.696   0.921   4.831  0.5420 -0.2023  0.3696
  144MOL0     N19322   5.831   0.869   4.804 -0.4579  0.1136 -0.4139
  144MOL0     C19323   5.919   0.933   4.724  0.6075 -0.6706  0.4710
  144MOL0     C19324   6.029   0.859   4.716  1.1138  0.2032  0.1901
  144MOL0     C19325   6.157   0.892   4.640  0.0075 -0.8476  0.3386
  144MOL0     C19326   6.288   0.856   4.708 -0.6401 -0.3233 -0.5405
  144MOL0     C19327   6.405   0.891   4.607  1.2135  0.4830 -0.2296
  144MOL0     C19328   6.536   0.854   4.669 -0.4411  0.1197 -0.2422
  144MOL0     O19329   6.635   0.920   4.600 -0.2998  0.8244  0.2507
  144MOL0     C19330   6.767   0.887   4.631  0.6641  0.1599  0.7603
  144MOL0     C19331   6.810   0.779   4.698 -0.6739  0.1831 -0.1413
  144MOL0     C19332   6.947   0.761   4.733  0.7844 -0.3534  0.5104
  144MOL0     C19333   7.046   0.854   4.683 -0.1139 -0.3476  0.4939
  144MOL0     C19334   7.184   0.842   4.732 -0.1894 -0.1214 -0.1471
  144MOL0     O19335   7.278   0.930   4.682 -0.2926 -0.3845 -0.1826
  144MOL0     C19336   7.407   0.904   4.686  1.3886  0.4514  0.4417
  144MOL0     C19337   7.482   0.979   4.775 -0.5160  0.0190  0.4108
  144MOL0     C19338   7.618   0.947   4.783 -0.8503  0.3293  0.7333
  144MOL0     C19339   7.678   0.843   4.716 -0.3668  0.9608 -0.3768
  144MOL0     O19340   7.811   0.825   4.724  0.7972 -0.0709  0.4935
  144MOL0     C19341   7.879   0.753   4.626 -0.4591 -0.3351  0.4749
  144MOL0     C19342   8.018   0.830   4.627  0.2015  0.5493 -1.1358
  144MOL0     C19343   8.115   0.782   4.517  0.1135  0.9453 -0.0278
  144MOL0     C19344   8.176   0.643   4.550  0.3765 -0.6100 -0.2226
  144MOL0     C19345   8.300   0.620   4.469 -0.3127 -0.1986  0.1135
  144MOL0     C19346   8.310   0.471   4.429  0.5494  0.4732  1.0475
  144MOL0     C19347   8.445   0.458   4.374  0.0614 -0.7500  0.1163
  144MOL0     C19348   8.477   0.320   4.332 -0.3562 -0.6247  0.1385
  144MOL0    Cl19349   8.378   0.244   4.208  0.1601 -0.2313  0.1991
  144MOL0     C19350   7.586   0.768   4.634 -0.7693  0.2477  0.2743
  144MOL0     C19351   7.454   0.807   4.608 -0.1640 -1.2085 -0.4183
  144MOL0     O19352   7.203   0.749   4.818 -1.0079  0.0327  0.1083
  144MOL0     C19353   7.005   0.952   4.592  0.4306  0.8057  0.2180
  144MOL0     C19354   6.864   0.968   4.566 -0.1024  0.0534 -1.7811
  144MOL0     N19355   6.007   0.760   4.802 -0.4114  0.4144 -0.4859
  144MOL0     N19356   5.896   0.767   4.864  0.1028 -0.1846  0.1566
  144MOL0     C19357   4.667   1.215   4.762  0.6701  0.3959  0.0409
  144MOL0     C19358   4.562   1.305   4.756 -0.5570 -0.6006  0.0767
  144MOL0     C19359   4.223   1.592   4.872  0.7495 -0.6861 -0.5724
  144MOL0     C19360   4.317   1.686   4.831 -0.4379  0.3639 -0.0987
  144MOL0     C19361   4.277   1.815   4.799 -0.2573 -0.8051  0.5373
  144MOL0     C19362   4.148   1.866   4.821 -0.6282  0.6573  0.2245
  144MOL0     O19363   4.123   1.991   4.779 -0.7148  0.4326 -1.4972
  144MOL0     C19364   4.004   2.048   4.842 -0.5825 -0.9268 -0.4157
  144MOL0     C19365   4.033   2.193   4.808 -1.5453  0.0806 -0.5038
  144MOL0     C19366   3.907   2.288   4.797 -1.3601 -0.6312 -0.5095
  144MOL0     C19367   3.857   2.319   4.943 -0.4314  0.0451 -0.0440
  144MOL0     C19368   3.725   2.388   4.927  0.6051  0.4460 -0.3228
  144MOL0     C19369   3.619   2.447   4.938  0.7441  0.4918 -0.0494
  144MOL0     C19370   4.052   1.774   4.859 -0.6244  0.0727 -0.6824
  144MOL0     C19371   4.091   1.640   4.896  0.7519 -0.1821  0.9443
  144MOL0     C19372   3.985   1.547   4.951 -0.0370 -0.2481  0.3936
  144MOL0     H19373   4.382   1.229   5.026 -0.0917  0.7781 -0.3081
  144MOL0     H19374   4.567   1.062   5.052 -0.7563  2.2979  3.8175
  144MOL0     H19375   4.897   1.027   4.718  3.0717  0.5191 -1.1486
  144MOL0     H19376   4.929   1.173   4.816  0.1293  1.0255 -0.6466
  144MOL0     H19377   4.980   0.886   4.922  3.2073 -2.0355 -1.1797
  144MOL0     H19378   5.014   1.034   5.003  2.2814  1.9018 -0.4385
  144MOL0     H19379   5.220   1.012   4.928  0.8464 -0.8401  0.2668
  144MOL0     H19380   5.157   1.091   4.783  0.2965 -0.3823  1.4832
  144MOL0     H19381   5.192   0.793   4.843  1.4456 -1.2826 -1.4586
  144MOL0     H19382   5.124   0.867   4.693 -0.6656  2.3553  1.0830
  144MOL0     H19383   5.356   0.767   4.671 -1.8946 -0.3269 -0.4921
  144MOL0     H19384   5.341   0.934   4.604  0.0395 -1.3536 -2.3770
  144MOL0     H19385   5.449   1.044   4.782  0.8649  0.2080 -0.8451
  144MOL0     H19386   5.425   0.895   4.879 -2.9980 -0.9586 -0.9306
  144MOL0     H19387   5.602   0.932   4.626 -0.1836 -1.5335 -1.1195
  144MOL0     H19388   5.594   0.781   4.706 -0.2732  0.1007  0.8477
  144MOL0     H19389   5.697   1.030   4.844 -0.1998  0.2794 -2.7797
  144MOL0     H19390   5.657   0.874   4.922 -2.9725  1.3202 -0.1529
  144MOL0     H19391   5.904   1.019   4.659  2.1746 -1.2315 -0.7095
  144MOL0     H19392   6.151   0.836   4.546 -1.1503 -1.7924  0.9555
  144MOL0     H19393   6.154   1.000   4.621  0.5012 -0.5855  1.6153
  144MOL0     H19394   6.303   0.901   4.806  2.4615 -0.5049 -0.8097
  144MOL0     H19395   6.289   0.748   4.718 -2.6431 -0.5353 -2.0448
  144MOL0     H19396   6.403   0.990   4.561  0.5310  0.3588 -0.4803
  144MOL0     H19397   6.399   0.809   4.536 -0.2021 -1.6067  2.1231
  144MOL0     H19398   6.538   0.745   4.667  0.1140  0.1228 -0.0274
  144MOL0     H19399   6.538   0.866   4.778  1.1707 -1.3059 -0.0823
  144MOL0     H19400   6.743   0.699   4.726 -0.6202  0.1497 -0.1067
  144MOL0     H19401   6.968   0.683   4.805  1.0160  0.4366  1.3106
  144MOL0     H19402   7.450   1.051   4.850  0.5318 -0.1567  1.0562
  144MOL0     H19403   7.691   1.009   4.833 -0.3738  0.2980  0.0922
  144MOL0     H19404   7.903   0.652   4.662 -1.0455 -0.7286 -0.2074
  144MOL0     H19405   7.834   0.758   4.527 -0.1990 -1.5806  0.2788
  144MOL0     H19406   8.008   0.938   4.608 -0.4828  0.2225 -2.8447
  144MOL0     H19407   8.065   0.833   4.725 -1.5119 -0.6139 -0.2255
  144MOL0     H19408   8.055   0.773   4.425 -2.7383  0.1418  1.7834
  144MOL0     H19409   8.204   0.844   4.505  2.4794 -1.8789  1.7923
  144MOL0     H19410   8.097   0.570   4.531  0.2739 -0.6174  0.2115
  144MOL0     H19411   8.207   0.633   4.655 -0.1073  2.0301  0.2396
  144MOL0     H19412   8.376   0.646   4.543 -2.1060 -1.9159  2.7185
  144MOL0     H19413   8.316   0.685   4.382  3.0936 -0.4380  0.3998
  144MOL0     H19414   8.282   0.420   4.522 -0.0375  0.9442  1.1348
  144MOL0     H19415   8.235   0.452   4.352 -0.8017  2.1727  1.8916
  144MOL0     H19416   8.528   0.501   4.430 -0.2522  0.2211 -0.1405
  144MOL0     H19417   8.450   0.509   4.277 -2.0658 -3.3645 -1.5288
  144MOL0     H19418   8.582   0.317   4.300  0.0258 -1.7855  1.3977
  144MOL0     H19419   8.475   0.256   4.421  3.9700 -1.7496 -0.3275
  144MOL0     H19420   7.636   0.689   4.579 -0.8948 -0.0529  0.5887
  144MOL0     H19421   7.402   0.763   4.523  0.7525 -0.6553 -1.2907
  144MOL0     H19422   7.072   1.017   4.537  1.6604 -1.5966 -1.3142
  144MOL0     H19423   6.833   1.038   4.490 -0.9367  0.8373 -0.7438
  144MOL0     H19424   4.741   1.215   4.683 -0.6953 -3.0735 -1.4485
  144MOL0     H19425   4.566   1.378   4.675  0.3919 -1.1694 -0.4048
  144MOL0     H19426   4.422   1.663   4.814 -0.7754 -0.0338 -1.8786
  144MOL0     H19427   4.346   1.894   4.771 -0.8127  0.2667  2.0377
  144MOL0     H19428   4.014   2.040   4.951 -1.7943 -0.2948 -0.2397
  144MOL0     H19429   3.904   2.018   4.810 -1.4299  0.6270  0.6143
  144MOL0     H19430   4.075   2.187   4.708 -1.0252  0.0300 -0.2880
  144MOL0     H19431   4.120   2.240   4.855 -1.1602 -0.0836 -1.0546
  144MOL0     H19432   3.831   2.232   4.742 -0.8264 -0.3744 -1.5422
  144MOL0     H19433   3.938   2.374   4.737 -0.5635 -0.2350  0.4401
  144MOL0     H19434   3.836   2.235   5.010  1.8579 -0.5995 -0.0602
  144MOL0     H19435   3.931   2.388   4.985  1.5652 -1.5193 -0.8206
  144MOL0     H19436   3.533   2.502   4.968  0.8453 -0.7640  2.8458
  144MOL0     H19437   3.949   1.807   4.866 -1.1017 -1.6283  1.0762
  144MOL0     H19438   3.966   1.451   4.902  0.4852 -0.2707  0.2332
  144MOL0     H19439   4.012   1.526   5.055 -1.7035 -0.4349  0.8180
  144MOL0     H19440   3.891   1.604   4.950 -0.9573 -1.6174 -2.9574
  145MOL0     O19441   1.191   0.195   8.481  0.5559 -0.1229  0.4320
  145MOL0     C19442   1.175   0.101   8.403 -0.1764  0.2380 -0.3123
  145MOL0     O19443   1.268   0.003   8.370  0.0871 -0.1310  0.1176
  145MOL0     C19444   1.383   0.002   8.437  0.3364  0.1238 -0.0769
  145MOL0     C19445   1.507   0.014   8.374  0.2795  0.1992 -0.0268
  145MOL0     C19446   1.622  -0.002   8.445 -0.1785 -1.0984 -1.1482
  145MOL0     C19447   1.622  -0.018   8.581  0.8247  0.3312 -0.2328
  145MOL0     O19448   1.744  -0.025   8.663  0.4545 -0.1635 -0.3060
  145MOL0     C19449   1.869  -0.048   8.598  0.1883  0.2067  0.0628
  145MOL0     C19450   1.924  -0.180   8.629  0.1592 -0.1385  0.4937
  145MOL0     C19451   2.053  -0.203   8.558 -0.1034  0.6382 -0.2247
  145MOL0     C19452   2.100  -0.358   8.573  0.4831 -0.2189  0.1917
  145MOL0     C19453   2.152  -0.421   8.447 -0.8645 -0.0546 -0.1246
  145MOL0     C19454   2.262  -0.331   8.375  0.3500  0.5126  0.0619
  145MOL0     C19455   2.401  -0.328   8.445  0.4324  0.5540 -0.1356
  145MOL0     C19456   2.463  -0.472   8.454 -0.2230  0.1921 -0.2644
  145MOL0     N19457   2.456  -0.531   8.319 -0.3679  0.2791  0.3235
  145MOL0     C19458   2.388  -0.642   8.294  0.5767  0.0355  0.9779
  145MOL0     C19459   2.465  -0.712   8.206  0.0692 -0.1774 -0.4080
  145MOL0     C19460   2.428  -0.841   8.131 -0.6107  0.1323  0.2257
  145MOL0     C19461   2.561  -0.910   8.062 -0.3731  0.2563  0.5276
  145MOL0     C19462   2.657  -0.948   8.172 -0.7127 -1.3054  0.5129
  145MOL0     C19463   2.802  -0.901   8.149  0.4225  0.2930  0.1212
  145MOL0     O19464   2.867  -0.972   8.043 -0.4060 -0.2081 -0.2484
  145MOL0     C19465   3.001  -0.982   8.041  0.5214  0.3766  0.1717
  145MOL0     C19466   3.089  -0.898   8.108  0.1291  0.4982 -0.0006
  145MOL0     C19467   3.225  -0.908   8.078 -0.3187  0.5065 -0.1490
  145MOL0     C19468   3.280  -1.006   7.994  0.2466  0.0420  1.2087
  145MOL0     C19469   3.426  -1.005   7.962  0.4327 -0.0431 -0.1820
  145MOL0     O19470   3.465  -1.078   7.856  0.2468 -0.3214 -0.1458
  145MOL0     C19471   3.598  -1.072   7.816 -0.1011  0.2996  0.4940
  145MOL0     C19472   3.641  -1.024   7.695  0.0591  0.3190  0.7813
  145MOL0     C19473   3.772  -1.039   7.646 -0.4761  0.2547  0.7624
  145MOL0     C19474   3.873  -1.098   7.726 -0.0709  0.1633  0.2017
  145MOL0     O19475   4.003  -1.088   7.679  0.2812  0.2165  0.1972
  145MOL0     C19476   4.101  -1.120   7.774 -0.9278  0.5571  0.3636
  145MOL0     C19477   4.238  -1.106   7.716 -0.0611 -0.2968 -0.3053
  145MOL0     C19478   4.350  -1.085   7.827  0.3610 -0.5637 -0.5927
  145MOL0     C19479   4.323  -0.945   7.895 -0.5357 -0.1483  0.3265
  145MOL0     C19480   4.402  -0.923   8.021 -0.3574  0.0188  0.0412
  145MOL0     C19481   4.537  -0.863   7.986 -0.1133 -0.5832 -0.3127
  145MOL0     C19482   4.613  -0.828   8.115 -0.6107 -0.3014  0.1866
  145MOL0     C19483   4.752  -0.759   8.087 -0.0367  0.3810  0.1944
  145MOL0    Cl19484   4.848  -0.751   8.229 -0.1407 -0.3924  0.0131
  145MOL0     C19485   3.828  -1.155   7.849  0.0884  0.2839  0.1490
  145MOL0     C19486   3.694  -1.140   7.894 -0.0999 -0.2188  0.5271
  145MOL0     O19487   3.501  -0.923   8.023 -0.3928 -0.2175 -0.2651
  145MOL0     C19488   3.189  -1.085   7.923  0.0597  0.6914 -0.3319
  145MOL0     C19489   3.049  -1.066   7.943  0.9616  0.5113  0.5151
  145MOL0     N19490   2.585  -0.646   8.192 -0.9320 -0.3246 -0.1454
  145MOL0     N19491   2.578  -0.534   8.259  0.7113 -0.5724 -0.7469
  145MOL0     C19492   1.494  -0.031   8.658 -0.1582 -0.4510 -0.6247
  145MOL0     C19493   1.374  -0.018   8.576 -0.4450 -0.0136 -0.4699
  145MOL0     C19494   1.045   0.073   8.357  0.0674 -0.6648  0.1360
  145MOL0     C19495   1.030   0.007   8.239 -0.5468  0.0309  0.0260
  145MOL0     C19496   0.907  -0.015   8.175  0.4111 -0.0834  0.0783
  145MOL0     C19497   0.792   0.012   8.249 -0.1222 -0.5633  0.0885
  145MOL0     O19498   0.666  -0.012   8.202 -0.7957 -0.7204 -0.8110
  145MOL0     C19499   0.653  -0.095   8.089  0.5583  0.7516  0.3781
  145MOL0     C19500   0.505  -0.128   8.071  0.0789  0.0374 -0.0276
  145MOL0     C19501   0.423  -0.156   8.201  0.8865 -0.3595 -0.0654
  145MOL0     C19502   0.286  -0.220   8.174 -0.5770 -0.4215  0.4959
  145MOL0     C19503   0.180  -0.142   8.108 -1.0425 -0.0996  0.3412
  145MOL0     C19504   0.111  -0.064   8.054  0.4169  0.1460  0.2817
  145MOL0     C19505   0.798   0.065   8.378  0.5450  0.2502 -0.1246
  145MOL0     C19506   0.925   0.097   8.436 -0.1266 -0.3605  0.7982
  145MOL0     C19507   0.912   0.160   8.576  0.5426  0.4230  0.0991
  145MOL0     H19508   1.518   0.008   8.266  0.8764 -0.2037  0.0516
  145MOL0     H19509   1.717   0.003   8.392 -0.0688  3.2549 -0.9456
  145MOL0     H19510   1.866  -0.043   8.488  0.8934 -0.8919 -0.0222
  145MOL0     H19511   1.940   0.027   8.633  1.3838 -1.1223  0.5962
  145MOL0     H19512   1.849  -0.251   8.595  0.4397  0.7667 -2.2098
  145MOL0     H19513   1.931  -0.185   8.739 -1.3916  2.4329  0.7938
  145MOL0     H19514   2.131  -0.140   8.601  0.5530 -0.5594  0.3857
  145MOL0     H19515   2.040  -0.176   8.453  1.4541 -0.8756 -0.8548
  145MOL0     H19516   2.165  -0.366   8.660 -1.3419  0.9760  1.7580
  145MOL0     H19517   2.005  -0.402   8.603 -0.5088  0.8060 -1.2832
  145MOL0     H19518   2.195  -0.520   8.458 -0.0887  0.1108 -1.4340
  145MOL0     H19519   2.066  -0.437   8.381 -0.0593 -1.8508 -0.8060
  145MOL0     H19520   2.268  -0.364   8.271  0.6385 -0.4150  0.3654
  145MOL0     H19521   2.226  -0.228   8.370 -1.0243  0.1204  1.0741
  145MOL0     H19522   2.400  -0.277   8.542  3.0668 -0.3125  0.4481
  145MOL0     H19523   2.469  -0.265   8.388 -0.1233 -1.0737 -2.7611
  145MOL0     H19524   2.565  -0.471   8.494 -0.6628  0.9115  0.9112
  145MOL0     H19525   2.400  -0.523   8.528 -0.4830  3.0687  1.6987
  145MOL0     H19526   2.295  -0.676   8.337 -0.8655  0.2612 -1.7538
  145MOL0     H19527   2.389  -0.907   8.209 -0.0907 -0.7389 -0.2401
  145MOL0     H19528   2.353  -0.822   8.054 -0.6412 -0.2821  0.1540
  145MOL0     H19529   2.544  -1.002   8.006  0.4996  1.0503 -1.1092
  145MOL0     H19530   2.614  -0.836   8.001  2.2762  1.4443  3.9234
  145MOL0     H19531   2.670  -1.056   8.168  0.7680 -1.1080 -1.4844
  145MOL0     H19532   2.619  -0.913   8.268  2.6484  0.8249  1.2225
  145MOL0     H19533   2.844  -0.930   8.245 -2.0511  0.7434  1.4191
  145MOL0     H19534   2.801  -0.793   8.134 -3.1899  0.3832  0.1384
  145MOL0     H19535   3.044  -0.819   8.168 -1.2143  0.1431 -0.5109
  145MOL0     H19536   3.298  -0.837   8.116  2.6152 -2.3488 -0.0003
  145MOL0     H19537   3.558  -0.988   7.634  1.7454  0.0643 -1.8224
  145MOL0     H19538   3.811  -1.000   7.552  2.5275 -1.0089  1.3813
  145MOL0     H19539   4.098  -1.068   7.870  0.3593  2.8788 -0.7598
  145MOL0     H19540   4.082  -1.226   7.792 -2.6343  0.6379 -0.7680
  145MOL0     H19541   4.267  -1.201   7.670 -0.2000 -1.5932  2.0944
  145MOL0     H19542   4.247  -1.025   7.643  3.2077 -0.3030 -0.0687
  145MOL0     H19543   4.343  -1.163   7.903  2.0908  0.9717  1.2752
  145MOL0     H19544   4.452  -1.084   7.787  0.4621  3.6381 -0.7015
  145MOL0     H19545   4.221  -0.928   7.930  0.1701  0.0380  2.4228
  145MOL0     H19546   4.330  -0.864   7.821  0.8344 -0.9685 -0.4754
  145MOL0     H19547   4.423  -1.018   8.070  1.8616  1.4338  2.0511
  145MOL0     H19548   4.341  -0.855   8.081  1.2685  1.2947  0.3190
  145MOL0     H19549   4.596  -0.938   7.932 -1.1041 -2.7177  1.4256
  145MOL0     H19550   4.534  -0.771   7.927 -0.5931 -0.8578 -0.7225
  145MOL0     H19551   4.623  -0.920   8.174  4.3166 -1.0859 -1.3997
  145MOL0     H19552   4.556  -0.751   8.167  0.4672  1.3399 -0.9436
  145MOL0     H19553   4.806  -0.817   8.012  0.7991  0.1405  0.9702
  145MOL0     H19554   4.730  -0.666   8.033 -2.5543 -0.3092 -0.1211
  145MOL0     H19555   3.891  -1.210   7.917 -1.5922  1.5763  2.9417
  145MOL0     H19556   3.654  -1.199   7.976  0.7806  0.1088  1.1971
  145MOL0     H19557   3.221  -1.165   7.856 -3.1427 -1.2953  0.2543
  145MOL0     H19558   2.974  -1.121   7.887  0.6339  1.7926 -0.3657
  145MOL0     H19559   1.513  -0.042   8.764  1.4274  1.3347 -0.6690
  145MOL0     H19560   1.276  -0.024   8.621 -1.4255  2.8523 -1.9626
  145MOL0     H19561   1.121  -0.016   8.185 -0.0913 -1.1370  1.2364
  145MOL0     H19562   0.917  -0.055   8.074  1.0335  1.2760 -0.4155
  145MOL0     H19563   0.696  -0.194   8.108 -0.1242  0.8393  2.5461
  145MOL0     H19564   0.699  -0.056   7.997  0.5747 -3.0770 -1.4171
  145MOL0     H19565   0.487  -0.208   7.997  0.6138 -0.6463  0.5634
  145MOL0     H19566   0.463  -0.034   8.035  1.7459  0.2071 -1.7134
  145MOL0     H19567   0.403  -0.065   8.257 -0.4842  0.3715 -1.6364
  145MOL0     H19568   0.483  -0.227   8.259  4.1229  2.2824  0.1575
  145MOL0     H19569   0.299  -0.305   8.105  3.0571  1.0772 -0.9370
  145MOL0     H19570   0.249  -0.253   8.272  1.1830  0.7462  1.6174
  145MOL0     H19571   0.054   0.013   8.006 -1.6538 -0.2590  1.8911
  145MOL0     H19572   0.704   0.087   8.428  0.9522  1.1049  0.2958
  145MOL0     H19573   1.006   0.180   8.628  1.6593 -1.9675 -0.8688
  145MOL0     H19574   0.852   0.252   8.580 -0.0495  0.0640 -0.3026
  145MOL0     H19575   0.860   0.092   8.644  2.9576  0.4192  2.0744
  146MOL0     O19576  10.764   0.030   4.329  0.6234 -0.6478  0.8649
  146MOL0     C19577  10.738  -0.073   4.392 -1.0009 -0.5189 -1.2081
  146MOL0     O19578  10.835  -0.144   4.466  0.3294 -0.2723 -0.9881
  146MOL0     C19579  10.956  -0.084   4.466 -0.4463 -0.2156 -0.5130
  146MOL0     C19580  11.061  -0.129   4.391  0.1212 -0.0074 -0.4326
  146MOL0     C19581  11.193  -0.087   4.406 -0.3815 -0.0959  0.6323
  146MOL0     C19582  11.222   0.017   4.492  0.3037  0.6101 -0.2843
  146MOL0     O19583  11.345   0.070   4.507 -0.3291 -0.4030 -0.1088
  146MOL0     C19584  11.443   0.033   4.412  0.2420  0.0494  0.0570
  146MOL0     C19585  11.569   0.121   4.430  0.4746  0.2423 -0.0104
  146MOL0     C19586  11.685   0.119   4.330  0.3244  0.0063  0.1678
  146MOL0     C19587  11.635   0.183   4.202 -0.0170  0.1720 -0.2241
  146MOL0     C19588  11.735   0.172   4.100  0.3798 -0.4914 -0.3627
  146MOL0     C19589  11.702   0.244   3.968  0.3088  0.7879  1.0889
  146MOL0     C19590  11.807   0.226   3.855 -0.3332 -1.2739  0.8874
  146MOL0     C19591  11.906   0.344   3.883 -0.5492 -0.0311 -0.0572
  146MOL0     N19592  12.023   0.361   3.797  0.3555 -0.3225  1.2463
  146MOL0     C19593  12.067   0.271   3.703 -0.3167 -0.6294 -0.6515
  146MOL0     C19594  12.177   0.329   3.650  0.3028  0.7590  0.3427
  146MOL0     C19595  12.247   0.283   3.524 -0.3382  0.0104  0.4206
  146MOL0     C19596  12.297   0.137   3.512 -0.3563 -0.2620  0.5551
  146MOL0     C19597  12.227   0.048   3.402 -0.9026 -0.4743 -0.3640
  146MOL0     C19598  12.082   0.041   3.428 -0.6240 -0.1983  0.3803
  146MOL0     O19599  12.060  -0.050   3.541 -0.3506 -0.5700 -0.5917
  146MOL0     C19600  11.932  -0.062   3.594  0.1240  0.1561 -0.2764
  146MOL0     C19601  11.806  -0.003   3.555  0.3437 -0.5897  0.9212
  146MOL0     C19602  11.692  -0.019   3.625 -0.4239 -0.3121 -0.1688
  146MOL0     C19603  11.692  -0.077   3.758  0.5703 -0.0842  0.1047
  146MOL0     C19604  11.576  -0.080   3.845 -0.9242  1.0360  0.4070
  146MOL0     O19605  11.462  -0.033   3.782 -0.5634 -0.2602 -0.8269
  146MOL0     C19606  11.346  -0.060   3.853 -0.0780 -0.5330  0.6653
  146MOL0     C19607  11.319  -0.035   3.995  0.1274  1.1693  0.3132
  146MOL0     C19608  11.184  -0.059   4.038 -0.3387 -0.5727  0.7651
  146MOL0     C19609  11.081  -0.085   3.944  0.4156 -0.3632  0.3713
  146MOL0     O19610  10.954  -0.084   3.989  0.2103 -0.7234 -0.5583
  146MOL0     C19611  10.875  -0.198   3.955  0.2411  0.0404 -0.2820
  146MOL0     C19612  10.809  -0.231   4.087  0.6157 -0.8106  0.2874
  146MOL0     C19613  10.693  -0.334   4.066  0.1872  0.6117 -0.3326
  146MOL0     C19614  10.567  -0.285   3.991 -0.8183  0.4092  0.3738
  146MOL0     C19615  10.470  -0.395   4.000 -0.0566 -0.8858  0.0214
  146MOL0     C19616  10.357  -0.384   3.896  0.0536  0.0663  0.1452
  146MOL0     C19617  10.252  -0.279   3.927 -0.6764  0.4395  0.0535
  146MOL0     C19618  10.176  -0.249   3.804  0.3924 -1.0434 -0.3739
  146MOL0    Cl19619  10.116  -0.402   3.721  0.2132 -0.2177  0.0185
  146MOL0     C19620  11.115  -0.099   3.807 -0.3447 -0.0291  0.7226
  146MOL0     C19621  11.240  -0.088   3.758 -0.0974  0.3533  0.0270
  146MOL0     O19622  11.589  -0.134   3.955  0.3142  0.1967 -0.3504
  146MOL0     C19623  11.811  -0.129   3.803  0.4044  0.4834 -0.0724
  146MOL0     C19624  11.926  -0.130   3.716  0.1060 -0.0477 -0.2427
  146MOL0     N19625  12.198   0.456   3.707  0.1140 -0.5204 -0.3404
  146MOL0     N19626  12.098   0.477   3.794 -0.0142  0.7780 -0.0467
  146MOL0     C19627  11.117   0.063   4.574  0.0665  0.9605  0.0182
  146MOL0     C19628  10.989   0.012   4.558  0.0649 -0.4953 -0.4584
  146MOL0     C19629  10.605  -0.135   4.392  0.1734  0.7661  0.1233
  146MOL0     C19630  10.575  -0.250   4.475  0.6519  0.3798  0.2376
  146MOL0     C19631  10.450  -0.320   4.474  0.2116  0.1861 -0.0190
  146MOL0     C19632  10.337  -0.259   4.414  0.7282  0.2920  0.2570
  146MOL0     O19633  10.215  -0.317   4.405  0.0043  0.9468  0.1251
  146MOL0     C19634  10.161  -0.375   4.529 -0.1084  0.1554 -0.1289
  146MOL0     C19635  10.147  -0.270   4.648 -0.0670  0.1755  0.0672
  146MOL0     C19636  10.018  -0.199   4.658  0.9799 -0.2975  0.6349
  146MOL0     C19637   9.951  -0.147   4.523  0.0765 -0.0332  0.0065
  146MOL0     C19638   9.839  -0.061   4.551  0.0061 -0.1074 -0.0929
  146MOL0     C19639   9.748   0.005   4.563  0.2715  0.6222 -0.5073
  146MOL0     C19640  10.358  -0.149   4.332 -0.8380 -0.6805  0.5943
  146MOL0     C19641  10.490  -0.081   4.322 -0.7841 -0.3682  0.4355
  146MOL0     C19642  10.498   0.039   4.231  0.2055 -0.5036  0.4520
  146MOL0     H19643  11.045  -0.207   4.317  2.2732 -1.8881  0.9584
  146MOL0     H19644  11.259  -0.135   4.336  0.0340  1.3271  0.0124
  146MOL0     H19645  11.466  -0.068   4.446  0.2689  0.0790  0.1277
  146MOL0     H19646  11.398   0.057   4.315  1.7705  3.2447 -0.0120
  146MOL0     H19647  11.603   0.104   4.532 -0.0682 -1.5518 -0.0900
  146MOL0     H19648  11.527   0.222   4.428 -0.6877 -0.2246  0.2580
  146MOL0     H19649  11.719   0.015   4.319  2.9347  0.8451 -0.2151
  146MOL0     H19650  11.773   0.169   4.371 -1.0475  0.8994  2.1411
  146MOL0     H19651  11.544   0.134   4.165 -0.6473  1.4864 -0.4747
  146MOL0     H19652  11.615   0.289   4.222  2.4214  0.0391  4.1363
  146MOL0     H19653  11.828   0.217   4.135 -0.8736  0.5303  1.8888
  146MOL0     H19654  11.743   0.066   4.071 -1.7183 -0.7023 -0.2893
  146MOL0     H19655  11.607   0.207   3.929 -0.2951  1.6141  1.7138
  146MOL0     H19656  11.689   0.352   3.983 -0.3576  0.8096  0.4157
  146MOL0     H19657  11.767   0.237   3.754  0.0601 -1.4600  0.7085
  146MOL0     H19658  11.854   0.129   3.870  0.8597 -0.4091  3.2440
  146MOL0     H19659  11.854   0.440   3.881 -0.5104  0.0469  1.5048
  146MOL0     H19660  11.943   0.329   3.985 -1.4992 -0.0383  0.2950
  146MOL0     H19661  12.021   0.175   3.678  1.9268 -2.1854  0.8967
  146MOL0     H19662  12.176   0.297   3.442  0.2452  2.5263  0.2626
  146MOL0     H19663  12.337   0.345   3.516  0.1872 -0.6224  1.1397
  146MOL0     H19664  12.403   0.142   3.482 -1.1394  2.1414 -2.2796
  146MOL0     H19665  12.297   0.077   3.603  0.7561 -0.4021  0.4865
  146MOL0     H19666  12.272  -0.051   3.411  1.0901  0.5700  2.9645
  146MOL0     H19667  12.251   0.083   3.301  1.9717 -0.6986  0.1629
  146MOL0     H19668  12.029  -0.005   3.344  3.4554 -1.0931 -1.9647
  146MOL0     H19669  12.040   0.142   3.434  1.1226  1.0231 -3.9318
  146MOL0     H19670  11.810   0.060   3.467  1.2156 -0.1715  1.2480
  146MOL0     H19671  11.598   0.024   3.593  0.8031  1.6061 -1.4286
  146MOL0     H19672  11.392  -0.013   4.072  1.9774  0.5101 -1.1806
  146MOL0     H19673  11.163  -0.056   4.144 -0.6410  0.5584  0.6848
  146MOL0     H19674  10.803  -0.170   3.877  1.1174  0.2630 -1.0215
  146MOL0     H19675  10.942  -0.271   3.911  2.4464  3.2760 -2.8024
  146MOL0     H19676  10.885  -0.263   4.159 -0.7825 -2.2013  1.1901
  146MOL0     H19677  10.768  -0.138   4.127  0.5570 -0.0352 -1.4512
  146MOL0     H19678  10.732  -0.423   4.018  1.9148  0.6596  0.9110
  146MOL0     H19679  10.667  -0.374   4.164 -0.8564 -2.5100 -1.7430
  146MOL0     H19680  10.582  -0.265   3.885 -1.2243  2.4523  0.6596
  146MOL0     H19681  10.533  -0.190   4.032  3.0687  0.9741  2.7795
  146MOL0     H19682  10.429  -0.399   4.102 -0.4852  1.1684 -0.0375
  146MOL0     H19683  10.516  -0.492   3.978  0.2174 -0.4664 -1.3177
  146MOL0     H19684  10.398  -0.377   3.794  0.9285  0.5185  0.5192
  146MOL0     H19685  10.306  -0.480   3.907 -1.2533  0.9252  1.8645
  146MOL0     H19686  10.304  -0.196   3.976  1.1555 -0.8912  0.4481
  146MOL0     H19687  10.185  -0.325   4.000 -1.4412 -1.7012 -1.8730
  146MOL0     H19688  10.085  -0.194   3.831 -0.8258 -2.9355 -0.4441
  146MOL0     H19689  10.232  -0.187   3.734 -1.0734  0.6106 -0.1454
  146MOL0     H19690  11.037  -0.120   3.734 -1.0347 -0.1191  1.4779
  146MOL0     H19691  11.259  -0.109   3.653 -0.1564  0.4607 -0.0059
  146MOL0     H19692  11.814  -0.183   3.897 -0.5402  3.0116  1.5321
  146MOL0     H19693  12.013  -0.182   3.756 -1.8643 -2.4820  1.1144
  146MOL0     H19694  11.139   0.144   4.643  2.2022 -1.0795  1.9244
  146MOL0     H19695  10.910   0.042   4.626  1.4141  0.2418  0.8548
  146MOL0     H19696  10.643  -0.296   4.545 -1.1234  0.2978  2.0032
  146MOL0     H19697  10.437  -0.409   4.535 -0.8056 -0.2250 -0.8084
  146MOL0     H19698  10.231  -0.454   4.559  2.0934  2.9407  2.7369
  146MOL0     H19699  10.064  -0.422   4.508  0.0113  0.0272 -0.3895
  146MOL0     H19700  10.215  -0.186   4.636 -0.7582  0.6909 -0.2933
  146MOL0     H19701  10.168  -0.312   4.747  0.0339 -2.1159 -0.8624
  146MOL0     H19702  10.034  -0.109   4.718  2.8461  1.2086 -1.9204
  146MOL0     H19703   9.942  -0.262   4.706  1.7288 -1.3166  0.5278
  146MOL0     H19704  10.016  -0.087   4.460  1.5634 -1.8860 -0.3199
  146MOL0     H19705   9.909  -0.236   4.476 -1.6084  1.5730 -1.6744
  146MOL0     H19706   9.652   0.052   4.557 -2.2202 -3.2531  3.5233
  146MOL0     H19707  10.275  -0.091   4.294 -1.1670  0.5391  3.0154
  146MOL0     H19708  10.406   0.056   4.174 -0.0508  1.5322  1.3743
  146MOL0     H19709  10.501   0.136   4.284  1.0402  0.8146 -1.8705
  146MOL0     H19710  10.578   0.020   4.159 -2.5670 -1.4860 -2.6136
  147MOL0     O19711   8.278   0.637  11.175  1.1544  0.2161  0.2881
  147MOL0     C19712   8.227   0.697  11.266 -0.2209 -0.5417 -0.2336
  147MOL0     O19713   8.295   0.741  11.376  0.5306 -0.2919 -0.4190
  147MOL0     C19714   8.422   0.700  11.398 -0.0510  0.0512  0.2613
  147MOL0     C19715   8.444   0.597  11.489 -0.4549 -0.8636 -0.0430
  147MOL0     C19716   8.570   0.544  11.503 -0.8529  0.4186  0.5566
  147MOL0     C19717   8.677   0.590  11.426 -0.3463  0.1007  0.3521
  147MOL0     O19718   8.792   0.508  11.430  0.3326 -1.1584 -0.3023
  147MOL0     C19719   8.889   0.534  11.328  0.4222  0.0493  0.3183
  147MOL0     C19720   9.007   0.430  11.332 -0.3765  0.3512 -0.2351
  147MOL0     C19721   9.117   0.472  11.236  0.0478  0.3091  0.4809
  147MOL0     C19722   9.222   0.363  11.247  0.5241  0.1001  0.8465
  147MOL0     C19723   9.316   0.371  11.126  0.1134  0.2936 -0.2759
  147MOL0     C19724   9.415   0.247  11.121 -0.0917  0.0389  0.3459
  147MOL0     C19725   9.504   0.264  11.000  0.7342  0.4547 -0.4418
  147MOL0     C19726   9.629   0.348  11.010 -0.2385  1.2182 -0.2709
  147MOL0     N19727   9.672   0.371  10.878  0.1225  0.2641  0.0760
  147MOL0     C19728   9.747   0.291  10.815 -0.3841 -0.0575 -0.4791
  147MOL0     C19729   9.801   0.354  10.707 -1.0220 -0.6508  0.2105
  147MOL0     C19730   9.895   0.297  10.611 -0.0491 -0.0777  0.1706
  147MOL0     C19731   9.893   0.373  10.476 -0.2689 -0.2244  0.2642
  147MOL0     C19732   9.995   0.304  10.377  0.6782  0.2754  0.4313
  147MOL0     C19733   9.988   0.392  10.256 -0.5346 -0.4929  0.3208
  147MOL0     O19734  10.051   0.331  10.139  0.3980 -0.5009  1.0366
  147MOL0     C19735  10.182   0.310  10.124  0.0691 -0.2225 -0.3716
  147MOL0     C19736  10.228   0.251  10.010  0.1450 -0.3505  0.1776
  147MOL0     C19737  10.364   0.254   9.978 -0.4071 -0.2804 -0.5560
  147MOL0     C19738  10.461   0.306  10.072  0.1040 -0.6272  0.2092
  147MOL0     C19739  10.596   0.312  10.041 -0.8560 -0.0726  0.2789
  147MOL0     O19740  10.669   0.398  10.117  0.3297  0.0281  0.3025
  147MOL0     C19741  10.802   0.426  10.110 -0.0910  0.0767  0.5908
  147MOL0     C19742  10.883   0.383   9.999  0.4526 -0.0310 -0.0282
  147MOL0     C19743  11.020   0.422   9.998  0.1276 -0.0891 -1.3310
  147MOL0     C19744  11.074   0.484  10.110 -0.4460  0.0965 -0.0372
  147MOL0     O19745  11.207   0.526  10.109  0.0113  0.5568 -0.2245
  147MOL0     C19746  11.213   0.656  10.052 -0.7229 -0.2186  0.1340
  147MOL0     C19747  11.354   0.657   9.987 -0.5945  0.5330 -0.3189
  147MOL0     C19748  11.474   0.644  10.084 -0.0665 -0.0051  0.0176
  147MOL0     C19749  11.605   0.656   9.998  0.6681  0.2207  0.3340
  147MOL0     C19750  11.723   0.619  10.088 -0.2532 -0.3927  0.2480
  147MOL0     C19751  11.850   0.680  10.032  0.3140  0.5913  0.0811
  147MOL0     C19752  11.894   0.646   9.890 -0.2857 -0.3888  0.4005
  147MOL0     C19753  12.018   0.723   9.840 -0.9949  0.3645  0.0659
  147MOL0    Cl19754  12.167   0.681   9.914 -0.7775  0.0227 -0.1788
  147MOL0     C19755  10.999   0.517  10.217  0.0746 -0.0956 -1.0718
  147MOL0     C19756  10.864   0.489  10.221 -0.9628 -0.4855  0.3673
  147MOL0     O19757  10.636   0.229   9.962 -0.4061  0.3851  0.8666
  147MOL0     C19758  10.415   0.348  10.198  1.1687  0.0331  0.1033
  147MOL0     C19759  10.276   0.358  10.219 -1.2669 -0.1079  0.1326
  147MOL0     N19760   9.757   0.485  10.705  0.6223 -0.0591 -0.0452
  147MOL0     N19761   9.687   0.489  10.815 -0.0593  0.3411  0.2233
  147MOL0     C19762   8.668   0.701  11.346  0.8582 -0.5042  1.2149
  147MOL0     C19763   8.533   0.765  11.334 -0.4410  0.5485 -0.8351
  147MOL0     C19764   8.081   0.724  11.273  0.2095 -0.3144 -0.8308
  147MOL0     C19765   8.019   0.690  11.385  0.2419  0.4508  0.2180
  147MOL0     C19766   7.879   0.689  11.395 -0.3658 -0.1060 -0.0670
  147MOL0     C19767   7.803   0.722  11.286  0.5361  0.8026  0.2228
  147MOL0     O19768   7.663   0.723  11.286  0.2106  0.2267 -0.0479
  147MOL0     C19769   7.585   0.812  11.203 -0.4909 -0.7834  0.3294
  147MOL0     C19770   7.444   0.796  11.247  0.2339  1.3470  0.2755
  147MOL0     C19771   7.342   0.881  11.165 -0.1282  0.1326  1.1691
  147MOL0     C19772   7.309   1.020  11.239 -0.9625  0.7686  0.2570
  147MOL0     C19773   7.421   1.103  11.257 -0.2535  0.6424 -0.2930
  147MOL0     C19774   7.521   1.169  11.263  0.8253  0.0843  0.4787
  147MOL0     C19775   7.861   0.766  11.168  0.3319 -0.5504  0.2725
  147MOL0     C19776   8.004   0.763  11.161  0.1350 -0.2977  0.9849
  147MOL0     C19777   8.058   0.799  11.024 -0.1626  0.2762 -0.1255
  147MOL0     H19778   8.361   0.558  11.546 -0.3723 -1.5144 -0.3615
  147MOL0     H19779   8.589   0.463  11.572 -0.4447  1.1806  1.3570
  147MOL0     H19780   8.846   0.524  11.228  0.2545 -1.1989  0.5040
  147MOL0     H19781   8.927   0.637  11.338 -0.5364  0.3571  0.9404
  147MOL0     H19782   8.968   0.331  11.308 -1.6181  1.0951 -1.4390
  147MOL0     H19783   9.046   0.421  11.434 -1.0044  0.7930  0.0547
  147MOL0     H19784   9.173   0.563  11.262  0.5086  0.5687 -1.3082
  147MOL0     H19785   9.069   0.493  11.140  1.3623  0.0721 -0.2372
  147MOL0     H19786   9.281   0.374  11.337  0.8314  0.9340  0.5475
  147MOL0     H19787   9.164   0.270  11.242  0.8516 -0.0338 -1.9675
  147MOL0     H19788   9.262   0.377  11.031  0.4717  2.9094 -0.3900
  147MOL0     H19789   9.382   0.458  11.123  0.7286 -0.0587  1.6033
  147MOL0     H19790   9.484   0.240  11.205  0.2382  2.2174  0.3145
  147MOL0     H19791   9.358   0.154  11.113 -0.8886  0.1844  3.0197
  147MOL0     H19792   9.451   0.302  10.912  0.3381 -0.1752 -0.4834
  147MOL0     H19793   9.528   0.157  10.996  0.5896  0.2566  2.2508
  147MOL0     H19794   9.599   0.441  11.060  1.7681  0.2320  3.0789
  147MOL0     H19795   9.706   0.308  11.077  1.8947  2.1684 -2.0282
  147MOL0     H19796   9.764   0.189  10.848 -2.7859 -0.5338 -0.5215
  147MOL0     H19797   9.999   0.278  10.641 -0.5377 -2.5681  0.5116
  147MOL0     H19798   9.868   0.193  10.592  1.4362 -0.3005 -0.9360
  147MOL0     H19799   9.791   0.362  10.438 -0.3718 -1.4239  0.8219
  147MOL0     H19800   9.911   0.478  10.497 -1.1941 -0.4915  2.7728
  147MOL0     H19801   9.959   0.205  10.348  0.0293  0.8648 -0.8317
  147MOL0     H19802  10.095   0.302  10.422  0.8636  2.3767  0.2064
  147MOL0     H19803  10.025   0.492  10.281 -1.2500  0.5500 -2.4540
  147MOL0     H19804   9.882   0.401  10.232 -0.6449  1.8386  1.4387
  147MOL0     H19805  10.157   0.210   9.939 -1.2732 -3.9994  3.3628
  147MOL0     H19806  10.395   0.217   9.881 -1.0126  0.1349 -0.9149
  147MOL0     H19807  10.845   0.339   9.907 -1.7168 -1.2002  1.3377
  147MOL0     H19808  11.095   0.392   9.925  0.5591  0.2607 -1.0434
  147MOL0     H19809  11.141   0.687   9.976  1.6849  1.2146 -1.7488
  147MOL0     H19810  11.199   0.734  10.128  0.6077  0.0543  0.1202
  147MOL0     H19811  11.349   0.590   9.901  2.1769  0.6648 -0.6766
  147MOL0     H19812  11.372   0.752   9.936 -0.6386 -0.2362 -1.8234
  147MOL0     H19813  11.479   0.715  10.167  1.5397  0.3356 -0.3319
  147MOL0     H19814  11.476   0.547  10.134 -0.9661 -0.3649 -0.6233
  147MOL0     H19815  11.619   0.757   9.957 -0.3046  1.0952  2.0461
  147MOL0     H19816  11.603   0.579   9.921  1.4025  0.1344  0.3901
  147MOL0     H19817  11.735   0.511  10.099  1.3132 -0.8576 -4.0446
  147MOL0     H19818  11.706   0.654  10.190  1.7480  0.3477  0.3669
  147MOL0     H19819  11.825   0.786  10.034  1.0228  0.7810  3.3842
  147MOL0     H19820  11.933   0.665  10.101 -0.0689 -0.2897  0.3777
  147MOL0     H19821  11.812   0.676   9.824  1.2261  2.3817 -0.3769
  147MOL0     H19822  11.909   0.538   9.883 -0.6836 -0.3420 -2.6656
  147MOL0     H19823  12.027   0.710   9.732  0.0152  0.6777  0.0971
  147MOL0     H19824  12.006   0.829   9.862 -0.3992  0.2315  1.1084
  147MOL0     H19825  11.048   0.559  10.304 -0.2602 -0.7393 -0.5602
  147MOL0     H19826  10.797   0.519  10.301 -1.2342  0.7245 -0.3012
  147MOL0     H19827  10.476   0.391  10.276 -1.3188  0.7735  1.7329
  147MOL0     H19828  10.255   0.408  10.313 -1.8515  1.8439 -0.9959
  147MOL0     H19829   8.750   0.749  11.295  0.0613  1.1842  1.4510
  147MOL0     H19830   8.528   0.853  11.271  0.1357 -0.6584 -2.6500
  147MOL0     H19831   8.075   0.664  11.475  0.4012  0.8687  0.2393
  147MOL0     H19832   7.838   0.653  11.489  0.7412  1.7947  1.1971
  147MOL0     H19833   7.588   0.773  11.101 -1.1114 -2.1750  0.8129
  147MOL0     H19834   7.611   0.918  11.212  0.9940 -0.9057 -1.9298
  147MOL0     H19835   7.429   0.812  11.354 -2.1404 -0.6769  0.3478
  147MOL0     H19836   7.424   0.693  11.217 -1.3396  1.7402 -0.1051
  147MOL0     H19837   7.251   0.826  11.142  1.6345 -1.8406 -1.6955
  147MOL0     H19838   7.385   0.900  11.067 -1.6824  0.9462  0.6108
  147MOL0     H19839   7.239   1.081  11.181  1.1553  1.2663 -1.9782
  147MOL0     H19840   7.264   0.994  11.335 -1.5474 -3.1513 -0.8997
  147MOL0     H19841   7.606   1.233  11.261  1.2589 -0.4744  0.7493
  147MOL0     H19842   7.801   0.795  11.083  0.4639 -1.6508 -0.2054
  147MOL0     H19843   8.167   0.792  11.020  0.0352  0.7333  2.6675
  147MOL0     H19844   8.000   0.742  10.951 -0.2556  1.8535 -1.3525
  147MOL0     H19845   8.028   0.902  11.001 -1.3836  0.1760  0.9014
  148MOL0     O19846   8.713   5.858   8.017 -0.0131  0.1059  0.1590
  148MOL0     C19847   8.640   5.898   8.108 -0.3071 -0.6269  0.4975
  148MOL0     O19848   8.676   5.940   8.231 -0.1244 -0.1571 -1.0316
  148MOL0     C19849   8.809   5.946   8.269  0.5013 -0.3342 -0.4793
  148MOL0     C19850   8.864   5.899   8.384 -0.0457  0.0139 -0.2860
  148MOL0     C19851   8.998   5.923   8.426 -0.3146 -0.5351  0.9277
  148MOL0     C19852   9.074   6.006   8.341 -0.4065 -0.5323 -0.8743
  148MOL0     O19853   9.194   6.056   8.395  0.4833  0.3918  0.0389
  148MOL0     C19854   9.309   6.009   8.318  0.5248 -0.4129  0.1131
  148MOL0     C19855   9.391   6.137   8.286 -0.2032  0.2682  1.0289
  148MOL0     C19856   9.316   6.251   8.211 -0.3343 -0.2190 -0.0590
  148MOL0     C19857   9.388   6.381   8.208 -0.3376  0.6578 -0.3439
  148MOL0     C19858   9.291   6.487   8.145 -0.2249 -0.0144 -0.7991
  148MOL0     C19859   9.357   6.627   8.134 -0.3600  0.0036  0.1319
  148MOL0     C19860   9.458   6.626   8.022 -0.5088  0.6006 -0.6466
  148MOL0     C19861   9.605   6.611   8.070 -0.1547 -0.1780 -0.3798
  148MOL0     N19862   9.695   6.559   7.968 -0.0308 -0.4783  0.5045
  148MOL0     C19863   9.792   6.616   7.886 -0.3817 -0.3339  0.0448
  148MOL0     C19864   9.841   6.506   7.813  0.0755  0.0812 -0.0184
  148MOL0     C19865   9.962   6.507   7.718  0.1886  0.0560 -0.8280
  148MOL0     C19866  10.091   6.444   7.772 -0.0880  0.8690 -0.1252
  148MOL0     C19867  10.209   6.495   7.677 -0.4879 -0.4947 -0.8837
  148MOL0     C19868  10.277   6.618   7.733 -1.2213  0.1820  0.0037
  148MOL0     O19869  10.390   6.642   7.645  0.0937 -0.1124  0.5507
  148MOL0     C19870  10.510   6.582   7.667  0.5373 -1.1390  0.3221
  148MOL0     C19871  10.537   6.485   7.762 -0.4735  0.3649 -0.2684
  148MOL0     C19872  10.672   6.452   7.796  0.3090  0.2178  0.5874
  148MOL0     C19873  10.782   6.502   7.725  0.6262  1.1086  0.4165
  148MOL0     C19874  10.921   6.477   7.770 -0.2796  0.9222  0.7570
  148MOL0     O19875  11.022   6.547   7.702  0.0790  0.2267  0.6939
  148MOL0     C19876  11.147   6.525   7.753 -0.2624  0.2133 -0.7554
  148MOL0     C19877  11.240   6.634   7.772 -0.2878 -0.3292 -0.3371
  148MOL0     C19878  11.365   6.608   7.814 -0.0407 -0.2231  0.3265
  148MOL0     C19879  11.410   6.476   7.846  0.8649  0.6549 -0.6975
  148MOL0     O19880  11.535   6.473   7.905  0.3052 -0.0007  0.3905
  148MOL0     C19881  11.578   6.347   7.956  0.9155  0.1764 -0.1052
  148MOL0     C19882  11.705   6.373   8.025 -0.1619  0.5088  0.7678
  148MOL0     C19883  11.704   6.493   8.113 -0.3754 -0.1121 -0.1552
  148MOL0     C19884  11.810   6.486   8.220 -0.2755 -0.8509 -0.1576
  148MOL0     C19885  11.954   6.472   8.154  0.1389  0.0652 -0.4450
  148MOL0     C19886  12.064   6.482   8.267  0.7737 -0.5821 -1.1624
  148MOL0     C19887  12.203   6.471   8.209 -0.5374  0.5213 -0.4797
  148MOL0     C19888  12.311   6.458   8.321 -0.1872  0.0387 -0.1513
  148MOL0    Cl19889  12.474   6.428   8.237  0.1150  0.0944  0.0729
  148MOL0     C19890  11.322   6.369   7.818  0.2701 -0.5400 -0.5461
  148MOL0     C19891  11.195   6.392   7.764  0.2481  0.5775  0.8783
  148MOL0     O19892  10.933   6.414   7.875 -0.6136  0.5282 -0.3718
  148MOL0     C19893  10.752   6.591   7.621  0.3271 -0.5077  0.5132
  148MOL0     C19894  10.617   6.635   7.593  0.5131 -0.6072 -0.9691
  148MOL0     N19895   9.792   6.390   7.860  0.1277  0.2095 -0.1065
  148MOL0     N19896   9.711   6.427   7.947  0.0389  0.8104 -0.2630
  148MOL0     C19897   9.014   6.066   8.234 -0.3701 -0.6804  0.0957
  148MOL0     C19898   8.888   6.039   8.198 -0.2564 -0.4552  0.0378
  148MOL0     C19899   8.497   5.926   8.080 -0.2936  0.4031  0.0286
  148MOL0     C19900   8.392   5.867   8.156 -0.1386  0.6503  0.2421
  148MOL0     C19901   8.260   5.900   8.137  0.1022 -0.1311  0.3261
  148MOL0     C19902   8.216   5.983   8.040 -0.2547 -0.7179  0.6331
  148MOL0     O19903   8.081   6.019   8.003 -1.0327  0.2830 -0.5174
  148MOL0     C19904   7.978   5.943   8.066 -1.0520 -0.2719  0.0340
  148MOL0     C19905   7.845   5.969   7.991 -0.4218  0.4847 -0.4013
  148MOL0     C19906   7.798   6.122   7.973  1.3579  0.5465 -0.9635
  148MOL0     C19907   7.660   6.160   8.022 -0.0409 -0.2902 -0.1226
  148MOL0     C19908   7.556   6.081   7.944  0.1044 -0.2170 -0.9837
  148MOL0     C19909   7.469   6.035   7.869  0.6241 -0.5404 -0.1210
  148MOL0     C19910   8.313   6.043   7.967 -0.2498  0.0747  1.0265
  148MOL0     C19911   8.453   6.009   7.976  0.1578 -0.2659  0.5200
  148MOL0     C19912   8.552   6.089   7.897  0.4406  0.6549  0.4576
  148MOL0     H19913   8.810   5.846   8.463  3.5645 -2.4105  0.8305
  148MOL0     H19914   9.040   5.890   8.520  2.4294  0.7679  0.2657
  148MOL0     H19915   9.372   5.939   8.374  2.5203 -1.7609 -3.5106
  148MOL0     H19916   9.272   5.961   8.227 -1.2732  3.0384 -1.1620
  148MOL0     H19917   9.474   6.107   8.221 -1.6781  0.4719 -1.0932
  148MOL0     H19918   9.428   6.179   8.379  1.5299  0.2292  0.3874
  148MOL0     H19919   9.224   6.271   8.267  0.1274 -1.0481  1.0205
  148MOL0     H19920   9.280   6.223   8.112  0.1289 -0.1150 -0.2585
  148MOL0     H19921   9.420   6.401   8.311  0.6350 -1.3967 -0.2043
  148MOL0     H19922   9.472   6.364   8.140 -1.2018  0.4159 -1.3795
  148MOL0     H19923   9.254   6.454   8.047  0.4653  1.2399 -1.5192
  148MOL0     H19924   9.209   6.507   8.213  1.4718  1.9956  0.7680
  148MOL0     H19925   9.277   6.697   8.112 -3.0954 -3.2831 -1.1692
  148MOL0     H19926   9.408   6.655   8.228  1.0541 -2.5620  0.2321
  148MOL0     H19927   9.459   6.721   7.967 -0.5387  1.6580  1.1134
  148MOL0     H19928   9.440   6.550   7.946 -2.2275  0.5229 -0.1913
  148MOL0     H19929   9.643   6.709   8.097  1.7554 -0.3026 -2.4032
  148MOL0     H19930   9.607   6.540   8.153 -0.5177  0.5711  0.2813
  148MOL0     H19931   9.823   6.719   7.880 -0.8105 -0.1655  0.6549
  148MOL0     H19932   9.928   6.444   7.635 -1.5422  1.5547 -1.3092
  148MOL0     H19933   9.986   6.604   7.674  1.6326 -1.1720 -2.9692
  148MOL0     H19934  10.112   6.476   7.874  1.0452 -1.3885  0.4111
  148MOL0     H19935  10.086   6.335   7.768 -1.2104  0.8191  1.6349
  148MOL0     H19936  10.173   6.523   7.578 -1.0909 -1.0962 -0.8395
  148MOL0     H19937  10.285   6.416   7.675 -0.2576 -0.4631  2.1608
  148MOL0     H19938  10.316   6.606   7.834 -1.2476  1.8975  0.2419
  148MOL0     H19939  10.203   6.698   7.728  0.3966  1.7912  0.6655
  148MOL0     H19940  10.459   6.432   7.815 -0.1122 -2.5281 -2.3816
  148MOL0     H19941  10.682   6.379   7.875 -2.8798 -0.7705  0.2349
  148MOL0     H19942  11.217   6.739   7.757  1.0306 -0.0336 -0.3487
  148MOL0     H19943  11.437   6.689   7.816 -1.7906  1.4792 -1.2477
  148MOL0     H19944  11.498   6.315   8.023 -0.1816  3.6164  0.4511
  148MOL0     H19945  11.582   6.284   7.866 -0.8414 -0.5910  0.3125
  148MOL0     H19946  11.732   6.286   8.086  1.6618  0.6420  0.2151
  148MOL0     H19947  11.786   6.373   7.952  0.2673 -1.5598  1.1718
  148MOL0     H19948  11.728   6.581   8.053 -0.4568  0.6413  0.8737
  148MOL0     H19949  11.607   6.514   8.159  0.5208  0.9564  1.3394
  148MOL0     H19950  11.796   6.395   8.279 -2.7491  1.0616  2.5077
  148MOL0     H19951  11.792   6.575   8.281  0.7251 -0.7431  0.0027
  148MOL0     H19952  11.962   6.557   8.086 -1.4188  0.5647 -0.0644
  148MOL0     H19953  11.967   6.378   8.100 -2.0884 -0.5877  0.0375
  148MOL0     H19954  12.059   6.569   8.333 -1.0739 -2.1562  0.9250
  148MOL0     H19955  12.044   6.398   8.334 -1.6705  0.3373 -0.6348
  148MOL0     H19956  12.216   6.554   8.139  2.2533  1.8078  1.3771
  148MOL0     H19957  12.206   6.379   8.150  0.3080 -0.6824  1.3546
  148MOL0     H19958  12.317   6.550   8.380 -3.0357  0.8070 -0.8742
  148MOL0     H19959  12.280   6.371   8.379 -5.1727 -0.3666 -2.8182
  148MOL0     H19960  11.357   6.266   7.820  1.2003 -0.2255  0.0542
  148MOL0     H19961  11.144   6.297   7.757  0.2189  0.3174  3.5781
  148MOL0     H19962  10.841   6.636   7.579 -0.5552  1.4222  0.6203
  148MOL0     H19963  10.599   6.709   7.516 -1.6457 -1.9973 -1.8807
  148MOL0     H19964   9.072   6.121   8.160  0.5848 -2.1956 -0.3259
  148MOL0     H19965   8.848   6.100   8.117 -0.2936  3.6660  2.8708
  148MOL0     H19966   8.427   5.791   8.226  1.9673  0.8113 -0.5526
  148MOL0     H19967   8.186   5.850   8.199  0.2988  0.3913  0.9861
  148MOL0     H19968   7.961   5.966   8.172 -0.8431  2.4495 -0.4409
  148MOL0     H19969   8.004   5.837   8.066 -1.5870 -0.4525  1.9719
  148MOL0     H19970   7.768   5.919   8.051  0.1402 -0.0411 -0.1053
  148MOL0     H19971   7.854   5.922   7.892 -0.8764 -4.5032  1.6006
  148MOL0     H19972   7.819   6.147   7.869  1.4582  3.1362 -0.3764
  148MOL0     H19973   7.867   6.189   8.024  0.5022  1.2187 -0.6707
  148MOL0     H19974   7.646   6.143   8.129 -1.5120  0.1608 -0.2125
  148MOL0     H19975   7.656   6.264   7.989  2.2684 -0.9481 -2.8490
  148MOL0     H19976   7.400   5.989   7.801 -0.4475  3.1893 -1.8055
  148MOL0     H19977   8.290   6.104   7.881  2.4021 -0.4649 -0.1462
  148MOL0     H19978   8.659   6.088   7.924 -0.0911 -1.8318  2.9112
  148MOL0     H19979   8.549   6.052   7.794 -0.9804 -1.6967  1.2682
  148MOL0     H19980   8.529   6.196   7.902  1.7575  0.9832  0.0490
  149MOL0     O19981  10.807   9.459  10.219 -0.1977 -0.8078 -0.2926
  149MOL0     C19982  10.801   9.336  10.237 -0.6464 -0.3980 -0.5871
  149MOL0     O19983  10.908   9.251  10.218 -0.6974 -0.2785 -0.3603
  149MOL0     C19984  11.032   9.318  10.188  0.4545  0.0636 -1.2345
  149MOL0     C19985  11.068   9.335  10.059 -0.1683  0.0890 -0.5156
  149MOL0     C19986  11.187   9.396  10.015 -0.0978 -0.3701 -0.3166
  149MOL0     C19987  11.260   9.455  10.113 -0.3901 -0.5386 -0.0155
  149MOL0     O19988  11.390   9.509  10.096  0.1346  0.0366  0.6204
  149MOL0     C19989  11.417   9.539   9.956  0.6105  0.3811  0.0747
  149MOL0     C19990  11.539   9.630   9.949  0.1112  0.0409 -0.1340
  149MOL0     C19991  11.662   9.562  10.019  0.3154 -0.0854 -0.8702
  149MOL0     C19992  11.793   9.625   9.957  0.5376 -0.1334  0.1348
  149MOL0     C19993  11.915   9.553  10.017  0.0116 -0.3778  0.0666
  149MOL0     C19994  11.944   9.561  10.162  0.2232  1.0315  0.1030
  149MOL0     C19995  12.079   9.498  10.200 -0.9611 -0.3971 -0.0491
  149MOL0     C19996  12.203   9.550  10.131  0.2256  0.6549  0.0190
  149MOL0     N19997  12.319   9.500  10.212 -0.3129 -0.3855  0.7755
  149MOL0     C19998  12.411   9.587  10.274  0.5467  0.3564 -0.5977
  149MOL0     C19999  12.498   9.504  10.335  0.5099  0.2869 -0.1995
  149MOL0     C20000  12.614   9.554  10.417 -0.2761 -1.1183  0.1601
  149MOL0     C20001  12.677   9.686  10.364  0.4870  1.2647  0.1949
  149MOL0     C20002  12.822   9.701  10.413 -1.1374 -0.3418 -0.0899
  149MOL0     C20003  12.842   9.699  10.565 -0.6635  0.1390  0.5012
  149MOL0     O20004  12.986   9.712  10.600 -0.8609  0.0511  0.0309
  149MOL0     C20005  13.075   9.609  10.576 -0.1798  0.7300  0.3225
  149MOL0     C20006  13.208   9.640  10.584 -0.0807  0.2127  0.3956
  149MOL0     C20007  13.311   9.537  10.569  0.4307 -0.1626 -0.0948
  149MOL0     C20008  13.265   9.411  10.524  0.1920 -0.1269  0.2437
  149MOL0     C20009  13.358   9.308  10.488  0.3801  0.1333  0.1118
  149MOL0     O20010  13.480   9.349  10.437 -0.2636  0.3013 -0.0987
  149MOL0     C20011  13.567   9.249  10.412  0.5696  0.4424 -0.1772
  149MOL0     C20012  13.605   9.142  10.495  0.3894 -0.1844 -0.1266
  149MOL0     C20013  13.701   9.049  10.445  0.9731  0.3687 -0.0393
  149MOL0     C20014  13.764   9.065  10.322 -0.2476  0.2172  0.0326
  149MOL0     O20015  13.862   8.991  10.260  1.1163 -0.5084  0.1074
  149MOL0     C20016  13.824   8.864  10.200 -0.4360 -0.9663 -0.2253
  149MOL0     C20017  13.897   8.762  10.277  0.0159 -0.0856  0.5438
  149MOL0     C20018  13.857   8.623  10.221  0.4890 -0.2859 -0.0587
  149MOL0     C20019  13.926   8.595  10.081 -0.4313 -0.0192  0.2476
  149MOL0     C20020  13.934   8.450  10.046 -1.0152  0.2617  0.1557
  149MOL0     C20021  13.985   8.442   9.896 -0.1127 -0.0230 -0.0421
  149MOL0     C20022  14.014   8.294   9.858 -0.4417  0.2947 -0.1883
  149MOL0     C20023  14.044   8.278   9.716 -0.8546 -0.0274  0.5108
  149MOL0    Cl20024  13.893   8.308   9.612 -0.1906 -0.0838 -0.1143
  149MOL0     C20025  13.717   9.170  10.238  0.1765 -0.1571 -1.1110
  149MOL0     C20026  13.628   9.271  10.291 -0.4237 -0.1608 -0.5921
  149MOL0     O20027  13.321   9.190  10.511  0.5809 -0.0013 -0.3250
  149MOL0     C20028  13.125   9.375  10.537 -0.0227 -0.2957 -0.1986
  149MOL0     C20029  13.031   9.479  10.558  0.2114 -0.3709 -0.7728
  149MOL0     N20030  12.461   9.369  10.313 -0.7306  0.0412 -0.7138
  149MOL0     N20031  12.355   9.368  10.236 -0.3385 -0.2726  0.3896
  149MOL0     C20032  11.227   9.451  10.246  0.4310  1.0014  0.1289
  149MOL0     C20033  11.111   9.380  10.285 -1.2756  0.2118  0.3739
  149MOL0     C20034  10.676   9.272  10.229  1.0046  0.6830 -0.3850
  149MOL0     C20035  10.649   9.170  10.138 -0.3133 -0.3940 -0.5059
  149MOL0     C20036  10.518   9.113  10.128  0.2371 -0.1412 -0.2154
  149MOL0     C20037  10.417   9.163  10.201  0.9416  0.0358 -0.8334
  149MOL0     O20038  10.283   9.127  10.193  0.0048  0.1654 -0.4261
  149MOL0     C20039  10.261   9.003  10.128 -0.1942 -0.2075 -0.8687
  149MOL0     C20040  10.120   8.961  10.156 -0.3570  0.5852 -0.2884
  149MOL0     C20041  10.023   9.052  10.081 -0.3707 -0.2629  0.6410
  149MOL0     C20042   9.881   9.019  10.108  0.5373 -0.2508  0.0933
  149MOL0     C20043   9.801   9.134  10.056  0.6001  0.6591  0.7276
  149MOL0     C20044   9.734   9.223  10.005 -0.0218  0.4612 -0.1568
  149MOL0     C20045  10.442   9.273  10.292  0.1531  0.1302  0.0997
  149MOL0     C20046  10.570   9.314  10.315 -0.3538  0.4642 -0.3557
  149MOL0     C20047  10.595   9.408  10.427  0.2888  0.0073 -0.1661
  149MOL0     H20048  11.012   9.297   9.975  0.8735 -0.0536 -1.1662
  149MOL0     H20049  11.218   9.400   9.912 -0.5435  0.0393 -0.4403
  149MOL0     H20050  11.439   9.443   9.907  0.3927  0.5438 -0.3478
  149MOL0     H20051  11.332   9.581   9.902  1.3128 -0.0041 -1.4038
  149MOL0     H20052  11.516   9.728   9.993  1.3828 -0.2519  1.2583
  149MOL0     H20053  11.564   9.635   9.843 -2.1650 -2.9329 -0.9693
  149MOL0     H20054  11.651   9.454  10.007 -1.7280 -0.4019  2.6371
  149MOL0     H20055  11.653   9.578  10.127 -3.4225 -0.6029 -0.9732
  149MOL0     H20056  11.788   9.595   9.852 -3.0826 -0.9555  0.4093
  149MOL0     H20057  11.805   9.733   9.972  0.7968 -0.2480  0.8114
  149MOL0     H20058  11.916   9.448   9.984  4.0481 -0.3676 -0.4027
  149MOL0     H20059  11.996   9.612   9.974 -0.7432  0.2845 -0.4711
  149MOL0     H20060  11.945   9.662  10.203  0.0645  0.9630  0.2777
  149MOL0     H20061  11.864   9.516  10.221  0.6211 -0.9722 -0.7880
  149MOL0     H20062  12.080   9.392  10.172  1.4709  0.2323 -2.9571
  149MOL0     H20063  12.089   9.506  10.309  4.3999  0.5195 -0.3464
  149MOL0     H20064  12.207   9.521  10.025  0.4236 -0.9891  0.4422
  149MOL0     H20065  12.209   9.659  10.126  1.9271  0.5415 -2.1316
  149MOL0     H20066  12.405   9.695  10.282 -1.5807  0.2615 -0.3954
  149MOL0     H20067  12.584   9.564  10.522 -0.9989 -1.9529  0.0542
  149MOL0     H20068  12.690   9.475  10.416  1.6513  0.6502  1.0185
  149MOL0     H20069  12.688   9.677  10.255 -1.1484 -0.6401  0.1307
  149MOL0     H20070  12.615   9.775  10.379  0.3213  1.4848 -1.5656
  149MOL0     H20071  12.853   9.797  10.369  2.2088 -1.4556 -0.4199
  149MOL0     H20072  12.892   9.634  10.363 -1.0918  0.0247 -0.5335
  149MOL0     H20073  12.805   9.609  10.614  1.5438 -1.3575 -0.4226
  149MOL0     H20074  12.795   9.784  10.615 -1.1509 -1.1350  2.3099
  149MOL0     H20075  13.244   9.740  10.605  0.1662 -0.2521  2.4416
  149MOL0     H20076  13.417   9.561  10.576  0.0704  1.0858  1.6829
  149MOL0     H20077  13.561   9.134  10.594 -0.3453 -0.8231 -0.4955
  149MOL0     H20078  13.741   8.969  10.507 -1.8439 -1.6409 -0.6335
  149MOL0     H20079  13.716   8.844  10.198 -0.4426 -0.8807 -1.6678
  149MOL0     H20080  13.863   8.856  10.098 -0.3326  2.7058 -0.6019
  149MOL0     H20081  14.005   8.777  10.268  0.1216 -1.1280 -0.1071
  149MOL0     H20082  13.868   8.769  10.382 -1.6838  0.1956  0.0895
  149MOL0     H20083  13.887   8.548  10.295  1.9206  2.4187  2.2923
  149MOL0     H20084  13.749   8.619  10.205  0.6849  0.4225 -1.8368
  149MOL0     H20085  14.030   8.626  10.091 -0.4411  0.5358 -1.1341
  149MOL0     H20086  13.874   8.649  10.001 -1.0330  1.5524  1.6225
  149MOL0     H20087  13.830   8.416  10.049 -1.5138  1.7725  1.3699
  149MOL0     H20088  14.006   8.409  10.117 -0.2807  2.9168  1.0698
  149MOL0     H20089  13.907   8.489   9.836  1.4316  0.8206 -1.4589
  149MOL0     H20090  14.078   8.499   9.888  0.9053 -1.2954  1.8922
  149MOL0     H20091  13.922   8.241   9.883 -1.3383  2.9388  2.8002
  149MOL0     H20092  14.102   8.261   9.914 -0.0908  1.0995 -0.2526
  149MOL0     H20093  14.126   8.344   9.687 -0.8517 -0.7505 -1.2464
  149MOL0     H20094  14.073   8.175   9.694 -0.6968  0.6509 -3.1732
  149MOL0     H20095  13.746   9.186  10.134 -1.0256 -0.3514 -1.4906
  149MOL0     H20096  13.593   9.350  10.225  0.2408  0.2425 -0.4746
  149MOL0     H20097  13.096   9.272  10.519 -0.7478 -0.5769  2.2374
  149MOL0     H20098  12.929   9.443  10.562  0.0040  0.2916  0.5938
  149MOL0     H20099  11.279   9.490  10.333 -0.3699  3.9555 -0.6043
  149MOL0     H20100  11.091   9.362  10.390  0.4411 -2.6874  0.2931
  149MOL0     H20101  10.720   9.129  10.068 -0.5407 -1.0266 -0.3737
  149MOL0     H20102  10.503   9.037  10.052  4.0768  0.4149 -1.7192
  149MOL0     H20103  10.322   8.935  10.188 -1.9032 -1.3690 -0.3641
  149MOL0     H20104  10.278   8.997  10.021  0.7473 -2.3436 -0.6554
  149MOL0     H20105  10.111   8.959  10.265 -1.8961  0.0901 -0.3982
  149MOL0     H20106  10.107   8.856  10.127  0.7407  0.5569 -0.7051
  149MOL0     H20107  10.043   9.041   9.974 -2.2522  3.1615 -0.1992
  149MOL0     H20108  10.042   9.156  10.106 -2.3775  0.4131 -0.4173
  149MOL0     H20109   9.862   8.938  10.037  0.4967 -0.6216  0.5269
  149MOL0     H20110   9.855   8.995  10.211  2.6608 -1.0617  0.4898
  149MOL0     H20111   9.668   9.283   9.945  0.7352  1.8598  0.3740
  149MOL0     H20112  10.362   9.325  10.342 -1.3631 -0.7739 -1.3091
  149MOL0     H20113  10.579   9.515  10.407 -3.3866 -0.3982  0.0502
  149MOL0     H20114  10.531   9.381  10.511 -1.0502 -0.3674 -1.2662
  149MOL0     H20115  10.695   9.393  10.469  0.3232  3.1897  1.1660
  150MOL0     O20116   8.007   3.466   9.344  0.0609  0.2436 -0.2328
  150MOL0     C20117   7.930   3.446   9.252 -0.7887  0.3878 -0.3754
  150MOL0     O20118   7.935   3.344   9.167  0.9677  0.3832  0.0246
  150MOL0     C20119   8.045   3.266   9.168 -0.7380  0.7977 -0.6392
  150MOL0     C20120   8.180   3.320   9.170  0.8600  0.3806  0.2597
  150MOL0     C20121   8.289   3.233   9.157  0.3638 -0.0269 -0.6260
  150MOL0     C20122   8.269   3.095   9.153 -0.6329 -0.1799  0.5420
  150MOL0     O20123   8.388   3.018   9.155 -0.1892  0.2079  0.0097
  150MOL0     C20124   8.383   2.899   9.070  0.2246 -0.7137  0.2328
  150MOL0     C20125   8.377   2.934   8.919 -0.9135  0.2301  0.6717
  150MOL0     C20126   8.518   2.947   8.856  0.0951  0.6968 -0.8177
  150MOL0     C20127   8.566   2.832   8.764  0.1434 -0.3520  0.5883
  150MOL0     C20128   8.719   2.830   8.755  0.0590  0.5163  0.2343
  150MOL0     C20129   8.795   2.768   8.888 -0.4092 -0.1299 -0.0639
  150MOL0     C20130   8.945   2.792   8.887 -0.3611  0.5511 -1.2083
  150MOL0     C20131   9.030   2.755   8.765  0.1047 -0.3658 -0.5112
  150MOL0     N20132   9.176   2.777   8.782 -0.2552 -0.0129 -0.9127
  150MOL0     C20133   9.243   2.881   8.843 -0.8245  1.3731  0.9174
  150MOL0     C20134   9.370   2.838   8.864  0.8899 -0.2910 -0.7647
  150MOL0     C20135   9.483   2.916   8.927  0.8421 -0.5662 -0.1629
  150MOL0     C20136   9.500   2.875   9.070 -0.6151 -1.0547 -0.3259
  150MOL0     C20137   9.629   2.933   9.137  0.4064 -0.0581 -0.4553
  150MOL0     C20138   9.638   3.088   9.144 -0.2025  1.3703  0.5002
  150MOL0     O20139   9.689   3.127   9.272 -0.1500  0.3999  0.5891
  150MOL0     C20140   9.823   3.155   9.270  0.1963 -0.2842 -0.4669
  150MOL0     C20141   9.910   3.065   9.328  0.3206  0.1773  0.3899
  150MOL0     C20142  10.045   3.103   9.352 -0.5711 -0.4377 -0.8763
  150MOL0     C20143  10.096   3.226   9.307  0.2330 -0.2875 -0.2351
  150MOL0     C20144  10.236   3.256   9.330 -0.9908  0.1669  0.1728
  150MOL0     O20145  10.307   3.321   9.229 -0.0355  0.4808 -0.0540
  150MOL0     C20146  10.438   3.363   9.232  0.2854  0.3610 -1.7895
  150MOL0     C20147  10.497   3.393   9.107 -0.0430 -0.7103 -0.1864
  150MOL0     C20148  10.629   3.438   9.097 -1.1969  0.3090  0.6036
  150MOL0     C20149  10.717   3.434   9.207  0.2579 -1.3936  0.5468
  150MOL0     O20150  10.857   3.450   9.188  0.4487  0.2929  0.1554
  150MOL0     C20151  10.940   3.415   9.305 -1.1179 -0.7416 -0.4852
  150MOL0     C20152  11.087   3.433   9.277 -0.1117  0.2117 -0.7468
  150MOL0     C20153  11.168   3.387   9.400  0.0428  0.1218 -0.7442
  150MOL0     C20154  11.321   3.367   9.374 -0.8178 -0.5447  0.5013
  150MOL0     C20155  11.396   3.492   9.306 -0.0755 -0.2989 -0.5613
  150MOL0     C20156  11.540   3.451   9.273 -0.1291  0.2671 -0.1600
  150MOL0     C20157  11.612   3.548   9.176 -0.2344  0.6814  0.6057
  150MOL0     C20158  11.766   3.544   9.174  0.0552 -0.4612 -0.0686
  150MOL0    Cl20159  11.838   3.633   9.321  0.1913  0.3535  0.0317
  150MOL0     C20160  10.661   3.397   9.330 -0.3336 -0.1896  0.6879
  150MOL0     C20161  10.524   3.370   9.343  0.4127  0.0871 -0.5142
  150MOL0     O20162  10.293   3.209   9.429 -0.7361  0.3852 -0.4296
  150MOL0     C20163  10.006   3.311   9.232  0.1803 -0.1056 -0.5409
  150MOL0     C20164   9.870   3.279   9.222  0.3960 -0.9536  0.4282
  150MOL0     N20165   9.379   2.710   8.811 -0.4247 -0.2472 -0.6682
  150MOL0     N20166   9.265   2.675   8.770 -0.6461 -0.1960  0.2333
  150MOL0     C20167   8.138   3.042   9.147 -0.5936 -0.1655 -0.3327
  150MOL0     C20168   8.025   3.127   9.158  0.7141 -0.1529  0.6556
  150MOL0     C20169   7.837   3.557   9.226 -0.4835  0.6038  0.0471
  150MOL0     C20170   7.838   3.610   9.098 -0.5503  0.9805  0.7659
  150MOL0     C20171   7.751   3.709   9.067  0.2382 -0.6530 -0.6422
  150MOL0     C20172   7.671   3.769   9.167 -0.1906  0.8591  0.4197
  150MOL0     O20173   7.601   3.882   9.128  0.1926 -0.2773 -0.7852
  150MOL0     C20174   7.514   3.948   9.222 -0.2437  0.7511  0.5444
  150MOL0     C20175   7.441   4.061   9.144 -0.4258  0.5640  0.1458
  150MOL0     C20176   7.330   4.007   9.055 -0.0495 -0.1014  0.3873
  150MOL0     C20177   7.246   4.118   8.987 -0.4476 -0.2814  0.0849
  150MOL0     C20178   7.153   4.054   8.898 -0.3302 -0.2368 -0.2794
  150MOL0     C20179   7.081   3.989   8.828 -0.0777  0.1291  1.0066
  150MOL0     C20180   7.687   3.733   9.295  0.7070  0.2733 -0.2897
  150MOL0     C20181   7.767   3.621   9.328 -1.0251  0.3298  0.5801
  150MOL0     C20182   7.763   3.564   9.461 -0.0424  0.3495  0.3047
  150MOL0     H20183   8.186   3.428   9.180 -2.5090  0.4552  3.6935
  150MOL0     H20184   8.391   3.270   9.154  0.2698  0.5118  1.3062
  150MOL0     H20185   8.456   2.824   9.102  1.4480  0.3761  0.0829
  150MOL0     H20186   8.289   2.849   9.094 -1.3321  2.9272  2.7254
  150MOL0     H20187   8.330   3.032   8.909  2.8302  2.2061  0.7276
  150MOL0     H20188   8.313   2.863   8.866  0.1933  0.1242 -0.5763
  150MOL0     H20189   8.584   2.958   8.942 -0.2517  4.1476 -0.8541
  150MOL0     H20190   8.521   3.044   8.807 -0.1401  0.8155 -0.6031
  150MOL0     H20191   8.532   2.733   8.797 -0.4609 -0.9755 -1.7407
  150MOL0     H20192   8.520   2.840   8.666 -3.2537 -0.0143  2.0585
  150MOL0     H20193   8.747   2.777   8.664 -3.3296  0.3994 -0.8748
  150MOL0     H20194   8.764   2.929   8.740  2.0995  0.1408  3.0207
  150MOL0     H20195   8.762   2.808   8.985  1.6693 -0.0740  0.6687
  150MOL0     H20196   8.756   2.667   8.906  0.3517 -0.1711  1.5272
  150MOL0     H20197   8.983   2.734   8.972 -2.4992 -1.3353 -1.4632
  150MOL0     H20198   8.955   2.899   8.906 -0.5471  0.1898  1.3530
  150MOL0     H20199   9.003   2.655   8.730 -0.4412 -1.2306  2.1794
  150MOL0     H20200   8.996   2.826   8.688  2.1195 -0.2486 -1.3605
  150MOL0     H20201   9.202   2.979   8.865 -4.3059  0.0126  1.0322
  150MOL0     H20202   9.572   2.897   8.867  1.6758  1.1122  0.4611
  150MOL0     H20203   9.466   3.025   8.931  0.6195 -0.5809 -0.6840
  150MOL0     H20204   9.410   2.890   9.130 -0.5827 -0.1158 -0.4937
  150MOL0     H20205   9.524   2.769   9.071  1.3165 -0.6580 -0.1834
  150MOL0     H20206   9.720   2.896   9.088  1.8523  0.2085  1.9167
  150MOL0     H20207   9.626   2.904   9.242 -0.5063  2.1662  0.1737
  150MOL0     H20208   9.548   3.142   9.114  0.2691  1.4251 -0.9323
  150MOL0     H20209   9.709   3.132   9.072  0.8483 -3.1032 -1.5396
  150MOL0     H20210   9.880   2.977   9.384 -0.9389  0.7337  0.6220
  150MOL0     H20211  10.103   3.033   9.412 -3.2606 -1.3967  0.8038
  150MOL0     H20212  10.436   3.389   9.017 -0.7658 -0.8423  0.3013
  150MOL0     H20213  10.670   3.451   8.997 -0.6510 -3.7269  0.1318
  150MOL0     H20214  10.915   3.482   9.387  1.4474 -0.1054 -0.1172
  150MOL0     H20215  10.920   3.312   9.335 -0.0379 -0.5810  0.9052
  150MOL0     H20216  11.114   3.368   9.193  0.8352 -0.5392  0.1167
  150MOL0     H20217  11.107   3.534   9.240  1.9792  0.9900  2.1080
  150MOL0     H20218  11.146   3.444   9.491 -0.4424 -2.2430  0.7347
  150MOL0     H20219  11.130   3.289   9.433 -0.3357 -0.1182 -1.8585
  150MOL0     H20220  11.325   3.282   9.305 -0.4435 -1.1446  1.2485
  150MOL0     H20221  11.367   3.334   9.468  3.4438 -0.1043 -1.2087
  150MOL0     H20222  11.396   3.572   9.381 -0.9845 -0.6423 -0.1918
  150MOL0     H20223  11.351   3.525   9.213  1.3504 -1.3527 -1.6775
  150MOL0     H20224  11.587   3.429   9.369  1.1494  0.7930 -0.6352
  150MOL0     H20225  11.525   3.359   9.216 -5.5732  0.1775  0.8452
  150MOL0     H20226  11.579   3.652   9.178 -1.4933  0.2878  0.9147
  150MOL0     H20227  11.587   3.512   9.075 -0.1276  1.0619  0.4428
  150MOL0     H20228  11.799   3.441   9.157 -2.3568 -1.1113 -1.1985
  150MOL0     H20229  11.796   3.594   9.082  0.0498 -1.5068 -0.6550
  150MOL0     H20230  10.726   3.397   9.417 -0.2023  0.9737  0.6168
  150MOL0     H20231  10.473   3.350   9.437 -0.6852 -0.5608 -1.2133
  150MOL0     H20232  10.051   3.405   9.201 -0.4692  0.4003  0.0086
  150MOL0     H20233   9.801   3.357   9.189  1.2322 -1.0300 -1.6797
  150MOL0     H20234   8.129   2.934   9.152 -0.5155 -0.1165  1.4434
  150MOL0     H20235   7.926   3.082   9.151  0.5165  0.3090  0.4709
  150MOL0     H20236   7.897   3.564   9.020 -0.2816  0.5809  1.1941
  150MOL0     H20237   7.745   3.758   8.971  1.5018  4.0524  1.3772
  150MOL0     H20238   7.564   3.986   9.311  5.4498 -1.3059 -1.3590
  150MOL0     H20239   7.431   3.876   9.234 -0.8218  0.2360 -4.2704
  150MOL0     H20240   7.506   4.132   9.090 -2.1919 -0.0692 -3.0968
  150MOL0     H20241   7.401   4.126   9.222 -0.4899  0.1927  0.4183
  150MOL0     H20242   7.271   3.945   9.123  0.4956 -2.5311 -1.2528
  150MOL0     H20243   7.371   3.932   8.987  1.8684  1.8309 -0.7300
  150MOL0     H20244   7.186   4.174   9.060  0.1924 -0.3431  0.6738
  150MOL0     H20245   7.305   4.194   8.936 -1.4919  1.2557  1.0525
  150MOL0     H20246   7.016   3.928   8.767  0.8135 -0.1688  0.3313
  150MOL0     H20247   7.629   3.785   9.371 -0.4079 -1.7364  0.3118
  150MOL0     H20248   7.702   3.634   9.520 -0.7302  1.5956 -1.7970
  150MOL0     H20249   7.721   3.463   9.467  1.7265 -0.4962 -0.7230
  150MOL0     H20250   7.861   3.563   9.509  1.4120  0.1583 -2.5057
  151MOL0     O20251   2.735   0.202   1.412 -0.2635 -0.1469  0.4509
  151MOL0     C20252   2.648   0.288   1.392  0.6997  0.1635  0.0049
  151MOL0     O20253   2.667   0.398   1.315  0.2624 -0.1481 -0.2219
  151MOL0     C20254   2.790   0.418   1.270  1.0437 -0.4646  0.0081
  151MOL0     C20255   2.876   0.515   1.327 -0.7667  0.2909  0.5103
  151MOL0     C20256   3.001   0.533   1.283  0.3324  0.7362  0.7952
  151MOL0     C20257   3.054   0.459   1.172  0.8338 -0.5535  0.0672
  151MOL0     O20258   3.184   0.457   1.138 -0.2609  0.2047  0.5262
  151MOL0     C20259   3.277   0.513   1.233  1.2156 -0.7196 -0.0477
  151MOL0     C20260   3.417   0.482   1.186 -0.0733 -0.9468  0.2875
  151MOL0     C20261   3.510   0.540   1.288 -0.2068  0.8491  0.2233
  151MOL0     C20262   3.653   0.518   1.260 -0.0853 -0.8554 -0.3323
  151MOL0     C20263   3.740   0.542   1.376 -0.0378  0.4254 -0.1243
  151MOL0     C20264   3.891   0.543   1.341 -0.1915 -0.2389 -0.4687
  151MOL0     C20265   3.924   0.684   1.286 -0.4701 -0.0298 -0.8427
  151MOL0     C20266   4.063   0.691   1.216 -0.7494 -0.5176 -0.1285
  151MOL0     N20267   4.160   0.655   1.311  0.1063  0.0547 -0.6071
  151MOL0     C20268   4.228   0.735   1.396 -0.2568  0.7377 -0.3761
  151MOL0     C20269   4.320   0.645   1.452 -0.7542  1.0475 -0.0653
  151MOL0     C20270   4.432   0.682   1.552 -0.9832  0.5019  1.0375
  151MOL0     C20271   4.563   0.726   1.486 -0.2174 -0.0566 -0.6565
  151MOL0     C20272   4.643   0.609   1.422  1.1244  0.6373  0.5978
  151MOL0     C20273   4.775   0.663   1.372 -0.3188 -0.0062 -0.3923
  151MOL0     O20274   4.832   0.552   1.309 -0.7763  0.1787  0.5686
  151MOL0     C20275   4.962   0.568   1.280  0.5090 -0.0122  0.0926
  151MOL0     C20276   5.025   0.694   1.249  0.1067 -0.5178 -0.1957
  151MOL0     C20277   5.160   0.695   1.231 -0.1971 -0.1063  0.3648
  151MOL0     C20278   5.245   0.585   1.241 -0.0586  0.5010  0.0392
  151MOL0     C20279   5.391   0.592   1.222  1.0294 -0.9556  0.3345
  151MOL0     O20280   5.462   0.474   1.229 -0.1592  0.7365  1.0819
  151MOL0     C20281   5.601   0.476   1.215  0.4557  0.1072 -0.6806
  151MOL0     C20282   5.684   0.549   1.298 -0.1149 -0.7252  0.6370
  151MOL0     C20283   5.822   0.530   1.296 -0.0012 -0.1738  0.1507
  151MOL0     C20284   5.869   0.437   1.206 -0.7231 -0.2999  0.0847
  151MOL0     O20285   6.000   0.411   1.196  0.0499  0.5370 -0.2634
  151MOL0     C20286   6.104   0.503   1.227 -0.4192 -0.0865  0.6209
  151MOL0     C20287   6.235   0.414   1.223  1.7071 -1.4230  0.9927
  151MOL0     C20288   6.243   0.311   1.333  0.0553  1.1780  0.2564
  151MOL0     C20289   6.264   0.368   1.481  0.0432  0.4622 -0.8520
  151MOL0     C20290   6.407   0.416   1.518 -0.5495  0.1724  0.0425
  151MOL0     C20291   6.503   0.297   1.534 -0.5562  0.1211 -0.8826
  151MOL0     C20292   6.645   0.336   1.589 -0.4774 -0.5041 -0.4531
  151MOL0     C20293   6.731   0.228   1.648  0.3310  0.1415  0.2768
  151MOL0    Cl20294   6.710   0.228   1.827 -0.0844  0.1751  0.3658
  151MOL0     C20295   5.785   0.352   1.138 -0.0422 -0.5461  0.6027
  151MOL0     C20296   5.647   0.371   1.137 -0.1897 -0.0142 -0.0236
  151MOL0     O20297   5.438   0.706   1.196  0.0882  0.6965  0.6035
  151MOL0     C20298   5.182   0.462   1.281  0.7423 -0.5729 -0.8856
  151MOL0     C20299   5.045   0.453   1.292 -0.0659 -0.4535  0.4002
  151MOL0     N20300   4.301   0.519   1.396  0.6052 -0.4844  0.5108
  151MOL0     N20301   4.215   0.527   1.300 -0.9146 -0.3997 -0.1789
  151MOL0     C20302   2.962   0.371   1.101  0.6760 -0.6232 -0.2758
  151MOL0     C20303   2.829   0.349   1.151  0.1398 -0.2169 -0.5891
  151MOL0     C20304   2.508   0.251   1.435 -0.3817 -0.1805 -0.1082
  151MOL0     C20305   2.408   0.337   1.389 -0.4227  0.0806 -0.1704
  151MOL0     C20306   2.273   0.309   1.411 -0.2632 -0.0342 -0.5275
  151MOL0     C20307   2.228   0.202   1.488 -0.4240 -0.1566 -0.0317
  151MOL0     O20308   2.097   0.164   1.514 -0.4486 -0.1531  0.3045
  151MOL0     C20309   1.994   0.218   1.431 -0.1357 -0.7787 -0.6070
  151MOL0     C20310   1.872   0.148   1.476  0.3282 -0.0483  0.4921
  151MOL0     C20311   1.830   0.169   1.624  0.1992 -0.5175 -0.1526
  151MOL0     C20312   1.694   0.227   1.632  0.0361 -0.0831 -1.2305
  151MOL0     C20313   1.582   0.146   1.593  0.4795 -0.2784 -0.1280
  151MOL0     C20314   1.497   0.066   1.548  0.0946  0.4012  0.4159
  151MOL0     C20315   2.332   0.125   1.548 -0.0349  1.1268  0.6577
  151MOL0     C20316   2.469   0.145   1.521  0.1090 -0.1256 -0.7504
  151MOL0     C20317   2.558   0.053   1.595 -0.0689  0.3840  1.0842
  151MOL0     H20318   2.836   0.561   1.417 -2.3463  0.3884 -0.2180
  151MOL0     H20319   3.070   0.596   1.337 -0.9137  0.2987  3.0071
  151MOL0     H20320   3.273   0.622   1.239 -0.4139 -0.6696 -1.2130
  151MOL0     H20321   3.272   0.464   1.331  0.4957  0.4733  0.5331
  151MOL0     H20322   3.452   0.533   1.095 -1.9694 -0.3946 -0.1769
  151MOL0     H20323   3.433   0.374   1.183  0.7560 -0.8243 -1.2305
  151MOL0     H20324   3.472   0.506   1.385  1.5794  1.7798  1.2948
  151MOL0     H20325   3.504   0.649   1.290 -0.2286  0.8966  3.5519
  151MOL0     H20326   3.670   0.425   1.207 -0.9502 -0.0406 -2.1172
  151MOL0     H20327   3.670   0.592   1.182 -0.8447 -0.4454 -0.1206
  151MOL0     H20328   3.708   0.636   1.421  0.1640 -0.1076  1.1671
  151MOL0     H20329   3.725   0.461   1.448  5.0806 -0.9789 -0.2406
  151MOL0     H20330   3.949   0.525   1.432  0.7144 -1.0358 -1.1790
  151MOL0     H20331   3.921   0.461   1.274  0.2973  0.1179 -0.6966
  151MOL0     H20332   3.920   0.736   1.382 -0.3440  0.9405 -1.3534
  151MOL0     H20333   3.844   0.727   1.224  0.1549  0.1839 -1.5128
  151MOL0     H20334   4.073   0.619   1.134 -1.8158 -2.4620  1.3814
  151MOL0     H20335   4.088   0.787   1.169  1.1821 -1.5518 -1.3531
  151MOL0     H20336   4.222   0.836   1.434  0.2259  0.4046  0.6376
  151MOL0     H20337   4.398   0.758   1.623  1.7164  1.9058  0.9585
  151MOL0     H20338   4.453   0.591   1.609 -0.0685 -0.5587 -0.8867
  151MOL0     H20339   4.542   0.817   1.429  1.1265  1.5295  1.2080
  151MOL0     H20340   4.623   0.747   1.575 -0.9850  0.8300 -0.3277
  151MOL0     H20341   4.597   0.556   1.338  2.6801 -0.2474  0.2770
  151MOL0     H20342   4.652   0.541   1.507  0.4440  0.7580  0.7769
  151MOL0     H20343   4.836   0.699   1.455  1.9157 -0.6193 -1.6984
  151MOL0     H20344   4.758   0.742   1.299 -2.5305 -1.4877 -1.6128
  151MOL0     H20345   4.976   0.789   1.232  1.1453  0.0780  0.0186
  151MOL0     H20346   5.209   0.789   1.206  1.7002 -1.6278 -2.1423
  151MOL0     H20347   5.645   0.619   1.372  0.5443 -1.4620  1.7039
  151MOL0     H20348   5.881   0.589   1.366 -2.4315  0.6399  1.6530
  151MOL0     H20349   6.105   0.588   1.158 -1.7275  1.9059  2.8943
  151MOL0     H20350   6.107   0.543   1.329  0.6617  1.8532 -0.1235
  151MOL0     H20351   6.231   0.362   1.127  2.3725  1.4585 -0.7067
  151MOL0     H20352   6.321   0.481   1.229 -0.2771  1.3312  0.5274
  151MOL0     H20353   6.154   0.247   1.328  1.4561 -0.8400  0.0817
  151MOL0     H20354   6.326   0.247   1.303 -0.0677  1.5124 -0.8459
  151MOL0     H20355   6.236   0.294   1.557  0.1376  2.3447  1.1030
  151MOL0     H20356   6.192   0.449   1.497  1.7511  1.8784 -0.0780
  151MOL0     H20357   6.399   0.464   1.616 -0.2083  2.6689 -1.0682
  151MOL0     H20358   6.437   0.483   1.437 -1.0329 -1.0233 -1.1617
  151MOL0     H20359   6.456   0.222   1.597 -0.2090 -0.6784 -1.5621
  151MOL0     H20360   6.514   0.233   1.447 -1.9486 -1.9614  0.4011
  151MOL0     H20361   6.644   0.418   1.662 -1.6621 -0.0759 -0.9275
  151MOL0     H20362   6.702   0.366   1.501  3.1989 -0.6114  1.6830
  151MOL0     H20363   6.709   0.130   1.604  0.2461  0.4207 -0.3154
  151MOL0     H20364   6.838   0.244   1.632  0.5361  0.3882  1.7482
  151MOL0     H20365   5.830   0.269   1.085 -1.4005 -0.2569 -1.0823
  151MOL0     H20366   5.571   0.316   1.082 -0.6491  2.0777 -1.6364
  151MOL0     H20367   5.246   0.375   1.277 -1.2731 -2.1124 -2.7760
  151MOL0     H20368   4.990   0.363   1.318 -1.0241 -0.1499 -0.5124
  151MOL0     H20369   3.004   0.317   1.017  1.0515 -0.9225  0.1030
  151MOL0     H20370   2.757   0.280   1.108  0.5622 -0.5883 -0.7017
  151MOL0     H20371   2.441   0.415   1.321  1.9107 -1.1668 -0.5654
  151MOL0     H20372   2.202   0.379   1.369  0.2774  0.5944 -0.4230
  151MOL0     H20373   2.020   0.191   1.328 -0.7325 -0.7272 -0.7758
  151MOL0     H20374   1.980   0.326   1.443 -2.2141 -0.5268 -3.9777
  151MOL0     H20375   1.884   0.042   1.450 -1.2046 -0.1911  0.2371
  151MOL0     H20376   1.787   0.169   1.410 -1.9753 -2.1663  2.5431
  151MOL0     H20377   1.892   0.243   1.676 -0.6031  1.2654 -1.6427
  151MOL0     H20378   1.822   0.075   1.680 -2.5541  0.6224  1.5904
  151MOL0     H20379   1.676   0.245   1.739  0.2119 -0.9604 -1.0466
  151MOL0     H20380   1.693   0.316   1.569 -0.1840  0.3230 -0.6676
  151MOL0     H20381   1.424  -0.003   1.510  2.0925 -1.5626 -0.0782
  151MOL0     H20382   2.286   0.054   1.616  2.3777 -1.0283  0.1784
  151MOL0     H20383   2.640   0.100   1.649  1.0465 -0.6155  0.3151
  151MOL0     H20384   2.501  -0.006   1.667  1.6463  0.5790  2.6712
  151MOL0     H20385   2.587  -0.030   1.530  0.7323  2.1470 -0.9559
  152MOL0     O20386   1.721   2.987   4.739 -0.0628 -0.8831  0.0488
  152MOL0     C20387   1.692   3.107   4.771  0.3962  0.5694 -0.1959
  152MOL0     O20388   1.725   3.173   4.890 -0.7245  0.8492 -0.1558
  152MOL0     C20389   1.804   3.095   4.982 -1.2364 -0.1056 -0.2556
  152MOL0     C20390   1.765   2.962   5.021 -0.7770  0.2399  0.4616
  152MOL0     C20391   1.850   2.901   5.112 -0.5027 -0.7102  0.3042
  152MOL0     C20392   1.966   2.959   5.175 -0.0761 -0.3290 -1.3289
  152MOL0     O20393   2.042   2.890   5.267 -0.0700 -0.1400 -0.0822
  152MOL0     C20394   2.111   2.964   5.369 -0.0456 -0.1215  0.4514
  152MOL0     C20395   2.257   2.948   5.338  0.3468 -0.1092  0.5608
  152MOL0     C20396   2.329   3.003   5.467  0.2882 -0.1692 -0.4651
  152MOL0     C20397   2.374   2.899   5.569  0.0320 -0.5946 -0.1485
  152MOL0     C20398   2.393   2.964   5.714 -0.3954 -0.6974  0.9924
  152MOL0     C20399   2.438   2.864   5.823  0.3054  0.2149  0.9929
  152MOL0     C20400   2.452   2.946   5.956  0.2984  0.1507 -0.5673
  152MOL0     C20401   2.437   2.850   6.082 -1.1742 -0.5132  0.4832
  152MOL0     N20402   2.549   2.755   6.076 -0.1234  0.3054  0.2318
  152MOL0     C20403   2.677   2.766   6.131  0.1956 -0.7357  0.4663
  152MOL0     C20404   2.733   2.642   6.130  0.9575 -0.3176 -0.3214
  152MOL0     C20405   2.877   2.604   6.186  0.9324 -0.4035  0.3418
  152MOL0     C20406   2.876   2.585   6.327  0.6386  1.2000  0.4351
  152MOL0     C20407   2.991   2.652   6.399  0.2753  0.0319 -0.7002
  152MOL0     C20408   3.118   2.562   6.390  0.2505  0.1184 -0.5009
  152MOL0     O20409   3.235   2.616   6.460  0.0911 -0.5353  0.3572
  152MOL0     C20410   3.345   2.531   6.477  1.2727  1.2818 -0.2256
  152MOL0     C20411   3.428   2.573   6.574 -0.2079  0.6261  0.3765
  152MOL0     C20412   3.538   2.498   6.606  0.3373  0.1632 -0.5957
  152MOL0     C20413   3.557   2.370   6.554 -0.1960 -0.6535  0.0910
  152MOL0     C20414   3.678   2.298   6.604 -0.3126 -0.6565 -1.5759
  152MOL0     O20415   3.741   2.356   6.707 -0.1418  0.3582  0.3542
  152MOL0     C20416   3.855   2.291   6.760  0.8533 -0.2628 -0.3327
  152MOL0     C20417   3.987   2.341   6.751  0.3559  0.1877  0.0502
  152MOL0     C20418   4.094   2.268   6.791  0.0932  0.5802  0.2603
  152MOL0     C20419   4.074   2.140   6.843 -0.8950  0.3073  0.5575
  152MOL0     O20420   4.194   2.072   6.876  0.2196 -0.6118  0.4371
  152MOL0     C20421   4.188   1.936   6.925  0.7551 -0.6943  0.9283
  152MOL0     C20422   4.329   1.881   6.947  0.7736 -0.4585  0.2341
  152MOL0     C20423   4.429   1.981   7.016  0.0270 -0.3342 -0.0786
  152MOL0     C20424   4.574   1.920   7.012  1.0142 -0.0345  0.8764
  152MOL0     C20425   4.677   2.011   7.079 -0.6647  0.4822  0.3167
  152MOL0     C20426   4.819   1.941   7.083  0.0440  0.1629 -0.1994
  152MOL0     C20427   4.929   2.039   7.115 -0.0063 -0.3820  1.5217
  152MOL0     C20428   4.965   2.127   6.991 -0.2998 -0.5466  0.4026
  152MOL0    Cl20429   5.055   2.036   6.880  0.3000  0.3368 -0.2677
  152MOL0     C20430   3.946   2.092   6.865 -0.3921  0.1879  0.0544
  152MOL0     C20431   3.836   2.164   6.819  0.3161 -0.9825 -0.5451
  152MOL0     O20432   3.706   2.191   6.557  0.4587  0.0620 -0.4707
  152MOL0     C20433   3.468   2.318   6.462 -0.0895  0.0812 -0.5383
  152MOL0     C20434   3.362   2.399   6.420 -0.4299 -0.0487 -0.1182
  152MOL0     N20435   2.645   2.551   6.074  0.5838 -0.1266 -1.1164
  152MOL0     N20436   2.532   2.622   6.045  0.2864  0.0674  0.0789
  152MOL0     C20437   2.001   3.085   5.137  0.2912 -0.2985  0.3647
  152MOL0     C20438   1.923   3.150   5.040 -0.9385 -0.8989  0.2114
  152MOL0     C20439   1.607   3.184   4.679  1.3159  0.2595 -0.0171
  152MOL0     C20440   1.598   3.326   4.690 -1.1103 -0.0721  0.2211
  152MOL0     C20441   1.524   3.399   4.597  0.5194 -0.3639 -0.5183
  152MOL0     C20442   1.435   3.338   4.516 -0.4939 -0.4761  0.3665
  152MOL0     O20443   1.349   3.404   4.436  0.1476 -0.0458 -0.5495
  152MOL0     C20444   1.278   3.509   4.501 -0.0731 -0.5065  0.3663
  152MOL0     C20445   1.149   3.522   4.418  0.0245  0.0019 -0.1181
  152MOL0     C20446   1.104   3.669   4.421 -0.1602  0.3180 -0.0430
  152MOL0     C20447   1.074   3.720   4.558 -0.0966 -0.7357 -0.0256
  152MOL0     C20448   0.946   3.661   4.614 -0.1137  0.5089  0.3391
  152MOL0     C20449   0.833   3.631   4.662  0.2290 -0.6683 -0.0962
  152MOL0     C20450   1.426   3.197   4.511  0.3606  0.0393  0.3166
  152MOL0     C20451   1.506   3.114   4.593  0.5691 -1.1675  0.0778
  152MOL0     C20452   1.477   2.972   4.582 -0.0205 -0.6190  0.0476
  152MOL0     H20453   1.675   2.913   4.987  0.5841 -0.5607 -2.2717
  152MOL0     H20454   1.809   2.804   5.139 -3.9115  0.1701 -1.1500
  152MOL0     H20455   2.082   3.069   5.381  2.5923  0.5950  1.3135
  152MOL0     H20456   2.086   2.932   5.471 -0.9549  3.9439  1.6910
  152MOL0     H20457   2.282   3.015   5.255  0.4949 -0.9230 -0.0711
  152MOL0     H20458   2.286   2.848   5.303 -0.5731  1.1658 -4.7633
  152MOL0     H20459   2.275   3.076   5.529  0.5529  0.0447 -0.4814
  152MOL0     H20460   2.422   3.052   5.435  0.2611 -0.3404 -0.8060
  152MOL0     H20461   2.284   2.837   5.573  1.1584 -2.2677  3.7230
  152MOL0     H20462   2.453   2.835   5.529 -1.7063 -1.3073 -2.6523
  152MOL0     H20463   2.462   3.049   5.707 -0.1715 -0.8130  1.7788
  152MOL0     H20464   2.300   3.014   5.744  0.3572 -0.5457  3.2635
  152MOL0     H20465   2.370   2.779   5.829 -0.3488  0.1257 -3.9689
  152MOL0     H20466   2.539   2.830   5.797 -0.0789  1.0018 -1.8784
  152MOL0     H20467   2.381   3.028   5.968  0.0137 -0.0008 -1.1694
  152MOL0     H20468   2.549   2.995   5.952  1.4187 -1.7761  1.0742
  152MOL0     H20469   2.436   2.912   6.172  0.3163  0.8284 -0.3643
  152MOL0     H20470   2.343   2.796   6.070 -1.5436  0.1712  0.2170
  152MOL0     H20471   2.718   2.854   6.179 -1.1372  0.0966  0.1338
  152MOL0     H20472   2.908   2.511   6.137  1.2114  0.1946 -0.6356
  152MOL0     H20473   2.952   2.679   6.160 -1.3796  1.7339 -0.5775
  152MOL0     H20474   2.780   2.604   6.377  0.2443 -1.1002  0.6445
  152MOL0     H20475   2.883   2.477   6.341  1.4337  1.0167 -1.1238
  152MOL0     H20476   2.970   2.669   6.505  2.6213 -0.8315 -0.0286
  152MOL0     H20477   3.000   2.753   6.356 -0.0887  0.0284 -0.7897
  152MOL0     H20478   3.139   2.543   6.284 -3.5094 -0.3374 -1.3105
  152MOL0     H20479   3.094   2.472   6.448  0.9266  0.8575  0.9726
  152MOL0     H20480   3.403   2.671   6.615 -0.8800  1.1460 -1.1931
  152MOL0     H20481   3.608   2.551   6.671 -2.0995 -0.8496  3.1735
  152MOL0     H20482   3.997   2.441   6.710 -1.8299  0.4917  0.1724
  152MOL0     H20483   4.194   2.307   6.784  0.3001  0.1808  0.8839
  152MOL0     H20484   4.133   1.941   7.019 -2.5539  1.1555 -0.9401
  152MOL0     H20485   4.128   1.870   6.862  3.2909 -1.5388 -0.7710
  152MOL0     H20486   4.313   1.794   7.011  2.1468  0.0992  1.3910
  152MOL0     H20487   4.364   1.848   6.849 -1.3407 -3.1956  0.2754
  152MOL0     H20488   4.437   2.072   6.957  1.6073 -0.0558  0.5158
  152MOL0     H20489   4.402   2.015   7.116  0.5671 -1.1776  0.3643
  152MOL0     H20490   4.610   1.905   6.910 -0.8803 -0.6105  0.2382
  152MOL0     H20491   4.577   1.827   7.069  2.0829  0.4477  1.6433
  152MOL0     H20492   4.648   2.027   7.184  0.4454 -0.1497  0.7327
  152MOL0     H20493   4.683   2.112   7.038 -0.2383  1.6730  3.0477
  152MOL0     H20494   4.820   1.863   7.160  0.3201 -1.7245 -2.0318
  152MOL0     H20495   4.845   1.884   6.993  0.6216 -0.3873  0.3060
  152MOL0     H20496   5.011   1.973   7.145 -1.0170 -3.3368 -1.5291
  152MOL0     H20497   4.885   2.103   7.192 -1.1441  0.2774  0.3647
  152MOL0     H20498   4.873   2.164   6.944 -1.3885  0.1367  2.8983
  152MOL0     H20499   5.029   2.205   7.032 -1.7110  0.6903  0.3352
  152MOL0     H20500   3.934   1.992   6.906 -1.2323  1.5199  3.4420
  152MOL0     H20501   3.736   2.124   6.831 -1.1506  2.0718 -1.5025
  152MOL0     H20502   3.484   2.224   6.410  0.0911 -0.6133  0.7279
  152MOL0     H20503   3.293   2.354   6.350  2.0633 -3.1715 -0.8524
  152MOL0     H20504   2.091   3.128   5.180  1.1454 -1.4935 -0.1748
  152MOL0     H20505   1.952   3.254   5.029  1.9466 -1.3717  2.3734
  152MOL0     H20506   1.655   3.384   4.762 -0.7826 -0.3266  0.1686
  152MOL0     H20507   1.525   3.507   4.606 -0.4716 -0.5006  2.9667
  152MOL0     H20508   1.341   3.598   4.507  1.2441 -1.3200 -0.7898
  152MOL0     H20509   1.255   3.493   4.607 -2.0017 -1.1530 -0.1148
  152MOL0     H20510   1.066   3.464   4.458 -0.6578  0.8519 -0.2656
  152MOL0     H20511   1.162   3.487   4.315 -0.9677  0.2778 -0.3496
  152MOL0     H20512   1.014   3.680   4.359 -0.9984 -2.5919  0.5132
  152MOL0     H20513   1.186   3.733   4.386  1.3605 -0.4075  2.0150
  152MOL0     H20514   1.146   3.698   4.637 -0.5573 -1.3213  0.2447
  152MOL0     H20515   1.066   3.828   4.543  3.4602 -0.7228 -3.4808
  152MOL0     H20516   0.736   3.603   4.698 -0.0968 -0.1479 -0.5481
  152MOL0     H20517   1.352   3.157   4.443 -0.0731  0.7817  0.3406
  152MOL0     H20518   1.440   2.925   4.674 -1.4825 -0.0542 -0.2265
  152MOL0     H20519   1.395   2.961   4.511 -0.6219 -0.7118  0.7410
  152MOL0     H20520   1.561   2.909   4.551 -1.4861 -3.3528  1.2386
  153MOL0     O20521   8.530   0.353   0.529  0.1482  0.0011  0.6973
  153MOL0     C20522   8.451   0.304   0.450  0.4919  0.0182 -0.5282
  153MOL0     O20523   8.484   0.204   0.360 -0.2241  0.0480  0.3208
  153MOL0     C20524   8.590   0.112   0.389 -0.1533  0.4450  0.6962
  153MOL0     C20525   8.672   0.070   0.285  0.0770  0.1436 -0.0118
  153MOL0     C20526   8.778  -0.027   0.305  0.0229 -1.2043  0.2185
  153MOL0     C20527   8.800  -0.086   0.435  0.4498 -0.0988  0.0707
  153MOL0     O20528   8.889  -0.180   0.447 -0.3979  0.7065  0.2251
  153MOL0     C20529   8.867  -0.274   0.550 -0.1380  0.2203 -0.4177
  153MOL0     C20530   8.938  -0.392   0.499  0.4888  0.7792  0.0307
  153MOL0     C20531   8.861  -0.477   0.395  0.4644 -0.1845  1.0153
  153MOL0     C20532   8.722  -0.518   0.449 -0.1132 -0.8007 -0.2452
  153MOL0     C20533   8.662  -0.618   0.356 -0.1402 -0.2286 -0.4133
  153MOL0     C20534   8.514  -0.645   0.391 -0.6645 -0.5522  0.5801
  153MOL0     C20535   8.419  -0.661   0.265  0.5804  0.5433 -0.5458
  153MOL0     C20536   8.414  -0.806   0.211 -0.6659 -0.3191  0.0680
  153MOL0     N20537   8.543  -0.864   0.176  0.4145  0.2344 -0.0392
  153MOL0     C20538   8.633  -0.818   0.085  0.9218  0.4488  0.0329
  153MOL0     C20539   8.749  -0.883   0.097 -0.2045 -0.0037 -0.0634
  153MOL0     C20540   8.876  -0.854   0.027  0.0717  0.6068 -1.4217
  153MOL0     C20541   8.954  -0.746   0.104 -1.1199 -0.5974  0.6391
  153MOL0     C20542   9.092  -0.727   0.049  0.4280 -0.2555 -0.4841
  153MOL0     C20543   9.096  -0.652  -0.089 -0.0431  0.5143  0.4911
  153MOL0     O20544   9.230  -0.677  -0.137 -0.0382 -0.2811  0.4511
  153MOL0     C20545   9.292  -0.587  -0.224 -0.1120  0.2846  0.5391
  153MOL0     C20546   9.223  -0.482  -0.288  0.3803 -0.9527  0.3284
  153MOL0     C20547   9.293  -0.381  -0.361 -1.0125  0.3192  0.2598
  153MOL0     C20548   9.425  -0.404  -0.402 -0.6532 -1.0912 -0.5190
  153MOL0     C20549   9.499  -0.296  -0.483  0.4697 -0.9601  0.1269
  153MOL0     O20550   9.416  -0.199  -0.528  0.7174 -0.1738 -0.5065
  153MOL0     C20551   9.477  -0.107  -0.613  0.0555 -0.3893  0.7872
  153MOL0     C20552   9.452   0.022  -0.595 -0.8234  0.7896  0.2871
  153MOL0     C20553   9.492   0.115  -0.692 -0.1216  0.6170 -0.1264
  153MOL0     C20554   9.557   0.083  -0.814 -0.4452  0.9052 -0.9369
  153MOL0     O20555   9.604   0.175  -0.903  0.6174 -0.0079  0.3025
  153MOL0     C20556   9.619   0.119  -1.033  0.8419  0.3406 -0.1139
  153MOL0     C20557   9.636   0.230  -1.138 -0.3590 -0.0667 -0.8329
  153MOL0     C20558   9.645   0.182  -1.278 -0.2729  0.8316  0.3689
  153MOL0     C20559   9.763   0.254  -1.351 -0.0109  0.3238 -0.1177
  153MOL0     C20560   9.756   0.241  -1.500 -0.1223  0.0658  0.9387
  153MOL0     C20561   9.880   0.293  -1.563 -0.0857 -0.3623 -0.2065
  153MOL0     C20562   9.877   0.284  -1.711 -0.0070  0.3611  0.5707
  153MOL0     C20563   9.970   0.374  -1.783  0.3467 -0.0817  0.3627
  153MOL0    Cl20564   9.936   0.540  -1.726  0.4023  0.3379  0.1704
  153MOL0     C20565   9.572  -0.056  -0.828 -1.1052 -0.5543 -0.8978
  153MOL0     C20566   9.540  -0.149  -0.730  0.8733  0.3685  0.2280
  153MOL0     O20567   9.616  -0.293  -0.473  0.4896  0.1130  0.0862
  153MOL0     C20568   9.496  -0.515  -0.342  0.3592 -0.4389 -0.9312
  153MOL0     C20569   9.430  -0.598  -0.254 -0.1362  0.7739  0.0796
  153MOL0     N20570   8.728  -0.986   0.192  0.3876  0.1369  0.1018
  153MOL0     N20571   8.606  -0.972   0.236  0.3449 -0.9019  0.0372
  153MOL0     C20572   8.706  -0.038   0.538  0.1961 -0.0013 -0.1690
  153MOL0     C20573   8.608   0.059   0.516 -0.5986  0.4879  0.0186
  153MOL0     C20574   8.315   0.367   0.434 -0.0455  0.6807  0.4523
  153MOL0     C20575   8.263   0.457   0.537 -0.8294  0.1083 -0.2291
  153MOL0     C20576   8.143   0.530   0.515 -0.7643  0.3752  0.0028
  153MOL0     C20577   8.063   0.506   0.402 -1.1509 -0.3480  0.3724
  153MOL0     O20578   7.947   0.577   0.377 -0.0854  0.4320  0.2025
  153MOL0     C20579   7.883   0.655   0.479  0.2820 -0.2582 -0.2851
  153MOL0     C20580   7.935   0.795   0.479  1.1341 -1.2697 -0.3516
  153MOL0     C20581   7.871   0.877   0.599  0.4078  0.6538 -0.6585
  153MOL0     C20582   7.727   0.925   0.552 -0.4915 -0.1358  0.4510
  153MOL0     C20583   7.675   0.995   0.665 -0.9465 -0.0135 -0.2535
  153MOL0     C20584   7.630   1.047   0.764  0.1783 -0.2687 -0.7662
  153MOL0     C20585   8.108   0.411   0.304  0.1784  0.2276 -0.6026
  153MOL0     C20586   8.233   0.345   0.319  0.9088  0.2945 -0.0904
  153MOL0     C20587   8.262   0.255   0.202 -0.6451  0.0166 -1.3240
  153MOL0     H20588   8.642   0.111   0.189 -2.3752 -1.0188  0.1813
  153MOL0     H20589   8.850  -0.051   0.227  0.7514 -0.9560  0.7961
  153MOL0     H20590   8.928  -0.240   0.633  2.5115  2.1465 -2.9578
  153MOL0     H20591   8.760  -0.285   0.574 -0.2343 -0.5386 -1.1280
  153MOL0     H20592   8.955  -0.445   0.594  1.2350  2.7180  1.0488
  153MOL0     H20593   9.039  -0.373   0.460 -0.8415  1.8758 -3.1588
  153MOL0     H20594   8.925  -0.566   0.386 -2.1510 -2.2858  1.9914
  153MOL0     H20595   8.849  -0.441   0.293 -4.0895 -1.4590  0.9061
  153MOL0     H20596   8.724  -0.561   0.549 -2.5761 -0.1019  0.1637
  153MOL0     H20597   8.650  -0.436   0.456  0.1121 -0.7577  2.6009
  153MOL0     H20598   8.665  -0.584   0.251 -0.0039  1.0749 -0.0058
  153MOL0     H20599   8.715  -0.714   0.353  0.4409  0.0990 -1.2174
  153MOL0     H20600   8.508  -0.729   0.461  4.1276 -1.8977 -0.2879
  153MOL0     H20601   8.479  -0.557   0.446 -0.2178  0.6996 -1.0629
  153MOL0     H20602   8.449  -0.594   0.184  1.1275  2.4129  1.1344
  153MOL0     H20603   8.314  -0.650   0.294  0.5387 -2.2868  0.7531
  153MOL0     H20604   8.367  -0.866   0.289 -0.3334 -2.8268 -1.5494
  153MOL0     H20605   8.350  -0.805   0.122 -0.3828 -2.1966 -0.2035
  153MOL0     H20606   8.635  -0.722   0.035 -1.1792  1.3761  1.5881
  153MOL0     H20607   8.943  -0.940   0.022  1.0787  1.2458  0.2223
  153MOL0     H20608   8.848  -0.820  -0.073 -0.2055 -3.2301 -2.7962
  153MOL0     H20609   8.910  -0.646   0.093  0.1405 -0.2441 -2.1532
  153MOL0     H20610   8.962  -0.775   0.209 -0.8076  0.1298  0.8176
  153MOL0     H20611   9.138  -0.825   0.034  1.4046 -0.0846  1.1879
  153MOL0     H20612   9.152  -0.667   0.118 -2.1412  1.3782  0.5020
  153MOL0     H20613   9.076  -0.545  -0.076 -0.9414  0.3981  0.1503
  153MOL0     H20614   9.026  -0.693  -0.162 -1.4127 -0.5193  2.2849
  153MOL0     H20615   9.115  -0.473  -0.291  0.4791  0.0897 -0.9527
  153MOL0     H20616   9.225  -0.304  -0.395 -2.3928 -0.9225  0.1227
  153MOL0     H20617   9.389   0.057  -0.514 -2.0790  1.9455 -1.1296
  153MOL0     H20618   9.473   0.212  -0.647 -1.5830 -1.6247  4.8339
  153MOL0     H20619   9.708   0.062  -1.061  1.1018  1.3617 -1.4799
  153MOL0     H20620   9.529   0.064  -1.058  0.1932 -0.0056  2.7114
  153MOL0     H20621   9.542   0.286  -1.135 -0.4736 -0.1758 -2.0331
  153MOL0     H20622   9.707   0.307  -1.105 -0.3948 -0.2910 -0.2224
  153MOL0     H20623   9.664   0.074  -1.284 -0.9208  0.7068  0.4856
  153MOL0     H20624   9.555   0.201  -1.337 -0.0992 -2.0245 -0.9837
  153MOL0     H20625   9.859   0.217  -1.313  1.4223  3.1489 -0.6911
  153MOL0     H20626   9.771   0.361  -1.331  2.5015  1.0891 -4.2421
  153MOL0     H20627   9.669   0.285  -1.549  0.1639 -0.3209  0.0649
  153MOL0     H20628   9.752   0.135  -1.527 -1.7937  1.2202 -4.7720
  153MOL0     H20629   9.897   0.391  -1.518  2.9484 -0.4376 -0.9237
  153MOL0     H20630   9.965   0.234  -1.526  0.2888 -0.1271 -0.6822
  153MOL0     H20631   9.778   0.313  -1.748  0.4766  0.3181 -0.8190
  153MOL0     H20632   9.893   0.181  -1.744  2.7379  0.7170  0.5995
  153MOL0     H20633  10.072   0.340  -1.764 -0.0184 -1.3311  0.1699
  153MOL0     H20634   9.941   0.372  -1.888 -1.7192  0.5300  0.8562
  153MOL0     H20635   9.630  -0.096  -0.911  0.2211  1.1169 -0.8452
  153MOL0     H20636   9.555  -0.252  -0.758 -1.0396  0.6245 -2.0178
  153MOL0     H20637   9.600  -0.535  -0.367  0.0899 -0.8370 -1.7675
  153MOL0     H20638   9.474  -0.689  -0.214 -2.6019 -1.3455 -1.6846
  153MOL0     H20639   8.707  -0.080   0.638 -1.4855 -0.1640 -0.1881
  153MOL0     H20640   8.543   0.089   0.598  1.1788  0.2464  1.5769
  153MOL0     H20641   8.321   0.473   0.627  0.1892 -0.7603 -0.7091
  153MOL0     H20642   8.120   0.610   0.584 -0.2004  0.0028  0.6361
  153MOL0     H20643   7.898   0.614   0.579  0.9545  1.9099  0.5458
  153MOL0     H20644   7.775   0.653   0.461  0.4354 -2.2037 -1.2643
  153MOL0     H20645   7.919   0.860   0.393  0.8395 -1.0849 -0.1624
  153MOL0     H20646   8.043   0.791   0.494  1.0340  1.2957  2.0985
  153MOL0     H20647   7.937   0.962   0.619  0.4439  0.6522 -0.7712
  153MOL0     H20648   7.864   0.815   0.688  0.0300  1.7819  0.1216
  153MOL0     H20649   7.729   0.987   0.462  1.1638 -1.5223 -0.5262
  153MOL0     H20650   7.663   0.840   0.525 -0.1098  0.8153 -4.2707
  153MOL0     H20651   7.591   1.088   0.855  2.4244  3.1105 -1.1420
  153MOL0     H20652   8.050   0.403   0.212 -0.8028 -1.4370  0.1008
  153MOL0     H20653   8.180   0.242   0.131 -1.3786 -0.2696 -0.4420
  153MOL0     H20654   8.355   0.286   0.153  1.7239  0.9831  3.2138
  153MOL0     H20655   8.277   0.157   0.249  3.1891  1.7061  1.5511
  154MOL0     O20656   8.281   2.529   5.343  0.2677  0.5943 -0.2467
  154MOL0     C20657   8.202   2.436   5.336 -0.3483  0.0682  0.5079
  154MOL0     O20658   8.237   2.304   5.329 -0.0840 -0.2273  0.7290
  154MOL0     C20659   8.373   2.275   5.324 -0.1353 -0.6461 -0.2916
  154MOL0     C20660   8.452   2.332   5.219  0.7796 -0.2448 -0.7621
  154MOL0     C20661   8.589   2.290   5.215  0.2114 -0.0823 -0.7978
  154MOL0     C20662   8.639   2.209   5.312 -0.6508 -0.6194  0.5484
  154MOL0     O20663   8.774   2.200   5.313 -0.4521 -0.3186 -0.5071
  154MOL0     C20664   8.842   2.185   5.437  0.4542  0.1302  0.9283
  154MOL0     C20665   8.981   2.258   5.415  0.5590  0.5220 -0.2377
  154MOL0     C20666   9.054   2.220   5.287 -0.1173 -0.4556  0.6072
  154MOL0     C20667   9.195   2.280   5.282 -0.6025 -0.2791 -0.1313
  154MOL0     C20668   9.183   2.436   5.270 -0.0950  0.2857 -0.3592
  154MOL0     C20669   9.302   2.480   5.181  0.9396  0.0650 -0.6485
  154MOL0     C20670   9.294   2.615   5.103  0.1514 -0.6692 -0.7251
  154MOL0     C20671   9.249   2.742   5.193 -0.0598 -1.0652 -0.0242
  154MOL0     N20672   9.336   2.762   5.314 -0.5712 -0.0436  0.4745
  154MOL0     C20673   9.472   2.768   5.314  0.1488 -0.8029  0.7670
  154MOL0     C20674   9.511   2.791   5.439  0.3629 -0.1233  0.0460
  154MOL0     C20675   9.651   2.811   5.496 -0.7319 -0.2140 -0.1333
  154MOL0     C20676   9.701   2.945   5.461 -0.7640 -0.2371  0.3459
  154MOL0     C20677   9.838   2.977   5.521 -0.5345  0.3644  0.7690
  154MOL0     C20678   9.888   3.100   5.450  0.1912 -0.8453  0.1767
  154MOL0     O20679  10.025   3.126   5.502  0.1069 -0.4913 -0.6927
  154MOL0     C20680  10.135   3.064   5.445  0.0275  0.2946  0.1115
  154MOL0     C20681  10.150   3.035   5.305 -0.4759  0.5432 -0.5696
  154MOL0     C20682  10.264   2.974   5.246  0.2992  0.1526  1.0511
  154MOL0     C20683  10.374   2.950   5.327 -0.6942  0.3842 -0.2080
  154MOL0     C20684  10.496   2.885   5.266 -0.1462 -0.0132  0.3678
  154MOL0     O20685  10.503   2.845   5.139 -0.4096 -0.9352 -0.0315
  154MOL0     C20686  10.626   2.815   5.093  0.5185  0.8388  0.4802
  154MOL0     C20687  10.682   2.906   5.006 -0.2450 -0.1918  0.3341
  154MOL0     C20688  10.817   2.892   4.969  0.7661  0.7554  0.0456
  154MOL0     C20689  10.893   2.787   5.019 -0.0882 -0.8858 -0.0170
  154MOL0     O20690  11.018   2.760   4.972  0.5398 -0.2129 -0.3340
  154MOL0     C20691  11.108   2.868   4.943 -0.0202  0.0648 -0.3225
  154MOL0     C20692  11.247   2.810   4.909  0.0421 -0.0938 -0.7279
  154MOL0     C20693  11.339   2.924   4.864 -0.6139 -0.1129 -1.2898
  154MOL0     C20694  11.481   2.878   4.828 -0.8301  0.7859  0.6942
  154MOL0     C20695  11.561   3.012   4.800  0.1273 -0.1531 -0.2329
  154MOL0     C20696  11.690   2.983   4.726 -1.6433  0.5197 -1.1732
  154MOL0     C20697  11.781   2.879   4.794 -0.2789  0.3053 -0.2809
  154MOL0     C20698  11.911   2.872   4.717 -0.3220  0.1901  0.8932
  154MOL0    Cl20699  11.987   2.714   4.765  0.2519 -0.0517  0.3377
  154MOL0     C20700  10.834   2.694   5.098  0.1339 -0.3552 -0.3502
  154MOL0     C20701  10.697   2.701   5.133  0.7169 -0.1895 -0.6228
  154MOL0     O20702  10.587   2.876   5.348 -0.4249  0.3751  0.1693
  154MOL0     C20703  10.369   2.983   5.465  0.0598  1.3906 -0.0264
  154MOL0     C20704  10.251   3.043   5.516  0.0041  0.5089  0.0084
  154MOL0     N20705   9.402   2.784   5.522  0.0717 -0.1875  0.1882
  154MOL0     N20706   9.296   2.770   5.439  0.6533  0.1512 -0.5543
  154MOL0     C20707   8.555   2.130   5.388  0.5233 -0.8816  0.1920
  154MOL0     C20708   8.420   2.163   5.390  0.3903  0.7518  0.1093
  154MOL0     C20709   8.057   2.463   5.344  0.4940 -1.0818 -0.1516
  154MOL0     C20710   8.011   2.589   5.386 -0.5446  0.8151  0.2939
  154MOL0     C20711   7.876   2.620   5.411 -0.1418 -0.3822 -0.3022
  154MOL0     C20712   7.781   2.519   5.405 -0.6039  0.5652  0.7607
  154MOL0     O20713   7.642   2.527   5.413 -0.1233 -0.0952  0.6029
  154MOL0     C20714   7.588   2.653   5.460 -0.9199  0.8015  0.0517
  154MOL0     C20715   7.436   2.653   5.493  0.1577  0.4723  1.3622
  154MOL0     C20716   7.340   2.649   5.372 -0.6523  0.4281 -0.8715
  154MOL0     C20717   7.194   2.653   5.414  0.2106 -0.4467  0.0588
  154MOL0     C20718   7.147   2.529   5.485 -0.1496 -0.1139  0.0427
  154MOL0     C20719   7.101   2.436   5.554  0.2392  0.3910  0.2254
  154MOL0     C20720   7.825   2.395   5.365  0.6476  0.4265 -0.6257
  154MOL0     C20721   7.954   2.361   5.332  0.0368 -0.5081  0.2886
  154MOL0     C20722   7.975   2.225   5.279  0.9228  0.3823  0.0513
  154MOL0     H20723   8.408   2.390   5.138 -1.1003 -0.6423 -0.0660
  154MOL0     H20724   8.647   2.334   5.134 -0.1414  2.9689  0.4744
  154MOL0     H20725   8.800   2.225   5.529  1.7261 -1.5182  2.2863
  154MOL0     H20726   8.856   2.077   5.454 -0.7206  0.2706  3.0408
  154MOL0     H20727   9.045   2.243   5.503  2.0081 -0.0656 -1.3561
  154MOL0     H20728   8.958   2.365   5.414 -1.2982  0.1684  0.3691
  154MOL0     H20729   8.995   2.244   5.198  1.3619 -0.9560 -0.5555
  154MOL0     H20730   9.074   2.113   5.287  2.4612 -0.0458 -0.2459
  154MOL0     H20731   9.241   2.262   5.380  3.3558 -2.1071 -2.0706
  154MOL0     H20732   9.264   2.229   5.214  1.8757  1.5887  0.7934
  154MOL0     H20733   9.087   2.454   5.221 -1.6714 -0.3650  2.3000
  154MOL0     H20734   9.185   2.489   5.366 -3.2162 -2.1009  1.2167
  154MOL0     H20735   9.393   2.478   5.242  0.7146 -1.7565 -0.3285
  154MOL0     H20736   9.318   2.403   5.105  0.4369 -0.8583  0.1578
  154MOL0     H20737   9.225   2.603   5.018 -1.8938 -1.1117  0.9085
  154MOL0     H20738   9.392   2.645   5.067 -0.4908  1.7514 -0.6164
  154MOL0     H20739   9.256   2.834   5.135  0.4875 -0.7795  0.4798
  154MOL0     H20740   9.144   2.737   5.224 -0.2743  2.2136  0.1029
  154MOL0     H20741   9.539   2.763   5.229 -1.6710  1.1751 -0.9137
  154MOL0     H20742   9.669   2.801   5.603  0.5211 -2.3485 -0.4798
  154MOL0     H20743   9.708   2.734   5.442 -0.2357 -0.6545  0.9997
  154MOL0     H20744   9.693   2.954   5.352 -0.5168 -0.5016  0.3039
  154MOL0     H20745   9.634   3.017   5.509  0.5402  1.5414 -0.4388
  154MOL0     H20746   9.905   2.892   5.503 -1.0562 -0.0439  0.7522
  154MOL0     H20747   9.840   2.989   5.630 -0.4535  0.9879  0.7030
  154MOL0     H20748   9.832   3.189   5.480  0.2675  0.4901 -3.1611
  154MOL0     H20749   9.881   3.092   5.341 -1.5149  0.5783  0.1254
  154MOL0     H20750  10.076   3.067   5.232 -1.2690  0.9771  0.3933
  154MOL0     H20751  10.261   2.939   5.144 -0.9033  1.7622  0.5012
  154MOL0     H20752  10.622   2.985   4.962 -2.3986 -1.4962  0.8084
  154MOL0     H20753  10.862   2.968   4.905  0.1863  1.6931  0.7276
  154MOL0     H20754  11.064   2.917   4.856 -2.3684  1.1097  1.3251
  154MOL0     H20755  11.117   2.935   5.029  2.2287 -1.3856  0.6614
  154MOL0     H20756  11.282   2.772   5.006  1.2105  0.1083 -1.0491
  154MOL0     H20757  11.248   2.725   4.839 -0.6356 -0.9744  0.2974
  154MOL0     H20758  11.285   2.985   4.792 -0.1505  0.6708 -0.9803
  154MOL0     H20759  11.348   2.986   4.954  1.1747 -1.0202 -0.7941
  154MOL0     H20760  11.475   2.813   4.740 -0.4748  0.8017  0.6558
  154MOL0     H20761  11.527   2.816   4.905  2.0534 -0.5519 -1.9042
  154MOL0     H20762  11.583   3.071   4.889  1.9892 -2.7030  1.1146
  154MOL0     H20763  11.497   3.067   4.731 -0.7899 -2.1397 -1.0630
  154MOL0     H20764  11.673   2.959   4.621 -1.3688  1.4201 -1.4315
  154MOL0     H20765  11.753   3.073   4.731  0.0674 -0.6954  0.3480
  154MOL0     H20766  11.741   2.778   4.807  0.5195  0.1591  1.3373
  154MOL0     H20767  11.794   2.903   4.900  0.0640  0.8706 -0.4435
  154MOL0     H20768  11.891   2.870   4.610  0.4589 -0.5839  0.7574
  154MOL0     H20769  11.984   2.948   4.745  1.5115 -1.0823 -0.2546
  154MOL0     H20770  10.894   2.612   5.136 -2.2538 -2.2727 -0.4359
  154MOL0     H20771  10.658   2.625   5.200  1.8352  0.0368  0.3018
  154MOL0     H20772  10.461   2.967   5.521  0.2675 -2.1839 -1.1499
  154MOL0     H20773  10.257   3.096   5.610  1.6097  2.0411 -0.8739
  154MOL0     H20774   8.606   2.071   5.464  0.2883 -2.9744 -1.1832
  154MOL0     H20775   8.353   2.118   5.463 -2.5348  2.0758 -1.5606
  154MOL0     H20776   8.096   2.652   5.410 -0.3444  0.2818  0.9958
  154MOL0     H20777   7.836   2.715   5.447 -0.0505 -0.5369  0.2245
  154MOL0     H20778   7.614   2.723   5.380  2.2283 -1.3561 -1.0124
  154MOL0     H20779   7.647   2.684   5.546 -0.5490  0.3966 -0.0553
  154MOL0     H20780   7.407   2.741   5.552 -0.2822  0.0059  1.8551
  154MOL0     H20781   7.429   2.563   5.555  1.3371 -2.5276 -2.4492
  154MOL0     H20782   7.363   2.561   5.310  0.4708  1.1520 -1.5163
  154MOL0     H20783   7.373   2.738   5.319  2.8954  0.2346  0.7280
  154MOL0     H20784   7.177   2.738   5.480 -1.2667 -1.6953  1.3573
  154MOL0     H20785   7.130   2.671   5.327 -1.7295 -1.7387  1.1480
  154MOL0     H20786   7.067   2.361   5.622  0.7023 -0.1353 -0.1115
  154MOL0     H20787   7.752   2.315   5.372 -0.8889  1.8746  4.9157
  154MOL0     H20788   8.047   2.233   5.197  1.3531 -0.2491  0.3658
  154MOL0     H20789   8.019   2.164   5.358  0.3913  1.8160  1.5367
  154MOL0     H20790   7.882   2.174   5.252 -0.1606  0.9343  2.4228
  155MOL0     O20791   7.632   5.546   4.468 -0.2430 -0.5279  0.0515
  155MOL0     C20792   7.525   5.611   4.449  0.2968 -0.0568 -0.3766
  155MOL0     O20793   7.521   5.737   4.413 -0.3457 -0.1080 -0.5590
  155MOL0     C20794   7.637   5.810   4.420  0.2419 -0.5240  1.0762
  155MOL0     C20795   7.710   5.826   4.538 -0.2847 -0.6780  0.7775
  155MOL0     C20796   7.816   5.919   4.544  0.9764  0.0246  0.0788
  155MOL0     C20797   7.839   6.003   4.431 -0.4477  0.2149 -0.3160
  155MOL0     O20798   7.936   6.101   4.435 -0.1916  0.3551 -0.3863
  155MOL0     C20799   7.956   6.174   4.562 -0.6443 -0.0713 -0.2906
  155MOL0     C20800   8.052   6.287   4.519  0.1050 -0.5546  0.3862
  155MOL0     C20801   8.199   6.226   4.507  0.0035 -0.6056 -0.2916
  155MOL0     C20802   8.309   6.321   4.451  0.7542  0.2299 -0.9090
  155MOL0     C20803   8.443   6.262   4.407  0.7227  0.4720 -0.5502
  155MOL0     C20804   8.531   6.364   4.339  0.0626 -0.0112 -0.5562
  155MOL0     C20805   8.676   6.337   4.348 -0.1809  0.0244 -0.9822
  155MOL0     C20806   8.715   6.209   4.275 -0.3268 -0.2364  0.4900
  155MOL0     N20807   8.863   6.202   4.284  0.0126  0.3646  1.0627
  155MOL0     C20808   8.932   6.162   4.392  0.2897  0.4286 -0.6958
  155MOL0     C20809   9.058   6.214   4.377 -0.5176 -1.1028 -0.3747
  155MOL0     C20810   9.166   6.205   4.481  0.6367  0.3948  0.3978
  155MOL0     C20811   9.305   6.222   4.403  0.4712  1.0186  0.0731
  155MOL0     C20812   9.350   6.086   4.371  0.3663  0.6242 -1.1342
  155MOL0     C20813   9.487   6.098   4.308 -0.2682 -0.0201  0.2644
  155MOL0     O20814   9.502   5.993   4.215  0.4203 -0.0341 -0.5951
  155MOL0     C20815   9.624   5.954   4.177  1.2030  0.8352 -0.4458
  155MOL0     C20816   9.623   5.855   4.081  0.0374 -0.0209 -0.6311
  155MOL0     C20817   9.741   5.788   4.042  0.1137 -0.9073 -1.0392
  155MOL0     C20818   9.864   5.832   4.088 -0.5596  0.2293 -0.2608
  155MOL0     C20819   9.993   5.769   4.055  0.1781  0.4271  0.1141
  155MOL0     O20820  10.101   5.826   4.109 -0.4277 -0.4283  0.3704
  155MOL0     C20821  10.224   5.758   4.119  0.3712 -0.1047 -0.2927
  155MOL0     C20822  10.264   5.632   4.069 -0.0554 -0.1967 -0.6515
  155MOL0     C20823  10.400   5.593   4.094  0.6410  0.3789  0.2431
  155MOL0     C20824  10.495   5.679   4.136 -0.3262 -1.2827 -0.3054
  155MOL0     O20825  10.624   5.641   4.140  0.0254 -0.4961 -0.7221
  155MOL0     C20826  10.726   5.732   4.189 -0.3347 -1.2612  0.0543
  155MOL0     C20827  10.858   5.665   4.178 -0.0180 -0.3335 -0.1834
  155MOL0     C20828  10.975   5.759   4.216  0.0404  0.2755  0.1477
  155MOL0     C20829  11.104   5.690   4.171  0.3120  0.4110  0.1235
  155MOL0     C20830  11.229   5.775   4.212 -0.0926  0.3311  0.7608
  155MOL0     C20831  11.360   5.724   4.151 -0.1889 -0.7727 -0.2473
  155MOL0     C20832  11.477   5.817   4.184  0.0234  0.6221 -0.6966
  155MOL0     C20833  11.605   5.771   4.122 -1.0189  0.4928  0.6007
  155MOL0    Cl20834  11.738   5.895   4.141 -0.0921  0.2373 -0.1571
  155MOL0     C20835  10.453   5.806   4.186  0.5226 -0.4567  0.1581
  155MOL0     C20836  10.314   5.842   4.185 -1.0332  0.6133  0.7731
  155MOL0     O20837   9.984   5.673   3.976 -0.0316 -0.3167 -0.1292
  155MOL0     C20838   9.869   5.942   4.184  0.6753  0.1729  0.7619
  155MOL0     C20839   9.746   5.991   4.234 -0.5626  0.5032  1.0272
  155MOL0     N20840   9.058   6.273   4.251 -0.8148 -0.3459  0.4500
  155MOL0     N20841   8.943   6.271   4.199  0.1595  0.7692  0.6003
  155MOL0     C20842   7.767   5.981   4.311  0.0115  0.3702  0.2896
  155MOL0     C20843   7.668   5.882   4.301 -0.5850  0.1678  0.0278
  155MOL0     C20844   7.397   5.526   4.461 -0.0950 -0.2154 -0.2684
  155MOL0     C20845   7.409   5.407   4.536 -0.0905 -0.1112  0.2289
  155MOL0     C20846   7.302   5.312   4.551 -1.0763 -0.3011 -0.3515
  155MOL0     C20847   7.188   5.339   4.498 -0.3009 -0.6586  0.5683
  155MOL0     O20848   7.084   5.250   4.520  0.4408  0.0754  0.3155
  155MOL0     C20849   7.021   5.195   4.398  0.2312  0.3544  0.0282
  155MOL0     C20850   6.897   5.116   4.454 -0.4926  0.2162  0.1198
  155MOL0     C20851   6.924   5.002   4.556 -0.2676  0.6569  0.0965
  155MOL0     C20852   6.817   4.897   4.546 -1.3497  0.5907 -0.3018
  155MOL0     C20853   6.683   4.941   4.574  0.1270  0.4510  0.3767
  155MOL0     C20854   6.579   4.960   4.613 -0.0907  0.1973  0.9049
  155MOL0     C20855   7.169   5.456   4.427 -0.7456 -0.1617  0.2547
  155MOL0     C20856   7.270   5.548   4.404 -0.1473  0.6370 -0.4586
  155MOL0     C20857   7.236   5.668   4.330 -0.3395  0.6359 -0.4065
  155MOL0     H20858   7.690   5.768   4.628 -1.9718 -0.5096  0.5369
  155MOL0     H20859   7.877   5.924   4.634  0.2612 -3.2547  0.8721
  155MOL0     H20860   7.863   6.219   4.599 -0.2004  1.1136 -0.5718
  155MOL0     H20861   8.003   6.110   4.638 -0.7065  0.3449  0.1042
  155MOL0     H20862   8.049   6.365   4.595  1.8941 -0.6603  0.5998
  155MOL0     H20863   8.014   6.328   4.425 -4.4091 -0.5736  1.9249
  155MOL0     H20864   8.191   6.148   4.432 -2.8007  0.5417 -1.3165
  155MOL0     H20865   8.222   6.176   4.602 -3.0370 -0.3749  0.6611
  155MOL0     H20866   8.262   6.377   4.370 -0.0265 -1.5051 -1.7280
  155MOL0     H20867   8.327   6.380   4.541  1.1159 -2.0781  0.6356
  155MOL0     H20868   8.495   6.224   4.495  0.2787  0.5306 -0.2600
  155MOL0     H20869   8.423   6.176   4.341 -1.4786  0.0201  0.6066
  155MOL0     H20870   8.490   6.369   4.238 -0.6214  1.0987 -0.2374
  155MOL0     H20871   8.506   6.465   4.373 -1.9595  0.6961 -3.7093
  155MOL0     H20872   8.706   6.329   4.453  4.1980 -0.5026 -2.0980
  155MOL0     H20873   8.732   6.420   4.305 -0.9363 -0.0202 -2.1079
  155MOL0     H20874   8.670   6.117   4.313  1.3059 -1.5987 -0.7453
  155MOL0     H20875   8.687   6.222   4.170  1.2304  0.4117  0.1312
  155MOL0     H20876   8.893   6.105   4.476  0.2628 -0.2021 -1.1321
  155MOL0     H20877   9.146   6.276   4.562  1.4678  2.8046 -1.3983
  155MOL0     H20878   9.150   6.108   4.528 -2.1685  0.7794  0.4033
  155MOL0     H20879   9.298   6.284   4.314 -1.8592  0.3358 -0.2938
  155MOL0     H20880   9.371   6.267   4.477 -0.6143  1.8174  0.5801
  155MOL0     H20881   9.271   6.043   4.309 -0.2966 -1.5180  1.0450
  155MOL0     H20882   9.353   6.020   4.457  1.8812  3.3623  1.0757
  155MOL0     H20883   9.563   6.104   4.386 -0.0566  0.2013  0.0441
  155MOL0     H20884   9.495   6.190   4.248  0.6285 -1.8991 -2.7369
  155MOL0     H20885   9.528   5.807   4.059 -0.0187 -0.4640  0.5177
  155MOL0     H20886   9.729   5.695   3.988 -0.3028 -0.8587 -1.0343
  155MOL0     H20887  10.188   5.570   4.024 -0.3154 -0.3367 -0.0280
  155MOL0     H20888  10.421   5.487   4.080 -2.8903 -0.7960  2.3188
  155MOL0     H20889  10.716   5.827   4.135 -1.9545 -1.6321 -0.3585
  155MOL0     H20890  10.704   5.754   4.294  1.0258 -1.7847  0.4658
  155MOL0     H20891  10.851   5.575   4.241  1.7229  0.3933  1.1238
  155MOL0     H20892  10.865   5.632   4.074 -1.6571 -1.4673  0.0273
  155MOL0     H20893  10.964   5.862   4.182 -0.4387  0.2731  0.2815
  155MOL0     H20894  10.981   5.767   4.325 -1.6295  1.1569  0.2096
  155MOL0     H20895  11.105   5.675   4.063  1.7609  0.6766  0.0772
  155MOL0     H20896  11.116   5.590   4.215 -0.2601 -0.3702 -1.4370
  155MOL0     H20897  11.230   5.775   4.321 -5.0531 -0.9029  1.0362
  155MOL0     H20898  11.212   5.881   4.188  1.0502  0.4147  0.2528
  155MOL0     H20899  11.379   5.618   4.169 -0.6067 -0.6725  0.8498
  155MOL0     H20900  11.352   5.739   4.043 -1.4647  1.3738  0.0940
  155MOL0     H20901  11.490   5.833   4.292  1.2540 -0.9965 -0.5609
  155MOL0     H20902  11.462   5.918   4.145 -3.0251  1.1134  1.4421
  155MOL0     H20903  11.633   5.672   4.159 -3.3237 -0.2619  0.5052
  155MOL0     H20904  11.600   5.757   4.014  2.6173 -1.5533  0.5406
  155MOL0     H20905  10.506   5.890   4.229 -2.2412  1.5234 -0.0423
  155MOL0     H20906  10.272   5.942   4.198 -0.9416  0.4881  2.1438
  155MOL0     H20907   9.960   5.992   4.215  0.7500 -0.5051  1.6562
  155MOL0     H20908   9.753   6.067   4.312  2.5816 -0.6131  1.9799
  155MOL0     H20909   7.786   6.046   4.226  1.1242 -0.9115 -0.4892
  155MOL0     H20910   7.613   5.865   4.208  0.5109  1.5791 -0.9117
  155MOL0     H20911   7.497   5.396   4.599  0.5971 -1.4128 -0.9096
  155MOL0     H20912   7.330   5.230   4.616  1.2254 -1.4417 -2.6078
  155MOL0     H20913   7.084   5.120   4.349 -2.2084 -2.2199  0.5492
  155MOL0     H20914   6.990   5.267   4.323 -0.9007 -0.7949 -0.6437
  155MOL0     H20915   6.839   5.076   4.371 -1.9689  1.7149  0.3757
  155MOL0     H20916   6.836   5.188   4.509  0.2308  0.9340 -0.0105
  155MOL0     H20917   6.934   5.025   4.663 -0.6414  0.3719  0.1945
  155MOL0     H20918   7.016   4.949   4.532 -2.8191 -2.0773 -5.3651
  155MOL0     H20919   6.827   4.869   4.440 -2.2124  2.7807 -1.0246
  155MOL0     H20920   6.838   4.820   4.620  1.6845  2.2891  0.7892
  155MOL0     H20921   6.483   4.994   4.646  0.0181 -0.0664  1.5112
  155MOL0     H20922   7.070   5.483   4.393  0.0638  2.7517 -0.0358
  155MOL0     H20923   7.323   5.702   4.273 -0.7195 -0.3631 -1.6301
  155MOL0     H20924   7.165   5.643   4.250 -0.6130  0.5821 -0.1468
  155MOL0     H20925   7.206   5.748   4.398  0.4495 -1.2395  2.2657
  156MOL0     O20926   0.708   1.694   0.656  0.2042 -0.7846  0.4743
  156MOL0     C20927   0.685   1.674   0.537 -0.9108  0.2914  0.1184
  156MOL0     O20928   0.780   1.693   0.439  0.4555 -0.2749 -0.1826
  156MOL0     C20929   0.901   1.723   0.483 -0.0119 -0.7346  0.1278
  156MOL0     C20930   0.992   1.614   0.481  0.5530  0.2611 -0.0025
  156MOL0     C20931   1.132   1.643   0.503  0.4438  0.1229 -0.6239
  156MOL0     C20932   1.178   1.770   0.540 -0.3669 -0.6518 -0.2727
  156MOL0     O20933   1.309   1.785   0.575  0.2466  0.6789 -0.4154
  156MOL0     C20934   1.392   1.836   0.476  0.0311 -0.0758  0.6065
  156MOL0     C20935   1.467   1.723   0.405  0.9301 -0.7985 -0.5550
  156MOL0     C20936   1.562   1.645   0.499  0.4561 -0.0713 -0.2133
  156MOL0     C20937   1.708   1.683   0.475 -0.8066  0.8072 -0.8265
  156MOL0     C20938   1.757   1.819   0.542  0.4711  0.4445  0.5259
  156MOL0     C20939   1.904   1.850   0.511 -0.4416 -0.1874  0.6464
  156MOL0     C20940   1.942   1.978   0.592 -0.9315 -0.3029 -0.5911
  156MOL0     C20941   2.041   2.064   0.521 -0.8448 -0.0247  0.0999
  156MOL0     N20942   2.175   1.995   0.533  0.1029 -0.0366 -0.0930
  156MOL0     C20943   2.294   2.053   0.568 -0.2358  0.0136 -0.2571
  156MOL0     C20944   2.394   1.992   0.495  0.2209  0.4435  0.1473
  156MOL0     C20945   2.543   1.998   0.495 -0.2910  0.4280 -0.2126
  156MOL0     C20946   2.592   2.144   0.469  0.5720 -0.4653 -0.5639
  156MOL0     C20947   2.730   2.171   0.525 -0.1454  0.5498 -0.4684
  156MOL0     C20948   2.840   2.158   0.424  0.1417 -0.6462 -0.4494
  156MOL0     O20949   2.970   2.187   0.489  0.3137 -0.4356  0.3027
  156MOL0     C20950   3.085   2.152   0.416  0.0026 -0.5536 -0.3826
  156MOL0     C20951   3.090   2.100   0.285 -0.0159  0.3527  0.2375
  156MOL0     C20952   3.209   2.056   0.227  0.5750  0.7366  0.2169
  156MOL0     C20953   3.323   2.063   0.301  0.4930  0.1748 -0.8605
  156MOL0     C20954   3.461   2.042   0.247  0.6888  0.6662  0.1698
  156MOL0     O20955   3.564   2.059   0.327 -0.4022  0.3283 -0.3373
  156MOL0     C20956   3.688   2.014   0.293 -0.0607 -0.0616  1.3089
  156MOL0     C20957   3.792   2.098   0.322 -0.0498 -0.1687 -0.1855
  156MOL0     C20958   3.925   2.065   0.287  0.7905  0.9405 -1.2871
  156MOL0     C20959   3.951   1.938   0.238  0.3049 -0.4133 -0.2585
  156MOL0     O20960   4.081   1.896   0.201  0.1960 -0.3346 -0.5950
  156MOL0     C20961   4.199   1.950   0.263  0.5870  0.2418  0.4721
  156MOL0     C20962   4.319   1.870   0.219  0.4170  0.3492 -0.1638
  156MOL0     C20963   4.347   1.905   0.072 -0.3868 -0.0572  0.5909
  156MOL0     C20964   4.428   1.805  -0.011  0.2382  0.0899 -0.6633
  156MOL0     C20965   4.446   1.831  -0.158 -0.7941 -0.0371  0.4123
  156MOL0     C20966   4.590   1.799  -0.213 -0.2864 -0.0511 -0.5358
  156MOL0     C20967   4.613   1.838  -0.361 -0.6583  0.2447 -0.1627
  156MOL0     C20968   4.735   1.917  -0.383 -0.0428  0.5852 -1.4189
  156MOL0    Cl20969   4.747   1.954  -0.552 -0.1173  0.3232  0.4114
  156MOL0     C20970   3.843   1.844   0.209 -0.8379 -0.5836 -0.8911
  156MOL0     C20971   3.712   1.887   0.234 -1.0213 -0.2137  0.2720
  156MOL0     O20972   3.463   2.009   0.126 -0.1331 -0.5303  0.6509
  156MOL0     C20973   3.314   2.111   0.434  0.5182  0.2490  0.5700
  156MOL0     C20974   3.202   2.152   0.493  0.3221  0.1217  0.3500
  156MOL0     N20975   2.336   1.897   0.416  0.2563 -0.1621  0.9409
  156MOL0     N20976   2.211   1.901   0.437  0.9389 -0.3780 -0.2892
  156MOL0     C20977   1.081   1.869   0.542  0.1057 -0.2852  0.2492
  156MOL0     C20978   0.946   1.853   0.507 -0.2884 -0.5169  0.0610
  156MOL0     C20979   0.553   1.625   0.491 -0.5223  0.0930  0.0634
  156MOL0     C20980   0.544   1.600   0.351 -0.5511  0.5971 -0.6140
  156MOL0     C20981   0.430   1.545   0.294 -0.2804  0.5038 -0.1962
  156MOL0     C20982   0.321   1.507   0.365 -1.1575  0.4757 -0.0341
  156MOL0     O20983   0.214   1.443   0.301  0.1923  0.3684  0.1677
  156MOL0     C20984   0.223   1.347   0.197 -0.5803  0.3751 -0.1108
  156MOL0     C20985   0.126   1.235   0.207  0.0460 -0.9242 -0.7514
  156MOL0     C20986   0.142   1.156   0.334  0.0704 -0.4013  0.9219
  156MOL0     C20987   0.049   1.038   0.332  0.4585  0.5817  0.4420
  156MOL0     C20988   0.074   0.963   0.455 -0.0773  0.7467 -0.2027
  156MOL0     C20989   0.094   0.916   0.565 -0.6795  0.3650  0.1583
  156MOL0     C20990   0.325   1.534   0.500  0.9907 -0.6681  0.2048
  156MOL0     C20991   0.438   1.590   0.568  1.1357 -0.1998 -0.0789
  156MOL0     C20992   0.425   1.604   0.719 -0.1421  0.5299 -0.6300
  156MOL0     H20993   0.956   1.518   0.446  1.0584 -0.2856  0.9629
  156MOL0     H20994   1.209   1.570   0.479  1.4456  1.2617 -0.9268
  156MOL0     H20995   1.335   1.885   0.396  0.1726 -1.3535 -0.3075
  156MOL0     H20996   1.457   1.913   0.517 -0.5353  1.1460 -0.6728
  156MOL0     H20997   1.513   1.772   0.318  0.9382  3.1960  1.4940
  156MOL0     H20998   1.392   1.655   0.364  1.9596 -2.5924  0.3825
  156MOL0     H20999   1.551   1.540   0.472  0.4023 -0.3885  0.9674
  156MOL0     H21000   1.526   1.662   0.601  1.0474  0.5114 -0.0917
  156MOL0     H21001   1.765   1.601   0.519 -0.2529  0.4944 -2.0988
  156MOL0     H21002   1.724   1.685   0.367  1.3081 -0.5122 -0.5962
  156MOL0     H21003   1.702   1.908   0.513  1.8870  1.6888  1.4996
  156MOL0     H21004   1.741   1.804   0.649  0.4053 -0.2553  0.4264
  156MOL0     H21005   1.968   1.767   0.542 -1.3662 -1.2969 -0.3191
  156MOL0     H21006   1.920   1.868   0.404  1.1172  0.1625  0.9210
  156MOL0     H21007   1.996   1.934   0.676  1.8088 -0.4175 -2.2925
  156MOL0     H21008   1.858   2.041   0.623  0.1681  0.4724  1.0154
  156MOL0     H21009   2.016   2.067   0.414  2.8226  0.5673 -0.8828
  156MOL0     H21010   2.039   2.167   0.557 -0.5513  0.0245 -0.0245
  156MOL0     H21011   2.311   2.128   0.644 -1.1629 -0.3792  0.3625
  156MOL0     H21012   2.579   1.971   0.595  2.3320 -1.4002 -1.5227
  156MOL0     H21013   2.590   1.930   0.424 -0.4908 -0.2456  0.2932
  156MOL0     H21014   2.576   2.172   0.364 -3.7158  0.6205  0.1803
  156MOL0     H21015   2.534   2.223   0.518  1.0696 -0.4359 -0.0180
  156MOL0     H21016   2.752   2.115   0.617 -0.7479  2.1623  0.7110
  156MOL0     H21017   2.728   2.277   0.554  2.3795  0.0681  1.9359
  156MOL0     H21018   2.823   2.239   0.352  0.4648  0.2677  0.4835
  156MOL0     H21019   2.842   2.064   0.369 -0.3469 -1.6330  1.1623
  156MOL0     H21020   3.002   2.099   0.221  1.2988 -2.4217 -1.7339
  156MOL0     H21021   3.212   1.996   0.137  2.5460 -1.3760  1.5615
  156MOL0     H21022   3.756   2.196   0.352 -2.2435 -1.2188  0.8196
  156MOL0     H21023   3.996   2.142   0.315  0.9287 -0.3145  2.3344
  156MOL0     H21024   4.209   2.056   0.239  1.7168  0.5195  2.0087
  156MOL0     H21025   4.183   1.931   0.370 -2.1827 -0.9867 -0.0851
  156MOL0     H21026   4.400   1.894   0.288 -1.9659  1.5392  2.3913
  156MOL0     H21027   4.289   1.765   0.226  1.9118 -0.0304  0.9779
  156MOL0     H21028   4.258   1.934   0.016 -0.1501  1.0260  0.7624
  156MOL0     H21029   4.418   1.988   0.081 -1.4804  0.8018  1.6141
  156MOL0     H21030   4.382   1.706  -0.013 -0.3976  0.3366  0.6439
  156MOL0     H21031   4.520   1.796   0.048 -1.3510  2.2577  2.5010
  156MOL0     H21032   4.431   1.938  -0.174  1.3626  0.5330  1.8066
  156MOL0     H21033   4.370   1.779  -0.217 -1.2010  0.1377  0.7840
  156MOL0     H21034   4.665   1.843  -0.146 -2.2238  1.1825  0.9505
  156MOL0     H21035   4.605   1.692  -0.200  1.4342  0.0106 -1.7104
  156MOL0     H21036   4.524   1.886  -0.403 -1.7376  0.1875  1.8713
  156MOL0     H21037   4.621   1.744  -0.417  0.2614  0.2154  0.0067
  156MOL0     H21038   4.738   2.008  -0.323  0.1383 -0.0418 -0.4481
  156MOL0     H21039   4.816   1.853  -0.346  1.2590  2.8726 -0.0911
  156MOL0     H21040   3.871   1.747   0.170  0.7141 -0.5820  0.1348
  156MOL0     H21041   3.631   1.822   0.200  1.3305 -2.4413 -1.4994
  156MOL0     H21042   3.405   2.113   0.494  0.0156  0.2000  1.3450
  156MOL0     H21043   3.205   2.197   0.592  0.5924  0.5266  0.1601
  156MOL0     H21044   1.114   1.971   0.559 -0.1386 -0.0994 -0.3451
  156MOL0     H21045   0.873   1.932   0.501  1.0629  0.8703  1.1856
  156MOL0     H21046   0.631   1.616   0.287  0.8823 -0.9039  0.8326
  156MOL0     H21047   0.432   1.509   0.192 -0.9998  4.4343 -1.7865
  156MOL0     H21048   0.327   1.316   0.190 -0.6607 -1.1740  3.4546
  156MOL0     H21049   0.203   1.391   0.099 -0.5958 -0.2498 -0.3903
  156MOL0     H21050   0.146   1.178   0.116  0.4562  1.4808 -2.2612
  156MOL0     H21051   0.021   1.266   0.200 -0.2053 -0.0724  3.6930
  156MOL0     H21052   0.111   1.222   0.415  3.1695  0.2100  1.7459
  156MOL0     H21053   0.248   1.127   0.342  0.9906  1.9647 -1.2617
  156MOL0     H21054  -0.054   1.073   0.319  0.9967  1.3202 -2.7186
  156MOL0     H21055   0.064   0.974   0.245  0.0306  0.9837  0.0683
  156MOL0     H21056   0.105   0.889   0.669 -1.2114  0.9483  0.3735
  156MOL0     H21057   0.235   1.504   0.554 -0.4206  2.1356 -0.4322
  156MOL0     H21058   0.402   1.708   0.744 -1.7052  0.5103 -1.8263
  156MOL0     H21059   0.341   1.544   0.756 -0.6697  1.6668  0.0485
  156MOL0     H21060   0.511   1.561   0.771 -0.6799  0.1031 -0.0951
  157MOL0     O21061   1.578   5.611   7.570  0.1892  0.1373 -0.4229
  157MOL0     C21062   1.542   5.548   7.474 -0.9256  0.2998  0.1092
  157MOL0     O21063   1.616   5.525   7.365  0.2721  0.2250 -0.3453
  157MOL0     C21064   1.752   5.561   7.363 -0.6999  0.1851 -0.0114
  157MOL0     C21065   1.841   5.463   7.421 -0.2178  0.1207  1.2901
  157MOL0     C21066   1.984   5.480   7.428  0.0168  0.9629  0.4833
  157MOL0     C21067   2.039   5.594   7.374 -0.6312 -0.0005  0.2494
  157MOL0     O21068   2.174   5.605   7.379  0.1653  0.0526  0.1300
  157MOL0     C21069   2.222   5.721   7.434 -0.1986 -0.2108  0.0374
  157MOL0     C21070   2.373   5.701   7.448 -0.1689  0.0431  0.0265
  157MOL0     C21071   2.429   5.823   7.521 -0.3700 -0.3939  0.3009
  157MOL0     C21072   2.541   5.800   7.624  0.3685 -0.1338 -0.2605
  157MOL0     C21073   2.667   5.738   7.563 -0.4092  0.9639 -0.5460
  157MOL0     C21074   2.701   5.788   7.421  0.2232  0.1392 -0.6720
  157MOL0     C21075   2.825   5.718   7.371 -0.0196  0.6550 -0.9841
  157MOL0     C21076   2.871   5.786   7.248 -0.2811 -0.2915  0.4424
  157MOL0     N21077   2.991   5.714   7.214 -0.2066 -0.1516 -0.4328
  157MOL0     C21078   3.002   5.601   7.131 -0.6714 -0.1430 -0.9358
  157MOL0     C21079   3.136   5.586   7.119  0.0020  0.7670  0.5104
  157MOL0     C21080   3.204   5.462   7.060 -0.6103  0.5788 -0.5752
  157MOL0     C21081   3.288   5.493   6.937 -0.1945 -0.0692 -0.9052
  157MOL0     C21082   3.345   5.379   6.861 -0.7470  0.2918 -0.2329
  157MOL0     C21083   3.416   5.270   6.953  0.4272  0.1805  1.2857
  157MOL0     O21084   3.526   5.351   7.000  0.0789 -0.0056  0.8866
  157MOL0     C21085   3.630   5.290   7.056 -0.1418 -0.3912  0.4072
  157MOL0     C21086   3.759   5.349   7.050 -0.4994  0.2000  0.7758
  157MOL0     C21087   3.866   5.287   7.105  0.5517 -0.0741 -0.1930
  157MOL0     C21088   3.850   5.173   7.182  0.2389  0.8493  0.5744
  157MOL0     C21089   3.968   5.125   7.257  0.1107 -0.8981  0.4717
  157MOL0     O21090   4.091   5.190   7.249 -0.0779 -0.0273 -0.2770
  157MOL0     C21091   4.189   5.135   7.331  0.0909 -0.5213 -0.4184
  157MOL0     C21092   4.244   5.224   7.428 -0.6735  0.3547 -0.3564
  157MOL0     C21093   4.344   5.170   7.510  0.0071  0.4935  0.7363
  157MOL0     C21094   4.380   5.036   7.506 -0.3103  0.5714 -1.1843
  157MOL0     O21095   4.467   4.976   7.592 -0.4204  0.0042  0.7559
  157MOL0     C21096   4.509   5.046   7.708 -0.0050  0.7392  0.2413
  157MOL0     C21097   4.517   4.951   7.835  0.0941 -0.7319  0.2977
  157MOL0     C21098   4.370   4.919   7.885  0.2555  0.3878 -0.5016
  157MOL0     C21099   4.361   4.842   8.019  0.1197 -0.1849  0.1255
  157MOL0     C21100   4.209   4.807   8.042 -0.9594  0.4665 -0.1162
  157MOL0     C21101   4.201   4.710   8.158 -0.3778 -0.8432 -0.3118
  157MOL0     C21102   4.061   4.708   8.220 -0.3994  0.2493  0.2048
  157MOL0     C21103   3.958   4.646   8.120 -0.3185 -0.6427 -0.5780
  157MOL0    Cl21104   4.020   4.493   8.051  0.1579 -0.2462  0.4090
  157MOL0     C21105   4.336   4.957   7.402 -0.2962 -0.2830 -0.7199
  157MOL0     C21106   4.238   5.007   7.316 -0.0903  0.1439  0.9821
  157MOL0     O21107   3.950   5.024   7.318 -0.7443  0.3028  0.1001
  157MOL0     C21108   3.727   5.106   7.192 -0.2657  0.6770 -0.7016
  157MOL0     C21109   3.619   5.161   7.121 -0.2245 -0.2390  0.3479
  157MOL0     N21110   3.197   5.677   7.203 -0.4364  0.3703  0.2463
  157MOL0     N21111   3.109   5.750   7.267 -0.3059 -0.0636  0.1564
  157MOL0     C21112   1.956   5.694   7.311 -0.4397 -0.3883  0.5153
  157MOL0     C21113   1.819   5.678   7.304  0.0552  0.5243  0.2054
  157MOL0     C21114   1.390   5.497   7.463  0.2598  0.2443  0.8926
  157MOL0     C21115   1.357   5.445   7.339  0.1110 -0.1577 -0.1530
  157MOL0     C21116   1.227   5.397   7.306  0.1616 -0.3607 -0.4068
  157MOL0     C21117   1.127   5.400   7.407 -0.6186  0.2452  0.8293
  157MOL0     O21118   1.001   5.348   7.391  0.2021 -0.2778 -0.0079
  157MOL0     C21119   0.984   5.225   7.337 -0.4881 -0.1118  0.1203
  157MOL0     C21120   0.847   5.170   7.359  0.0914 -0.0173  0.3000
  157MOL0     C21121   0.733   5.228   7.282  0.4589  0.0450 -0.2862
  157MOL0     C21122   0.599   5.154   7.315  0.9118  0.1684 -0.0154
  157MOL0     C21123   0.489   5.211   7.236  0.0408  0.3900 -0.4531
  157MOL0     C21124   0.398   5.242   7.165 -0.3399  0.1284  0.1522
  157MOL0     C21125   1.152   5.468   7.524  0.2956 -0.8125 -0.6748
  157MOL0     C21126   1.279   5.511   7.556 -0.3470 -0.8092  0.9789
  157MOL0     C21127   1.312   5.567   7.693 -0.4985 -0.3035 -1.7962
  157MOL0     H21128   1.791   5.367   7.429 -3.6135  1.4761 -0.8967
  157MOL0     H21129   2.052   5.405   7.467 -1.1070 -0.9475 -1.0506
  157MOL0     H21130   2.198   5.794   7.356  0.5708 -0.4365 -0.4202
  157MOL0     H21131   2.174   5.746   7.529 -0.5649  0.4372 -0.3086
  157MOL0     H21132   2.423   5.690   7.351 -0.8337 -0.9434 -0.2293
  157MOL0     H21133   2.395   5.607   7.499  0.2600 -0.3047 -0.7642
  157MOL0     H21134   2.350   5.890   7.557  0.0357  0.1978  0.1024
  157MOL0     H21135   2.464   5.885   7.438  1.0268 -1.0149  0.4100
  157MOL0     H21136   2.555   5.895   7.675  2.7694  0.3105 -1.5606
  157MOL0     H21137   2.500   5.736   7.702 -0.2347  0.5489 -0.0135
  157MOL0     H21138   2.755   5.754   7.626 -2.1700  1.2852  1.9348
  157MOL0     H21139   2.654   5.630   7.563 -2.2901  1.1568 -1.3008
  157MOL0     H21140   2.621   5.778   7.347 -0.4316 -0.8377  0.1265
  157MOL0     H21141   2.729   5.893   7.433  3.4406 -0.6714 -0.1624
  157MOL0     H21142   2.806   5.613   7.345 -0.8800  0.3598  0.6668
  157MOL0     H21143   2.910   5.724   7.440 -0.2776 -3.2527 -0.0576
  157MOL0     H21144   2.795   5.790   7.170 -0.6907 -1.2720  0.7669
  157MOL0     H21145   2.906   5.888   7.267  0.6302 -0.2961 -1.0769
  157MOL0     H21146   2.924   5.544   7.082 -2.5773  1.9883 -0.5325
  157MOL0     H21147   3.261   5.426   7.146  1.1429  1.5718 -1.2687
  157MOL0     H21148   3.133   5.386   7.027  0.6487 -0.3544 -1.2393
  157MOL0     H21149   3.228   5.545   6.863 -2.5851 -0.6879  0.4702
  157MOL0     H21150   3.365   5.561   6.973 -0.1931 -0.7947  0.5824
  157MOL0     H21151   3.421   5.418   6.792 -0.0293 -0.5302  0.0821
  157MOL0     H21152   3.267   5.332   6.800  0.3994 -1.2423 -0.5689
  157MOL0     H21153   3.437   5.180   6.896 -0.4204  0.0920  1.0915
  157MOL0     H21154   3.344   5.240   7.031 -1.1514  1.0201  0.2158
  157MOL0     H21155   3.777   5.446   7.004  2.1009  0.0717  1.3782
  157MOL0     H21156   3.962   5.337   7.099  0.5668  0.6183  3.3337
  157MOL0     H21157   4.214   5.324   7.458 -0.5430 -0.2626  2.0160
  157MOL0     H21158   4.375   5.238   7.588  0.6985 -0.6989  1.5312
  157MOL0     H21159   4.605   5.092   7.685 -1.1412  2.1318 -2.0905
  157MOL0     H21160   4.448   5.133   7.732  0.4877  1.2125 -0.1930
  157MOL0     H21161   4.568   4.858   7.808 -0.7935 -1.2239  0.2821
  157MOL0     H21162   4.585   5.009   7.899  0.6695 -0.1938 -0.7756
  157MOL0     H21163   4.307   5.008   7.880 -1.4902 -0.7344  0.4574
  157MOL0     H21164   4.340   4.847   7.809 -0.1314 -0.7411  0.6904
  157MOL0     H21165   4.394   4.900   8.107  3.0358 -1.6271  0.1054
  157MOL0     H21166   4.430   4.757   8.011  0.1205 -0.1275 -0.5294
  157MOL0     H21167   4.159   4.766   7.954 -0.8132 -0.2925  0.1444
  157MOL0     H21168   4.166   4.903   8.069  1.6939  1.3640  1.2688
  157MOL0     H21169   4.241   4.613   8.130  0.3577 -0.2691 -1.3142
  157MOL0     H21170   4.267   4.739   8.241  0.5834 -3.0927 -0.2336
  157MOL0     H21171   4.026   4.805   8.257 -1.6056  0.3093 -0.9811
  157MOL0     H21172   4.052   4.654   8.314 -4.1268  0.7133  0.2789
  157MOL0     H21173   3.875   4.610   8.182  1.1223 -1.9724  0.6521
  157MOL0     H21174   3.914   4.714   8.047 -4.0512  0.9471  2.7357
  157MOL0     H21175   4.363   4.851   7.402 -0.8562 -0.5186  2.2650
  157MOL0     H21176   4.196   4.944   7.238  1.7166  2.2670 -1.9347
  157MOL0     H21177   3.722   5.025   7.263 -0.6293  2.4309  1.3785
  157MOL0     H21178   3.522   5.113   7.117  0.1619 -1.0272  0.4111
  157MOL0     H21179   1.998   5.783   7.265 -0.6713 -0.8104 -0.5635
  157MOL0     H21180   1.762   5.754   7.251 -0.3841  0.2305  0.2553
  157MOL0     H21181   1.427   5.447   7.256  0.3644 -0.3275  0.0546
  157MOL0     H21182   1.200   5.353   7.210 -0.3252 -4.5979  1.4154
  157MOL0     H21183   1.044   5.148   7.387 -0.5357 -2.3268 -2.9632
  157MOL0     H21184   1.022   5.209   7.236 -0.1437 -3.4030  0.6616
  157MOL0     H21185   0.822   5.163   7.465  0.7088 -0.9422  0.4036
  157MOL0     H21186   0.869   5.067   7.327  0.6345  0.8743 -2.4370
  157MOL0     H21187   0.756   5.217   7.176 -1.0553  2.1434 -0.9097
  157MOL0     H21188   0.719   5.335   7.301 -3.6415 -0.4833  0.6279
  157MOL0     H21189   0.615   5.046   7.303 -1.7545 -0.0697 -2.4453
  157MOL0     H21190   0.580   5.175   7.421 -2.7819  1.6751 -0.8091
  157MOL0     H21191   0.315   5.279   7.109  1.8889  3.0325 -1.5053
  157MOL0     H21192   1.079   5.481   7.603 -0.1023 -1.5161 -0.9137
  157MOL0     H21193   1.241   5.525   7.765  0.7460 -0.4041 -0.5972
  157MOL0     H21194   1.414   5.541   7.723 -0.1088  1.0301 -1.9030
  157MOL0     H21195   1.308   5.676   7.703  0.8991 -0.2079 -2.1601
  158MOL0     O21196   2.363   0.076   6.897 -0.4041 -1.2212 -0.2642
  158MOL0     C21197   2.471   0.027   6.878 -0.1644 -1.4054  0.3526
  158MOL0     O21198   2.493  -0.085   6.795 -0.4822 -0.2395  0.1281
  158MOL0     C21199   2.383  -0.142   6.734  0.7092 -0.3818 -0.9458
  158MOL0     C21200   2.276  -0.067   6.678 -0.4094  0.4009  0.1190
  158MOL0     C21201   2.163  -0.136   6.630  0.3781 -0.7806  0.2941
  158MOL0     C21202   2.161  -0.271   6.622  0.0882 -0.3982 -0.3634
  158MOL0     O21203   2.049  -0.331   6.579  0.3875  0.2923 -0.6967
  158MOL0     C21204   2.020  -0.471   6.598  0.7010 -0.4666  0.1886
  158MOL0     C21205   1.883  -0.504   6.534 -0.2016 -0.4289  0.2412
  158MOL0     C21206   1.842  -0.649   6.570  0.6108 -0.3124  0.7003
  158MOL0     C21207   1.722  -0.705   6.492 -0.4119 -0.5078 -0.3459
  158MOL0     C21208   1.697  -0.854   6.501  0.2848 -1.1191  0.5965
  158MOL0     C21209   1.610  -0.913   6.381 -0.1741  0.2385 -0.0716
  158MOL0     C21210   1.644  -1.061   6.342  0.0701 -0.2973 -0.9727
  158MOL0     C21211   1.595  -1.161   6.447 -0.5923  0.5952  0.3763
  158MOL0     N21212   1.452  -1.206   6.413  0.0208 -0.6426 -0.0971
  158MOL0     C21213   1.431  -1.323   6.343  0.6555 -0.1938 -0.1099
  158MOL0     C21214   1.301  -1.329   6.330 -0.4631 -0.1927 -0.0035
  158MOL0     C21215   1.228  -1.440   6.258 -0.6860 -0.9574 -0.3710
  158MOL0     C21216   1.280  -1.471   6.122 -0.3588 -0.0009  0.8265
  158MOL0     C21217   1.216  -1.599   6.065  0.3145  0.1774 -0.5727
  158MOL0     C21218   1.242  -1.627   5.916  0.0540  0.2351  0.3884
  158MOL0     O21219   1.361  -1.566   5.854 -0.3746 -0.9557 -0.1555
  158MOL0     C21220   1.487  -1.614   5.859 -0.4014  0.8184 -0.6040
  158MOL0     C21221   1.584  -1.573   5.759  0.0980  0.3320 -0.5067
  158MOL0     C21222   1.716  -1.626   5.769  0.5629  0.8094  0.5966
  158MOL0     C21223   1.758  -1.703   5.875  0.1342  0.2747  0.4440
  158MOL0     C21224   1.899  -1.770   5.893 -0.5435  0.2401 -0.5627
  158MOL0     O21225   1.987  -1.728   5.805 -0.3024 -0.3528 -0.0991
  158MOL0     C21226   2.124  -1.764   5.790  0.2893  0.5556  0.8204
  158MOL0     C21227   2.176  -1.891   5.833 -0.2548  0.2218  1.0556
  158MOL0     C21228   2.310  -1.928   5.817  0.0710 -0.6339  0.0660
  158MOL0     C21229   2.403  -1.826   5.776 -0.2331 -0.0540 -0.3610
  158MOL0     O21230   2.541  -1.850   5.758 -0.3261  0.0781 -0.0403
  158MOL0     C21231   2.587  -1.993   5.766  1.2846  0.2132  0.9251
  158MOL0     C21232   2.734  -2.011   5.766 -0.6052 -0.1410 -0.1947
  158MOL0     C21233   2.769  -2.154   5.796 -0.0124 -0.0983 -0.0730
  158MOL0     C21234   2.918  -2.178   5.804 -1.0704 -0.4696 -0.5057
  158MOL0     C21235   2.954  -2.332   5.837 -0.6615 -0.4508 -0.7131
  158MOL0     C21236   3.095  -2.372   5.804 -0.1074  0.8707  0.4418
  158MOL0     C21237   3.213  -2.311   5.895  0.1074  0.2103 -0.5161
  158MOL0     C21238   3.350  -2.336   5.835  1.0837 -0.6029 -0.0813
  158MOL0    Cl21239   3.471  -2.288   5.963 -0.0987 -0.0322 -0.5137
  158MOL0     C21240   2.357  -1.690   5.747 -0.9356  0.6920  0.3716
  158MOL0     C21241   2.214  -1.664   5.764 -0.0612 -0.0635 -0.6150
  158MOL0     O21242   1.921  -1.847   5.989 -0.1607 -0.4258 -0.0343
  158MOL0     C21243   1.660  -1.727   5.980 -1.1954 -0.2841 -0.0813
  158MOL0     C21244   1.534  -1.682   5.969 -0.1766 -0.4400  0.7334
  158MOL0     N21245   1.248  -1.217   6.392  0.6495 -0.0342 -0.2981
  158MOL0     N21246   1.338  -1.141   6.442  0.3896  0.5181 -0.2961
  158MOL0     C21247   2.266  -0.340   6.666  0.0253  0.1498 -0.1358
  158MOL0     C21248   2.379  -0.281   6.724  0.2970  0.0989 -0.3013
  158MOL0     C21249   2.592   0.087   6.935 -0.2345  1.1151 -0.4062
  158MOL0     C21250   2.718   0.013   6.920  0.2850  0.0324  0.1771
  158MOL0     C21251   2.837   0.060   6.964  0.2573 -0.1202 -0.1748
  158MOL0     C21252   2.839   0.180   7.040 -0.4261 -0.3031  0.5662
  158MOL0     O21253   2.966   0.205   7.093 -0.0174 -0.5332 -0.4381
  158MOL0     C21254   2.972   0.291   7.208 -0.1712 -0.7667  0.5958
  158MOL0     C21255   3.103   0.270   7.284  0.3739  0.5260  0.1685
  158MOL0     C21256   3.221   0.353   7.228 -0.1517  0.2906 -0.0104
  158MOL0     C21257   3.348   0.308   7.294  0.5587  0.3191  0.4304
  158MOL0     C21258   3.459   0.394   7.248 -0.5653 -0.5084  0.9506
  158MOL0     C21259   3.560   0.453   7.209 -0.3632  0.5761 -0.2616
  158MOL0     C21260   2.720   0.252   7.050  0.5264  0.7053 -1.2023
  158MOL0     C21261   2.594   0.213   7.006  0.6042 -0.2460  0.0380
  158MOL0     C21262   2.473   0.289   7.044  1.0743  0.4539 -0.9834
  158MOL0     H21263   2.275   0.041   6.677  0.6120  0.4221 -1.5080
  158MOL0     H21264   2.079  -0.076   6.598 -1.0709 -1.9501  1.7339
  158MOL0     H21265   2.101  -0.519   6.542  1.6417  2.4669 -1.1853
  158MOL0     H21266   2.027  -0.499   6.704 -1.0832  0.4586  0.5934
  158MOL0     H21267   1.893  -0.492   6.425  1.9191  3.7978  0.7198
  158MOL0     H21268   1.812  -0.434   6.578 -0.3106  1.0994 -2.1707
  158MOL0     H21269   1.830  -0.661   6.678  1.9211  1.9624  1.1664
  158MOL0     H21270   1.933  -0.709   6.557 -0.8322 -2.3793 -0.4765
  158MOL0     H21271   1.634  -0.645   6.517  1.0215  1.1992  0.8637
  158MOL0     H21272   1.751  -0.697   6.387 -0.1278 -0.5581 -0.2715
  158MOL0     H21273   1.789  -0.914   6.495  0.7866 -0.2611 -0.4873
  158MOL0     H21274   1.652  -0.884   6.596  0.0977 -2.0290  0.2271
  158MOL0     H21275   1.508  -0.922   6.420 -1.2730 -0.2466 -2.8345
  158MOL0     H21276   1.610  -0.850   6.292  1.4325 -1.1127 -1.1059
  158MOL0     H21277   1.751  -1.077   6.322  0.0534 -2.8959  0.5853
  158MOL0     H21278   1.589  -1.074   6.249 -2.8758 -1.4362  0.7851
  158MOL0     H21279   1.667  -1.243   6.444  0.3220  1.3278 -3.5160
  158MOL0     H21280   1.606  -1.121   6.548 -1.7687  0.2795  0.6424
  158MOL0     H21281   1.503  -1.395   6.307 -1.6574 -2.9888  0.4939
  158MOL0     H21282   1.227  -1.526   6.325  0.9417 -0.9848 -0.3490
  158MOL0     H21283   1.126  -1.401   6.247  0.1521  1.7407  0.5299
  158MOL0     H21284   1.263  -1.393   6.047 -0.1649  0.2320  1.0213
  158MOL0     H21285   1.388  -1.481   6.135 -0.1188  2.5599  1.3775
  158MOL0     H21286   1.107  -1.598   6.074  0.4377  1.4437  1.2695
  158MOL0     H21287   1.255  -1.682   6.125  0.7905  1.8080  1.4642
  158MOL0     H21288   1.155  -1.583   5.866  1.7943  2.7742 -0.6252
  158MOL0     H21289   1.254  -1.735   5.900 -0.1997  0.2883 -0.1716
  158MOL0     H21290   1.549  -1.510   5.678  1.3558 -1.9408 -2.9867
  158MOL0     H21291   1.773  -1.606   5.679 -1.1399 -1.6519 -1.1585
  158MOL0     H21292   2.109  -1.975   5.844 -1.3147  0.2708 -3.4077
  158MOL0     H21293   2.328  -2.031   5.845  0.9984  0.0636  2.2181
  158MOL0     H21294   2.543  -2.046   5.850 -0.0277 -3.3285 -1.7335
  158MOL0     H21295   2.546  -2.039   5.676  1.5608  1.5670  0.0718
  158MOL0     H21296   2.776  -1.979   5.669  0.8113  0.1807  0.4915
  158MOL0     H21297   2.781  -1.950   5.843 -1.5129  0.1975  0.1034
  158MOL0     H21298   2.733  -2.182   5.896 -1.2955 -3.5465 -1.3375
  158MOL0     H21299   2.720  -2.213   5.718  0.1949  0.9861 -1.0507
  158MOL0     H21300   2.969  -2.113   5.876 -1.0833  1.3907 -2.0824
  158MOL0     H21301   2.965  -2.139   5.713 -0.9747  2.1300  0.5808
  158MOL0     H21302   2.891  -2.401   5.782 -1.0146 -0.2958 -0.5035
  158MOL0     H21303   2.944  -2.343   5.946  0.2579  1.8157 -0.3372
  158MOL0     H21304   3.105  -2.481   5.808 -0.6896  0.7585 -0.6517
  158MOL0     H21305   3.125  -2.362   5.699  0.0220 -3.6793 -0.1573
  158MOL0     H21306   3.213  -2.361   5.993  0.9187 -0.1698 -0.7029
  158MOL0     H21307   3.212  -2.204   5.915 -0.1923  0.2171 -0.5593
  158MOL0     H21308   3.358  -2.443   5.816 -2.5126 -1.5361  2.5867
  158MOL0     H21309   3.377  -2.283   5.743  2.7059  0.9986  1.2360
  158MOL0     H21310   2.406  -1.599   5.716 -1.5374  0.7621 -0.3947
  158MOL0     H21311   2.181  -1.563   5.742 -0.0602 -0.5740 -3.2051
  158MOL0     H21312   1.692  -1.786   6.066  1.0118 -0.5840 -1.0421
  158MOL0     H21313   1.463  -1.713   6.045 -1.0632  0.4013  0.2696
  158MOL0     H21314   2.257  -0.448   6.670 -3.5085  0.2899 -1.3188
  158MOL0     H21315   2.450  -0.340   6.781  0.9278  0.7000 -0.4509
  158MOL0     H21316   2.731  -0.080   6.865  0.0310  0.4712 -0.6350
  158MOL0     H21317   2.931   0.016   6.933  0.1434  0.2760 -1.1226
  158MOL0     H21318   2.898   0.252   7.278  1.0777 -0.0201  2.3883
  158MOL0     H21319   2.961   0.395   7.178  1.0549 -0.7691  0.0716
  158MOL0     H21320   3.121   0.162   7.278  0.2288  0.4071  1.6579
  158MOL0     H21321   3.089   0.287   7.391 -0.9353  2.0329 -0.2048
  158MOL0     H21322   3.208   0.460   7.244 -0.3636  0.5248 -1.6304
  158MOL0     H21323   3.217   0.322   7.123 -3.8159 -3.0734  0.8588
  158MOL0     H21324   3.328   0.314   7.401 -1.9972  0.9262 -0.0238
  158MOL0     H21325   3.369   0.201   7.281 -0.8366 -0.4756  3.7125
  158MOL0     H21326   3.656   0.494   7.188  1.8277 -4.3708 -1.3464
  158MOL0     H21327   2.736   0.348   7.099  0.4782 -0.3056  0.9057
  158MOL0     H21328   2.403   0.217   7.087  1.2278  0.0124 -1.4727
  158MOL0     H21329   2.511   0.350   7.127  0.1620  1.0048 -0.9570
  158MOL0     H21330   2.423   0.345   6.964 -2.5589 -2.4570 -1.0585
  159MOL0     O21331   4.869  10.137   2.068  1.2807 -0.3867 -0.1773
  159MOL0     C21332   4.811  10.244   2.048  1.2654  0.4705  0.3421
  159MOL0     O21333   4.873  10.366   2.034 -0.1759 -0.1149  0.2855
  159MOL0     C21334   5.014  10.368   2.030  0.2923 -0.3802 -0.6475
  159MOL0     C21335   5.086  10.363   2.143 -0.3290 -0.8686 -0.0890
  159MOL0     C21336   5.224  10.356   2.129  0.1853  0.4136  0.5326
  159MOL0     C21337   5.295  10.353   2.002 -0.3753 -0.4301 -0.0289
  159MOL0     O21338   5.432  10.343   1.990  0.5813 -0.3054 -0.0801
  159MOL0     C21339   5.501  10.270   2.091  0.0127 -0.6114  0.4529
  159MOL0     C21340   5.646  10.279   2.046  0.2462  0.1447 -0.5043
  159MOL0     C21341   5.749  10.210   2.134  0.4184 -0.1572  0.6533
  159MOL0     C21342   5.900  10.216   2.089 -0.0720 -0.7828  0.0622
  159MOL0     C21343   5.986  10.140   2.180 -0.2875  0.3010 -0.1530
  159MOL0     C21344   6.019  10.215   2.304 -0.1188 -0.2380 -0.0064
  159MOL0     C21345   6.126  10.143   2.389 -1.0996  0.7500 -0.3148
  159MOL0     C21346   6.166  10.216   2.511 -0.7274  0.1717 -0.7983
  159MOL0     N21347   6.235  10.138   2.624  0.4961 -0.4280  0.0679
  159MOL0     C21348   6.174  10.072   2.733 -0.0810  0.1295 -0.7829
  159MOL0     C21349   6.279  10.052   2.813 -0.3841 -0.3770 -0.7431
  159MOL0     C21350   6.271   9.992   2.955  0.2200 -0.6502  0.0087
  159MOL0     C21351   6.196   9.857   2.971  0.7695  0.2303 -0.9416
  159MOL0     C21352   6.277   9.755   2.899  0.3129 -0.7248 -0.9254
  159MOL0     C21353   6.210   9.627   2.946  0.1331 -0.9394  0.4484
  159MOL0     O21354   6.247   9.515   2.861  0.1319 -0.0324 -0.4254
  159MOL0     C21355   6.375   9.470   2.853 -0.6297  0.6620 -0.3790
  159MOL0     C21356   6.465   9.496   2.956 -0.1774  0.2017 -0.5944
  159MOL0     C21357   6.599   9.457   2.935  0.2587 -0.4523 -0.5208
  159MOL0     C21358   6.640   9.400   2.813 -0.8360 -0.7815 -0.0642
  159MOL0     C21359   6.774   9.370   2.780  0.1301  0.4073  0.3367
  159MOL0     O21360   6.854   9.359   2.889  0.1209  0.4392  0.4818
  159MOL0     C21361   6.988   9.404   2.885  0.3035  0.5053  0.3877
  159MOL0     C21362   7.073   9.361   2.988  0.4101  0.4435  0.4058
  159MOL0     C21363   7.203   9.402   2.986  0.0495  0.1210 -0.1961
  159MOL0     C21364   7.251   9.487   2.888 -0.9556  0.2948 -0.9752
  159MOL0     O21365   7.381   9.529   2.898 -0.4317 -0.5111  0.2513
  159MOL0     C21366   7.488   9.430   2.930  0.2273 -0.0337 -0.0722
  159MOL0     C21367   7.619   9.472   2.874 -0.0189  0.4029  0.2313
  159MOL0     C21368   7.747   9.388   2.912  0.0142 -0.5078 -0.1708
  159MOL0     C21369   7.874   9.438   2.834 -0.3123 -0.5966 -0.6492
  159MOL0     C21370   8.002   9.402   2.917 -0.1404 -0.2233  0.7616
  159MOL0     C21371   8.126   9.404   2.829 -0.9615  0.4146 -0.2632
  159MOL0     C21372   8.127   9.271   2.745 -0.4451  1.2494  0.3610
  159MOL0     C21373   8.268   9.224   2.717 -0.3337 -1.3060  0.2319
  159MOL0    Cl21374   8.344   9.364   2.639 -0.3444  0.3748 -0.3654
  159MOL0     C21375   7.171   9.531   2.788  0.2646 -0.2175  0.7904
  159MOL0     C21376   7.035   9.499   2.793 -0.0159 -0.0225  0.2430
  159MOL0     O21377   6.805   9.372   2.664  0.1977 -0.3261  0.3454
  159MOL0     C21378   6.544   9.374   2.720 -0.3018 -0.3068  0.1494
  159MOL0     C21379   6.406   9.401   2.738 -0.3906 -0.5511 -0.4541
  159MOL0     N21380   6.397  10.094   2.762 -0.6101  0.1252  1.0425
  159MOL0     N21381   6.368  10.153   2.648  0.7063 -0.3930 -0.2981
  159MOL0     C21382   5.217  10.366   1.886 -0.1494 -0.6929 -0.4388
  159MOL0     C21383   5.083  10.367   1.903  0.1990 -0.8530 -0.2917
  159MOL0     C21384   4.657  10.245   2.064 -0.3775  0.4969  0.1584
  159MOL0     C21385   4.585  10.362   2.062  0.1005 -0.0994  0.3200
  159MOL0     C21386   4.445  10.364   2.086  0.1433  0.3911 -0.3347
  159MOL0     C21387   4.381  10.248   2.113 -0.8514 -0.7110  0.2140
  159MOL0     O21388   4.247  10.253   2.147  0.3510  0.2203 -0.2077
  159MOL0     C21389   4.229  10.260   2.290  0.1721  0.3794  0.2715
  159MOL0     C21390   4.079  10.232   2.328 -0.0968  0.6599  0.4900
  159MOL0     C21391   3.979  10.295   2.231 -0.7409 -0.0199  0.0434
  159MOL0     C21392   4.000  10.444   2.182 -0.1803 -0.5963  0.4327
  159MOL0     C21393   4.009  10.532   2.302  0.0786  0.4612 -0.4201
  159MOL0     C21394   4.012  10.578   2.412  0.1823 -0.5801  0.0537
  159MOL0     C21395   4.453  10.128   2.109 -0.1878  0.2705  0.6141
  159MOL0     C21396   4.585  10.123   2.075 -0.0109  0.4045 -0.1897
  159MOL0     C21397   4.645   9.980   2.050  0.7974 -0.2140  0.2079
  159MOL0     H21398   5.044  10.366   2.244 -0.7810 -2.1908 -0.2244
  159MOL0     H21399   5.280  10.348   2.221  2.5666 -0.9045 -0.9395
  159MOL0     H21400   5.504  10.318   2.189  2.0580  0.1538  0.0598
  159MOL0     H21401   5.476  10.163   2.096  1.2316 -0.9089  0.5323
  159MOL0     H21402   5.681  10.382   2.055  0.3543  0.4433 -3.3015
  159MOL0     H21403   5.661  10.233   1.948 -1.9063  1.6581 -1.6250
  159MOL0     H21404   5.716  10.106   2.130 -0.2241  0.0426 -3.6496
  159MOL0     H21405   5.742  10.242   2.238  0.1023 -0.1475  0.6288
  159MOL0     H21406   5.907  10.178   1.986 -4.6673 -1.5217 -0.2140
  159MOL0     H21407   5.931  10.321   2.088  1.2211 -1.1440 -0.8231
  159MOL0     H21408   5.936  10.043   2.193  2.4607 -0.9892  1.7075
  159MOL0     H21409   6.080  10.119   2.130 -0.4560 -1.0398  0.0393
  159MOL0     H21410   6.069  10.304   2.264 -0.2576  0.3536  1.0858
  159MOL0     H21411   5.932  10.235   2.367 -0.4611  1.9667 -1.0597
  159MOL0     H21412   6.215  10.131   2.327 -1.0831  2.0552 -0.5780
  159MOL0     H21413   6.090  10.044   2.418 -2.0380  0.1369 -3.1998
  159MOL0     H21414   6.234  10.292   2.470 -0.0712 -2.2050 -4.6639
  159MOL0     H21415   6.088  10.260   2.574 -0.8753 -1.7454  0.4318
  159MOL0     H21416   6.067  10.059   2.744 -0.3988  1.5942 -1.7785
  159MOL0     H21417   6.375   9.985   2.986  0.5360 -0.1752 -0.9319
  159MOL0     H21418   6.218  10.070   3.011 -0.2011 -0.8465 -0.1096
  159MOL0     H21419   6.194   9.837   3.079  1.0651 -0.7830 -1.1161
  159MOL0     H21420   6.098   9.875   2.926  1.3684  3.4880 -1.1618
  159MOL0     H21421   6.382   9.764   2.931 -0.4571  1.8813  1.1398
  159MOL0     H21422   6.274   9.756   2.789 -0.4149 -1.6514 -0.9298
  159MOL0     H21423   6.103   9.641   2.928  0.4558  1.1098 -0.1122
  159MOL0     H21424   6.231   9.606   3.051  2.4613  1.7494  0.6445
  159MOL0     H21425   6.430   9.541   3.048 -0.3204 -0.7654 -0.1689
  159MOL0     H21426   6.670   9.469   3.016 -0.3513  1.5005 -0.2189
  159MOL0     H21427   7.044   9.289   3.064 -1.8189 -1.5376 -2.1287
  159MOL0     H21428   7.271   9.385   3.069  0.7000  1.5758 -0.4010
  159MOL0     H21429   7.512   9.430   3.037  0.6365 -1.9052 -0.1166
  159MOL0     H21430   7.466   9.326   2.905 -1.3068 -0.4741  2.7246
  159MOL0     H21431   7.611   9.462   2.765 -2.4379 -0.6612  0.4296
  159MOL0     H21432   7.636   9.576   2.903  0.8382  1.6366 -4.0468
  159MOL0     H21433   7.756   9.425   3.014 -0.4094  1.7285 -0.8946
  159MOL0     H21434   7.735   9.281   2.894  1.2505 -0.9860  1.6339
  159MOL0     H21435   7.868   9.546   2.816 -0.7316 -0.6986 -1.1677
  159MOL0     H21436   7.881   9.396   2.733 -2.4945  0.9822 -1.5437
  159MOL0     H21437   7.994   9.314   2.981  1.1175  0.1584  1.4647
  159MOL0     H21438   8.010   9.481   2.992  2.4414  0.2321  0.1027
  159MOL0     H21439   8.140   9.488   2.760 -0.4577  0.4278 -0.1471
  159MOL0     H21440   8.210   9.406   2.899 -1.8720 -0.6376  0.9061
  159MOL0     H21441   8.075   9.285   2.650  1.0853 -1.9068 -1.0480
  159MOL0     H21442   8.081   9.186   2.796  0.0729 -0.0345 -1.2445
  159MOL0     H21443   8.321   9.200   2.810 -0.8791 -1.0537  0.6119
  159MOL0     H21444   8.286   9.143   2.646  4.4453  0.1416 -0.6263
  159MOL0     H21445   7.206   9.595   2.707 -0.5389 -2.2306 -1.2452
  159MOL0     H21446   6.978   9.547   2.714  2.6781  1.6745 -0.8169
  159MOL0     H21447   6.571   9.315   2.634  3.0118 -0.2197  0.9915
  159MOL0     H21448   6.329   9.356   2.676 -1.0400 -0.4381  0.2499
  159MOL0     H21449   5.273  10.364   1.793  2.3234  3.5441  0.7024
  159MOL0     H21450   5.025  10.376   1.812 -1.0116  0.7768  0.5978
  159MOL0     H21451   4.626  10.456   2.024 -0.0563 -1.0341 -2.3993
  159MOL0     H21452   4.397  10.459   2.064 -3.4189 -1.9522 -4.1297
  159MOL0     H21453   4.248  10.358   2.334 -1.4860 -0.4691  3.1781
  159MOL0     H21454   4.286  10.181   2.339 -1.4327 -0.9411  0.1050
  159MOL0     H21455   4.081  10.284   2.424  0.3877 -2.1275  2.0887
  159MOL0     H21456   4.059  10.125   2.339  1.3182  0.2289 -0.8462
  159MOL0     H21457   3.888  10.297   2.293 -0.3705  1.8464  0.5864
  159MOL0     H21458   3.976  10.231   2.143  0.2995 -1.0723  0.7494
  159MOL0     H21459   4.094  10.441   2.127 -0.3681 -0.8947  0.1267
  159MOL0     H21460   3.919  10.476   2.116  0.3418 -0.0936  0.0265
  159MOL0     H21461   4.004  10.615   2.512  1.0935  0.2584 -0.1723
  159MOL0     H21462   4.403  10.035   2.131  0.4969 -0.9683 -2.5614
  159MOL0     H21463   4.726   9.956   2.120  1.4022  0.9929 -0.0604
  159MOL0     H21464   4.573   9.898   2.063  0.6445  0.1945  2.3580
  159MOL0     H21465   4.687   9.985   1.949  5.3493  2.0794  1.9512
  160MOL0     O21466   5.153   4.329   0.619  0.1629 -0.2950  0.6723
  160MOL0     C21467   5.048   4.308   0.562  0.2953 -0.6586  0.2250
  160MOL0     O21468   4.946   4.404   0.544  0.2098  0.4352  0.0023
  160MOL0     C21469   4.966   4.528   0.586 -0.3836  0.8704 -0.7561
  160MOL0     C21470   5.069   4.606   0.546 -1.1128  0.9545 -0.2800
  160MOL0     C21471   5.087   4.740   0.583  0.0478  0.0283 -0.4458
  160MOL0     C21472   4.999   4.798   0.681  0.0399  0.5159  0.2018
  160MOL0     O21473   5.015   4.928   0.715 -0.1355  0.7045 -0.7253
  160MOL0     C21474   5.006   4.958   0.856 -0.2762 -0.3701  0.5443
  160MOL0     C21475   5.114   5.058   0.908  0.7655  1.2763  0.1626
  160MOL0     C21476   5.110   5.094   1.050  0.4033 -0.5139 -0.3724
  160MOL0     C21477   5.232   5.178   1.087  0.4215  0.1346 -0.4419
  160MOL0     C21478   5.249   5.186   1.240  0.9148 -1.2415 -0.3222
  160MOL0     C21479   5.372   5.263   1.280 -0.6411  0.0233 -0.7460
  160MOL0     C21480   5.500   5.191   1.270  0.0341  0.5784  0.7739
  160MOL0     C21481   5.625   5.263   1.320  0.3726 -0.6528  0.5556
  160MOL0     N21482   5.749   5.194   1.292  0.1538  0.6652 -0.5746
  160MOL0     C21483   5.777   5.066   1.332 -0.0493  1.3098 -0.2945
  160MOL0     C21484   5.910   5.044   1.281 -0.9649 -0.3787 -0.0481
  160MOL0     C21485   6.000   4.926   1.303  0.1952  0.3994  0.6581
  160MOL0     C21486   6.144   4.979   1.340 -0.4940  0.2917  0.0436
  160MOL0     C21487   6.232   4.874   1.409  0.7591  0.2292 -0.8382
  160MOL0     C21488   6.285   4.771   1.314 -0.0510 -0.2481 -0.1828
  160MOL0     O21489   6.326   4.654   1.376 -0.4139 -0.8619  0.4955
  160MOL0     C21490   6.452   4.650   1.441  0.9389  0.1187  0.5217
  160MOL0     C21491   6.492   4.523   1.471 -0.3947 -0.4715  0.2019
  160MOL0     C21492   6.602   4.503   1.552 -0.2804 -0.0123  0.1700
  160MOL0     C21493   6.700   4.607   1.575  0.6371 -0.1120  0.1124
  160MOL0     C21494   6.818   4.592   1.664  0.1752 -1.1075 -0.5545
  160MOL0     O21495   6.827   4.478   1.741 -0.4684 -0.3231  0.1356
  160MOL0     C21496   6.942   4.450   1.816 -0.3105 -0.9756  0.1512
  160MOL0     C21497   7.067   4.438   1.759 -0.1904 -0.0540 -0.0702
  160MOL0     C21498   7.185   4.412   1.829 -0.4705 -1.1044 -0.2942
  160MOL0     C21499   7.176   4.421   1.972 -0.1546 -0.1046 -0.5092
  160MOL0     O21500   7.286   4.417   2.062  0.7901  0.1753  0.1511
  160MOL0     C21501   7.294   4.326   2.176  0.1259  0.4444  0.1436
  160MOL0     C21502   7.425   4.354   2.264  0.2835  1.3234  0.6364
  160MOL0     C21503   7.553   4.284   2.190  0.1028  0.3813 -1.7718
  160MOL0     C21504   7.689   4.340   2.245  0.5556  1.1836 -0.0014
  160MOL0     C21505   7.811   4.277   2.174 -0.0381 -0.5380  0.1672
  160MOL0     C21506   7.894   4.358   2.074 -0.0699 -0.3813 -0.2808
  160MOL0     C21507   8.042   4.324   2.090  0.5845 -0.3714 -0.6826
  160MOL0     C21508   8.121   4.431   2.013  0.0785 -0.0737 -0.7623
  160MOL0    Cl21509   8.299   4.392   2.015  0.3085  0.0835  0.1451
  160MOL0     C21510   7.052   4.445   2.034 -0.3102  0.2371 -0.2071
  160MOL0     C21511   6.940   4.452   1.953  0.5550 -0.3991  0.2950
  160MOL0     O21512   6.895   4.684   1.664  0.3167 -0.3313  0.5219
  160MOL0     C21513   6.666   4.727   1.511  0.0267  0.0504 -1.1514
  160MOL0     C21514   6.541   4.750   1.452 -0.4913 -0.2076  0.3835
  160MOL0     N21515   5.951   5.160   1.218 -0.0695 -0.0171  0.0488
  160MOL0     N21516   5.850   5.241   1.217 -0.5912 -0.0108  0.0543
  160MOL0     C21517   4.900   4.721   0.731  0.0889 -0.5175 -0.1273
  160MOL0     C21518   4.887   4.586   0.685  0.9012 -0.3769  0.8789
  160MOL0     C21519   5.023   4.176   0.499 -0.0081 -0.5992 -0.4302
  160MOL0     C21520   4.911   4.164   0.416 -0.0734  0.3767 -0.3586
  160MOL0     C21521   4.879   4.045   0.344 -0.2834 -0.3429 -0.3732
  160MOL0     C21522   4.959   3.932   0.360  0.9019  0.2856  0.7229
  160MOL0     O21523   4.910   3.816   0.296  0.7547  0.3619 -0.3863
  160MOL0     C21524   4.981   3.692   0.303  0.0733 -0.0056 -0.0696
  160MOL0     C21525   4.931   3.590   0.199  0.3558  0.1521  0.0230
  160MOL0     C21526   4.788   3.565   0.212  0.5726  0.3989 -0.3591
  160MOL0     C21527   4.741   3.444   0.125 -0.2393  0.2697  0.1280
  160MOL0     C21528   4.601   3.401   0.144 -0.5364  0.1000 -0.5485
  160MOL0     C21529   4.479   3.383   0.142  0.3022 -0.1355  0.6987
  160MOL0     C21530   5.078   3.946   0.441  0.3994 -0.2183  0.0732
  160MOL0     C21531   5.105   4.062   0.520 -0.0504  0.2969 -0.3542
  160MOL0     C21532   5.225   4.059   0.607 -0.0885  0.0588 -0.0253
  160MOL0     H21533   5.138   4.568   0.470  0.5279  0.9934  1.1202
  160MOL0     H21534   5.171   4.798   0.546  0.3748 -0.9031 -1.1959
  160MOL0     H21535   4.907   4.996   0.881 -0.4096  1.0885 -1.8348
  160MOL0     H21536   5.014   4.869   0.918  0.1063  0.1561  1.2599
  160MOL0     H21537   5.107   5.152   0.853 -1.8635  0.8290 -0.4445
  160MOL0     H21538   5.206   5.005   0.883  1.2914  2.3899 -0.3526
  160MOL0     H21539   5.119   5.003   1.111  0.8680 -0.4024 -0.2690
  160MOL0     H21540   5.009   5.132   1.064 -0.0247 -2.2823  2.1197
  160MOL0     H21541   5.325   5.137   1.046  1.9665  3.2806 -0.4268
  160MOL0     H21542   5.215   5.282   1.055 -0.7703  0.4940  1.2389
  160MOL0     H21543   5.152   5.220   1.279  1.2670 -0.2770 -0.2652
  160MOL0     H21544   5.260   5.085   1.280  0.0782 -0.5068  1.9664
  160MOL0     H21545   5.381   5.354   1.220  0.3450  0.5028  0.0910
  160MOL0     H21546   5.355   5.292   1.384  0.2393 -2.1817  0.0869
  160MOL0     H21547   5.508   5.175   1.163  0.2972 -2.0819  1.1410
  160MOL0     H21548   5.487   5.091   1.313  1.7345 -0.6772 -1.4490
  160MOL0     H21549   5.634   5.361   1.273 -1.5909  0.1876  1.8127
  160MOL0     H21550   5.613   5.272   1.428 -2.4668 -0.2023  0.2769
  160MOL0     H21551   5.716   5.000   1.393 -0.4099  1.4673 -0.4826
  160MOL0     H21552   5.963   4.854   1.377 -0.3151 -1.4444 -1.2864
  160MOL0     H21553   6.009   4.882   1.203  0.9868  1.5903  0.1776
  160MOL0     H21554   6.182   5.017   1.245 -1.2657 -0.2013 -0.4670
  160MOL0     H21555   6.137   5.065   1.409  1.7933  1.6040 -1.2324
  160MOL0     H21556   6.176   4.835   1.495  0.6154 -0.1953 -1.1165
  160MOL0     H21557   6.320   4.930   1.441  0.7500 -0.2025 -0.0458
  160MOL0     H21558   6.371   4.820   1.267 -0.0442  1.7402  1.6867
  160MOL0     H21559   6.213   4.743   1.237 -0.5017  2.8854 -1.0351
  160MOL0     H21560   6.417   4.446   1.452 -0.6876 -0.1544  0.0566
  160MOL0     H21561   6.624   4.413   1.607 -2.0175 -1.1285 -0.8970
  160MOL0     H21562   7.067   4.415   1.653  1.9080 -1.4657  0.1892
  160MOL0     H21563   7.279   4.388   1.781  0.4458 -2.8448  2.1566
  160MOL0     H21564   7.211   4.355   2.241  1.9892  2.9786  1.5820
  160MOL0     H21565   7.297   4.220   2.151 -1.4303 -0.2516  2.4892
  160MOL0     H21566   7.432   4.462   2.282 -0.3048  1.2849  1.1226
  160MOL0     H21567   7.415   4.309   2.363  1.4371 -1.0321 -0.2658
  160MOL0     H21568   7.554   4.175   2.201 -1.1853  0.6328  2.1283
  160MOL0     H21569   7.546   4.300   2.082  2.9261 -0.1913 -2.1003
  160MOL0     H21570   7.692   4.316   2.352 -2.0701 -1.1636 -0.3336
  160MOL0     H21571   7.680   4.448   2.232 -2.8379  1.3344  2.2458
  160MOL0     H21572   7.789   4.184   2.121 -0.3308  1.6158 -3.9561
  160MOL0     H21573   7.874   4.254   2.260  0.4786 -2.8540 -0.7441
  160MOL0     H21574   7.861   4.336   1.972  0.6220  2.3829 -1.1696
  160MOL0     H21575   7.878   4.465   2.083  1.6057 -0.2536  1.9874
  160MOL0     H21576   8.065   4.235   2.031  2.2497 -0.7338  0.4397
  160MOL0     H21577   8.065   4.320   2.197  1.2438  0.6505 -0.7678
  160MOL0     H21578   8.084   4.443   1.911 -2.0551  2.2624  0.1737
  160MOL0     H21579   8.108   4.525   2.067  1.1935 -0.0994 -0.4193
  160MOL0     H21580   7.041   4.463   2.141  1.6845 -0.0266  0.0839
  160MOL0     H21581   6.843   4.459   2.001  1.2879  2.4181  1.5715
  160MOL0     H21582   6.733   4.813   1.515  1.1562 -0.7728 -1.6189
  160MOL0     H21583   6.527   4.844   1.400  3.2518  0.6327  0.5960
  160MOL0     H21584   4.814   4.764   0.782  0.2350 -0.6326  0.2194
  160MOL0     H21585   4.795   4.532   0.705  1.2252 -1.5254 -0.5104
  160MOL0     H21586   4.852   4.254   0.409  1.3791  1.7528  3.1945
  160MOL0     H21587   4.790   4.034   0.283 -0.2342 -0.2423 -0.4629
  160MOL0     H21588   4.961   3.655   0.405  0.5615  0.3917  0.1757
  160MOL0     H21589   5.089   3.711   0.301 -0.2296  1.7934 -1.0945
  160MOL0     H21590   4.982   3.494   0.212 -0.2999 -0.2109 -0.0403
  160MOL0     H21591   4.942   3.629   0.097 -1.2554  2.8079  0.7900
  160MOL0     H21592   4.724   3.651   0.188  0.0836  0.4446  1.0275
  160MOL0     H21593   4.758   3.543   0.315 -2.3647  0.2199 -1.1496
  160MOL0     H21594   4.749   3.474   0.020  1.5039 -0.8068 -0.0903
  160MOL0     H21595   4.803   3.355   0.140  0.2840  0.3434 -1.4384
  160MOL0     H21596   4.375   3.362   0.153  0.4962 -0.6682  1.7025
  160MOL0     H21597   5.141   3.860   0.460  1.9201  1.3602  2.9126
  160MOL0     H21598   5.317   4.082   0.552  1.9525 -0.8950  2.7537
  160MOL0     H21599   5.217   4.122   0.696 -2.9955  0.6158 -0.5879
  160MOL0     H21600   5.237   3.955   0.637 -1.1722  0.5999  2.5378
  161MOL0     O21601   9.988   3.467   3.641 -1.6110 -0.6034  0.5090
  161MOL0     C21602   9.896   3.492   3.563 -0.3237  0.3132  0.2871
  161MOL0     O21603   9.899   3.461   3.432  0.0546  0.2282 -0.3063
  161MOL0     C21604  10.001   3.384   3.390 -0.9999 -1.1666  0.2073
  161MOL0     C21605  10.115   3.437   3.323 -0.4039  1.0213 -0.6150
  161MOL0     C21606  10.224   3.352   3.298  0.1659  0.3041  0.2092
  161MOL0     C21607  10.216   3.216   3.333 -0.0821 -0.5419  0.2069
  161MOL0     O21608  10.318   3.129   3.310 -0.1827 -1.4370 -0.3654
  161MOL0     C21609  10.454   3.179   3.312 -0.3400  0.4244 -0.2670
  161MOL0     C21610  10.548   3.062   3.318  0.5029 -0.3994 -0.1598
  161MOL0     C21611  10.687   3.106   3.328 -0.2686  0.3880  0.2295
  161MOL0     C21612  10.785   2.997   3.364 -0.0086  0.5319 -0.4294
  161MOL0     C21613  10.926   3.031   3.360  0.3589 -0.8529 -0.2857
  161MOL0     C21614  10.960   3.138   3.464  0.2083  0.3694  0.0529
  161MOL0     C21615  11.106   3.164   3.469  0.9331 -0.6636  0.8072
  161MOL0     C21616  11.172   3.073   3.572 -0.2874  1.0823  0.0475
  161MOL0     N21617  11.320   3.075   3.579 -0.1141  0.1274  0.3041
  161MOL0     C21618  11.398   3.012   3.490  0.8001  0.4950  0.7507
  161MOL0     C21619  11.524   3.038   3.528  1.7469  0.0066 -0.8486
  161MOL0     C21620  11.645   2.980   3.472 -0.2203  0.5050 -0.9293
  161MOL0     C21621  11.675   2.838   3.531 -0.1359  0.0360  0.5671
  161MOL0     C21622  11.807   2.779   3.486 -0.0866 -0.6040  0.0703
  161MOL0     C21623  11.851   2.656   3.565  0.0780 -0.5334  0.4669
  161MOL0     O21624  11.980   2.619   3.522  0.0296  0.3962  0.0409
  161MOL0     C21625  12.098   2.664   3.580 -0.6031 -0.4744  0.2200
  161MOL0     C21626  12.105   2.775   3.667  0.4738  0.4875  0.1821
  161MOL0     C21627  12.227   2.818   3.729  0.4243  0.0529 -0.4152
  161MOL0     C21628  12.349   2.750   3.713 -0.7081 -0.7039 -0.6010
  161MOL0     C21629  12.473   2.782   3.791  0.4782 -0.0404  0.5545
  161MOL0     O21630  12.456   2.841   3.916  0.0171 -0.3707 -1.2555
  161MOL0     C21631  12.556   2.880   3.996  0.2087 -0.0183 -0.6146
  161MOL0     C21632  12.649   2.963   3.940  0.2185 -0.0131 -0.1704
  161MOL0     C21633  12.755   3.018   4.023  0.6948  1.3059 -0.8857
  161MOL0     C21634  12.760   2.982   4.162 -0.6831 -0.6351  0.2429
  161MOL0     O21635  12.845   3.041   4.244 -0.1727  0.1881 -0.5050
  161MOL0     C21636  12.985   3.025   4.197  0.8369 -0.5013 -0.0071
  161MOL0     C21637  13.076   3.048   4.310 -0.2784 -0.7080  0.9745
  161MOL0     C21638  13.224   3.053   4.266 -0.1081 -0.5241  0.0041
  161MOL0     C21639  13.310   3.116   4.372 -0.1100  0.4921 -0.5496
  161MOL0     C21640  13.456   3.109   4.326  0.3502 -0.1389 -0.6214
  161MOL0     C21641  13.557   3.140   4.439  0.4515 -0.3812 -0.5704
  161MOL0     C21642  13.700   3.143   4.372  0.1772 -1.2103  0.1773
  161MOL0     C21643  13.818   3.169   4.466  1.2258  0.0320 -0.2678
  161MOL0    Cl21644  13.953   3.237   4.377  0.3492  0.1417 -0.2092
  161MOL0     C21645  12.661   2.895   4.210  0.4746 -0.1725  0.0943
  161MOL0     C21646  12.569   2.841   4.130  0.0956 -0.1228 -0.5305
  161MOL0     O21647  12.578   2.752   3.737 -0.1980 -0.5942  0.5003
  161MOL0     C21648  12.328   2.642   3.630 -0.4295  0.4954  0.1609
  161MOL0     C21649  12.215   2.604   3.562  0.0082  0.0596  0.0975
  161MOL0     N21650  11.523   3.125   3.631  0.3451 -0.6141  0.1826
  161MOL0     N21651  11.399   3.143   3.664  0.0472 -0.0110 -0.6247
  161MOL0     C21652  10.102   3.171   3.397 -0.4388  0.8363 -0.3714
  161MOL0     C21653   9.992   3.251   3.414  0.3094 -0.1921 -1.0052
  161MOL0     C21654   9.769   3.548   3.607  0.0802 -0.1135  0.9156
  161MOL0     C21655   9.656   3.540   3.524  0.3633  0.5869  0.0967
  161MOL0     C21656   9.538   3.600   3.557  0.4101  0.3200  0.3354
  161MOL0     C21657   9.523   3.680   3.671 -0.0174 -0.2323 -0.1058
  161MOL0     O21658   9.403   3.719   3.725  0.0839 -0.1606  0.1398
  161MOL0     C21659   9.290   3.683   3.647  0.4176  0.2312  0.3519
  161MOL0     C21660   9.244   3.530   3.645 -0.1821  0.3894  0.1834
  161MOL0     C21661   9.105   3.521   3.717  0.7189  0.0216 -0.1974
  161MOL0     C21662   9.040   3.387   3.710  0.1168  0.2459 -0.8283
  161MOL0     C21663   9.126   3.278   3.754  0.1963  0.6505 -0.0074
  161MOL0     C21664   9.193   3.183   3.787 -0.4655 -0.3959 -0.6876
  161MOL0     C21665   9.634   3.694   3.746 -0.6979  0.5416 -0.6939
  161MOL0     C21666   9.760   3.636   3.717 -0.0346 -0.0293  0.0697
  161MOL0     C21667   9.872   3.661   3.816  0.1101 -0.4465  0.6365
  161MOL0     H21668  10.123   3.545   3.319 -0.3769  1.0111 -0.8334
  161MOL0     H21669  10.308   3.411   3.262  0.0938  2.5944  3.3895
  161MOL0     H21670  10.481   3.240   3.225  5.9031 -0.0133  0.8968
  161MOL0     H21671  10.474   3.255   3.387  1.4224  2.2429 -2.4310
  161MOL0     H21672  10.532   2.994   3.233 -1.7574  0.2333 -0.2879
  161MOL0     H21673  10.521   3.010   3.410 -1.5807 -0.7819 -0.9245
  161MOL0     H21674  10.696   3.181   3.407 -1.1573  1.4162 -0.6007
  161MOL0     H21675  10.712   3.149   3.231 -1.0492 -1.7158 -0.9842
  161MOL0     H21676  10.763   2.957   3.463  1.3744 -0.7868 -0.6056
  161MOL0     H21677  10.763   2.917   3.292  0.2483  1.4494 -1.5579
  161MOL0     H21678  10.986   2.941   3.377 -0.3701 -1.2890  0.0320
  161MOL0     H21679  10.946   3.062   3.257  0.4251 -0.2270 -0.0875
  161MOL0     H21680  10.909   3.231   3.438 -0.8160 -0.8394 -2.7647
  161MOL0     H21681  10.925   3.120   3.566  0.9656  1.4300  0.5154
  161MOL0     H21682  11.136   3.268   3.482 -1.0225  0.1915 -0.9997
  161MOL0     H21683  11.161   3.142   3.376  1.6974 -1.7679  1.4935
  161MOL0     H21684  11.133   3.104   3.670  1.1701 -0.3697  1.1440
  161MOL0     H21685  11.144   2.968   3.557  1.5790  0.1440  2.4067
  161MOL0     H21686  11.373   2.943   3.410  1.5084 -1.1956  1.9079
  161MOL0     H21687  11.637   2.973   3.363 -1.1633  0.7692 -0.8804
  161MOL0     H21688  11.736   3.028   3.509 -0.4528 -0.9658  1.8843
  161MOL0     H21689  11.673   2.847   3.640  0.5995 -0.4033  0.6258
  161MOL0     H21690  11.597   2.771   3.494 -0.5069  1.0841 -0.5852
  161MOL0     H21691  11.890   2.850   3.481 -0.3371 -0.3852 -1.5173
  161MOL0     H21692  11.788   2.741   3.385  0.1088  2.1010 -1.0742
  161MOL0     H21693  11.780   2.577   3.537  1.4921 -2.0722  1.0682
  161MOL0     H21694  11.842   2.679   3.671  0.1376  1.7456  0.0219
  161MOL0     H21695  12.013   2.826   3.693  0.8412 -0.1084  2.9556
  161MOL0     H21696  12.229   2.906   3.793  0.2342 -0.7863  0.7662
  161MOL0     H21697  12.635   2.990   3.836  0.7463  2.9290  0.4175
  161MOL0     H21698  12.836   3.081   3.986  2.0306  0.8089  1.0248
  161MOL0     H21699  12.996   2.923   4.160 -0.7290 -0.4996 -0.5678
  161MOL0     H21700  12.999   3.106   4.124  0.2991  1.5520  2.0293
  161MOL0     H21701  13.052   3.147   4.351  0.4570 -0.3686  0.6132
  161MOL0     H21702  13.063   2.973   4.388 -0.1346 -1.0650  0.6562
  161MOL0     H21703  13.260   2.955   4.234  2.0435 -0.0306  0.7220
  161MOL0     H21704  13.232   3.118   4.178  1.4118 -1.1359 -0.3484
  161MOL0     H21705  13.304   3.066   4.469  1.5728  0.6070 -0.3569
  161MOL0     H21706  13.272   3.217   4.389 -0.2728  0.5827 -1.4088
  161MOL0     H21707  13.473   3.180   4.244  0.3294  0.0033 -0.5032
  161MOL0     H21708  13.475   3.011   4.283  3.1048  0.6335 -1.3499
  161MOL0     H21709  13.532   3.236   4.486  0.4853 -1.2665  1.3800
  161MOL0     H21710  13.566   3.062   4.516 -0.1151 -0.5178 -0.6401
  161MOL0     H21711  13.699   3.233   4.309  0.2472 -0.8223  0.7175
  161MOL0     H21712  13.729   3.058   4.310  0.0548 -2.0367  1.2255
  161MOL0     H21713  13.783   3.245   4.536  2.6835  2.3205 -1.8462
  161MOL0     H21714  13.852   3.078   4.516  2.7551  0.3876 -0.5998
  161MOL0     H21715  12.665   2.858   4.312  2.5368 -2.3911 -0.6904
  161MOL0     H21716  12.506   2.767   4.178  0.2213  0.1721  0.0985
  161MOL0     H21717  12.413   2.576   3.617 -0.2330  0.3043  2.0490
  161MOL0     H21718  12.202   2.512   3.507 -3.0200  1.0116 -0.9351
  161MOL0     H21719  10.097   3.067   3.429  0.7827  0.0121 -2.6146
  161MOL0     H21720   9.902   3.210   3.458  0.2680  1.0908  0.1560
  161MOL0     H21721   9.658   3.459   3.452  2.7265 -0.0024  0.7260
  161MOL0     H21722   9.455   3.570   3.494  0.4982  0.7041  0.0428
  161MOL0     H21723   9.298   3.702   3.540 -2.6538  1.9225  0.2886
  161MOL0     H21724   9.207   3.747   3.679 -0.6686 -0.9230 -0.0772
  161MOL0     H21725   9.312   3.467   3.702 -1.7185 -2.6756 -1.1558
  161MOL0     H21726   9.248   3.499   3.540  2.2516  0.1680  0.2719
  161MOL0     H21727   9.038   3.595   3.672  0.9303  0.8991  0.8779
  161MOL0     H21728   9.116   3.535   3.825 -2.8459 -1.7559  0.5592
  161MOL0     H21729   8.956   3.388   3.780  0.9852 -3.5408  0.5269
  161MOL0     H21730   9.001   3.368   3.610  0.1838 -0.7068 -0.6835
  161MOL0     H21731   9.254   3.102   3.821  0.3688  1.0724  1.5174
  161MOL0     H21732   9.618   3.747   3.840 -1.9557 -1.4522  0.2792
  161MOL0     H21733   9.969   3.667   3.765  0.6352 -2.6471  1.2691
  161MOL0     H21734   9.858   3.752   3.875  1.2168  0.9156 -1.0929
  161MOL0     H21735   9.870   3.577   3.885 -0.4268  0.6484  2.0033
  162MOL0     O21736   4.459   6.725   7.654 -0.0767 -0.0026  0.7900
  162MOL0     C21737   4.450   6.835   7.597 -0.0337 -0.3863 -0.3647
  162MOL0     O21738   4.554   6.918   7.571 -0.0806 -0.6724  0.2197
  162MOL0     C21739   4.677   6.861   7.565 -0.1716  0.9528  0.0292
  162MOL0     C21740   4.788   6.925   7.620  0.0090 -0.2197  0.6086
  162MOL0     C21741   4.915   6.873   7.606 -1.1668 -0.2083 -0.2998
  162MOL0     C21742   4.935   6.752   7.536 -0.7103  0.4960 -0.4147
  162MOL0     O21743   5.064   6.704   7.526 -0.8376 -0.0368  0.5342
  162MOL0     C21744   5.101   6.690   7.387 -0.3107  0.4844 -0.5124
  162MOL0     C21745   5.246   6.642   7.386  0.8374 -0.6641 -0.0815
  162MOL0     C21746   5.346   6.740   7.433 -0.7288 -1.1085 -0.6778
  162MOL0     C21747   5.486   6.687   7.392  0.8319  0.7102  0.7137
  162MOL0     C21748   5.594   6.790   7.412  0.1090 -0.3679 -0.1597
  162MOL0     C21749   5.657   6.798   7.561  0.1688 -0.6918  0.2021
  162MOL0     C21750   5.754   6.678   7.586 -0.3293  0.0801 -0.2294
  162MOL0     C21751   5.820   6.689   7.722  0.3805  0.0566  0.2262
  162MOL0     N21752   5.904   6.806   7.748 -0.2348  0.0185 -0.3312
  162MOL0     C21753   6.020   6.835   7.681 -0.0133  0.2867  0.3967
  162MOL0     C21754   6.053   6.957   7.726 -0.1441  1.0937 -0.4683
  162MOL0     C21755   6.152   7.058   7.687  0.0546  0.0968 -0.4447
  162MOL0     C21756   6.299   6.996   7.675  0.1015 -0.0148  0.4609
  162MOL0     C21757   6.407   7.109   7.678 -0.2770  0.6884 -0.1885
  162MOL0     C21758   6.539   7.040   7.662 -0.1017 -0.2382 -0.2222
  162MOL0     O21759   6.640   7.133   7.646  0.3116 -0.0789  0.3155
  162MOL0     C21760   6.767   7.095   7.661  0.4067  0.0464  0.9262
  162MOL0     C21761   6.848   7.153   7.754  1.0094 -0.2939  0.4776
  162MOL0     C21762   6.970   7.097   7.785  0.3216 -0.3928 -0.6860
  162MOL0     C21763   7.014   6.988   7.714 -0.0756  0.1012  0.6513
  162MOL0     C21764   7.147   6.932   7.751  0.2376 -0.0909 -0.0528
  162MOL0     O21765   7.182   6.803   7.698  0.8092  0.0369 -0.1593
  162MOL0     C21766   7.300   6.733   7.721  0.1732 -0.3645  0.9372
  162MOL0     C21767   7.289   6.601   7.747 -0.2055  0.4467 -0.6931
  162MOL0     C21768   7.406   6.526   7.773  0.5087 -0.1130  0.7234
  162MOL0     C21769   7.529   6.585   7.752  0.0033  0.8197 -0.0187
  162MOL0     O21770   7.639   6.514   7.786 -0.0682 -0.1018  0.8649
  162MOL0     C21771   7.768   6.565   7.759  0.1210 -0.1298  0.3761
  162MOL0     C21772   7.871   6.459   7.799 -0.5231  0.3118  0.6311
  162MOL0     C21773   8.019   6.519   7.794 -0.2315 -0.4651  0.1715
  162MOL0     C21774   8.131   6.433   7.737  0.9491 -0.4678  0.0885
  162MOL0     C21775   8.262   6.507   7.740 -0.0419 -0.7029 -0.9919
  162MOL0     C21776   8.366   6.439   7.653 -0.2033 -0.4055 -0.0440
  162MOL0     C21777   8.487   6.530   7.628  0.3299  0.1320  0.0200
  162MOL0     C21778   8.593   6.449   7.558 -0.6461  0.6787 -0.2709
  162MOL0    Cl21779   8.743   6.547   7.524 -0.2989 -0.0511 -0.3429
  162MOL0     C21780   7.538   6.716   7.710  0.5422 -0.6002  1.0900
  162MOL0     C21781   7.424   6.789   7.700 -0.3588  0.0422  0.4451
  162MOL0     O21782   7.227   6.990   7.825 -0.4381 -0.0685 -0.1730
  162MOL0     C21783   6.937   6.934   7.608 -0.6828 -0.3355 -1.4025
  162MOL0     C21784   6.821   6.996   7.572 -0.2913  0.6886 -0.1234
  162MOL0     N21785   5.960   6.996   7.823  0.5831  0.3265 -0.0194
  162MOL0     N21786   5.874   6.903   7.839 -0.4556 -0.4674  0.4159
  162MOL0     C21787   4.825   6.683   7.480 -1.2906  0.0535  0.0691
  162MOL0     C21788   4.699   6.740   7.490 -0.1460 -0.1624  0.6016
  162MOL0     C21789   4.310   6.873   7.564  0.1832  0.0792 -0.1794
  162MOL0     C21790   4.291   7.002   7.506 -0.1299  0.3411 -0.2612
  162MOL0     C21791   4.169   7.065   7.480 -0.3742  0.6586  0.0765
  162MOL0     C21792   4.057   6.985   7.504 -0.6560 -0.2506 -0.4023
  162MOL0     O21793   3.927   7.022   7.479 -0.2422  0.0405 -0.3635
  162MOL0     C21794   3.892   7.147   7.415  1.0183 -0.2440 -0.0793
  162MOL0     C21795   3.739   7.148   7.402  0.1895  1.0716 -0.3724
  162MOL0     C21796   3.677   7.167   7.540 -0.1768  0.3735 -0.3593
  162MOL0     C21797   3.532   7.194   7.531  0.7128 -0.4778 -0.2780
  162MOL0     C21798   3.459   7.064   7.537  0.0628  0.6996  0.1616
  162MOL0     C21799   3.402   6.964   7.562 -0.1926 -0.0448  0.3830
  162MOL0     C21800   4.066   6.849   7.538 -0.9288 -0.2734 -0.2375
  162MOL0     C21801   4.190   6.790   7.570 -0.1289 -0.3116 -1.0440
  162MOL0     C21802   4.188   6.655   7.621  0.4730 -0.4023 -0.6211
  162MOL0     H21803   4.772   7.015   7.678 -0.8390  0.2773 -0.3678
  162MOL0     H21804   5.001   6.918   7.654  1.2697 -3.8609 -0.8998
  162MOL0     H21805   5.044   6.611   7.337 -1.0214  2.7238 -3.5942
  162MOL0     H21806   5.077   6.785   7.337 -0.9296  0.8374  0.4262
  162MOL0     H21807   5.271   6.621   7.281 -0.8708 -1.8708 -0.2923
  162MOL0     H21808   5.266   6.554   7.449  2.4405  0.5393  1.1620
  162MOL0     H21809   5.328   6.755   7.540  0.8740 -1.2311 -0.3613
  162MOL0     H21810   5.328   6.844   7.406 -4.5327 -0.3394  3.5997
  162MOL0     H21811   5.516   6.597   7.446  1.5325  0.8620  0.5985
  162MOL0     H21812   5.491   6.668   7.285 -0.6384  1.4945  0.4840
  162MOL0     H21813   5.680   6.770   7.348  1.5044 -0.9776  1.8066
  162MOL0     H21814   5.541   6.881   7.382 -0.6446  0.5887  3.5026
  162MOL0     H21815   5.715   6.890   7.572 -0.3509 -0.2199 -0.8604
  162MOL0     H21816   5.572   6.792   7.629 -0.0753 -1.4962 -0.1681
  162MOL0     H21817   5.840   6.678   7.518 -0.1490 -2.2492 -0.0778
  162MOL0     H21818   5.701   6.583   7.571 -0.5994  0.4945 -2.2814
  162MOL0     H21819   5.752   6.659   7.802  1.4001 -2.4535  0.2626
  162MOL0     H21820   5.898   6.612   7.734  2.5222  2.2082  0.9006
  162MOL0     H21821   6.061   6.776   7.599  1.1267 -0.2970  1.3511
  162MOL0     H21822   6.123   7.085   7.585  1.4929  0.2098 -0.8481
  162MOL0     H21823   6.150   7.147   7.749 -0.4137 -0.8811  0.9846
  162MOL0     H21824   6.315   6.922   7.754  0.4490 -0.7254 -0.2634
  162MOL0     H21825   6.303   6.943   7.580  0.9498 -2.0612  1.5764
  162MOL0     H21826   6.380   7.161   7.770  3.4560  4.5928 -0.9839
  162MOL0     H21827   6.403   7.172   7.589  1.9917 -1.1753 -1.7389
  162MOL0     H21828   6.536   6.971   7.577  0.0064  1.9834 -2.1042
  162MOL0     H21829   6.566   6.981   7.751 -3.3857  0.8310  1.6463
  162MOL0     H21830   6.812   7.232   7.818  0.1733 -0.4520  0.2205
  162MOL0     H21831   7.025   7.141   7.867  0.5196  0.8368 -1.4520
  162MOL0     H21832   7.196   6.545   7.755 -0.1395  0.5207  0.9738
  162MOL0     H21833   7.390   6.423   7.803 -4.8576  0.2242 -0.1417
  162MOL0     H21834   7.785   6.588   7.653  0.5307 -0.9783  0.2504
  162MOL0     H21835   7.772   6.658   7.817 -0.2837  1.0782 -1.4236
  162MOL0     H21836   7.854   6.412   7.896 -0.8470 -1.5321 -0.2650
  162MOL0     H21837   7.864   6.375   7.729  0.1409  1.4576 -0.8823
  162MOL0     H21838   8.021   6.608   7.731  0.7702 -1.5653 -1.4294
  162MOL0     H21839   8.050   6.545   7.896 -0.3479  1.4622 -0.2477
  162MOL0     H21840   8.109   6.420   7.630 -0.1217  0.9937  0.1005
  162MOL0     H21841   8.140   6.331   7.774  3.3564 -0.1790  0.4601
  162MOL0     H21842   8.300   6.515   7.842 -0.6347 -2.9983 -0.5278
  162MOL0     H21843   8.237   6.608   7.707  0.8669 -0.3570 -0.6684
  162MOL0     H21844   8.392   6.345   7.702 -2.0892 -2.0195 -1.9194
  162MOL0     H21845   8.334   6.401   7.555  0.9435 -3.7722  0.7673
  162MOL0     H21846   8.526   6.571   7.722 -2.4071  0.1830  1.2114
  162MOL0     H21847   8.459   6.604   7.552 -0.5941  2.4694  2.4612
  162MOL0     H21848   8.634   6.376   7.628 -1.3704  1.1734  0.6903
  162MOL0     H21849   8.548   6.404   7.469  0.6468 -1.0393 -0.1164
  162MOL0     H21850   7.631   6.767   7.690 -1.7645  3.5450 -0.1603
  162MOL0     H21851   7.430   6.890   7.661  1.2662 -0.6897 -1.3989
  162MOL0     H21852   6.982   6.853   7.551 -0.6197 -1.2537 -0.0924
  162MOL0     H21853   6.759   6.945   7.499 -2.5838  0.1524  2.0632
  162MOL0     H21854   4.849   6.594   7.423  3.2747 -0.1138  1.8450
  162MOL0     H21855   4.612   6.692   7.446  0.7581 -2.2723  1.0000
  162MOL0     H21856   4.380   7.061   7.487 -0.9673  1.7374 -0.0418
  162MOL0     H21857   4.155   7.167   7.447  0.7458  0.5509 -0.8063
  162MOL0     H21858   3.929   7.154   7.313 -1.2393  0.6271 -0.9181
  162MOL0     H21859   3.916   7.245   7.457 -0.1760  1.4169 -3.0023
  162MOL0     H21860   3.708   7.050   7.363 -0.3902  0.9776  0.3025
  162MOL0     H21861   3.712   7.229   7.333 -0.2472  0.2602 -1.1858
  162MOL0     H21862   3.727   7.253   7.585  0.5301 -0.1030 -0.2194
  162MOL0     H21863   3.699   7.083   7.606  2.5728 -0.8801 -2.6472
  162MOL0     H21864   3.500   7.252   7.618  1.4582 -0.8709  0.2763
  162MOL0     H21865   3.506   7.250   7.440  0.0690 -0.6688 -0.2135
  162MOL0     H21866   3.359   6.873   7.599  0.4078 -1.6903 -2.6350
  162MOL0     H21867   3.977   6.787   7.542 -2.1613  1.4420  0.3061
  162MOL0     H21868   4.090   6.608   7.609 -0.5680  1.7586 -1.0746
  162MOL0     H21869   4.261   6.593   7.568  1.5246 -0.5205  0.8965
  162MOL0     H21870   4.203   6.672   7.728  0.4239 -0.4398 -0.6075
  163MOL0     O21871   5.847   8.806   4.811 -0.7460  0.0852 -0.0847
  163MOL0     C21872   5.816   8.919   4.772  1.1661  0.1156  0.4792
  163MOL0     O21873   5.902   9.021   4.769 -0.3052  0.5146 -0.0446
  163MOL0     C21874   6.033   8.990   4.791 -0.3105  0.9620  0.1638
  163MOL0     C21875   6.121   8.980   4.683 -0.6980 -0.0369 -0.3782
  163MOL0     C21876   6.251   8.949   4.712 -0.4348 -0.0540 -0.3742
  163MOL0     C21877   6.300   8.922   4.846 -0.0176  0.7056  0.5668
  163MOL0     O21878   6.427   8.887   4.877  0.7501  0.1854  0.0745
  163MOL0     C21879   6.509   8.823   4.781  0.1489 -0.2234 -0.0302
  163MOL0     C21880   6.635   8.774   4.842 -0.5912  0.0929  0.6470
  163MOL0     C21881   6.595   8.668   4.941 -0.3903  0.0098  0.3625
  163MOL0     C21882   6.729   8.592   4.993  0.5167 -0.6429 -0.7038
  163MOL0     C21883   6.687   8.501   5.107 -0.1708 -0.4960 -0.6765
  163MOL0     C21884   6.807   8.429   5.168  0.4684 -0.1632 -0.6978
  163MOL0     C21885   6.870   8.508   5.282  0.3684 -1.3290  0.2885
  163MOL0     C21886   6.989   8.422   5.333 -0.6880  0.0953  0.0125
  163MOL0     N21887   7.104   8.431   5.239 -0.4419 -0.0755 -0.2167
  163MOL0     C21888   7.159   8.549   5.197  0.1113  0.1049  0.0671
  163MOL0     C21889   7.247   8.509   5.106 -0.4193 -0.0502  0.6269
  163MOL0     C21890   7.322   8.610   5.016 -0.4645 -0.0901 -0.0444
  163MOL0     C21891   7.261   8.657   4.894  0.5709  0.3944 -0.2465
  163MOL0     C21892   7.225   8.550   4.794  0.0638 -0.3438 -0.0905
  163MOL0     C21893   7.086   8.486   4.819 -0.2564 -1.0421 -0.2997
  163MOL0     O21894   7.057   8.392   4.722  0.2309  0.1435  1.0441
  163MOL0     C21895   6.935   8.343   4.735  0.1537 -0.4049 -0.0486
  163MOL0     C21896   6.844   8.405   4.651  0.2806  0.0885 -0.2539
  163MOL0     C21897   6.704   8.367   4.677 -0.1854 -0.6465 -0.1177
  163MOL0     C21898   6.667   8.272   4.773  0.5443  0.2868 -0.5895
  163MOL0     C21899   6.526   8.226   4.792  0.1814  0.4160 -0.3093
  163MOL0     O21900   6.503   8.169   4.915  0.4888  0.2082 -0.0548
  163MOL0     C21901   6.371   8.125   4.942  0.3982 -1.1714 -0.1075
  163MOL0     C21902   6.322   8.014   4.871 -0.5572  0.2703 -0.2684
  163MOL0     C21903   6.184   7.974   4.904 -0.2897  0.1491 -0.1606
  163MOL0     C21904   6.106   8.043   4.994 -0.3890  0.1724 -0.7313
  163MOL0     O21905   5.979   8.007   5.032  0.4805 -0.3230 -0.4201
  163MOL0     C21906   5.963   7.861   5.067  0.4793  0.1679  0.7080
  163MOL0     C21907   5.815   7.829   5.096 -0.0595  0.1284  0.2152
  163MOL0     C21908   5.724   7.894   4.989 -0.0241 -0.5842  0.6111
  163MOL0     C21909   5.714   7.832   4.854  0.4382  0.1363  0.7536
  163MOL0     C21910   5.644   7.907   4.745  0.0385 -0.3497  0.3216
  163MOL0     C21911   5.493   7.915   4.766  0.4458 -0.4419  0.5500
  163MOL0     C21912   5.415   7.789   4.789  0.5191 -0.1402  0.2499
  163MOL0     C21913   5.263   7.824   4.774  0.1954 -0.3980 -0.5647
  163MOL0    Cl21914   5.178   7.676   4.806  0.1245 -0.0720  0.0006
  163MOL0     C21915   6.164   8.153   5.058  0.7780 -0.0593 -0.4449
  163MOL0     C21916   6.293   8.189   5.035 -0.1305  0.7963  0.8609
  163MOL0     O21917   6.437   8.249   4.709  0.5243 -0.2373  0.1221
  163MOL0     C21918   6.769   8.211   4.848 -0.4959 -0.0158  0.4004
  163MOL0     C21919   6.900   8.251   4.839 -0.9265 -0.3856 -0.4883
  163MOL0     N21920   7.255   8.371   5.106  0.5598 -0.6300  0.5080
  163MOL0     N21921   7.168   8.333   5.181 -0.0512 -0.5283 -0.4838
  163MOL0     C21922   6.213   8.956   4.956 -0.1378  0.2019  0.7862
  163MOL0     C21923   6.080   8.987   4.925 -0.0913 -0.0663  0.3476
  163MOL0     C21924   5.683   8.934   4.709  0.3253 -0.0392 -0.6754
  163MOL0     C21925   5.676   8.998   4.589  0.0920 -0.0697 -0.3930
  163MOL0     C21926   5.552   9.024   4.521 -0.3259  0.0610 -0.6751
  163MOL0     C21927   5.430   8.978   4.578  0.2262 -0.8261 -0.1678
  163MOL0     O21928   5.311   8.990   4.511  0.2102 -0.6025 -0.3419
  163MOL0     C21929   5.301   9.082   4.402 -0.0376  0.2180 -0.0319
  163MOL0     C21930   5.297   9.226   4.438  0.7048 -0.0000  0.3712
  163MOL0     C21931   5.175   9.248   4.532  0.3554  1.1462  0.3110
  163MOL0     C21932   5.047   9.223   4.459  0.5033 -0.3996 -0.0503
  163MOL0     C21933   4.930   9.238   4.555 -0.1561  0.2290 -0.0992
  163MOL0     C21934   4.838   9.241   4.630  0.2732  0.5303 -0.3963
  163MOL0     C21935   5.434   8.902   4.691  1.0985  0.1718 -0.7174
  163MOL0     C21936   5.556   8.883   4.761  0.7401 -0.8854 -0.4179
  163MOL0     C21937   5.547   8.793   4.886  0.1009 -0.4859  0.2212
  163MOL0     H21938   6.084   9.004   4.583 -0.8870  0.1623 -0.2616
  163MOL0     H21939   6.326   8.951   4.634  3.5183 -0.2454  3.0767
  163MOL0     H21940   6.453   8.737   4.742 -0.4906 -0.2089  0.8162
  163MOL0     H21941   6.550   8.886   4.701  2.1380 -0.6989  0.5557
  163MOL0     H21942   6.690   8.855   4.891 -1.1852  0.4541  0.7344
  163MOL0     H21943   6.697   8.736   4.760 -1.0637  0.0229  0.3168
  163MOL0     H21944   6.532   8.595   4.890  3.0537 -0.7151 -3.3658
  163MOL0     H21945   6.542   8.718   5.023  0.7911  0.2326  1.0172
  163MOL0     H21946   6.790   8.548   4.914 -0.3714  0.6188 -2.1480
  163MOL0     H21947   6.787   8.678   5.026  2.2146 -1.3506 -1.6922
  163MOL0     H21948   6.625   8.551   5.182  0.4961 -2.0240  0.9697
  163MOL0     H21949   6.626   8.421   5.063  0.3466 -2.0565  1.2668
  163MOL0     H21950   6.771   8.338   5.217  0.8302  0.7185  1.2835
  163MOL0     H21951   6.872   8.397   5.086  0.0373 -2.1631 -0.3069
  163MOL0     H21952   6.795   8.526   5.359  0.7834  0.9690  0.2318
  163MOL0     H21953   6.903   8.602   5.237 -3.9109  0.9086  1.3079
  163MOL0     H21954   7.029   8.466   5.426 -2.1305  0.4654  0.4859
  163MOL0     H21955   6.963   8.316   5.339 -0.0213 -0.3039 -2.9697
  163MOL0     H21956   7.135   8.653   5.220  0.9839 -0.0117  1.6843
  163MOL0     H21957   7.336   8.702   5.073 -2.5717 -0.5451  1.3249
  163MOL0     H21958   7.418   8.564   4.992 -0.3628 -0.7104  1.4355
  163MOL0     H21959   7.178   8.719   4.929 -1.3540 -1.9682 -0.3627
  163MOL0     H21960   7.333   8.719   4.840 -0.0737 -0.6918 -2.4205
  163MOL0     H21961   7.307   8.478   4.803  0.9377  0.5694 -0.5375
  163MOL0     H21962   7.229   8.595   4.695  2.3092  1.1288  0.5919
  163MOL0     H21963   7.014   8.566   4.838  2.4919  0.8963  3.4974
  163MOL0     H21964   7.097   8.427   4.911  1.7886 -0.7124 -0.2781
  163MOL0     H21965   6.860   8.477   4.571 -0.7409 -0.7929 -1.2688
  163MOL0     H21966   6.628   8.424   4.625  0.7539 -0.8389 -1.7843
  163MOL0     H21967   6.382   7.949   4.808  1.8874  0.0239  2.1431
  163MOL0     H21968   6.151   7.884   4.854  2.0859 -2.3651  2.4383
  163MOL0     H21969   5.995   7.808   4.977  2.6710  1.8414  0.3960
  163MOL0     H21970   6.029   7.835   5.150  2.1136 -1.0853 -0.8852
  163MOL0     H21971   5.808   7.722   5.073 -0.8511  0.3683 -0.7334
  163MOL0     H21972   5.783   7.848   5.199  0.6462  3.1735 -0.0385
  163MOL0     H21973   5.617   7.898   5.012 -0.5893 -0.0779 -1.8035
  163MOL0     H21974   5.753   8.000   4.984  0.0170 -0.5818  0.9254
  163MOL0     H21975   5.668   7.734   4.867 -1.6955  1.2869  2.4813
  163MOL0     H21976   5.815   7.816   4.813  1.0718 -1.8024  2.8338
  163MOL0     H21977   5.666   7.856   4.651 -0.8371 -0.0127 -0.0700
  163MOL0     H21978   5.693   8.005   4.735  1.9675 -1.3578 -0.7489
  163MOL0     H21979   5.471   7.982   4.850  1.8610 -1.9059  2.1705
  163MOL0     H21980   5.460   7.976   4.682  2.3521  1.0646  0.8079
  163MOL0     H21981   5.433   7.759   4.893 -2.0398  2.3981  1.5691
  163MOL0     H21982   5.443   7.707   4.722  0.9147 -1.7390  2.2491
  163MOL0     H21983   5.230   7.900   4.845  1.2275  0.0980 -0.5918
  163MOL0     H21984   5.236   7.858   4.674 -0.0138 -3.8305 -1.7935
  163MOL0     H21985   6.105   8.211   5.129  1.5323 -0.5593  0.6206
  163MOL0     H21986   6.334   8.272   5.092 -0.0293  0.9149  0.6196
  163MOL0     H21987   6.754   8.148   4.935 -0.8335 -0.2024  0.2084
  163MOL0     H21988   6.972   8.216   4.912 -0.0979  4.1657  1.2268
  163MOL0     H21989   6.253   8.965   5.057  0.3881 -2.2066  0.8504
  163MOL0     H21990   6.010   9.018   5.003  0.8295  1.1353  0.7185
  163MOL0     H21991   5.770   9.021   4.539  0.6360  0.2763  0.7561
  163MOL0     H21992   5.554   9.061   4.419  0.8459  1.8260 -0.0615
  163MOL0     H21993   5.213   9.061   4.340 -0.4075  1.5455  0.0131
  163MOL0     H21994   5.386   9.059   4.337  1.1942 -3.4263  2.4893
  163MOL0     H21995   5.293   9.283   4.345  2.0889  1.3763  1.0900
  163MOL0     H21996   5.386   9.250   4.498  0.6739 -0.6827  0.6961
  163MOL0     H21997   5.185   9.338   4.593  3.9545  0.0458  1.5816
  163MOL0     H21998   5.174   9.175   4.613  0.1428  0.5410 -0.2282
  163MOL0     H21999   5.042   9.293   4.375  3.2617 -1.2515 -1.0533
  163MOL0     H22000   5.045   9.124   4.413  3.5116 -0.7737  0.3998
  163MOL0     H22001   4.749   9.260   4.687 -0.5485 -1.6038 -0.8675
  163MOL0     H22002   5.349   8.846   4.727  0.4844  1.7791  0.4520
  163MOL0     H22003   5.625   8.823   4.957 -0.1525  1.1736 -0.1651
  163MOL0     H22004   5.447   8.795   4.929  0.5510 -2.1601  1.4407
  163MOL0     H22005   5.564   8.688   4.859 -0.6550 -0.1534 -1.7400
  164MOL0     O22006   0.058   5.752   1.425 -0.2843  0.5332  0.0620
  164MOL0     C22007   0.156   5.683   1.394 -0.4864  0.7419  0.0812
  164MOL0     O22008   0.283   5.727   1.388  0.1927  0.0369  0.5877
  164MOL0     C22009   0.314   5.837   1.466 -0.0753  0.3771 -0.0808
  164MOL0     C22010   0.259   5.866   1.590  0.7337  0.0341 -0.3442
  164MOL0     C22011   0.311   5.975   1.670 -0.3448  1.4655 -0.1199
  164MOL0     C22012   0.409   6.055   1.616 -0.0438 -0.1419  0.2588
  164MOL0     O22013   0.457   6.141   1.707 -0.5371  0.5295 -0.0911
  164MOL0     C22014   0.459   6.279   1.665  0.8910  0.5327 -0.1934
  164MOL0     C22015   0.477   6.349   1.793  0.7894 -0.7308  0.4507
  164MOL0     C22016   0.485   6.502   1.769  0.4015 -0.4994  0.4059
  164MOL0     C22017   0.543   6.578   1.882  0.2373 -0.2390 -0.0424
  164MOL0     C22018   0.696   6.558   1.879  0.9968  0.1707 -0.0192
  164MOL0     C22019   0.765   6.624   1.766  0.6142 -0.0074  0.1999
  164MOL0     C22020   0.902   6.666   1.823  1.0747  0.7703  0.1801
  164MOL0     C22021   0.984   6.738   1.728 -0.2811 -0.7827  0.0822
  164MOL0     N22022   1.120   6.764   1.782 -0.2417  0.3080 -0.0678
  164MOL0     C22023   1.235   6.691   1.748  0.7795  0.5072  0.0848
  164MOL0     C22024   1.330   6.745   1.819 -0.8311 -1.5321 -0.2042
  164MOL0     C22025   1.478   6.696   1.817 -0.1988 -0.0442  0.1905
  164MOL0     C22026   1.538   6.754   1.687  0.6358  0.2504  0.3715
  164MOL0     C22027   1.575   6.906   1.709  0.7219  0.2726  0.1651
  164MOL0     C22028   1.717   6.925   1.768  0.0575 -0.7729  0.8127
  164MOL0     O22029   1.730   6.880   1.902 -0.4922 -0.4273  0.4253
  164MOL0     C22030   1.854   6.897   1.959  0.6484  0.6486 -0.4931
  164MOL0     C22031   1.978   6.906   1.895 -0.2573  0.5569 -0.8748
  164MOL0     C22032   2.097   6.926   1.966  0.6714 -0.4015 -1.1269
  164MOL0     C22033   2.097   6.922   2.107 -0.7562  0.5231 -0.3000
  164MOL0     C22034   2.217   6.921   2.193 -0.2181 -0.6629 -0.0634
  164MOL0     O22035   2.193   6.990   2.309 -0.2112  0.5668  0.6654
  164MOL0     C22036   2.296   7.038   2.389 -0.8647  0.0426 -0.3923
  164MOL0     C22037   2.263   7.049   2.525  0.4736  0.0721 -0.0696
  164MOL0     C22038   2.362   7.087   2.620  0.2965  0.0917  0.6413
  164MOL0     C22039   2.498   7.099   2.582  0.0774 -0.6875 -0.2649
  164MOL0     O22040   2.587   7.138   2.685 -0.1549 -0.0615  1.1881
  164MOL0     C22041   2.722   7.161   2.634 -0.4725 -0.5044  0.9363
  164MOL0     C22042   2.813   7.223   2.743 -0.3111 -0.3563  0.1508
  164MOL0     C22043   2.924   7.318   2.681 -0.1105 -0.0933  0.0577
  164MOL0     C22044   3.011   7.388   2.792  0.5395 -0.0780 -0.0994
  164MOL0     C22045   3.129   7.473   2.734 -0.0379 -0.1142 -0.0642
  164MOL0     C22046   3.250   7.385   2.715 -1.2312  0.1210 -0.3610
  164MOL0     C22047   3.356   7.456   2.635  0.0823 -0.8647  0.3012
  164MOL0     C22048   3.477   7.371   2.601  0.4327  0.9414 -0.5811
  164MOL0    Cl22049   3.523   7.276   2.735  0.4182 -0.2247 -0.1504
  164MOL0     C22050   2.538   7.087   2.445  0.2995  0.0938  0.5340
  164MOL0     C22051   2.430   7.066   2.351  0.5841 -0.4493  0.5121
  164MOL0     O22052   2.325   6.891   2.148 -0.6438  0.1744  0.3156
  164MOL0     C22053   1.978   6.909   2.169 -0.2496  0.5195 -0.5174
  164MOL0     C22054   1.856   6.899   2.099 -0.1218 -0.9192  0.4252
  164MOL0     N22055   1.282   6.839   1.901  0.1740  0.2289 -0.5725
  164MOL0     N22056   1.161   6.849   1.880 -0.0858  0.0120  0.5997
  164MOL0     C22057   0.460   6.032   1.493  0.0556 -0.6083 -0.2907
  164MOL0     C22058   0.410   5.926   1.417 -0.2316  0.1007  0.6802
  164MOL0     C22059   0.137   5.539   1.345 -0.5617 -0.0938  0.0167
  164MOL0     C22060   0.249   5.463   1.315 -0.8903 -0.0987 -0.1478
  164MOL0     C22061   0.238   5.334   1.284 -0.4170  0.8172  0.0627
  164MOL0     C22062   0.116   5.265   1.288 -0.0143 -0.8979  0.0264
  164MOL0     O22063   0.115   5.131   1.248  0.7374  0.4130  0.0020
  164MOL0     C22064  -0.011   5.091   1.187  0.6813  0.5263  0.1526
  164MOL0     C22065   0.005   4.956   1.116 -0.0450  0.0483  0.4038
  164MOL0     C22066  -0.102   4.945   1.012  0.0366  0.3275 -0.0549
  164MOL0     C22067  -0.122   4.810   0.944  0.1915 -0.0521 -0.3042
  164MOL0     C22068  -0.249   4.789   0.875 -0.3905 -0.6887 -1.2653
  164MOL0     C22069  -0.356   4.774   0.818 -0.2960  0.3722 -0.0481
  164MOL0     C22070   0.005   5.339   1.327  0.3377 -0.0067  0.3551
  164MOL0     C22071   0.015   5.473   1.353 -0.6020 -0.3778  0.1297
  164MOL0     C22072  -0.117   5.543   1.386 -0.2242 -0.0906  0.3260
  164MOL0     H22073   0.181   5.803   1.632  0.7415  0.4461  0.3034
  164MOL0     H22074   0.288   5.994   1.774  2.2250 -0.3695  0.8750
  164MOL0     H22075   0.544   6.301   1.600  0.9259 -0.6717 -0.5871
  164MOL0     H22076   0.368   6.306   1.610  1.8494 -0.5124 -2.4084
  164MOL0     H22077   0.561   6.310   1.850  1.4115  1.6870  1.2861
  164MOL0     H22078   0.382   6.329   1.844 -0.9134 -4.3391 -3.5036
  164MOL0     H22079   0.383   6.542   1.764  0.5771  0.0063  0.7969
  164MOL0     H22080   0.540   6.524   1.677 -1.2741 -0.7161 -0.6825
  164MOL0     H22081   0.512   6.683   1.877 -0.6640 -0.4699  0.4038
  164MOL0     H22082   0.503   6.549   1.980  0.6425  1.4120  0.6523
  164MOL0     H22083   0.723   6.601   1.975 -1.4531 -2.7299  2.1989
  164MOL0     H22084   0.731   6.455   1.893  2.0487  0.5779  0.4059
  164MOL0     H22085   0.773   6.568   1.673  0.9698 -1.0472  0.8371
  164MOL0     H22086   0.706   6.713   1.741  1.8107  1.3989  2.1296
  164MOL0     H22087   0.949   6.586   1.882 -2.4158 -1.7462 -0.1169
  164MOL0     H22088   0.872   6.744   1.894  2.4012  0.0106  1.6272
  164MOL0     H22089   0.999   6.687   1.633  2.3950  1.0727 -0.6226
  164MOL0     H22090   0.937   6.835   1.711 -1.2012 -1.2969 -0.3260
  164MOL0     H22091   1.250   6.617   1.670  2.2382  0.2471  0.5781
  164MOL0     H22092   1.530   6.730   1.908  3.8292 -2.5546 -0.9163
  164MOL0     H22093   1.479   6.587   1.824 -0.9627  0.0374  3.3009
  164MOL0     H22094   1.624   6.694   1.654  0.2921 -0.1232  0.1400
  164MOL0     H22095   1.461   6.750   1.609 -1.3550  0.0087  2.2488
  164MOL0     H22096   1.498   6.961   1.765  1.3228  0.5136  0.7621
  164MOL0     H22097   1.579   6.949   1.609  0.6431 -1.2362 -0.5267
  164MOL0     H22098   1.757   7.027   1.763 -0.2279 -0.5857  2.0433
  164MOL0     H22099   1.781   6.874   1.695 -0.7041 -0.5287 -0.0333
  164MOL0     H22100   1.993   6.892   1.788  1.8077  1.3015 -0.7402
  164MOL0     H22101   2.190   6.931   1.912 -0.1693  1.2221 -2.5457
  164MOL0     H22102   2.163   7.020   2.552  0.3683 -1.0242 -1.5622
  164MOL0     H22103   2.339   7.103   2.724 -0.4205  2.9005  0.1501
  164MOL0     H22104   2.784   7.073   2.612 -0.0759 -0.1678  0.6923
  164MOL0     H22105   2.727   7.216   2.540  1.4070 -1.8527  0.1625
  164MOL0     H22106   2.751   7.277   2.815  1.4205  2.3008 -0.1895
  164MOL0     H22107   2.862   7.143   2.799  0.0437 -1.1701 -1.2896
  164MOL0     H22108   2.994   7.254   2.627  2.7386  0.7995  2.3641
  164MOL0     H22109   2.884   7.400   2.622 -1.8285 -1.2351 -0.4129
  164MOL0     H22110   3.055   7.308   2.851 -0.1660 -0.7908 -0.5158
  164MOL0     H22111   2.944   7.446   2.856  0.8411 -1.5118  1.5666
  164MOL0     H22112   3.166   7.555   2.795  0.5661 -1.3735  1.3284
  164MOL0     H22113   3.095   7.502   2.634 -2.1678 -0.1520  0.6130
  164MOL0     H22114   3.297   7.363   2.811 -0.0049  0.9339 -0.7567
  164MOL0     H22115   3.229   7.290   2.666 -1.3024  0.0456 -0.1868
  164MOL0     H22116   3.394   7.533   2.703  2.1584 -1.5633  0.0236
  164MOL0     H22117   3.322   7.515   2.550  0.7480  3.0656  2.5273
  164MOL0     H22118   3.443   7.303   2.522  0.2058 -0.2500  0.5144
  164MOL0     H22119   3.555   7.437   2.562 -0.8911  2.3242 -0.9916
  164MOL0     H22120   2.638   7.093   2.403  0.2374 -2.3509 -0.1428
  164MOL0     H22121   2.448   7.081   2.245 -0.1857 -0.5814  0.3569
  164MOL0     H22122   1.958   6.889   2.274 -2.9020  2.9637 -0.4367
  164MOL0     H22123   1.767   6.894   2.161 -0.6817 -0.2168 -0.2902
  164MOL0     H22124   0.548   6.086   1.460  0.1557  0.7161  1.9078
  164MOL0     H22125   0.453   5.901   1.320  1.0302 -0.3760  1.3341
  164MOL0     H22126   0.345   5.513   1.316 -2.1510  2.5670  1.7682
  164MOL0     H22127   0.328   5.280   1.254 -0.5293 -1.8088  3.8305
  164MOL0     H22128  -0.047   5.168   1.119 -0.6868 -0.0845  0.1592
  164MOL0     H22129  -0.089   5.081   1.263 -3.8210 -0.8514 -4.1416
  164MOL0     H22130  -0.008   4.877   1.191  0.1095 -1.7524 -1.3870
  164MOL0     H22131   0.101   4.946   1.066 -1.0300  0.0194 -1.5794
  164MOL0     H22132  -0.084   5.021   0.934  1.1924 -0.4040 -0.5376
  164MOL0     H22133  -0.194   4.986   1.054 -0.3220  2.2122 -2.4301
  164MOL0     H22134  -0.038   4.794   0.875  0.2599 -0.5961 -0.1022
  164MOL0     H22135  -0.104   4.732   1.018  1.0884  0.2012 -0.2422
  164MOL0     H22136  -0.449   4.746   0.774  0.0514 -2.3216  0.7199
  164MOL0     H22137  -0.090   5.287   1.326  1.0742 -1.4452  1.6781
  164MOL0     H22138  -0.199   5.471   1.379  0.1469 -0.7564  2.2232
  164MOL0     H22139  -0.114   5.583   1.487 -1.2578  2.3206 -0.5215
  164MOL0     H22140  -0.143   5.629   1.323  1.1214  0.4612  0.4940
  165MOL0     O22141   1.058   4.297   2.159  0.8250  0.0875  0.2372
  165MOL0     C22142   0.935   4.268   2.145 -0.6593  0.5590  0.7645
  165MOL0     O22143   0.865   4.210   2.243 -0.0402  0.1680  0.7481
  165MOL0     C22144   0.927   4.190   2.359  0.0020  0.8714  0.5950
  165MOL0     C22145   0.986   4.064   2.377 -0.3224  0.3413  0.5890
  165MOL0     C22146   1.065   4.032   2.489  0.4322  0.2805 -0.4129
  165MOL0     C22147   1.049   4.119   2.593 -0.6519  0.3443 -0.2235
  165MOL0     O22148   1.110   4.094   2.720 -0.0423  0.5687  0.1507
  165MOL0     C22149   1.208   3.990   2.739 -1.1555  0.8229  0.4144
  165MOL0     C22150   1.311   4.022   2.844 -0.1939 -0.1638  0.2066
  165MOL0     C22151   1.436   3.935   2.827  0.0975 -0.1621 -0.1706
  165MOL0     C22152   1.425   3.791   2.857  1.3824  0.3120  0.6007
  165MOL0     C22153   1.549   3.704   2.827 -0.0959  0.7316  1.0021
  165MOL0     C22154   1.661   3.748   2.917  0.2504 -0.4788 -0.3352
  165MOL0     C22155   1.772   3.644   2.947  0.6653 -0.5998  0.2567
  165MOL0     C22156   1.849   3.600   2.823 -0.2102 -0.0942 -0.5187
  165MOL0     N22157   1.948   3.494   2.852 -0.0940 -0.1190 -0.0466
  165MOL0     C22158   2.044   3.499   2.950 -0.1257 -0.2384 -0.3919
  165MOL0     C22159   2.093   3.376   2.955  0.3095  0.4122  0.0255
  165MOL0     C22160   2.188   3.317   3.050 -0.3362 -0.1136 -0.2540
  165MOL0     C22161   2.333   3.337   3.003 -0.3805 -0.7835 -0.3486
  165MOL0     C22162   2.390   3.241   2.904  0.0030  0.5101  0.2293
  165MOL0     C22163   2.533   3.202   2.905 -0.3928 -0.2722 -0.5229
  165MOL0     O22164   2.611   3.321   2.908 -0.1237 -0.3949 -0.3076
  165MOL0     C22165   2.718   3.323   2.825  0.1739  0.6550 -0.5479
  165MOL0     C22166   2.751   3.427   2.741 -0.2211  0.5140  0.4875
  165MOL0     C22167   2.860   3.425   2.660 -0.1878  0.2692 -0.0410
  165MOL0     C22168   2.946   3.315   2.659  0.3738 -0.2523  0.1262
  165MOL0     C22169   3.074   3.315   2.574  0.3442  0.5148  0.3066
  165MOL0     O22170   3.166   3.227   2.599 -0.9179 -0.4220  0.0443
  165MOL0     C22171   3.279   3.205   2.520 -0.4812 -0.4220 -0.6031
  165MOL0     C22172   3.401   3.184   2.573 -0.9750  0.0421 -1.0261
  165MOL0     C22173   3.510   3.155   2.492  0.0586 -0.3397 -0.8286
  165MOL0     C22174   3.499   3.162   2.356 -0.6428 -0.2286  0.3437
  165MOL0     O22175   3.599   3.145   2.264 -0.1192 -0.5783  0.2659
  165MOL0     C22176   3.736   3.143   2.314 -0.3409 -0.0829  1.0291
  165MOL0     C22177   3.835   3.143   2.197  0.0168  0.5119  0.1194
  165MOL0     C22178   3.972   3.083   2.227  0.5089  0.6836  0.2578
  165MOL0     C22179   4.044   3.053   2.098 -0.6062  0.3318  0.0757
  165MOL0     C22180   4.176   2.974   2.115  0.1664 -0.8271 -0.2653
  165MOL0     C22181   4.280   3.036   2.205  0.2141  0.1844  0.4628
  165MOL0     C22182   4.412   2.959   2.215 -0.5007  0.3105  0.0219
  165MOL0     C22183   4.533   3.036   2.281 -0.5076  0.0928  0.3680
  165MOL0    Cl22184   4.485   3.070   2.445  0.5558  0.3501  0.1283
  165MOL0     C22185   3.378   3.188   2.303  0.5324 -0.3673 -0.0845
  165MOL0     C22186   3.264   3.199   2.381 -0.4119 -0.0235 -0.4968
  165MOL0     O22187   3.091   3.406   2.495 -0.3431 -0.2407 -0.1447
  165MOL0     C22188   2.913   3.208   2.740 -0.1973  0.5569  0.3227
  165MOL0     C22189   2.805   3.215   2.826  0.0130  0.1907  0.0697
  165MOL0     N22190   2.027   3.301   2.856  0.7855  0.4678 -1.3196
  165MOL0     N22191   1.939   3.368   2.794 -0.6131 -0.0747 -0.4975
  165MOL0     C22192   0.977   4.240   2.590 -0.3485 -0.2443 -0.0484
  165MOL0     C22193   0.918   4.274   2.471 -0.4667  1.3097 -0.0411
  165MOL0     C22194   0.869   4.288   2.017 -0.1229  0.8784  0.3035
  165MOL0     C22195   0.768   4.186   1.979 -0.0348 -0.1383 -0.3541
  165MOL0     C22196   0.694   4.208   1.864  0.8378 -0.9208  0.2003
  165MOL0     C22197   0.727   4.309   1.774 -0.3184 -0.1254 -0.4237
  165MOL0     O22198   0.662   4.329   1.658  0.5608  0.1673 -0.3414
  165MOL0     C22199   0.564   4.238   1.608  0.3571  0.1146  0.4427
  165MOL0     C22200   0.495   4.286   1.474  0.8301  0.1897  0.3320
  165MOL0     C22201   0.407   4.408   1.492  0.1797 -0.0300  0.3840
  165MOL0     C22202   0.312   4.432   1.378  0.1933 -0.3445  1.1943
  165MOL0     C22203   0.380   4.508   1.268  0.7209 -0.3949  0.1493
  165MOL0     C22204   0.439   4.562   1.180 -0.2175 -0.2912 -0.0430
  165MOL0     C22205   0.842   4.384   1.798  0.7210 -0.0316 -0.5204
  165MOL0     C22206   0.905   4.383   1.924 -0.5913  0.0671 -1.1078
  165MOL0     C22207   1.012   4.483   1.947 -1.0082  0.2751  0.6855
  165MOL0     H22208   0.974   3.994   2.295 -4.2897  2.2366 -0.7129
  165MOL0     H22209   1.128   3.944   2.494 -0.1700 -0.0983  1.4655
  165MOL0     H22210   1.159   3.900   2.777 -0.6748  0.0506 -0.7329
  165MOL0     H22211   1.261   3.968   2.646 -3.2320 -2.1008 -0.2099
  165MOL0     H22212   1.258   4.019   2.940 -0.7229 -0.8467 -0.0958
  165MOL0     H22213   1.341   4.125   2.826 -1.3129 -0.2920 -3.1792
  165MOL0     H22214   1.509   3.984   2.892  0.3173  1.7441 -1.7722
  165MOL0     H22215   1.476   3.950   2.726 -0.3425  0.3934 -0.2681
  165MOL0     H22216   1.403   3.780   2.963 -1.3318 -2.1164 -0.0934
  165MOL0     H22217   1.339   3.755   2.801  1.5967  1.2825 -0.4065
  165MOL0     H22218   1.529   3.599   2.847  3.5574 -0.4327 -0.5209
  165MOL0     H22219   1.568   3.716   2.720  4.1532  0.8780  1.6104
  165MOL0     H22220   1.705   3.843   2.885  0.0396  0.2409  1.4188
  165MOL0     H22221   1.623   3.775   3.016 -2.3281 -0.1610 -1.3401
  165MOL0     H22222   1.732   3.558   3.002  1.0787 -1.9346 -1.4137
  165MOL0     H22223   1.835   3.683   3.027 -2.3137  0.6568  2.2018
  165MOL0     H22224   1.781   3.553   2.753  0.2109  0.0323 -1.0176
  165MOL0     H22225   1.895   3.683   2.768  0.6742  1.3121  2.1216
  165MOL0     H22226   2.070   3.587   3.008 -2.1017 -0.0636  0.3170
  165MOL0     H22227   2.169   3.365   3.147  1.0567  1.8768 -0.8962
  165MOL0     H22228   2.174   3.209   3.057  1.3518 -0.2636  1.8268
  165MOL0     H22229   2.353   3.439   2.969  3.3090 -1.4989 -0.8433
  165MOL0     H22230   2.397   3.333   3.091 -0.9871  0.5639  0.1740
  165MOL0     H22231   2.385   3.285   2.804 -1.6013 -1.7313 -0.7516
  165MOL0     H22232   2.331   3.149   2.901  0.2757  0.3402  0.0077
  165MOL0     H22233   2.564   3.134   2.825  0.9051 -0.0646 -0.2317
  165MOL0     H22234   2.561   3.149   2.996 -1.1333  0.3110  0.0608
  165MOL0     H22235   2.693   3.518   2.729 -0.8478 -0.1665 -2.1593
  165MOL0     H22236   2.890   3.516   2.609  1.4492 -0.7818 -1.0428
  165MOL0     H22237   3.414   3.192   2.680 -0.8686  1.6289 -1.1323
  165MOL0     H22238   3.606   3.134   2.539  1.2047 -0.4653 -3.0726
  165MOL0     H22239   3.759   3.225   2.382 -0.2495  0.0990  0.7782
  165MOL0     H22240   3.750   3.049   2.370 -2.0185 -0.2984  1.1410
  165MOL0     H22241   3.780   3.095   2.116 -1.4556 -0.2164  1.5024
  165MOL0     H22242   3.843   3.249   2.169 -0.2267  1.6940  3.9065
  165MOL0     H22243   4.025   3.164   2.278  1.4564  1.9002 -2.4935
  165MOL0     H22244   3.955   2.993   2.287  1.4358  0.1824 -0.2081
  165MOL0     H22245   4.063   3.151   2.053 -1.3676 -0.0101 -1.0154
  165MOL0     H22246   3.982   2.998   2.028 -0.8778  0.3914  0.2693
  165MOL0     H22247   4.229   2.951   2.022  3.3260 -1.2815  1.5026
  165MOL0     H22248   4.154   2.874   2.155 -1.9918 -1.2296 -2.2269
  165MOL0     H22249   4.305   3.136   2.170  1.0874 -0.4782 -0.8837
  165MOL0     H22250   4.235   3.044   2.304 -0.0572 -0.4332  0.3928
  165MOL0     H22251   4.447   2.925   2.118  2.2940  0.0117  1.0430
  165MOL0     H22252   4.386   2.871   2.274 -0.8674  0.9188  0.7933
  165MOL0     H22253   4.625   2.980   2.299  0.9188  1.5263 -1.9716
  165MOL0     H22254   4.562   3.129   2.230 -0.8365  1.3525  2.3674
  165MOL0     H22255   3.370   3.195   2.195 -2.3870  0.3111  0.0689
  165MOL0     H22256   3.173   3.210   2.323 -1.3058  0.0058  0.8594
  165MOL0     H22257   2.974   3.118   2.746  0.2529  0.6941 -1.6627
  165MOL0     H22258   2.796   3.130   2.893  2.4081 -0.4567 -0.3627
  165MOL0     H22259   0.966   4.284   2.688  0.1467 -0.5667  0.1517
  165MOL0     H22260   0.864   4.368   2.463 -0.7052  1.0823 -1.3478
  165MOL0     H22261   0.744   4.105   2.047 -3.0094  2.0040  1.4070
  165MOL0     H22262   0.620   4.132   1.837 -0.3495  0.7840 -1.6084
  165MOL0     H22263   0.482   4.229   1.680  0.6956  2.0854  1.1330
  165MOL0     H22264   0.623   4.146   1.594  2.2317  1.5530 -1.9784
  165MOL0     H22265   0.434   4.203   1.438  0.1243  0.1914  1.4754
  165MOL0     H22266   0.574   4.308   1.402  1.9592  0.7548  1.6903
  165MOL0     H22267   0.467   4.500   1.492  1.7252 -0.9482 -1.7655
  165MOL0     H22268   0.341   4.403   1.579 -2.2369  0.3252 -1.3465
  165MOL0     H22269   0.268   4.339   1.341  0.4619  0.9595 -2.7618
  165MOL0     H22270   0.228   4.493   1.412 -2.3032 -1.4212 -2.4519
  165MOL0     H22271   0.507   4.613   1.113  1.2895 -0.5905  1.1999
  165MOL0     H22272   0.876   4.456   1.725  2.1726  1.6343  1.6508
  165MOL0     H22273   1.008   4.515   2.051 -2.2682  0.2811  0.6586
  165MOL0     H22274   1.112   4.439   1.947 -1.0968  0.0671  0.9374
  165MOL0     H22275   1.012   4.567   1.876 -0.6614 -0.1729  0.1424
  166MOL0     O22276   2.962   4.549   2.840 -0.3270  0.2640  0.4998
  166MOL0     C22277   2.902   4.562   2.730  0.3403  0.9454 -0.2984
  166MOL0     O22278   2.908   4.471   2.620 -0.8680  0.4394 -0.5573
  166MOL0     C22279   3.006   4.376   2.632 -0.2375 -0.3043 -0.0597
  166MOL0     C22280   3.141   4.401   2.608 -0.0306  0.7446  0.4226
  166MOL0     C22281   3.240   4.301   2.617  0.6413 -0.5777 -0.6557
  166MOL0     C22282   3.202   4.169   2.659  0.4038 -0.4400 -0.7861
  166MOL0     O22283   3.281   4.056   2.674 -0.2527  0.2588 -0.1733
  166MOL0     C22284   3.419   4.083   2.673 -0.4999 -0.3509 -0.2879
  166MOL0     C22285   3.497   3.956   2.693 -0.2268  0.1417  0.1122
  166MOL0     C22286   3.646   3.988   2.673 -0.5311 -0.3138  0.7626
  166MOL0     C22287   3.740   3.865   2.675 -0.1929 -0.5641 -0.5915
  166MOL0     C22288   3.883   3.909   2.636  0.7442  0.7335 -0.4342
  166MOL0     C22289   3.984   3.790   2.649  0.0940  0.5452 -1.2571
  166MOL0     C22290   4.130   3.833   2.642  0.2455  0.5220  0.6918
  166MOL0     C22291   4.145   3.910   2.513  0.0075  0.2469  0.7385
  166MOL0     N22292   4.285   3.897   2.468 -0.2150  0.2310 -0.4169
  166MOL0     C22293   4.337   3.789   2.390  0.2829 -0.9026  0.8859
  166MOL0     C22294   4.470   3.813   2.368  0.6315  0.0580 -1.1424
  166MOL0     C22295   4.565   3.729   2.283  0.6056 -0.5690  0.3150
  166MOL0     C22296   4.708   3.776   2.303  0.5786  0.1488 -0.5017
  166MOL0     C22297   4.790   3.665   2.231  0.6504  0.1145 -0.2415
  166MOL0     C22298   4.936   3.680   2.213 -0.5539 -0.1005  0.0362
  166MOL0     O22299   4.969   3.573   2.131 -0.0090 -0.9090  0.2601
  166MOL0     C22300   5.103   3.528   2.140 -0.3015 -0.3308 -0.6278
  166MOL0     C22301   5.134   3.425   2.057 -0.2377  0.2605  0.5048
  166MOL0     C22302   5.258   3.372   2.037 -0.2536 -0.0241 -0.4442
  166MOL0     C22303   5.359   3.435   2.118  0.7096 -0.8545  0.0679
  166MOL0     C22304   5.504   3.404   2.095  0.5855  0.3152 -0.8673
  166MOL0     O22305   5.597   3.485   2.162 -0.3434  0.1256 -0.2926
  166MOL0     C22306   5.727   3.440   2.154  0.5825 -0.5008  0.4412
  166MOL0     C22307   5.805   3.498   2.058  0.2933 -0.6496  0.9208
  166MOL0     C22308   5.933   3.450   2.045  0.0571  0.6150 -0.1503
  166MOL0     C22309   5.994   3.372   2.141 -0.6620  0.5903  0.4431
  166MOL0     O22310   6.129   3.332   2.128  0.6231  0.8381 -0.0665
  166MOL0     C22311   6.189   3.318   1.989  0.1402 -0.1922 -0.1882
  166MOL0     C22312   6.106   3.222   1.899 -0.2123  0.3916 -0.4196
  166MOL0     C22313   6.058   3.085   1.962 -0.3649 -0.2051 -0.3420
  166MOL0     C22314   5.987   3.004   1.860  0.1598  1.0909 -0.0435
  166MOL0     C22315   5.941   2.863   1.901 -0.3831 -0.4534 -1.0798
  166MOL0     C22316   6.059   2.772   1.913  0.3693 -0.6795 -0.2539
  166MOL0     C22317   6.010   2.644   1.972  0.0438 -0.5747 -0.8624
  166MOL0     C22318   6.118   2.536   1.985 -0.3980  0.0279 -0.2478
  166MOL0    Cl22319   6.233   2.576   2.115 -0.0465  0.5865 -0.1136
  166MOL0     C22320   5.912   3.322   2.246  0.3024  0.6239 -0.3753
  166MOL0     C22321   5.781   3.358   2.255 -0.0670  0.5579 -0.5264
  166MOL0     O22322   5.534   3.314   2.024 -0.1050  0.9232  0.3791
  166MOL0     C22323   5.327   3.534   2.206 -0.3270 -0.3457 -0.0006
  166MOL0     C22324   5.202   3.582   2.218 -0.6846 -0.0104  0.3098
  166MOL0     N22325   4.499   3.924   2.454  0.0257 -0.9187  0.2885
  166MOL0     N22326   4.394   3.969   2.516  0.1980 -0.0256  0.7315
  166MOL0     C22327   3.067   4.146   2.686  0.8398  0.2937 -0.1479
  166MOL0     C22328   2.971   4.248   2.679 -0.0882  0.2327  0.2421
  166MOL0     C22329   2.787   4.658   2.723  0.6110 -0.4032  0.0277
  166MOL0     C22330   2.750   4.712   2.592 -0.1000 -0.2387 -0.9852
  166MOL0     C22331   2.647   4.812   2.579 -0.6079 -0.4045  0.1457
  166MOL0     C22332   2.576   4.853   2.696 -0.1166  1.0002 -0.4602
  166MOL0     O22333   2.486   4.953   2.670 -0.1640  0.4572  0.7103
  166MOL0     C22334   2.405   5.004   2.773 -0.3730  0.7769 -0.9369
  166MOL0     C22335   2.295   5.102   2.713 -0.0722  0.5968 -0.6704
  166MOL0     C22336   2.216   5.170   2.829  0.7370  0.0909 -0.5134
  166MOL0     C22337   2.126   5.068   2.891 -0.3721  0.6854  0.2017
  166MOL0     C22338   2.020   5.031   2.802  0.3059 -0.0299 -0.5484
  166MOL0     C22339   1.936   4.986   2.730  0.3258  0.0749  0.0054
  166MOL0     C22340   2.615   4.803   2.821 -0.4630 -0.3773 -0.0112
  166MOL0     C22341   2.712   4.703   2.840  0.5160 -0.3880  0.6129
  166MOL0     C22342   2.751   4.653   2.978  0.4577  0.2486  1.5112
  166MOL0     H22343   3.171   4.502   2.581  3.2768 -0.0988  0.5814
  166MOL0     H22344   3.341   4.328   2.591  0.8374 -2.4405 -2.0301
  166MOL0     H22345   3.453   4.127   2.579  0.7320  0.3993  0.4804
  166MOL0     H22346   3.439   4.144   2.762  1.1786 -2.0064  0.5496
  166MOL0     H22347   3.458   3.883   2.622 -1.3640  0.9733 -0.1499
  166MOL0     H22348   3.489   3.923   2.797 -1.5325  3.9017  1.3782
  166MOL0     H22349   3.681   4.051   2.756  2.3363 -0.0024 -0.5431
  166MOL0     H22350   3.665   4.038   2.578 -2.5297 -3.2960 -1.3802
  166MOL0     H22351   3.735   3.809   2.769 -1.1629  0.8955  0.2690
  166MOL0     H22352   3.700   3.789   2.608 -1.7657 -1.0659  0.8671
  166MOL0     H22353   3.876   3.946   2.533  2.8499 -0.1423 -0.9490
  166MOL0     H22354   3.917   3.988   2.704 -2.9502  2.2789 -0.1730
  166MOL0     H22355   3.970   3.736   2.744  0.6830  0.6754 -1.0906
  166MOL0     H22356   3.962   3.718   2.569  0.1883 -1.2175  0.2244
  166MOL0     H22357   4.201   3.750   2.646  2.6730  2.3822 -0.8488
  166MOL0     H22358   4.160   3.892   2.728  1.7329 -1.9259  1.9787
  166MOL0     H22359   4.071   3.872   2.441 -0.0042  4.1754 -1.6063
  166MOL0     H22360   4.124   4.015   2.534 -4.9958 -0.6334  1.3814
  166MOL0     H22361   4.281   3.711   2.339 -0.1623 -0.1399  0.1747
  166MOL0     H22362   4.545   3.622   2.295 -0.9414 -0.2751  0.6309
  166MOL0     H22363   4.541   3.747   2.178  1.2178 -1.2924  0.0401
  166MOL0     H22364   4.711   3.866   2.240 -1.3918  2.7941  2.8279
  166MOL0     H22365   4.747   3.803   2.402 -1.3711  0.9945  0.0801
  166MOL0     H22366   4.739   3.671   2.135 -2.5249  0.5539  1.3460
  166MOL0     H22367   4.773   3.565   2.271 -1.0651 -0.0522 -1.3196
  166MOL0     H22368   4.979   3.672   2.313  2.4812  3.5162 -0.7461
  166MOL0     H22369   4.966   3.772   2.162 -2.5747 -1.2532 -3.6444
  166MOL0     H22370   5.055   3.362   2.017  0.9479  0.2476 -2.0008
  166MOL0     H22371   5.280   3.276   1.990 -2.8304 -0.6439 -0.5254
  166MOL0     H22372   5.751   3.566   1.993 -1.2642 -2.1105  0.6073
  166MOL0     H22373   5.999   3.497   1.972  1.4284  0.5562  0.9938
  166MOL0     H22374   6.208   3.419   1.952  0.4383  0.3316  1.3061
  166MOL0     H22375   6.289   3.275   2.002  1.4084  2.3861 -0.8150
  166MOL0     H22376   6.011   3.272   1.878 -0.0404  0.7234 -0.4038
  166MOL0     H22377   6.159   3.210   1.804 -1.0101  1.2127 -0.9856
  166MOL0     H22378   6.152   3.040   1.997 -0.5000  1.3933  2.3797
  166MOL0     H22379   5.989   3.104   2.045 -0.4102  1.9540 -0.8333
  166MOL0     H22380   6.065   2.996   1.783  1.9505  0.3985  1.7413
  166MOL0     H22381   5.901   3.057   1.818 -0.0059  0.0852 -1.0208
  166MOL0     H22382   5.874   2.814   1.829 -1.7605  0.9054 -0.7831
  166MOL0     H22383   5.880   2.869   1.991  0.8638 -0.0117 -0.2317
  166MOL0     H22384   6.114   2.763   1.819  1.0144 -2.9115  0.2852
  166MOL0     H22385   6.135   2.817   1.978  2.0059 -1.1533 -1.7679
  166MOL0     H22386   5.926   2.601   1.917  1.0351 -4.3340  0.2742
  166MOL0     H22387   5.974   2.663   2.074 -0.1278 -0.5394 -0.9285
  166MOL0     H22388   6.083   2.433   1.998  2.5990 -0.9477  0.7611
  166MOL0     H22389   6.167   2.524   1.888 -2.4509 -2.0941 -1.1498
  166MOL0     H22390   5.945   3.243   2.313  0.0853 -0.1890 -1.1952
  166MOL0     H22391   5.711   3.317   2.327 -0.5077  1.9180 -0.1572
  166MOL0     H22392   5.405   3.578   2.267 -0.4386 -0.2636  0.0840
  166MOL0     H22393   5.182   3.651   2.300  0.9881  1.7426 -0.6730
  166MOL0     H22394   3.030   4.056   2.734 -0.5888  1.2619  0.6243
  166MOL0     H22395   2.869   4.233   2.712 -0.7737  5.3533  1.1976
  166MOL0     H22396   2.805   4.676   2.505 -0.1852 -0.0427 -1.1207
  166MOL0     H22397   2.648   4.864   2.483  3.6019  2.1607  1.2735
  166MOL0     H22398   2.476   5.058   2.837 -2.0851  2.1156 -0.1078
  166MOL0     H22399   2.363   4.925   2.835  0.1572  0.1925 -1.3054
  166MOL0     H22400   2.229   5.050   2.643  1.9759 -1.8324 -0.9480
  166MOL0     H22401   2.346   5.185   2.663  0.3912  0.1891 -0.8817
  166MOL0     H22402   2.155   5.253   2.792  1.6128  1.5711  1.1986
  166MOL0     H22403   2.283   5.214   2.903  0.2910 -0.4990  0.2612
  166MOL0     H22404   2.183   4.991   2.944  0.7107  2.3107  1.5426
  166MOL0     H22405   2.081   5.119   2.977  1.7415  0.6799  1.3774
  166MOL0     H22406   1.863   4.940   2.668  1.0696 -0.4645 -0.4848
  166MOL0     H22407   2.567   4.840   2.911  0.2098  1.8344 -0.5097
  166MOL0     H22408   2.742   4.544   2.974  0.0707  0.3089  0.0579
  166MOL0     H22409   2.856   4.678   2.994  1.2674 -1.4351 -0.7435
  166MOL0     H22410   2.690   4.692   3.060 -0.8595  1.2378  0.1338
  167MOL0     O22411   8.638   3.673   8.451 -0.3251  0.2765  0.8342
  167MOL0     C22412   8.522   3.632   8.472 -0.2753  0.6463  0.0425
  167MOL0     O22413   8.494   3.524   8.553  0.3856  0.0313 -0.4502
  167MOL0     C22414   8.588   3.453   8.621  0.3780  0.3414 -0.6786
  167MOL0     C22415   8.668   3.526   8.705  0.2324 -0.2708 -0.6430
  167MOL0     C22416   8.771   3.467   8.769 -0.0259  0.7834 -0.0818
  167MOL0     C22417   8.785   3.324   8.753  0.2216 -0.3964 -0.0667
  167MOL0     O22418   8.886   3.245   8.815  0.0581  0.1856  0.6374
  167MOL0     C22419   8.898   3.269   8.957 -0.0906 -0.0857 -0.1001
  167MOL0     C22420   8.980   3.173   9.040 -0.0356  0.1978 -0.9632
  167MOL0     C22421   9.121   3.211   9.025 -0.3986  0.6170  0.5685
  167MOL0     C22422   9.203   3.124   9.142  0.3966  0.3941 -0.4996
  167MOL0     C22423   9.215   3.213   9.277  0.4903  0.2828 -0.0079
  167MOL0     C22424   9.309   3.146   9.377  1.1129 -0.4372  1.0044
  167MOL0     C22425   9.313   3.223   9.504  0.0246 -0.8884 -0.3606
  167MOL0     C22426   9.400   3.160   9.624  0.0229  0.3983  0.8787
  167MOL0     N22427   9.513   3.246   9.657 -1.0721  0.4148  0.1183
  167MOL0     C22428   9.633   3.254   9.592  0.1449 -0.4073  1.0010
  167MOL0     C22429   9.704   3.336   9.669  0.6192  0.2605 -0.2065
  167MOL0     C22430   9.841   3.378   9.646 -0.3746  0.1339 -0.4549
  167MOL0     C22431   9.942   3.280   9.689 -0.3625 -0.1279  0.4371
  167MOL0     C22432  10.057   3.348   9.774  0.0125  0.1463  0.6467
  167MOL0     C22433  10.184   3.263   9.747 -0.5753  0.1365 -0.4265
  167MOL0     O22434  10.284   3.340   9.815  0.3252  0.0792 -0.0273
  167MOL0     C22435  10.408   3.350   9.780 -0.6381  0.2213 -0.0036
  167MOL0     C22436  10.472   3.258   9.701  0.0797 -0.3249 -0.5599
  167MOL0     C22437  10.606   3.268   9.680  0.0748  0.2230 -0.6026
  167MOL0     C22438  10.688   3.380   9.723  0.4439  0.5908 -0.6700
  167MOL0     C22439  10.834   3.393   9.693  0.1947  0.3553  0.2937
  167MOL0     O22440  10.911   3.489   9.769 -0.1656 -0.3823  0.6088
  167MOL0     C22441  11.050   3.486   9.774 -0.3148 -0.1331 -0.5442
  167MOL0     C22442  11.124   3.605   9.771 -0.6817  0.1934 -1.1243
  167MOL0     C22443  11.259   3.604   9.779 -0.6082  0.3726  0.2109
  167MOL0     C22444  11.329   3.484   9.789 -0.3470 -0.8860 -1.5935
  167MOL0     O22445  11.471   3.488   9.790  0.2367  0.0595  0.2237
  167MOL0     C22446  11.539   3.380   9.724  0.1602  0.1079  0.0260
  167MOL0     C22447  11.669   3.436   9.669 -0.1705 -0.4217 -0.1940
  167MOL0     C22448  11.784   3.440   9.769  0.3221  0.2618  0.2556
  167MOL0     C22449  11.773   3.560   9.870 -0.3725 -0.2021 -0.0178
  167MOL0     C22450  11.899   3.584   9.954  0.7323 -0.5465  0.7392
  167MOL0     C22451  11.930   3.471  10.061  0.5704  0.6027  0.4309
  167MOL0     C22452  12.055   3.512  10.134  0.9335  0.1096 -0.6668
  167MOL0     C22453  12.094   3.395  10.228  0.4021 -0.3503  0.6043
  167MOL0    Cl22454  11.971   3.383  10.350  0.1961  0.4499 -0.1393
  167MOL0     C22455  11.254   3.362   9.794  0.4935  0.2292 -0.6184
  167MOL0     C22456  11.112   3.360   9.790 -0.2323  0.4426  0.4118
  167MOL0     O22457  10.880   3.328   9.602 -0.5545 -0.0920 -0.0171
  167MOL0     C22458  10.613   3.476   9.800  0.2301  0.7569 -0.3052
  167MOL0     C22459  10.483   3.451   9.843 -0.7877  0.9675  0.2090
  167MOL0     N22460   9.625   3.378   9.770  0.1629  0.0444  0.0594
  167MOL0     N22461   9.511   3.317   9.769 -0.7792 -0.7101  0.6197
  167MOL0     C22462   8.713   3.253   8.665  0.1608  0.2002  0.7146
  167MOL0     C22463   8.611   3.319   8.597 -0.4813  0.8153 -0.7731
  167MOL0     C22464   8.398   3.685   8.410  0.0555  0.6878 -0.2387
  167MOL0     C22465   8.272   3.624   8.437  0.4838 -0.1638 -0.3637
  167MOL0     C22466   8.143   3.668   8.402  0.3817 -0.2560 -0.9989
  167MOL0     C22467   8.129   3.765   8.308  0.2759  0.6282  0.6003
  167MOL0     O22468   8.007   3.793   8.265  0.3192 -0.6294  0.2129
  167MOL0     C22469   7.928   3.858   8.368 -0.2170  1.2466  0.5590
  167MOL0     C22470   7.860   3.979   8.309  0.1976 -0.2756  0.1806
  167MOL0     C22471   7.815   3.972   8.163  0.1373  0.4215 -0.8653
  167MOL0     C22472   7.730   3.854   8.139 -0.6038  0.7823 -0.1642
  167MOL0     C22473   7.609   3.847   8.225  0.2299  0.3716 -0.1727
  167MOL0     C22474   7.503   3.844   8.291 -1.0804 -0.1644  0.2628
  167MOL0     C22475   8.248   3.834   8.271 -0.2779  0.5123 -0.1353
  167MOL0     C22476   8.378   3.795   8.320  0.0094  0.0475 -0.4706
  167MOL0     C22477   8.491   3.878   8.290  0.2584 -0.0742 -0.6334
  167MOL0     H22478   8.660   3.631   8.730  0.8706 -0.4436  0.3277
  167MOL0     H22479   8.844   3.534   8.813  0.8457  0.8816 -1.6310
  167MOL0     H22480   8.944   3.368   8.969 -2.4929  0.8147  3.2690
  167MOL0     H22481   8.796   3.279   8.994 -1.0249 -0.5142 -2.4093
  167MOL0     H22482   8.957   3.069   9.018  1.7564 -0.5166  0.3360
  167MOL0     H22483   8.943   3.186   9.142  0.2437  0.7366 -0.9242
  167MOL0     H22484   9.131   3.319   9.037 -0.9575  0.6324  0.9064
  167MOL0     H22485   9.157   3.183   8.926 -1.8748  0.3217  0.0874
  167MOL0     H22486   9.162   3.024   9.153 -1.2127  0.2074 -5.5335
  167MOL0     H22487   9.299   3.099   9.097  1.1595 -1.3703  1.9116
  167MOL0     H22488   9.263   3.309   9.257  1.5778 -0.1152  0.5779
  167MOL0     H22489   9.115   3.216   9.320  0.8816 -2.6959  1.3989
  167MOL0     H22490   9.268   3.045   9.389  2.2605 -1.1472 -0.7107
  167MOL0     H22491   9.410   3.148   9.335 -0.1844  3.3232 -2.6184
  167MOL0     H22492   9.211   3.211   9.540  0.3860  0.9268  1.4295
  167MOL0     H22493   9.334   3.330   9.497 -2.3284 -0.4334 -1.4961
  167MOL0     H22494   9.349   3.151   9.721 -2.4908  0.5855 -0.3570
  167MOL0     H22495   9.431   3.059   9.595 -2.6644 -0.2445  0.0375
  167MOL0     H22496   9.673   3.215   9.499  1.3587  0.2483  1.2212
  167MOL0     H22497   9.856   3.397   9.539 -1.7352 -1.0502 -0.8812
  167MOL0     H22498   9.849   3.476   9.694  0.7579  1.6707 -3.5364
  167MOL0     H22499   9.901   3.213   9.766  0.7996 -1.7704 -0.2959
  167MOL0     H22500   9.973   3.223   9.601  0.4285  2.1366 -0.8403
  167MOL0     H22501  10.036   3.356   9.881  3.8385  2.6324  1.3978
  167MOL0     H22502  10.074   3.447   9.733 -1.8207  0.2109 -0.0570
  167MOL0     H22503  10.213   3.258   9.642 -0.0125  0.0683 -0.2714
  167MOL0     H22504  10.179   3.159   9.779 -3.5462  0.9906  2.4710
  167MOL0     H22505  10.426   3.165   9.670  0.5628 -0.9059  0.4153
  167MOL0     H22506  10.649   3.187   9.623  0.5152  0.6392 -0.8706
  167MOL0     H22507  11.079   3.703   9.756 -2.8061 -0.3428  1.1426
  167MOL0     H22508  11.310   3.699   9.783 -0.4610  0.3209 -0.3181
  167MOL0     H22509  11.559   3.300   9.796 -0.5691 -1.4433 -1.4243
  167MOL0     H22510  11.483   3.337   9.640 -0.6752 -1.1948  1.2150
  167MOL0     H22511  11.703   3.373   9.586  0.9357  1.2708 -1.0901
  167MOL0     H22512  11.651   3.536   9.627  3.5938  1.4226  2.0633
  167MOL0     H22513  11.801   3.345   9.820  3.3015 -0.5432 -1.9393
  167MOL0     H22514  11.867   3.459   9.700 -0.2515 -3.1421 -1.5846
  167MOL0     H22515  11.682   3.561   9.931 -0.6499  1.3190 -0.3981
  167MOL0     H22516  11.760   3.651   9.811 -0.0532  0.2947  0.6663
  167MOL0     H22517  11.891   3.683  10.000  1.1605  0.1827 -0.6705
  167MOL0     H22518  11.977   3.587   9.877  1.2279 -1.8832  1.1724
  167MOL0     H22519  11.847   3.465  10.132  1.3417 -0.3923  1.2768
  167MOL0     H22520  11.936   3.369  10.021  2.1438  0.3326  1.2690
  167MOL0     H22521  12.038   3.600  10.197  1.4369  0.2988 -0.7904
  167MOL0     H22522  12.125   3.532  10.053 -0.8376 -0.2961 -2.3657
  167MOL0     H22523  12.099   3.299  10.176  0.6107 -0.8369  1.5011
  167MOL0     H22524  12.194   3.417  10.267  0.6249  2.0953 -1.0735
  167MOL0     H22525  11.315   3.273   9.804  0.1951  0.0829 -0.0476
  167MOL0     H22526  11.041   3.278   9.794 -0.6216  0.8323  1.6952
  167MOL0     H22527  10.660   3.568   9.836  1.6851  0.2274 -0.7645
  167MOL0     H22528  10.442   3.506   9.927 -0.4702 -0.1577  1.1282
  167MOL0     H22529   8.749   3.153   8.646  1.0463  0.6063  0.1770
  167MOL0     H22530   8.547   3.256   8.537  0.7736  0.8230 -2.1711
  167MOL0     H22531   8.275   3.535   8.499 -1.9881  1.1677  1.8815
  167MOL0     H22532   8.055   3.618   8.441  1.1876  0.9035  2.7434
  167MOL0     H22533   7.985   3.878   8.459  3.0987 -0.3552 -0.9795
  167MOL0     H22534   7.840   3.803   8.404 -0.7530  1.0199 -1.0192
  167MOL0     H22535   7.919   4.071   8.314  0.7485 -0.6941  1.9042
  167MOL0     H22536   7.777   4.011   8.372 -0.5080 -0.2730 -0.7278
  167MOL0     H22537   7.905   3.959   8.102  0.1276 -0.5663 -0.6906
  167MOL0     H22538   7.769   4.066   8.130  3.0212  1.1112 -3.4229
  167MOL0     H22539   7.690   3.860   8.037 -2.0646 -0.7691  0.2665
  167MOL0     H22540   7.788   3.761   8.134 -0.0419  1.1197 -0.0033
  167MOL0     H22541   7.423   3.833   8.361 -2.2132 -0.2823 -1.0223
  167MOL0     H22542   8.241   3.914   8.198  1.2908  0.3825 -0.4647
  167MOL0     H22543   8.453   3.967   8.238 -0.2025 -0.9080 -1.7486
  167MOL0     H22544   8.538   3.913   8.382  2.5588 -3.1726 -0.5049
  167MOL0     H22545   8.552   3.818   8.223  0.7213 -0.3661  0.0417
  168MOL0     O22546   8.875   6.098  11.189  0.5388 -0.1902  0.3552
  168MOL0     C22547   8.923   6.192  11.248 -0.5788 -0.2250  0.7842
  168MOL0     O22548   9.056   6.225  11.249  0.3293 -0.0182  0.2998
  168MOL0     C22549   9.124   6.157  11.145 -0.0483 -0.4089  0.8308
  168MOL0     C22550   9.100   6.172  11.006  0.6085  0.0502  0.0606
  168MOL0     C22551   9.178   6.100  10.908 -0.0087 -0.5869 -0.2453
  168MOL0     C22552   9.292   6.026  10.951  0.1695  0.0753 -0.0144
  168MOL0     O22553   9.362   5.963  10.849  0.3814 -0.1551 -0.5095
  168MOL0     C22554   9.489   5.915  10.890 -0.2119  0.1140 -0.0351
  168MOL0     C22555   9.562   5.889  10.759  1.1897  0.2151  0.0681
  168MOL0     C22556   9.716   5.901  10.768  0.4787 -0.3631  0.8145
  168MOL0     C22557   9.784   5.846  10.648  0.7309  0.5288 -0.6032
  168MOL0     C22558   9.932   5.868  10.665 -0.8390 -0.2078  0.9719
  168MOL0     C22559  10.009   5.817  10.539 -0.6557 -0.0809  0.7848
  168MOL0     C22560  10.156   5.849  10.554  0.3057 -1.1197 -0.3017
  168MOL0     C22561  10.225   5.735  10.631 -0.3051 -0.3731 -0.2489
  168MOL0     N22562  10.374   5.755  10.620  0.2054 -0.2095 -0.4641
  168MOL0     C22563  10.443   5.727  10.505  0.1581 -0.0140  0.1990
  168MOL0     C22564  10.565   5.759  10.542 -0.6772 -0.0446  0.1028
  168MOL0     C22565  10.698   5.740  10.458 -0.6257 -0.3955 -0.6313
  168MOL0     C22566  10.760   5.866  10.396 -0.3594  0.1965 -0.7236
  168MOL0     C22567  10.865   5.831  10.278  0.2944  0.5150  0.2197
  168MOL0     C22568  10.901   5.961  10.204  0.2983 -0.1455  0.5193
  168MOL0     O22569  10.999   5.941  10.101  0.3858  0.0427  0.0617
  168MOL0     C22570  11.132   5.919  10.142 -0.4070  0.0548  1.0783
  168MOL0     C22571  11.180   5.919  10.274 -0.3817  0.2631  1.3324
  168MOL0     C22572  11.324   5.887  10.305  0.1580 -1.1838 -0.0348
  168MOL0     C22573  11.409   5.871  10.195 -0.3346 -0.4861  0.3809
  168MOL0     C22574  11.544   5.835  10.223  0.6005  0.7899 -0.6564
  168MOL0     O22575  11.606   5.771  10.118 -0.2432 -0.1543 -0.4210
  168MOL0     C22576  11.746   5.779  10.116  0.2375  0.2131  0.4164
  168MOL0     C22577  11.810   5.866  10.032 -0.0807  1.0196  0.0962
  168MOL0     C22578  11.950   5.884  10.048  0.5001 -1.2008 -0.0222
  168MOL0     C22579  12.028   5.794  10.124  0.8431  0.0710  0.4060
  168MOL0     O22580  12.170   5.813  10.133 -0.2656  0.8345 -0.5407
  168MOL0     C22581  12.234   5.902  10.039  0.8606 -0.1802 -0.5715
  168MOL0     C22582  12.383   5.909  10.057 -0.2136  0.0219  0.2165
  168MOL0     C22583  12.428   5.976  10.185  0.9288  0.2383  0.0951
  168MOL0     C22584  12.570   6.013  10.189  0.4368 -0.3883  0.0581
  168MOL0     C22585  12.611   6.062  10.329 -0.5697  0.2076 -0.6629
  168MOL0     C22586  12.758   6.107  10.344 -1.1021 -0.3694  0.6770
  168MOL0     C22587  12.789   6.136  10.492 -0.4416  0.5087  0.8275
  168MOL0     C22588  12.942   6.123  10.513 -0.0942 -0.1942 -0.2763
  168MOL0    Cl22589  13.009   6.265  10.435  0.0518 -0.2718  0.0422
  168MOL0     C22590  11.966   5.689  10.200  0.4415  0.4200  1.0704
  168MOL0     C22591  11.827   5.698  10.198  0.4417  0.8478  0.5343
  168MOL0     O22592  11.594   5.884  10.321  0.1463  0.1517  0.6809
  168MOL0     C22593  11.353   5.873  10.067  1.1913  0.0557 -0.4061
  168MOL0     C22594  11.215   5.884  10.043  0.3542  0.4926 -0.8395
  168MOL0     N22595  10.571   5.834  10.659 -0.2354 -0.4784 -0.2509
  168MOL0     N22596  10.450   5.830  10.705  0.0197  0.2702 -0.2185
  168MOL0     C22597   9.320   6.023  11.090  0.3201  0.0375  0.1662
  168MOL0     C22598   9.231   6.079  11.179  0.6636 -0.2398  0.0314
  168MOL0     C22599   8.840   6.282  11.337 -0.5545 -0.2126 -0.3432
  168MOL0     C22600   8.905   6.377  11.421 -0.8820  0.9538  0.4948
  168MOL0     C22601   8.849   6.443  11.533  0.2493 -0.3226 -0.4157
  168MOL0     C22602   8.714   6.429  11.546  0.0995 -1.1876  0.2621
  168MOL0     O22603   8.660   6.493  11.653 -0.0916 -0.2232 -0.4437
  168MOL0     C22604   8.687   6.635  11.664  0.9466  1.3186  0.0337
  168MOL0     C22605   8.547   6.692  11.668 -1.0236 -0.0937  0.1810
  168MOL0     C22606   8.475   6.657  11.538 -0.8413  0.7072 -0.1201
  168MOL0     C22607   8.343   6.736  11.543  0.4560 -0.1785  0.7318
  168MOL0     C22608   8.268   6.694  11.419 -0.0669  0.2422  0.6370
  168MOL0     C22609   8.219   6.667  11.314 -0.2510 -0.3214  0.0029
  168MOL0     C22610   8.642   6.345  11.456  0.6059 -0.5427 -0.5737
  168MOL0     C22611   8.699   6.274  11.352  1.0337 -0.0540  0.6983
  168MOL0     C22612   8.606   6.188  11.266 -0.2071 -0.3347 -0.5863
  168MOL0     H22613   9.016   6.234  10.978  0.4238 -0.0899  0.2976
  168MOL0     H22614   9.156   6.108  10.802  4.6433 -3.0122 -1.6646
  168MOL0     H22615   9.550   5.982  10.951  0.5549  0.1910 -0.8799
  168MOL0     H22616   9.475   5.819  10.941  1.9637 -0.3993 -0.3258
  168MOL0     H22617   9.529   5.955  10.678  1.6739 -2.0214 -2.1185
  168MOL0     H22618   9.546   5.786  10.725  2.8286  0.4575 -1.6210
  168MOL0     H22619   9.754   5.876  10.867 -0.4708  2.1922  1.9021
  168MOL0     H22620   9.730   6.010  10.768 -0.7952 -0.1659 -0.4067
  168MOL0     H22621   9.760   5.739  10.644 -2.0714  1.0682 -0.3117
  168MOL0     H22622   9.749   5.883  10.551 -0.7682  1.6082  0.2914
  168MOL0     H22623   9.958   5.974  10.668 -1.4915 -0.0607  1.5087
  168MOL0     H22624   9.963   5.806  10.750 -1.3536 -2.6757 -0.5153
  168MOL0     H22625   9.997   5.709  10.527  2.0685 -0.4008  0.4753
  168MOL0     H22626   9.974   5.863  10.446  0.0619  2.0645  1.5205
  168MOL0     H22627  10.178   5.946  10.598 -1.1635 -1.5003  1.4155
  168MOL0     H22628  10.194   5.848  10.451  0.5213 -0.7489 -0.2271
  168MOL0     H22629  10.191   5.738  10.735  0.0482  0.1812 -0.1402
  168MOL0     H22630  10.206   5.635  10.592  1.2711 -1.3955  1.4299
  168MOL0     H22631  10.404   5.667  10.423 -0.3139 -1.5886  1.5013
  168MOL0     H22632  10.775   5.687  10.515 -1.3955 -0.9127 -0.0463
  168MOL0     H22633  10.680   5.670  10.376  2.4599 -0.1444 -1.6452
  168MOL0     H22634  10.689   5.932  10.346  0.2785  1.1966 -0.3348
  168MOL0     H22635  10.803   5.927  10.475 -0.0191 -0.9001 -0.0433
  168MOL0     H22636  10.824   5.756  10.210  0.6195  1.6018 -1.2291
  168MOL0     H22637  10.956   5.786  10.319  0.6937  0.6897 -0.4470
  168MOL0     H22638  10.931   6.033  10.281  0.4136 -0.1164  0.4485
  168MOL0     H22639  10.812   6.006  10.157 -1.2017 -2.4909  0.9672
  168MOL0     H22640  11.127   5.942  10.366  0.3755  1.6671  1.4429
  168MOL0     H22641  11.356   5.882  10.408  0.3601  2.7166  0.2538
  168MOL0     H22642  11.748   5.934   9.974  0.6519  0.5160 -1.3331
  168MOL0     H22643  11.992   5.970   9.997 -0.4157 -1.3211 -1.0215
  168MOL0     H22644  12.207   5.870   9.938  1.1403  1.6376 -1.2624
  168MOL0     H22645  12.195   6.004  10.047 -1.4852 -0.7982 -2.6326
  168MOL0     H22646  12.414   5.804  10.061  3.8202  1.0789  1.8476
  168MOL0     H22647  12.442   5.934   9.968  1.2395 -4.5037 -0.3983
  168MOL0     H22648  12.373   6.068  10.206  0.5751  0.4247 -1.4933
  168MOL0     H22649  12.417   5.898  10.261  1.3311  0.9785  0.9334
  168MOL0     H22650  12.596   6.092  10.119  0.9621  1.1074  1.8576
  168MOL0     H22651  12.631   5.923  10.172 -0.5281 -1.6873  2.8472
  168MOL0     H22652  12.587   5.984  10.402 -1.4852 -0.0060 -1.1659
  168MOL0     H22653  12.542   6.141  10.360 -1.9672 -0.6358 -1.4583
  168MOL0     H22654  12.806   6.011  10.322 -2.7572 -1.5006  1.7434
  168MOL0     H22655  12.783   6.195  10.283  1.4510 -2.4801 -1.6135
  168MOL0     H22656  12.737   6.063  10.556 -0.8134  1.8529  2.1350
  168MOL0     H22657  12.755   6.234  10.526 -0.5835  0.2449  1.4729
  168MOL0     H22658  12.955   6.129  10.621  1.1667 -0.1409 -0.4215
  168MOL0     H22659  12.994   6.037  10.471  0.4924  0.0308 -0.0255
  168MOL0     H22660  12.024   5.625  10.265  2.7424 -0.3964 -1.6204
  168MOL0     H22661  11.788   5.626  10.269  1.0100 -0.8712 -0.8115
  168MOL0     H22662  11.424   5.848   9.989  1.2759  0.7111 -0.5380
  168MOL0     H22663  11.192   5.860   9.940 -0.4660  0.0124 -0.5585
  168MOL0     H22664   9.411   5.973  11.122 -0.2096 -1.5828 -0.7269
  168MOL0     H22665   9.249   6.065  11.286 -1.1882 -3.1752  0.0738
  168MOL0     H22666   9.010   6.400  11.408  0.1784 -3.0812  0.3149
  168MOL0     H22667   8.913   6.507  11.592 -0.5168 -1.0513  1.2957
  168MOL0     H22668   8.740   6.678  11.579  1.7451  2.0082  0.8627
  168MOL0     H22669   8.744   6.655  11.755  0.4056 -0.5647  0.8359
  168MOL0     H22670   8.561   6.799  11.679 -3.1599  0.2775 -0.1618
  168MOL0     H22671   8.491   6.648  11.751 -0.2372 -0.6053  0.4440
  168MOL0     H22672   8.453   6.552  11.517 -1.4061  1.1142 -1.7223
  168MOL0     H22673   8.545   6.682  11.458  4.0113 -4.0253  1.9424
  168MOL0     H22674   8.278   6.691  11.618 -3.4767  1.5977 -1.2839
  168MOL0     H22675   8.345   6.843  11.569 -0.3016 -0.4554  1.9848
  168MOL0     H22676   8.169   6.650  11.220 -0.0743 -0.9118  0.0090
  168MOL0     H22677   8.537   6.340  11.483  1.2170 -2.5879  1.7017
  168MOL0     H22678   8.617   6.082  11.291  0.7242 -0.0078  0.5064
  168MOL0     H22679   8.504   6.223  11.282 -0.7408 -2.4386  0.9858
  168MOL0     H22680   8.623   6.198  11.158  0.8838 -1.0869 -0.4929
  169MOL0     O22681   0.300   3.572   2.442 -0.1376 -0.4288 -0.4438
  169MOL0     C22682   0.253   3.680   2.471  0.5849 -0.3102 -0.4892
  169MOL0     O22683   0.322   3.784   2.521 -0.5061  0.3659  0.0659
  169MOL0     C22684   0.455   3.759   2.563  0.4515 -0.6450  0.9110
  169MOL0     C22685   0.483   3.673   2.673  0.5057 -0.4891  0.1027
  169MOL0     C22686   0.617   3.657   2.711 -0.1868  0.0077 -0.6327
  169MOL0     C22687   0.720   3.731   2.652 -0.0101 -0.3305  0.3177
  169MOL0     O22688   0.853   3.720   2.690  0.5794 -0.2590 -0.0393
  169MOL0     C22689   0.910   3.625   2.788  0.3657  0.2462  0.2755
  169MOL0     C22690   1.055   3.589   2.765 -0.3712 -0.2363  0.0700
  169MOL0     C22691   1.122   3.505   2.875 -0.5321  0.3479  0.6401
  169MOL0     C22692   1.258   3.443   2.829  0.3040 -0.0520  0.4309
  169MOL0     C22693   1.326   3.364   2.950 -0.5469  1.0681  0.3628
  169MOL0     C22694   1.443   3.289   2.886  0.3153  0.1758 -0.4357
  169MOL0     C22695   1.533   3.225   2.992 -0.2455 -0.3735  0.3064
  169MOL0     C22696   1.671   3.208   2.933 -0.6434  0.1712 -0.2643
  169MOL0     N22697   1.775   3.198   3.038  0.3294 -0.8630 -0.6799
  169MOL0     C22698   1.828   3.083   3.101 -0.9415  0.1002 -0.4320
  169MOL0     C22699   1.900   3.123   3.211  0.0078 -0.3664  0.0030
  169MOL0     C22700   1.958   3.044   3.321  0.6543  0.7381 -0.5626
  169MOL0     C22701   2.110   3.010   3.297 -0.4444  0.1178  0.0302
  169MOL0     C22702   2.179   2.961   3.430  0.5905 -0.1581  0.7016
  169MOL0     C22703   2.204   3.073   3.532 -0.3556 -0.3883  0.3725
  169MOL0     O22704   2.291   3.164   3.455  0.1968  0.2127  0.6195
  169MOL0     C22705   2.415   3.120   3.404 -0.1620 -0.7951 -0.8181
  169MOL0     C22706   2.497   3.013   3.449  0.5036 -0.3862 -0.0888
  169MOL0     C22707   2.622   2.985   3.393  0.2601  0.1365 -1.7473
  169MOL0     C22708   2.672   3.070   3.296  0.6544 -0.3189  0.7877
  169MOL0     C22709   2.800   3.040   3.228 -0.0993 -0.5568 -0.2237
  169MOL0     O22710   2.849   2.918   3.243 -0.3274 -0.4555  0.3634
  169MOL0     C22711   2.984   2.900   3.198  0.9524 -0.1514  0.2382
  169MOL0     C22712   3.095   2.910   3.288  1.7132 -0.5839  0.2720
  169MOL0     C22713   3.223   2.902   3.255 -0.5689 -0.4803  0.4136
  169MOL0     C22714   3.258   2.892   3.123  0.2673 -0.1794 -0.6395
  169MOL0     O22715   3.397   2.902   3.095 -0.0299 -0.3373  0.1459
  169MOL0     C22716   3.449   2.879   2.959  0.2594  0.2728 -1.0126
  169MOL0     C22717   3.593   2.929   2.946  0.8964  0.3415 -0.1316
  169MOL0     C22718   3.642   2.957   2.808  0.0064 -0.5562  0.5912
  169MOL0     C22719   3.790   2.922   2.795  0.3329  0.5141 -0.0248
  169MOL0     C22720   3.842   2.948   2.647 -0.0935  0.3319  0.1580
  169MOL0     C22721   3.992   2.906   2.645  0.1115 -0.9186 -0.2446
  169MOL0     C22722   4.070   2.992   2.733  0.6535  0.6035  0.8778
  169MOL0     C22723   4.214   3.020   2.700  1.3032  0.1668  0.0521
  169MOL0    Cl22724   4.292   2.862   2.655  0.4845 -0.2138 -0.5001
  169MOL0     C22725   3.156   2.866   3.026 -0.4004 -0.3002  0.6142
  169MOL0     C22726   3.018   2.875   3.067  1.0194 -0.5920 -0.2969
  169MOL0     O22727   2.851   3.129   3.164 -0.7172  0.3802  0.5323
  169MOL0     C22728   2.596   3.188   3.258 -0.5928  0.0422 -0.1228
  169MOL0     C22729   2.477   3.212   3.318  0.4739 -0.5221 -0.5504
  169MOL0     N22730   1.894   3.264   3.210  0.7180 -0.0991 -0.1017
  169MOL0     N22731   1.807   3.304   3.115 -0.4810  0.5028  0.3968
  169MOL0     C22732   0.682   3.819   2.549  0.8692 -0.1219 -1.2310
  169MOL0     C22733   0.550   3.834   2.504 -0.1375 -0.1130 -1.1906
  169MOL0     C22734   0.103   3.703   2.464 -0.2822 -0.0961  0.0324
  169MOL0     C22735   0.047   3.798   2.551  0.2408  0.0213  0.9062
  169MOL0     C22736  -0.095   3.823   2.543  0.0509  0.7154  0.1234
  169MOL0     C22737  -0.168   3.770   2.433 -1.2535  0.0978 -0.0986
  169MOL0     O22738  -0.297   3.791   2.412 -0.0528 -0.0426  0.2620
  169MOL0     C22739  -0.364   3.914   2.456  0.2244 -0.0647 -1.2494
  169MOL0     C22740  -0.307   4.028   2.373 -0.0060  0.1938  0.4467
  169MOL0     C22741  -0.345   4.016   2.223  0.2331  0.1679  0.3275
  169MOL0     C22742  -0.337   4.162   2.169  0.5410 -0.0363 -0.7893
  169MOL0     C22743  -0.197   4.203   2.143 -0.2237 -0.0747  0.7259
  169MOL0     C22744  -0.079   4.219   2.118 -0.2317 -0.0129 -0.5689
  169MOL0     C22745  -0.114   3.679   2.350 -0.3742  0.1782  0.4901
  169MOL0     C22746   0.024   3.650   2.361  0.7514 -0.0111  0.0753
  169MOL0     C22747   0.081   3.560   2.248 -0.2570 -0.3182  0.8098
  169MOL0     H22748   0.396   3.623   2.715  0.4656 -0.3362  0.2060
  169MOL0     H22749   0.648   3.590   2.791  3.2203  2.4826  0.3697
  169MOL0     H22750   0.903   3.660   2.892 -0.1583 -1.4782  0.8444
  169MOL0     H22751   0.846   3.537   2.789 -2.3743  1.9010 -3.5917
  169MOL0     H22752   1.112   3.682   2.753  3.3389 -1.9525  2.5915
  169MOL0     H22753   1.051   3.528   2.674 -0.9289  1.3119 -0.9877
  169MOL0     H22754   1.062   3.419   2.906  0.3687 -0.9841 -1.1046
  169MOL0     H22755   1.141   3.574   2.957  2.3236 -0.0598  0.4294
  169MOL0     H22756   1.224   3.376   2.749  1.5517  0.9746 -1.0138
  169MOL0     H22757   1.322   3.515   2.778 -1.0576 -0.4791 -2.0475
  169MOL0     H22758   1.359   3.431   3.030  1.6240  1.3268 -0.7059
  169MOL0     H22759   1.261   3.290   3.000  3.7939 -2.0256  2.0571
  169MOL0     H22760   1.415   3.215   2.811  1.2297 -1.3033  0.6198
  169MOL0     H22761   1.503   3.365   2.837 -1.1753  0.8605 -1.2702
  169MOL0     H22762   1.499   3.126   3.023 -0.6554  0.0064  1.0996
  169MOL0     H22763   1.531   3.301   3.071 -0.2038  0.9289 -0.8958
  169MOL0     H22764   1.661   3.120   2.869 -0.1469 -1.1764  1.4387
  169MOL0     H22765   1.701   3.279   2.856 -0.2751 -1.6107 -1.8298
  169MOL0     H22766   1.814   2.978   3.080  0.8149 -1.3495  4.2927
  169MOL0     H22767   1.952   3.108   3.409  0.8323 -1.8148  1.4381
  169MOL0     H22768   1.902   2.951   3.334  3.1821 -0.5482  2.8621
  169MOL0     H22769   2.118   2.927   3.227 -2.2104 -0.5995  0.6360
  169MOL0     H22770   2.149   3.099   3.245  0.5387 -0.8091 -0.8573
  169MOL0     H22771   2.272   2.908   3.408 -1.5175 -3.6613 -0.7575
  169MOL0     H22772   2.111   2.885   3.470  0.2342  0.6428  1.6502
  169MOL0     H22773   2.241   3.026   3.624 -0.6363 -0.2055  0.5787
  169MOL0     H22774   2.112   3.125   3.559  0.5177  1.2386  0.3176
  169MOL0     H22775   2.470   2.957   3.538 -0.6702  1.9319  1.1163
  169MOL0     H22776   2.671   2.897   3.434 -0.8272 -0.0947 -0.8773
  169MOL0     H22777   3.065   2.922   3.392  0.7462  0.5101 -0.1080
  169MOL0     H22778   3.296   2.932   3.329 -0.9117  2.2323 -0.2709
  169MOL0     H22779   3.455   2.778   2.919  3.5550  0.6368 -1.7600
  169MOL0     H22780   3.380   2.927   2.889  1.9876  0.5181 -2.6289
  169MOL0     H22781   3.597   3.019   3.008 -0.4696  2.9044 -3.4558
  169MOL0     H22782   3.659   2.858   2.996  0.1057  0.3086  0.8978
  169MOL0     H22783   3.584   2.902   2.734  0.7545 -1.5399  0.7213
  169MOL0     H22784   3.626   3.065   2.796 -0.9971 -0.8756 -1.4341
  169MOL0     H22785   3.794   2.813   2.803 -1.5962  0.2635 -1.7729
  169MOL0     H22786   3.857   2.970   2.867  0.7977 -0.1236 -0.0261
  169MOL0     H22787   3.830   3.056   2.628  1.4920  1.2300  3.5207
  169MOL0     H22788   3.783   2.882   2.584  0.6760 -0.7793  0.5812
  169MOL0     H22789   3.996   2.803   2.681  0.1293 -0.5483  0.8494
  169MOL0     H22790   4.040   2.911   2.546 -2.3121 -0.7543 -1.4891
  169MOL0     H22791   4.076   2.935   2.827  0.4821  0.2192  0.6556
  169MOL0     H22792   4.020   3.087   2.755  2.2406  1.4547  0.9606
  169MOL0     H22793   4.232   3.085   2.614 -2.2459 -1.0987 -1.8401
  169MOL0     H22794   4.260   3.053   2.793  0.7687 -1.6696  1.0303
  169MOL0     H22795   3.183   2.837   2.925 -2.9083 -2.8392  0.5513
  169MOL0     H22796   2.942   2.851   2.993  1.2076 -1.4240 -0.2306
  169MOL0     H22797   2.636   3.253   3.181  1.1522 -2.1187 -1.1566
  169MOL0     H22798   2.419   3.302   3.303  0.0141 -0.8225 -0.5784
  169MOL0     H22799   0.763   3.886   2.521  1.2122  1.1713  2.3802
  169MOL0     H22800   0.531   3.919   2.440 -0.8698  0.5673 -0.1112
  169MOL0     H22801   0.103   3.832   2.637 -0.0846 -2.7079  2.3201
  169MOL0     H22802  -0.139   3.887   2.618  0.4303  1.2339 -0.0853
  169MOL0     H22803  -0.353   3.943   2.561  0.1558  1.2710 -1.5900
  169MOL0     H22804  -0.473   3.906   2.451 -0.0173  2.0953 -0.5658
  169MOL0     H22805  -0.198   4.020   2.384 -0.2077 -2.4539  1.1390
  169MOL0     H22806  -0.335   4.125   2.415  2.4178  1.3446 -0.3727
  169MOL0     H22807  -0.444   3.973   2.203  0.3438  1.1962 -2.9670
  169MOL0     H22808  -0.276   3.954   2.165 -0.7797  0.0706 -0.8046
  169MOL0     H22809  -0.378   4.158   2.068  0.1444 -0.5269 -0.6143
  169MOL0     H22810  -0.401   4.219   2.236 -0.2264 -2.3218  0.5625
  169MOL0     H22811   0.027   4.226   2.120 -0.1673 -0.8204 -0.7045
  169MOL0     H22812  -0.169   3.645   2.263 -0.9307  1.9799  0.1023
  169MOL0     H22813   0.006   3.490   2.209 -1.1321 -0.4106  2.5470
  169MOL0     H22814   0.094   3.625   2.161 -1.1918  0.5749  1.3066
  169MOL0     H22815   0.174   3.505   2.265  1.5568  1.8566 -1.3154
  170MOL0     O22816   1.088   7.086   7.392 -0.6222  0.1495 -0.0428
  170MOL0     C22817   1.101   7.184   7.321  0.7631  0.1246  1.1566
  170MOL0     O22818   1.206   7.270   7.312 -0.1710 -0.3040  0.2238
  170MOL0     C22819   1.321   7.209   7.334  0.0186 -0.0763  0.1511
  170MOL0     C22820   1.377   7.111   7.250  0.8238 -0.1465  0.1111
  170MOL0     C22821   1.488   7.034   7.289 -0.3457  0.0842 -0.1420
  170MOL0     C22822   1.554   7.062   7.403 -1.4708 -0.0845  0.1041
  170MOL0     O22823   1.686   7.011   7.412  0.2074 -0.0734 -0.4062
  170MOL0     C22824   1.709   6.898   7.504  1.3199 -0.6687 -0.1041
  170MOL0     C22825   1.751   6.775   7.430 -0.1855 -0.4750 -0.6622
  170MOL0     C22826   1.769   6.665   7.530 -0.1228  0.0437  0.8771
  170MOL0     C22827   1.825   6.540   7.455  0.4885  0.3294  0.2009
  170MOL0     C22828   1.835   6.413   7.538 -0.0572 -0.6800 -0.3202
  170MOL0     C22829   1.949   6.404   7.636 -0.0243  0.3009 -0.2924
  170MOL0     C22830   2.094   6.422   7.574  0.1853  0.1395  0.6637
  170MOL0     C22831   2.206   6.383   7.672  0.0420 -0.1751 -0.7737
  170MOL0     N22832   2.344   6.393   7.611 -0.0595  0.2448 -0.1220
  170MOL0     C22833   2.449   6.325   7.661 -0.5048 -0.0653 -0.1579
  170MOL0     C22834   2.549   6.362   7.577  0.7374  0.1770 -0.3300
  170MOL0     C22835   2.674   6.284   7.556 -0.4869 -0.4814  0.8182
  170MOL0     C22836   2.765   6.278   7.677  0.5180 -0.0385  0.2051
  170MOL0     C22837   2.890   6.194   7.658  0.6179 -0.5489 -0.4780
  170MOL0     C22838   2.981   6.253   7.553 -0.6220  0.2497  0.6569
  170MOL0     O22839   3.072   6.158   7.508 -0.4125 -0.3345 -0.3708
  170MOL0     C22840   3.149   6.095   7.598  0.3533  0.0902  0.0075
  170MOL0     C22841   3.149   5.958   7.606  0.0852  0.2682 -0.7701
  170MOL0     C22842   3.238   5.896   7.687  0.3242  0.0037 -0.7385
  170MOL0     C22843   3.322   5.968   7.773  0.1821 -0.3952 -0.1608
  170MOL0     C22844   3.401   5.897   7.875  0.7008  0.1211  0.3754
  170MOL0     O22845   3.470   5.966   7.969  0.6269  0.1736 -0.4863
  170MOL0     C22846   3.537   5.899   8.077  0.0705  0.2786 -0.2083
  170MOL0     C22847   3.486   5.783   8.138 -1.1928  0.7004 -0.6777
  170MOL0     C22848   3.550   5.727   8.245  0.0706  0.3767  0.6943
  170MOL0     C22849   3.662   5.777   8.299 -0.2409 -0.6147  0.7896
  170MOL0     O22850   3.713   5.715   8.412  0.1906 -0.2388  0.0830
  170MOL0     C22851   3.849   5.731   8.449  0.2869 -0.4576  0.0764
  170MOL0     C22852   3.877   5.629   8.552  0.2122 -0.8092 -0.3206
  170MOL0     C22853   4.001   5.661   8.633 -0.8449  0.4781 -0.0671
  170MOL0     C22854   4.081   5.525   8.678 -0.0234 -0.1595 -0.0510
  170MOL0     C22855   4.221   5.557   8.742 -0.2228  0.5356  0.7920
  170MOL0     C22856   4.288   5.421   8.785 -0.4040 -0.3695  0.9094
  170MOL0     C22857   4.339   5.333   8.664 -0.0471 -0.3701  0.4548
  170MOL0     C22858   4.439   5.225   8.703  0.4143  1.5272  0.3694
  170MOL0    Cl22859   4.599   5.290   8.738 -0.0739 -0.3002 -0.1552
  170MOL0     C22860   3.719   5.892   8.240  0.2578  0.4248 -0.2770
  170MOL0     C22861   3.657   5.955   8.129  0.9275 -0.1394 -0.1896
  170MOL0     O22862   3.380   5.775   7.867 -0.2589 -0.2907  0.2619
  170MOL0     C22863   3.335   6.106   7.762  0.6613 -0.0035  0.4252
  170MOL0     C22864   3.248   6.165   7.667 -0.0140 -0.0436 -0.2960
  170MOL0     N22865   2.499   6.450   7.486  0.4128  0.1829 -0.7956
  170MOL0     N22866   2.378   6.470   7.505  0.1108 -0.5879 -0.2132
  170MOL0     C22867   1.516   7.179   7.473  0.9100 -0.5416  1.6049
  170MOL0     C22868   1.394   7.244   7.448  1.2109 -0.1735  0.4396
  170MOL0     C22869   0.973   7.207   7.247  0.2357  0.4342  0.4437
  170MOL0     C22870   0.848   7.186   7.304 -0.1759  0.5369 -0.6594
  170MOL0     C22871   0.734   7.209   7.233  0.4836 -0.6173  0.1576
  170MOL0     C22872   0.732   7.254   7.103  0.1924 -0.1186 -0.6244
  170MOL0     O22873   0.609   7.271   7.049 -0.1913  0.3430  0.6538
  170MOL0     C22874   0.586   7.275   6.900  0.5138 -0.0685  0.0768
  170MOL0     C22875   0.553   7.417   6.857  0.0935  0.0170  0.5303
  170MOL0     C22876   0.510   7.426   6.705 -0.5537 -0.1131  0.2853
  170MOL0     C22877   0.368   7.476   6.685  0.4563 -0.5968  0.7810
  170MOL0     C22878   0.329   7.617   6.719  0.2484 -0.1418  0.0646
  170MOL0     C22879   0.292   7.730   6.741 -0.6964 -0.1489  0.1759
  170MOL0     C22880   0.851   7.280   7.046 -0.6446 -0.7349  0.8706
  170MOL0     C22881   0.975   7.260   7.113  0.4397 -0.4879 -0.5939
  170MOL0     C22882   1.104   7.288   7.032  0.0742  0.7238  0.0166
  170MOL0     H22883   1.321   7.092   7.159  2.3825 -2.6405 -0.4112
  170MOL0     H22884   1.544   6.960   7.232 -0.4816 -1.6560  1.8262
  170MOL0     H22885   1.781   6.927   7.582 -0.2103 -0.1787  1.1656
  170MOL0     H22886   1.615   6.883   7.558  1.6938  1.0204  1.1247
  170MOL0     H22887   1.842   6.790   7.372 -0.7482 -0.0369 -1.4554
  170MOL0     H22888   1.674   6.749   7.356 -1.7311  0.7290  0.4601
  170MOL0     H22889   1.681   6.640   7.590 -0.1759 -2.0059  0.0328
  170MOL0     H22890   1.837   6.695   7.610  0.0679 -0.6395  0.9820
  170MOL0     H22891   1.749   6.510   7.382 -0.0730  0.4066  0.7540
  170MOL0     H22892   1.913   6.561   7.393  1.0313 -1.2612  0.3678
  170MOL0     H22893   1.738   6.409   7.590  0.7363  1.4033  1.4758
  170MOL0     H22894   1.828   6.332   7.465 -0.0941 -0.6844 -0.3119
  170MOL0     H22895   1.918   6.473   7.715 -1.3973 -1.0721  0.4258
  170MOL0     H22896   1.943   6.304   7.681  0.9628 -0.1061 -1.0380
  170MOL0     H22897   2.098   6.527   7.543 -1.5472  0.2851  0.8287
  170MOL0     H22898   2.106   6.356   7.488 -0.4109 -0.3344  0.9343
  170MOL0     H22899   2.207   6.459   7.751  3.5837  1.0373 -1.7822
  170MOL0     H22900   2.187   6.281   7.708  0.7437  0.3775  1.2819
  170MOL0     H22901   2.452   6.262   7.750 -1.0915  0.5674  0.3258
  170MOL0     H22902   2.655   6.180   7.527 -1.7038  0.2803 -1.3958
  170MOL0     H22903   2.721   6.333   7.470  1.3236  0.7475  2.4195
  170MOL0     H22904   2.797   6.382   7.685 -2.4818  0.9165  0.8095
  170MOL0     H22905   2.721   6.246   7.772  2.4019 -1.4191  0.6776
  170MOL0     H22906   2.870   6.089   7.636 -1.0772 -0.4352  0.3873
  170MOL0     H22907   2.950   6.212   7.747  0.7714 -1.5442 -0.3772
  170MOL0     H22908   3.027   6.337   7.607  2.2224 -1.9430  1.8803
  170MOL0     H22909   2.929   6.289   7.463  1.3816 -0.1476 -0.7191
  170MOL0     H22910   3.093   5.898   7.535 -0.6119  0.1001 -0.0958
  170MOL0     H22911   3.243   5.787   7.687 -0.0565 -0.0251 -1.6928
  170MOL0     H22912   3.401   5.725   8.104 -0.2064 -1.0660 -0.2934
  170MOL0     H22913   3.503   5.636   8.280 -2.0655  0.6624 -1.2034
  170MOL0     H22914   3.923   5.725   8.368  1.1660 -0.3569  0.8497
  170MOL0     H22915   3.850   5.826   8.504 -1.5543  0.0739 -0.7410
  170MOL0     H22916   3.794   5.631   8.623 -1.4362 -0.2584 -2.1895
  170MOL0     H22917   3.887   5.528   8.510  2.6048 -0.6584 -0.2347
  170MOL0     H22918   4.063   5.731   8.576 -2.6915  2.7813  0.6223
  170MOL0     H22919   3.975   5.712   8.726  1.0090 -0.1554  0.8580
  170MOL0     H22920   4.096   5.465   8.588 -1.8652 -1.2279  0.3181
  170MOL0     H22921   4.026   5.471   8.755  0.4742  1.6959  1.7027
  170MOL0     H22922   4.206   5.617   8.832 -0.1724  1.8805 -0.0695
  170MOL0     H22923   4.283   5.621   8.678  2.9025 -2.0616  0.9964
  170MOL0     H22924   4.378   5.458   8.834 -0.1071 -0.2076  0.2524
  170MOL0     H22925   4.227   5.369   8.861  1.1372 -1.1063  1.6966
  170MOL0     H22926   4.384   5.396   8.586  0.3509 -1.3661 -0.1346
  170MOL0     H22927   4.256   5.267   8.637 -0.6690 -0.0681  1.5622
  170MOL0     H22928   4.395   5.165   8.783 -3.9427 -0.6189 -3.1984
  170MOL0     H22929   4.458   5.158   8.619 -2.2076 -1.5607  2.0493
  170MOL0     H22930   3.817   5.925   8.273  0.3354  0.2744 -0.3550
  170MOL0     H22931   3.696   6.042   8.077 -0.2248 -1.8491 -4.3489
  170MOL0     H22932   3.420   6.154   7.809  3.2348 -4.2855  0.6393
  170MOL0     H22933   3.270   6.271   7.652 -0.2731  0.2913  1.5479
  170MOL0     H22934   1.580   7.222   7.550 -0.9435  3.7354  1.0311
  170MOL0     H22935   1.347   7.309   7.520 -1.7196  0.8844 -2.2113
  170MOL0     H22936   0.837   7.142   7.403  2.0822 -0.9752 -1.0057
  170MOL0     H22937   0.640   7.176   7.277 -0.3024 -2.1141 -2.3935
  170MOL0     H22938   0.498   7.215   6.875 -0.1266  0.6128  0.6387
  170MOL0     H22939   0.672   7.243   6.839  1.3909  0.4419  1.0246
  170MOL0     H22940   0.645   7.476   6.865  0.4716 -0.6966  1.4728
  170MOL0     H22941   0.462   7.452   6.906 -0.9440 -0.4177 -1.0057
  170MOL0     H22942   0.518   7.329   6.655  0.6850 -0.2898  0.7889
  170MOL0     H22943   0.578   7.498   6.658 -1.4179 -0.4645 -1.6095
  170MOL0     H22944   0.350   7.476   6.577 -3.8434 -0.8801  1.3227
  170MOL0     H22945   0.294   7.404   6.720 -2.0377  1.7666  0.6922
  170MOL0     H22946   0.250   7.824   6.770  1.0626  0.8266 -0.3396
  170MOL0     H22947   0.851   7.299   6.939 -2.8487  0.8444  1.0720
  170MOL0     H22948   1.167   7.199   7.045 -1.1526  0.0828  2.1319
  170MOL0     H22949   1.074   7.291   6.927 -2.4682 -1.1459  0.6020
  170MOL0     H22950   1.160   7.376   7.066 -0.1478  1.4071 -1.3345
  171MOL0     O22951   1.080   2.796  10.441  0.1664  0.1205  0.0446
  171MOL0     C22952   1.142   2.896  10.409  0.5434  0.1476 -0.2412
  171MOL0     O22953   1.106   2.986  10.317 -0.0278 -0.6648  0.9972
  171MOL0     C22954   0.973   2.985  10.269 -0.5431  0.1555 -0.3083
  171MOL0     C22955   0.869   3.001  10.353  0.5860  0.1301  0.6028
  171MOL0     C22956   0.739   3.002  10.306  0.0911 -0.1371  0.0944
  171MOL0     C22957   0.711   2.977  10.172 -0.0342  0.1339  0.4758
  171MOL0     O22958   0.585   2.968  10.111 -0.3691 -0.2560  0.3692
  171MOL0     C22959   0.472   3.015  10.191  0.0838 -0.6533 -0.3492
  171MOL0     C22960   0.336   3.020  10.117  0.0276  0.1887 -0.3432
  171MOL0     C22961   0.288   3.152  10.084 -0.2965  0.0193  0.6124
  171MOL0     C22962   0.256   3.236  10.207  0.4547  0.1523  0.0415
  171MOL0     C22963   0.216   3.375  10.172 -0.9671 -1.0916  0.1059
  171MOL0     C22964   0.191   3.471  10.298 -1.6528 -0.1521 -0.5741
  171MOL0     C22965   0.321   3.511  10.365 -1.1671 -0.4438  0.3365
  171MOL0     C22966   0.289   3.541  10.512 -0.4523 -0.4906 -0.8443
  171MOL0     N22967   0.408   3.582  10.574  0.1543 -0.2895 -0.4558
  171MOL0     C22968   0.476   3.692  10.529  0.0821 -0.0115 -0.2139
  171MOL0     C22969   0.599   3.688  10.588  0.0421 -0.3072 -0.2583
  171MOL0     C22970   0.710   3.791  10.575  0.3950  0.8239 -0.2036
  171MOL0     C22971   0.817   3.746  10.466 -0.3648  0.7489  0.1788
  171MOL0     C22972   0.931   3.849  10.476 -0.4184 -0.4932 -0.2137
  171MOL0     C22973   1.047   3.827  10.383  0.0490  0.5006  0.3251
  171MOL0     O22974   1.133   3.939  10.406  0.2569 -0.0242  0.0449
  171MOL0     C22975   1.224   3.938  10.508  0.2861 -0.3560  0.4357
  171MOL0     C22976   1.278   3.821  10.565 -0.4882  0.9960 -0.4502
  171MOL0     C22977   1.373   3.832  10.666 -0.0326 -0.0948 -0.7848
  171MOL0     C22978   1.416   3.956  10.720 -0.8051  0.0395 -0.0105
  171MOL0     C22979   1.535   3.976  10.812  0.6024 -0.0426  0.6821
  171MOL0     O22980   1.559   4.108  10.850  0.1960 -0.0314  0.2044
  171MOL0     C22981   1.671   4.137  10.916  0.1198  0.2290 -0.1551
  171MOL0     C22982   1.661   4.159  11.058 -0.3059 -0.3537  0.0276
  171MOL0     C22983   1.777   4.174  11.138  0.0717 -0.6662 -0.0799
  171MOL0     C22984   1.903   4.173  11.081  0.1109  0.1593 -0.3917
  171MOL0     O22985   2.007   4.180  11.172 -0.0537  0.2412  0.6370
  171MOL0     C22986   2.143   4.181  11.133  0.5220 -0.4170 -0.2008
  171MOL0     C22987   2.229   4.149  11.255  0.9396 -0.2445 -0.1824
  171MOL0     C22988   2.200   4.230  11.392  0.6575  0.6591  0.2904
  171MOL0     C22989   2.338   4.261  11.457 -0.0432 -0.0761  0.3362
  171MOL0     C22990   2.324   4.309  11.595 -0.0659 -0.8398  0.5270
  171MOL0     C22991   2.450   4.335  11.668 -0.0776  0.1477  0.4364
  171MOL0     C22992   2.540   4.215  11.694  0.4304  0.3981  0.5415
  171MOL0     C22993   2.612   4.221  11.827  0.3262  0.0209  0.5769
  171MOL0    Cl22994   2.712   4.367  11.830 -0.3624 -0.2146 -0.2848
  171MOL0     C22995   1.914   4.148  10.947  0.4932  1.1464 -0.4426
  171MOL0     C22996   1.799   4.127  10.860 -0.1744  0.2608 -0.4179
  171MOL0     O22997   1.606   3.884  10.834  0.3781  0.0729  0.1222
  171MOL0     C22998   1.355   4.074  10.668  0.1324  0.2722 -0.1315
  171MOL0     C22999   1.264   4.066  10.558  0.2926 -0.4887  0.5915
  171MOL0     N23000   0.602   3.569  10.662  0.4507  0.0772  0.1808
  171MOL0     N23001   0.482   3.513  10.660  0.2904  0.3041 -0.0176
  171MOL0     C23002   0.816   2.961  10.087 -0.8917 -0.2025 -0.0359
  171MOL0     C23003   0.954   2.961  10.133  0.6604 -0.0838 -0.6232
  171MOL0     C23004   1.264   2.931  10.486 -0.2454  0.1238  0.8451
  171MOL0     C23005   1.384   2.963  10.413  0.5586  0.4946 -0.1068
  171MOL0     C23006   1.498   3.014  10.476 -0.1862  0.0215  0.6072
  171MOL0     C23007   1.493   3.023  10.618  0.1723  0.0550 -0.4866
  171MOL0     O23008   1.597   3.071  10.698  0.0778 -0.0345  0.4079
  171MOL0     C23009   1.724   3.105  10.642  0.1920  0.6638  0.0839
  171MOL0     C23010   1.838   3.018  10.715 -0.0192 -0.4175  0.5745
  171MOL0     C23011   1.847   3.032  10.866 -0.3979 -0.9191  0.5042
  171MOL0     C23012   1.874   3.185  10.911  0.5396  0.0466  0.7021
  171MOL0     C23013   2.012   3.220  10.895 -0.0826  0.0945 -0.2853
  171MOL0     C23014   2.124   3.247  10.862 -0.4433  0.4022 -0.7193
  171MOL0     C23015   1.384   2.985  10.689 -0.0680  0.9165  0.4915
  171MOL0     C23016   1.262   2.939  10.628 -0.2343 -0.4401 -0.3842
  171MOL0     C23017   1.142   2.899  10.703  0.3074 -0.2963 -0.2217
  171MOL0     H23018   0.881   2.995  10.460 -0.9277 -2.7444  0.7088
  171MOL0     H23019   0.671   2.995  10.389  0.0948  1.4814  0.2628
  171MOL0     H23020   0.476   2.947  10.276 -0.9325  0.2117  0.4139
  171MOL0     H23021   0.501   3.116  10.220  3.5415 -2.1320  1.9901
  171MOL0     H23022   0.259   2.966  10.173 -0.0050 -1.5246 -1.9260
  171MOL0     H23023   0.346   2.959  10.026 -3.1320 -1.3669  0.2316
  171MOL0     H23024   0.203   3.129  10.019  0.1847  1.0162 -0.4172
  171MOL0     H23025   0.361   3.199  10.017  1.0672 -0.0862  1.9764
  171MOL0     H23026   0.174   3.182  10.254  1.0353 -0.3152  0.5212
  171MOL0     H23027   0.335   3.230  10.282 -1.8965 -1.6882  2.5444
  171MOL0     H23028   0.295   3.414  10.106  0.9066 -2.5793  1.3472
  171MOL0     H23029   0.126   3.381  10.110 -1.0088  1.9247  0.2887
  171MOL0     H23030   0.126   3.552  10.263  1.6320  1.6829 -2.9874
  171MOL0     H23031   0.138   3.415  10.376 -5.5739  1.9167 -1.4874
  171MOL0     H23032   0.368   3.597  10.316 -0.1747 -0.1999  1.6522
  171MOL0     H23033   0.392   3.429  10.366 -2.9567 -2.0777  1.8626
  171MOL0     H23034   0.218   3.621  10.535  2.8812  2.6673 -0.5720
  171MOL0     H23035   0.254   3.446  10.553  2.2792 -0.6472  1.4480
  171MOL0     H23036   0.458   3.765  10.450  4.1544  2.7211  1.1003
  171MOL0     H23037   0.668   3.886  10.542 -3.8526 -0.8265 -0.1831
  171MOL0     H23038   0.756   3.806  10.673 -1.2270  0.3362  0.6759
  171MOL0     H23039   0.860   3.647  10.478  2.2622  1.2382 -3.4869
  171MOL0     H23040   0.774   3.757  10.366  0.8153  0.4921 -0.3799
  171MOL0     H23041   0.962   3.836  10.580 -0.5778 -0.0827 -0.1108
  171MOL0     H23042   0.895   3.949  10.451  2.3856  0.5412 -0.4682
  171MOL0     H23043   1.006   3.837  10.282 -0.6533  0.6192  0.6162
  171MOL0     H23044   1.097   3.730  10.390  0.9847  0.8660 -0.9968
  171MOL0     H23045   1.244   3.727  10.522 -1.1706  1.8631 -1.8824
  171MOL0     H23046   1.423   3.743  10.703  0.4530  1.2565  2.0792
  171MOL0     H23047   1.568   4.148  11.112  0.7453 -0.7887  1.8238
  171MOL0     H23048   1.769   4.199  11.244 -1.1701 -0.4060 -0.2163
  171MOL0     H23049   2.169   4.114  11.051  0.8007 -0.8730  0.2496
  171MOL0     H23050   2.154   4.284  11.098 -1.8601 -0.0885 -0.1323
  171MOL0     H23051   2.208   4.044  11.278  0.0781  0.1311  0.8462
  171MOL0     H23052   2.331   4.172  11.223  1.3216 -0.7146  0.6579
  171MOL0     H23053   2.148   4.326  11.392  0.7648  0.8980  4.0390
  171MOL0     H23054   2.148   4.168  11.466 -0.8275  1.2428 -0.2292
  171MOL0     H23055   2.396   4.334  11.400 -1.5086  2.4323  1.8902
  171MOL0     H23056   2.397   4.169  11.451 -0.1044 -0.1366  0.6313
  171MOL0     H23057   2.267   4.240  11.658 -2.9304  0.5199 -0.4430
  171MOL0     H23058   2.274   4.406  11.597 -0.8043 -1.2255  1.7411
  171MOL0     H23059   2.498   4.415  11.611  1.5473 -0.2360  1.1915
  171MOL0     H23060   2.418   4.380  11.762  1.4663 -0.2546  1.1897
  171MOL0     H23061   2.610   4.194  11.613 -1.6068 -3.2455 -0.4966
  171MOL0     H23062   2.467   4.134  11.701 -0.3873  1.2632  4.1035
  171MOL0     H23063   2.541   4.222  11.911 -0.4240 -1.1211 -0.0274
  171MOL0     H23064   2.667   4.128  11.840 -2.2470 -1.6279  0.3808
  171MOL0     H23065   2.010   4.136  10.899  2.0540  0.4226  2.6222
  171MOL0     H23066   1.809   4.096  10.757  1.4818 -2.4112  0.4555
  171MOL0     H23067   1.378   4.171  10.711  1.5250 -0.9220  1.9605
  171MOL0     H23068   1.213   4.147  10.506  1.2557 -1.8819 -2.7798
  171MOL0     H23069   0.799   2.952   9.980  2.9104  1.1281 -0.8811
  171MOL0     H23070   1.035   2.937  10.065  0.2953  1.9653 -1.8565
  171MOL0     H23071   1.379   2.965  10.305  0.8252  2.7620 -0.1318
  171MOL0     H23072   1.576   3.054  10.412 -2.6980  1.6702 -1.6774
  171MOL0     H23073   1.745   3.212  10.643  0.7010  0.5657  0.1117
  171MOL0     H23074   1.723   3.081  10.535 -2.6115  0.0908  0.1655
  171MOL0     H23075   1.935   3.043  10.670  1.1304 -3.3367  1.2329
  171MOL0     H23076   1.841   2.913  10.687  1.3817  0.4070 -2.8768
  171MOL0     H23077   1.932   2.966  10.886 -1.2758 -2.6342 -1.1010
  171MOL0     H23078   1.754   2.998  10.913 -0.1565 -0.5686  1.2505
  171MOL0     H23079   1.809   3.250  10.851  0.2688  0.0191  0.9640
  171MOL0     H23080   1.844   3.194  11.016 -0.9335 -2.3602  0.5814
  171MOL0     H23081   2.221   3.263  10.820 -0.0022 -1.4265 -0.5152
  171MOL0     H23082   1.394   3.001  10.796  2.8577 -1.1424  0.6314
  171MOL0     H23083   1.055   2.959  10.676  0.0215  0.0816  1.4063
  171MOL0     H23084   1.115   2.796  10.679 -2.7950 -0.6143  3.6073
  171MOL0     H23085   1.158   2.904  10.811  0.1308  3.5011 -0.2645
  172MOL0     O23086   9.034   1.417   7.535 -1.2896  0.8359  0.9645
  172MOL0     C23087   8.992   1.354   7.633 -0.2426 -0.0954 -0.3197
  172MOL0     O23088   9.062   1.331   7.749  0.1534 -0.0436  0.0482
  172MOL0     C23089   9.198   1.358   7.749  0.4194 -0.0415 -0.1230
  172MOL0     C23090   9.279   1.327   7.641  0.4638 -0.8406 -0.9937
  172MOL0     C23091   9.417   1.360   7.660  0.5502  0.2272  0.1937
  172MOL0     C23092   9.470   1.425   7.776 -0.3494 -0.2482  0.2289
  172MOL0     O23093   9.603   1.467   7.778 -0.2065  0.4872  0.1864
  172MOL0     C23094   9.666   1.460   7.901 -0.5768  0.6367  0.3589
  172MOL0     C23095   9.820   1.471   7.872  0.3527  1.6430 -0.4434
  172MOL0     C23096   9.888   1.460   8.000  0.1103 -0.4360  0.5975
  172MOL0     C23097  10.044   1.477   7.990 -0.3484 -0.1160  0.3791
  172MOL0     C23098  10.096   1.487   8.138  0.8290 -0.6590  0.2182
  172MOL0     C23099  10.247   1.515   8.152  0.3213 -0.0622 -0.1471
  172MOL0     C23100  10.323   1.383   8.160  0.5022 -0.5504  0.2612
  172MOL0     C23101  10.476   1.387   8.156 -0.1842 -0.3739  0.2461
  172MOL0     N23102  10.514   1.434   8.012 -0.2407  1.0438 -0.2031
  172MOL0     C23103  10.557   1.557   7.978 -0.1358 -0.3197  0.4912
  172MOL0     C23104  10.584   1.549   7.845 -0.0016 -0.0962  1.0429
  172MOL0     C23105  10.645   1.663   7.762  0.8836  0.2342  0.2219
  172MOL0     C23106  10.778   1.627   7.718 -0.5954 -0.1109  0.0293
  172MOL0     C23107  10.875   1.610   7.832  0.1295  0.9997 -0.5250
  172MOL0     C23108  10.919   1.741   7.903 -0.0537 -0.9957 -0.0529
  172MOL0     O23109  11.007   1.711   8.013  0.7126 -0.2174 -0.0313
  172MOL0     C23110  11.090   1.807   8.056  0.1419  0.0147 -0.5580
  172MOL0     C23111  11.202   1.764   8.131 -0.0585 -0.1937  0.3944
  172MOL0     C23112  11.313   1.854   8.144 -0.0008 -0.1470  0.7032
  172MOL0     C23113  11.301   1.985   8.096  0.7629  0.3144  0.1031
  172MOL0     C23114  11.419   2.074   8.098  0.7428  0.6960  0.2722
  172MOL0     O23115  11.528   2.027   8.162 -0.2598  0.1065  0.7985
  172MOL0     C23116  11.642   2.106   8.143  0.5480  0.7796  0.0784
  172MOL0     C23117  11.731   2.065   8.046 -1.4529 -0.1814  0.1140
  172MOL0     C23118  11.856   2.131   8.027 -0.4235  0.6161  0.0807
  172MOL0     C23119  11.885   2.236   8.110 -0.5791 -0.0082 -0.4740
  172MOL0     O23120  12.011   2.292   8.090  0.1386 -0.3663 -0.3201
  172MOL0     C23121  12.063   2.393   8.179  0.6025  0.8152  0.0561
  172MOL0     C23122  12.193   2.448   8.113 -0.9043  0.2706 -0.8806
  172MOL0     C23123  12.315   2.422   8.199  0.2513  0.8427 -0.0187
  172MOL0     C23124  12.433   2.504   8.149  0.3209  0.0746  0.7443
  172MOL0     C23125  12.572   2.458   8.212 -0.0554 -0.5585  0.1169
  172MOL0     C23126  12.692   2.539   8.171 -0.4271 -0.3116 -0.0855
  172MOL0     C23127  12.780   2.576   8.286  0.3254 -0.0323  0.6621
  172MOL0     C23128  12.834   2.448   8.355  0.5589  0.9498 -0.1804
  172MOL0    Cl23129  12.948   2.495   8.462 -0.4884 -0.4536 -0.0122
  172MOL0     C23130  11.799   2.275   8.214 -0.1763  0.3699 -0.1961
  172MOL0     C23131  11.677   2.209   8.233  0.0735  0.5048 -0.3247
  172MOL0     O23132  11.406   2.183   8.042 -0.1393 -0.5154  0.2047
  172MOL0     C23133  11.182   2.031   8.039  0.2587  0.1052  0.1045
  172MOL0     C23134  11.074   1.945   8.017  0.9866  0.0827  0.1213
  172MOL0     N23135  10.549   1.424   7.793 -0.0675 -0.0817 -0.1088
  172MOL0     N23136  10.495   1.362   7.897  0.3994  0.0943 -0.4419
  172MOL0     C23137   9.376   1.452   7.878  0.2508 -0.4734  0.0719
  172MOL0     C23138   9.246   1.418   7.870 -0.2370 -0.0108  0.3316
  172MOL0     C23139   8.850   1.320   7.626 -0.0418  0.7948 -0.3191
  172MOL0     C23140   8.759   1.349   7.738  0.3762  0.8401  0.6982
  172MOL0     C23141   8.625   1.294   7.731 -0.8514 -0.4896 -0.6348
  172MOL0     C23142   8.577   1.228   7.624 -0.0494 -0.4688  0.4743
  172MOL0     O23143   8.451   1.179   7.644  0.0246  0.2733 -0.0626
  172MOL0     C23144   8.390   1.118   7.524 -0.4773  0.0729  0.1417
  172MOL0     C23145   8.244   1.094   7.549 -0.1705 -0.1098 -0.1774
  172MOL0     C23146   8.168   1.027   7.432  1.1387  0.8947  0.2062
  172MOL0     C23147   8.018   1.022   7.450 -0.3380 -0.7474  0.3809
  172MOL0     C23148   7.949   1.152   7.441 -0.2775 -1.2391  1.1118
  172MOL0     C23149   7.891   1.253   7.434 -0.1589  0.4821  0.6502
  172MOL0     C23150   8.661   1.201   7.520  0.2680  0.6251 -0.8939
  172MOL0     C23151   8.797   1.239   7.515 -0.0281  0.1452 -1.0227
  172MOL0     C23152   8.878   1.190   7.403  0.2968 -0.6924  0.1965
  172MOL0     H23153   9.249   1.277   7.550 -3.1544 -1.8684  0.5807
  172MOL0     H23154   9.486   1.320   7.586 -0.1911 -4.2148  1.6189
  172MOL0     H23155   9.626   1.544   7.959 -2.7771 -0.3694  0.3836
  172MOL0     H23156   9.644   1.367   7.953  1.3783 -0.1355 -0.1151
  172MOL0     H23157   9.856   1.557   7.814  1.0816  2.4881  1.2212
  172MOL0     H23158   9.853   1.384   7.815 -0.7096  0.7021  0.3343
  172MOL0     H23159   9.857   1.366   8.048 -1.8859 -0.4375 -0.6027
  172MOL0     H23160   9.859   1.548   8.058  2.7050  2.6504 -2.3730
  172MOL0     H23161  10.091   1.393   7.938 -0.1047  1.1181 -1.5189
  172MOL0     H23162  10.065   1.564   7.927  1.4081 -0.7737 -0.0148
  172MOL0     H23163  10.053   1.574   8.189 -0.5310 -1.1210 -0.0984
  172MOL0     H23164  10.065   1.401   8.198  0.3197 -0.4039  0.3293
  172MOL0     H23165  10.280   1.582   8.072 -2.7538  0.7061 -0.8886
  172MOL0     H23166  10.262   1.587   8.233 -0.9801  1.8953 -1.5658
  172MOL0     H23167  10.277   1.312   8.091 -0.9719  1.1253 -0.5700
  172MOL0     H23168  10.294   1.349   8.260  2.5085  1.4302  1.6105
  172MOL0     H23169  10.518   1.462   8.222 -0.8905  0.3370 -0.0980
  172MOL0     H23170  10.521   1.288   8.169 -0.3314 -0.3444  1.0315
  172MOL0     H23171  10.568   1.639   8.047 -1.1400  0.3844 -0.1583
  172MOL0     H23172  10.576   1.679   7.680  0.3898  3.9567  1.1596
  172MOL0     H23173  10.646   1.753   7.824  2.0522 -0.6066  1.4960
  172MOL0     H23174  10.776   1.533   7.661 -0.6626  0.2385 -0.5610
  172MOL0     H23175  10.802   1.708   7.648 -2.7542  1.2793  0.8053
  172MOL0     H23176  10.956   1.545   7.796 -1.7907 -0.8802 -1.7182
  172MOL0     H23177  10.835   1.545   7.910 -0.3814  1.4369 -0.4218
  172MOL0     H23178  10.840   1.801   7.949  1.6170  1.4712 -0.2038
  172MOL0     H23179  10.977   1.801   7.832 -1.6188  0.3488 -0.2747
  172MOL0     H23180  11.204   1.662   8.167 -0.6502 -0.8100 -1.2443
  172MOL0     H23181  11.404   1.814   8.188  1.1307  0.5246 -0.8751
  172MOL0     H23182  11.714   1.973   7.991  0.8099  0.3949 -1.7340
  172MOL0     H23183  11.929   2.092   7.957 -1.2916 -1.4657  0.2795
  172MOL0     H23184  11.995   2.476   8.201 -0.7062 -0.6097  1.7126
  172MOL0     H23185  12.080   2.343   8.275 -0.7990  1.7891  0.8477
  172MOL0     H23186  12.215   2.400   8.017 -1.1694 -0.1102 -0.7545
  172MOL0     H23187  12.184   2.556   8.097 -1.3892  0.4405  0.4124
  172MOL0     H23188  12.294   2.461   8.299  0.0425 -0.2026  0.3490
  172MOL0     H23189  12.331   2.314   8.207  1.2895  1.0831  1.5500
  172MOL0     H23190  12.408   2.606   8.180 -0.5559  0.7649 -1.9918
  172MOL0     H23191  12.432   2.511   8.040 -2.9488 -0.7354  0.6360
  172MOL0     H23192  12.601   2.356   8.184  0.6363 -0.6705  1.1776
  172MOL0     H23193  12.548   2.444   8.318 -1.1725 -0.6027 -0.1357
  172MOL0     H23194  12.748   2.485   8.095 -1.7379 -0.2812 -1.1072
  172MOL0     H23195  12.655   2.628   8.120 -0.4738  1.1150  2.2648
  172MOL0     H23196  12.720   2.627   8.361 -3.5085 -1.8791 -0.8872
  172MOL0     H23197  12.865   2.640   8.259 -0.7054  0.8600 -0.5953
  172MOL0     H23198  12.752   2.402   8.410  0.4470  1.9818  0.5620
  172MOL0     H23199  12.887   2.379   8.289 -0.2351  1.7314 -1.6693
  172MOL0     H23200  11.825   2.356   8.280 -1.0628  0.9191 -0.4944
  172MOL0     H23201  11.625   2.237   8.324  0.0241 -1.0045  0.1399
  172MOL0     H23202  11.169   2.132   8.001 -1.8631 -0.3732 -0.6157
  172MOL0     H23203  10.990   1.981   7.958  0.7446 -0.2362  0.2734
  172MOL0     H23204   9.416   1.489   7.971  1.1236 -1.0543 -0.0591
  172MOL0     H23205   9.169   1.432   7.945 -2.2730 -2.0819 -1.2346
  172MOL0     H23206   8.796   1.410   7.820 -0.1843  0.4371  1.2616
  172MOL0     H23207   8.550   1.309   7.808 -0.8881 -3.4455  0.0238
  172MOL0     H23208   8.432   1.019   7.503  0.2698  0.4815 -0.3439
  172MOL0     H23209   8.408   1.183   7.438 -0.5790 -0.9463 -0.6735
  172MOL0     H23210   8.210   1.197   7.568  0.2242 -0.3122  1.8012
  172MOL0     H23211   8.235   1.028   7.635  0.5529  0.6296  0.4881
  172MOL0     H23212   8.201   0.923   7.417  0.2362  0.5631  0.4242
  172MOL0     H23213   8.182   1.099   7.352  0.7099 -0.4097 -1.0892
  172MOL0     H23214   7.979   0.949   7.378  1.1179 -0.8756 -0.3141
  172MOL0     H23215   7.995   0.987   7.551 -0.3717 -0.4116  0.4907
  172MOL0     H23216   7.848   1.351   7.436  0.8313  0.9246  0.6982
  172MOL0     H23217   8.626   1.140   7.437 -0.3764  1.7855 -1.4919
  172MOL0     H23218   8.845   1.095   7.360  2.2931 -0.3517 -2.3380
  172MOL0     H23219   8.875   1.256   7.316 -0.0754  0.0642  0.7719
  172MOL0     H23220   8.985   1.193   7.424  0.1570  1.8795  0.9530
  173MOL0     O23221   5.616   5.111   7.284 -0.0666 -0.2698 -0.3336
  173MOL0     C23222   5.602   5.050   7.390  1.0142 -0.2358  1.1025
  173MOL0     O23223   5.685   5.060   7.494  0.1613  0.3379  0.0014
  173MOL0     C23224   5.794   5.136   7.475  0.5239 -0.2050 -0.2960
  173MOL0     C23225   5.885   5.128   7.369  0.7750  0.4676  0.3760
  173MOL0     C23226   5.993   5.216   7.363  0.3093  0.3553 -0.0907
  173MOL0     C23227   6.017   5.316   7.472 -0.2944  0.9621 -0.5415
  173MOL0     O23228   6.134   5.386   7.454 -0.1973  0.8541 -0.3127
  173MOL0     C23229   6.182   5.462   7.561  0.5224 -0.3045  0.2095
  173MOL0     C23230   6.321   5.509   7.518  0.6598  0.4327 -0.7107
  173MOL0     C23231   6.403   5.558   7.640  0.0525 -0.4940  0.6044
  173MOL0     C23232   6.520   5.639   7.590  0.2902 -0.9085  0.2238
  173MOL0     C23233   6.638   5.635   7.684 -0.1584  1.2737 -1.0148
  173MOL0     C23234   6.740   5.745   7.650  0.7653  0.5279  0.9959
  173MOL0     C23235   6.704   5.873   7.718 -0.3524  0.1093 -0.0243
  173MOL0     C23236   6.779   5.985   7.648 -0.9770 -0.7468 -0.5274
  173MOL0     N23237   6.910   6.018   7.713  0.5042  0.2975  0.2668
  173MOL0     C23238   6.934   6.099   7.826  0.6570 -0.2728 -0.0994
  173MOL0     C23239   7.056   6.079   7.870  0.1232 -0.1721  0.3717
  173MOL0     C23240   7.131   6.147   7.986  0.7561  0.3315 -0.5389
  173MOL0     C23241   7.066   6.116   8.123 -0.3649 -0.3373  0.8000
  173MOL0     C23242   7.159   6.141   8.237  0.6358 -0.1476 -0.1791
  173MOL0     C23243   7.138   6.286   8.295 -0.3061  0.1641 -0.2673
  173MOL0     O23244   7.183   6.389   8.203 -0.4625 -0.7421 -0.4639
  173MOL0     C23245   7.316   6.425   8.196  0.7683  1.0414  0.6721
  173MOL0     C23246   7.360   6.540   8.127 -0.9708  0.0643 -0.4688
  173MOL0     C23247   7.499   6.571   8.110  0.5034  0.1452 -0.2979
  173MOL0     C23248   7.596   6.499   8.178  0.2998 -0.4431  0.4983
  173MOL0     C23249   7.742   6.521   8.160  0.5344 -0.0218 -0.3662
  173MOL0     O23250   7.831   6.418   8.207 -0.0590 -0.4384 -0.7199
  173MOL0     C23251   7.968   6.416   8.198 -0.2572 -0.2636 -0.0880
  173MOL0     C23252   8.037   6.293   8.198 -0.6529 -0.2398  0.2794
  173MOL0     C23253   8.176   6.289   8.180 -0.9788  0.3149  0.2049
  173MOL0     C23254   8.254   6.408   8.177 -0.1649  0.0092 -0.2824
  173MOL0     O23255   8.387   6.415   8.169  0.2703  0.2911  0.6175
  173MOL0     C23256   8.460   6.312   8.236  0.0449  0.1213 -0.0695
  173MOL0     C23257   8.608   6.364   8.245 -0.1912 -0.1765  0.2475
  173MOL0     C23258   8.661   6.389   8.102 -0.1576  0.3227 -0.7608
  173MOL0     C23259   8.793   6.466   8.110  0.7247  0.1703 -0.4469
  173MOL0     C23260   8.860   6.470   7.974 -0.4313 -0.5624 -0.1452
  173MOL0     C23261   8.944   6.345   7.949  0.2139 -0.0401 -0.0082
  173MOL0     C23262   9.002   6.363   7.811 -0.3498 -0.9122  0.5049
  173MOL0     C23263   9.090   6.242   7.771 -0.7864 -0.0450  0.3400
  173MOL0    Cl23264   8.982   6.099   7.764  0.2356 -0.0229  0.3916
  173MOL0     C23265   8.188   6.524   8.176 -0.1364  0.3128  1.0333
  173MOL0     C23266   8.049   6.530   8.184 -0.6964  0.2686  0.6148
  173MOL0     O23267   7.778   6.628   8.106  0.4534 -1.4030 -0.2741
  173MOL0     C23268   7.562   6.385   8.256 -0.3900  0.1100 -0.7291
  173MOL0     C23269   7.424   6.346   8.262 -0.5245 -0.2844 -0.6072
  173MOL0     N23270   7.110   5.975   7.791  0.6835  0.2485 -0.4290
  173MOL0     N23271   7.023   5.939   7.705 -0.4869 -0.7048 -0.0586
  173MOL0     C23272   5.925   5.321   7.576 -0.1067  0.8552 -0.3213
  173MOL0     C23273   5.819   5.234   7.576  0.4791  0.2965 -0.5721
  173MOL0     C23274   5.478   4.969   7.397  0.1481 -0.2168 -0.1678
  173MOL0     C23275   5.372   4.983   7.303  0.1035 -0.3927 -0.3865
  173MOL0     C23276   5.261   4.898   7.301 -0.2899  0.5607  0.2122
  173MOL0     C23277   5.255   4.790   7.390  0.6037 -0.1449 -0.6325
  173MOL0     O23278   5.152   4.696   7.410 -0.0276 -0.1342  0.1081
  173MOL0     C23279   5.043   4.705   7.310 -0.2047  0.8431  0.2365
  173MOL0     C23280   4.939   4.810   7.342  0.3150  0.0743  0.3091
  173MOL0     C23281   4.832   4.805   7.244 -0.3130  0.5332 -0.2723
  173MOL0     C23282   4.733   4.907   7.285  0.3260 -0.2485  0.6800
  173MOL0     C23283   4.632   4.898   7.178  0.5462  0.2318 -0.0572
  173MOL0     C23284   4.554   4.882   7.080  0.3037  0.6023 -0.5660
  173MOL0     C23285   5.360   4.774   7.479  0.4744  0.7303  0.5040
  173MOL0     C23286   5.468   4.860   7.489 -0.2374 -0.9825 -0.1564
  173MOL0     C23287   5.581   4.832   7.592  0.2011 -0.2571  0.0216
  173MOL0     H23288   5.863   5.060   7.287 -3.6970  1.0969  0.7965
  173MOL0     H23289   6.045   5.207   7.268  0.1855 -2.4880  0.0250
  173MOL0     H23290   6.112   5.544   7.581  0.6132 -0.5928  1.8261
  173MOL0     H23291   6.195   5.410   7.656 -0.4475  0.7056  0.9237
  173MOL0     H23292   6.310   5.575   7.431 -0.9189  0.6845 -0.3418
  173MOL0     H23293   6.374   5.416   7.494  2.2146  0.9957  0.3963
  173MOL0     H23294   6.447   5.485   7.709 -0.3509  0.1177  1.5317
  173MOL0     H23295   6.343   5.624   7.703 -0.1489 -0.9828  0.9220
  173MOL0     H23296   6.550   5.615   7.487  1.9654 -1.1026  0.7266
  173MOL0     H23297   6.483   5.741   7.573 -1.7186 -1.7188 -0.5455
  173MOL0     H23298   6.598   5.640   7.786 -2.4305 -2.0231 -1.5790
  173MOL0     H23299   6.684   5.536   7.672 -0.5495  1.1138 -1.2347
  173MOL0     H23300   6.840   5.713   7.680  0.8121  1.4208  1.8566
  173MOL0     H23301   6.732   5.745   7.541  2.6386 -0.1272  0.8371
  173MOL0     H23302   6.727   5.866   7.825  0.7319  0.3909 -0.2272
  173MOL0     H23303   6.597   5.880   7.697 -0.3047 -2.6057 -1.7685
  173MOL0     H23304   6.793   5.966   7.542 -0.5205  0.6670 -0.7494
  173MOL0     H23305   6.724   6.080   7.658 -1.1179 -0.7739 -1.0273
  173MOL0     H23306   6.863   6.165   7.875 -0.1504 -1.9978  1.1636
  173MOL0     H23307   7.230   6.101   7.984 -0.3385 -2.2139 -0.1506
  173MOL0     H23308   7.146   6.255   7.974  1.3429  0.1941 -1.1105
  173MOL0     H23309   6.978   6.179   8.140  1.0797  2.5732 -1.6730
  173MOL0     H23310   7.043   6.009   8.123 -2.6000  0.0478 -1.2570
  173MOL0     H23311   7.261   6.117   8.207 -0.0607 -1.6880 -1.4669
  173MOL0     H23312   7.136   6.068   8.315  1.2516  0.8033  0.9291
  173MOL0     H23313   7.190   6.293   8.391 -2.0912 -3.4092  1.1478
  173MOL0     H23314   7.034   6.300   8.326 -1.1981  1.3452 -3.4362
  173MOL0     H23315   7.284   6.597   8.075 -2.7138  0.3101  2.1551
  173MOL0     H23316   7.518   6.650   8.037 -1.3968 -2.1981 -3.6117
  173MOL0     H23317   7.980   6.201   8.205  2.4489 -2.4233 -0.9610
  173MOL0     H23318   8.228   6.194   8.180 -2.2034 -0.3939 -1.5557
  173MOL0     H23319   8.415   6.296   8.334  2.9494 -2.4115  0.9964
  173MOL0     H23320   8.450   6.221   8.175 -0.9376  1.1378 -1.5017
  173MOL0     H23321   8.609   6.460   8.298  0.1977 -0.7690  1.3269
  173MOL0     H23322   8.672   6.295   8.300  0.7209  0.4565  0.0022
  173MOL0     H23323   8.679   6.289   8.061  0.7031  0.2452 -0.2104
  173MOL0     H23324   8.597   6.450   8.038 -0.5086  2.6002  1.6009
  173MOL0     H23325   8.858   6.412   8.179 -0.0585 -0.7560 -0.4239
  173MOL0     H23326   8.762   6.565   8.146 -1.7148 -0.1659 -1.4443
  173MOL0     H23327   8.911   6.567   7.968 -1.1795 -0.0543  1.2353
  173MOL0     H23328   8.779   6.479   7.901 -0.7556  0.0431  0.2690
  173MOL0     H23329   9.012   6.338   8.034 -0.9285  0.1316  0.9434
  173MOL0     H23330   8.886   6.252   7.960 -0.7062  0.4518 -0.5204
  173MOL0     H23331   9.062   6.454   7.797 -1.6571 -0.1897 -0.6680
  173MOL0     H23332   8.917   6.378   7.743 -1.7295 -1.4296  2.0535
  173MOL0     H23333   9.136   6.253   7.672 -0.9701  2.7280  0.4961
  173MOL0     H23334   9.169   6.231   7.846 -0.3286  0.3170 -0.0772
  173MOL0     H23335   8.245   6.614   8.154  0.2991 -0.2312 -0.1416
  173MOL0     H23336   8.003   6.628   8.180  1.2176  1.1927 -0.8462
  173MOL0     H23337   7.636   6.322   8.304  0.1492  0.8426 -0.5872
  173MOL0     H23338   7.403   6.255   8.316  0.5510 -0.1100  0.1390
  173MOL0     H23339   5.938   5.383   7.664  1.5660 -3.3987  2.7901
  173MOL0     H23340   5.740   5.250   7.649 -0.8870 -2.8866 -1.1762
  173MOL0     H23341   5.371   5.064   7.232  1.0365  0.9480  1.0513
  173MOL0     H23342   5.191   4.928   7.224  1.7937  2.6742 -1.0043
  173MOL0     H23343   4.996   4.606   7.311  0.0299  0.7320  0.9986
  173MOL0     H23344   5.090   4.723   7.213 -1.3870 -0.0548 -0.5304
  173MOL0     H23345   4.988   4.908   7.343 -0.0787  0.2880 -0.5145
  173MOL0     H23346   4.906   4.775   7.440  1.9237 -2.3610  0.0786
  173MOL0     H23347   4.791   4.703   7.247  0.1495  0.3582  0.5084
  173MOL0     H23348   4.879   4.820   7.146  1.6167 -4.7180 -0.4968
  173MOL0     H23349   4.702   4.885   7.387  4.4245 -1.3177  1.8666
  173MOL0     H23350   4.762   5.012   7.274 -2.8408  0.6213 -0.7872
  173MOL0     H23351   4.496   4.853   6.995  0.9947 -0.4678 -0.6926
  173MOL0     H23352   5.364   4.697   7.556 -0.7405  2.5770  2.5184
  173MOL0     H23353   5.582   4.914   7.663 -1.6235  1.9685 -2.3392
  173MOL0     H23354   5.560   4.736   7.640 -1.5393 -0.2983 -0.7536
  173MOL0     H23355   5.678   4.830   7.541 -0.4762 -0.7691 -1.3037
  174MOL0     O23356   3.853   8.159   8.827  0.4481  0.7798  0.0370
  174MOL0     C23357   3.789   8.198   8.922  0.1818 -0.2803 -0.1252
  174MOL0     O23358   3.832   8.282   9.015 -0.3251  0.1726 -0.2727
  174MOL0     C23359   3.952   8.335   9.008 -0.6441  0.1159  0.2032
  174MOL0     C23360   4.027   8.372   8.891  0.3976  0.2020  0.7140
  174MOL0     C23361   4.151   8.438   8.902  0.5071  0.2536  0.5427
  174MOL0     C23362   4.201   8.459   9.031 -1.1315 -0.3195  0.4885
  174MOL0     O23363   4.333   8.511   9.051 -0.5095  0.2177 -0.2965
  174MOL0     C23364   4.420   8.513   8.931  0.5289 -0.5726 -0.5310
  174MOL0     C23365   4.559   8.567   8.960 -0.8575 -0.1698  0.4973
  174MOL0     C23366   4.556   8.691   9.033 -0.3690 -0.0143  0.4252
  174MOL0     C23367   4.689   8.751   9.054  0.1718  0.4245 -0.1028
  174MOL0     C23368   4.809   8.671   9.118  0.3348  1.0956 -0.2836
  174MOL0     C23369   4.792   8.679   9.273 -0.0994  0.2209  0.9493
  174MOL0     C23370   4.918   8.628   9.343 -0.2859 -0.1335  0.6465
  174MOL0     C23371   5.035   8.726   9.343 -0.3970  0.1078  0.1549
  174MOL0     N23372   5.129   8.682   9.443  0.7907 -0.0259  0.1755
  174MOL0     C23373   5.189   8.774   9.525  0.2758  0.0948  0.8232
  174MOL0     C23374   5.281   8.700   9.596  0.6510  0.2863  0.0772
  174MOL0     C23375   5.355   8.744   9.714  1.0863 -1.2954 -0.3478
  174MOL0     C23376   5.399   8.894   9.699 -0.2098 -0.3784  0.8072
  174MOL0     C23377   5.480   8.930   9.580  0.7677  0.2000  0.2736
  174MOL0     C23378   5.491   9.080   9.569 -0.0460  0.2337 -0.2774
  174MOL0     O23379   5.371   9.146   9.533  1.0940 -0.0647 -0.6050
  174MOL0     C23380   5.335   9.127   9.397 -0.3634  0.0653 -0.7993
  174MOL0     C23381   5.420   9.075   9.289  1.1549  0.4366 -0.2310
  174MOL0     C23382   5.370   9.034   9.168  0.3034  0.2787  0.2209
  174MOL0     C23383   5.230   9.050   9.139  0.2324 -1.5162 -0.3063
  174MOL0     C23384   5.173   9.013   9.010  0.1721  1.2138 -0.5783
  174MOL0     O23385   5.257   8.987   8.900 -0.4562 -0.2131 -0.7479
  174MOL0     C23386   5.201   8.986   8.775 -0.2656 -0.3850  0.1431
  174MOL0     C23387   5.161   9.103   8.716  0.5846 -0.2454 -0.1502
  174MOL0     C23388   5.096   9.101   8.592  0.4843  0.4390  0.0309
  174MOL0     C23389   5.077   8.982   8.524  0.1833  0.1773  0.4499
  174MOL0     O23390   5.004   8.983   8.402 -0.4628  0.4187  0.0530
  174MOL0     C23391   4.970   8.854   8.343 -0.6910 -0.2817 -0.0690
  174MOL0     C23392   4.896   8.881   8.213  0.1085  0.4471  0.1817
  174MOL0     C23393   4.972   8.958   8.112 -0.3246 -0.0402  1.0490
  174MOL0     C23394   5.100   8.892   8.055  0.2762  0.2952 -0.3670
  174MOL0     C23395   5.064   8.765   7.973  0.1398 -0.0966 -0.7486
  174MOL0     C23396   5.177   8.722   7.878 -0.1867  0.7106 -0.0189
  174MOL0     C23397   5.130   8.600   7.804  0.7449  0.0188  0.3055
  174MOL0     C23398   5.226   8.550   7.699  0.1121  0.5462 -0.0818
  174MOL0    Cl23399   5.390   8.546   7.786 -0.2449  0.0941  0.1439
  174MOL0     C23400   5.141   8.871   8.569  0.1560 -0.3933  0.1877
  174MOL0     C23401   5.205   8.868   8.696  0.3914 -0.3180 -0.3933
  174MOL0     O23402   5.052   9.008   9.006 -0.4545  0.8360  0.4704
  174MOL0     C23403   5.148   9.111   9.244  0.3652  0.2662  0.3452
  174MOL0     C23404   5.201   9.143   9.367 -0.5580 -0.3479  0.1971
  174MOL0     N23405   5.272   8.571   9.562 -0.5431 -0.1008  0.1496
  174MOL0     N23406   5.194   8.560   9.459 -0.4077 -0.5533  0.1387
  174MOL0     C23407   4.125   8.435   9.145  0.3389 -0.4756 -0.3199
  174MOL0     C23408   4.004   8.367   9.131  0.9814 -0.4409  1.0585
  174MOL0     C23409   3.642   8.155   8.944  0.4090 -0.7539 -0.0203
  174MOL0     C23410   3.560   8.237   9.033 -0.3474  0.6684  0.9203
  174MOL0     C23411   3.434   8.189   9.063  0.1453  0.3209  0.4904
  174MOL0     C23412   3.388   8.071   9.010 -0.1551  0.2730 -0.4517
  174MOL0     O23413   3.255   8.032   9.027  0.1910 -0.2787  0.9359
  174MOL0     C23414   3.234   7.921   9.113 -0.1960  0.5425 -0.1595
  174MOL0     C23415   3.087   7.884   9.134 -0.0281  0.2066  0.0650
  174MOL0     C23416   3.029   8.003   9.206  0.7645  0.0705  0.2078
  174MOL0     C23417   2.871   8.005   9.208  0.1393  0.9755  0.9282
  174MOL0     C23418   2.820   8.137   9.247 -0.3415 -0.3966  0.1752
  174MOL0     C23419   2.780   8.242   9.293  1.0118 -1.5671  0.1853
  174MOL0     C23420   3.461   7.993   8.924  0.7082 -0.6068  0.0376
  174MOL0     C23421   3.586   8.039   8.888  0.9813 -0.5546  0.1138
  174MOL0     C23422   3.665   7.979   8.775  0.1098  0.5143  0.0776
  174MOL0     H23423   3.993   8.338   8.794 -1.5593 -0.8278  1.6725
  174MOL0     H23424   4.211   8.449   8.812  3.3829 -1.3021  2.1263
  174MOL0     H23425   4.433   8.415   8.885  0.4170 -1.1218  0.5707
  174MOL0     H23426   4.384   8.589   8.861 -1.1554 -0.5568  0.3138
  174MOL0     H23427   4.600   8.585   8.860 -0.4737 -0.6158  0.5746
  174MOL0     H23428   4.613   8.497   9.023 -0.7196  0.8239  1.5121
  174MOL0     H23429   4.501   8.666   9.124  0.5335 -0.6166  0.8127
  174MOL0     H23430   4.503   8.772   8.981  2.6949  1.4332 -0.6938
  174MOL0     H23431   4.717   8.783   8.953  0.9291  3.4660  0.9729
  174MOL0     H23432   4.676   8.848   9.103 -0.4403  1.4014 -2.0675
  174MOL0     H23433   4.821   8.566   9.090 -1.4731  0.1918  2.0370
  174MOL0     H23434   4.892   8.735   9.089  2.4268  1.2236  4.9550
  174MOL0     H23435   4.772   8.783   9.300  2.2061  0.5498  1.5829
  174MOL0     H23436   4.712   8.607   9.294  0.3478 -0.9595 -1.0675
  174MOL0     H23437   4.941   8.527   9.308 -2.2641 -1.1735  2.1346
  174MOL0     H23438   4.897   8.615   9.450 -0.3775 -0.1534  0.6264
  174MOL0     H23439   5.077   8.726   9.242  1.3159 -1.8734  0.7900
  174MOL0     H23440   5.002   8.828   9.366 -0.5393 -0.1187  0.9921
  174MOL0     H23441   5.174   8.881   9.517  0.9170  0.0798 -1.2600
  174MOL0     H23442   5.298   8.722   9.805  1.2097 -1.4246 -0.3007
  174MOL0     H23443   5.445   8.682   9.725  1.1751 -1.3114 -1.0957
  174MOL0     H23444   5.303   8.946   9.698 -0.0262 -0.0361  1.1731
  174MOL0     H23445   5.458   8.924   9.786  1.5773  2.8391 -1.3300
  174MOL0     H23446   5.435   8.886   9.491  0.2539 -2.3446  1.7150
  174MOL0     H23447   5.579   8.886   9.594  0.2637 -1.2244 -0.4318
  174MOL0     H23448   5.570   9.106   9.498 -0.7324  0.7014 -0.8876
  174MOL0     H23449   5.517   9.120   9.667 -0.6043 -4.9207  2.3228
  174MOL0     H23450   5.518   9.036   9.316 -0.4537 -2.2233  2.3597
  174MOL0     H23451   5.429   8.987   9.090 -2.4367 -2.3227 -0.4862
  174MOL0     H23452   5.175   9.203   8.756 -0.7068 -0.1123  0.0229
  174MOL0     H23453   5.041   9.185   8.552 -1.4072  0.1172  1.8052
  174MOL0     H23454   5.052   8.783   8.329 -0.6094 -0.5866  1.7250
  174MOL0     H23455   4.902   8.813   8.418 -0.2092  2.1246  1.8199
  174MOL0     H23456   4.850   8.788   8.177  2.2047  0.2945 -2.4156
  174MOL0     H23457   4.810   8.944   8.236 -0.2932 -1.0000  3.0491
  174MOL0     H23458   4.904   8.975   8.029  0.8150 -0.6137 -0.0414
  174MOL0     H23459   4.995   9.053   8.162 -1.1089  0.6980  0.0353
  174MOL0     H23460   5.161   8.868   8.143  1.0396  2.3201 -0.2860
  174MOL0     H23461   5.165   8.965   8.005  2.0968 -1.2346 -0.3552
  174MOL0     H23462   4.972   8.785   7.916  0.7486  1.8386 -1.1201
  174MOL0     H23463   5.033   8.682   8.038 -0.5330  1.7526  1.4147
  174MOL0     H23464   5.202   8.799   7.804  2.3307  2.1233  2.1423
  174MOL0     H23465   5.258   8.695   7.945 -0.3721 -1.2990 -0.5237
  174MOL0     H23466   5.039   8.625   7.749  1.1896 -3.6133 -2.4158
  174MOL0     H23467   5.111   8.511   7.864  0.7159 -2.6121 -3.2898
  174MOL0     H23468   5.199   8.452   7.658  1.2211  0.1317  0.1340
  174MOL0     H23469   5.219   8.618   7.614 -1.2623 -1.2017 -1.4293
  174MOL0     H23470   5.140   8.779   8.512  2.1702 -1.6354  1.9719
  174MOL0     H23471   5.237   8.772   8.735  0.1255  0.8221  2.9273
  174MOL0     H23472   5.044   9.136   9.226 -0.3583 -3.2978 -1.2816
  174MOL0     H23473   5.136   9.178   9.447 -0.9041 -0.6687  0.0572
  174MOL0     H23474   4.172   8.473   9.236  1.1264  0.7100 -1.1892
  174MOL0     H23475   3.941   8.349   9.217 -2.5374 -1.2758 -1.4695
  174MOL0     H23476   3.585   8.332   9.080  0.2401  1.0731 -0.1706
  174MOL0     H23477   3.360   8.251   9.114 -0.7463  0.3568 -0.8041
  174MOL0     H23478   3.273   7.932   9.214 -1.8081  0.8474  0.4615
  174MOL0     H23479   3.297   7.842   9.070 -2.4594 -0.6003 -1.6310
  174MOL0     H23480   3.093   7.795   9.196  3.9557  0.5097  0.3478
  174MOL0     H23481   3.041   7.861   9.037 -1.8630  2.8495  0.2038
  174MOL0     H23482   3.056   8.098   9.160 -0.0852  2.2736  3.8467
  174MOL0     H23483   3.074   8.003   9.306  0.4909 -0.0274  0.3334
  174MOL0     H23484   2.829   7.976   9.111  0.3946 -0.1427  1.1344
  174MOL0     H23485   2.822   7.932   9.273 -0.4279 -1.3149 -1.8380
  174MOL0     H23486   2.741   8.328   9.345  0.9246 -0.5425 -1.4984
  174MOL0     H23487   3.411   7.912   8.872 -0.8563  0.7109 -0.6196
  174MOL0     H23488   3.612   7.898   8.724  0.7653 -0.0750  0.3205
  174MOL0     H23489   3.685   8.052   8.695  0.5003 -2.0444 -2.3304
  174MOL0     H23490   3.760   7.935   8.807 -0.4246 -2.7009 -2.2675
  175MOL0     O23491   9.261   8.235   5.686 -0.3235  0.2739 -0.2126
  175MOL0     C23492   9.189   8.294   5.764  0.0977  0.3681  0.1377
  175MOL0     O23493   9.225   8.395   5.847 -0.2986 -0.4087 -0.3582
  175MOL0     C23494   9.355   8.397   5.887  0.3427 -0.6967  0.2795
  175MOL0     C23495   9.462   8.407   5.796  1.0300  0.5225 -0.0318
  175MOL0     C23496   9.595   8.376   5.832  0.3443  0.6632  1.0567
  175MOL0     C23497   9.634   8.360   5.962 -0.5665  1.3160 -0.3959
  175MOL0     O23498   9.766   8.347   6.005 -0.1198 -0.0875 -0.0003
  175MOL0     C23499   9.798   8.350   6.145 -0.7364  0.4998  0.3577
  175MOL0     C23500   9.947   8.335   6.164 -0.1066 -0.6273 -0.2005
  175MOL0     C23501  10.024   8.463   6.120 -0.0508 -0.3116 -0.1921
  175MOL0     C23502  10.175   8.450   6.153  1.0339  1.1115  0.2859
  175MOL0     C23503  10.251   8.555   6.064 -0.6674  0.3855 -0.2917
  175MOL0     C23504  10.408   8.546   6.082 -0.4861  0.3271  0.0123
  175MOL0     C23505  10.484   8.658   6.009 -0.4967  0.0186  0.1541
  175MOL0     C23506  10.636   8.660   6.038 -0.0536  0.2771 -0.0264
  175MOL0     N23507  10.700   8.761   5.954  0.1190 -0.3575 -0.1155
  175MOL0     C23508  10.718   8.743   5.818  0.7091 -0.2722 -0.2833
  175MOL0     C23509  10.793   8.850   5.782  0.4400  0.3546  0.1155
  175MOL0     C23510  10.849   8.888   5.650  0.4498  0.4315 -0.1278
  175MOL0     C23511  11.001   8.885   5.646 -0.5990 -0.0965  0.7128
  175MOL0     C23512  11.075   8.756   5.672 -0.0821 -0.7805  0.7151
  175MOL0     C23513  11.228   8.767   5.657  0.2792 -0.0583  0.0812
  175MOL0     O23514  11.287   8.650   5.719 -0.2454  0.0784 -0.3610
  175MOL0     C23515  11.424   8.660   5.749 -0.2924  0.3331  0.7102
  175MOL0     C23516  11.524   8.682   5.646 -0.3578 -0.3641 -0.7911
  175MOL0     C23517  11.654   8.705   5.673 -0.3158  0.2116 -0.5713
  175MOL0     C23518  11.696   8.690   5.811  0.3074  0.1271  0.1430
  175MOL0     C23519  11.836   8.713   5.851 -0.9224 -0.5221 -0.0511
  175MOL0     O23520  11.940   8.680   5.762  0.3499 -0.0710 -0.4554
  175MOL0     C23521  12.063   8.681   5.812  0.6153  0.1925  0.7990
  175MOL0     C23522  12.130   8.789   5.857  0.7256  0.4645 -0.3206
  175MOL0     C23523  12.269   8.776   5.895  0.1147 -0.2112  0.6724
  175MOL0     C23524  12.331   8.648   5.887 -0.5870  0.0321 -0.3058
  175MOL0     O23525  12.462   8.624   5.917  0.2236  0.5759  0.4930
  175MOL0     C23526  12.492   8.642   6.059 -0.0739 -0.8099  0.3375
  175MOL0     C23527  12.631   8.586   6.102  1.3517  0.6121  0.2757
  175MOL0     C23528  12.747   8.626   6.015  0.7115  0.5463  0.0540
  175MOL0     C23529  12.845   8.505   6.008  0.0003 -0.4686 -0.2955
  175MOL0     C23530  12.923   8.476   6.135  0.2240  0.0042  0.0589
  175MOL0     C23531  13.029   8.360   6.120  0.0920 -0.0860  0.3364
  175MOL0     C23532  13.123   8.363   6.239 -0.2710  0.8396  0.1237
  175MOL0     C23533  13.234   8.250   6.233 -0.2739 -0.5218  0.0614
  175MOL0    Cl23534  13.387   8.276   6.139  0.2661 -0.2390  0.2472
  175MOL0     C23535  12.254   8.541   5.831  0.2431  0.4964 -0.0250
  175MOL0     C23536  12.118   8.558   5.795  0.1421  0.0474  0.0460
  175MOL0     O23537  11.854   8.737   5.974 -0.5770 -0.0853  1.4830
  175MOL0     C23538  11.607   8.644   5.905  0.7716  0.1800 -0.4618
  175MOL0     C23539  11.471   8.638   5.870  0.0766 -0.6884 -0.1943
  175MOL0     N23540  10.809   8.930   5.895  0.5692  0.2588  0.3612
  175MOL0     N23541  10.743   8.878   5.991  0.2093 -0.8027  0.2260
  175MOL0     C23542   9.527   8.357   6.051 -0.3978 -0.3902 -1.5352
  175MOL0     C23543   9.388   8.372   6.018  0.5318  0.1192  0.0322
  175MOL0     C23544   9.047   8.248   5.759  0.9623  0.4243 -0.1472
  175MOL0     C23545   9.007   8.161   5.659 -0.6892 -0.0047 -0.5456
  175MOL0     C23546   8.870   8.120   5.655  0.1471 -0.2688  0.3893
  175MOL0     C23547   8.778   8.169   5.741  0.2659 -0.5650 -0.7271
  175MOL0     O23548   8.651   8.111   5.741 -0.0198 -0.8589  0.0566
  175MOL0     C23549   8.544   8.206   5.718  0.3522 -0.1722  0.1838
  175MOL0     C23550   8.466   8.187   5.847  0.8066  0.2638 -0.0830
  175MOL0     C23551   8.339   8.274   5.858 -0.2243 -0.4219 -0.1293
  175MOL0     C23552   8.221   8.217   5.782  0.8675  0.2428 -0.3846
  175MOL0     C23553   8.112   8.315   5.779  0.5560 -0.3297  0.5651
  175MOL0     C23554   8.027   8.404   5.791 -0.0877  0.0968 -0.6756
  175MOL0     C23555   8.818   8.259   5.832  0.3243  0.0045 -0.1117
  175MOL0     C23556   8.950   8.291   5.852 -0.1502  0.5598  0.0867
  175MOL0     C23557   8.958   8.398   5.953  0.6079  0.2280  0.8460
  175MOL0     H23558   9.453   8.419   5.688 -0.9477 -1.0564 -0.1031
  175MOL0     H23559   9.677   8.375   5.761  0.5101  1.5113  1.2337
  175MOL0     H23560   9.770   8.445   6.193 -0.5565 -1.0002  3.7280
  175MOL0     H23561   9.749   8.272   6.205  2.7269 -1.3969  0.9964
  175MOL0     H23562   9.980   8.249   6.105  0.3455 -1.0537  0.6514
  175MOL0     H23563   9.973   8.309   6.268  0.7189 -1.0439 -0.4985
  175MOL0     H23564   9.980   8.546   6.175 -1.2962  0.0924 -1.7120
  175MOL0     H23565  10.016   8.477   6.012 -0.1182 -2.4582 -0.5160
  175MOL0     H23566  10.188   8.463   6.261 -1.3649 -0.7950  0.8832
  175MOL0     H23567  10.216   8.352   6.130 -2.7655 -1.3272  2.7862
  175MOL0     H23568  10.230   8.529   5.960 -2.0753  0.3264 -0.0204
  175MOL0     H23569  10.219   8.658   6.079  2.3258  1.4116 -0.3260
  175MOL0     H23570  10.433   8.551   6.188  1.8768 -0.5517 -0.4469
  175MOL0     H23571  10.433   8.452   6.032  0.4764 -0.9463  2.7451
  175MOL0     H23572  10.453   8.759   6.037  1.5312  0.9357 -0.6205
  175MOL0     H23573  10.479   8.650   5.900  2.0638 -0.1912 -0.0118
  175MOL0     H23574  10.658   8.673   6.145 -0.6017 -0.4805  0.1909
  175MOL0     H23575  10.663   8.558   6.010 -1.6375 -1.1643  3.1163
  175MOL0     H23576  10.685   8.661   5.756 -0.2129 -0.7621  0.8129
  175MOL0     H23577  10.819   8.816   5.572  2.1756  1.8614 -2.2543
  175MOL0     H23578  10.816   8.985   5.613  0.1658 -0.2534 -1.7930
  175MOL0     H23579  11.033   8.924   5.549 -0.4628  1.1193  1.2173
  175MOL0     H23580  11.026   8.963   5.719 -1.2023  1.6678 -0.8703
  175MOL0     H23581  11.030   8.675   5.614 -1.6747 -0.8354  1.9743
  175MOL0     H23582  11.060   8.729   5.777  1.6559  1.1652  1.5424
  175MOL0     H23583  11.254   8.855   5.716  4.3436 -0.7603 -0.3441
  175MOL0     H23584  11.268   8.775   5.556  0.0036  2.4102  0.1108
  175MOL0     H23585  11.473   8.691   5.551  2.2126  4.2756 -2.0387
  175MOL0     H23586  11.728   8.729   5.599 -2.1908  1.6786 -2.0567
  175MOL0     H23587  12.067   8.873   5.885 -0.6606 -1.1186  1.6391
  175MOL0     H23588  12.325   8.862   5.931 -2.8787  3.0577 -1.8445
  175MOL0     H23589  12.502   8.749   6.075  2.4357 -1.2341  2.1932
  175MOL0     H23590  12.406   8.605   6.114 -0.0978 -0.6011  0.4401
  175MOL0     H23591  12.652   8.615   6.205  3.3970  1.3014 -0.2674
  175MOL0     H23592  12.623   8.478   6.088  2.7678  0.3389  1.3906
  175MOL0     H23593  12.727   8.658   5.913  0.4229  0.4878  0.0931
  175MOL0     H23594  12.810   8.704   6.060  1.1577 -0.4884  1.2916
  175MOL0     H23595  12.924   8.523   5.935  0.6646 -2.3803 -0.1076
  175MOL0     H23596  12.792   8.416   5.973 -1.9178 -0.3314  1.9641
  175MOL0     H23597  12.860   8.440   6.217 -0.3865 -0.9567 -0.8117
  175MOL0     H23598  12.967   8.570   6.171 -0.3951 -0.8150  3.2392
  175MOL0     H23599  12.971   8.267   6.128 -0.1112 -0.4191 -3.2965
  175MOL0     H23600  13.075   8.369   6.021  2.6061 -2.8773  1.1003
  175MOL0     H23601  13.068   8.346   6.331 -1.3304  2.0484 -0.2503
  175MOL0     H23602  13.177   8.458   6.238  1.1913  0.0395 -0.2426
  175MOL0     H23603  13.257   8.224   6.336 -0.3199  0.5557  0.3533
  175MOL0     H23604  13.195   8.159   6.187 -2.3806  0.9977 -1.3437
  175MOL0     H23605  12.297   8.441   5.832 -2.9585 -0.9983  0.4467
  175MOL0     H23606  12.044   8.481   5.775  0.7657 -0.0823 -2.0227
  175MOL0     H23607  11.635   8.632   6.010 -1.7143  0.7970  0.3448
  175MOL0     H23608  11.398   8.632   5.950  1.6398  3.2029  1.8109
  175MOL0     H23609   9.556   8.337   6.153 -0.5289 -0.0101 -1.4217
  175MOL0     H23610   9.304   8.363   6.085 -1.5427 -1.5336 -2.5745
  175MOL0     H23611   9.079   8.130   5.584  0.9287  1.3758  0.3578
  175MOL0     H23612   8.846   8.036   5.591 -2.0195 -0.5492  1.4753
  175MOL0     H23613   8.482   8.185   5.631 -2.0835  0.6202  1.6112
  175MOL0     H23614   8.578   8.310   5.714 -1.3827  0.4962  1.5588
  175MOL0     H23615   8.536   8.210   5.928  2.3198  0.0939 -1.2994
  175MOL0     H23616   8.447   8.082   5.870 -1.6751  0.6309 -0.1431
  175MOL0     H23617   8.365   8.372   5.816 -0.1937 -1.3120 -2.3151
  175MOL0     H23618   8.324   8.284   5.966  1.5386  0.3783  0.0827
  175MOL0     H23619   8.241   8.183   5.681 -0.5767 -1.5176 -0.1296
  175MOL0     H23620   8.180   8.133   5.838 -0.1589  1.0426  0.1056
  175MOL0     H23621   7.951   8.480   5.795 -1.7847 -1.5753  1.1182
  175MOL0     H23622   8.745   8.306   5.896 -0.4731  1.5616 -2.0462
  175MOL0     H23623   9.057   8.402   6.001  0.9444 -2.3169  0.5466
  175MOL0     H23624   8.936   8.495   5.908 -2.0106 -1.3736 -1.7023
  175MOL0     H23625   8.883   8.382   6.030  0.2970 -2.8949  0.0405
  176MOL0     O23626   9.368   6.881  10.870  0.5368  0.3997 -0.9218
  176MOL0     C23627   9.346   6.804  10.959 -0.3678  0.3427  0.8311
  176MOL0     O23628   9.433   6.730  11.031  0.3542 -0.3347  0.1545
  176MOL0     C23629   9.565   6.750  10.998  0.4786 -0.2718  0.4058
  176MOL0     C23630   9.631   6.709  10.877  0.8001 -0.3007 -0.0868
  176MOL0     C23631   9.765   6.735  10.850 -0.5917 -0.8558 -0.0431
  176MOL0     C23632   9.837   6.808  10.947  0.1930  0.7860 -0.0135
  176MOL0     O23633   9.974   6.831  10.925  0.6502 -0.7659  0.3541
  176MOL0     C23634  10.060   6.887  11.023  0.5483 -0.5497 -0.5966
  176MOL0     C23635  10.193   6.923  10.958 -0.1110 -1.3726 -0.5119
  176MOL0     C23636  10.310   6.942  11.051  0.4509 -0.1820  0.0639
  176MOL0     C23637  10.433   6.994  10.974  1.0290  0.0887 -0.0383
  176MOL0     C23638  10.548   7.036  11.060 -0.0934 -0.4469  0.3453
  176MOL0     C23639  10.538   7.176  11.126 -0.0984 -0.6111 -0.1755
  176MOL0     C23640  10.526   7.303  11.039 -0.3262  0.1345 -0.4267
  176MOL0     C23641  10.649   7.335  10.956  0.1024  0.0433 -0.5378
  176MOL0     N23642  10.777   7.370  11.022 -0.0124 -0.3648  0.1278
  176MOL0     C23643  10.866   7.271  11.067 -0.3882 -0.2262 -0.4018
  176MOL0     C23644  10.953   7.332  11.141 -0.2222  0.8362  0.3309
  176MOL0     C23645  11.042   7.261  11.239  0.5849  0.5364 -0.5161
  176MOL0     C23646  10.987   7.243  11.379  1.0169  0.0871  0.3410
  176MOL0     C23647  11.091   7.186  11.485  0.3365 -0.7170  0.5065
  176MOL0     C23648  11.021   7.161  11.621  0.0391  0.3634 -0.2078
  176MOL0     O23649  11.101   7.079  11.713 -0.1945 -0.4469  0.2069
  176MOL0     C23650  11.230   7.124  11.750 -0.2868  0.6784 -0.4411
  176MOL0     C23651  11.269   7.256  11.739  0.1031  0.2446 -0.6680
  176MOL0     C23652  11.403   7.290  11.781  0.0855 -0.2659 -0.1013
  176MOL0     C23653  11.501   7.191  11.824 -0.5332 -0.0939  0.1393
  176MOL0     C23654  11.641   7.227  11.846 -0.1270  0.5764  0.8312
  176MOL0     O23655  11.719   7.124  11.863 -0.2087 -0.3414  0.0673
  176MOL0     C23656  11.854   7.144  11.845 -0.5812  0.4706  0.0085
  176MOL0     C23657  11.930   7.240  11.771  1.4040  0.0773  0.3946
  176MOL0     C23658  12.068   7.214  11.753 -0.0866  1.0356 -0.3611
  176MOL0     C23659  12.132   7.099  11.805  0.8611 -0.5906  0.3494
  176MOL0     O23660  12.264   7.083  11.776  0.0387 -0.0852  0.2022
  176MOL0     C23661  12.357   7.175  11.827 -0.4677 -0.3649 -0.1735
  176MOL0     C23662  12.474   7.141  11.732 -1.1530  0.6333 -0.0031
  176MOL0     C23663  12.590   7.208  11.794 -0.6052  0.5917  0.8138
  176MOL0     C23664  12.710   7.211  11.703 -0.4220  0.8884 -0.1681
  176MOL0     C23665  12.830   7.265  11.781 -1.0310 -1.0747  0.8848
  176MOL0     C23666  12.949   7.297  11.683 -0.5242 -0.3925 -0.0480
  176MOL0     C23667  13.078   7.352  11.753 -0.6529 -0.0205 -0.7398
  176MOL0     C23668  13.207   7.333  11.672  0.1881  0.8668  0.7082
  176MOL0    Cl23669  13.352   7.412  11.762 -0.2115 -0.0481  0.3126
  176MOL0     C23670  12.056   7.011  11.879 -0.8581 -0.2215  0.1542
  176MOL0     C23671  11.922   7.036  11.907 -0.1923 -0.4399  0.2533
  176MOL0     O23672  11.671   7.341  11.839 -0.9130 -0.7994  0.0467
  176MOL0     C23673  11.456   7.062  11.834 -0.6854  1.0196 -0.7566
  176MOL0     C23674  11.326   7.032  11.805  0.3738  0.5278  0.6005
  176MOL0     N23675  10.934   7.468  11.137 -0.4518 -0.5542 -0.6713
  176MOL0     N23676  10.828   7.486  11.069 -0.0779 -0.4954  0.2548
  176MOL0     C23677   9.770   6.864  11.065 -0.2561 -0.2418  0.5176
  176MOL0     C23678   9.636   6.833  11.085  0.3378  0.0657 -0.1467
  176MOL0     C23679   9.203   6.785  10.989  0.4783 -0.0033  0.6947
  176MOL0     C23680   9.128   6.903  10.989  0.1584  0.4058 -0.0507
  176MOL0     C23681   9.002   6.900  11.036 -0.3776  0.9106  0.3467
  176MOL0     C23682   8.946   6.785  11.090  1.0821 -0.2981  0.0208
  176MOL0     O23683   8.825   6.796  11.153 -0.2090  0.6624  0.1511
  176MOL0     C23684   8.774   6.679  11.230 -0.3334 -0.8447  0.2316
  176MOL0     C23685   8.682   6.596  11.128 -0.6846  0.0451  0.5848
  176MOL0     C23686   8.581   6.682  11.043  0.1053 -0.4842 -0.0288
  176MOL0     C23687   8.637   6.741  10.914  0.1167 -0.3069  0.3781
  176MOL0     C23688   8.563   6.671  10.805 -1.0016 -0.0148  0.4223
  176MOL0     C23689   8.497   6.614  10.714  0.2034  0.3144 -0.3580
  176MOL0     C23690   9.020   6.666  11.084 -0.6401  0.3290  0.0986
  176MOL0     C23691   9.149   6.664  11.037  0.0625  0.1844 -0.1329
  176MOL0     C23692   9.227   6.532  11.036 -0.7294 -0.7810 -0.1788
  176MOL0     H23693   9.562   6.670  10.803  2.2851  3.3423 -3.7890
  176MOL0     H23694   9.802   6.714  10.750 -0.6288  1.0200 -0.4904
  176MOL0     H23695  10.013   6.966  11.082  3.7282 -0.3023  1.9163
  176MOL0     H23696  10.074   6.802  11.091 -0.0626  0.8181  1.3198
  176MOL0     H23697  10.190   7.015  10.899  1.0355 -0.7480  0.3576
  176MOL0     H23698  10.217   6.852  10.878  0.4465 -2.8881  0.9307
  176MOL0     H23699  10.338   6.845  11.092 -0.4775 -0.2557  0.5700
  176MOL0     H23700  10.281   7.006  11.136  3.5644  1.6463 -0.1004
  176MOL0     H23701  10.465   6.919  10.901 -1.0613  0.4031 -1.3713
  176MOL0     H23702  10.400   7.073  10.906 -0.0560  1.1604  1.6536
  176MOL0     H23703  10.556   6.961  11.138  1.5684 -0.5245  0.1367
  176MOL0     H23704  10.636   7.039  10.995  0.2548 -0.3899  0.8152
  176MOL0     H23705  10.446   7.163  11.183 -0.2897 -0.7188 -0.5083
  176MOL0     H23706  10.618   7.192  11.199  0.0775 -0.7554 -0.3357
  176MOL0     H23707  10.508   7.391  11.102 -0.4584  0.2804 -0.6700
  176MOL0     H23708  10.436   7.281  10.981 -0.3063 -2.5011  0.3938
  176MOL0     H23709  10.650   7.269  10.869 -4.9953  0.2030 -1.0698
  176MOL0     H23710  10.614   7.427  10.907  0.5491 -0.4519 -1.8214
  176MOL0     H23711  10.851   7.164  11.059 -0.7561 -0.1981 -0.1236
  176MOL0     H23712  11.070   7.163  11.200 -0.5639 -0.2318  0.5020
  176MOL0     H23713  11.130   7.325  11.252  0.6839 -0.0667  2.5166
  176MOL0     H23714  10.941   7.336  11.413 -0.0521 -0.9935  2.0054
  176MOL0     H23715  10.895   7.184  11.375 -0.1637  1.8051  1.0269
  176MOL0     H23716  11.162   7.268  11.492 -2.3412  2.1659 -2.5714
  176MOL0     H23717  11.143   7.094  11.456  0.6079 -0.5837  0.5729
  176MOL0     H23718  10.925   7.113  11.599  2.1286 -3.0183 -2.9714
  176MOL0     H23719  11.011   7.261  11.663  2.8994  1.6301 -2.1757
  176MOL0     H23720  11.200   7.332  11.704  0.1350  1.0166  0.8662
  176MOL0     H23721  11.449   7.386  11.759  2.5743 -0.8020  2.2666
  176MOL0     H23722  11.864   7.315  11.727 -0.0459 -0.4157  1.6126
  176MOL0     H23723  12.134   7.282  11.700  0.9378  0.5875  0.3096
  176MOL0     H23724  12.332   7.281  11.818  1.5037  0.4353  2.3499
  176MOL0     H23725  12.372   7.145  11.931 -4.8444 -0.0766  0.7167
  176MOL0     H23726  12.491   7.034  11.748  1.6662  1.1552  1.1649
  176MOL0     H23727  12.462   7.181  11.631  1.8605  1.1891 -0.2297
  176MOL0     H23728  12.565   7.314  11.811 -0.8461  1.0959 -2.0564
  176MOL0     H23729  12.621   7.153  11.883  0.9267 -3.1226 -1.8032
  176MOL0     H23730  12.674   7.276  11.623 -1.0432  0.8723  0.0921
  176MOL0     H23731  12.738   7.109  11.673  1.5767  1.9793 -2.3509
  176MOL0     H23732  12.857   7.181  11.845  0.1646  0.5726  2.6446
  176MOL0     H23733  12.809   7.357  11.837 -1.9476  0.2051 -1.4218
  176MOL0     H23734  12.977   7.200  11.641  0.3925 -0.2915  0.3075
  176MOL0     H23735  12.921   7.373  11.609  0.4716  2.6789  2.4827
  176MOL0     H23736  13.082   7.307  11.853 -0.1886  0.2613 -0.6255
  176MOL0     H23737  13.067   7.455  11.789  1.1631 -0.6361  1.8700
  176MOL0     H23738  13.234   7.227  11.663 -0.6488  0.8052 -1.8163
  176MOL0     H23739  13.204   7.379  11.573  0.1858  2.2147  1.3153
  176MOL0     H23740  12.103   6.925  11.924  0.2738  0.8381  1.0707
  176MOL0     H23741  11.866   6.966  11.967  1.1741 -4.0490 -2.3671
  176MOL0     H23742  11.514   6.976  11.868 -4.2114 -2.3612 -2.5205
  176MOL0     H23743  11.280   6.935  11.815  0.4986  0.6173  2.5380
  176MOL0     H23744   9.822   6.911  11.147 -0.8468 -2.3387  2.1895
  176MOL0     H23745   9.573   6.862  11.168 -2.6927  2.5889 -3.0663
  176MOL0     H23746   9.159   7.004  10.961 -2.3231  0.9902 -1.0166
  176MOL0     H23747   8.940   6.989  11.031 -1.8326  0.1095  2.5758
  176MOL0     H23748   8.716   6.727  11.309  2.5761 -0.3817  2.2329
  176MOL0     H23749   8.845   6.614  11.281 -0.2859 -0.9258  0.0635
  176MOL0     H23750   8.631   6.521  11.190  1.0090 -0.7901  1.0324
  176MOL0     H23751   8.740   6.544  11.051 -0.6722  0.7247  0.1333
  176MOL0     H23752   8.536   6.763  11.100 -1.8530 -0.6180 -1.2896
  176MOL0     H23753   8.486   6.629  11.025 -1.1672  2.1369 -1.6010
  176MOL0     H23754   8.618   6.847  10.899  2.3095 -0.0626 -1.0030
  176MOL0     H23755   8.742   6.730  10.885 -0.5293  1.0622 -3.0719
  176MOL0     H23756   8.424   6.571  10.648 -0.4001  0.3563  0.2708
  176MOL0     H23757   8.984   6.570  11.120  4.0280 -1.8324 -0.3022
  176MOL0     H23758   9.268   6.517  10.936 -2.5925 -0.5100 -1.0304
  176MOL0     H23759   9.291   6.538  11.124  1.1347 -1.9657 -1.3772
  176MOL0     H23760   9.163   6.448  11.065 -0.2655  0.2654  4.8447
  177MOL0     O23761   3.567   3.407  10.555 -0.1279  0.0792 -0.6058
  177MOL0     C23762   3.643   3.502  10.542  0.1079 -0.4362  0.2406
  177MOL0     O23763   3.605   3.631  10.493 -0.1163 -0.0536 -0.1999
  177MOL0     C23764   3.482   3.672  10.486  0.5104 -0.0077  0.7752
  177MOL0     C23765   3.413   3.675  10.362  0.7685  0.2718 -0.7096
  177MOL0     C23766   3.285   3.724  10.365 -0.9131  0.5302 -0.0215
  177MOL0     C23767   3.216   3.781  10.481  0.4282  0.4656 -0.0656
  177MOL0     O23768   3.085   3.812  10.478 -0.0052 -0.0047  0.4433
  177MOL0     C23769   3.053   3.913  10.378 -0.1201  0.7085  0.6881
  177MOL0     C23770   3.110   4.054  10.406 -0.0888  0.7929 -0.6764
  177MOL0     C23771   3.066   4.157  10.292 -0.8914 -0.4217 -0.2208
  177MOL0     C23772   3.111   4.301  10.327 -0.4610  0.1632  0.3676
  177MOL0     C23773   3.083   4.396  10.213  0.9123  0.3681  0.5257
  177MOL0     C23774   3.091   4.538  10.248 -0.5761 -0.1115  0.5141
  177MOL0     C23775   3.214   4.584  10.335 -0.2679 -0.1258  0.4853
  177MOL0     C23776   3.351   4.555  10.266 -0.4289 -0.5388  0.4710
  177MOL0     N23777   3.461   4.542  10.361  0.4821 -0.0768 -0.6959
  177MOL0     C23778   3.506   4.647  10.440 -0.4055 -0.3507 -0.4548
  177MOL0     C23779   3.590   4.584  10.520 -0.5307  1.4147 -0.2658
  177MOL0     C23780   3.695   4.641  10.609 -0.6333 -0.1480  0.2610
  177MOL0     C23781   3.664   4.624  10.761 -0.1716 -0.5967  1.3605
  177MOL0     C23782   3.754   4.691  10.858 -0.1844  0.0279  0.0186
  177MOL0     C23783   3.897   4.639  10.867 -0.3844  0.1191 -0.0559
  177MOL0     O23784   3.965   4.654  10.742 -0.1892 -0.1498 -0.0636
  177MOL0     C23785   4.106   4.663  10.761  0.6583  0.2788  0.4817
  177MOL0     C23786   4.157   4.776  10.841 -0.1658  0.3693  0.6145
  177MOL0     C23787   4.295   4.798  10.852 -0.1603  0.0897  0.1050
  177MOL0     C23788   4.386   4.712  10.795 -0.4546  0.1592 -0.3598
  177MOL0     C23789   4.539   4.738  10.816 -0.7992 -0.3403 -0.1152
  177MOL0     O23790   4.581   4.867  10.853  0.1960 -0.0979 -0.1002
  177MOL0     C23791   4.713   4.885  10.881  0.0760  0.5445  0.8101
  177MOL0     C23792   4.794   4.976  10.820 -0.3219  0.4951  0.0419
  177MOL0     C23793   4.935   5.000  10.859  0.4817 -0.0929  0.1375
  177MOL0     C23794   4.983   4.940  10.973  0.2005  0.5894 -0.0120
  177MOL0     O23795   5.103   4.963  11.037 -0.3188  0.0953  0.2023
  177MOL0     C23796   5.191   5.062  10.977 -0.1870  0.1491 -0.1877
  177MOL0     C23797   5.298   5.103  11.076 -0.1644 -0.2253 -1.2586
  177MOL0     C23798   5.403   4.988  11.078 -0.6351 -0.5009  0.1644
  177MOL0     C23799   5.519   5.025  11.170  0.0958  0.1370 -0.2251
  177MOL0     C23800   5.643   4.936  11.166  0.3108  0.8085 -0.6092
  177MOL0     C23801   5.765   5.017  11.218 -0.4823 -0.0054  0.0090
  177MOL0     C23802   5.903   4.963  11.177  0.6372 -0.1582  0.0482
  177MOL0     C23803   5.937   4.841  11.262 -0.2835  0.4319 -0.4202
  177MOL0    Cl23804   6.095   4.767  11.227  0.6686  0.4164  0.5044
  177MOL0     C23805   4.895   4.845  11.034 -0.7325  0.8726  0.4727
  177MOL0     C23806   4.765   4.813  10.988  0.4258  0.0342 -0.3488
  177MOL0     O23807   4.616   4.640  10.797  0.6356  0.2073  0.2655
  177MOL0     C23808   4.339   4.599  10.723 -0.9653 -0.3580 -0.3749
  177MOL0     C23809   4.201   4.578  10.710 -0.2204 -0.1047  1.1539
  177MOL0     N23810   3.591   4.446  10.497 -0.2559 -0.1680 -0.5227
  177MOL0     N23811   3.507   4.425  10.402 -0.1073  0.6553 -0.6338
  177MOL0     C23812   3.281   3.757  10.596  0.1459 -0.4032 -0.1111
  177MOL0     C23813   3.419   3.726  10.602  1.4498  0.5711 -0.6826
  177MOL0     C23814   3.783   3.490  10.581 -0.3272  0.4312 -0.2749
  177MOL0     C23815   3.853   3.603  10.623  1.1698  0.0760 -0.1824
  177MOL0     C23816   3.984   3.598  10.654  0.1330 -0.2419  0.8596
  177MOL0     C23817   4.059   3.484  10.657  1.0934  0.1774  1.0923
  177MOL0     O23818   4.187   3.489  10.708 -0.7696  0.3722 -0.5914
  177MOL0     C23819   4.263   3.609  10.730 -0.0149  0.3907 -0.6312
  177MOL0     C23820   4.245   3.657  10.878 -0.0174 -0.2965  0.1265
  177MOL0     C23821   4.341   3.775  10.894 -0.3681  1.2710 -0.2767
  177MOL0     C23822   4.332   3.835  11.035  0.5545 -0.2120 -0.6668
  177MOL0     C23823   4.367   3.740  11.143 -0.3451  0.4261 -1.2310
  177MOL0     C23824   4.418   3.649  11.215 -0.2400  0.2996 -0.4557
  177MOL0     C23825   3.990   3.367  10.614 -0.1042  0.3434 -0.2575
  177MOL0     C23826   3.851   3.366  10.577  0.3807  0.2348  0.1300
  177MOL0     C23827   3.794   3.232  10.548  0.0261 -0.8048  0.6001
  177MOL0     H23828   3.469   3.621  10.287  1.0598 -1.5196  0.7298
  177MOL0     H23829   3.226   3.712  10.275  2.1591 -0.7171 -2.0206
  177MOL0     H23830   3.080   3.870  10.281 -1.7598  1.2633 -0.0586
  177MOL0     H23831   2.946   3.936  10.378 -0.6480 -1.4825 -0.6859
  177MOL0     H23832   3.219   4.059  10.413 -0.0581  0.4796 -0.9589
  177MOL0     H23833   3.073   4.081  10.506  1.0419 -1.9567  0.5630
  177MOL0     H23834   2.958   4.159  10.274 -0.9089  0.3451 -0.0610
  177MOL0     H23835   3.119   4.123  10.203  1.6142 -0.2526  1.1154
  177MOL0     H23836   3.056   4.339  10.414 -1.7076  0.7097 -0.6220
  177MOL0     H23837   3.219   4.308  10.340 -0.1674 -3.1087  0.5052
  177MOL0     H23838   3.151   4.379  10.129  0.2913  0.1202  0.0645
  177MOL0     H23839   2.982   4.379  10.174  0.8850  0.5800  0.5021
  177MOL0     H23840   3.112   4.601  10.161  1.4053  2.6004  2.7586
  177MOL0     H23841   3.006   4.588  10.296 -0.0386  1.2141  0.1321
  177MOL0     H23842   3.210   4.516  10.420 -3.4033 -0.8229 -0.0900
  177MOL0     H23843   3.199   4.689  10.363 -3.3424  0.2604 -2.0017
  177MOL0     H23844   3.345   4.465  10.204  2.2227 -0.9371  0.6748
  177MOL0     H23845   3.367   4.638  10.196 -0.0887  0.6222  1.8772
  177MOL0     H23846   3.493   4.753  10.423  0.8345 -0.5153 -2.9169
  177MOL0     H23847   3.793   4.598  10.585 -1.8048 -3.1282  0.4311
  177MOL0     H23848   3.707   4.748  10.590  4.0263 -0.8752 -2.5571
  177MOL0     H23849   3.563   4.664  10.773 -0.2168 -0.0172 -0.5708
  177MOL0     H23850   3.658   4.516  10.778  3.9876 -1.7437 -2.3256
  177MOL0     H23851   3.715   4.685  10.960  1.9352 -2.7803  0.7857
  177MOL0     H23852   3.753   4.797  10.830 -0.4202 -0.0953 -0.4516
  177MOL0     H23853   3.884   4.535  10.900 -2.0139  0.7155  1.3405
  177MOL0     H23854   3.939   4.689  10.954  1.3202  1.5178 -1.5966
  177MOL0     H23855   4.090   4.842  10.896  0.2276 -0.0794  1.6478
  177MOL0     H23856   4.333   4.894  10.887  0.1052  0.9858 -2.4501
  177MOL0     H23857   4.753   5.029  10.735 -0.2919 -0.2245 -0.4276
  177MOL0     H23858   4.985   5.081  10.806 -0.0174 -1.0135 -1.8338
  177MOL0     H23859   5.248   5.018  10.894  1.4190 -0.3264  1.1028
  177MOL0     H23860   5.139   5.154  10.952  1.6839  0.7128 -2.3656
  177MOL0     H23861   5.344   5.200  11.054  0.4681 -0.3117 -0.4066
  177MOL0     H23862   5.247   5.117  11.172  0.1264  1.7450 -1.3553
  177MOL0     H23863   5.357   4.898  11.121 -0.5255 -0.0500  1.2476
  177MOL0     H23864   5.446   4.969  10.979 -2.2853 -1.6214 -0.3780
  177MOL0     H23865   5.490   5.024  11.275 -1.4122 -1.1237 -0.6155
  177MOL0     H23866   5.549   5.129  11.153  0.5783  0.2225  1.0680
  177MOL0     H23867   5.653   4.912  11.060  0.2053 -0.8243 -0.2681
  177MOL0     H23868   5.629   4.849  11.231  3.1785 -0.5835 -1.7175
  177MOL0     H23869   5.751   5.122  11.192 -4.2418 -0.7273 -1.4519
  177MOL0     H23870   5.753   5.015  11.327 -4.0810 -4.1111 -0.1799
  177MOL0     H23871   5.988   5.031  11.186  1.7902 -1.7658  2.4973
  177MOL0     H23872   5.888   4.943  11.070 -0.3620  2.0946 -0.2867
  177MOL0     H23873   5.936   4.874  11.366 -0.9377 -0.1437 -0.2330
  177MOL0     H23874   5.857   4.768  11.245 -1.2175  1.7182 -1.9420
  177MOL0     H23875   4.905   4.781  11.121 -1.8717 -3.1581 -2.0922
  177MOL0     H23876   4.697   4.748  11.041 -0.7049  0.6631 -0.9807
  177MOL0     H23877   4.413   4.539  10.671  2.2367  1.2845  1.9539
  177MOL0     H23878   4.164   4.499  10.646  1.1675 -3.5207  4.1551
  177MOL0     H23879   3.230   3.793  10.686 -0.1043 -3.9588  1.3438
  177MOL0     H23880   3.475   3.750  10.692 -1.0426  2.8778  0.3619
  177MOL0     H23881   3.798   3.696  10.619 -1.6871 -1.4984  0.0205
  177MOL0     H23882   4.019   3.697  10.684 -0.3117 -0.0021  0.5941
  177MOL0     H23883   4.232   3.691  10.665  0.2254  1.7789  0.9266
  177MOL0     H23884   4.368   3.590  10.704 -0.0765 -1.4510  0.3103
  177MOL0     H23885   4.276   3.576  10.945 -0.1696  0.8700  1.6573
  177MOL0     H23886   4.140   3.684  10.893 -0.1415 -1.2504  1.0379
  177MOL0     H23887   4.319   3.856  10.824 -1.1000  0.6672 -0.7716
  177MOL0     H23888   4.434   3.720  10.876 -1.9948 -2.7920  2.3414
  177MOL0     H23889   4.403   3.917  11.051 -2.8807  2.5163  2.5063
  177MOL0     H23890   4.228   3.867  11.050  1.1402  1.7611 -0.5293
  177MOL0     H23891   4.470   3.577  11.274  2.1437  0.1629 -2.5641
  177MOL0     H23892   4.056   3.283  10.630  0.5832  0.9993  0.4331
  177MOL0     H23893   3.748   3.237  10.448  0.6021 -0.1972  0.3642
  177MOL0     H23894   3.875   3.158  10.541  0.9143  0.2273 -0.2630
  177MOL0     H23895   3.715   3.198  10.616  0.0352 -1.3192  0.3614
  178MOL0     O23896   0.489   0.420  10.552  0.1652  0.1513  0.1944
  178MOL0     C23897   0.491   0.521  10.483  0.6724  0.0890  1.4412
  178MOL0     O23898   0.380   0.598  10.448 -0.3410 -0.3877  0.3659
  178MOL0     C23899   0.259   0.562  10.493 -1.0831  0.1523 -0.2454
  178MOL0     C23900   0.170   0.481  10.418 -0.0503  0.0071 -1.0556
  178MOL0     C23901   0.036   0.464  10.453  0.2971  1.2545  0.1268
  178MOL0     C23902  -0.014   0.529  10.564 -0.0137 -0.6059  0.6060
  178MOL0     O23903  -0.147   0.532  10.596  0.3464  0.2035 -0.5873
  178MOL0     C23904  -0.234   0.421  10.570 -0.1476  0.1351  0.6043
  178MOL0     C23905  -0.367   0.438  10.634  0.6533  0.0657  0.3692
  178MOL0     C23906  -0.439   0.298  10.639  0.4336 -0.1528  0.0084
  178MOL0     C23907  -0.449   0.221  10.507  0.5906  0.3778 -0.2842
  178MOL0     C23908  -0.507   0.075  10.522 -0.7197 -0.2277  0.5480
  178MOL0     C23909  -0.511  -0.005  10.393  0.1607 -0.1652  0.0146
  178MOL0     C23910  -0.585   0.050  10.269  0.4158  0.3329 -0.7494
  178MOL0     C23911  -0.598  -0.061  10.157  0.3726  0.0352  0.6107
  178MOL0     N23912  -0.472  -0.117  10.105 -0.6068 -0.2257  0.3061
  178MOL0     C23913  -0.401  -0.046  10.007 -0.5870  0.2153  0.0376
  178MOL0     C23914  -0.285  -0.104  10.010 -0.1873  0.2600 -0.3320
  178MOL0     C23915  -0.158  -0.062   9.942  0.4772 -0.6167 -0.5083
  178MOL0     C23916  -0.095  -0.182   9.873 -0.4928  0.2466 -0.2998
  178MOL0     C23917   0.001  -0.138   9.756 -0.6259  0.1217  0.3218
  178MOL0     C23918   0.146  -0.099   9.784  0.7001 -0.7088 -0.5395
  178MOL0     O23919   0.199  -0.069   9.650  0.1718  0.1446 -0.3932
  178MOL0     C23920   0.329  -0.056   9.633  0.7209  0.4510  0.2184
  178MOL0     C23921   0.417  -0.054   9.738  0.2102 -0.4652  0.3501
  178MOL0     C23922   0.557  -0.029   9.700  0.0496 -0.4451  0.0428
  178MOL0     C23923   0.595  -0.026   9.570  0.4857 -0.2836 -0.0824
  178MOL0     C23924   0.741  -0.018   9.535 -0.1285 -0.6665 -0.1245
  178MOL0     O23925   0.832  -0.004   9.635  0.3539 -0.7652  0.2875
  178MOL0     C23926   0.967  -0.026   9.608  0.0263 -0.0826  0.0236
  178MOL0     C23927   1.055   0.059   9.670 -0.1458  0.2070 -0.5723
  178MOL0     C23928   1.195   0.033   9.658 -0.1693  0.2429  0.1036
  178MOL0     C23929   1.243  -0.091   9.602 -0.9786 -0.0485  0.0531
  178MOL0     O23930   1.380  -0.104   9.614 -0.1460  0.1241  0.2103
  178MOL0     C23931   1.450  -0.223   9.555  0.2042 -0.4784  0.3945
  178MOL0     C23932   1.604  -0.228   9.599  0.5045 -0.3643  0.0874
  178MOL0     C23933   1.687  -0.134   9.501  0.3203  0.8267  0.1505
  178MOL0     C23934   1.825  -0.107   9.572  0.5319  0.1214  0.3238
  178MOL0     C23935   1.925  -0.040   9.479  0.1461  0.4681  0.1042
  178MOL0     C23936   2.071  -0.045   9.529 -0.5232 -0.4529  0.4710
  178MOL0     C23937   2.177  -0.008   9.429  0.0532  0.6198 -0.5389
  178MOL0     C23938   2.308  -0.013   9.504  0.7939  0.0617  0.0612
  178MOL0    Cl23939   2.431  -0.030   9.384 -0.3855  0.0331  0.2668
  178MOL0     C23940   1.159  -0.179   9.548 -0.1962  0.0103  0.7213
  178MOL0     C23941   1.020  -0.146   9.553  0.1570 -0.6305  0.9893
  178MOL0     O23942   0.767  -0.051   9.417  0.4224  1.1785 -0.2086
  178MOL0     C23943   0.499  -0.021   9.467 -0.4981  0.0595  0.2429
  178MOL0     C23944   0.363  -0.025   9.504  0.9245 -0.6295 -0.4349
  178MOL0     N23945  -0.287  -0.215  10.102 -0.3946  0.3766 -0.2787
  178MOL0     N23946  -0.396  -0.211  10.162  0.4764  0.1623 -1.0214
  178MOL0     C23947   0.074   0.610  10.638 -0.2168  0.2502 -1.1976
  178MOL0     C23948   0.207   0.622  10.608 -0.1908 -0.1981 -0.7840
  178MOL0     C23949   0.617   0.560  10.409 -0.1867 -0.7374  0.8429
  178MOL0     C23950   0.635   0.692  10.358  0.4224 -0.0274 -0.3186
  178MOL0     C23951   0.762   0.740  10.312  0.2515 -0.0360 -0.2955
  178MOL0     C23952   0.874   0.648  10.319  0.2567 -1.4945 -1.2105
  178MOL0     O23953   1.003   0.681  10.278  0.5042  0.1976 -0.6966
  178MOL0     C23954   1.025   0.815  10.245 -0.0903  1.2108 -0.2945
  178MOL0     C23955   1.163   0.841  10.184  0.9711 -0.8010  0.0689
  178MOL0     C23956   1.186   0.759  10.053 -0.1589 -0.2826  0.3315
  178MOL0     C23957   1.334   0.761  10.012  0.8034  0.3496 -0.4181
  178MOL0     C23958   1.396   0.896   9.994  0.0543 -0.2470 -0.6702
  178MOL0     C23959   1.449   1.009   9.992 -0.5923  0.0351  0.4945
  178MOL0     C23960   0.860   0.522  10.364  0.5461  0.6091 -0.3177
  178MOL0     C23961   0.734   0.472  10.406 -0.2436 -0.3884 -0.5947
  178MOL0     C23962   0.738   0.332  10.456 -0.7120 -0.3932  0.4597
  178MOL0     H23963   0.212   0.416  10.342  2.0118 -0.9770  0.8083
  178MOL0     H23964  -0.015   0.394  10.388  0.3205  0.5034  0.8991
  178MOL0     H23965  -0.248   0.409  10.462  1.2363 -1.7199  0.5800
  178MOL0     H23966  -0.191   0.326  10.601 -1.0880 -0.6874 -0.5485
  178MOL0     H23967  -0.419   0.516  10.578  1.1843  1.3610  1.6437
  178MOL0     H23968  -0.351   0.481  10.733 -0.6213  1.1308  0.1423
  178MOL0     H23969  -0.538   0.304  10.685  1.8002  0.6378  3.0918
  178MOL0     H23970  -0.392   0.229  10.710 -0.0452 -0.2572  0.2239
  178MOL0     H23971  -0.510   0.282  10.440 -0.8061 -0.8070 -0.1396
  178MOL0     H23972  -0.347   0.210  10.470  2.1228 -1.2585  3.8845
  178MOL0     H23973  -0.452   0.027  10.603 -0.6720  2.3313  2.1663
  178MOL0     H23974  -0.614   0.088  10.546 -1.5717 -3.6469 -0.8855
  178MOL0     H23975  -0.419  -0.060  10.373  0.7487  0.4431  0.9356
  178MOL0     H23976  -0.589  -0.076  10.421 -1.4527  1.2136 -0.7263
  178MOL0     H23977  -0.523   0.137  10.244  3.4346 -1.0673  1.2238
  178MOL0     H23978  -0.685   0.085  10.296  0.4026 -0.9389  1.0652
  178MOL0     H23979  -0.654  -0.146  10.196 -1.3389  0.7301 -0.2143
  178MOL0     H23980  -0.653  -0.028  10.067  1.0210 -1.9764 -0.5894
  178MOL0     H23981  -0.429   0.032   9.937 -0.2866 -1.5804 -2.1841
  178MOL0     H23982  -0.180   0.014   9.866 -1.1766 -1.3503 -0.7997
  178MOL0     H23983  -0.090  -0.014  10.014 -0.8840 -1.5975  1.5424
  178MOL0     H23984  -0.050  -0.254   9.942 -1.8562  0.7367  1.1634
  178MOL0     H23985  -0.173  -0.235   9.818 -1.7382  1.0842  0.6025
  178MOL0     H23986  -0.045  -0.057   9.699  1.7537  1.0216 -0.4521
  178MOL0     H23987   0.016  -0.223   9.689  2.6025 -0.3186  1.4208
  178MOL0     H23988   0.196  -0.185   9.829 -1.0263 -1.4209  0.1004
  178MOL0     H23989   0.138  -0.015   9.853 -2.4120 -2.7542  1.8762
  178MOL0     H23990   0.392  -0.065   9.843 -0.7637  1.0669  0.3090
  178MOL0     H23991   0.629  -0.022   9.781 -0.2694 -3.0274  0.6312
  178MOL0     H23992   1.031   0.146   9.731  4.1947  1.2494 -0.0200
  178MOL0     H23993   1.263   0.106   9.701  0.7067  0.6248 -1.8009
  178MOL0     H23994   1.418  -0.318   9.598 -0.8442 -0.7602 -0.9407
  178MOL0     H23995   1.445  -0.217   9.446  1.3864 -3.4824  0.1006
  178MOL0     H23996   1.600  -0.203   9.706 -2.0544 -1.0749  0.2354
  178MOL0     H23997   1.641  -0.331   9.597  1.9928  0.1517 -0.4693
  178MOL0     H23998   1.702  -0.175   9.401 -0.3020  0.0614  0.3641
  178MOL0     H23999   1.629  -0.043   9.489 -1.0106 -0.0987 -0.6872
  178MOL0     H24000   1.859  -0.202   9.614  5.1158  1.8930  1.2509
  178MOL0     H24001   1.812  -0.041   9.659 -0.7302 -0.1238  0.3368
  178MOL0     H24002   1.893   0.065   9.473 -1.3520  0.0470  0.5418
  178MOL0     H24003   1.930  -0.082   9.378  1.2166 -2.3817  1.2417
  178MOL0     H24004   2.082   0.016   9.619 -1.3324  2.0741 -1.0353
  178MOL0     H24005   2.088  -0.148   9.560  1.3720 -1.2599 -2.7433
  178MOL0     H24006   2.165   0.092   9.387  2.4884  1.5760  0.8734
  178MOL0     H24007   2.175  -0.082   9.348 -1.4547  1.9202 -1.7475
  178MOL0     H24008   2.324   0.073   9.569 -0.6013 -1.1419  2.1292
  178MOL0     H24009   2.316  -0.105   9.564  1.5312 -0.2003 -0.4136
  178MOL0     H24010   1.187  -0.277   9.512 -2.1849  0.1064 -1.3435
  178MOL0     H24011   0.955  -0.218   9.504 -0.4732  0.2154  0.5711
  178MOL0     H24012   0.529  -0.018   9.362  0.1706 -2.7902  0.2713
  178MOL0     H24013   0.285  -0.021   9.428  0.1296 -1.4758  0.3160
  178MOL0     H24014   0.041   0.667  10.724 -0.7229 -0.7169 -0.7290
  178MOL0     H24015   0.281   0.675  10.668  0.1140 -1.4091 -0.0489
  178MOL0     H24016   0.553   0.763  10.368  2.1579  1.7212  3.2837
  178MOL0     H24017   0.760   0.841  10.272 -1.5686  0.1031  0.0410
  178MOL0     H24018   1.017   0.880  10.332 -2.6816  0.1190  0.3897
  178MOL0     H24019   0.953   0.843  10.167 -1.0437 -2.8929 -1.1173
  178MOL0     H24020   1.246   0.809  10.248  3.2018  2.5015 -0.9269
  178MOL0     H24021   1.169   0.945  10.153 -2.1472 -0.7608 -0.6691
  178MOL0     H24022   1.112   0.796   9.980  0.4478  1.5024  0.5702
  178MOL0     H24023   1.159   0.655  10.070 -0.9481 -0.5392 -2.1206
  178MOL0     H24024   1.394   0.705  10.084  0.5775  0.4065 -0.1836
  178MOL0     H24025   1.341   0.720   9.910 -1.9200  0.0180 -0.5345
  178MOL0     H24026   1.503   1.100  10.008  2.3605 -1.5623  0.2380
  178MOL0     H24027   0.941   0.450  10.359 -0.5864 -0.6311 -2.0562
  178MOL0     H24028   0.731   0.329  10.565  0.7990 -3.6937  0.6058
  178MOL0     H24029   0.650   0.284  10.412 -0.2196 -0.8774 -0.0289
  178MOL0     H24030   0.820   0.275  10.411 -1.8149 -1.5194 -0.2094
  179MOL0     O24031   1.371   9.560   3.519 -0.4160 -0.3177  0.3252
  179MOL0     C24032   1.290   9.593   3.603 -0.6363  0.5289 -0.2295
  179MOL0     O24033   1.324   9.612   3.736 -0.4884 -0.3513  0.1577
  179MOL0     C24034   1.456   9.583   3.768  0.3084 -0.3070 -0.5058
  179MOL0     C24035   1.549   9.690   3.803  0.6643  0.1666 -0.1952
  179MOL0     C24036   1.674   9.666   3.851  0.6351  0.4332  0.9481
  179MOL0     C24037   1.710   9.530   3.860  1.1184  0.2397 -0.1068
  179MOL0     O24038   1.839   9.515   3.906  0.0298  0.0609 -0.6428
  179MOL0     C24039   1.891   9.383   3.926 -0.4040 -0.6962 -0.5113
  179MOL0     C24040   2.037   9.406   3.964  0.2750 -0.4783 -0.4082
  179MOL0     C24041   2.116   9.278   3.937  0.1914 -0.1882 -0.1813
  179MOL0     C24042   2.225   9.250   4.050  0.2525 -0.7467  0.0203
  179MOL0     C24043   2.305   9.125   4.018  0.0776 -0.6625 -0.0258
  179MOL0     C24044   2.437   9.114   4.087 -0.4242 -0.3060 -0.1600
  179MOL0     C24045   2.506   8.986   4.052 -0.3973 -0.2929 -0.0135
  179MOL0     C24046   2.440   8.862   4.114  0.0017 -0.0256  1.1526
  179MOL0     N24047   2.476   8.841   4.257  1.3214 -0.0285  0.3861
  179MOL0     C24048   2.476   8.927   4.368 -0.6339  0.1309  0.2015
  179MOL0     C24049   2.520   8.856   4.476  0.0192 -0.9390 -0.0075
  179MOL0     C24050   2.547   8.916   4.613  0.8275 -0.3820 -0.5028
  179MOL0     C24051   2.708   8.920   4.640  0.3452 -0.5385  0.2365
  179MOL0     C24052   2.755   8.787   4.692  0.0878 -0.4693 -0.8527
  179MOL0     C24053   2.903   8.783   4.719 -0.7813 -0.2832 -0.7691
  179MOL0     O24054   2.940   8.652   4.750  0.7692  0.6441 -0.2032
  179MOL0     C24055   3.074   8.625   4.768  0.0118  0.3994 -0.5422
  179MOL0     C24056   3.105   8.500   4.829  0.2820  0.0034  0.6574
  179MOL0     C24057   3.244   8.463   4.846  0.0907  0.5491 -0.4269
  179MOL0     C24058   3.350   8.552   4.822  0.5663  0.2695 -0.1288
  179MOL0     C24059   3.492   8.508   4.842  0.7209 -0.0933 -1.0316
  179MOL0     O24060   3.510   8.375   4.851  0.1269  0.2339  0.1262
  179MOL0     C24061   3.640   8.326   4.876  0.7489  0.3842  0.1575
  179MOL0     C24062   3.690   8.309   5.004  0.0568  0.8470 -0.1150
  179MOL0     C24063   3.813   8.253   5.023 -0.6107 -0.6871  0.4196
  179MOL0     C24064   3.894   8.208   4.913 -0.4811  0.3732 -0.0771
  179MOL0     O24065   4.018   8.159   4.954  0.3638 -0.3224  0.2764
  179MOL0     C24066   4.105   8.102   4.854 -0.0174 -0.3759 -0.4133
  179MOL0     C24067   4.247   8.114   4.911  0.1798  0.2636 -0.5687
  179MOL0     C24068   4.295   7.997   5.003  1.0097 -0.2573 -0.3342
  179MOL0     C24069   4.340   7.878   4.920  0.3654  0.7113 -0.1348
  179MOL0     C24070   4.349   7.732   4.993 -0.2084 -0.3352  0.5873
  179MOL0     C24071   4.454   7.640   4.915 -0.3461  0.5744  0.4587
  179MOL0     C24072   4.498   7.520   5.000  0.6597  0.9092 -0.3670
  179MOL0     C24073   4.587   7.424   4.926 -0.2046  0.4493  0.0441
  179MOL0    Cl24074   4.741   7.487   4.872 -0.4485  0.1149  0.3005
  179MOL0     C24075   3.848   8.238   4.787 -0.3850  0.6321  0.0191
  179MOL0     C24076   3.715   8.290   4.770  0.3720 -1.3938  0.0836
  179MOL0     O24077   3.582   8.593   4.848 -0.0322  0.5767  0.3175
  179MOL0     C24078   3.316   8.679   4.764  1.2177  0.1255 -0.0798
  179MOL0     C24079   3.180   8.715   4.740 -0.9968 -0.2639 -0.6341
  179MOL0     N24080   2.538   8.732   4.426 -0.5816  0.2777  1.0060
  179MOL0     N24081   2.519   8.721   4.295 -0.3298  0.7943 -0.1944
  179MOL0     C24082   1.631   9.425   3.827  0.9751  0.1949  0.3818
  179MOL0     C24083   1.495   9.454   3.790  0.1487 -0.0048 -0.1050
  179MOL0     C24084   1.151   9.602   3.573 -0.7586  0.3510 -0.1691
  179MOL0     C24085   1.106   9.514   3.472 -1.0535  0.3996 -0.2966
  179MOL0     C24086   0.972   9.518   3.435  1.0495  0.1058  0.2765
  179MOL0     C24087   0.880   9.596   3.495  0.1477 -0.5356  0.0192
  179MOL0     O24088   0.748   9.570   3.466 -0.2981  0.4231 -0.4302
  179MOL0     C24089   0.639   9.652   3.525  0.8121 -0.2941 -0.1297
  179MOL0     C24090   0.510   9.587   3.483  0.1710  0.3576  0.1587
  179MOL0     C24091   0.486   9.438   3.536  0.4139  0.0704  0.4963
  179MOL0     C24092   0.479   9.428   3.692  0.2584  0.0428 -0.3264
  179MOL0     C24093   0.369   9.516   3.744  0.1489 -0.1137 -0.5530
  179MOL0     C24094   0.296   9.592   3.805  0.0034 -0.0192  0.0086
  179MOL0     C24095   0.926   9.679   3.598  0.5001  0.2664  0.1385
  179MOL0     C24096   1.065   9.683   3.631  0.9752 -0.2493 -0.3168
  179MOL0     C24097   1.117   9.793   3.728 -0.2930 -0.0984 -0.2567
  179MOL0     H24098   1.515   9.792   3.789 -2.4741 -0.8166 -0.4710
  179MOL0     H24099   1.744   9.747   3.867 -0.3591  2.0212 -1.8760
  179MOL0     H24100   1.846   9.341   4.016  1.3593 -0.7003  0.4058
  179MOL0     H24101   1.872   9.319   3.839 -2.5771 -0.9206  0.0688
  179MOL0     H24102   2.040   9.430   4.070  2.5629 -0.3780 -0.4532
  179MOL0     H24103   2.082   9.486   3.906  3.1888 -1.8121 -0.1510
  179MOL0     H24104   2.158   9.285   3.836 -0.3117  0.0091 -0.3798
  179MOL0     H24105   2.046   9.194   3.937 -0.4147  0.1502  3.1516
  179MOL0     H24106   2.291   9.337   4.053 -0.4864 -0.1750  0.0594
  179MOL0     H24107   2.175   9.231   4.145 -0.0581 -3.8615 -0.6347
  179MOL0     H24108   2.241   9.044   4.054  0.9347 -1.7402 -0.8769
  179MOL0     H24109   2.324   9.124   3.911  0.9360 -1.2152  0.1272
  179MOL0     H24110   2.495   9.204   4.062  1.8870 -1.0658  1.9455
  179MOL0     H24111   2.425   9.114   4.196 -2.4651  0.2341 -0.3434
  179MOL0     H24112   2.611   8.994   4.082 -0.6112  1.0839  0.4621
  179MOL0     H24113   2.507   8.976   3.943  0.8061 -0.8351  0.0362
  179MOL0     H24114   2.331   8.858   4.117 -0.1185  1.8716  0.8080
  179MOL0     H24115   2.475   8.784   4.046  2.0339  2.5202 -0.9879
  179MOL0     H24116   2.439   9.029   4.368 -1.1580 -0.0162 -1.7613
  179MOL0     H24117   2.503   9.015   4.619  1.2969 -0.2037  0.2158
  179MOL0     H24118   2.494   8.872   4.698 -0.4814  1.4781 -0.3016
  179MOL0     H24119   2.761   8.948   4.549 -0.1714  2.0837  0.6552
  179MOL0     H24120   2.722   8.994   4.719 -1.0787 -2.5659  2.5483
  179MOL0     H24121   2.727   8.703   4.628 -0.3516 -0.1732 -1.0551
  179MOL0     H24122   2.713   8.771   4.792  2.0576 -0.3991  0.0324
  179MOL0     H24123   2.932   8.856   4.795 -1.4890 -3.0416  2.3512
  179MOL0     H24124   2.954   8.822   4.630 -0.2640 -0.5783 -0.6057
  179MOL0     H24125   3.023   8.444   4.871  0.9873  0.1762  2.3478
  179MOL0     H24126   3.243   8.369   4.899 -2.1093  0.9469  0.3452
  179MOL0     H24127   3.622   8.307   5.089  0.6182 -1.3359  0.3504
  179MOL0     H24128   3.840   8.232   5.126  0.6446 -1.3976 -0.0302
  179MOL0     H24129   4.088   7.997   4.829 -0.1745 -0.4865  0.1446
  179MOL0     H24130   4.086   8.159   4.762  0.0407 -1.2833 -1.0032
  179MOL0     H24131   4.310   8.143   4.827  0.1269  1.0417 -0.3424
  179MOL0     H24132   4.247   8.203   4.975 -1.1953 -0.3214  0.2884
  179MOL0     H24133   4.390   8.026   5.050  1.4733 -0.0394 -1.3703
  179MOL0     H24134   4.213   7.960   5.065 -0.9083 -1.3700 -3.3420
  179MOL0     H24135   4.439   7.899   4.880  2.2639 -2.1238  2.6253
  179MOL0     H24136   4.267   7.865   4.839 -2.3105  1.7872  1.9239
  179MOL0     H24137   4.252   7.684   5.009 -0.4822 -0.7929 -2.0143
  179MOL0     H24138   4.396   7.750   5.091 -1.8899 -2.1376  1.8045
  179MOL0     H24139   4.405   7.607   4.823 -2.2257  2.0739  0.8491
  179MOL0     H24140   4.542   7.699   4.887  1.0048 -1.0856  1.0360
  179MOL0     H24141   4.411   7.467   5.039  2.2882 -0.7872  1.1073
  179MOL0     H24142   4.547   7.551   5.092 -0.8444 -2.9027  1.9681
  179MOL0     H24143   4.608   7.329   4.976 -0.5434  0.0992 -0.4556
  179MOL0     H24144   4.530   7.389   4.839  0.9477 -1.1096 -0.1392
  179MOL0     H24145   3.913   8.219   4.701  1.0554  1.7703  0.8138
  179MOL0     H24146   3.674   8.304   4.670 -1.9424  0.6720  1.2135
  179MOL0     H24147   3.392   8.753   4.742  2.5033 -0.3697  2.3647
  179MOL0     H24148   3.169   8.814   4.697  1.1514 -0.0867 -0.8993
  179MOL0     H24149   1.664   9.322   3.818  1.9007  0.6343 -1.9678
  179MOL0     H24150   1.424   9.375   3.765 -0.8201  1.2763 -1.6363
  179MOL0     H24151   1.166   9.444   3.415 -1.9976 -0.1117 -0.6899
  179MOL0     H24152   0.927   9.454   3.359  1.2047  1.1724 -0.7327
  179MOL0     H24153   0.633   9.758   3.499 -2.4400 -0.3623 -0.1221
  179MOL0     H24154   0.647   9.645   3.634  0.5289 -0.4736 -0.1195
  179MOL0     H24155   0.499   9.584   3.374  1.4060  1.2148  0.0017
  179MOL0     H24156   0.425   9.646   3.518 -1.7392 -0.6174 -2.5130
  179MOL0     H24157   0.562   9.371   3.495 -1.4028 -3.1631  1.9763
  179MOL0     H24158   0.387   9.418   3.495  0.8154  1.8925 -1.5522
  179MOL0     H24159   0.466   9.323   3.718  0.2973  0.0297 -0.3605
  179MOL0     H24160   0.575   9.468   3.725 -1.4555  5.4686 -0.8351
  179MOL0     H24161   0.231   9.654   3.863 -1.2653 -1.5066  0.2577
  179MOL0     H24162   0.861   9.754   3.639  1.2188  1.2614 -0.4880
  179MOL0     H24163   1.065   9.886   3.704  1.5920  0.3417 -3.1995
  179MOL0     H24164   1.079   9.767   3.827 -2.2614  0.6915 -0.7562
  179MOL0     H24165   1.223   9.820   3.732 -0.8772  2.3447  0.7797
  180MOL0     O24166   0.969  10.923   7.877  0.3367 -0.0456  0.3821
  180MOL0     C24167   0.980  11.044   7.895  0.5427 -0.1502  0.5675
  180MOL0     O24168   1.086  11.115   7.957 -0.3826 -0.4615 -0.2257
  180MOL0     C24169   1.185  11.035   8.008  0.8595 -0.3842 -0.0160
  180MOL0     C24170   1.195  11.016   8.144  0.0458  0.4266 -0.9447
  180MOL0     C24171   1.276  10.914   8.195 -0.8791  0.6225 -0.8884
  180MOL0     C24172   1.357  10.845   8.119  1.0453  0.7501  1.0221
  180MOL0     O24173   1.436  10.753   8.179  1.0160 -0.0529 -0.1543
  180MOL0     C24174   1.568  10.756   8.138 -0.6161 -0.0866 -0.7870
  180MOL0     C24175   1.631  10.641   8.211 -0.2629  0.5159  0.2956
  180MOL0     C24176   1.776  10.616   8.152 -0.1837 -0.1979 -0.4699
  180MOL0     C24177   1.874  10.737   8.166  0.5628 -0.0150  0.3329
  180MOL0     C24178   2.017  10.703   8.117 -0.4197  1.1047 -0.0124
  180MOL0     C24179   2.009  10.671   7.967  0.0551 -0.2607  0.4655
  180MOL0     C24180   2.149  10.679   7.894  0.3778 -0.5948  0.3047
  180MOL0     C24181   2.209  10.822   7.904  0.6204  0.9342  0.3177
  180MOL0     N24182   2.336  10.825   7.829  0.2509  0.6916 -0.7910
  180MOL0     C24183   2.445  10.759   7.867 -0.0957  0.1069 -0.0959
  180MOL0     C24184   2.523  10.767   7.756  0.5136 -0.0659 -1.0136
  180MOL0     C24185   2.657  10.711   7.760 -0.1372 -0.4591 -0.2514
  180MOL0     C24186   2.739  10.776   7.877  0.7454  0.7883  0.9999
  180MOL0     C24187   2.879  10.721   7.897  0.2005 -0.0646  0.1825
  180MOL0     C24188   2.985  10.751   7.791 -0.2685  0.0493 -0.3215
  180MOL0     O24189   3.118  10.725   7.844 -0.3147  0.0610 -0.1767
  180MOL0     C24190   3.229  10.743   7.757 -0.2633 -0.4303  0.0409
  180MOL0     C24191   3.218  10.811   7.631  0.1714  0.4410  0.1368
  180MOL0     C24192   3.334  10.855   7.563  0.3575  0.5640  0.6476
  180MOL0     C24193   3.459  10.814   7.606 -0.0205  0.4601  0.1146
  180MOL0     C24194   3.581  10.840   7.523 -0.4351  0.2938  0.2545
  180MOL0     O24195   3.701  10.797   7.556 -0.1991 -0.3358 -0.0119
  180MOL0     C24196   3.809  10.816   7.478 -0.0836  0.6371  0.6528
  180MOL0     C24197   3.851  10.945   7.435  0.4574 -0.6565  0.3506
  180MOL0     C24198   3.966  10.974   7.361 -0.2804  0.1694  0.1040
  180MOL0     C24199   4.060  10.871   7.349 -0.6123 -0.6141 -0.2029
  180MOL0     O24200   4.186  10.894   7.295  0.0316  0.8442  0.1557
  180MOL0     C24201   4.250  11.023   7.316 -0.3999  0.3455  0.2333
  180MOL0     C24202   4.383  11.025   7.237 -0.1616 -0.2920  0.7798
  180MOL0     C24203   4.507  10.981   7.319 -0.3580  0.2466  0.0771
  180MOL0     C24204   4.513  10.826   7.340 -0.0362  0.2832 -0.0091
  180MOL0     C24205   4.648  10.765   7.390  0.5831 -0.3270 -0.3248
  180MOL0     C24206   4.777  10.825   7.345  0.2950 -0.0178 -0.2821
  180MOL0     C24207   4.895  10.752   7.408  0.3015  0.4757 -0.6416
  180MOL0     C24208   5.026  10.797   7.343 -0.2268 -0.1616 -0.2652
  180MOL0    Cl24209   5.056  10.961   7.409 -0.3444  0.4215  0.4981
  180MOL0     C24210   4.020  10.742   7.386 -0.0046  0.0765 -0.5785
  180MOL0     C24211   3.895  10.716   7.442 -0.2572  0.1717  0.3523
  180MOL0     O24212   3.559  10.904   7.421  0.1268 -0.0660  0.0260
  180MOL0     C24213   3.470  10.738   7.728 -0.4372 -0.2174  0.4109
  180MOL0     C24214   3.354  10.708   7.803 -0.8422  0.2280  0.7174
  180MOL0     N24215   2.471  10.846   7.657 -0.2588 -0.3722  0.4484
  180MOL0     N24216   2.353  10.883   7.702  0.8350  0.3812  0.3413
  180MOL0     C24217   1.358  10.878   7.978  0.1146 -0.2264 -0.6678
  180MOL0     C24218   1.270  10.963   7.923 -0.2809 -0.6147 -0.3105
  180MOL0     C24219   0.888  11.128   7.817 -0.2987 -0.0433 -0.2271
  180MOL0     C24220   0.917  11.266   7.802 -0.0339 -0.6764 -0.4693
  180MOL0     C24221   0.836  11.346   7.722  0.2002  0.4736  0.3199
  180MOL0     C24222   0.713  11.301   7.658 -0.0661 -0.8554 -0.4311
  180MOL0     O24223   0.644  11.387   7.579  0.1105  0.4814  0.2766
  180MOL0     C24224   0.595  11.505   7.640 -0.2527  0.8090 -0.0567
  180MOL0     C24225   0.449  11.529   7.603  0.1349 -0.6081 -0.9666
  180MOL0     C24226   0.348  11.428   7.662 -0.3153 -0.6353 -1.1152
  180MOL0     C24227   0.202  11.461   7.641  0.0689  0.1699 -0.4270
  180MOL0     C24228   0.177  11.547   7.520  0.5232  0.0252 -0.2924
  180MOL0     C24229   0.153  11.614   7.426 -0.8183 -0.3484 -0.0749
  180MOL0     C24230   0.686  11.169   7.679 -0.8028  0.1504 -0.0774
  180MOL0     C24231   0.765  11.080   7.758  1.1122 -0.0927  1.3574
  180MOL0     C24232   0.705  10.933   7.777  0.8553  0.7762  0.2160
  180MOL0     H24233   1.134  11.077   8.210  1.9158  1.4824 -0.1324
  180MOL0     H24234   1.274  10.887   8.300  2.3702 -0.6027 -1.0294
  180MOL0     H24235   1.586  10.744   8.030  0.8368 -0.3687 -0.5344
  180MOL0     H24236   1.621  10.846   8.170 -1.5870  0.9754 -2.0300
  180MOL0     H24237   1.569  10.552   8.203  0.2538 -0.0426  1.9971
  180MOL0     H24238   1.625  10.658   8.319 -0.8349  2.1938  0.0279
  180MOL0     H24239   1.760  10.603   8.045 -2.0002  1.8430 -0.5161
  180MOL0     H24240   1.816  10.523   8.193 -0.5438 -0.8250 -1.5026
  180MOL0     H24241   1.837  10.823   8.110 -0.6984  0.7310  2.1888
  180MOL0     H24242   1.877  10.764   8.272 -0.4516  0.8639  0.1542
  180MOL0     H24243   2.081  10.790   8.131  1.0109 -0.2434  2.8783
  180MOL0     H24244   2.056  10.614   8.168 -1.0323 -0.4149 -2.0854
  180MOL0     H24245   1.963  10.573   7.952  1.1927 -0.9963  1.5762
  180MOL0     H24246   1.943  10.746   7.923 -1.4817  0.1997  3.2983
  180MOL0     H24247   2.140  10.658   7.787  0.9486 -3.3874  0.7201
  180MOL0     H24248   2.219  10.611   7.943  0.2061 -1.0477 -0.0741
  180MOL0     H24249   2.136  10.896   7.870 -0.1937 -0.6095 -1.4485
  180MOL0     H24250   2.246  10.852   8.003  2.5630 -0.5169  0.0987
  180MOL0     H24251   2.463  10.700   7.956 -3.2244 -2.2100 -0.8142
  180MOL0     H24252   2.661  10.603   7.772  4.4592 -0.3672  0.9584
  180MOL0     H24253   2.713  10.741   7.671  0.5904 -1.9540 -0.3363
  180MOL0     H24254   2.735  10.885   7.863  0.5527  0.5197 -1.6929
  180MOL0     H24255   2.688  10.742   7.967 -0.7122 -0.4451 -0.2368
  180MOL0     H24256   2.865  10.613   7.902  1.7798 -0.2706  0.7831
  180MOL0     H24257   2.927  10.750   7.991  0.0460  0.7445  0.0185
  180MOL0     H24258   2.980  10.859   7.771 -1.4106 -0.4141 -2.8435
  180MOL0     H24259   2.968  10.689   7.703  1.6327  0.9679 -1.3900
  180MOL0     H24260   3.128  10.848   7.583  0.1149 -0.1002 -0.1844
  180MOL0     H24261   3.330  10.913   7.471 -2.1529  1.9053  1.5076
  180MOL0     H24262   3.790  11.027   7.471  1.6461  1.5833 -2.3704
  180MOL0     H24263   3.995  11.074   7.330  0.4987 -0.9656 -3.3509
  180MOL0     H24264   4.184  11.110   7.301 -2.0293 -0.3215  2.8381
  180MOL0     H24265   4.269  11.023   7.424  1.5565  0.6385 -0.0837
  180MOL0     H24266   4.363  10.966   7.147 -0.9389 -0.2748  0.9295
  180MOL0     H24267   4.407  11.125   7.201 -0.4226  0.9951  3.8395
  180MOL0     H24268   4.604  11.013   7.280  0.1856  0.4858  1.5451
  180MOL0     H24269   4.501  11.034   7.414 -0.2326 -0.4282  0.4700
  180MOL0     H24270   4.497  10.779   7.242 -3.0665 -2.4210  1.6195
  180MOL0     H24271   4.433  10.788   7.403  0.0184  0.2255  0.0273
  180MOL0     H24272   4.650  10.657   7.374  0.1243 -0.0922 -2.1281
  180MOL0     H24273   4.649  10.791   7.497 -0.1898  0.8134 -0.5756
  180MOL0     H24274   4.773  10.803   7.237  2.5788  1.0160 -0.6225
  180MOL0     H24275   4.773  10.933   7.361 -1.2099 -0.2337  1.0605
  180MOL0     H24276   4.874  10.647   7.388 -0.1221  0.2501  0.9015
  180MOL0     H24277   4.897  10.764   7.517  0.0730 -0.4054 -0.5389
  180MOL0     H24278   5.102  10.725   7.374 -0.5839  0.3490  1.9747
  180MOL0     H24279   4.999  10.791   7.237 -1.9906  0.8864  0.0754
  180MOL0     H24280   4.080  10.656   7.358  0.1965  0.1583 -0.3973
  180MOL0     H24281   3.862  10.613   7.451 -1.2978  0.3600 -0.9520
  180MOL0     H24282   3.573  10.716   7.754 -0.4978  0.5820  1.4027
  180MOL0     H24283   3.361  10.647   7.892 -0.6441  1.0304  1.2548
  180MOL0     H24284   1.434  10.831   7.916  0.9500  0.9063 -0.5560
  180MOL0     H24285   1.259  10.988   7.818 -1.6740  3.2935  0.6121
  180MOL0     H24286   1.008  11.314   7.835 -0.8235 -0.7300  2.0201
  180MOL0     H24287   0.884  11.438   7.690 -1.5059  0.8976 -1.2327
  180MOL0     H24288   0.660  11.586   7.606  2.6637 -1.0123  0.8049
  180MOL0     H24289   0.606  11.496   7.748 -0.8555  1.2264  0.0429
  180MOL0     H24290   0.434  11.535   7.495  1.0613 -0.6981 -1.1032
  180MOL0     H24291   0.423  11.625   7.649 -1.3001 -0.6125 -1.7208
  180MOL0     H24292   0.366  11.430   7.770 -0.6149  2.8258 -1.0089
  180MOL0     H24293   0.375  11.334   7.613 -0.9840 -1.1122 -0.5801
  180MOL0     H24294   0.152  11.364   7.635  2.3230 -1.4120  3.1209
  180MOL0     H24295   0.165  11.513   7.730 -1.9809  0.4069 -1.3792
  180MOL0     H24296   0.115  11.669   7.343 -0.7409 -0.8893 -0.4798
  180MOL0     H24297   0.597  11.145   7.621 -3.3853 -1.0087  3.9805
  180MOL0     H24298   0.677  10.916   7.882  1.3946  1.4827  0.4895
  180MOL0     H24299   0.623  10.910   7.709  1.2582  0.3437 -0.1305
  180MOL0     H24300   0.775  10.855   7.744 -0.8313 -1.2016  1.0889
  181MOL0     O24301  10.504   2.576   4.426  1.0028 -0.5338 -0.3052
  181MOL0     C24302  10.538   2.493   4.515  0.8188 -1.3346 -0.1952
  181MOL0     O24303  10.614   2.381   4.500 -0.4460 -0.0053 -0.0567
  181MOL0     C24304  10.693   2.377   4.389  0.2602  1.0241  0.8210
  181MOL0     C24305  10.795   2.465   4.361  0.5370  0.6942 -0.1154
  181MOL0     C24306  10.875   2.457   4.250  0.5583  0.8519 -0.1656
  181MOL0     C24307  10.865   2.351   4.162  0.9941 -0.2219 -0.6001
  181MOL0     O24308  10.944   2.324   4.051  0.5485  0.4289  0.3773
  181MOL0     C24309  11.082   2.319   4.069 -0.2090 -0.4297 -0.1651
  181MOL0     C24310  11.134   2.233   3.963  1.1413  1.7013  0.1020
  181MOL0     C24311  11.086   2.081   3.943 -0.6414  0.4993  0.8383
  181MOL0     C24312  11.099   1.998   4.071  0.9946 -0.0223  0.1617
  181MOL0     C24313  11.235   1.992   4.141 -0.4950  0.0913  0.1866
  181MOL0     C24314  11.329   1.895   4.057  0.4755  1.4527  0.1906
  181MOL0     C24315  11.460   1.855   4.142  0.1993 -0.7112  0.5487
  181MOL0     C24316  11.546   1.974   4.189  0.0746 -0.8210  0.2144
  181MOL0     N24317  11.608   2.040   4.068 -0.4736  0.1073 -0.4436
  181MOL0     C24318  11.719   2.005   3.998 -0.7622  0.0645 -0.4405
  181MOL0     C24319  11.746   2.103   3.904  0.6422  0.3225  0.0841
  181MOL0     C24320  11.854   2.095   3.806 -0.3212  0.2642 -0.7210
  181MOL0     C24321  11.998   2.092   3.853  0.3960  0.0957  0.2957
  181MOL0     C24322  12.112   2.043   3.755 -0.2534 -0.2018  0.1072
  181MOL0     C24323  12.136   2.140   3.639  0.0350 -0.1385 -0.1325
  181MOL0     O24324  12.172   2.270   3.690  0.1672 -0.1451 -0.1887
  181MOL0     C24325  12.294   2.287   3.749  0.1701  0.1619 -0.0554
  181MOL0     C24326  12.407   2.208   3.733 -0.9826  0.5566  0.3309
  181MOL0     C24327  12.527   2.241   3.800  0.4697 -0.7767  0.0006
  181MOL0     C24328  12.533   2.361   3.885  0.4372  0.0903 -0.0181
  181MOL0     C24329  12.648   2.410   3.953 -1.3240 -0.2583 -0.1493
  181MOL0     O24330  12.632   2.520   4.038 -0.1324  0.4336  1.0151
  181MOL0     C24331  12.752   2.566   4.085 -0.0573 -0.0452 -0.6244
  181MOL0     C24332  12.792   2.553   4.214  0.1691  0.2422  0.0583
  181MOL0     C24333  12.925   2.587   4.258  0.3250 -0.1581 -0.4307
  181MOL0     C24334  13.014   2.648   4.169 -0.0496  0.6192  0.2774
  181MOL0     O24335  13.130   2.696   4.214 -0.1630  0.2838 -0.3234
  181MOL0     C24336  13.227   2.596   4.240  0.2141  0.1609  0.1124
  181MOL0     C24337  13.356   2.662   4.300 -0.1079  0.6770  0.8128
  181MOL0     C24338  13.349   2.745   4.422  0.1865  0.1347 -0.7611
  181MOL0     C24339  13.358   2.668   4.555  0.1572 -0.2993 -0.4464
  181MOL0     C24340  13.360   2.769   4.674 -0.4484  0.4971  0.3409
  181MOL0     C24341  13.424   2.709   4.802 -0.0685  0.6417  0.1551
  181MOL0     C24342  13.480   2.816   4.886  0.2074  0.6616  0.3558
  181MOL0     C24343  13.539   2.778   5.018  0.1797  0.1817  0.4752
  181MOL0    Cl24344  13.702   2.712   4.993 -0.9764  0.3760  0.2208
  181MOL0     C24345  12.971   2.669   4.034 -0.1723  0.0576  0.0508
  181MOL0     C24346  12.843   2.633   3.998 -0.0004 -0.4220  0.4163
  181MOL0     O24347  12.747   2.335   3.954 -0.5704 -0.2849 -0.1818
  181MOL0     C24348  12.417   2.446   3.888  0.6295  0.5175 -0.3093
  181MOL0     C24349  12.302   2.400   3.828 -0.1942 -0.1289  0.4180
  181MOL0     N24350  11.635   2.183   3.912 -0.3134 -0.8428  0.2759
  181MOL0     N24351  11.553   2.152   4.007  0.4452  0.1975  0.8799
  181MOL0     C24352  10.762   2.255   4.181 -0.3208  0.0852  0.3879
  181MOL0     C24353  10.676   2.277   4.288  0.2903  0.1968  1.1598
  181MOL0     C24354  10.455   2.501   4.641 -0.1468 -0.2416  0.7993
  181MOL0     C24355  10.355   2.403   4.675 -0.1537  0.5875 -0.5118
  181MOL0     C24356  10.280   2.410   4.797 -0.0533  0.2065  0.9753
  181MOL0     C24357  10.291   2.526   4.878 -0.0403  0.1889  0.8308
  181MOL0     O24358  10.196   2.540   4.975 -0.0006  0.0690 -0.1154
  181MOL0     C24359  10.196   2.654   5.062 -0.0904  0.0059 -1.4234
  181MOL0     C24360  10.061   2.658   5.134 -0.2568 -0.3922  0.3520
  181MOL0     C24361   9.951   2.699   5.037 -0.2768 -0.4188 -0.0233
  181MOL0     C24362   9.821   2.725   5.126  0.1934 -0.6544  1.0966
  181MOL0     C24363   9.785   2.603   5.193  0.5775 -0.3958 -0.6397
  181MOL0     C24364   9.757   2.504   5.248 -0.1818 -0.6584  0.6574
  181MOL0     C24365  10.392   2.621   4.846 -0.5890  0.1217 -0.8190
  181MOL0     C24366  10.480   2.610   4.733  0.0446  0.2615  0.3004
  181MOL0     C24367  10.590   2.717   4.707 -0.6764  0.8910 -0.6630
  181MOL0     H24368  10.816   2.549   4.425  0.5986  0.7291 -0.1824
  181MOL0     H24369  10.950   2.535   4.234  1.8682  0.4506  3.2529
  181MOL0     H24370  11.111   2.424   4.081 -2.8585  0.7595 -2.7928
  181MOL0     H24371  11.100   2.276   4.168 -1.6696 -0.3014  0.1710
  181MOL0     H24372  11.242   2.244   3.973  1.2137  2.2569 -1.1857
  181MOL0     H24373  11.101   2.286   3.873 -2.5434 -0.4624 -0.0210
  181MOL0     H24374  11.151   2.040   3.864  1.9037  1.0453  2.5276
  181MOL0     H24375  10.988   2.093   3.896 -0.4187 -2.5098 -0.6085
  181MOL0     H24376  11.037   2.047   4.147  0.3129 -1.1217  0.3287
  181MOL0     H24377  11.060   1.896   4.068 -1.0901  0.6960  1.2396
  181MOL0     H24378  11.264   2.096   4.156 -0.1598  0.1156 -0.5923
  181MOL0     H24379  11.225   1.956   4.244 -1.4787  1.4896  0.6193
  181MOL0     H24380  11.268   1.810   4.025 -0.5796  2.2777 -0.0028
  181MOL0     H24381  11.346   1.924   3.953 -0.3830  2.0614  0.2131
  181MOL0     H24382  11.531   1.789   4.090  0.4129 -0.7940  0.9438
  181MOL0     H24383  11.432   1.790   4.225  2.5009 -4.7722 -1.5010
  181MOL0     H24384  11.478   2.049   4.232  1.1241 -0.6348  1.6125
  181MOL0     H24385  11.629   1.954   4.257 -0.4532  3.6693  2.5405
  181MOL0     H24386  11.775   1.914   4.021 -3.7654 -1.5070  1.3461
  181MOL0     H24387  11.830   2.004   3.752 -0.2529 -0.1879  0.0016
  181MOL0     H24388  11.844   2.185   3.744 -0.0930  0.7527 -0.0610
  181MOL0     H24389  12.018   2.198   3.875 -1.0358  0.9831 -2.2808
  181MOL0     H24390  11.997   2.032   3.945 -2.7522 -1.2203 -0.4779
  181MOL0     H24391  12.100   1.943   3.714  4.7125 -2.1055  2.4945
  181MOL0     H24392  12.195   2.035   3.826 -1.1140  0.0991  1.1882
  181MOL0     H24393  12.036   2.149   3.597  0.3117 -0.4300 -0.8729
  181MOL0     H24394  12.203   2.097   3.563 -0.4952  0.1082 -0.7489
  181MOL0     H24395  12.391   2.115   3.680  1.4277 -1.3678  2.7053
  181MOL0     H24396  12.610   2.170   3.801  0.4377 -0.8147  0.4842
  181MOL0     H24397  12.725   2.495   4.277  1.1268 -2.1181 -0.9462
  181MOL0     H24398  12.954   2.567   4.360 -1.2132  3.6122  0.9198
  181MOL0     H24399  13.190   2.511   4.297 -2.7346 -0.9945 -3.1635
  181MOL0     H24400  13.270   2.552   4.150  4.4749  0.9807  1.5262
  181MOL0     H24401  13.429   2.583   4.319 -1.8439 -1.8313 -2.0448
  181MOL0     H24402  13.400   2.726   4.224 -0.3900  1.2196  1.1000
  181MOL0     H24403  13.436   2.810   4.407  0.3928  0.0437 -0.0064
  181MOL0     H24404  13.257   2.805   4.420  0.0355  0.0231  1.0979
  181MOL0     H24405  13.444   2.601   4.552 -0.2159 -0.7852 -0.5903
  181MOL0     H24406  13.275   2.596   4.562 -0.8916  0.8379 -0.7443
  181MOL0     H24407  13.263   2.815   4.694  0.0933  3.0045 -2.2823
  181MOL0     H24408  13.434   2.843   4.644  2.8446 -2.8148 -0.3894
  181MOL0     H24409  13.352   2.652   4.862  0.9111 -3.2711 -2.0695
  181MOL0     H24410  13.499   2.637   4.771 -0.9980  0.9094 -3.0412
  181MOL0     H24411  13.404   2.892   4.905 -1.3997 -0.9131  0.4879
  181MOL0     H24412  13.558   2.862   4.824 -1.2410 -0.8189 -2.8052
  181MOL0     H24413  13.537   2.869   5.077 -1.1254  1.7695 -1.8287
  181MOL0     H24414  13.461   2.713   5.059  0.3887  1.4013  2.9914
  181MOL0     H24415  13.036   2.711   3.958 -0.0761  0.0103  0.1067
  181MOL0     H24416  12.797   2.646   3.901  0.5731 -0.1670  0.1771
  181MOL0     H24417  12.415   2.539   3.943 -3.8715  0.1038  0.6190
  181MOL0     H24418  12.210   2.457   3.823 -0.4159 -0.4206  1.1233
  181MOL0     H24419  10.751   2.166   4.120 -0.3876  0.0150  0.5028
  181MOL0     H24420  10.587   2.214   4.291 -0.6707  0.9228 -3.6058
  181MOL0     H24421  10.342   2.311   4.618  3.2491  1.2588 -2.6661
  181MOL0     H24422  10.203   2.337   4.819 -0.0348  0.8071  3.2572
  181MOL0     H24423  10.206   2.749   5.009 -1.6493  0.2128 -1.4094
  181MOL0     H24424  10.286   2.645   5.124 -2.0147 -1.1177  1.4129
  181MOL0     H24425  10.064   2.736   5.211  1.1278  0.0902 -0.1557
  181MOL0     H24426  10.038   2.565   5.186  1.6967 -0.5474  1.0257
  181MOL0     H24427   9.935   2.621   4.962 -1.7580  0.5552 -0.7673
  181MOL0     H24428   9.984   2.788   4.983  0.0230 -1.1713 -1.1233
  181MOL0     H24429   9.844   2.802   5.200  2.1104  0.0020 -0.1078
  181MOL0     H24430   9.744   2.770   5.063  2.7987  3.7370  0.5686
  181MOL0     H24431   9.725   2.408   5.284  2.4775 -1.3076  1.4944
  181MOL0     H24432  10.422   2.704   4.909 -3.2834  1.6331 -1.3459
  181MOL0     H24433  10.589   2.804   4.774  4.8395  1.7584 -1.2095
  181MOL0     H24434  10.688   2.676   4.733 -1.3427  0.1154  0.6959
  181MOL0     H24435  10.600   2.750   4.603  0.9554  0.4748 -0.6647
  182MOL0     O24436  10.851  10.792   5.324 -0.0026  0.2857 -0.1386
  182MOL0     C24437  10.857  10.912   5.311  0.9295 -0.0142 -0.3829
  182MOL0     O24438  10.975  10.994   5.323 -0.9133 -0.2506 -0.1501
  182MOL0     C24439  11.080  10.938   5.387  0.1623 -0.6239 -0.7192
  182MOL0     C24440  11.125  10.984   5.515  0.0922  0.0008 -0.4372
  182MOL0     C24441  11.234  10.929   5.579 -0.3322  0.2057  0.2995
  182MOL0     C24442  11.311  10.832   5.510 -0.5023  0.4074  0.7662
  182MOL0     O24443  11.426  10.786   5.572  0.3861  0.0482  0.1476
  182MOL0     C24444  11.545  10.771   5.486 -0.4411  0.0928 -0.1620
  182MOL0     C24445  11.673  10.808   5.559  1.8175  0.1295  0.0752
  182MOL0     C24446  11.700  10.701   5.678  0.1415 -0.0051 -0.7364
  182MOL0     C24447  11.831  10.738   5.759  1.3591  0.2937  0.6859
  182MOL0     C24448  11.900  10.618   5.825 -0.3173  0.6922 -0.2471
  182MOL0     C24449  12.047  10.660   5.855  0.2056  0.2165 -0.3943
  182MOL0     C24450  12.068  10.759   5.977  0.7136  0.2894  0.3926
  182MOL0     C24451  12.049  10.694   6.121  0.5418 -0.0913 -0.0428
  182MOL0     N24452  12.076  10.775   6.241  0.0746  0.2287  0.1203
  182MOL0     C24453  12.011  10.880   6.293  0.7732 -0.1409  0.0002
  182MOL0     C24454  12.100  10.937   6.378  0.4280  0.5251  0.3024
  182MOL0     C24455  12.087  11.084   6.418  0.5009  0.6688  0.0741
  182MOL0     C24456  12.157  11.176   6.309  0.4432  0.6404  0.7434
  182MOL0     C24457  12.301  11.194   6.332  0.6463 -0.5439  0.5450
  182MOL0     C24458  12.362  11.294   6.232  0.6395 -0.6673 -0.2620
  182MOL0     O24459  12.500  11.317   6.264 -0.0069 -0.1250  0.1712
  182MOL0     C24460  12.553  11.436   6.222 -0.0405  0.0527  0.1918
  182MOL0     C24461  12.666  11.482   6.292  0.5178  0.2528  0.0768
  182MOL0     C24462  12.717  11.604   6.251  0.0011  0.3053  0.0562
  182MOL0     C24463  12.663  11.677   6.147 -0.3500  0.1654  0.3794
  182MOL0     C24464  12.728  11.800   6.108 -0.0546  0.1836 -0.2756
  182MOL0     O24465  12.809  11.863   6.202 -0.0369  0.4306 -0.0233
  182MOL0     C24466  12.890  11.960   6.156 -0.6860 -0.8155  0.1402
  182MOL0     C24467  12.961  11.949   6.029 -0.2774 -0.2509  0.6322
  182MOL0     C24468  13.048  12.047   5.995 -0.8448 -0.0836  1.7095
  182MOL0     C24469  13.071  12.163   6.075  1.2944 -0.5886  0.8739
  182MOL0     O24470  13.163  12.261   6.039 -0.3737  0.1175  0.4404
  182MOL0     C24471  13.289  12.220   5.989  1.2247  0.0201 -0.2123
  182MOL0     C24472  13.391  12.333   6.012 -0.1722  0.1330 -0.0207
  182MOL0     C24473  13.534  12.280   5.989  0.0789 -0.3498  0.1264
  182MOL0     C24474  13.628  12.366   6.074 -0.6611  0.8288  0.3185
  182MOL0     C24475  13.774  12.306   6.054 -0.3882 -0.9707 -0.8567
  182MOL0     C24476  13.823  12.201   6.144  0.3316  0.6979  0.2199
  182MOL0     C24477  13.947  12.142   6.085 -0.8370 -1.0637  0.4952
  182MOL0     C24478  14.051  12.099   6.186 -0.0392 -0.3990 -0.3159
  182MOL0    Cl24479  14.156  12.251   6.211  0.5923 -0.1100 -0.0536
  182MOL0     C24480  12.987  12.182   6.184 -0.3098 -0.1943 -0.0962
  182MOL0     C24481  12.896  12.081   6.220 -0.3037 -0.9325  0.0161
  182MOL0     O24482  12.694  11.842   5.997 -0.1223  0.1890  0.6760
  182MOL0     C24483  12.549  11.626   6.075 -0.9137 -0.2272  0.5186
  182MOL0     C24484  12.498  11.497   6.108 -0.4826 -0.3382 -0.3034
  182MOL0     N24485  12.210  10.854   6.390  0.0652 -0.5107 -0.1807
  182MOL0     N24486  12.197  10.768   6.306 -0.2222  0.3556  0.0748
  182MOL0     C24487  11.275  10.799   5.377 -0.1398  0.4367  0.7109
  182MOL0     C24488  11.154  10.842   5.322 -0.3139 -1.4214 -0.3205
  182MOL0     C24489  10.737  10.996   5.271 -0.4085  0.0333 -1.2071
  182MOL0     C24490  10.760  11.137   5.243 -0.4149  0.1603  0.2086
  182MOL0     C24491  10.658  11.207   5.176 -0.0406  0.4079  1.1553
  182MOL0     C24492  10.531  11.154   5.155  0.5413  0.0303  0.7645
  182MOL0     O24493  10.452  11.239   5.081  0.7191 -0.0302 -0.4451
  182MOL0     C24494  10.329  11.180   5.037 -0.1168 -0.4707 -0.0597
  182MOL0     C24495  10.255  11.283   4.951 -0.1304 -0.0186  0.2713
  182MOL0     C24496  10.256  11.426   5.002 -0.7794 -0.5464 -0.5522
  182MOL0     C24497  10.155  11.521   4.924 -0.7621 -0.2384  0.5814
  182MOL0     C24498  10.152  11.514   4.771  0.3891  1.1477 -0.1694
  182MOL0     C24499  10.142  11.512   4.649 -0.4602 -0.3657 -0.3339
  182MOL0     C24500  10.505  11.028   5.208 -0.2099  0.6583 -0.0494
  182MOL0     C24501  10.605  10.939   5.256 -0.4821  0.4334 -0.1139
  182MOL0     C24502  10.562  10.798   5.277  0.4597  0.0169 -0.1677
  182MOL0     H24503  11.067  11.061   5.565 -0.4148  0.2709 -1.4230
  182MOL0     H24504  11.274  10.964   5.674  4.0076 -0.5280 -1.0244
  182MOL0     H24505  11.560  10.667   5.455 -0.0198 -0.3807  1.5272
  182MOL0     H24506  11.545  10.834   5.397  0.5512  1.4346  0.7554
  182MOL0     H24507  11.663  10.911   5.594 -0.0443  0.2457 -0.6762
  182MOL0     H24508  11.758  10.822   5.491  2.7372 -0.2823  1.1214
  182MOL0     H24509  11.700  10.600   5.635  0.9674  0.0353 -0.8378
  182MOL0     H24510  11.605  10.708   5.733 -0.3791  2.0304 -1.7940
  182MOL0     H24511  11.901  10.766   5.680 -0.4573 -0.6578 -1.3567
  182MOL0     H24512  11.816  10.819   5.832  0.2910  1.5154 -0.8192
  182MOL0     H24513  11.849  10.582   5.914 -0.4703 -1.2920 -1.0955
  182MOL0     H24514  11.913  10.534   5.756  2.1855  1.4333 -0.7994
  182MOL0     H24515  12.103  10.569   5.879 -0.9933 -0.2780  0.5902
  182MOL0     H24516  12.092  10.708   5.767 -0.9924  1.2746 -0.4595
  182MOL0     H24517  11.998  10.843   5.972  0.7113  0.5353  3.1135
  182MOL0     H24518  12.173  10.791   5.974  1.0371 -0.6157 -3.3488
  182MOL0     H24519  11.944  10.667   6.139 -0.0585  3.0137  1.7620
  182MOL0     H24520  12.100  10.597   6.124 -2.4068 -1.8862  4.7474
  182MOL0     H24521  11.918  10.929   6.267  0.3837 -0.4891  0.7425
  182MOL0     H24522  11.983  11.114   6.436 -0.7110 -2.9465 -0.2167
  182MOL0     H24523  12.142  11.097   6.512 -1.5709  2.7892  1.0978
  182MOL0     H24524  12.140  11.124   6.214  0.9004  0.1260  0.9378
  182MOL0     H24525  12.108  11.274   6.311 -0.0477  0.4040  2.6369
  182MOL0     H24526  12.357  11.100   6.330  0.0648 -0.9298  1.5081
  182MOL0     H24527  12.313  11.238   6.432 -0.5680  1.3114 -0.0698
  182MOL0     H24528  12.308  11.388   6.242  0.2206 -0.9450  0.1391
  182MOL0     H24529  12.348  11.259   6.129 -0.4266  2.4031 -1.2590
  182MOL0     H24530  12.712  11.431   6.376 -1.5969  1.0389  1.7939
  182MOL0     H24531  12.798  11.648   6.308  0.3798 -1.2753  0.8043
  182MOL0     H24532  12.931  11.873   5.957 -2.9983  1.1572  0.1438
  182MOL0     H24533  13.110  12.027   5.908 -0.4181 -0.5400  2.1225
  182MOL0     H24534  13.320  12.121   6.023  1.1734  1.4175  4.6298
  182MOL0     H24535  13.289  12.203   5.881  2.2989 -1.2740 -0.0345
  182MOL0     H24536  13.375  12.400   5.927  0.7681 -1.4038 -1.4686
  182MOL0     H24537  13.389  12.378   6.112  2.3549 -2.2114  1.2355
  182MOL0     H24538  13.542  12.176   6.022  2.4252 -0.0801  0.6342
  182MOL0     H24539  13.550  12.301   5.882 -0.3221  3.3283  0.6535
  182MOL0     H24540  13.611  12.358   6.182  1.2884 -0.9972  0.5777
  182MOL0     H24541  13.618  12.471   6.045 -0.6675  0.2654 -1.9287
  182MOL0     H24542  13.842  12.392   6.065  0.3566 -1.0299 -4.0182
  182MOL0     H24543  13.786  12.267   5.953  1.0870 -1.1293 -0.6415
  182MOL0     H24544  13.839  12.228   6.249 -0.3172 -3.5216  1.5663
  182MOL0     H24545  13.754  12.117   6.151  2.0724 -0.7318  1.0995
  182MOL0     H24546  13.999  12.210   6.018 -0.9183 -0.1161  1.3630
  182MOL0     H24547  13.924  12.052   6.028  1.0419 -1.4774  0.3329
  182MOL0     H24548  14.006  12.067   6.280 -0.7378  1.4370  0.0117
  182MOL0     H24549  14.117  12.016   6.158  0.3377 -0.0089 -0.6052
  182MOL0     H24550  12.989  12.261   6.259  3.4756 -1.2785  1.1586
  182MOL0     H24551  12.822  12.091   6.299  2.2292 -3.5276  3.0281
  182MOL0     H24552  12.493  11.652   5.985 -0.1358 -1.2566 -0.2876
  182MOL0     H24553  12.422  11.449   6.047  0.6780 -1.4566 -0.9262
  182MOL0     H24554  11.338  10.737   5.313 -1.1403 -0.2865  0.4027
  182MOL0     H24555  11.120  10.815   5.222 -1.1767 -0.5780 -0.2603
  182MOL0     H24556  10.847  11.200   5.258 -1.0769  1.3180 -0.7030
  182MOL0     H24557  10.683  11.308   5.145 -0.2136  0.3299  0.7570
  182MOL0     H24558  10.265  11.149   5.120  1.3336 -0.6116  1.0483
  182MOL0     H24559  10.344  11.091   4.975  0.7440 -0.6689  0.4058
  182MOL0     H24560  10.152  11.251   4.933 -0.0143  0.2697 -0.9859
  182MOL0     H24561  10.297  11.281   4.850  0.3492 -1.7989  0.4794
  182MOL0     H24562  10.357  11.466   4.984 -0.9432 -0.6385 -1.8089
  182MOL0     H24563  10.233  11.428   5.109  0.5422  1.1454 -0.2337
  182MOL0     H24564  10.054  11.498   4.960 -0.3135 -3.1141  0.2150
  182MOL0     H24565  10.179  11.628   4.930 -2.2687  0.2052 -0.4691
  182MOL0     H24566  10.126  11.512   4.543 -2.5419  0.5889 -0.0844
  182MOL0     H24567  10.412  10.973   5.195  0.5403 -0.9089  0.9517
  182MOL0     H24568  10.585  10.777   5.382 -1.4723  2.0780  0.7369
  182MOL0     H24569  10.457  10.783   5.250 -0.2029  1.5016  1.4237
  182MOL0     H24570  10.619  10.729   5.214 -0.8441 -0.5950 -0.6869
  183MOL0     O24571  10.516   3.526   0.929  0.2194  0.5297  0.2266
  183MOL0     C24572  10.498   3.423   0.862  0.7319  0.7637  0.1351
  183MOL0     O24573  10.588   3.365   0.773  0.2882  0.0190  0.2222
  183MOL0     C24574  10.712   3.417   0.735 -0.2179 -0.4757 -0.1456
  183MOL0     C24575  10.804   3.325   0.686 -0.8421  0.8076  0.3594
  183MOL0     C24576  10.939   3.353   0.657 -0.2527  0.3824  0.4156
  183MOL0     C24577  10.985   3.489   0.674  0.2344  0.1496  0.2818
  183MOL0     O24578  11.115   3.533   0.656  0.7910 -0.8868  0.0528
  183MOL0     C24579  11.203   3.462   0.745 -0.3991  0.1120  0.1905
  183MOL0     C24580  11.346   3.524   0.753  0.7371 -0.5155  0.5754
  183MOL0     C24581  11.408   3.575   0.622  1.0342 -0.3238 -0.8204
  183MOL0     C24582  11.557   3.579   0.614 -0.2482 -0.1961  0.3970
  183MOL0     C24583  11.625   3.693   0.528  0.3602 -0.4113  0.3151
  183MOL0     C24584  11.610   3.670   0.380  0.2577  0.3792 -0.1327
  183MOL0     C24585  11.709   3.764   0.302  0.7312  0.6406 -0.1353
  183MOL0     C24586  11.712   3.717   0.151 -0.3338 -0.2779 -0.3250
  183MOL0     N24587  11.813   3.789   0.081  0.2605 -0.5360 -0.2396
  183MOL0     C24588  11.942   3.740   0.071  0.2377  0.6339 -0.0091
  183MOL0     C24589  12.006   3.845   0.003 -0.2758  0.1582 -0.3342
  183MOL0     C24590  12.162   3.846  -0.019  0.9083  0.4162  0.2835
  183MOL0     C24591  12.231   3.895   0.110 -0.0875 -0.2848  0.0204
  183MOL0     C24592  12.186   4.027   0.163  0.6326 -0.1784  0.1242
  183MOL0     C24593  12.310   4.104   0.209  0.6917 -0.6661 -0.2030
  183MOL0     O24594  12.368   4.031   0.314  0.3157 -0.0432  0.2248
  183MOL0     C24595  12.468   4.085   0.392  0.3765 -0.4832 -0.1251
  183MOL0     C24596  12.502   4.027   0.511 -0.2087  0.6290  0.2662
  183MOL0     C24597  12.605   4.080   0.589 -0.3069 -0.1636  0.0756
  183MOL0     C24598  12.674   4.205   0.558  0.7423  0.4336 -0.5168
  183MOL0     C24599  12.776   4.267   0.648  0.2640 -0.1384 -0.4162
  183MOL0     O24600  12.848   4.370   0.592  0.1037 -0.1931 -0.4403
  183MOL0     C24601  12.953   4.417   0.668 -1.1966 -0.6189  0.6872
  183MOL0     C24602  13.068   4.343   0.708 -1.1500  0.0148 -0.2634
  183MOL0     C24603  13.171   4.399   0.785 -0.5594  0.0904  0.0584
  183MOL0     C24604  13.156   4.530   0.831  0.2719  0.7879 -0.4039
  183MOL0     O24605  13.242   4.592   0.915  0.1615  0.3017 -0.0481
  183MOL0     C24606  13.378   4.551   0.908  0.0782 -0.8097 -0.0296
  183MOL0     C24607  13.465   4.648   0.994 -0.7034 -0.2708 -0.2519
  183MOL0     C24608  13.461   4.793   0.942 -0.4114  0.1159 -0.0667
  183MOL0     C24609  13.570   4.876   1.000 -0.5652 -0.9431 -0.2703
  183MOL0     C24610  13.573   5.013   0.928  0.6116  0.7952 -0.1087
  183MOL0     C24611  13.692   5.097   0.955  0.0317 -0.2820 -1.0829
  183MOL0     C24612  13.694   5.235   0.879 -0.4034  0.2924 -0.1445
  183MOL0     C24613  13.833   5.299   0.874 -0.4934 -0.4143 -0.7065
  183MOL0    Cl24614  13.883   5.365   1.046 -0.1716  0.0765  0.3779
  183MOL0     C24615  13.047   4.604   0.798  0.2010 -0.0257 -0.6094
  183MOL0     C24616  12.945   4.545   0.720  0.0804 -0.5222 -0.3224
  183MOL0     O24617  12.796   4.212   0.764  0.1541  0.0192 -0.5800
  183MOL0     C24618  12.627   4.266   0.445 -0.1796 -0.6944  1.1174
  183MOL0     C24619  12.521   4.221   0.373  0.3637 -0.5110 -0.1300
  183MOL0     N24620  11.917   3.942  -0.032  0.7437 -0.0718 -0.2901
  183MOL0     N24621  11.798   3.907   0.017  0.5481  0.6111 -0.3252
  183MOL0     C24622  10.894   3.579   0.725 -0.7446 -0.1365  0.1080
  183MOL0     C24623  10.760   3.547   0.747  0.6416 -0.3340 -0.7526
  183MOL0     C24624  10.363   3.352   0.868 -0.4711 -0.1940  0.3127
  183MOL0     C24625  10.283   3.382   0.980 -0.2928  0.4549 -0.0262
  183MOL0     C24626  10.154   3.323   0.995  0.4650 -0.3716  0.5032
  183MOL0     C24627  10.101   3.238   0.898  0.5196 -0.8105 -0.2235
  183MOL0     O24628   9.976   3.187   0.913 -0.0829  0.4488 -0.3478
  183MOL0     C24629   9.883   3.209   0.802 -0.4845  0.0015  0.3653
  183MOL0     C24630   9.736   3.185   0.838  0.8913  0.0459 -0.4492
  183MOL0     C24631   9.684   3.278   0.949  0.2618  0.2625 -1.1829
  183MOL0     C24632   9.526   3.269   0.950 -0.2033  0.0831 -0.3797
  183MOL0     C24633   9.465   3.328   0.832 -0.3178  0.4840  0.6437
  183MOL0     C24634   9.405   3.381   0.738  0.4146 -0.5187 -0.1883
  183MOL0     C24635  10.184   3.209   0.788 -0.2603 -0.5349 -0.2827
  183MOL0     C24636  10.310   3.262   0.771 -0.9489 -0.4540  0.0857
  183MOL0     C24637  10.384   3.212   0.643  0.4593 -0.0184 -0.1908
  183MOL0     H24638  10.776   3.222   0.669 -1.3202  1.0547 -0.4194
  183MOL0     H24639  10.998   3.274   0.612  0.2498  0.8456  0.2505
  183MOL0     H24640  11.158   3.465   0.845 -2.9205  4.0276 -0.8168
  183MOL0     H24641  11.214   3.359   0.712  0.6781  0.3665 -0.2793
  183MOL0     H24642  11.414   3.453   0.801  1.3484  0.3643  1.0345
  183MOL0     H24643  11.343   3.612   0.818 -0.9188 -0.9346  1.1248
  183MOL0     H24644  11.371   3.677   0.606  0.3627 -0.9050 -3.3793
  183MOL0     H24645  11.371   3.517   0.537  0.9206  1.4860 -2.0769
  183MOL0     H24646  11.593   3.598   0.716 -0.7309  0.7800  0.3959
  183MOL0     H24647  11.597   3.480   0.586 -1.1201 -0.4516  0.0381
  183MOL0     H24648  11.579   3.790   0.552  3.0729  1.2359 -0.7051
  183MOL0     H24649  11.729   3.704   0.558  0.6107 -0.8817 -0.3424
  183MOL0     H24650  11.646   3.571   0.350  1.8326  1.1181 -0.8021
  183MOL0     H24651  11.506   3.680   0.347  0.2522  1.0074  0.0522
  183MOL0     H24652  11.805   3.767   0.355  0.4333  4.0063  0.4351
  183MOL0     H24653  11.673   3.867   0.301  1.4788  0.9116 -0.4760
  183MOL0     H24654  11.721   3.608   0.153  0.9652 -0.1929  1.6300
  183MOL0     H24655  11.618   3.745   0.103  0.0302 -1.5797 -1.8760
  183MOL0     H24656  11.988   3.648   0.105 -0.1003 -0.9452 -3.4084
  183MOL0     H24657  12.201   3.747  -0.047  1.4327 -0.0236  2.3841
  183MOL0     H24658  12.190   3.915  -0.100  0.8235 -1.4492 -1.4250
  183MOL0     H24659  12.224   3.822   0.191  0.2348  2.4976  2.7107
  183MOL0     H24660  12.333   3.890   0.071 -0.3477 -1.7345 -0.5545
  183MOL0     H24661  12.124   4.002   0.249  1.6153  1.6586  1.4169
  183MOL0     H24662  12.132   4.086   0.089  2.1026  1.9395  0.6519
  183MOL0     H24663  12.272   4.197   0.251 -2.1354 -0.8503 -2.0459
  183MOL0     H24664  12.375   4.123   0.123  0.2660  0.2330 -0.3349
  183MOL0     H24665  12.463   3.933   0.549 -0.0411  1.0078  1.4148
  183MOL0     H24666  12.617   4.021   0.679 -1.2088 -2.1775 -1.0409
  183MOL0     H24667  13.078   4.253   0.648  2.1944  1.7915 -2.7177
  183MOL0     H24668  13.259   4.343   0.812  0.2226  1.9747  1.6733
  183MOL0     H24669  13.391   4.450   0.946  2.6541  0.0304  1.6257
  183MOL0     H24670  13.404   4.556   0.802 -2.6214  0.0075 -0.7480
  183MOL0     H24671  13.434   4.638   1.099 -0.0962  1.0643  0.0853
  183MOL0     H24672  13.570   4.621   0.986 -0.2283  1.6774 -1.2403
  183MOL0     H24673  13.486   4.780   0.836 -0.6603 -0.4345 -0.0619
  183MOL0     H24674  13.363   4.841   0.951 -1.9401 -3.0244  2.0314
  183MOL0     H24675  13.666   4.827   0.985  0.6478  1.5627 -1.1453
  183MOL0     H24676  13.566   4.882   1.110 -0.4511  0.8126 -0.3439
  183MOL0     H24677  13.484   5.071   0.955  0.0373  0.3710 -1.0239
  183MOL0     H24678  13.561   5.000   0.820 -1.4780 -1.5697  0.3170
  183MOL0     H24679  13.700   5.118   1.062  0.1301  1.2267 -1.3551
  183MOL0     H24680  13.780   5.038   0.929  0.1594 -0.1356 -0.9891
  183MOL0     H24681  13.627   5.296   0.940  1.9927  0.4478  2.5341
  183MOL0     H24682  13.649   5.229   0.779  0.7450  0.0093 -0.6630
  183MOL0     H24683  13.904   5.224   0.838 -0.3496  0.2404 -1.8096
  183MOL0     H24684  13.829   5.377   0.798  1.6720 -0.4078 -0.8792
  183MOL0     H24685  13.031   4.703   0.840 -0.3804 -0.4774  0.2734
  183MOL0     H24686  12.860   4.605   0.688  0.7732  1.1390  0.7994
  183MOL0     H24687  12.690   4.348   0.411 -0.9284 -1.0792 -1.3576
  183MOL0     H24688  12.488   4.285   0.291  0.2754 -1.9887 -1.3036
  183MOL0     H24689  10.938   3.676   0.746  2.3260 -1.6458  1.1539
  183MOL0     H24690  10.692   3.618   0.793  1.6882 -0.8556  1.7700
  183MOL0     H24691  10.322   3.456   1.049  0.8256  0.9747 -1.1713
  183MOL0     H24692  10.086   3.345   1.077  0.8397  0.7053  0.5343
  183MOL0     H24693   9.899   3.134   0.724 -2.2534 -0.9875  0.9041
  183MOL0     H24694   9.898   3.311   0.766  1.5276 -0.0037  1.0404
  183MOL0     H24695   9.729   3.082   0.875  0.2098  0.9451  2.0973
  183MOL0     H24696   9.676   3.196   0.747 -0.7557 -0.5160  0.5230
  183MOL0     H24697   9.711   3.382   0.926  2.5259 -0.2594 -1.1218
  183MOL0     H24698   9.719   3.249   1.048 -5.2753  0.9517  1.3616
  183MOL0     H24699   9.504   3.162   0.959 -0.9345  0.2277 -0.3724
  183MOL0     H24700   9.487   3.312   1.043 -0.1253  0.7890 -0.6665
  183MOL0     H24701   9.348   3.437   0.666  0.8678 -0.2250 -0.3264
  183MOL0     H24702  10.137   3.137   0.722  0.8567 -2.3713  0.8662
  183MOL0     H24703  10.408   3.303   0.588 -0.4276  1.4100  1.6872
  183MOL0     H24704  10.477   3.167   0.678  0.3559 -0.8075 -0.8891
  183MOL0     H24705  10.331   3.144   0.575  0.5239  2.6906 -3.2169
  184MOL0     O24706   7.465   8.140   0.106 -0.7257 -0.9946 -0.6213
  184MOL0     C24707   7.439   8.259   0.079  0.1536  0.6320 -0.1340
  184MOL0     O24708   7.519   8.356   0.031 -0.2313  0.5745  0.6100
  184MOL0     C24709   7.662   8.349   0.059  0.6784  0.2499 -0.0839
  184MOL0     C24710   7.732   8.239   0.031  0.4057 -0.2467 -0.6070
  184MOL0     C24711   7.876   8.236   0.042  0.1037 -0.4122  0.7080
  184MOL0     C24712   7.940   8.364   0.071  0.8854 -0.0372 -0.3023
  184MOL0     O24713   8.070   8.389   0.074 -0.1223  0.1143 -0.3930
  184MOL0     C24714   8.144   8.337  -0.034  0.1744 -0.3209 -0.2550
  184MOL0     C24715   8.247   8.437  -0.083 -0.2457 -0.1774 -0.4124
  184MOL0     C24716   8.374   8.361  -0.143 -0.1178  0.2643  0.0806
  184MOL0     C24717   8.481   8.455  -0.199  0.7698 -0.1069 -0.0849
  184MOL0     C24718   8.603   8.378  -0.261 -0.0052  0.1147  1.3111
  184MOL0     C24719   8.734   8.464  -0.257 -0.3823 -0.3596  0.2392
  184MOL0     C24720   8.850   8.387  -0.308  0.9040 -0.6614  0.6109
  184MOL0     C24721   8.966   8.478  -0.333  0.5875  0.2238 -0.6395
  184MOL0     N24722   9.026   8.526  -0.198  0.3657  0.6125  0.9317
  184MOL0     C24723   9.132   8.469  -0.131  0.7058 -1.0001  0.4467
  184MOL0     C24724   9.162   8.550  -0.033 -0.1196 -0.7006 -0.1503
  184MOL0     C24725   9.278   8.547   0.062  0.0315 -0.3154  0.0069
  184MOL0     C24726   9.415   8.583  -0.007  0.0285  0.1787 -0.0820
  184MOL0     C24727   9.523   8.634   0.101  0.2717  0.0022  0.0253
  184MOL0     C24728   9.656   8.570   0.070 -0.9815 -0.1374 -0.2883
  184MOL0     O24729   9.768   8.628   0.149  0.7849  0.3983  0.7364
  184MOL0     C24730   9.838   8.740   0.100  0.2733  0.3996 -0.4113
  184MOL0     C24731   9.810   8.812  -0.014  0.6431 -0.2868  0.2784
  184MOL0     C24732   9.883   8.929  -0.062  0.1496  0.1649 -0.5574
  184MOL0     C24733  10.007   8.952   0.012  0.2007  1.0273 -0.4185
  184MOL0     C24734  10.104   9.046  -0.054  0.5783 -0.4416  0.4951
  184MOL0     O24735  10.229   9.058  -0.003  0.0439  0.5817  0.2992
  184MOL0     C24736  10.338   9.106  -0.074 -0.6264 -0.1817 -1.2057
  184MOL0     C24737  10.352   9.140  -0.209  1.0776 -0.2575 -0.9032
  184MOL0     C24738  10.474   9.189  -0.263 -0.4910  1.3631 -0.1129
  184MOL0     C24739  10.592   9.186  -0.187 -0.8832  0.1620 -0.0714
  184MOL0     O24740  10.709   9.229  -0.243  0.8285  0.1300 -0.6268
  184MOL0     C24741  10.821   9.160  -0.193 -0.7994  0.4268  0.3399
  184MOL0     C24742  10.944   9.169  -0.289  0.0524 -0.4565  0.0067
  184MOL0     C24743  11.074   9.116  -0.215 -0.1579  0.2652  0.2744
  184MOL0     C24744  11.185   9.086  -0.310  0.4174  0.1090  0.9850
  184MOL0     C24745  11.319   9.114  -0.242 -0.1896  0.3293  0.0971
  184MOL0     C24746  11.431   9.034  -0.321  0.5526  0.3019 -0.6431
  184MOL0     C24747  11.570   9.068  -0.261 -0.2140  0.1640  0.0994
  184MOL0     C24748  11.677   8.976  -0.321  0.5849 -0.3655 -0.0406
  184MOL0    Cl24749  11.841   9.037  -0.282 -0.0679  0.4188  0.1176
  184MOL0     C24750  10.578   9.131  -0.061  0.2861  1.1067  0.3537
  184MOL0     C24751  10.454   9.112   0.005  0.5369  0.9975  0.0541
  184MOL0     O24752  10.060   9.099  -0.158  0.6026  0.1515 -0.1540
  184MOL0     C24753  10.037   8.863   0.122  0.4515 -0.3090  0.4038
  184MOL0     C24754   9.953   8.764   0.170 -0.3338 -0.2693  0.1331
  184MOL0     N24755   9.072   8.652  -0.043 -0.7933 -0.2815  0.3144
  184MOL0     N24756   9.001   8.648  -0.146 -0.1649 -0.6622  1.6785
  184MOL0     C24757   7.864   8.476   0.098 -1.3856  0.0317  0.2140
  184MOL0     C24758   7.727   8.470   0.086 -0.2475 -0.2659 -0.6070
  184MOL0     C24759   7.291   8.294   0.064 -0.5896 -0.4512 -0.2695
  184MOL0     C24760   7.204   8.184   0.055 -0.4083 -0.3217  0.6188
  184MOL0     C24761   7.064   8.194   0.037 -0.6551 -0.4419  0.9287
  184MOL0     C24762   7.005   8.320   0.021 -0.7932 -0.8808 -0.0638
  184MOL0     O24763   6.865   8.334   0.005 -0.2924 -0.8672 -0.6173
  184MOL0     C24764   6.790   8.453   0.040 -0.3172 -0.5270 -0.4862
  184MOL0     C24765   6.643   8.438   0.053 -0.3879 -0.4454  0.3988
  184MOL0     C24766   6.573   8.448  -0.079 -0.2075  0.0000 -0.7372
  184MOL0     C24767   6.431   8.387  -0.062 -0.7941  0.8981 -0.4004
  184MOL0     C24768   6.365   8.358  -0.189  0.0193  0.4009 -0.0863
  184MOL0     C24769   6.305   8.342  -0.292  0.2511 -1.1709  0.1878
  184MOL0     C24770   7.086   8.435   0.036 -0.5361  0.2925  0.1140
  184MOL0     C24771   7.228   8.430   0.054  0.0418 -0.5416 -0.7185
  184MOL0     C24772   7.297   8.576   0.050 -0.1835  0.4715  0.1363
  184MOL0     H24773   7.682   8.152  -0.010 -0.5818  1.0073 -2.1724
  184MOL0     H24774   7.935   8.149   0.014 -2.5439 -2.7258  1.7819
  184MOL0     H24775   8.193   8.247   0.003 -1.4549 -1.4957 -0.8142
  184MOL0     H24776   8.082   8.306  -0.119  1.1639 -3.3797  0.0378
  184MOL0     H24777   8.276   8.499   0.003  2.1833  0.5585 -1.6698
  184MOL0     H24778   8.201   8.495  -0.163  0.7208 -0.0343 -0.8722
  184MOL0     H24779   8.346   8.282  -0.213 -0.3638  1.0056 -0.6753
  184MOL0     H24780   8.427   8.310  -0.062  0.7991  0.0265 -0.6495
  184MOL0     H24781   8.433   8.517  -0.275 -1.2359 -1.7710 -0.2783
  184MOL0     H24782   8.511   8.532  -0.128 -0.9148  0.3041  0.2160
  184MOL0     H24783   8.613   8.285  -0.205 -1.8127 -1.6397 -1.0962
  184MOL0     H24784   8.574   8.361  -0.365 -1.2473  1.8515  1.3284
  184MOL0     H24785   8.713   8.544  -0.328 -3.1081 -0.6278  0.6371
  184MOL0     H24786   8.759   8.496  -0.155  1.1611 -2.3750  0.5689
  184MOL0     H24787   8.818   8.351  -0.407 -0.1005  0.5254  0.4786
  184MOL0     H24788   8.872   8.307  -0.237 -0.9467 -1.3527  0.4624
  184MOL0     H24789   9.034   8.409  -0.385  0.0205 -0.8804  0.0507
  184MOL0     H24790   8.944   8.569  -0.390  0.0015 -0.9185 -2.3439
  184MOL0     H24791   9.190   8.382  -0.158  1.9133 -0.2836  0.6543
  184MOL0     H24792   9.274   8.620   0.144  0.2734 -1.8380  1.4075
  184MOL0     H24793   9.282   8.453   0.117 -1.9278  1.3300  3.2943
  184MOL0     H24794   9.456   8.500  -0.065  0.8067  1.6812 -1.8052
  184MOL0     H24795   9.397   8.664  -0.079  0.0373  1.2500  1.0975
  184MOL0     H24796   9.497   8.620   0.206  2.2494 -1.4392  0.3666
  184MOL0     H24797   9.536   8.741   0.082 -1.9239  0.3461  0.1697
  184MOL0     H24798   9.690   8.588  -0.032 -0.0613  2.0839  0.3599
  184MOL0     H24799   9.647   8.463   0.092 -0.2596  0.0549  1.0736
  184MOL0     H24800   9.719   8.788  -0.068  0.0932 -1.2882  1.6008
  184MOL0     H24801   9.841   8.968  -0.154 -1.4980 -0.2604 -0.0136
  184MOL0     H24802  10.272   9.122  -0.280  0.4942 -0.2854 -0.2544
  184MOL0     H24803  10.481   9.222  -0.366  0.6193 -1.6711 -1.1303
  184MOL0     H24804  10.842   9.204  -0.095  0.7458  0.6343 -0.0580
  184MOL0     H24805  10.804   9.053  -0.177  0.8256 -0.9494 -5.1084
  184MOL0     H24806  10.924   9.105  -0.375 -1.0901 -1.8369  1.2187
  184MOL0     H24807  10.954   9.274  -0.317  0.3169  0.0591  1.9024
  184MOL0     H24808  11.088   9.200  -0.146 -2.2081  2.4008 -1.7081
  184MOL0     H24809  11.055   9.032  -0.149 -1.0139  2.8045  3.5484
  184MOL0     H24810  11.180   9.139  -0.406  0.4525 -1.1526  0.2689
  184MOL0     H24811  11.180   8.979  -0.332  2.0097 -0.2604  2.2485
  184MOL0     H24812  11.312   9.090  -0.135 -1.5586 -0.6305 -0.1841
  184MOL0     H24813  11.340   9.221  -0.256  2.9646 -0.3781 -1.3464
  184MOL0     H24814  11.413   8.927  -0.314  0.4322  0.4434  2.1390
  184MOL0     H24815  11.425   9.056  -0.428 -3.7150 -1.5719 -0.9818
  184MOL0     H24816  11.562   9.059  -0.152  2.3248  0.0803  0.3537
  184MOL0     H24817  11.588   9.173  -0.286  1.0162 -0.1838 -0.5526
  184MOL0     H24818  11.663   8.874  -0.284 -1.5218 -0.3668 -0.7530
  184MOL0     H24819  11.667   8.980  -0.430 -1.3949  5.7907 -0.0249
  184MOL0     H24820  10.669   9.114  -0.004 -0.4572 -2.7017  0.6639
  184MOL0     H24821  10.461   9.072   0.105 -1.3483 -1.0243 -0.5550
  184MOL0     H24822  10.131   8.885   0.172  0.4594 -0.6264  0.5276
  184MOL0     H24823   9.991   8.707   0.254 -2.5720 -1.3157  0.4974
  184MOL0     H24824   7.898   8.576   0.121 -1.3498  0.1151 -0.1920
  184MOL0     H24825   7.671   8.563   0.093  0.9059  0.5927 -2.1199
  184MOL0     H24826   7.239   8.082   0.073 -1.3492 -1.0752 -1.4874
  184MOL0     H24827   6.999   8.108   0.040 -1.2056 -0.0586  0.1394
  184MOL0     H24828   6.825   8.538  -0.019  2.4764 -1.6366 -0.5752
  184MOL0     H24829   6.822   8.486   0.139 -1.2681 -1.6341  0.2085
  184MOL0     H24830   6.609   8.521   0.115 -4.1271 -0.9430 -0.7429
  184MOL0     H24831   6.627   8.348   0.113 -0.1575 -1.1742 -0.6014
  184MOL0     H24832   6.629   8.389  -0.153  1.2098 -0.0942  0.3824
  184MOL0     H24833   6.565   8.553  -0.109 -0.7639  0.2290  0.1736
  184MOL0     H24834   6.444   8.296  -0.002 -2.8512  0.9122  0.1450
  184MOL0     H24835   6.376   8.459  -0.000  1.3567 -0.2275  3.1329
  184MOL0     H24836   6.246   8.338  -0.381  0.2357 -0.7976  0.1810
  184MOL0     H24837   7.044   8.534   0.018 -0.9146  0.1470  0.1847
  184MOL0     H24838   7.389   8.574  -0.008  0.3449  0.0996  0.9678
  184MOL0     H24839   7.233   8.660   0.023 -0.5568  0.1464 -0.0063
  184MOL0     H24840   7.323   8.604   0.153  0.5289  0.3226  0.0005
  185MOL0     O24841   4.709   6.331   9.210 -0.3411 -0.3412 -0.2238
  185MOL0     C24842   4.718   6.223   9.268  0.8064 -0.0815  0.1053
  185MOL0     O24843   4.826   6.165   9.332  0.0813  0.0223  0.3622
  185MOL0     C24844   4.933   6.235   9.369  0.2767 -1.3934 -0.2514
  185MOL0     C24845   4.938   6.267   9.500 -0.1352 -0.3494  0.1734
  185MOL0     C24846   5.054   6.329   9.552  0.3519  0.3694 -1.4280
  185MOL0     C24847   5.157   6.376   9.472 -0.0122 -0.2667  0.4644
  185MOL0     O24848   5.259   6.446   9.525  1.0176 -0.1298  0.9257
  185MOL0     C24849   5.343   6.363   9.610 -0.5163  0.1446  0.3760
  185MOL0     C24850   5.474   6.440   9.622  0.0909  0.5004 -0.1885
  185MOL0     C24851   5.555   6.409   9.493 -0.1686  0.4716  0.3446
  185MOL0     C24852   5.671   6.306   9.505  0.5774 -0.6064 -0.0383
  185MOL0     C24853   5.740   6.273   9.374 -0.4466 -0.5057  0.0234
  185MOL0     C24854   5.865   6.189   9.416  0.1889  0.3385  0.3964
  185MOL0     C24855   5.920   6.120   9.289 -0.4337 -0.4554  0.2159
  185MOL0     C24856   6.043   6.042   9.309 -0.6621  0.1090  0.0355
  185MOL0     N24857   6.163   6.130   9.339 -0.0675 -0.6871 -0.4601
  185MOL0     C24858   6.204   6.233   9.255  0.1117 -0.1191  0.2655
  185MOL0     C24859   6.305   6.285   9.329 -0.0326 -0.7236  0.1864
  185MOL0     C24860   6.393   6.408   9.299 -0.2103  0.1216 -0.0717
  185MOL0     C24861   6.475   6.395   9.183 -0.0109 -1.4607 -0.0355
  185MOL0     C24862   6.554   6.527   9.165 -0.9936  0.3360  0.2882
  185MOL0     C24863   6.685   6.543   9.250 -0.3151  0.2361  0.8103
  185MOL0     O24864   6.770   6.658   9.210 -0.7979  0.1031 -0.0913
  185MOL0     C24865   6.893   6.686   9.277 -0.6734  0.2605  0.4929
  185MOL0     C24866   6.998   6.732   9.203  0.1008  0.0061  0.1708
  185MOL0     C24867   7.124   6.751   9.257  0.4577 -1.1333  0.7088
  185MOL0     C24868   7.150   6.709   9.386  0.3596  0.2602 -0.6580
  185MOL0     C24869   7.283   6.741   9.451  0.8674 -0.5713 -0.3184
  185MOL0     O24870   7.313   6.675   9.570 -0.3042  0.6126 -0.0200
  185MOL0     C24871   7.434   6.709   9.622  0.7405 -0.3629  0.5125
  185MOL0     C24872   7.428   6.794   9.728 -0.8455  0.6718  0.8886
  185MOL0     C24873   7.549   6.859   9.765  0.9911  0.3657 -0.0558
  185MOL0     C24874   7.676   6.841   9.700 -0.0872  0.2680 -0.2004
  185MOL0     O24875   7.796   6.890   9.750  1.1464  0.2211 -0.4383
  185MOL0     C24876   7.925   6.834   9.712  0.3548  0.0921  0.0728
  185MOL0     C24877   8.039   6.936   9.756  0.0064  0.5961  0.4595
  185MOL0     C24878   8.179   6.904   9.692 -0.6759  0.4196 -0.1755
  185MOL0     C24879   8.288   7.001   9.740 -0.4676 -0.0765  0.5661
  185MOL0     C24880   8.406   6.988   9.651 -0.0200 -0.2944 -0.2785
  185MOL0     C24881   8.534   7.031   9.713 -0.4399 -0.6019  0.1849
  185MOL0     C24882   8.543   7.177   9.736 -0.0092 -0.3968  0.3466
  185MOL0     C24883   8.678   7.210   9.805  0.3496  0.2891  0.3835
  185MOL0    Cl24884   8.822   7.181   9.702 -0.3723  0.2591 -0.1558
  185MOL0     C24885   7.678   6.752   9.591  0.4990  0.2421 -0.3726
  185MOL0     C24886   7.565   6.682   9.555  0.4170 -0.3520 -0.2322
  185MOL0     O24887   7.358   6.820   9.398  0.2905 -0.3213 -0.0650
  185MOL0     C24888   7.051   6.642   9.461 -0.1439  0.0836  0.4457
  185MOL0     C24889   6.916   6.640   9.407 -0.1018 -0.2844  0.1718
  185MOL0     N24890   6.305   6.238   9.461  0.3878 -0.2728  0.1110
  185MOL0     N24891   6.220   6.140   9.463 -0.0631  0.5884 -0.0904
  185MOL0     C24892   5.152   6.338   9.332 -0.2293  0.3106 -0.3261
  185MOL0     C24893   5.037   6.274   9.285  0.1372 -0.3242 -0.4946
  185MOL0     C24894   4.605   6.129   9.235 -0.1886  0.3769  0.0015
  185MOL0     C24895   4.485   6.182   9.194 -0.1327  0.4601  0.1937
  185MOL0     C24896   4.380   6.099   9.166  0.2432 -0.3945 -0.4990
  185MOL0     C24897   4.383   5.961   9.179  0.2906 -0.7783  0.1719
  185MOL0     O24898   4.272   5.873   9.164 -0.3277  0.0121 -0.5218
  185MOL0     C24899   4.145   5.928   9.200  0.3848  0.8853  0.3843
  185MOL0     C24900   4.032   5.825   9.191 -0.5508 -0.4455  0.3396
  185MOL0     C24901   3.902   5.899   9.226 -0.1387 -0.6996  0.7636
  185MOL0     C24902   3.777   5.815   9.194 -0.6130 -0.6081  0.2619
  185MOL0     C24903   3.740   5.837   9.056 -0.7385  0.2786  0.5009
  185MOL0     C24904   3.692   5.849   8.941 -0.0186 -0.9293  0.1015
  185MOL0     C24905   4.506   5.906   9.208  0.5144  0.3858 -0.4437
  185MOL0     C24906   4.614   5.989   9.232 -0.5228 -0.2221  0.2175
  185MOL0     C24907   4.742   5.917   9.241  0.9478 -0.3039  0.0251
  185MOL0     H24908   4.859   6.253   9.573  1.2579  0.4978  1.9240
  185MOL0     H24909   5.067   6.360   9.655 -1.8858 -0.8726 -0.6935
  185MOL0     H24910   5.292   6.366   9.707 -3.1071 -0.4727 -0.8846
  185MOL0     H24911   5.366   6.261   9.579  1.3386  1.2326 -2.1684
  185MOL0     H24912   5.528   6.406   9.711  0.8898  0.3251 -0.7292
  185MOL0     H24913   5.471   6.549   9.628 -1.2061  0.7807 -3.8745
  185MOL0     H24914   5.593   6.503   9.451 -1.1905  1.0563  0.6874
  185MOL0     H24915   5.489   6.365   9.418 -0.3711 -0.3863  1.0082
  185MOL0     H24916   5.737   6.354   9.577  0.4713 -0.0301 -0.3191
  185MOL0     H24917   5.644   6.217   9.562  1.7534  0.2406  1.9639
  185MOL0     H24918   5.676   6.215   9.306 -0.9894  0.7667 -0.5799
  185MOL0     H24919   5.770   6.364   9.322 -3.0152 -0.4847 -1.6120
  185MOL0     H24920   5.940   6.256   9.459 -2.3045  3.3585  0.4207
  185MOL0     H24921   5.834   6.110   9.485 -1.2209  0.3518 -0.1930
  185MOL0     H24922   5.942   6.194   9.212  1.3763 -1.7557 -0.5884
  185MOL0     H24923   5.846   6.052   9.247  2.0471 -2.1232 -1.8080
  185MOL0     H24924   6.048   5.969   9.391 -0.0374  0.3256  0.1921
  185MOL0     H24925   6.055   5.993   9.212 -0.4631  1.4834 -0.6585
  185MOL0     H24926   6.186   6.257   9.151  1.4573  1.5823  0.3779
  185MOL0     H24927   6.329   6.497   9.298  0.2700  0.4928  0.8083
  185MOL0     H24928   6.465   6.413   9.380  0.2157  1.1291 -0.4995
  185MOL0     H24929   6.544   6.311   9.195  2.7757  0.8480  1.4498
  185MOL0     H24930   6.404   6.391   9.101 -2.5241  0.0023  1.9221
  185MOL0     H24931   6.492   6.613   9.192  0.0668  2.1721 -2.6986
  185MOL0     H24932   6.578   6.539   9.059 -3.5184  0.8801 -0.2917
  185MOL0     H24933   6.735   6.447   9.229 -3.3602 -0.7893 -2.9084
  185MOL0     H24934   6.665   6.553   9.357 -0.3094 -0.3699  0.8745
  185MOL0     H24935   6.982   6.747   9.096  2.4728  0.8964 -0.1270
  185MOL0     H24936   7.201   6.801   9.199 -0.2823  1.3689  1.7554
  185MOL0     H24937   7.330   6.814   9.771 -2.1876 -0.2319 -1.5129
  185MOL0     H24938   7.557   6.915   9.858 -2.0560  1.1167 -0.1511
  185MOL0     H24939   7.945   6.741   9.766  0.5466 -0.9326 -1.6970
  185MOL0     H24940   7.934   6.826   9.603 -2.5339  2.1930 -0.4476
  185MOL0     H24941   8.017   7.039   9.728 -0.5007  0.8497  1.7023
  185MOL0     H24942   8.049   6.932   9.865  0.7278 -0.5639  0.3724
  185MOL0     H24943   8.200   6.802   9.726 -3.3746 -0.8490 -1.8684
  185MOL0     H24944   8.175   6.898   9.582  1.8359  0.1846 -0.3013
  185MOL0     H24945   8.307   6.967   9.842  1.4429 -0.9165 -0.0283
  185MOL0     H24946   8.264   7.108   9.732  0.2504 -0.0117 -1.5603
  185MOL0     H24947   8.395   7.050   9.561 -3.7272  0.5130  0.5808
  185MOL0     H24948   8.420   6.887   9.610  1.1495 -0.6999  1.0484
  185MOL0     H24949   8.548   6.980   9.808 -0.3639  2.3279  1.8687
  185MOL0     H24950   8.606   7.010   9.633 -1.2585 -3.2947  0.0466
  185MOL0     H24951   8.473   7.209   9.814 -0.2391 -0.3725  0.1294
  185MOL0     H24952   8.519   7.240   9.650 -0.5090  1.3138  1.6818
  185MOL0     H24953   8.673   7.317   9.830 -0.9228  0.4154 -0.3264
  185MOL0     H24954   8.685   7.151   9.896 -2.5134  0.6104  0.8899
  185MOL0     H24955   7.771   6.753   9.536  0.9090  2.2928  0.2601
  185MOL0     H24956   7.571   6.616   9.469  0.8574 -0.5348 -0.0599
  185MOL0     H24957   7.085   6.612   9.560  0.3290 -0.6180  0.0784
  185MOL0     H24958   6.845   6.588   9.471  0.5516 -1.2946  0.1101
  185MOL0     H24959   5.242   6.364   9.277  0.8089  2.1886  2.0906
  185MOL0     H24960   5.027   6.250   9.180 -1.7322  2.8799 -1.1824
  185MOL0     H24961   4.474   6.287   9.166  2.3311  0.7365  0.0368
  185MOL0     H24962   4.285   6.150   9.146  0.9361  1.8876  1.5243
  185MOL0     H24963   4.121   6.009   9.130 -0.4335 -0.4846 -0.9671
  185MOL0     H24964   4.147   5.966   9.303 -1.1733 -4.7812  2.8854
  185MOL0     H24965   4.059   5.745   9.260 -0.1167  0.6477  1.4723
  185MOL0     H24966   4.026   5.777   9.093 -3.3403 -1.1130  0.7597
  185MOL0     H24967   3.899   5.993   9.172  1.0570  0.1128  2.0573
  185MOL0     H24968   3.888   5.918   9.333 -2.8246  0.5828  0.2693
  185MOL0     H24969   3.796   5.708   9.214  1.0493 -0.2782  0.6602
  185MOL0     H24970   3.693   5.855   9.250 -1.4999 -0.8227 -0.8809
  185MOL0     H24971   3.666   5.852   8.837  1.3887 -0.3912 -0.2583
  185MOL0     H24972   4.501   5.797   9.216 -1.9851  0.4520 -0.1017
  185MOL0     H24973   4.820   5.962   9.179 -1.1675  0.0992 -2.5235
  185MOL0     H24974   4.775   5.919   9.346  0.6010 -3.3585  0.2930
  185MOL0     H24975   4.731   5.813   9.210 -1.6850  0.5951 -2.4723
  186MOL0     O24976   4.944   0.853   7.442 -0.8297 -0.2348 -0.7804
  186MOL0     C24977   4.941   0.821   7.322 -0.8416 -0.3539 -1.5600
  186MOL0     O24978   5.046   0.824   7.240  1.0183  0.0167  0.2837
  186MOL0     C24979   5.162   0.804   7.304  0.4584 -0.1839 -0.1670
  186MOL0     C24980   5.232   0.682   7.304 -0.0601 -0.2220 -0.0120
  186MOL0     C24981   5.369   0.678   7.351 -0.3585 -0.6078  0.1940
  186MOL0     C24982   5.423   0.789   7.421  0.4230  0.2356  0.5450
  186MOL0     O24983   5.558   0.781   7.452  0.0038  0.5388 -0.1921
  186MOL0     C24984   5.622   0.885   7.531  0.4763  0.3805  0.2644
  186MOL0     C24985   5.751   0.822   7.583  0.3836 -0.1281 -0.5970
  186MOL0     C24986   5.833   0.913   7.673  0.3690 -0.4291  1.0312
  186MOL0     C24987   5.968   0.849   7.711 -0.2330 -0.5541  0.5549
  186MOL0     C24988   6.035   0.925   7.824  1.2511 -0.5361  0.2101
  186MOL0     C24989   6.168   0.857   7.856  0.3085  0.6071  0.1728
  186MOL0     C24990   6.244   0.932   7.967 -0.2690 -0.3384  0.6603
  186MOL0     C24991   6.302   1.076   7.934 -0.0496  0.5705  0.4287
  186MOL0     N24992   6.364   1.107   7.807  0.3895 -0.4199  0.0181
  186MOL0     C24993   6.362   1.230   7.757 -0.2413  0.3909 -0.2802
  186MOL0     C24994   6.444   1.217   7.649 -0.1095 -0.6205 -0.7659
  186MOL0     C24995   6.469   1.314   7.542 -0.3088 -0.2150 -0.3254
  186MOL0     C24996   6.603   1.393   7.545 -0.4050  0.6485 -0.9763
  186MOL0     C24997   6.727   1.299   7.487 -0.2840 -0.3059  0.0234
  186MOL0     C24998   6.856   1.376   7.486  0.6307  0.0302  0.1424
  186MOL0     O24999   6.962   1.269   7.478 -0.4556  0.1847  0.7004
  186MOL0     C25000   7.084   1.314   7.490 -0.3851 -0.4244  0.2873
  186MOL0     C25001   7.193   1.221   7.463  0.4761 -0.2531 -0.0935
  186MOL0     C25002   7.323   1.264   7.465  0.4345  0.0695  1.1335
  186MOL0     C25003   7.358   1.397   7.492 -0.0951 -0.0225  0.0348
  186MOL0     C25004   7.497   1.434   7.478 -0.4287 -0.1589  0.1073
  186MOL0     O25005   7.528   1.555   7.528  0.2793 -0.1786  0.0770
  186MOL0     C25006   7.659   1.597   7.539  1.0364  0.0920  0.6166
  186MOL0     C25007   7.720   1.608   7.664  0.2350  0.1673  0.3380
  186MOL0     C25008   7.856   1.625   7.662  0.5994 -0.2013 -0.1895
  186MOL0     C25009   7.934   1.638   7.545  0.2484  0.4759  0.1321
  186MOL0     O25010   8.074   1.661   7.569 -0.1003  1.0653  0.0469
  186MOL0     C25011   8.153   1.651   7.452 -0.3133  0.2238 -0.3355
  186MOL0     C25012   8.176   1.512   7.397 -0.0611 -0.0996  0.0730
  186MOL0     C25013   8.240   1.518   7.258  0.2193 -0.2558 -0.9129
  186MOL0     C25014   8.186   1.399   7.171 -0.2675  0.4999  0.0387
  186MOL0     C25015   8.291   1.328   7.080 -0.8031 -0.7430 -0.5026
  186MOL0     C25016   8.397   1.243   7.169 -0.8495 -0.3477 -0.2514
  186MOL0     C25017   8.498   1.191   7.071 -1.1476  0.2416 -0.2562
  186MOL0     C25018   8.628   1.132   7.135 -0.3477 -0.4960  0.1639
  186MOL0    Cl25019   8.568   0.990   7.236 -0.2025 -0.0080  0.5980
  186MOL0     C25020   7.869   1.621   7.423  0.2848 -0.0521  0.1209
  186MOL0     C25021   7.732   1.604   7.418  0.0708 -0.5483 -0.9366
  186MOL0     O25022   7.580   1.370   7.418  0.5137 -0.2423  0.3930
  186MOL0     C25023   7.256   1.485   7.524  0.0026 -0.1691 -0.3908
  186MOL0     C25024   7.123   1.445   7.539 -0.0385  0.2254  0.3827
  186MOL0     N25025   6.491   1.088   7.641 -0.3873  0.7627 -0.2334
  186MOL0     N25026   6.443   1.019   7.739 -0.4070  0.5803 -0.3887
  186MOL0     C25027   5.354   0.909   7.418  0.3813 -1.5329 -0.9146
  186MOL0     C25028   5.226   0.915   7.366  0.3920  0.5882 -0.3174
  186MOL0     C25029   4.802   0.788   7.274 -0.2110  0.4808  0.8993
  186MOL0     C25030   4.699   0.759   7.366  0.3273  0.2081 -0.7457
  186MOL0     C25031   4.577   0.716   7.327 -0.4480  0.1169  0.1297
  186MOL0     C25032   4.531   0.709   7.197 -0.5332  1.0412  0.5291
  186MOL0     O25033   4.415   0.658   7.155 -0.2528 -0.7182  0.3741
  186MOL0     C25034   4.332   0.587   7.249  0.1541 -0.9243  1.2997
  186MOL0     C25035   4.205   0.567   7.179  0.0474 -0.0874 -0.4118
  186MOL0     C25036   4.107   0.496   7.285  0.5415  0.2380 -0.4194
  186MOL0     C25037   4.034   0.380   7.217  0.5798 -0.0924 -0.8102
  186MOL0     C25038   3.953   0.419   7.096  0.2698  0.4021  0.4721
  186MOL0     C25039   3.883   0.449   6.995  0.3859  0.0329  0.1026
  186MOL0     C25040   4.623   0.745   7.101  0.0042 -0.8946 -0.6065
  186MOL0     C25041   4.764   0.783   7.133  1.2877  0.6813 -0.2758
  186MOL0     C25042   4.854   0.793   7.018 -0.4835 -0.3291 -0.0060
  186MOL0     H25043   5.189   0.599   7.250 -0.4999  0.3095 -0.4857
  186MOL0     H25044   5.418   0.582   7.350 -2.9033 -2.0350  1.5821
  186MOL0     H25045   5.638   0.975   7.471  2.8404  0.6800  1.2454
  186MOL0     H25046   5.547   0.904   7.608  0.6145 -1.4396  0.8997
  186MOL0     H25047   5.823   0.807   7.502  0.2980 -2.1347 -0.3722
  186MOL0     H25048   5.720   0.723   7.620 -0.4887 -1.0042 -3.3542
  186MOL0     H25049   5.776   0.931   7.765  0.0014  0.1880  0.6832
  186MOL0     H25050   5.849   1.005   7.616  2.9768 -1.4069  0.0142
  186MOL0     H25051   5.956   0.743   7.738 -0.5212 -0.6713 -0.0167
  186MOL0     H25052   6.042   0.850   7.631 -1.4835  1.8630 -0.6581
  186MOL0     H25053   6.051   1.028   7.793 -1.8600 -0.2334 -0.7659
  186MOL0     H25054   5.966   0.924   7.910  0.9283  1.3873  0.0122
  186MOL0     H25055   6.147   0.763   7.907  2.6970  1.0392  2.1449
  186MOL0     H25056   6.228   0.849   7.765  1.6466  1.4281  0.9430
  186MOL0     H25057   6.329   0.868   7.994  1.5486  1.6333 -0.0730
  186MOL0     H25058   6.183   0.939   8.057 -0.1430  0.7989  0.6741
  186MOL0     H25059   6.215   1.143   7.940 -0.3823  0.3401 -1.2169
  186MOL0     H25060   6.379   1.102   8.007  0.9247  1.1113 -0.7721
  186MOL0     H25061   6.312   1.322   7.786 -2.0876  0.1862 -2.5000
  186MOL0     H25062   6.465   1.255   7.450 -0.1575  1.6712 -1.5997
  186MOL0     H25063   6.394   1.394   7.530  3.0352  3.7435  2.4451
  186MOL0     H25064   6.587   1.479   7.479 -1.5907 -0.5661 -2.3459
  186MOL0     H25065   6.615   1.434   7.645 -2.9655  0.1100 -0.3728
  186MOL0     H25066   6.695   1.259   7.390 -0.3183 -1.4931  0.5109
  186MOL0     H25067   6.736   1.217   7.558 -1.2960  0.2680  0.8349
  186MOL0     H25068   6.855   1.441   7.574 -2.5122 -0.1108  0.3120
  186MOL0     H25069   6.865   1.437   7.395 -0.2365 -2.2108 -1.5219
  186MOL0     H25070   7.168   1.119   7.437  0.8069 -0.6218  0.9591
  186MOL0     H25071   7.396   1.190   7.431  3.0594  3.0968 -0.3205
  186MOL0     H25072   7.661   1.615   7.755  0.8518 -1.7931  0.9458
  186MOL0     H25073   7.895   1.642   7.762 -0.4478 -0.7373  0.3171
  186MOL0     H25074   8.122   1.736   7.390 -3.1469  1.4472  2.4293
  186MOL0     H25075   8.254   1.665   7.489 -0.8469 -1.5208  2.0044
  186MOL0     H25076   8.235   1.452   7.467  1.3420 -0.4798 -1.3956
  186MOL0     H25077   8.076   1.469   7.390 -0.1558  0.1202  0.0544
  186MOL0     H25078   8.225   1.617   7.213 -0.4654  1.3340  2.5149
  186MOL0     H25079   8.348   1.510   7.271  0.3708 -0.4523 -2.1381
  186MOL0     H25080   8.108   1.440   7.107 -1.9928 -0.6515  1.3331
  186MOL0     H25081   8.140   1.325   7.237  0.4495 -1.0432 -1.1331
  186MOL0     H25082   8.331   1.397   7.005 -4.4509 -1.3710 -3.2927
  186MOL0     H25083   8.250   1.255   7.009  0.9893 -2.5710  0.2507
  186MOL0     H25084   8.442   1.300   7.251  1.9507 -0.1903 -1.7583
  186MOL0     H25085   8.336   1.161   7.208  1.9693 -2.6285 -0.3030
  186MOL0     H25086   8.527   1.273   7.004 -0.4502 -0.2465 -0.5586
  186MOL0     H25087   8.464   1.101   7.018  0.1284 -0.0782 -0.5630
  186MOL0     H25088   8.693   1.093   7.057 -0.1538  0.1761 -0.0109
  186MOL0     H25089   8.678   1.211   7.191  1.1127 -0.9372 -0.4729
  186MOL0     H25090   7.921   1.618   7.327 -0.7134 -2.2876 -0.4201
  186MOL0     H25091   7.673   1.582   7.329 -0.9861 -0.0674 -0.3779
  186MOL0     H25092   7.271   1.588   7.553  1.8136 -0.2111 -1.0924
  186MOL0     H25093   7.062   1.528   7.576  0.4763 -0.1456  2.1672
  186MOL0     H25094   5.404   0.997   7.456 -2.0854  0.6582 -2.3912
  186MOL0     H25095   5.167   1.006   7.354  2.7387  2.0647 -1.3880
  186MOL0     H25096   4.710   0.764   7.474 -2.2784  3.3684 -0.4457
  186MOL0     H25097   4.512   0.683   7.408  0.3991  1.8523  1.6055
  186MOL0     H25098   4.312   0.641   7.343 -1.0379  0.4969  0.2736
  186MOL0     H25099   4.387   0.497   7.276 -0.8004 -1.7371  0.5987
  186MOL0     H25100   4.210   0.492   7.099  0.7288 -2.0210  1.3601
  186MOL0     H25101   4.167   0.661   7.137 -2.0191 -1.9286 -3.0143
  186MOL0     H25102   4.035   0.568   7.325 -1.0505 -1.3312 -0.3396
  186MOL0     H25103   4.170   0.457   7.365 -0.2780  1.4757  0.8756
  186MOL0     H25104   4.105   0.304   7.181  2.8623  1.5872 -0.1025
  186MOL0     H25105   3.966   0.341   7.293 -1.2781  4.0433 -0.0660
  186MOL0     H25106   3.829   0.485   6.909 -0.3315  0.8730  0.8798
  186MOL0     H25107   4.597   0.741   6.996  1.1022 -0.3446 -0.9163
  186MOL0     H25108   4.941   0.736   7.050 -1.4060 -1.2520  0.9463
  186MOL0     H25109   4.807   0.753   6.927 -0.6860 -1.3171  0.5304
  186MOL0     H25110   4.902   0.889   6.997  0.1662 -1.1147 -2.5447
  187MOL0     O25111  11.025   4.036   9.431 -0.4737  0.6225 -0.3127
  187MOL0     C25112  10.988   3.927   9.481 -0.3911 -1.2850  0.0145
  187MOL0     O25113  11.065   3.827   9.524  0.1345 -0.2098 -0.6030
  187MOL0     C25114  11.191   3.869   9.558  0.1396  0.0191 -0.0733
  187MOL0     C25115  11.304   3.831   9.482 -0.0505 -0.4178  1.1245
  187MOL0     C25116  11.440   3.860   9.516 -0.3864 -1.2150 -0.2119
  187MOL0     C25117  11.451   3.939   9.631  0.2888  0.2162 -0.4249
  187MOL0     O25118  11.574   3.954   9.671  0.0598 -0.4100  0.4449
  187MOL0     C25119  11.639   4.071   9.616  0.2592 -0.5903  0.1233
  187MOL0     C25120  11.779   4.029   9.558  0.6133  0.6119  0.1289
  187MOL0     C25121  11.849   3.930   9.651 -0.0915  0.4986 -0.6539
  187MOL0     C25122  11.997   3.924   9.621  0.0080 -0.7599 -0.2713
  187MOL0     C25123  12.073   3.824   9.709 -0.4845 -0.2045  0.6792
  187MOL0     C25124  12.225   3.837   9.681 -0.1738  0.3132 -0.3169
  187MOL0     C25125  12.302   3.730   9.759 -0.5187 -0.5895  0.5579
  187MOL0     C25126  12.278   3.746   9.910 -0.8532 -0.4864  0.7258
  187MOL0     N25127  12.385   3.696   9.998 -0.4188 -0.2208  0.1861
  187MOL0     C25128  12.521   3.711   9.980  0.5504 -0.3218  0.0653
  187MOL0     C25129  12.582   3.640  10.072  0.1078  0.4891  0.2991
  187MOL0     C25130  12.729   3.625  10.090 -0.9820 -0.0441 -0.1242
  187MOL0     C25131  12.830   3.745  10.046  0.0742 -0.7819 -0.5190
  187MOL0     C25132  12.794   3.885  10.105 -0.1639  0.3017  0.5223
  187MOL0     C25133  12.807   3.868  10.261  0.0107 -0.0728 -0.5032
  187MOL0     O25134  12.921   3.781  10.294 -0.0397 -0.0028  0.2261
  187MOL0     C25135  13.028   3.850  10.343 -0.1484  0.1677 -0.0446
  187MOL0     C25136  13.129   3.889  10.260  0.9691  0.0432 -0.4373
  187MOL0     C25137  13.248   3.945  10.318  0.2702 -0.5296  0.9798
  187MOL0     C25138  13.271   3.952  10.453  0.6701  0.6953  0.2964
  187MOL0     C25139  13.392   4.012  10.505  0.3235 -0.3643 -0.2363
  187MOL0     O25140  13.403   4.010  10.645  0.1902  0.0054  0.4544
  187MOL0     C25141  13.512   4.072  10.695 -1.1258  0.0612  0.1064
  187MOL0     C25142  13.625   4.006  10.751 -0.1743  0.3231 -0.6665
  187MOL0     C25143  13.740   4.067  10.799 -0.3111 -0.3660  0.5490
  187MOL0     C25144  13.750   4.206  10.789 -0.3071 -1.0038  0.1783
  187MOL0     O25145  13.860   4.281  10.830  1.0281  0.0308 -0.2854
  187MOL0     C25146  13.909   4.248  10.962 -0.3307  0.4254  0.8738
  187MOL0     C25147  14.043   4.316  10.968 -0.3320  0.0239  0.1937
  187MOL0     C25148  14.155   4.240  10.892 -0.4109 -0.3396 -0.7626
  187MOL0     C25149  14.283   4.328  10.899 -0.5558 -0.2723 -0.2715
  187MOL0     C25150  14.399   4.244  10.841  0.1784 -0.0714 -0.2617
  187MOL0     C25151  14.522   4.326  10.833 -0.1310  0.0177 -0.7786
  187MOL0     C25152  14.527   4.438  10.736 -0.2492 -0.1096 -0.1386
  187MOL0     C25153  14.656   4.504  10.759 -0.5609  0.1076  0.3660
  187MOL0    Cl25154  14.658   4.585  10.920  0.1259  0.1440 -0.3916
  187MOL0     C25155  13.638   4.275  10.724  0.2546  0.8418  0.4851
  187MOL0     C25156  13.514   4.211  10.693 -0.6985 -0.2717  0.6195
  187MOL0     O25157  13.468   4.064  10.422 -0.1471 -0.1137 -0.0403
  187MOL0     C25158  13.166   3.902  10.539 -0.3634  0.4948  0.6536
  187MOL0     C25159  13.046   3.858  10.481 -0.5680 -0.0505  0.0091
  187MOL0     N25160  12.475   3.591  10.147 -1.0914 -0.2466  0.3691
  187MOL0     N25161  12.363   3.620  10.095  0.1672  0.6917  0.1016
  187MOL0     C25162  11.345   3.982   9.709 -0.4637 -0.4777  0.3535
  187MOL0     C25163  11.216   3.945   9.671  1.2162 -0.4394  0.2344
  187MOL0     C25164  10.840   3.904   9.494 -0.0382 -0.2054  0.1484
  187MOL0     C25165  10.788   3.778   9.466  0.1957  0.0552 -1.0007
  187MOL0     C25166  10.652   3.756   9.450 -0.2356 -0.3489  0.2615
  187MOL0     C25167  10.559   3.853   9.467 -0.3665 -0.6651  0.3364
  187MOL0     O25168  10.431   3.822   9.451  0.0814  0.0067 -0.4380
  187MOL0     C25169  10.356   3.806   9.575 -0.8576  0.4999 -0.4487
  187MOL0     C25170  10.317   3.660   9.584 -0.3766 -0.0225 -0.4797
  187MOL0     C25171  10.219   3.609   9.472  0.8150  0.0303 -0.2400
  187MOL0     C25172  10.074   3.650   9.486  0.2852 -0.0253  0.2345
  187MOL0     C25173   9.993   3.640   9.364  0.3809 -0.1574  0.3982
  187MOL0     C25174   9.913   3.644   9.277  0.0482 -0.4741  0.5491
  187MOL0     C25175  10.602   3.977   9.512 -0.5383 -0.0400 -0.1527
  187MOL0     C25176  10.745   4.005   9.529 -0.0302  0.5268 -0.7091
  187MOL0     C25177  10.780   4.146   9.574 -0.0716  0.7611  0.2041
  187MOL0     H25178  11.285   3.772   9.393  1.7007  0.5681  0.0365
  187MOL0     H25179  11.516   3.808   9.460 -2.0618 -2.1603 -1.7161
  187MOL0     H25180  11.585   4.134   9.545  1.1651 -1.8636 -1.8029
  187MOL0     H25181  11.664   4.131   9.704  1.2855 -0.7140 -0.0622
  187MOL0     H25182  11.836   4.120   9.538  0.9182  0.6999  1.3126
  187MOL0     H25183  11.765   3.977   9.462 -0.8932  1.3375 -0.0603
  187MOL0     H25184  11.805   3.830   9.649 -2.0374  1.3306 -1.3353
  187MOL0     H25185  11.846   3.954   9.758  2.2662 -0.2456 -0.3587
  187MOL0     H25186  12.013   3.898   9.516 -0.2033 -1.2323 -0.1926
  187MOL0     H25187  12.041   4.023   9.637  2.4443 -1.7086 -0.6747
  187MOL0     H25188  12.039   3.835   9.813 -2.0452  2.6587  0.0004
  187MOL0     H25189  12.042   3.725   9.676  0.3362 -0.4651  0.6920
  187MOL0     H25190  12.254   3.822   9.576  2.0997  0.0300  0.3124
  187MOL0     H25191  12.264   3.931   9.721 -0.2738  0.1718  0.1141
  187MOL0     H25192  12.409   3.745   9.747 -1.0766  1.9797 -2.5306
  187MOL0     H25193  12.278   3.624   9.745  2.1169 -1.5135  2.4125
  187MOL0     H25194  12.275   3.853   9.932  0.7175 -0.3855  0.5849
  187MOL0     H25195  12.183   3.699   9.936 -1.1690 -0.4557 -0.3073
  187MOL0     H25196  12.566   3.769   9.900 -1.7843 -0.0398 -1.1325
  187MOL0     H25197  12.741   3.617  10.198  1.6388  0.5512 -0.2902
  187MOL0     H25198  12.751   3.531  10.039  2.2375  0.8253 -0.5623
  187MOL0     H25199  12.934   3.717  10.067  1.0247  2.7680  0.0231
  187MOL0     H25200  12.821   3.758   9.937  0.4771 -0.5952 -0.5320
  187MOL0     H25201  12.698   3.929  10.079 -1.0134 -1.5995  0.2562
  187MOL0     H25202  12.867   3.958  10.068 -0.3637 -0.4290 -1.4490
  187MOL0     H25203  12.710   3.829  10.295  0.4013 -0.7543 -0.1565
  187MOL0     H25204  12.827   3.963  10.313  2.4442  0.0205 -1.5104
  187MOL0     H25205  13.127   3.878  10.152 -1.0647  2.3565 -0.7252
  187MOL0     H25206  13.330   3.975  10.253 -0.1487 -0.9429  0.2391
  187MOL0     H25207  13.622   3.898  10.758 -4.2333  0.3148 -0.5499
  187MOL0     H25208  13.823   4.011  10.841 -0.5006 -0.2863  1.0368
  187MOL0     H25209  13.836   4.291  11.031 -1.2787 -0.4392  0.4191
  187MOL0     H25210  13.930   4.143  10.985  2.5191  0.7455  0.0791
  187MOL0     H25211  14.024   4.417  10.931 -0.0829  1.5960  3.9087
  187MOL0     H25212  14.061   4.330  11.075 -0.4877  0.5451  0.1586
  187MOL0     H25213  14.167   4.149  10.952 -0.4023  0.5611  0.6455
  187MOL0     H25214  14.136   4.217  10.787 -2.5196  2.5598 -1.1368
  187MOL0     H25215  14.308   4.362  11.000  2.1047  3.3559 -1.9346
  187MOL0     H25216  14.276   4.422  10.842 -3.1702 -0.1934  0.0529
  187MOL0     H25217  14.370   4.200  10.745 -1.6762 -2.8094  1.3976
  187MOL0     H25218  14.422   4.160  10.907 -2.1770  0.9006  1.9899
  187MOL0     H25219  14.540   4.360  10.935  1.2834  3.2624 -1.9986
  187MOL0     H25220  14.604   4.259  10.806  1.3778  0.1617  2.8692
  187MOL0     H25221  14.447   4.509  10.758 -0.2097 -0.0907 -0.0558
  187MOL0     H25222  14.513   4.396  10.636 -0.0501 -0.2660 -0.1023
  187MOL0     H25223  14.740   4.433  10.761 -0.7504 -0.2037 -1.3012
  187MOL0     H25224  14.675   4.568  10.673  0.0090  0.1204  0.4946
  187MOL0     H25225  13.651   4.383  10.729 -2.9359  1.3507 -0.3475
  187MOL0     H25226  13.431   4.271  10.657  0.1740  0.6482  0.0696
  187MOL0     H25227  13.166   3.912  10.647  0.3593  0.3759  0.6687
  187MOL0     H25228  12.963   3.830  10.545 -2.4405  0.2280 -2.1789
  187MOL0     H25229  11.358   4.051   9.792 -1.8481  1.2627 -0.7687
  187MOL0     H25230  11.123   3.972   9.720  2.4562  1.3522  1.7838
  187MOL0     H25231  10.859   3.698   9.446  0.1185  0.1444 -1.6762
  187MOL0     H25232  10.617   3.653   9.438  0.4394 -0.3978 -1.5268
  187MOL0     H25233  10.268   3.871   9.576 -1.5491 -0.4298  0.1674
  187MOL0     H25234  10.417   3.828   9.663 -1.5174  0.9173 -0.0928
  187MOL0     H25235  10.285   3.634   9.686 -0.3720  1.8473  0.0388
  187MOL0     H25236  10.411   3.607   9.573 -1.1735 -1.0220 -3.1464
  187MOL0     H25237  10.226   3.500   9.478  1.4108 -0.4783 -5.7213
  187MOL0     H25238  10.263   3.631   9.375  2.5868  1.2442  0.7675
  187MOL0     H25239  10.030   3.583   9.561 -2.7721  1.1172 -0.4153
  187MOL0     H25240  10.063   3.750   9.528 -1.7329 -0.2614  0.3567
  187MOL0     H25241   9.834   3.654   9.205  1.5259 -0.0456 -1.0730
  187MOL0     H25242  10.530   4.052   9.542  1.2049  1.3396  0.7144
  187MOL0     H25243  10.787   4.217   9.490  1.3155 -0.6126 -0.8900
  187MOL0     H25244  10.707   4.182   9.648 -0.6801  1.0677 -0.5217
  187MOL0     H25245  10.876   4.145   9.625 -1.5077 -0.5218  3.1053
  188MOL0     O25246   5.386   7.274  10.462  0.5844 -0.0430 -0.1884
  188MOL0     C25247   5.341   7.187  10.532 -0.8154  0.3219  0.3689
  188MOL0     O25248   5.385   7.062  10.530 -0.0190  0.4113 -0.2698
  188MOL0     C25249   5.487   7.029  10.447  0.1498 -0.0344  0.4988
  188MOL0     C25250   5.573   6.933  10.490 -0.1254 -0.1560  0.0728
  188MOL0     C25251   5.674   6.882  10.413 -0.6119 -0.2566  1.0815
  188MOL0     C25252   5.686   6.917  10.273 -0.0984 -0.4540  0.8544
  188MOL0     O25253   5.794   6.886  10.190 -0.8699  0.0576  0.4106
  188MOL0     C25254   5.886   6.785  10.239  0.2207 -0.4529  0.6430
  188MOL0     C25255   6.003   6.755  10.144 -0.1355 -0.2672  0.0085
  188MOL0     C25256   6.081   6.880  10.108 -1.1597 -0.4430 -0.1978
  188MOL0     C25257   6.216   6.845  10.033 -0.4101  0.5073  0.2962
  188MOL0     C25258   6.333   6.863  10.109 -0.3940 -0.9312  0.0098
  188MOL0     C25259   6.449   6.889  10.015  0.2548 -0.2698  0.2932
  188MOL0     C25260   6.572   6.960  10.089  0.9992 -0.4401 -0.0351
  188MOL0     C25261   6.532   7.092  10.167 -0.4774 -0.4582  0.5569
  188MOL0     N25262   6.652   7.182  10.164 -0.2883  0.2913  0.2150
  188MOL0     C25263   6.736   7.207  10.273  0.0508 -0.3225 -0.2351
  188MOL0     C25264   6.818   7.312  10.238  0.0116  1.5695 -0.1074
  188MOL0     C25265   6.941   7.363  10.311  0.2046  0.8204  0.1129
  188MOL0     C25266   6.953   7.325  10.453 -0.4732  0.2205  0.0668
  188MOL0     C25267   7.070   7.395  10.526  0.6439 -0.5047  0.3563
  188MOL0     C25268   7.215   7.357  10.485  0.1326 -0.5024  0.4615
  188MOL0     O25269   7.266   7.239  10.543  0.1914  0.1341 -0.7606
  188MOL0     C25270   7.403   7.237  10.535 -0.0861 -0.2572 -0.2012
  188MOL0     C25271   7.484   7.277  10.422  0.8684  0.6525  0.2235
  188MOL0     C25272   7.624   7.248  10.410  0.6723  0.1463 -0.4786
  188MOL0     C25273   7.691   7.201  10.522  0.0587  0.7553  0.2064
  188MOL0     C25274   7.834   7.178  10.511 -0.6723 -0.0355 -0.0742
  188MOL0     O25275   7.888   7.207  10.385 -0.2093 -0.5674 -0.2832
  188MOL0     C25276   7.997   7.144  10.333  0.4942 -0.4426  0.3144
  188MOL0     C25277   8.074   7.205  10.226  0.1767 -0.3078 -0.0872
  188MOL0     C25278   8.177   7.141  10.176 -0.2883 -0.3239 -0.6934
  188MOL0     C25279   8.228   7.018  10.218  0.1527 -0.4389 -0.1883
  188MOL0     O25280   8.338   6.946  10.169 -0.2246  0.6399 -0.0181
  188MOL0     C25281   8.444   7.012  10.103 -0.1933  0.6718 -0.0652
  188MOL0     C25282   8.559   7.037  10.197 -0.0617  0.5313  0.2703
  188MOL0     C25283   8.648   6.916  10.220  0.5675 -0.2177 -0.0307
  188MOL0     C25284   8.557   6.810  10.306  0.4048 -0.5297 -0.5444
  188MOL0     C25285   8.628   6.688  10.354 -0.0414  0.3048 -0.8968
  188MOL0     C25286   8.694   6.603  10.244  0.2260  0.4625  0.2047
  188MOL0     C25287   8.763   6.486  10.318  0.3808 -0.4330 -0.3553
  188MOL0     C25288   8.754   6.360  10.233 -0.1883  0.7351 -0.1834
  188MOL0    Cl25289   8.825   6.385  10.072  0.0190 -0.0636  0.2490
  188MOL0     C25290   8.156   6.957  10.322 -0.1951 -0.3155 -0.0976
  188MOL0     C25291   8.043   7.017  10.381 -0.7625  0.0470  0.3149
  188MOL0     O25292   7.895   7.119  10.600 -0.4269 -1.6073  0.5187
  188MOL0     C25293   7.615   7.167  10.641  0.0012 -0.0679  0.0639
  188MOL0     C25294   7.476   7.185  10.645  0.1052 -0.0623 -0.4033
  188MOL0     N25295   6.788   7.352  10.107 -0.1463 -0.5679  0.7001
  188MOL0     N25296   6.686   7.278  10.068  0.8687 -0.0026  0.2326
  188MOL0     C25297   5.603   7.015  10.228  0.4695 -0.7500  0.0426
  188MOL0     C25298   5.500   7.069  10.310 -1.1029  0.6046 -0.2297
  188MOL0     C25299   5.249   7.230  10.635  0.6776  0.5862 -0.4074
  188MOL0     C25300   5.230   7.141  10.743  0.1230 -0.3880 -0.0979
  188MOL0     C25301   5.151   7.179  10.853 -0.2991 -0.4399  0.8547
  188MOL0     C25302   5.095   7.306  10.863  0.0590  0.5080  0.6764
  188MOL0     O25303   5.024   7.340  10.966 -0.1080  0.2432  0.0051
  188MOL0     C25304   4.926   7.244  11.007  0.3483 -0.0119 -0.5459
  188MOL0     C25305   4.807   7.311  11.070 -0.3551  0.6745  0.0051
  188MOL0     C25306   4.701   7.357  10.963 -0.2152 -0.6893 -0.3640
  188MOL0     C25307   4.565   7.287  10.973  0.1325 -0.3756 -0.5240
  188MOL0     C25308   4.504   7.303  11.109  0.3440  0.5368  0.2303
  188MOL0     C25309   4.460   7.299  11.222 -0.5525 -0.4379 -0.4781
  188MOL0     C25310   5.115   7.389  10.762  0.3592  0.4345  0.2614
  188MOL0     C25311   5.185   7.358  10.643 -0.6883  0.3843 -0.8691
  188MOL0     C25312   5.207   7.475  10.552  0.7426  0.0825  0.4768
  188MOL0     H25313   5.566   6.917  10.597  1.2513  1.2741  0.4150
  188MOL0     H25314   5.750   6.825  10.465 -0.1450  2.6539  3.9338
  188MOL0     H25315   5.928   6.804  10.338  0.1978 -0.9380  0.7514
  188MOL0     H25316   5.827   6.693  10.248  0.7965 -0.9274 -0.2571
  188MOL0     H25317   5.967   6.701  10.056 -0.4417 -0.4808  0.2587
  188MOL0     H25318   6.066   6.691  10.207 -0.7779  0.6523  1.6786
  188MOL0     H25319   6.090   6.945  10.196 -1.5531 -1.6565  0.7720
  188MOL0     H25320   6.021   6.935  10.035  1.7098 -0.6177 -2.9026
  188MOL0     H25321   6.206   6.744   9.992  0.2838  1.1448 -1.5513
  188MOL0     H25322   6.222   6.915   9.949  0.1999  0.5110  0.3369
  188MOL0     H25323   6.320   6.951  10.174  0.8999  0.0238 -0.9712
  188MOL0     H25324   6.361   6.784  10.179 -0.1427  1.9353  3.4342
  188MOL0     H25325   6.483   6.799   9.963  2.2414 -0.2943  1.5096
  188MOL0     H25326   6.425   6.950   9.927  2.2917 -0.4016 -0.4170
  188MOL0     H25327   6.641   6.981  10.006  0.1941 -0.4632 -0.7264
  188MOL0     H25328   6.612   6.886  10.160 -2.1450 -2.3779 -0.0999
  188MOL0     H25329   6.454   7.144  10.111  0.3468  0.0323 -0.1582
  188MOL0     H25330   6.501   7.079  10.271 -1.7904 -1.2370  0.0898
  188MOL0     H25331   6.747   7.144  10.361  4.4624 -2.0671 -1.7553
  188MOL0     H25332   7.032   7.324  10.266 -0.1876 -2.0938  1.5819
  188MOL0     H25333   6.933   7.472  10.299 -3.0040  0.6860  0.1252
  188MOL0     H25334   6.861   7.350  10.507 -0.0238 -1.1930  1.5705
  188MOL0     H25335   6.976   7.219  10.466 -0.7189 -0.3371 -3.1393
  188MOL0     H25336   7.047   7.377  10.632 -2.8387 -0.1222 -0.2103
  188MOL0     H25337   7.055   7.501  10.504 -1.0630 -0.9750 -0.8997
  188MOL0     H25338   7.271   7.447  10.512 -5.3458  3.3786  0.5906
  188MOL0     H25339   7.219   7.350  10.376 -0.6105  0.9419  0.3106
  188MOL0     H25340   7.439   7.317  10.332 -0.4786 -2.2035 -0.4985
  188MOL0     H25341   7.669   7.268  10.313 -0.4107 -0.7391 -1.1825
  188MOL0     H25342   8.035   7.300  10.191 -3.3235 -0.3640  3.0414
  188MOL0     H25343   8.227   7.190  10.093 -1.0213  0.0497 -0.9246
  188MOL0     H25344   8.483   6.937  10.033  2.3193  0.0514  1.8546
  188MOL0     H25345   8.412   7.103  10.051  0.6468 -0.4351 -2.7110
  188MOL0     H25346   8.623   7.100  10.135 -1.3642  0.3374 -1.3450
  188MOL0     H25347   8.521   7.093  10.283 -0.4982 -0.7758  0.9642
  188MOL0     H25348   8.684   6.879  10.123 -0.9613  0.5637 -0.9494
  188MOL0     H25349   8.728   6.941  10.289  0.2195  1.2228 -0.1252
  188MOL0     H25350   8.474   6.776  10.244  0.7518 -2.3266 -0.0660
  188MOL0     H25351   8.514   6.868  10.388  0.0144  0.7254 -1.5879
  188MOL0     H25352   8.558   6.626  10.412 -0.2568  1.4264  0.0718
  188MOL0     H25353   8.714   6.719  10.415 -0.0576 -2.7984  0.9687
  188MOL0     H25354   8.621   6.560  10.175 -1.2818 -0.6552  2.3835
  188MOL0     H25355   8.775   6.652  10.189 -0.8122 -0.6193 -2.5000
  188MOL0     H25356   8.714   6.465  10.414  1.4552 -0.4616  0.1983
  188MOL0     H25357   8.868   6.511  10.335  0.5623 -0.2580 -1.6398
  188MOL0     H25358   8.796   6.268  10.274 -0.8056  0.2590 -0.5949
  188MOL0     H25359   8.648   6.336  10.222  0.1557 -0.7365 -0.5031
  188MOL0     H25360   8.194   6.864  10.364  0.5163  1.7536  4.4556
  188MOL0     H25361   8.009   6.960  10.467 -0.1958  3.6852  3.2679
  188MOL0     H25362   7.662   7.127  10.731 -1.0434 -0.4362  0.4688
  188MOL0     H25363   7.416   7.170  10.735 -0.2741  0.3603 -0.5869
  188MOL0     H25364   5.613   7.056  10.128  0.2800  1.6826  0.9382
  188MOL0     H25365   5.433   7.147  10.276 -0.3237  2.4356  2.1941
  188MOL0     H25366   5.282   7.046  10.746  1.6677  0.4543  0.6874
  188MOL0     H25367   5.137   7.112  10.937 -0.8617 -1.8164 -0.2830
  188MOL0     H25368   4.976   7.191  11.088 -1.5550  0.0924  0.7611
  188MOL0     H25369   4.898   7.179  10.923  1.2774 -1.2995  0.1188
  188MOL0     H25370   4.825   7.394  11.139 -2.9962 -0.5543  2.3813
  188MOL0     H25371   4.755   7.243  11.138 -0.6519  1.6806  0.8103
  188MOL0     H25372   4.753   7.349  10.867 -0.6010 -0.3997 -0.6009
  188MOL0     H25373   4.696   7.465  10.983  1.1350 -0.7558  0.4362
  188MOL0     H25374   4.505   7.317  10.887  1.4632 -2.8983 -2.4648
  188MOL0     H25375   4.573   7.180  10.954 -0.7364 -0.6660  0.5762
  188MOL0     H25376   4.432   7.289  11.325  0.0176  0.4982 -0.2203
  188MOL0     H25377   5.068   7.486  10.765 -0.7790 -0.0092 -1.6990
  188MOL0     H25378   5.119   7.540  10.561 -0.8600 -1.9640  0.2789
  188MOL0     H25379   5.297   7.528  10.586  0.3107  1.1993 -0.0736
  188MOL0     H25380   5.221   7.439  10.450  0.3373  0.7560  0.1758
  189MOL0     O25381   9.266   0.539   2.262 -0.3603  0.0521 -0.0968
  189MOL0     C25382   9.269   0.453   2.173 -0.0335 -0.6826  0.4066
  189MOL0     O25383   9.346   0.454   2.064 -0.2032  0.0961 -0.0639
  189MOL0     C25384   9.467   0.532   2.054 -0.4609  1.2814 -0.2937
  189MOL0     C25385   9.536   0.592   2.156  0.3755 -0.2238  0.1056
  189MOL0     C25386   9.654   0.665   2.134  0.1616  0.6162 -0.5338
  189MOL0     C25387   9.698   0.684   2.004 -0.1104  0.0398 -0.7353
  189MOL0     O25388   9.800   0.769   1.989  1.1283  0.0914  0.5603
  189MOL0     C25389   9.829   0.826   1.860  0.8002  1.1422  0.6855
  189MOL0     C25390   9.949   0.923   1.863  0.2476 -0.2949 -0.8111
  189MOL0     C25391   9.972   0.999   1.730  0.4133  0.6081  0.4189
  189MOL0     C25392  10.098   1.087   1.729 -0.6853  0.2300  0.4707
  189MOL0     C25393  10.145   1.106   1.584 -0.4027 -0.8280  0.1426
  189MOL0     C25394  10.031   1.160   1.493 -0.4931  0.4090 -0.7514
  189MOL0     C25395  10.091   1.196   1.350 -0.3263 -0.4366 -0.1923
  189MOL0     C25396  10.195   1.313   1.329 -1.1772  0.5628  0.3538
  189MOL0     N25397  10.248   1.312   1.189 -0.5262 -0.1093 -0.0335
  189MOL0     C25398  10.241   1.407   1.098  0.0961 -0.5219 -0.6382
  189MOL0     C25399  10.312   1.356   0.992  0.0941 -0.5706  0.2041
  189MOL0     C25400  10.353   1.436   0.872  1.0430 -0.6851 -0.5454
  189MOL0     C25401  10.504   1.452   0.858  0.3616  0.5096 -1.1469
  189MOL0     C25402  10.563   1.508   0.988  0.0489 -1.1575  0.3044
  189MOL0     C25403  10.688   1.592   0.962  0.3015 -0.0713  0.2421
  189MOL0     O25404  10.729   1.666   1.082  0.1225  0.2054 -0.1192
  189MOL0     C25405  10.851   1.724   1.091 -0.0374 -0.3271 -0.5966
  189MOL0     C25406  10.946   1.733   0.987  0.0854 -0.1843 -0.2781
  189MOL0     C25407  11.068   1.791   1.003 -0.8620  0.5579 -0.1959
  189MOL0     C25408  11.118   1.818   1.132  0.7120 -0.4593  0.6237
  189MOL0     C25409  11.252   1.872   1.152  0.0793 -0.4351 -0.7350
  189MOL0     O25410  11.291   1.876   1.282 -0.3642 -0.0652 -0.6813
  189MOL0     C25411  11.408   1.936   1.325  0.0528  0.4149 -0.1341
  189MOL0     C25412  11.443   1.897   1.457 -1.3364  0.0795 -0.1510
  189MOL0     C25413  11.550   1.955   1.525  0.5871 -0.7125 -0.3721
  189MOL0     C25414  11.626   2.054   1.455  0.3102 -0.8139 -0.2231
  189MOL0     O25415  11.742   2.100   1.521  0.1440  0.1187 -0.4285
  189MOL0     C25416  11.863   2.113   1.438  0.8846 -0.6702  0.1606
  189MOL0     C25417  11.985   2.134   1.526 -0.7517  0.0312  0.1450
  189MOL0     C25418  12.113   2.125   1.452 -0.5690 -0.4364  0.6042
  189MOL0     C25419  12.226   2.191   1.537  0.3369  0.2170 -0.1185
  189MOL0     C25420  12.368   2.196   1.467  0.2776  1.3073  0.2496
  189MOL0     C25421  12.466   2.297   1.530 -0.1029 -0.0269 -0.1382
  189MOL0     C25422  12.581   2.342   1.440  0.6433 -0.8243 -0.3619
  189MOL0     C25423  12.664   2.450   1.505 -0.0351  0.3674  0.8142
  189MOL0    Cl25424  12.758   2.530   1.373 -0.1301 -0.4801 -0.0667
  189MOL0     C25425  11.592   2.096   1.332  0.0975  0.4270  0.6940
  189MOL0     C25426  11.481   2.038   1.268  0.4748  0.1557  0.1975
  189MOL0     O25427  11.324   1.904   1.057  0.0465 -0.2573  0.3270
  189MOL0     C25428  11.022   1.809   1.233 -1.0443  0.8847  0.0343
  189MOL0     C25429  10.889   1.765   1.215 -0.5561 -0.0865  0.1865
  189MOL0     N25430  10.344   1.225   1.013 -1.1649 -0.0159 -1.0871
  189MOL0     N25431  10.314   1.203   1.133 -0.1183  0.0037 -0.6625
  189MOL0     C25432   9.633   0.619   1.899  0.4747 -0.1614  0.5742
  189MOL0     C25433   9.514   0.543   1.925  0.8576 -0.4902 -0.6516
  189MOL0     C25434   9.159   0.352   2.179  1.3103  0.6912 -0.0620
  189MOL0     C25435   9.047   0.376   2.265 -0.8823 -0.3229 -0.5608
  189MOL0     C25436   8.942   0.280   2.286 -0.0281  0.0507  0.8962
  189MOL0     C25437   8.951   0.162   2.220 -0.6555  0.1712  0.6246
  189MOL0     O25438   8.855   0.054   2.224  0.0537 -0.6953 -0.0060
  189MOL0     C25439   8.742   0.078   2.299  0.6124  0.0390 -0.2079
  189MOL0     C25440   8.649  -0.033   2.299  0.3475 -0.1978 -0.4255
  189MOL0     C25441   8.510  -0.005   2.264  0.4449 -0.8905  0.1674
  189MOL0     C25442   8.413  -0.126   2.260  0.3514  0.0251 -0.1572
  189MOL0     C25443   8.377  -0.189   2.391  0.2244  0.4513  0.3517
  189MOL0     C25444   8.347  -0.216   2.502  0.1518  0.8900  0.0183
  189MOL0     C25445   9.060   0.133   2.144  0.5063 -0.9639  1.4313
  189MOL0     C25446   9.163   0.227   2.117 -0.0334 -0.2990  0.4546
  189MOL0     C25447   9.290   0.181   2.041  0.4425 -0.5071  0.1712
  189MOL0     H25448   9.508   0.574   2.259 -1.6846  0.4753 -0.2989
  189MOL0     H25449   9.702   0.721   2.214  0.8720  3.0755 -2.5736
  189MOL0     H25450   9.857   0.737   1.803 -0.7760  1.3497 -0.4747
  189MOL0     H25451   9.743   0.873   1.811 -1.2255 -0.6077  2.3131
  189MOL0     H25452  10.043   0.876   1.894  0.9186  1.1294 -0.5613
  189MOL0     H25453   9.916   0.994   1.940 -2.3484 -0.2062 -1.9056
  189MOL0     H25454   9.879   1.049   1.703 -0.1124 -0.7755 -0.4241
  189MOL0     H25455   9.996   0.928   1.650  1.4246  0.1663  1.0843
  189MOL0     H25456  10.075   1.183   1.776  0.4689  1.4077 -1.2837
  189MOL0     H25457  10.174   1.041   1.793 -0.5382 -0.4596 -0.1856
  189MOL0     H25458  10.230   1.175   1.588 -1.9075  1.0979  2.4580
  189MOL0     H25459  10.176   1.009   1.546  1.8427 -1.3291  2.9146
  189MOL0     H25460   9.950   1.088   1.484 -0.4606  0.4776 -1.7309
  189MOL0     H25461   9.995   1.242   1.556  0.2846 -0.8463  1.4030
  189MOL0     H25462  10.018   1.223   1.274  0.5379  0.1904 -0.8179
  189MOL0     H25463  10.130   1.101   1.311  1.3210 -0.8941  2.3204
  189MOL0     H25464  10.145   1.407   1.356 -0.5026  1.6646 -1.9690
  189MOL0     H25465  10.281   1.291   1.393 -1.8843 -2.2604  0.4552
  189MOL0     H25466  10.206   1.509   1.110 -0.7259 -0.9057  0.4090
  189MOL0     H25467  10.305   1.393   0.783  1.0546 -0.5509 -0.6162
  189MOL0     H25468  10.305   1.533   0.882 -0.5770 -1.5450  0.4060
  189MOL0     H25469  10.556   1.356   0.846  1.5202  1.4004 -4.2627
  189MOL0     H25470  10.534   1.507   0.769 -0.0788  1.2532 -0.8450
  189MOL0     H25471  10.580   1.435   1.068  1.5812 -0.5563  0.5642
  189MOL0     H25472  10.489   1.577   1.030 -0.4203 -3.2614  3.3187
  189MOL0     H25473  10.660   1.667   0.889  2.3784  3.3818  2.7064
  189MOL0     H25474  10.771   1.536   0.919  0.0323 -1.3149  1.2472
  189MOL0     H25475  10.914   1.701   0.888 -1.0052  1.2631 -0.4424
  189MOL0     H25476  11.139   1.794   0.920 -0.9302  2.4325 -0.2247
  189MOL0     H25477  11.390   1.809   1.493  0.9632 -1.1549  0.3694
  189MOL0     H25478  11.571   1.923   1.627 -2.1219 -1.4221  0.0496
  189MOL0     H25479  11.872   2.009   1.406  0.6096 -1.2721  1.8981
  189MOL0     H25480  11.841   2.185   1.359 -0.8247 -0.0571  1.1509
  189MOL0     H25481  11.965   2.231   1.571 -3.0824  0.8407 -2.3344
  189MOL0     H25482  11.974   2.067   1.612 -3.3289 -0.5245 -0.5355
  189MOL0     H25483  12.150   2.024   1.433  0.5798 -0.6006  3.2772
  189MOL0     H25484  12.113   2.179   1.356  1.5042  0.8336  1.2528
  189MOL0     H25485  12.237   2.128   1.626  2.3135 -0.6585 -0.9164
  189MOL0     H25486  12.184   2.290   1.556 -2.6684 -0.7663 -0.9945
  189MOL0     H25487  12.350   2.231   1.365 -1.9936 -0.2792  0.0438
  189MOL0     H25488  12.407   2.094   1.471 -2.3232  0.2497  3.8878
  189MOL0     H25489  12.404   2.381   1.564 -2.0912 -1.3327 -0.3819
  189MOL0     H25490  12.516   2.259   1.620  2.1679 -1.4827 -1.9010
  189MOL0     H25491  12.541   2.389   1.349 -1.5973 -1.5400  0.2050
  189MOL0     H25492  12.634   2.256   1.399 -1.5528 -2.7201  0.5984
  189MOL0     H25493  12.601   2.527   1.552 -0.9496  0.2822 -0.2177
  189MOL0     H25494  12.735   2.413   1.579 -0.0025 -0.8979  0.1785
  189MOL0     H25495  11.630   2.188   1.289 -0.7778 -0.4741 -2.2362
  189MOL0     H25496  11.453   2.079   1.171 -2.0424 -0.7726  0.4418
  189MOL0     H25497  11.051   1.823   1.337 -0.3026 -0.6055  0.0462
  189MOL0     H25498  10.811   1.756   1.290 -1.0714 -1.2794 -0.4687
  189MOL0     H25499   9.673   0.626   1.799 -1.4730 -1.8781 -0.4240
  189MOL0     H25500   9.452   0.502   1.847  0.4772 -2.2874  0.5362
  189MOL0     H25501   9.031   0.471   2.316 -0.0313 -0.9138  0.8674
  189MOL0     H25502   8.860   0.305   2.353 -0.8812  2.6135 -0.9622
  189MOL0     H25503   8.697   0.172   2.265  1.5563  0.6561  0.2164
  189MOL0     H25504   8.771   0.084   2.404 -0.2086  0.2119  0.0113
  189MOL0     H25505   8.639  -0.076   2.399  0.8437  0.2994 -0.1543
  189MOL0     H25506   8.689  -0.116   2.241 -2.7306 -1.8801 -0.3204
  189MOL0     H25507   8.498   0.030   2.161 -1.9165  1.3105  1.0587
  189MOL0     H25508   8.469   0.063   2.340 -0.4386  0.8644 -1.7736
  189MOL0     H25509   8.317  -0.100   2.215 -0.5213 -3.8934 -0.9177
  189MOL0     H25510   8.445  -0.203   2.189  0.6386 -0.6050  0.6334
  189MOL0     H25511   8.335  -0.240   2.606  0.9304  1.1604  0.1784
  189MOL0     H25512   9.053   0.035   2.097 -2.1258  0.4786 -1.5933
  189MOL0     H25513   9.279   0.233   1.945 -2.6593  0.8317  1.1391
  189MOL0     H25514   9.387   0.196   2.090  1.7788 -0.4686 -2.3088
  189MOL0     H25515   9.268   0.078   2.011  0.6962  0.3067 -3.1984
  190MOL0     O25516   5.344   2.776   6.052  0.0978  0.0934  0.0276
  190MOL0     C25517   5.266   2.684   6.079 -0.4139  0.1371  0.7557
  190MOL0     O25518   5.299   2.553   6.108  0.2163 -0.3152  0.1305
  190MOL0     C25519   5.425   2.511   6.094  1.0711  0.1930 -0.0436
  190MOL0     C25520   5.470   2.410   6.181 -0.3613  0.5953 -0.6870
  190MOL0     C25521   5.600   2.362   6.179 -0.2049 -0.4199 -0.2522
  190MOL0     C25522   5.698   2.427   6.102 -0.0351  0.2289 -0.2085
  190MOL0     O25523   5.821   2.378   6.120  0.5074  0.2109  0.3406
  190MOL0     C25524   5.925   2.451   6.047  0.4727  1.2456 -0.8107
  190MOL0     C25525   6.065   2.386   6.076  0.1507  1.0537 -0.2292
  190MOL0     C25526   6.185   2.447   6.005 -0.4408 -0.4303 -0.8490
  190MOL0     C25527   6.313   2.375   6.043 -0.6217  1.1276 -0.4476
  190MOL0     C25528   6.431   2.466   6.018  0.2798  0.4156 -0.1018
  190MOL0     C25529   6.570   2.387   5.996 -0.0152 -0.2188 -0.5716
  190MOL0     C25530   6.672   2.478   5.932 -1.2330  0.0511 -0.1498
  190MOL0     C25531   6.811   2.408   5.936 -0.5774 -1.0167  0.1539
  190MOL0     N25532   6.826   2.281   5.870 -0.7157 -0.8536  0.3388
  190MOL0     C25533   6.829   2.280   5.731  0.4859 -0.1920  0.3393
  190MOL0     C25534   6.865   2.149   5.715 -1.0213  0.3752 -0.0031
  190MOL0     C25535   6.878   2.073   5.587  0.0523 -0.1038  1.2390
  190MOL0     C25536   6.751   2.085   5.494 -0.9999 -0.0287 -0.1538
  190MOL0     C25537   6.629   2.016   5.568  0.8877  0.8058  1.0423
  190MOL0     C25538   6.502   2.014   5.487 -0.1921  0.8321  0.7711
  190MOL0     O25539   6.478   2.142   5.435  1.0185 -0.1275 -0.5758
  190MOL0     C25540   6.353   2.181   5.379 -0.1367  0.0030 -0.1122
  190MOL0     C25541   6.347   2.318   5.351  0.7226 -0.0461 -0.4396
  190MOL0     C25542   6.226   2.388   5.318 -0.1857 -0.1923 -0.3531
  190MOL0     C25543   6.107   2.306   5.314  0.3837  0.3050 -0.2996
  190MOL0     C25544   5.975   2.368   5.294 -0.5850 -0.3010  0.0319
  190MOL0     O25545   5.970   2.509   5.306 -1.2051  0.0906 -0.2643
  190MOL0     C25546   5.862   2.591   5.294 -0.1563 -0.2428  0.0147
  190MOL0     C25547   5.896   2.725   5.309 -0.6166 -0.4163 -0.0468
  190MOL0     C25548   5.801   2.824   5.302  0.1187 -0.8660  0.6911
  190MOL0     C25549   5.666   2.793   5.278 -0.5949 -0.2910  0.3641
  190MOL0     O25550   5.562   2.877   5.278  0.0397  0.7328 -0.6487
  190MOL0     C25551   5.580   3.002   5.356 -0.7059 -0.1976  1.0141
  190MOL0     C25552   5.442   3.060   5.337 -0.0459 -0.0219 -0.0426
  190MOL0     C25553   5.425   3.174   5.428 -0.6344  0.7768  0.4921
  190MOL0     C25554   5.298   3.249   5.401  0.1523 -0.8309  0.3352
  190MOL0     C25555   5.292   3.388   5.462  0.7349  0.1276 -1.1708
  190MOL0     C25556   5.164   3.464   5.408 -0.4981  0.7633 -0.7991
  190MOL0     C25557   5.161   3.600   5.472 -0.6878 -0.0332 -0.0443
  190MOL0     C25558   5.021   3.673   5.460  0.8105 -0.3703 -0.1329
  190MOL0    Cl25559   4.949   3.656   5.294  0.1907 -0.4115  0.2642
  190MOL0     C25560   5.633   2.662   5.269  0.2645  0.3636 -0.2423
  190MOL0     C25561   5.725   2.562   5.280  0.4687  0.4080  0.1102
  190MOL0     O25562   5.873   2.298   5.284 -0.1378  0.2452 -0.0356
  190MOL0     C25563   6.116   2.167   5.327  0.8090 -0.7055  0.2032
  190MOL0     C25564   6.238   2.103   5.356 -0.2054 -1.0633 -0.7537
  190MOL0     N25565   6.865   2.078   5.832 -0.2358 -0.0002 -0.2676
  190MOL0     N25566   6.847   2.158   5.926 -0.0943  0.3121  0.1225
  190MOL0     C25567   5.656   2.524   6.014 -0.1407 -0.3908  0.4180
  190MOL0     C25568   5.520   2.556   5.998  0.2205  0.1698 -0.1755
  190MOL0     C25569   5.119   2.720   6.069  0.1453 -0.1359  0.8852
  190MOL0     C25570   5.078   2.855   6.107 -0.1187  0.2555  0.0536
  190MOL0     C25571   4.952   2.901   6.098  0.1504 -0.2881  0.1678
  190MOL0     C25572   4.850   2.819   6.076  0.1370  0.3003  0.2486
  190MOL0     O25573   4.722   2.872   6.091  0.3519  0.0124  0.3760
  190MOL0     C25574   4.605   2.790   6.060 -0.5733 -0.4690  0.2019
  190MOL0     C25575   4.482   2.880   6.079  0.5450  0.5559  0.2578
  190MOL0     C25576   4.458   2.903   6.235 -0.4574 -1.1555 -0.1905
  190MOL0     C25577   4.354   3.009   6.255  0.1046  0.1106 -0.0168
  190MOL0     C25578   4.299   3.009   6.387 -0.1020  0.2718 -0.1044
  190MOL0     C25579   4.275   3.014   6.506 -0.6257  0.3029 -0.9537
  190MOL0     C25580   4.876   2.685   6.053 -0.2333  0.4875 -0.0417
  190MOL0     C25581   5.012   2.631   6.039 -0.5670  0.1589 -0.4744
  190MOL0     C25582   5.028   2.478   6.001  0.5898 -0.5788 -0.6745
  190MOL0     H25583   5.412   2.359   6.257  3.4649 -1.6947  0.9632
  190MOL0     H25584   5.620   2.285   6.252 -0.3243  0.2984  0.5612
  190MOL0     H25585   5.906   2.450   5.940  1.2465  0.2335 -0.9548
  190MOL0     H25586   5.927   2.557   6.075  1.1780  1.4516 -1.6276
  190MOL0     H25587   6.055   2.280   6.049 -3.2076  1.3397 -0.4377
  190MOL0     H25588   6.080   2.386   6.184 -0.6257 -0.5123 -0.0975
  190MOL0     H25589   6.184   2.554   6.025  1.2461  0.1129 -3.1750
  190MOL0     H25590   6.173   2.440   5.896  1.3543  0.2523 -1.1266
  190MOL0     H25591   6.302   2.347   6.149  0.3289  1.4554 -0.2483
  190MOL0     H25592   6.320   2.283   5.984 -0.3369  1.3048 -0.6923
  190MOL0     H25593   6.432   2.514   5.919  0.7442  3.8859  1.4603
  190MOL0     H25594   6.437   2.551   6.086 -1.3998 -0.0778  0.7021
  190MOL0     H25595   6.604   2.343   6.090 -1.2283  0.1976  0.0881
  190MOL0     H25596   6.547   2.303   5.930  0.1244 -1.5092  0.9507
  190MOL0     H25597   6.684   2.570   5.990  3.0353 -0.4512  0.0853
  190MOL0     H25598   6.645   2.521   5.835 -1.0384 -0.0350 -0.2426
  190MOL0     H25599   6.888   2.478   5.900 -1.2878  0.4225  1.3440
  190MOL0     H25600   6.842   2.397   6.040 -1.4762 -0.8936  0.4416
  190MOL0     H25601   6.823   2.360   5.658 -1.5545  1.2662  1.9473
  190MOL0     H25602   6.964   2.107   5.529 -0.0628 -2.9981 -0.8329
  190MOL0     H25603   6.895   1.968   5.613 -1.1128 -0.7919 -0.5657
  190MOL0     H25604   6.750   2.191   5.470  1.7355  0.1223  0.0947
  190MOL0     H25605   6.771   2.029   5.402 -1.6910 -2.5759  1.1431
  190MOL0     H25606   6.597   2.069   5.659 -2.7400  0.7036  0.0164
  190MOL0     H25607   6.650   1.912   5.594 -3.5606 -0.2795  1.1987
  190MOL0     H25608   6.412   1.980   5.538 -2.8591 -0.8221 -4.3188
  190MOL0     H25609   6.510   1.945   5.402  0.4389 -0.8758  2.1761
  190MOL0     H25610   6.439   2.373   5.333  1.3313 -1.9006 -3.9999
  190MOL0     H25611   6.231   2.491   5.283  1.0594 -0.5805 -1.3925
  190MOL0     H25612   5.997   2.760   5.329 -0.1170 -1.6020 -0.4119
  190MOL0     H25613   5.830   2.928   5.307 -0.2629 -0.7639  0.7969
  190MOL0     H25614   5.619   2.980   5.456  0.2182 -0.5601  0.5813
  190MOL0     H25615   5.651   3.061   5.297 -2.2151 -0.7987 -1.5603
  190MOL0     H25616   5.419   3.078   5.231  0.9459 -3.5897 -0.9870
  190MOL0     H25617   5.363   2.991   5.369 -0.8376  0.6160 -0.5543
  190MOL0     H25618   5.422   3.136   5.531  1.0848  1.8857  0.9970
  190MOL0     H25619   5.513   3.233   5.398  0.7116 -3.0498 -4.3385
  190MOL0     H25620   5.211   3.193   5.437  0.0728 -0.7948  0.2012
  190MOL0     H25621   5.290   3.252   5.292  1.6931  1.6822  0.2095
  190MOL0     H25622   5.381   3.444   5.434  1.2017  0.2695  0.4795
  190MOL0     H25623   5.293   3.395   5.571 -1.0232  0.8328 -1.1671
  190MOL0     H25624   5.164   3.467   5.299  3.4909  1.0032 -0.9342
  190MOL0     H25625   5.071   3.410   5.427 -1.0631  1.1797 -2.3003
  190MOL0     H25626   5.247   3.658   5.439 -0.3694 -0.9156 -0.8126
  190MOL0     H25627   5.173   3.583   5.579 -0.1704 -0.5318 -0.1745
  190MOL0     H25628   4.952   3.637   5.537 -1.1775 -1.3526 -2.2289
  190MOL0     H25629   5.036   3.780   5.478 -0.9154  0.4896 -3.0680
  190MOL0     H25630   5.527   2.639   5.268 -0.0228  1.5453  0.9048
  190MOL0     H25631   5.701   2.459   5.256 -2.9833  0.5579  2.2840
  190MOL0     H25632   6.025   2.109   5.314  0.6957 -0.9725  1.8800
  190MOL0     H25633   6.241   1.995   5.365 -0.0819 -1.0084 -0.1020
  190MOL0     H25634   5.725   2.572   5.946 -0.0571 -1.3580 -0.1949
  190MOL0     H25635   5.483   2.629   5.927  1.1088  0.1284 -0.7097
  190MOL0     H25636   5.160   2.918   6.138  1.8361 -2.3175  0.4597
  190MOL0     H25637   4.932   3.005   6.123  2.8989  0.1269  0.9273
  190MOL0     H25638   4.591   2.705   6.128  1.2653 -1.7384 -0.9360
  190MOL0     H25639   4.622   2.756   5.958  1.0212  1.1838 -0.1257
  190MOL0     H25640   4.396   2.838   6.027  0.1274  0.1939  1.2201
  190MOL0     H25641   4.503   2.975   6.027  3.6239 -1.4495 -2.6064
  190MOL0     H25642   4.548   2.945   6.281  0.3129  0.8535 -3.2223
  190MOL0     H25643   4.422   2.813   6.286  1.4383  0.0001  3.5670
  190MOL0     H25644   4.406   3.104   6.241 -0.6511  0.5170 -0.1076
  190MOL0     H25645   4.280   3.003   6.174  1.9210 -1.7090 -1.6707
  190MOL0     H25646   4.260   3.024   6.611  0.4823  3.4089 -0.9961
  190MOL0     H25647   4.787   2.623   6.059  0.8231 -1.0218  0.4672
  190MOL0     H25648   5.113   2.462   5.934  1.6250 -0.8663  0.6360
  190MOL0     H25649   5.049   2.420   6.092  1.4408  1.9129  0.8352
  190MOL0     H25650   4.938   2.426   5.967 -1.2573  1.2225  1.1824
  191MOL0     O25651   0.048   5.108   2.969 -0.2026 -0.0329  0.5040
  191MOL0     C25652   0.066   5.111   3.091 -0.6107  0.4292  0.3496
  191MOL0     O25653   0.014   5.202   3.174 -0.0980  0.5193 -0.0479
  191MOL0     C25654  -0.058   5.300   3.113  0.4268  0.1241 -0.1835
  191MOL0     C25655   0.011   5.415   3.078 -0.2143  0.9116  0.4315
  191MOL0     C25656  -0.056   5.535   3.048 -0.2398 -0.0071  0.9373
  191MOL0     C25657  -0.193   5.539   3.073  0.0585 -0.8974  0.4013
  191MOL0     O25658  -0.246   5.664   3.059  0.1102 -0.5207 -0.5252
  191MOL0     C25659  -0.393   5.679   3.054 -0.3010 -0.5806 -0.0162
  191MOL0     C25660  -0.423   5.825   3.006 -0.9625 -0.9219 -0.2021
  191MOL0     C25661  -0.574   5.855   2.983  0.7948  0.6003  0.9488
  191MOL0     C25662  -0.599   6.008   2.958 -0.4992  0.0115 -0.2466
  191MOL0     C25663  -0.744   6.051   2.951 -0.2088  0.0714 -0.0251
  191MOL0     C25664  -0.750   6.202   2.928 -0.1034 -0.2542 -0.5823
  191MOL0     C25665  -0.898   6.245   2.949 -0.2128 -0.2600  0.3868
  191MOL0     C25666  -0.919   6.389   2.922 -0.5898 -0.1279  0.3108
  191MOL0     N25667  -1.056   6.439   2.930  0.0527  0.2008 -0.1104
  191MOL0     C25668  -1.088   6.573   2.910  0.1212 -0.1023  0.2524
  191MOL0     C25669  -1.218   6.586   2.950 -1.5768  0.1349 -0.0641
  191MOL0     C25670  -1.311   6.701   2.957  0.2038 -0.0644 -1.5979
  191MOL0     C25671  -1.456   6.668   2.944  0.5874  0.0299 -0.8343
  191MOL0     C25672  -1.543   6.800   2.923  0.4164  0.6154  0.6488
  191MOL0     C25673  -1.688   6.755   2.907  0.0409  0.4919 -0.6870
  191MOL0     O25674  -1.759   6.876   2.899  0.4837 -0.3175 -0.1283
  191MOL0     C25675  -1.896   6.883   2.920 -0.0443  0.1303  0.0033
  191MOL0     C25676  -1.952   7.004   2.967 -0.5473 -0.8735  0.2380
  191MOL0     C25677  -2.087   7.008   2.998  0.0468  0.2215 -0.0414
  191MOL0     C25678  -2.168   6.889   2.996 -0.3242  0.0456 -0.2250
  191MOL0     C25679  -2.315   6.900   3.036  0.4444 -0.9009 -0.7858
  191MOL0     O25680  -2.363   7.029   3.071  0.7497  0.6301  0.2156
  191MOL0     C25681  -2.498   7.054   3.104 -0.3453  0.2858  0.3789
  191MOL0     C25682  -2.529   7.117   3.223  0.1673 -0.0474 -0.3166
  191MOL0     C25683  -2.657   7.113   3.262  0.5986 -0.8803  0.1002
  191MOL0     C25684  -2.767   7.074   3.183 -0.5241  0.4122 -0.3784
  191MOL0     O25685  -2.899   7.104   3.221 -0.3181 -0.3724 -0.1796
  191MOL0     C25686  -3.005   7.036   3.166 -0.1539 -0.0301 -1.0278
  191MOL0     C25687  -3.139   7.080   3.241  0.1278  0.9281  0.8858
  191MOL0     C25688  -3.261   7.042   3.148  0.4689  0.6450  0.1711
  191MOL0     C25689  -3.308   6.896   3.175 -0.2068  0.5741  0.2889
  191MOL0     C25690  -3.425   6.859   3.082  0.1872  0.2868  0.6813
  191MOL0     C25691  -3.451   6.709   3.087 -0.2125  0.2681 -0.0835
  191MOL0     C25692  -3.523   6.666   3.217 -0.7459  0.4479 -0.2815
  191MOL0     C25693  -3.629   6.558   3.186 -0.3794 -0.3419 -0.2923
  191MOL0    Cl25694  -3.776   6.638   3.114  0.1100 -0.3573 -0.0729
  191MOL0     C25695  -2.736   7.003   3.062  0.5421 -0.2905  0.1208
  191MOL0     C25696  -2.600   6.996   3.021  0.0857  0.3647  0.4010
  191MOL0     O25697  -2.384   6.798   3.029 -0.0547 -0.1247 -0.1793
  191MOL0     C25698  -2.110   6.765   2.949  0.3107  0.1184 -1.0726
  191MOL0     C25699  -1.975   6.765   2.916 -0.9210 -0.4473  0.9055
  191MOL0     N25700  -1.256   6.457   2.981  0.6765  0.3069 -0.0924
  191MOL0     N25701  -1.164   6.371   2.972 -0.2067 -0.3088 -0.0912
  191MOL0     C25702  -0.266   5.422   3.109  0.5726 -0.5936  0.3141
  191MOL0     C25703  -0.197   5.300   3.123  0.5835  0.2200  0.9720
  191MOL0     C25704   0.128   4.991   3.148  0.4044  0.9000 -0.6947
  191MOL0     C25705   0.082   4.936   3.278 -0.3644  0.9196 -0.3054
  191MOL0     C25706   0.130   4.808   3.327 -0.4049 -0.2923  0.1005
  191MOL0     C25707   0.230   4.740   3.250  0.4100  0.0645 -1.1351
  191MOL0     O25708   0.280   4.618   3.289  0.3573  0.0988 -0.2024
  191MOL0     C25709   0.184   4.524   3.369 -0.0866 -0.0698 -0.1342
  191MOL0     C25710   0.056   4.485   3.300 -0.4713  0.2516 -0.4861
  191MOL0     C25711  -0.044   4.412   3.389  0.3992  0.2210 -0.6449
  191MOL0     C25712  -0.129   4.495   3.471 -0.5617 -0.5207  0.6534
  191MOL0     C25713  -0.219   4.592   3.396  0.1216  0.8152  0.1430
  191MOL0     C25714  -0.279   4.683   3.341 -0.7147 -0.3725 -0.1999
  191MOL0     C25715   0.282   4.799   3.140  1.0497 -0.6413  0.7481
  191MOL0     C25716   0.240   4.927   3.086 -0.3552  1.5889 -0.3451
  191MOL0     C25717   0.300   4.963   2.949 -0.0220  0.4934 -0.5482
  191MOL0     H25718   0.120   5.409   3.077 -0.2836 -2.0860  0.6036
  191MOL0     H25719  -0.010   5.630   3.020  0.2229 -0.1509  1.2101
  191MOL0     H25720  -0.435   5.616   2.974 -2.0613  1.1890 -0.5646
  191MOL0     H25721  -0.438   5.657   3.151  0.5521  0.4930  0.6311
  191MOL0     H25722  -0.371   5.845   2.912 -0.0373  0.2025  0.5093
  191MOL0     H25723  -0.384   5.895   3.081  0.5551  0.6731 -2.3513
  191MOL0     H25724  -0.645   5.818   3.057  0.3997  1.3704  0.9685
  191MOL0     H25725  -0.608   5.805   2.893 -1.1684  1.5823  1.0867
  191MOL0     H25726  -0.554   6.065   3.040 -0.2104 -2.5901  1.5196
  191MOL0     H25727  -0.551   6.044   2.866  1.5364  0.8209  1.0680
  191MOL0     H25728  -0.798   5.997   2.873  1.3491 -0.3436 -0.8526
  191MOL0     H25729  -0.789   6.022   3.047  0.5663 -4.1649 -0.7321
  191MOL0     H25730  -0.680   6.258   2.990 -1.0401 -0.3297  0.5779
  191MOL0     H25731  -0.730   6.218   2.821 -1.6067 -0.3963 -0.9085
  191MOL0     H25732  -0.923   6.232   3.054  2.0467 -0.5599  0.9352
  191MOL0     H25733  -0.959   6.168   2.900  3.0535 -3.4841  0.9452
  191MOL0     H25734  -0.873   6.446   3.003  1.8901 -1.5011 -0.0079
  191MOL0     H25735  -0.877   6.430   2.829 -3.5422  1.6227 -0.3858
  191MOL0     H25736  -1.025   6.657   2.882 -1.0542  0.1351 -1.8780
  191MOL0     H25737  -1.289   6.760   3.045 -0.0411 -0.6006 -1.1713
  191MOL0     H25738  -1.281   6.767   2.875 -1.8343  0.6646 -1.8049
  191MOL0     H25739  -1.472   6.606   2.856 -2.1332 -2.9128  1.5020
  191MOL0     H25740  -1.485   6.617   3.036 -1.0280 -0.3051 -1.5113
  191MOL0     H25741  -1.520   6.863   2.837 -4.1752 -0.2021 -1.5120
  191MOL0     H25742  -1.540   6.862   3.013  1.1928 -0.3378  1.2957
  191MOL0     H25743  -1.718   6.703   2.998  1.2416  0.6692 -0.1781
  191MOL0     H25744  -1.704   6.701   2.813 -0.0177  1.0618 -1.0099
  191MOL0     H25745  -1.896   7.097   2.961  1.5274 -2.1241 -1.1235
  191MOL0     H25746  -2.122   7.109   3.017  1.6696  1.3769 -2.5992
  191MOL0     H25747  -2.443   7.151   3.280  0.6977 -0.0773 -1.0895
  191MOL0     H25748  -2.682   7.158   3.357 -1.9820 -4.6661  1.4472
  191MOL0     H25749  -3.007   7.057   3.058 -0.6487  1.5366 -0.7409
  191MOL0     H25750  -3.005   6.927   3.174 -1.1918 -0.2186 -2.9407
  191MOL0     H25751  -3.137   7.039   3.343  2.2427 -1.8472 -0.1399
  191MOL0     H25752  -3.139   7.188   3.255 -0.3959  1.0250  0.2081
  191MOL0     H25753  -3.342   7.113   3.168  0.7024  1.2917 -1.0898
  191MOL0     H25754  -3.222   7.053   3.047 -0.6044  0.0588 -0.3264
  191MOL0     H25755  -3.334   6.878   3.279 -1.6912  2.2259  0.2642
  191MOL0     H25756  -3.222   6.831   3.161 -0.5861 -0.0502  0.7955
  191MOL0     H25757  -3.394   6.901   2.986 -0.1325  1.9875  1.2775
  191MOL0     H25758  -3.524   6.905   3.097 -0.5133 -0.9725  0.0999
  191MOL0     H25759  -3.515   6.687   3.001  0.0788  2.5678 -0.9432
  191MOL0     H25760  -3.362   6.646   3.081 -0.6106 -0.6545  2.5561
  191MOL0     H25761  -3.573   6.748   3.269  0.5040  2.9256 -2.7531
  191MOL0     H25762  -3.453   6.614   3.283 -1.4120 -0.5844 -0.3545
  191MOL0     H25763  -3.583   6.480   3.124 -0.9516 -2.6641  2.0578
  191MOL0     H25764  -3.669   6.508   3.274 -3.4955  1.0779 -0.7722
  191MOL0     H25765  -2.818   6.958   3.007 -0.3574 -0.7659  1.7765
  191MOL0     H25766  -2.578   6.941   2.930  2.0655  0.2335  0.9279
  191MOL0     H25767  -2.175   6.678   2.944  1.0072 -0.3613 -1.9969
  191MOL0     H25768  -1.919   6.680   2.879 -0.2608  0.8676 -1.3041
  191MOL0     H25769  -0.370   5.433   3.139  1.0710  1.6556  1.3715
  191MOL0     H25770  -0.260   5.220   3.160  0.5837  0.1343  0.7906
  191MOL0     H25771   0.005   4.984   3.337 -0.4158 -0.1922  0.5787
  191MOL0     H25772   0.083   4.752   3.407 -0.3215  0.3486  0.6033
  191MOL0     H25773   0.167   4.585   3.458  1.1330  2.7566 -1.6990
  191MOL0     H25774   0.231   4.434   3.409  1.1262  1.0764  1.1203
  191MOL0     H25775   0.071   4.415   3.217 -0.1024 -3.2881  2.3242
  191MOL0     H25776   0.003   4.576   3.271 -1.8762  0.8364  3.3448
  191MOL0     H25777   0.014   4.339   3.446 -0.7494 -2.3667 -2.5830
  191MOL0     H25778  -0.106   4.348   3.325 -0.2669  0.0841  0.1184
  191MOL0     H25779  -0.179   4.425   3.539 -0.9684 -3.0328 -2.0343
  191MOL0     H25780  -0.058   4.550   3.534 -0.6887 -1.9286  2.0917
  191MOL0     H25781  -0.327   4.767   3.295  0.3093  0.0433 -0.5309
  191MOL0     H25782   0.350   4.729   3.093 -0.6074 -2.6236  1.1313
  191MOL0     H25783   0.225   4.977   2.871  0.6908  4.0763 -0.7485
  191MOL0     H25784   0.354   5.058   2.957 -3.6000  2.7994 -1.3242
  191MOL0     H25785   0.365   4.885   2.908 -0.9024 -1.2971  1.2998
  192MOL0     O25786   7.096  11.099   8.726 -1.1152 -0.2767  0.3891
  192MOL0     C25787   7.110  11.196   8.802 -0.0127  0.9414 -0.2272
  192MOL0     O25788   7.007  11.248   8.871  0.0578 -0.2908  0.2316
  192MOL0     C25789   6.878  11.213   8.846 -0.4703  0.1204  0.3012
  192MOL0     C25790   6.797  11.205   8.946 -0.1948 -0.4903 -0.2290
  192MOL0     C25791   6.663  11.217   8.931  0.2367  0.1243 -0.0853
  192MOL0     C25792   6.601  11.217   8.804  0.6882 -0.0979  0.3148
  192MOL0     O25793   6.469  11.206   8.779 -0.3871 -0.1832 -0.1662
  192MOL0     C25794   6.386  11.164   8.886  0.3732  0.0921  0.5910
  192MOL0     C25795   6.239  11.187   8.839  0.4470  0.4580 -0.0532
  192MOL0     C25796   6.145  11.199   8.968  0.5765 -0.5653  0.2735
  192MOL0     C25797   6.002  11.273   8.942  0.2190  0.7122  0.1204
  192MOL0     C25798   5.918  11.175   8.862 -0.9132  0.2103  1.0994
  192MOL0     C25799   5.811  11.104   8.941  0.3054  0.2156  0.2130
  192MOL0     C25800   5.698  11.195   8.957  0.0404  0.6864 -0.1293
  192MOL0     C25801   5.592  11.151   9.053  0.3071  0.1220 -0.1634
  192MOL0     N25802   5.636  11.138   9.192 -0.9071 -0.0743  0.0770
  192MOL0     C25803   5.713  11.234   9.258  0.1781  0.1084  0.4543
  192MOL0     C25804   5.744  11.177   9.375 -0.1412  0.0085  0.8262
  192MOL0     C25805   5.828  11.228   9.488  0.4597 -0.2492  0.6384
  192MOL0     C25806   5.975  11.225   9.450 -0.2662 -0.7574  0.1112
  192MOL0     C25807   6.026  11.085   9.395  0.2192  0.3388  0.9371
  192MOL0     C25808   6.183  11.060   9.383 -0.0693 -0.2245 -0.3493
  192MOL0     O25809   6.245  11.163   9.299 -0.0101  1.3499  0.8334
  192MOL0     C25810   6.377  11.191   9.310  0.3833 -0.2670  0.5498
  192MOL0     C25811   6.427  11.316   9.280 -0.7163  0.1373  0.2635
  192MOL0     C25812   6.563  11.350   9.286 -0.2276 -0.0787  0.3765
  192MOL0     C25813   6.655  11.248   9.331  1.2190 -0.8528  0.7919
  192MOL0     C25814   6.803  11.279   9.334 -0.3332 -0.9047 -0.4267
  192MOL0     O25815   6.882  11.179   9.383  0.2270  0.0912  0.2750
  192MOL0     C25816   7.019  11.200   9.377 -0.5014 -0.4267 -0.2281
  192MOL0     C25817   7.091  11.150   9.273  0.1243  0.2604  0.2800
  192MOL0     C25818   7.228  11.171   9.273 -0.2732  0.5330 -0.7285
  192MOL0     C25819   7.293  11.221   9.379 -0.9832 -0.3331  0.6394
  192MOL0     O25820   7.427  11.227   9.392  0.4815 -0.3622  0.6472
  192MOL0     C25821   7.477  11.366   9.389  0.6364  0.2092 -0.2237
  192MOL0     C25822   7.628  11.363   9.383  0.0891 -0.3945 -0.1615
  192MOL0     C25823   7.673  11.511   9.360 -0.7922 -0.2497 -0.5120
  192MOL0     C25824   7.820  11.540   9.372  0.1704  0.0214  0.5183
  192MOL0     C25825   7.899  11.484   9.254  0.8214 -0.1944 -0.3638
  192MOL0     C25826   8.042  11.521   9.286 -0.4364 -1.3136  0.6798
  192MOL0     C25827   8.147  11.509   9.171  0.0509 -0.2030  0.3893
  192MOL0     C25828   8.222  11.377   9.151 -0.2557  1.3590  0.5988
  192MOL0    Cl25829   8.358  11.384   9.036  0.1646 -0.1752  0.3421
  192MOL0     C25830   7.215  11.276   9.478  0.4505  0.6341 -0.0395
  192MOL0     C25831   7.080  11.266   9.478  0.1163 -0.3341 -0.6662
  192MOL0     O25832   6.845  11.387   9.302  0.1540  0.0250 -0.3517
  192MOL0     C25833   6.608  11.123   9.368 -0.7591  0.4118  0.2187
  192MOL0     C25834   6.466  11.091   9.358 -0.7968 -0.7475  0.0652
  192MOL0     N25835   5.688  11.050   9.374  0.3880  0.6645 -0.1843
  192MOL0     N25836   5.625  11.027   9.262  0.0193 -0.2548  0.2415
  192MOL0     C25837   6.686  11.231   8.700 -0.8214  0.0296  0.6218
  192MOL0     C25838   6.828  11.229   8.715 -0.0386 -1.3546 -0.3415
  192MOL0     C25839   7.246  11.242   8.838  0.1309 -0.5600  0.4315
  192MOL0     C25840   7.253  11.335   8.941  1.1071  0.6595 -0.7403
  192MOL0     C25841   7.379  11.379   8.991 -0.1947 -0.4966  0.1292
  192MOL0     C25842   7.501  11.329   8.944  0.3753  0.4987  0.5441
  192MOL0     O25843   7.615  11.372   9.012 -0.3137 -0.7260  1.1887
  192MOL0     C25844   7.752  11.352   8.954  0.0372  1.0811  0.2304
  192MOL0     C25845   7.758  11.427   8.817  0.5142 -0.1264  0.4683
  192MOL0     C25846   7.835  11.353   8.711  0.5041 -0.6836 -0.1877
  192MOL0     C25847   7.981  11.333   8.762 -0.2267 -0.5658  0.4529
  192MOL0     C25848   8.048  11.464   8.781  0.8277  0.1967  0.5814
  192MOL0     C25849   8.107  11.563   8.799  0.3332 -0.1196  0.5278
  192MOL0     C25850   7.498  11.241   8.835 -0.0974  0.0697  0.5539
  192MOL0     C25851   7.372  11.203   8.772  0.1693  0.1626 -0.0062
  192MOL0     C25852   7.377  11.155   8.627  0.3840  0.0104 -0.1930
  192MOL0     H25853   6.839  11.210   9.046 -1.4953  1.7014  0.2652
  192MOL0     H25854   6.615  11.211   9.028  0.6714  3.2917  0.4448
  192MOL0     H25855   6.389  11.057   8.911 -0.5955  0.7579  4.0570
  192MOL0     H25856   6.410  11.213   8.981 -0.3560  0.7156  0.4593
  192MOL0     H25857   6.220  11.109   8.766  0.2223  0.9730 -0.5537
  192MOL0     H25858   6.239  11.287   8.794  3.4765  0.4518 -0.2443
  192MOL0     H25859   6.195  11.264   9.040 -1.4683  2.1807 -0.6179
  192MOL0     H25860   6.127  11.103   9.017 -1.5845 -0.5285 -0.3322
  192MOL0     H25861   5.947  11.296   9.033 -0.5741 -1.0248  0.1309
  192MOL0     H25862   6.010  11.368   8.889  2.4602  1.4047  1.5474
  192MOL0     H25863   5.871  11.225   8.777 -0.2888  1.1586  1.3067
  192MOL0     H25864   5.982  11.093   8.829 -0.2301  0.2802  2.2215
  192MOL0     H25865   5.773  11.010   8.901  1.3857 -1.0373  2.0268
  192MOL0     H25866   5.837  11.065   9.039 -2.1919 -1.4913  0.2830
  192MOL0     H25867   5.644  11.204   8.862  4.6947 -1.3728 -3.3392
  192MOL0     H25868   5.732  11.296   8.984 -0.5974  0.8469  0.0883
  192MOL0     H25869   5.514  11.227   9.046  0.5399  0.5649  1.6708
  192MOL0     H25870   5.547  11.059   9.013 -0.6140  0.4794  0.0342
  192MOL0     H25871   5.735  11.336   9.226  1.2808 -0.4281 -0.5873
  192MOL0     H25872   5.798  11.327   9.523  1.2477 -0.0026  0.6327
  192MOL0     H25873   5.820  11.159   9.572  1.4985  0.0055  0.9587
  192MOL0     H25874   6.002  11.295   9.370  0.8913 -0.1378  1.0178
  192MOL0     H25875   6.032  11.245   9.540 -1.4913 -0.0267  0.7605
  192MOL0     H25876   5.972  11.057   9.304 -1.7645 -1.5310  2.5590
  192MOL0     H25877   5.994  11.011   9.469  1.7200 -0.5057  0.7704
  192MOL0     H25878   6.187  10.963   9.332  2.0299 -0.2092 -0.3145
  192MOL0     H25879   6.236  11.052   9.478  0.7982  0.2798 -0.7747
  192MOL0     H25880   6.366  11.392   9.233  0.3863  1.0623  0.2654
  192MOL0     H25881   6.597  11.445   9.246  0.7912 -1.0887 -1.2282
  192MOL0     H25882   7.044  11.112   9.183 -2.0228  0.8681  1.0790
  192MOL0     H25883   7.285  11.120   9.196 -1.0137 -0.4344 -0.6494
  192MOL0     H25884   7.432  11.423   9.307  1.2193  1.6104  0.4049
  192MOL0     H25885   7.450  11.426   9.476  0.8679  2.0652 -1.3774
  192MOL0     H25886   7.667  11.326   9.477  0.1249  0.9041  0.3561
  192MOL0     H25887   7.668  11.292   9.310 -0.6620 -1.2640  0.2492
  192MOL0     H25888   7.639  11.547   9.262  0.6056  0.5462 -0.7392
  192MOL0     H25889   7.607  11.570   9.423 -0.2973  2.2486 -2.1889
  192MOL0     H25890   7.858  11.504   9.468 -0.9715  1.2885  1.4870
  192MOL0     H25891   7.840  11.648   9.370  3.0926 -0.4524 -0.8730
  192MOL0     H25892   7.856  11.534   9.167 -1.7978 -0.1729  0.8297
  192MOL0     H25893   7.887  11.376   9.243 -1.1557  0.1927 -2.9116
  192MOL0     H25894   8.048  11.626   9.317  1.0187 -1.5833  1.4035
  192MOL0     H25895   8.076  11.462   9.372 -0.8133 -1.2895  0.8462
  192MOL0     H25896   8.227  11.583   9.179  0.3461 -0.5454  0.6241
  192MOL0     H25897   8.090  11.534   9.082  1.3062  0.8274 -0.1496
  192MOL0     H25898   8.265  11.342   9.246  0.3352 -2.3875 -0.8634
  192MOL0     H25899   8.142  11.310   9.117  1.4512 -0.7416  0.4802
  192MOL0     H25900   7.262  11.338   9.555  1.7029  0.3112 -0.5093
  192MOL0     H25901   7.027  11.309   9.562  1.7715  1.4704 -0.4711
  192MOL0     H25902   6.674  11.045   9.405  0.2004  1.0112 -0.1949
  192MOL0     H25903   6.438  10.993   9.396 -1.2247 -1.8225 -2.7501
  192MOL0     H25904   6.637  11.247   8.604 -2.7789 -1.5441  1.3059
  192MOL0     H25905   6.900  11.246   8.636 -0.5993 -3.0089 -1.2555
  192MOL0     H25906   7.162  11.365   8.991  0.6839  0.1477 -1.1971
  192MOL0     H25907   7.382  11.445   9.077 -0.8134 -2.1173  1.4652
  192MOL0     H25908   7.777  11.248   8.930  0.5319  1.3998 -0.6849
  192MOL0     H25909   7.830  11.393   9.019  1.7132  1.8748 -2.1170
  192MOL0     H25910   7.795  11.529   8.836 -0.6361  0.0736  1.8253
  192MOL0     H25911   7.660  11.454   8.775  1.0260 -0.7654 -1.2100
  192MOL0     H25912   7.836  11.403   8.614  0.2894 -0.7408 -0.2179
  192MOL0     H25913   7.788  11.257   8.688  0.1044 -0.9158  1.5030
  192MOL0     H25914   7.989  11.262   8.845  3.5400  1.2129  1.8468
  192MOL0     H25915   8.042  11.277   8.690  2.5366 -0.0762  2.2639
  192MOL0     H25916   8.160  11.655   8.815 -2.1057  1.5623 -0.6226
  192MOL0     H25917   7.585  11.200   8.787 -0.1065 -0.8874  1.3222
  192MOL0     H25918   7.364  11.047   8.632 -1.7933  0.2391  0.1744
  192MOL0     H25919   7.291  11.200   8.577 -1.0489 -0.8801  1.3961
  192MOL0     H25920   7.471  11.179   8.575 -1.0132 -0.0088 -2.9270
  193MOL0     O25921   4.239   5.250   7.894 -0.9750  0.8442 -0.5330
  193MOL0     C25922   4.209   5.340   7.816 -0.0094  0.4941  0.2669
  193MOL0     O25923   4.283   5.451   7.788 -0.2028 -0.2578  0.8449
  193MOL0     C25924   4.411   5.458   7.846  0.3375 -0.5598  0.1042
  193MOL0     C25925   4.518   5.394   7.784  0.2508  0.2102  0.2145
  193MOL0     C25926   4.636   5.389   7.847 -0.2048  0.2715 -0.2086
  193MOL0     C25927   4.658   5.456   7.967  0.3194  0.6361  0.8162
  193MOL0     O25928   4.773   5.441   8.043 -0.6282 -0.3348  0.2997
  193MOL0     C25929   4.867   5.336   8.001 -0.5091  1.0997 -0.3756
  193MOL0     C25930   4.983   5.348   8.100  0.2440  0.9592 -0.0808
  193MOL0     C25931   5.078   5.458   8.046 -0.4314  0.4021  0.8113
  193MOL0     C25932   5.190   5.493   8.135 -0.5975  0.0961  0.2389
  193MOL0     C25933   5.307   5.395   8.118 -0.1662  0.0444  0.1086
  193MOL0     C25934   5.431   5.413   8.224  0.2158  0.2090  0.9265
  193MOL0     C25935   5.500   5.547   8.208  0.2941  0.5525 -0.0331
  193MOL0     C25936   5.602   5.562   8.315 -0.4758  0.8805  0.3628
  193MOL0     N25937   5.638   5.697   8.330  0.6764 -0.2245 -0.4578
  193MOL0     C25938   5.753   5.758   8.292 -0.3531  0.0164  0.0517
  193MOL0     C25939   5.757   5.879   8.356  0.4616 -0.3385  0.1300
  193MOL0     C25940   5.882   5.965   8.378 -0.5055  0.6310  0.5167
  193MOL0     C25941   5.968   5.912   8.495  0.4833 -1.0355  0.4417
  193MOL0     C25942   6.062   5.800   8.444  0.6253  0.2753  0.8981
  193MOL0     C25943   6.185   5.784   8.539  0.4983 -0.7981 -0.2074
  193MOL0     O25944   6.260   5.898   8.539 -0.0339  1.2001 -0.0262
  193MOL0     C25945   6.374   5.906   8.619  0.0712 -0.6249  0.1107
  193MOL0     C25946   6.425   5.816   8.710 -1.3534  0.1775 -1.0929
  193MOL0     C25947   6.529   5.851   8.793  0.1000 -0.7905 -0.0752
  193MOL0     C25948   6.599   5.973   8.784  0.8842 -0.2854  0.8300
  193MOL0     C25949   6.725   6.005   8.866 -0.1210  0.1436  0.4170
  193MOL0     O25950   6.757   6.136   8.886 -0.2499 -0.4744  0.4132
  193MOL0     C25951   6.875   6.174   8.964  0.1902  0.0369  0.2452
  193MOL0     C25952   6.994   6.100   8.960 -0.5535 -0.2391  0.9729
  193MOL0     C25953   7.109   6.149   9.016  0.2339 -0.0501  0.0022
  193MOL0     C25954   7.116   6.282   9.060 -0.0382 -0.4160  0.6062
  193MOL0     O25955   7.242   6.327   9.098 -0.0011 -0.1002 -0.3434
  193MOL0     C25956   7.251   6.475   9.107  0.3354  0.6909 -0.2092
  193MOL0     C25957   7.395   6.519   9.093  0.0679 -0.1188  0.0717
  193MOL0     C25958   7.502   6.462   9.189  1.3445  0.6466 -0.2814
  193MOL0     C25959   7.533   6.310   9.170  0.4110 -0.4190 -0.3160
  193MOL0     C25960   7.679   6.267   9.199  0.1065  0.4146  0.2119
  193MOL0     C25961   7.782   6.320   9.107 -0.9052  0.1422 -0.7404
  193MOL0     C25962   7.921   6.315   9.167  0.6754 -0.0001 -0.2713
  193MOL0     C25963   8.019   6.397   9.083 -0.1890 -0.2190 -0.1377
  193MOL0    Cl25964   8.050   6.303   8.937 -0.3315  0.4040 -0.1007
  193MOL0     C25965   6.997   6.360   9.057 -0.0165 -1.2485 -0.3560
  193MOL0     C25966   6.876   6.310   9.009 -0.1920 -0.3610  0.1959
  193MOL0     O25967   6.772   5.910   8.932  0.4345  0.5189 -0.1324
  193MOL0     C25968   6.547   6.069   8.695 -0.2652 -0.0608  0.4859
  193MOL0     C25969   6.435   6.033   8.612 -0.5697  0.1135 -0.3961
  193MOL0     N25970   5.641   5.892   8.426  0.3214  0.1738 -0.3552
  193MOL0     N25971   5.569   5.787   8.412 -0.2160 -0.4376  1.2907
  193MOL0     C25972   4.554   5.536   8.015  0.2200 -0.0202  0.1856
  193MOL0     C25973   4.430   5.542   7.947 -0.9748 -0.1053 -0.2900
  193MOL0     C25974   4.082   5.334   7.746  0.4571  0.3875  0.1886
  193MOL0     C25975   4.027   5.454   7.682  0.6353  0.7254  0.9617
  193MOL0     C25976   3.920   5.460   7.586  0.4466  0.1547 -1.3623
  193MOL0     C25977   3.841   5.344   7.572  0.3091  0.2365  0.3855
  193MOL0     O25978   3.744   5.331   7.478 -0.8220 -0.3078  0.6810
  193MOL0     C25979   3.708   5.443   7.397 -0.0465 -0.0383 -0.1970
  193MOL0     C25980   3.618   5.539   7.477  0.2054 -0.8677 -0.7488
  193MOL0     C25981   3.473   5.511   7.435 -0.2470 -0.2539 -0.1075
  193MOL0     C25982   3.382   5.594   7.532 -0.4489  0.1963  0.6598
  193MOL0     C25983   3.240   5.562   7.523  0.7818 -0.0098 -0.0906
  193MOL0     C25984   3.121   5.543   7.534  0.5244 -0.1050  0.0165
  193MOL0     C25985   3.886   5.230   7.640 -0.5948 -0.3166  0.9931
  193MOL0     C25986   4.004   5.220   7.720  0.9952  0.0615 -0.4429
  193MOL0     C25987   4.040   5.081   7.776 -0.6384 -0.0115 -1.1938
  193MOL0     H25988   4.506   5.327   7.700 -0.1530  0.3188  0.1851
  193MOL0     H25989   4.711   5.326   7.802 -0.9827  0.6873 -2.1780
  193MOL0     H25990   4.819   5.238   8.017 -0.8968  1.4486  0.7271
  193MOL0     H25991   4.897   5.345   7.897  1.8434 -0.4757  0.0842
  193MOL0     H25992   5.046   5.259   8.089  1.7603  2.1306 -1.4247
  193MOL0     H25993   4.950   5.362   8.203 -0.4296 -3.4737  0.4804
  193MOL0     H25994   5.028   5.555   8.042 -0.1774  0.5603  1.4131
  193MOL0     H25995   5.103   5.436   7.942 -3.7479  0.6814 -0.1694
  193MOL0     H25996   5.230   5.595   8.128  0.9235 -0.3211  2.0227
  193MOL0     H25997   5.156   5.488   8.239 -0.5689  1.2915  0.3231
  193MOL0     H25998   5.272   5.291   8.119 -0.2499  0.0731  0.7420
  193MOL0     H25999   5.344   5.410   8.016 -1.9301  2.6813 -0.2277
  193MOL0     H26000   5.387   5.412   8.323 -0.5753 -1.5961  0.5907
  193MOL0     H26001   5.513   5.340   8.224  1.1614  1.2154  2.4344
  193MOL0     H26002   5.426   5.628   8.199 -0.4939 -0.0311  0.9389
  193MOL0     H26003   5.548   5.554   8.110 -1.6765  1.8818 -0.9678
  193MOL0     H26004   5.556   5.520   8.405  0.2078 -4.1451 -1.3398
  193MOL0     H26005   5.692   5.507   8.286 -2.0389 -1.7076  0.1209
  193MOL0     H26006   5.837   5.710   8.242 -0.1340 -1.5685  1.8169
  193MOL0     H26007   5.948   5.979   8.292  6.0591 -0.3775  4.6519
  193MOL0     H26008   5.842   6.064   8.402  0.2320  1.3330 -1.0012
  193MOL0     H26009   6.020   6.000   8.534 -0.3746  0.8252 -2.3488
  193MOL0     H26010   5.901   5.867   8.569 -0.8557 -0.2410 -0.2433
  193MOL0     H26011   6.089   5.830   8.342 -2.5045  2.4981  0.5696
  193MOL0     H26012   6.007   5.706   8.444  0.4085  0.3997  0.4127
  193MOL0     H26013   6.246   5.698   8.507  0.2779 -1.3029  0.6961
  193MOL0     H26014   6.141   5.761   8.637 -0.1632  0.4816 -0.1935
  193MOL0     H26015   6.375   5.721   8.723 -0.6513  0.1534  2.1592
  193MOL0     H26016   6.558   5.779   8.868  1.7923  1.5556  1.6416
  193MOL0     H26017   6.999   5.999   8.920 -0.5021 -0.8301  2.4112
  193MOL0     H26018   7.191   6.084   9.045  0.5915  1.6305  3.2818
  193MOL0     H26019   7.193   6.523   9.027 -0.7189  0.8689  0.6493
  193MOL0     H26020   7.201   6.492   9.202 -1.3049 -1.2339 -0.6446
  193MOL0     H26021   7.438   6.490   8.996  0.2030 -0.1005  0.1265
  193MOL0     H26022   7.403   6.628   9.088 -1.8378  0.0423 -0.3197
  193MOL0     H26023   7.595   6.517   9.179 -1.3308  5.6111 -1.1354
  193MOL0     H26024   7.469   6.483   9.291  3.6226 -1.0059  0.8668
  193MOL0     H26025   7.505   6.282   9.068 -1.0179  0.1175 -0.1018
  193MOL0     H26026   7.473   6.247   9.236  2.4562 -0.8693  1.2006
  193MOL0     H26027   7.688   6.158   9.197  0.8873  0.4795 -0.1591
  193MOL0     H26028   7.698   6.293   9.303 -0.6214 -1.3953  0.8461
  193MOL0     H26029   7.776   6.274   9.008  0.7573 -0.0898 -0.7614
  193MOL0     H26030   7.762   6.428   9.098  1.6344  0.6618 -1.0349
  193MOL0     H26031   7.949   6.209   9.159 -0.1858 -0.2325 -0.2707
  193MOL0     H26032   7.914   6.360   9.266 -2.3017  0.3958 -0.5626
  193MOL0     H26033   7.970   6.491   9.060  0.2598  0.0239 -0.1051
  193MOL0     H26034   8.114   6.426   9.130  0.1155  0.3991 -1.1062
  193MOL0     H26035   6.995   6.463   9.092  1.3888 -1.4258  0.3133
  193MOL0     H26036   6.792   6.378   9.002  2.6685  3.7378  2.0690
  193MOL0     H26037   6.591   6.167   8.684  0.1950 -0.4749 -1.7375
  193MOL0     H26038   6.394   6.101   8.539 -2.8165  0.8651  1.4127
  193MOL0     H26039   4.566   5.594   8.106 -0.1248  3.6769 -1.9240
  193MOL0     H26040   4.349   5.596   7.995  0.3075  2.2714 -0.6665
  193MOL0     H26041   4.084   5.546   7.693  0.1753  0.9542  1.4632
  193MOL0     H26042   3.911   5.540   7.514  0.1251  0.4289 -1.0176
  193MOL0     H26043   3.650   5.410   7.310 -2.5246  1.4907  0.7718
  193MOL0     H26044   3.790   5.501   7.353 -0.8140 -0.6067 -2.5570
  193MOL0     H26045   3.636   5.644   7.452  0.9850 -1.1196 -1.2604
  193MOL0     H26046   3.633   5.515   7.583  0.5388 -0.4291 -0.6902
  193MOL0     H26047   3.450   5.405   7.446  1.2356 -0.3381  3.4540
  193MOL0     H26048   3.467   5.549   7.332  0.4625 -0.7566 -0.3481
  193MOL0     H26049   3.411   5.571   7.635 -3.1366 -1.7015  1.0964
  193MOL0     H26050   3.385   5.701   7.508 -0.2740  0.0740  0.1264
  193MOL0     H26051   3.019   5.519   7.555  1.5434 -2.1561  3.3530
  193MOL0     H26052   3.822   5.145   7.618 -1.5602  0.7361 -0.4992
  193MOL0     H26053   3.970   5.009   7.734 -2.6814 -0.0374  1.9392
  193MOL0     H26054   4.145   5.057   7.755 -0.4223 -1.1071  0.8855
  193MOL0     H26055   4.028   5.074   7.884 -4.3346  2.7794 -1.2220
  194MOL0     O26056   4.016   1.246   8.784 -0.5577  0.7210 -0.1816
  194MOL0     C26057   3.951   1.216   8.689  0.0599 -0.2419  0.3519
  194MOL0     O26058   4.001   1.184   8.561  0.2561 -0.3027 -0.2130
  194MOL0     C26059   4.132   1.138   8.541  0.0450 -0.2486  0.8817
  194MOL0     C26060   4.216   1.074   8.636  0.2591  0.0329 -0.0982
  194MOL0     C26061   4.346   1.041   8.605  0.6473  0.0497  0.1113
  194MOL0     C26062   4.402   1.082   8.482 -0.7180  0.0796  0.7542
  194MOL0     O26063   4.531   1.044   8.473  0.2009 -0.1921  0.0550
  194MOL0     C26064   4.614   1.136   8.408  0.8718  0.3371  0.2952
  194MOL0     C26065   4.751   1.088   8.448 -0.2905 -0.7627 -0.2000
  194MOL0     C26066   4.864   1.144   8.355  0.6846 -0.9924 -0.2066
  194MOL0     C26067   4.996   1.069   8.377  0.0269  0.4403  0.3937
  194MOL0     C26068   5.117   1.141   8.319 -0.6590  0.1223  0.0995
  194MOL0     C26069   5.148   1.111   8.166  0.5554  0.6216 -0.0661
  194MOL0     C26070   5.291   1.165   8.129  0.3855  0.7877  0.5771
  194MOL0     C26071   5.393   1.066   8.173 -0.7695  0.0921 -0.3012
  194MOL0     N26072   5.516   1.138   8.146 -0.0476 -0.0562 -1.2186
  194MOL0     C26073   5.575   1.247   8.220  0.6309 -0.0164  0.3346
  194MOL0     C26074   5.684   1.275   8.151  0.3052  0.0882 -1.1406
  194MOL0     C26075   5.784   1.387   8.181 -0.2394  1.0022  0.3462
  194MOL0     C26076   5.905   1.352   8.275 -0.5731  1.2929  0.2033
  194MOL0     C26077   5.860   1.348   8.421 -0.0766 -0.6362 -0.2773
  194MOL0     C26078   5.964   1.423   8.513  0.4542 -0.1073 -0.5678
  194MOL0     O26079   5.984   1.551   8.456 -0.7683  0.0468  0.3278
  194MOL0     C26080   6.112   1.596   8.469  0.1025 -0.0413 -0.7049
  194MOL0     C26081   6.176   1.610   8.596 -0.4332 -0.0366  0.8665
  194MOL0     C26082   6.311   1.649   8.601 -0.2594 -0.2128  0.2576
  194MOL0     C26083   6.387   1.660   8.477 -0.2195 -0.8712 -0.8623
  194MOL0     C26084   6.535   1.678   8.490 -0.5692 -0.0394 -0.2894
  194MOL0     O26085   6.606   1.714   8.384  0.2473 -0.0948  0.3885
  194MOL0     C26086   6.737   1.758   8.377 -0.1422 -0.5804 -0.9647
  194MOL0     C26087   6.821   1.808   8.489  0.4697  0.2787 -0.0009
  194MOL0     C26088   6.941   1.874   8.463 -0.1021  0.6406  0.0680
  194MOL0     C26089   6.990   1.888   8.335 -1.2709 -1.0351  0.1139
  194MOL0     O26090   7.121   1.934   8.313 -0.2265  0.5569 -0.6181
  194MOL0     C26091   7.194   1.898   8.188  0.3385 -0.9656  0.3921
  194MOL0     C26092   7.340   1.941   8.194  0.2736 -1.0217  0.3304
  194MOL0     C26093   7.395   1.981   8.062  0.0397 -0.1397 -0.3876
  194MOL0     C26094   7.517   2.068   8.085 -0.3356  0.0494 -0.2742
  194MOL0     C26095   7.621   2.054   7.975 -0.2687 -0.3410  0.5766
  194MOL0     C26096   7.579   2.091   7.834  0.6668 -0.3956  0.2486
  194MOL0     C26097   7.578   2.239   7.798  0.2349 -0.3702 -0.1459
  194MOL0     C26098   7.479   2.286   7.697  0.2065  0.3858  0.3437
  194MOL0    Cl26099   7.317   2.246   7.748 -0.0087 -0.3832 -0.2509
  194MOL0     C26100   6.904   1.847   8.237  0.1059  0.3862 -0.0426
  194MOL0     C26101   6.783   1.789   8.251  0.4597  0.9784 -0.2052
  194MOL0     O26102   6.572   1.648   8.601 -0.4454  0.1608 -0.0680
  194MOL0     C26103   6.321   1.651   8.352  0.4656 -0.3654 -0.0519
  194MOL0     C26104   6.182   1.625   8.356 -0.2433  0.1360 -0.1123
  194MOL0     N26105   5.700   1.183   8.048 -0.0607  0.3492 -0.3081
  194MOL0     N26106   5.596   1.101   8.047  0.0357  0.2213 -0.5905
  194MOL0     C26107   4.323   1.134   8.379  0.3559 -0.3934 -0.3413
  194MOL0     C26108   4.189   1.164   8.414 -0.4561  0.3088  0.4669
  194MOL0     C26109   3.799   1.231   8.693 -0.3139 -0.0787  0.3475
  194MOL0     C26110   3.718   1.268   8.584  0.6016  0.0135  0.3752
  194MOL0     C26111   3.587   1.318   8.599  0.4075 -0.7302 -0.4493
  194MOL0     C26112   3.538   1.328   8.731 -0.9723 -0.0129 -0.0628
  194MOL0     O26113   3.414   1.372   8.766 -0.5423  0.4218  0.8206
  194MOL0     C26114   3.330   1.421   8.667  0.6987  0.1972  0.0569
  194MOL0     C26115   3.240   1.525   8.743 -0.4850 -0.5244  0.0204
  194MOL0     C26116   3.140   1.583   8.640 -0.2269 -0.1218  0.5908
  194MOL0     C26117   3.086   1.720   8.688 -0.5465  0.4413  0.3505
  194MOL0     C26118   3.003   1.785   8.586  0.0094 -0.6577  0.1434
  194MOL0     C26119   2.933   1.832   8.504 -0.8396  0.0445  0.3683
  194MOL0     C26120   3.615   1.280   8.838  0.2889  0.7424 -0.2411
  194MOL0     C26121   3.738   1.225   8.813 -0.4358 -0.0684 -0.3656
  194MOL0     C26122   3.799   1.155   8.934 -0.3673 -0.1036  1.2679
  194MOL0     H26123   4.180   1.056   8.737 -1.7337  1.8202 -0.4290
  194MOL0     H26124   4.403   0.986   8.680 -1.5275  0.4145  2.1623
  194MOL0     H26125   4.597   1.128   8.300 -0.3431 -2.7103  0.6108
  194MOL0     H26126   4.602   1.237   8.447  3.8729  0.0828  2.1712
  194MOL0     H26127   4.755   0.979   8.447  0.0166 -0.8605  2.9570
  194MOL0     H26128   4.779   1.120   8.549 -1.7512  0.7801 -0.2406
  194MOL0     H26129   4.879   1.250   8.377 -3.3242  0.3092 -2.6109
  194MOL0     H26130   4.836   1.132   8.249 -1.2929 -2.0533  0.3813
  194MOL0     H26131   5.015   1.063   8.484  0.6917  1.3334  0.3363
  194MOL0     H26132   4.986   0.970   8.333 -2.0040  1.3152 -1.2816
  194MOL0     H26133   5.103   1.249   8.332 -2.0018 -0.1108  0.8483
  194MOL0     H26134   5.199   1.105   8.380 -1.7055 -0.1843  1.3588
  194MOL0     H26135   5.149   1.003   8.151  2.2032  0.8373 -1.8680
  194MOL0     H26136   5.080   1.167   8.101 -1.4442 -1.8078 -0.2311
  194MOL0     H26137   5.286   1.263   8.178 -1.4825  0.4352  1.1773
  194MOL0     H26138   5.300   1.184   8.022 -0.3873 -1.8874 -0.0406
  194MOL0     H26139   5.382   1.051   8.281  4.6760 -0.3813  0.4611
  194MOL0     H26140   5.388   0.973   8.116 -1.5374 -0.1476  0.1412
  194MOL0     H26141   5.553   1.306   8.309 -0.8375 -0.1691  0.0923
  194MOL0     H26142   5.819   1.424   8.084  0.4548  3.1251  1.3324
  194MOL0     H26143   5.736   1.479   8.216  0.1076  1.4066 -0.2324
  194MOL0     H26144   5.948   1.256   8.245 -1.8522  0.7242  0.1172
  194MOL0     H26145   5.985   1.424   8.259 -1.6950  2.3923 -0.6873
  194MOL0     H26146   5.839   1.247   8.457 -0.7227 -1.5293 -2.9295
  194MOL0     H26147   5.769   1.409   8.428  1.0560  1.0740  0.3496
  194MOL0     H26148   6.059   1.368   8.513  0.9375  0.6618  1.1550
  194MOL0     H26149   5.929   1.432   8.616 -0.4643 -1.8643 -0.6916
  194MOL0     H26150   6.128   1.601   8.694  0.5190 -0.6219  1.2941
  194MOL0     H26151   6.368   1.659   8.693  0.8886  0.0421 -0.4614
  194MOL0     H26152   6.798   1.781   8.591 -1.6049 -0.6912 -0.6703
  194MOL0     H26153   7.000   1.910   8.547  0.4173 -0.5182  0.2285
  194MOL0     H26154   7.200   1.790   8.171  3.5832 -0.7109 -0.8321
  194MOL0     H26155   7.142   1.939   8.101  1.1870 -1.2321 -0.2468
  194MOL0     H26156   7.344   2.034   8.251 -3.0130  0.8220 -2.0590
  194MOL0     H26157   7.393   1.860   8.245 -1.9881 -0.1207  4.6396
  194MOL0     H26158   7.424   1.893   8.005  0.3968  1.2627 -2.5181
  194MOL0     H26159   7.320   2.040   8.007 -1.7695  0.6408  2.6909
  194MOL0     H26160   7.572   2.032   8.173 -0.0316  0.0345 -0.4697
  194MOL0     H26161   7.481   2.170   8.095 -0.0930  0.4403 -2.7573
  194MOL0     H26162   7.676   1.959   7.977 -1.1318 -0.8592  0.1169
  194MOL0     H26163   7.700   2.126   8.000 -1.2831  1.4506 -1.0658
  194MOL0     H26164   7.645   2.040   7.762 -0.2078  1.6257 -2.1393
  194MOL0     H26165   7.481   2.045   7.821  0.4764  0.1037 -0.1286
  194MOL0     H26166   7.680   2.271   7.778  0.5488 -0.8313  0.6749
  194MOL0     H26167   7.550   2.285   7.894  0.8707 -2.4061  1.0759
  194MOL0     H26168   7.490   2.395   7.693 -0.5407  0.4433 -0.5992
  194MOL0     H26169   7.493   2.236   7.600 -0.9788 -1.7757  1.2104
  194MOL0     H26170   6.924   1.852   8.130 -0.6474 -2.0954 -0.3589
  194MOL0     H26171   6.728   1.756   8.163  0.3056  0.0553  0.2247
  194MOL0     H26172   6.378   1.661   8.261  0.2462  1.6373 -0.0137
  194MOL0     H26173   6.137   1.601   8.260  0.8139 -0.8187 -0.3860
  194MOL0     H26174   4.365   1.173   8.286  1.1995 -2.0524 -0.7043
  194MOL0     H26175   4.131   1.227   8.347  0.9785  2.3452  1.0255
  194MOL0     H26176   3.751   1.278   8.481 -3.1311 -0.6091 -1.0374
  194MOL0     H26177   3.514   1.335   8.521 -0.9988  1.9341  1.2723
  194MOL0     H26178   3.262   1.346   8.625 -2.8711  3.3349 -0.2744
  194MOL0     H26179   3.376   1.480   8.587  1.1680 -2.3966 -1.7303
  194MOL0     H26180   3.306   1.595   8.796  3.7501 -3.6994 -0.4885
  194MOL0     H26181   3.185   1.470   8.821  0.7942 -3.0703 -0.7301
  194MOL0     H26182   3.056   1.516   8.621  0.4721 -0.8016 -0.2051
  194MOL0     H26183   3.197   1.602   8.549  0.1077  2.7286  1.3179
  194MOL0     H26184   3.029   1.718   8.781 -1.1014  0.9174  0.0266
  194MOL0     H26185   3.167   1.792   8.703 -1.9850  2.9546 -2.8229
  194MOL0     H26186   2.891   1.873   8.414 -1.7442 -2.7016 -0.5729
  194MOL0     H26187   3.573   1.289   8.938  0.6163 -3.7616  0.5235
  194MOL0     H26188   3.730   1.089   8.986  0.0256 -0.7948  0.9249
  194MOL0     H26189   3.887   1.092   8.917  2.4811  3.5266  1.2974
  194MOL0     H26190   3.829   1.233   9.005 -0.9025  1.3607 -0.0598
  195MOL0     O26191  10.670  10.578   3.883 -0.5044  0.6050  0.0272
  195MOL0     C26192  10.595  10.603   3.794 -0.9985 -0.3124 -0.2185
  195MOL0     O26193  10.624  10.681   3.690  0.0935  0.3519  0.2640
  195MOL0     C26194  10.751  10.746   3.669 -0.0192 -0.2449  0.4174
  195MOL0     C26195  10.856  10.762   3.758  0.2250  0.2957  0.2035
  195MOL0     C26196  10.978  10.824   3.720  0.1469  0.1113 -0.2786
  195MOL0     C26197  10.992  10.878   3.599  0.0183 -0.9426  0.1848
  195MOL0     O26198  11.096  10.963   3.572  0.2496 -0.1077  0.7960
  195MOL0     C26199  11.185  10.905   3.477  0.1185 -0.7735 -0.9998
  195MOL0     C26200  11.303  10.818   3.544 -0.3867 -0.0749 -0.1398
  195MOL0     C26201  11.367  10.904   3.649 -1.4872 -0.2781  0.6981
  195MOL0     C26202  11.481  10.826   3.708 -0.3380  0.2431  0.1984
  195MOL0     C26203  11.560  10.896   3.814  0.5849  0.8891 -0.7885
  195MOL0     C26204  11.656  10.793   3.884 -0.2907 -0.9530  0.4978
  195MOL0     C26205  11.728  10.851   4.004 -0.2323 -0.1989  1.3557
  195MOL0     C26206  11.638  10.892   4.129 -0.9756  0.3600  0.3211
  195MOL0     N26207  11.722  10.944   4.239 -0.3113  0.1349 -0.5769
  195MOL0     C26208  11.800  11.058   4.233  0.2552 -0.1483  0.0603
  195MOL0     C26209  11.861  11.060   4.353  0.8489  0.2768 -0.3527
  195MOL0     C26210  11.955  11.166   4.392 -0.8166 -0.1032  0.0483
  195MOL0     C26211  12.104  11.110   4.393  0.0397 -0.9992  0.4568
  195MOL0     C26212  12.167  11.152   4.263  0.3000 -0.3055 -0.6661
  195MOL0     C26213  12.312  11.108   4.247 -0.7815 -0.2132 -0.2291
  195MOL0     O26214  12.407  11.215   4.288 -0.3911  0.7756 -0.0415
  195MOL0     C26215  12.538  11.202   4.259 -0.3501 -0.5711  1.0857
  195MOL0     C26216  12.631  11.285   4.317  0.1987  0.1695 -0.6651
  195MOL0     C26217  12.768  11.274   4.292 -0.3184 -0.4627  0.9291
  195MOL0     C26218  12.812  11.177   4.200 -0.3780 -0.3404 -0.3775
  195MOL0     C26219  12.956  11.169   4.160  0.0941  0.6407  0.4036
  195MOL0     O26220  12.988  11.080   4.064  0.1550  0.2660 -0.4507
  195MOL0     C26221  13.121  11.058   4.019 -0.1667  0.4749 -0.0385
  195MOL0     C26222  13.199  11.167   3.973 -0.3191 -0.3466  0.0005
  195MOL0     C26223  13.335  11.143   3.946  0.3090 -0.3731 -0.0212
  195MOL0     C26224  13.388  11.015   3.931 -0.2265  0.3615 -0.1051
  195MOL0     O26225  13.510  10.980   3.875  0.5961  0.1977 -0.0497
  195MOL0     C26226  13.629  11.036   3.947  1.1044  0.0581  0.1120
  195MOL0     C26227  13.756  10.971   3.894  0.7547 -0.1906 -0.1791
  195MOL0     C26228  13.782  10.833   3.950  0.2150  0.4890  0.9674
  195MOL0     C26229  13.841  10.727   3.853 -0.9224 -0.0934  1.3702
  195MOL0     C26230  13.996  10.752   3.837 -0.0314 -0.2523  0.3786
  195MOL0     C26231  14.062  10.642   3.742  0.4258 -0.2422 -0.3768
  195MOL0     C26232  14.199  10.675   3.703 -0.0833 -0.0866  0.0567
  195MOL0     C26233  14.255  10.566   3.615  0.0059  0.6357  0.6587
  195MOL0    Cl26234  14.327  10.433   3.705 -0.0312 -0.2935 -0.1511
  195MOL0     C26235  13.301  10.910   3.969 -0.8308 -0.0061  0.2075
  195MOL0     C26236  13.177  10.932   4.019 -0.8674 -0.1212 -0.7175
  195MOL0     O26237  13.038  11.237   4.219 -0.1259  0.1746  0.5895
  195MOL0     C26238  12.724  11.092   4.146  0.0195 -0.3218  0.1232
  195MOL0     C26239  12.590  11.112   4.167 -0.2709  0.4910  0.0155
  195MOL0     N26240  11.821  10.947   4.430  0.4083 -0.5376  0.1121
  195MOL0     N26241  11.731  10.886   4.360  0.0308  0.2028 -0.0047
  195MOL0     C26242  10.894  10.852   3.505  0.4569  0.3778  0.3096
  195MOL0     C26243  10.771  10.789   3.540 -0.5805 -0.4252  0.1078
  195MOL0     C26244  10.452  10.553   3.812 -0.5787  0.0655  0.1006
  195MOL0     C26245  10.356  10.607   3.728  0.0324 -1.2626  0.2896
  195MOL0     C26246  10.217  10.578   3.751 -0.0185 -0.2256 -0.4310
  195MOL0     C26247  10.178  10.484   3.851  0.2708 -0.2090  0.7124
  195MOL0     O26248  10.046  10.453   3.847 -0.2081 -0.2845 -0.0899
  195MOL0     C26249   9.982  10.385   3.950  0.0621  0.3269 -0.6598
  195MOL0     C26250   9.823  10.406   3.940  0.8949  0.5352 -0.3178
  195MOL0     C26251   9.747  10.283   3.987  0.3161 -0.6446 -0.3123
  195MOL0     C26252   9.591  10.280   3.969 -0.3189  0.2985  0.1125
  195MOL0     C26253   9.547  10.255   3.829 -0.6585 -0.0341 -0.0816
  195MOL0     C26254   9.522  10.220   3.714 -0.9052  0.3002  0.0974
  195MOL0     C26255  10.278  10.409   3.916 -0.5933 -1.4239 -1.0165
  195MOL0     C26256  10.414  10.448   3.903  0.1399  0.5637  0.4102
  195MOL0     C26257  10.510  10.373   3.984 -0.6458  0.1935 -0.3174
  195MOL0     H26258  10.853  10.713   3.855  1.3382  1.8759  1.0781
  195MOL0     H26259  11.056  10.813   3.795 -0.6592 -2.3166  0.2887
  195MOL0     H26260  11.131  10.838   3.410 -0.6558  0.2173 -1.4041
  195MOL0     H26261  11.226  10.979   3.407  0.3997 -0.3223 -0.3664
  195MOL0     H26262  11.369  10.783   3.464  0.7165  1.5120  0.0282
  195MOL0     H26263  11.253  10.732   3.588 -1.1655 -1.2229 -3.0132
  195MOL0     H26264  11.308  10.921   3.739 -0.2107 -2.9283  2.1483
  195MOL0     H26265  11.406  10.997   3.605  2.4093 -1.9485  0.1700
  195MOL0     H26266  11.441  10.729   3.739 -3.0248  1.0573 -0.4034
  195MOL0     H26267  11.548  10.800   3.626 -0.2616  0.7878  0.0853
  195MOL0     H26268  11.628  10.966   3.764 -0.4270  2.5214  0.0387
  195MOL0     H26269  11.498  10.946   3.889  0.2436  0.7063 -0.9522
  195MOL0     H26270  11.598  10.704   3.910  0.9176 -1.6615  0.8613
  195MOL0     H26271  11.728  10.757   3.810  1.1931 -0.2336  1.5404
  195MOL0     H26272  11.798  10.930   3.976 -0.1563 -0.7691 -0.1014
  195MOL0     H26273  11.793  10.767   4.031  0.8041  0.4043  0.7921
  195MOL0     H26274  11.592  10.985   4.094  0.2479  1.8474  2.4605
  195MOL0     H26275  11.576  10.803   4.144 -1.2893  0.4353 -0.4554
  195MOL0     H26276  11.815  11.131   4.154 -0.2681 -0.0600  0.0411
  195MOL0     H26277  11.950  11.259   4.335  1.4813  0.8642  1.2908
  195MOL0     H26278  11.919  11.182   4.494 -1.5344 -2.5661  0.2607
  195MOL0     H26279  12.154  11.163   4.474  0.8606 -0.8084 -0.1577
  195MOL0     H26280  12.115  11.001   4.401 -0.8910 -1.3755 -2.2703
  195MOL0     H26281  12.163  11.261   4.268 -1.1543 -0.3793  2.0706
  195MOL0     H26282  12.107  11.118   4.178 -0.2621  0.2628 -0.5071
  195MOL0     H26283  12.330  11.088   4.141  3.4040  2.9554 -0.3946
  195MOL0     H26284  12.339  11.016   4.301  2.4285  0.5926 -0.2390
  195MOL0     H26285  12.596  11.357   4.390 -2.2060 -1.0110 -0.5552
  195MOL0     H26286  12.838  11.334   4.350  1.3819 -1.3416 -0.1402
  195MOL0     H26287  13.154  11.265   3.984  0.0652 -0.3022  1.3448
  195MOL0     H26288  13.396  11.232   3.929  0.0550  0.1344  1.5591
  195MOL0     H26289  13.628  11.145   3.939  1.9837  0.1246  0.8494
  195MOL0     H26290  13.624  11.018   4.055 -0.4275 -1.7297 -0.2033
  195MOL0     H26291  13.772  10.983   3.787  0.6051  0.1671 -0.1608
  195MOL0     H26292  13.835  11.037   3.932  0.2458 -0.0071  0.5652
  195MOL0     H26293  13.860  10.842   4.026  0.1496 -1.1050  1.2555
  195MOL0     H26294  13.688  10.802   3.995  1.0057  0.1099  2.4226
  195MOL0     H26295  13.799  10.727   3.752  4.0618 -1.5950 -1.0458
  195MOL0     H26296  13.815  10.628   3.891  0.8433 -1.7682 -1.4781
  195MOL0     H26297  14.049  10.757   3.932  1.1911 -1.8080 -0.1593
  195MOL0     H26298  14.012  10.849   3.790  3.0910 -0.1919  1.3581
  195MOL0     H26299  14.054  10.547   3.797 -2.3530 -0.3322 -0.8207
  195MOL0     H26300  13.997  10.634   3.654 -0.7586 -0.7323  0.5128
  195MOL0     H26301  14.260  10.720   3.782  1.0716 -0.7083 -0.4610
  195MOL0     H26302  14.191  10.756   3.630  3.2987 -0.4071 -0.8200
  195MOL0     H26303  14.186  10.527   3.540 -0.9323 -0.1550  1.8862
  195MOL0     H26304  14.337  10.615   3.562  0.0483  2.0933  1.9833
  195MOL0     H26305  13.332  10.806   3.971 -0.3383  0.1278  2.6240
  195MOL0     H26306  13.122  10.846   4.057  2.8723 -1.5259  2.1815
  195MOL0     H26307  12.760  11.003   4.094  1.4366 -0.5542  1.4171
  195MOL0     H26308  12.525  11.036   4.126 -0.8245 -1.0166  3.3731
  195MOL0     H26309  10.908  10.884   3.402 -1.5906  1.6741  0.3750
  195MOL0     H26310  10.702  10.769   3.458  0.2237  1.9871 -1.2705
  195MOL0     H26311  10.369  10.682   3.651  2.1213 -2.4751 -0.6034
  195MOL0     H26312  10.146  10.641   3.697  0.5032  1.1135  0.3990
  195MOL0     H26313  10.007  10.419   4.051 -0.9664 -0.0785 -0.2566
  195MOL0     H26314  10.000  10.278   3.957 -0.6306  0.3139  2.0814
  195MOL0     H26315   9.791  10.424   3.836 -1.4228 -2.4533 -0.2478
  195MOL0     H26316   9.795  10.494   3.999  0.8449  0.1494  0.2311
  195MOL0     H26317   9.773  10.271   4.092  1.5580  0.6834 -0.4367
  195MOL0     H26318   9.780  10.194   3.934 -2.0071 -1.2127 -0.9358
  195MOL0     H26319   9.550  10.195   4.025 -1.0524  1.2241  1.0200
  195MOL0     H26320   9.530  10.360   4.012 -0.2863  0.8252 -0.8076
  195MOL0     H26321   9.530  10.170   3.620 -0.4793 -2.3500  1.4518
  195MOL0     H26322  10.257  10.325   3.981 -0.8526  0.4207  1.4325
  195MOL0     H26323  10.474  10.290   4.046  0.5958  1.4532  2.2652
  195MOL0     H26324  10.588  10.332   3.920 -2.5361 -0.5832 -2.2259
  195MOL0     H26325  10.554  10.431   4.066 -1.5081 -0.5069  0.6836
  196MOL0     O26326   4.272   9.639   8.382  0.5452 -0.8504  0.1195
  196MOL0     C26327   4.281   9.517   8.398 -0.3569 -0.3430  0.0836
  196MOL0     O26328   4.378   9.454   8.474 -0.0712  0.1885  0.1297
  196MOL0     C26329   4.469   9.535   8.533  0.0704  0.4660 -0.8962
  196MOL0     C26330   4.444   9.582   8.661 -0.3518 -0.4041 -0.2922
  196MOL0     C26331   4.548   9.664   8.718  0.3711  0.5722 -1.0895
  196MOL0     C26332   4.660   9.710   8.652  0.8622 -0.6616 -0.2809
  196MOL0     O26333   4.731   9.810   8.720  0.1478  0.5669  0.8137
  196MOL0     C26334   4.871   9.804   8.701  0.5011  0.1333  0.2224
  196MOL0     C26335   4.925   9.670   8.748 -0.4332  0.2155  1.2745
  196MOL0     C26336   5.075   9.672   8.791 -0.2362  0.0753  0.9919
  196MOL0     C26337   5.106   9.556   8.893  0.8341 -0.0288  0.5506
  196MOL0     C26338   5.232   9.574   8.969  0.0354 -0.9700  0.0394
  196MOL0     C26339   5.257   9.475   9.079 -0.6500 -0.5518  0.4122
  196MOL0     C26340   5.397   9.519   9.145 -0.6501  0.3419 -0.0566
  196MOL0     C26341   5.408   9.444   9.279  0.8947 -0.2915 -0.8933
  196MOL0     N26342   5.524   9.472   9.359 -0.0551  0.6702 -0.2559
  196MOL0     C26343   5.588   9.591   9.368 -0.2112 -0.1155  0.0559
  196MOL0     C26344   5.705   9.564   9.440 -0.1704  0.2344 -1.1251
  196MOL0     C26345   5.793   9.668   9.500 -0.4026 -0.3220  0.5346
  196MOL0     C26346   5.944   9.635   9.482  0.3640  0.8107 -0.1734
  196MOL0     C26347   5.974   9.602   9.328  0.1736 -0.3643 -0.0327
  196MOL0     C26348   6.119   9.644   9.294 -0.2809  0.7195 -0.1635
  196MOL0     O26349   6.214   9.567   9.368 -0.0131 -0.1221 -0.0178
  196MOL0     C26350   6.348   9.570   9.330 -0.6707 -0.3699 -0.7339
  196MOL0     C26351   6.431   9.468   9.380 -0.3695 -0.2878  0.0988
  196MOL0     C26352   6.571   9.481   9.351 -0.3131  0.2061  0.6449
  196MOL0     C26353   6.630   9.588   9.279 -0.2558 -0.5482  1.0903
  196MOL0     C26354   6.778   9.597   9.248  0.6887  0.1653 -0.8253
  196MOL0     O26355   6.853   9.481   9.266  0.3265 -0.4591 -0.8548
  196MOL0     C26356   6.987   9.499   9.271 -1.0467 -0.0863  0.1827
  196MOL0     C26357   7.064   9.445   9.381  0.3846 -0.7358  0.7441
  196MOL0     C26358   7.197   9.443   9.373  0.1912  0.4343 -0.4475
  196MOL0     C26359   7.271   9.509   9.267  0.0380  0.3106 -0.5398
  196MOL0     O26360   7.410   9.530   9.263  0.5288  0.5052 -0.8681
  196MOL0     C26361   7.488   9.474   9.369  0.2542 -0.2804  0.4456
  196MOL0     C26362   7.629   9.542   9.354 -0.3643 -0.3205  0.9786
  196MOL0     C26363   7.748   9.473   9.431  0.2301 -0.3783  0.2564
  196MOL0     C26364   7.871   9.556   9.399 -0.1124 -0.7511 -0.3500
  196MOL0     C26365   7.987   9.484   9.451  0.2850  0.6969  0.2079
  196MOL0     C26366   8.131   9.529   9.417  0.5973  0.9819 -0.0270
  196MOL0     C26367   8.240   9.425   9.467 -0.3327 -0.0377  0.3999
  196MOL0     C26368   8.235   9.429   9.621 -0.3777  0.0879 -0.4001
  196MOL0    Cl26369   8.384   9.358   9.690  0.1029 -0.3776  0.2206
  196MOL0     C26370   7.195   9.571   9.169 -0.4435 -0.7563 -0.9554
  196MOL0     C26371   7.058   9.570   9.168 -0.2976  0.7778  0.0692
  196MOL0     O26372   6.813   9.706   9.217 -0.2127  0.5342  0.3989
  196MOL0     C26373   6.544   9.689   9.250 -0.1753 -0.0524  0.7157
  196MOL0     C26374   6.401   9.676   9.270 -0.9487  0.7848 -0.3100
  196MOL0     N26375   5.705   9.434   9.477 -0.6338 -0.2575 -0.1631
  196MOL0     N26376   5.603   9.380   9.421  0.3148  0.1869 -0.0224
  196MOL0     C26377   4.672   9.663   8.519 -0.6400  0.6085  0.5379
  196MOL0     C26378   4.579   9.573   8.462  0.4591  0.2216 -0.2629
  196MOL0     C26379   4.161   9.443   8.357  0.0503 -0.5712  0.4852
  196MOL0     C26380   4.094   9.479   8.236  0.3530 -0.2398  0.2430
  196MOL0     C26381   3.979   9.417   8.183  0.0140  0.3545  0.7315
  196MOL0     C26382   3.923   9.311   8.249  1.3871  0.6124 -0.0682
  196MOL0     O26383   3.807   9.259   8.190  0.3136  1.0660  0.7106
  196MOL0     C26384   3.723   9.165   8.269  0.2163  0.6845 -0.4895
  196MOL0     C26385   3.583   9.169   8.215 -0.6543 -0.0504 -0.1137
  196MOL0     C26386   3.477   9.098   8.301  0.2963  0.4309 -0.7191
  196MOL0     C26387   3.493   8.943   8.285 -0.6891 -0.3631 -0.2202
  196MOL0     C26388   3.400   8.867   8.366  0.3054  0.1459 -0.3733
  196MOL0     C26389   3.317   8.801   8.435 -0.5180  0.1376  0.5544
  196MOL0     C26390   3.981   9.270   8.377 -0.3426  0.0370  0.3524
  196MOL0     C26391   4.093   9.339   8.432 -0.2925  0.3065  0.5402
  196MOL0     C26392   4.136   9.308   8.568 -0.4041  0.1782  0.1971
  196MOL0     H26393   4.357   9.560   8.722  0.3997 -0.3518  0.8296
  196MOL0     H26394   4.539   9.716   8.813  0.3554 -1.6821  0.2151
  196MOL0     H26395   4.896   9.811   8.595  0.5563 -0.1561  0.2140
  196MOL0     H26396   4.917   9.882   8.761 -1.5048  0.8130  0.9789
  196MOL0     H26397   4.898   9.593   8.676 -1.6119 -0.8253  2.7653
  196MOL0     H26398   4.864   9.643   8.835  0.8493  1.9865  2.8022
  196MOL0     H26399   5.093   9.760   8.854 -0.1657 -0.3253  1.5345
  196MOL0     H26400   5.143   9.663   8.706  0.0568  1.9125  0.9850
  196MOL0     H26401   5.024   9.552   8.965 -1.1834 -0.7714 -1.6733
  196MOL0     H26402   5.103   9.469   8.826 -0.2334  0.9107 -0.6565
  196MOL0     H26403   5.321   9.584   8.906  1.1790  0.5721  1.8106
  196MOL0     H26404   5.232   9.667   9.026  1.6118 -0.1555 -1.2041
  196MOL0     H26405   5.173   9.487   9.149 -1.4260  4.1272 -1.0288
  196MOL0     H26406   5.253   9.377   9.030 -3.2481  1.6416 -4.3921
  196MOL0     H26407   5.404   9.627   9.162  1.1572 -0.1683  3.6268
  196MOL0     H26408   5.482   9.487   9.084 -0.1795  0.3363  0.5886
  196MOL0     H26409   5.316   9.453   9.339  2.1858 -2.3453  1.5958
  196MOL0     H26410   5.414   9.341   9.245 -3.9394 -0.2948 -2.5142
  196MOL0     H26411   5.550   9.688   9.335  0.8999  0.8199  1.4049
  196MOL0     H26412   5.770   9.767   9.459 -2.8687 -0.6752  0.9485
  196MOL0     H26413   5.782   9.678   9.609  2.2792 -0.4294  0.8958
  196MOL0     H26414   6.008   9.717   9.514  1.2125 -0.3518  1.2242
  196MOL0     H26415   5.972   9.545   9.537 -0.2252 -0.6513 -2.1200
  196MOL0     H26416   5.904   9.665   9.273  0.4703 -0.7052 -0.8110
  196MOL0     H26417   5.948   9.498   9.306  1.1199  0.0056 -3.5401
  196MOL0     H26418   6.139   9.748   9.318  1.4284  0.5060 -0.5084
  196MOL0     H26419   6.126   9.626   9.186 -2.3703  1.2375 -0.4336
  196MOL0     H26420   6.408   9.376   9.432  3.8975 -0.1496  2.7181
  196MOL0     H26421   6.636   9.402   9.387 -1.3711 -1.7197 -1.4541
  196MOL0     H26422   7.010   9.389   9.457 -1.1842 -1.4025 -0.7842
  196MOL0     H26423   7.256   9.399   9.453  1.8906 -0.8787 -2.3428
  196MOL0     H26424   7.442   9.513   9.460  0.1733  1.8124 -0.4259
  196MOL0     H26425   7.508   9.367   9.369  1.6001 -0.0371  0.5168
  196MOL0     H26426   7.653   9.535   9.248 -0.2347  0.3823  0.9533
  196MOL0     H26427   7.621   9.644   9.393 -0.9000 -0.9851  2.7581
  196MOL0     H26428   7.728   9.460   9.538 -1.6552  2.8913  0.4235
  196MOL0     H26429   7.760   9.370   9.398 -2.7635 -0.9048  0.4735
  196MOL0     H26430   7.864   9.657   9.441  0.6654 -0.8552  0.0476
  196MOL0     H26431   7.884   9.561   9.291 -0.7574  0.9262 -0.3768
  196MOL0     H26432   7.969   9.379   9.425  1.3591  0.5440  0.0245
  196MOL0     H26433   7.979   9.496   9.559 -1.2771  2.4693 -0.0511
  196MOL0     H26434   8.141   9.528   9.308 -0.2142 -1.6398 -0.1431
  196MOL0     H26435   8.146   9.627   9.462  1.4900  0.6831  0.3531
  196MOL0     H26436   8.340   9.456   9.436  0.0106  0.6448  2.1109
  196MOL0     H26437   8.229   9.320   9.439 -1.5240 -0.8003  3.3929
  196MOL0     H26438   8.224   9.535   9.645  2.0755  0.8291 -2.1420
  196MOL0     H26439   8.150   9.367   9.651 -0.3672  0.0194 -0.5115
  196MOL0     H26440   7.259   9.610   9.090  0.3251 -2.9875 -1.5139
  196MOL0     H26441   7.005   9.618   9.087 -0.1443  0.7561 -0.0434
  196MOL0     H26442   6.585   9.777   9.203  2.5086 -0.9142  1.2651
  196MOL0     H26443   6.340   9.759   9.238 -1.2407  1.1882  1.2026
  196MOL0     H26444   4.764   9.688   8.466  0.4186 -0.6187  1.7254
  196MOL0     H26445   4.589   9.529   8.363  0.7237  0.1074 -0.1866
  196MOL0     H26446   4.144   9.551   8.172  2.2862  0.0787  2.0102
  196MOL0     H26447   3.928   9.449   8.093 -2.2099 -0.0983  1.7678
  196MOL0     H26448   3.710   9.187   8.376 -1.5266  1.4975 -0.8336
  196MOL0     H26449   3.775   9.073   8.241 -1.1316  0.0766 -1.0495
  196MOL0     H26450   3.586   9.126   8.114  3.3190 -2.2933  0.7786
  196MOL0     H26451   3.561   9.276   8.204 -0.5470 -0.1731 -1.7695
  196MOL0     H26452   3.379   9.134   8.268  0.3678  2.2966  0.9576
  196MOL0     H26453   3.491   9.128   8.405 -1.3671 -2.6706  0.5061
  196MOL0     H26454   3.475   8.917   8.180 -1.2132 -0.8106 -0.0246
  196MOL0     H26455   3.596   8.908   8.297 -1.0199 -1.1554  0.3947
  196MOL0     H26456   3.242   8.746   8.488 -1.3318  1.5518  0.9015
  196MOL0     H26457   3.953   9.180   8.431 -1.8965 -1.7657 -3.1404
  196MOL0     H26458   4.077   9.220   8.597 -2.5508  1.6983  0.6718
  196MOL0     H26459   4.242   9.279   8.572 -0.6708 -0.6636  2.0016
  196MOL0     H26460   4.120   9.391   8.637 -2.1787  2.0820 -2.3430
  197MOL0     O26461   5.941  11.052   4.478 -0.7396 -0.1766 -0.7381
  197MOL0     C26462   5.879  11.157   4.458 -0.3278  0.2336 -0.4302
  197MOL0     O26463   5.925  11.268   4.400  0.0387  0.7379 -0.4608
  197MOL0     C26464   6.058  11.281   4.360  0.0329 -0.0793 -1.4654
  197MOL0     C26465   6.139  11.385   4.409  0.1302  0.4441 -0.1837
  197MOL0     C26466   6.269  11.399   4.368  0.4063 -0.1904  0.2746
  197MOL0     C26467   6.316  11.328   4.253 -0.3244 -0.6847 -0.2015
  197MOL0     O26468   6.447  11.341   4.210  0.1387 -0.0100 -0.6472
  197MOL0     C26469   6.493  11.276   4.079  0.4129 -0.2916 -0.0716
  197MOL0     C26470   6.639  11.298   4.059 -0.3662 -0.5013 -0.5051
  197MOL0     C26471   6.688  11.244   3.922 -0.2175 -0.2866 -0.2660
  197MOL0     C26472   6.832  11.284   3.881 -0.8712 -0.4928  0.6585
  197MOL0     C26473   6.859  11.224   3.744  0.8961  0.1716  0.3977
  197MOL0     C26474   7.001  11.232   3.708  0.5959  0.1705 -0.0796
  197MOL0     C26475   7.018  11.205   3.556  0.6672 -0.7826 -0.1303
  197MOL0     C26476   6.979  11.059   3.511  0.3748 -1.0600 -0.4583
  197MOL0     N26477   7.049  10.958   3.592 -0.1909 -0.0806  0.4750
  197MOL0     C26478   6.974  10.868   3.667 -0.0109  0.6467 -0.6495
  197MOL0     C26479   7.059  10.787   3.720 -0.9642  0.6294 -0.3580
  197MOL0     C26480   7.033  10.667   3.817  0.0436 -0.9455  0.3843
  197MOL0     C26481   7.152  10.659   3.912 -1.0452  0.0487  0.2715
  197MOL0     C26482   7.109  10.590   4.043 -0.1654  0.2404 -0.2849
  197MOL0     C26483   7.219  10.591   4.144 -0.4781  0.6497  0.0191
  197MOL0     O26484   7.323  10.514   4.100 -0.7831  0.5162  0.1905
  197MOL0     C26485   7.434  10.485   4.179 -0.6987 -0.1421 -0.4444
  197MOL0     C26486   7.521  10.390   4.139 -0.2505  0.6387  0.4385
  197MOL0     C26487   7.639  10.354   4.199 -0.6451 -0.5970 -1.0734
  197MOL0     C26488   7.668  10.408   4.328  0.0147 -0.0708  0.8310
  197MOL0     C26489   7.792  10.362   4.397 -0.1393  0.2682  0.4727
  197MOL0     O26490   7.794  10.413   4.531 -0.5037  0.4391  0.0989
  197MOL0     C26491   7.912  10.400   4.599 -0.3198  0.6680 -0.3039
  197MOL0     C26492   7.931  10.316   4.711  0.2392  0.5814  0.7985
  197MOL0     C26493   8.052  10.330   4.787 -1.3507 -0.2143  0.0054
  197MOL0     C26494   8.161  10.410   4.741 -0.3029 -0.3870 -0.0720
  197MOL0     O26495   8.275  10.407   4.823  0.5648 -0.1870  0.2148
  197MOL0     C26496   8.371  10.508   4.790 -0.0429  0.1806  0.5787
  197MOL0     C26497   8.469  10.542   4.917  0.6010  1.6391 -0.1271
  197MOL0     C26498   8.589  10.626   4.869 -0.3835  0.4437 -0.7397
  197MOL0     C26499   8.687  10.650   4.988  0.7596 -0.2427 -0.6087
  197MOL0     C26500   8.835  10.660   4.931 -0.8836 -0.1000 -0.4841
  197MOL0     C26501   8.937  10.678   5.049  0.8110 -0.1656  0.1625
  197MOL0     C26502   9.078  10.669   5.003  0.2556 -0.1024 -0.2061
  197MOL0     C26503   9.169  10.730   5.110 -0.4865  1.1124 -0.2305
  197MOL0    Cl26504   9.337  10.718   5.044 -0.0900  0.0819 -0.4958
  197MOL0     C26505   8.145  10.478   4.623 -0.8898  0.1975  1.1455
  197MOL0     C26506   8.021  10.475   4.553 -0.2416 -0.1512  0.6420
  197MOL0     O26507   7.874  10.276   4.351 -0.1556  0.0764  0.2415
  197MOL0     C26508   7.575  10.510   4.371 -1.1873  0.3164 -0.1865
  197MOL0     C26509   7.463  10.547   4.298 -0.6455  0.0594  0.0633
  197MOL0     N26510   7.186  10.817   3.667  0.8099 -0.2822  0.2656
  197MOL0     N26511   7.175  10.915   3.582 -0.7398  0.3984 -0.1968
  197MOL0     C26512   6.239  11.221   4.207 -0.1715 -0.0589 -0.5044
  197MOL0     C26513   6.111  11.200   4.260  0.3488 -0.3621 -0.0721
  197MOL0     C26514   5.737  11.154   4.500 -0.0990  0.2627  0.1438
  197MOL0     C26515   5.648  11.200   4.408 -0.9682  0.9065 -0.0941
  197MOL0     C26516   5.511  11.214   4.438 -0.4230  0.6744  0.6224
  197MOL0     C26517   5.458  11.165   4.556  0.4431  0.3073  0.9606
  197MOL0     O26518   5.324  11.150   4.589  0.2293 -0.3890  0.2357
  197MOL0     C26519   5.234  11.167   4.478 -0.6521 -0.3168 -0.3993
  197MOL0     C26520   5.101  11.100   4.512  0.4735 -0.1774 -0.1614
  197MOL0     C26521   5.127  10.947   4.527 -0.3875  0.1108 -0.5088
  197MOL0     C26522   5.003  10.861   4.552 -0.0206 -0.0954 -0.0521
  197MOL0     C26523   4.906  10.884   4.445 -0.4803 -0.1288 -0.8437
  197MOL0     C26524   4.822  10.911   4.360 -0.5605  0.2227  0.8295
  197MOL0     C26525   5.547  11.130   4.652  0.1819  0.8229 -0.2990
  197MOL0     C26526   5.687  11.116   4.631 -0.4115 -0.1701 -0.3759
  197MOL0     C26527   5.793  11.087   4.743 -0.0554 -0.4398  0.2475
  197MOL0     H26528   6.106  11.445   4.493 -0.0947  0.1065 -0.0281
  197MOL0     H26529   6.343  11.465   4.412 -0.3440  1.4481 -0.8334
  197MOL0     H26530   6.468  11.170   4.089  1.2338 -0.3464  1.9455
  197MOL0     H26531   6.432  11.307   3.994  0.7123 -2.3165 -1.1014
  197MOL0     H26532   6.704  11.264   4.140 -1.1455  0.5972  0.6176
  197MOL0     H26533   6.641  11.407   4.047  1.1654 -0.4472  0.0833
  197MOL0     H26534   6.618  11.279   3.845 -0.5009  1.0990  0.5889
  197MOL0     H26535   6.688  11.134   3.921 -0.1828 -0.2869 -1.1516
  197MOL0     H26536   6.849  11.392   3.889  0.0234 -0.7661  3.6501
  197MOL0     H26537   6.902  11.237   3.949 -0.3842  0.1287  0.5932
  197MOL0     H26538   6.819  11.123   3.736 -4.3461  1.9705 -0.1056
  197MOL0     H26539   6.805  11.271   3.661 -0.9746  1.5578  2.3030
  197MOL0     H26540   7.044  11.331   3.726  0.0577  0.8199 -2.0837
  197MOL0     H26541   7.065  11.163   3.762 -0.0929 -1.0146 -0.7394
  197MOL0     H26542   7.122  11.234   3.536  0.5273 -0.1280  0.0653
  197MOL0     H26543   6.964  11.285   3.505 -0.1700 -1.0610  0.3081
  197MOL0     H26544   6.870  11.048   3.513  0.5295 -3.2296 -0.7488
  197MOL0     H26545   7.004  11.043   3.406 -2.5040 -0.8376 -1.2523
  197MOL0     H26546   6.867  10.858   3.678 -0.1495  2.0810 -0.4775
  197MOL0     H26547   6.945  10.696   3.875 -1.5283 -1.2088 -1.7751
  197MOL0     H26548   7.009  10.576   3.762 -2.5087 -1.0178  1.4813
  197MOL0     H26549   7.238  10.597   3.882 -0.2663  0.1511  2.1416
  197MOL0     H26550   7.191  10.758   3.938 -0.9348  0.1864 -0.3969
  197MOL0     H26551   7.073  10.487   4.034  0.7962  0.0537 -2.5551
  197MOL0     H26552   7.041  10.660   4.093 -0.0155 -1.5268  2.5961
  197MOL0     H26553   7.181  10.535   4.229 -0.9732 -0.7683 -1.0942
  197MOL0     H26554   7.261  10.690   4.166 -0.0277  0.3413  0.5681
  197MOL0     H26555   7.497  10.352   4.040  1.5172 -1.5855  0.7598
  197MOL0     H26556   7.712  10.292   4.149 -1.0952 -1.4285 -0.7150
  197MOL0     H26557   7.856  10.248   4.749 -0.8653  1.4759  0.2666
  197MOL0     H26558   8.066  10.259   4.868 -3.5171 -2.9934 -1.8512
  197MOL0     H26559   8.416  10.466   4.700 -0.4926 -0.1547  0.5020
  197MOL0     H26560   8.322  10.602   4.764 -3.0325 -2.1169 -3.2232
  197MOL0     H26561   8.414  10.581   5.004  0.8261 -0.7318  1.1565
  197MOL0     H26562   8.501  10.441   4.944 -0.2857  2.0325  2.7417
  197MOL0     H26563   8.644  10.562   4.799 -0.3317 -0.2966 -0.0391
  197MOL0     H26564   8.555  10.716   4.817 -1.3496 -0.4646 -1.7112
  197MOL0     H26565   8.680  10.575   5.067 -0.0221  0.9733  0.5261
  197MOL0     H26566   8.648  10.738   5.041 -1.0697 -0.9959 -0.6476
  197MOL0     H26567   8.833  10.736   4.853 -2.8830  0.4864  0.0853
  197MOL0     H26568   8.847  10.565   4.879  1.9574  1.4608 -2.9830
  197MOL0     H26569   8.917  10.772   5.100 -0.8422 -0.1497 -0.4387
  197MOL0     H26570   8.930  10.593   5.118  1.9770  1.0756  1.8832
  197MOL0     H26571   9.093  10.721   4.908 -1.3071  3.1502  1.1719
  197MOL0     H26572   9.109  10.564   4.999 -0.7150 -0.4886  1.4243
  197MOL0     H26573   9.149  10.833   5.138  0.7214  0.7590  2.2039
  197MOL0     H26574   9.178  10.657   5.191 -0.1911  2.2237  0.7460
  197MOL0     H26575   8.226  10.544   4.592  0.8002 -0.9700  2.7870
  197MOL0     H26576   8.011  10.526   4.457  0.5339 -0.0864  0.5876
  197MOL0     H26577   7.587  10.558   4.467 -0.0938 -1.4446  0.6167
  197MOL0     H26578   7.390  10.608   4.350  0.1241 -0.5313  1.8955
  197MOL0     H26579   6.275  11.163   4.123  1.6375  2.1108 -1.3229
  197MOL0     H26580   6.055  11.112   4.229  1.5107 -1.1632  0.0407
  197MOL0     H26581   5.690  11.236   4.314  2.7970 -1.5900  0.4176
  197MOL0     H26582   5.442  11.250   4.362 -2.0352 -0.4688  1.5070
  197MOL0     H26583   5.275  11.121   4.387 -1.6411 -1.8512 -0.1092
  197MOL0     H26584   5.223  11.275   4.471  1.9728  0.2704  2.3566
  197MOL0     H26585   5.018  11.119   4.444 -0.2900  1.6418  1.1916
  197MOL0     H26586   5.061  11.140   4.606  0.5422 -1.1496  0.2936
  197MOL0     H26587   5.196  10.934   4.610  2.0219 -2.6198 -2.7632
  197MOL0     H26588   5.178  10.909   4.438 -0.2163 -0.1136 -0.3134
  197MOL0     H26589   5.019  10.754   4.561 -0.0634 -0.2111 -1.2067
  197MOL0     H26590   4.961  10.904   4.643 -0.6242  1.1089 -0.8684
  197MOL0     H26591   4.768  10.937   4.271 -0.2255 -0.3189  0.4624
  197MOL0     H26592   5.507  11.109   4.751 -0.6731 -0.2290 -0.8498
  197MOL0     H26593   5.740  11.040   4.826 -3.4003  0.6318 -1.1074
  197MOL0     H26594   5.871  11.015   4.716 -1.8533 -1.3480 -3.1198
  197MOL0     H26595   5.842  11.175   4.784  0.7015 -1.3343  1.3343
  198MOL0     O26596  10.947   4.038   5.512 -0.6209  0.1062  0.7122
  198MOL0     C26597  10.859   4.021   5.602 -0.5858  0.6162 -0.2785
  198MOL0     O26598  10.887   3.952   5.719  0.3686 -0.9135 -0.0909
  198MOL0     C26599  11.014   3.924   5.752 -0.7983  0.3948 -0.3059
  198MOL0     C26600  11.077   4.005   5.842 -0.3144  0.5763  0.1304
  198MOL0     C26601  11.211   3.987   5.877  0.2784  0.2367 -0.2188
  198MOL0     C26602  11.283   3.880   5.839  0.3900 -0.2915 -0.4887
  198MOL0     O26603  11.407   3.863   5.901  0.2849 -1.0325 -0.3238
  198MOL0     C26604  11.503   3.760   5.856 -0.2706  0.4033 -0.2418
  198MOL0     C26605  11.632   3.788   5.933  0.1695 -1.0453 -0.0281
  198MOL0     C26606  11.614   3.755   6.084 -0.0582 -0.4233 -0.0332
  198MOL0     C26607  11.735   3.772   6.168  0.0311 -0.6198 -0.1408
  198MOL0     C26608  11.864   3.704   6.124 -0.4097 -0.9451  0.0252
  198MOL0     C26609  11.977   3.704   6.230 -0.2087  1.0061 -0.2981
  198MOL0     C26610  11.972   3.590   6.338  0.2378  0.3655  0.3153
  198MOL0     C26611  12.055   3.466   6.283 -0.1752 -0.9365 -0.5201
  198MOL0     N26612  12.066   3.378   6.391 -0.6055 -0.2343 -0.2992
  198MOL0     C26613  12.183   3.362   6.464  0.0561  0.0412 -0.6092
  198MOL0     C26614  12.163   3.256   6.546  0.6134  0.8892  1.1751
  198MOL0     C26615  12.255   3.188   6.643 -0.5023  0.9747 -0.7043
  198MOL0     C26616  12.320   3.278   6.744 -0.3443  0.5141 -0.0047
  198MOL0     C26617  12.438   3.210   6.818  0.2032  0.8522 -0.1115
  198MOL0     C26618  12.509   3.299   6.911  0.3817 -0.8111 -1.0219
  198MOL0     O26619  12.615   3.246   6.985 -0.0185  0.1994 -0.1868
  198MOL0     C26620  12.749   3.263   6.953 -0.0115  0.0163 -0.0838
  198MOL0     C26621  12.795   3.319   6.832  0.0081 -0.1024  0.1730
  198MOL0     C26622  12.930   3.338   6.825 -0.6146 -0.5017 -0.3235
  198MOL0     C26623  13.022   3.316   6.931 -0.1433  0.3545 -0.4031
  198MOL0     C26624  13.167   3.328   6.911 -0.4946  0.2127  0.0427
  198MOL0     O26625  13.243   3.326   7.023  0.5622 -0.0702  0.1305
  198MOL0     C26626  13.373   3.357   7.033  0.3724 -0.2831  0.5924
  198MOL0     C26627  13.432   3.323   7.154  0.6290 -0.4220 -0.6539
  198MOL0     C26628  13.562   3.357   7.186  0.3085  0.8413 -0.0397
  198MOL0     C26629  13.650   3.419   7.096  1.0957 -0.2225 -0.1067
  198MOL0     O26630  13.779   3.419   7.132  0.5178 -1.3579 -0.4334
  198MOL0     C26631  13.886   3.464   7.043  0.4842  1.0287  0.0096
  198MOL0     C26632  14.013   3.402   7.105 -0.4606  0.0412 -0.2180
  198MOL0     C26633  14.129   3.378   6.996 -0.2570  0.1322 -0.4187
  198MOL0     C26634  14.179   3.519   6.956 -0.2528  0.2131 -0.6776
  198MOL0     C26635  14.295   3.503   6.863 -0.3592  0.6838 -0.5981
  198MOL0     C26636  14.411   3.422   6.931  0.4416 -0.5196 -0.8605
  198MOL0     C26637  14.537   3.424   6.849 -0.6677  0.0383  0.1199
  198MOL0     C26638  14.655   3.346   6.926  0.3714 -0.2034 -0.1919
  198MOL0    Cl26639  14.793   3.358   6.823  0.2122  0.3079  0.3401
  198MOL0     C26640  13.587   3.464   6.976  0.2914 -0.5330 -0.8961
  198MOL0     C26641  13.454   3.429   6.939  0.8898 -0.1498 -0.1310
  198MOL0     O26642  13.206   3.347   6.804  0.6979 -0.6084  0.1602
  198MOL0     C26643  12.973   3.256   7.047 -0.0380 -0.1845  0.7803
  198MOL0     C26644  12.838   3.234   7.055 -0.1457  0.4174 -1.3119
  198MOL0     N26645  12.035   3.207   6.517  0.0227 -0.2140 -0.1383
  198MOL0     N26646  11.974   3.289   6.438 -0.1655 -0.5419  0.0182
  198MOL0     C26647  11.214   3.783   5.759 -0.5909  0.0778 -0.0259
  198MOL0     C26648  11.079   3.803   5.712  0.1092  0.7984 -0.3861
  198MOL0     C26649  10.714   4.048   5.574  0.4057 -0.0049  0.3547
  198MOL0     C26650  10.612   3.987   5.654  0.0179  0.2412  0.0568
  198MOL0     C26651  10.482   3.987   5.614 -0.2826  1.3810 -0.6352
  198MOL0     C26652  10.440   4.073   5.514  0.4121 -0.0719  0.2827
  198MOL0     O26653  10.309   4.070   5.486 -0.3335  0.6765 -0.0813
  198MOL0     C26654  10.255   4.137   5.368  0.4299 -1.1863 -1.1005
  198MOL0     C26655  10.282   4.061   5.239 -0.2619 -0.8623  0.6395
  198MOL0     C26656  10.239   3.914   5.267  0.7736  0.8733 -0.4472
  198MOL0     C26657  10.083   3.902   5.301 -0.6286 -0.3185 -1.0724
  198MOL0     C26658  10.015   3.950   5.187  0.3660  0.8523  0.1827
  198MOL0     C26659   9.966   3.982   5.085 -0.3436  0.7974  0.5644
  198MOL0     C26660  10.535   4.152   5.447  1.0673  0.4215  0.2625
  198MOL0     C26661  10.671   4.129   5.469 -0.7268 -1.4879  0.3054
  198MOL0     C26662  10.768   4.221   5.387 -0.4173 -0.0044  0.0211
  198MOL0     H26663  11.027   4.088   5.891 -0.5318  0.4984  0.0399
  198MOL0     H26664  11.254   4.054   5.952 -0.8368  2.5350 -1.5162
  198MOL0     H26665  11.457   3.662   5.874 -0.6349  0.2016 -2.1501
  198MOL0     H26666  11.527   3.769   5.750  1.3276 -0.3355  0.0188
  198MOL0     H26667  11.655   3.895   5.925  0.1026 -0.6929  3.1639
  198MOL0     H26668  11.715   3.736   5.884  0.2851 -2.6346  1.7210
  198MOL0     H26669  11.592   3.649   6.098  0.5381 -0.4158  1.0604
  198MOL0     H26670  11.529   3.810   6.124 -1.2444  0.6830 -3.6922
  198MOL0     H26671  11.748   3.881   6.167 -3.5371 -0.0279  1.6472
  198MOL0     H26672  11.715   3.737   6.269 -2.2461 -2.6034 -1.1818
  198MOL0     H26673  11.840   3.600   6.100 -0.4888 -1.0892  0.7181
  198MOL0     H26674  11.904   3.759   6.038  0.3159  0.9408  1.5081
  198MOL0     H26675  12.071   3.699   6.173 -1.1546 -3.1027 -1.8666
  198MOL0     H26676  11.980   3.794   6.291  0.4766 -0.9437  2.7772
  198MOL0     H26677  11.872   3.552   6.360  0.6064 -1.3110 -0.7051
  198MOL0     H26678  12.022   3.628   6.427  0.7091  2.6795 -0.8539
  198MOL0     H26679  11.992   3.424   6.204 -3.6124  2.0268  0.3700
  198MOL0     H26680  12.153   3.498   6.248 -0.6717 -0.9493 -1.9739
  198MOL0     H26681  12.275   3.419   6.461 -0.2464  0.6939  1.1360
  198MOL0     H26682  12.194   3.112   6.692 -0.1450  1.4505  0.5176
  198MOL0     H26683  12.324   3.143   6.570 -1.5043 -0.4047 -0.8504
  198MOL0     H26684  12.339   3.374   6.694  0.7490 -0.9279 -2.5694
  198MOL0     H26685  12.251   3.313   6.821 -0.8282 -0.9280  0.2504
  198MOL0     H26686  12.502   3.165   6.741  0.3839 -0.9613  1.0544
  198MOL0     H26687  12.390   3.126   6.870 -1.9069  0.2616 -2.7385
  198MOL0     H26688  12.430   3.334   6.978  1.5084  1.4128 -0.7678
  198MOL0     H26689  12.536   3.388   6.855  1.5064 -1.1138 -0.9931
  198MOL0     H26690  12.733   3.351   6.750  2.6153 -0.6702 -2.1669
  198MOL0     H26691  12.958   3.371   6.726 -3.0156 -2.0483 -1.6180
  198MOL0     H26692  13.375   3.258   7.220  0.3748 -1.1697 -1.5884
  198MOL0     H26693  13.598   3.324   7.283  1.4230 -0.2537 -0.8031
  198MOL0     H26694  13.855   3.410   6.953 -2.3434 -0.5963  1.7612
  198MOL0     H26695  13.892   3.573   7.034 -3.2337  1.2948 -1.3534
  198MOL0     H26696  14.031   3.473   7.187 -1.4905  1.5930 -1.2887
  198MOL0     H26697  13.995   3.306   7.154 -2.9837  0.2927 -0.5230
  198MOL0     H26698  14.208   3.323   7.047 -0.8976  0.3565  0.8671
  198MOL0     H26699  14.090   3.322   6.911 -0.7580 -1.2926  0.6957
  198MOL0     H26700  14.208   3.568   7.049 -0.8194  2.6146 -1.6917
  198MOL0     H26701  14.098   3.573   6.905  0.6381  2.4145  0.1418
  198MOL0     H26702  14.330   3.603   6.835 -2.0024  1.5002  0.1185
  198MOL0     H26703  14.264   3.452   6.771  1.5667  0.5001 -1.1986
  198MOL0     H26704  14.438   3.464   7.028  3.1715 -3.8585  0.0637
  198MOL0     H26705  14.382   3.319   6.953  1.0500 -0.2092  1.7502
  198MOL0     H26706  14.565   3.529   6.833  1.9845 -0.9006 -2.2760
  198MOL0     H26707  14.518   3.377   6.753 -2.2753 -0.9387  0.8909
  198MOL0     H26708  14.675   3.385   7.026  1.8059 -1.7081  0.1552
  198MOL0     H26709  14.609   3.248   6.945 -0.5956  0.2362 -0.1805
  198MOL0     H26710  13.643   3.518   6.901  0.0031 -0.5254 -1.1084
  198MOL0     H26711  13.401   3.460   6.849 -0.4641 -0.4739  0.5204
  198MOL0     H26712  13.040   3.231   7.129 -0.4082  1.2812  1.5534
  198MOL0     H26713  12.805   3.187   7.146  1.1698 -0.6863 -1.3755
  198MOL0     H26714  11.270   3.694   5.733 -1.0221 -0.1702 -0.1179
  198MOL0     H26715  11.023   3.733   5.652  0.3166 -0.6336  1.0108
  198MOL0     H26716  10.642   3.938   5.746  0.6016 -1.7485 -1.1490
  198MOL0     H26717  10.403   3.930   5.662  0.6685  0.0123 -0.6355
  198MOL0     H26718  10.296   4.239   5.363  0.9593 -1.2971  0.4254
  198MOL0     H26719  10.147   4.148   5.378  0.7379  0.0802  2.5278
  198MOL0     H26720  10.389   4.067   5.220  0.0304 -1.0221  2.1279
  198MOL0     H26721  10.231   4.111   5.156  0.6657 -0.6608  0.1808
  198MOL0     H26722  10.300   3.871   5.347  0.7553  2.1976  0.2940
  198MOL0     H26723  10.249   3.843   5.184 -0.9038 -0.9411  0.7901
  198MOL0     H26724  10.056   3.799   5.325 -0.2023  0.1235  1.6045
  198MOL0     H26725  10.062   3.954   5.394  0.8714 -1.9620  0.2638
  198MOL0     H26726   9.915   4.007   4.994 -2.3464 -2.5973  0.5924
  198MOL0     H26727  10.490   4.223   5.378 -2.3247 -1.1015  0.7059
  198MOL0     H26728  10.823   4.161   5.314  1.0556 -0.8612  1.7736
  198MOL0     H26729  10.722   4.307   5.335 -0.3775 -0.8133 -1.4093
  198MOL0     H26730  10.844   4.270   5.448 -0.9929 -0.4642  1.1476
  199MOL0     O26731   7.571   8.720   1.223 -0.4695 -0.2315 -0.5088
  199MOL0     C26732   7.480   8.658   1.166  0.9372 -0.1650 -0.6672
  199MOL0     O26733   7.491   8.556   1.076 -0.1052 -0.1169 -0.1740
  199MOL0     C26734   7.612   8.498   1.057  0.6121  0.0739  0.0845
  199MOL0     C26735   7.664   8.401   1.148  0.7071  1.5191  0.5756
  199MOL0     C26736   7.798   8.349   1.133  0.1105  0.6096  0.1633
  199MOL0     C26737   7.877   8.402   1.031 -0.4542 -0.3802 -0.2840
  199MOL0     O26738   8.008   8.376   1.004 -0.2669  0.3154  0.1127
  199MOL0     C26739   8.060   8.255   1.064 -0.1442 -0.1173  0.0938
  199MOL0     C26740   8.211   8.245   1.025 -0.1103  0.1484  0.1595
  199MOL0     C26741   8.293   8.366   1.092 -0.3341  0.6038  0.1381
  199MOL0     C26742   8.433   8.364   1.043  0.2213  0.6889 -0.3135
  199MOL0     C26743   8.517   8.486   1.083 -0.1451  0.5992 -0.4674
  199MOL0     C26744   8.656   8.476   1.040 -0.4822  0.9613 -0.5863
  199MOL0     C26745   8.725   8.338   1.075  0.1152  0.2625 -0.4080
  199MOL0     C26746   8.883   8.352   1.063  0.1108 -0.2724  0.2721
  199MOL0     N26747   8.941   8.306   0.940  0.4097 -0.5303  0.4363
  199MOL0     C26748   9.009   8.380   0.851 -0.8717 -0.6067 -0.9452
  199MOL0     C26749   9.080   8.293   0.787 -0.9725 -0.1237  0.2342
  199MOL0     C26750   9.184   8.346   0.687 -0.5304  0.1978  0.6325
  199MOL0     C26751   9.165   8.492   0.639  0.1718 -0.1017 -0.3837
  199MOL0     C26752   9.287   8.544   0.557  0.1381 -0.0063 -0.0300
  199MOL0     C26753   9.296   8.690   0.523 -0.0004  0.0673 -0.8212
  199MOL0     O26754   9.424   8.709   0.463  0.3008 -0.7413  0.6225
  199MOL0     C26755   9.450   8.833   0.426 -0.4126 -0.1880 -0.3807
  199MOL0     C26756   9.357   8.938   0.412 -0.5008 -0.2781  0.0068
  199MOL0     C26757   9.407   9.065   0.368  0.1653 -0.7439 -0.4819
  199MOL0     C26758   9.540   9.089   0.331 -0.0462 -0.2662 -0.2308
  199MOL0     C26759   9.592   9.218   0.276 -0.2340 -1.2178 -0.0881
  199MOL0     O26760   9.722   9.223   0.246 -0.5813 -0.0551 -0.6470
  199MOL0     C26761   9.780   9.333   0.187  0.9193  1.5858 -0.3391
  199MOL0     C26762   9.829   9.309   0.064 -0.2108  0.8233  0.6943
  199MOL0     C26763   9.899   9.406  -0.006 -0.6871 -0.6183 -0.3953
  199MOL0     C26764   9.929   9.526   0.052  0.0504 -0.0399 -0.2320
  199MOL0     O26765   9.999   9.634  -0.008 -0.5554  0.4241  0.9582
  199MOL0     C26766  10.096   9.600  -0.106 -0.0287 -0.0450 -0.5056
  199MOL0     C26767  10.204   9.516  -0.036  0.6382  0.1651  0.6405
  199MOL0     C26768  10.275   9.583   0.076  0.2496 -0.4725 -1.0122
  199MOL0     C26769  10.340   9.713   0.045  0.4887  0.2583 -1.2195
  199MOL0     C26770  10.423   9.761   0.165 -0.3582 -0.3308  0.4477
  199MOL0     C26771  10.327   9.814   0.278 -0.0136 -0.0217 -0.3882
  199MOL0     C26772  10.407   9.900   0.374  0.3442  0.4759 -0.8573
  199MOL0     C26773  10.322   9.946   0.495  0.6735  0.8397  0.1258
  199MOL0    Cl26774  10.414  10.046   0.603 -0.0879 -0.3087  0.2079
  199MOL0     C26775   9.871   9.557   0.184 -0.0786 -0.2871  0.2457
  199MOL0     C26776   9.807   9.454   0.245  0.8135  0.4167 -0.4043
  199MOL0     O26777   9.510   9.309   0.259  0.5938 -0.1339  0.0893
  199MOL0     C26778   9.624   8.975   0.327  0.1605  0.8481 -0.1939
  199MOL0     C26779   9.579   8.856   0.383 -0.0559  0.4815 -0.0033
  199MOL0     N26780   9.053   8.168   0.831  0.2461 -0.9547  0.8428
  199MOL0     N26781   8.956   8.175   0.916  0.6408 -0.3612  0.4798
  199MOL0     C26782   7.830   8.504   0.947  0.7535 -0.7858  0.4489
  199MOL0     C26783   7.702   8.553   0.965  0.0401 -0.7787 -0.6414
  199MOL0     C26784   7.332   8.701   1.204 -0.1679  0.8824 -0.4390
  199MOL0     C26785   7.222   8.622   1.163 -0.5773  0.5734 -0.7020
  199MOL0     C26786   7.093   8.649   1.190  0.6028 -1.0810 -0.4055
  199MOL0     C26787   7.054   8.781   1.242  0.7901 -0.0310 -0.1545
  199MOL0     O26788   6.919   8.812   1.251  0.8190  0.6772  0.3397
  199MOL0     C26789   6.881   8.939   1.288  0.6670 -0.3123  0.2079
  199MOL0     C26790   6.733   8.981   1.278  0.5080  0.8911 -0.1247
  199MOL0     C26791   6.642   8.903   1.379 -0.4714  0.4880 -0.6286
  199MOL0     C26792   6.504   8.936   1.341 -0.3282  1.2644  0.2035
  199MOL0     C26793   6.464   9.065   1.390 -0.3599  0.5919  0.2627
  199MOL0     C26794   6.449   9.180   1.431  0.0351 -0.9883  0.1367
  199MOL0     C26795   7.165   8.862   1.279  0.7028  0.2024  0.6589
  199MOL0     C26796   7.299   8.826   1.266 -0.9780 -0.1106 -0.5796
  199MOL0     C26797   7.402   8.918   1.329 -0.1821 -0.0112  0.5265
  199MOL0     H26798   7.601   8.349   1.219  0.1693 -0.3775 -1.1779
  199MOL0     H26799   7.835   8.269   1.196  1.9836  1.8232  0.6931
  199MOL0     H26800   8.060   8.266   1.172 -2.2442 -1.3018  0.2695
  199MOL0     H26801   8.017   8.160   1.030  1.2817  0.0215 -2.4140
  199MOL0     H26802   8.217   8.260   0.917 -1.2022  1.5828  0.2552
  199MOL0     H26803   8.253   8.151   1.061  0.7184  0.7489  0.8129
  199MOL0     H26804   8.292   8.365   1.202  0.0280 -0.1974  0.1433
  199MOL0     H26805   8.244   8.459   1.063 -1.3792  0.1810  0.5197
  199MOL0     H26806   8.482   8.271   1.073 -3.1221 -1.9954 -2.3779
  199MOL0     H26807   8.431   8.351   0.934 -0.5387 -2.6077  0.0098
  199MOL0     H26808   8.481   8.582   1.046 -0.3637  0.6366 -0.1635
  199MOL0     H26809   8.515   8.505   1.191 -1.4661  2.8560 -0.8235
  199MOL0     H26810   8.671   8.482   0.932 -0.9533 -0.3687 -0.7478
  199MOL0     H26811   8.704   8.559   1.092 -0.9329  0.2151  1.1081
  199MOL0     H26812   8.673   8.279   0.998 -3.6083  2.2163  0.3874
  199MOL0     H26813   8.688   8.300   1.170  0.7436 -1.2282 -0.7307
  199MOL0     H26814   8.909   8.456   1.087 -2.3462  0.3428  0.6205
  199MOL0     H26815   8.940   8.307   1.145  0.6507  3.6006  2.2913
  199MOL0     H26816   9.008   8.489   0.843 -0.5941 -0.2412  2.5014
  199MOL0     H26817   9.284   8.359   0.729  0.1348  2.2603 -1.3799
  199MOL0     H26818   9.192   8.277   0.602 -1.9892  1.2036 -0.3714
  199MOL0     H26819   9.076   8.501   0.576  1.0874 -1.2516 -1.9071
  199MOL0     H26820   9.142   8.554   0.726 -0.6373 -1.3927  0.3608
  199MOL0     H26821   9.279   8.498   0.458  1.2253 -0.0964 -0.0926
  199MOL0     H26822   9.377   8.502   0.603 -0.5374  0.4920  1.8386
  199MOL0     H26823   9.292   8.737   0.622 -0.1862 -5.2299  2.0814
  199MOL0     H26824   9.219   8.729   0.457 -0.5695  3.5650  1.6270
  199MOL0     H26825   9.252   8.924   0.435 -1.1456  0.7616 -2.0785
  199MOL0     H26826   9.336   9.147   0.367  1.5581  0.4914 -1.0000
  199MOL0     H26827   9.821   9.212   0.018 -0.3339  1.4981 -0.7745
  199MOL0     H26828   9.949   9.376  -0.098  1.2836  2.3000 -0.4084
  199MOL0     H26829  10.060   9.536  -0.187  1.3758  1.1129 -2.1186
  199MOL0     H26830  10.144   9.693  -0.137 -1.4298  0.7071 -0.4925
  199MOL0     H26831  10.165   9.423   0.006 -1.7945  0.5061 -0.6796
  199MOL0     H26832  10.283   9.484  -0.104 -0.8692 -0.9057 -0.6760
  199MOL0     H26833  10.210   9.590   0.163  0.0017 -3.0737 -0.8821
  199MOL0     H26834  10.356   9.513   0.100 -1.2573 -2.6288 -1.8027
  199MOL0     H26835  10.256   9.782   0.029  0.2493 -0.2321 -2.1223
  199MOL0     H26836  10.401   9.705  -0.045  3.0734  0.8910  0.3778
  199MOL0     H26837  10.483   9.840   0.118  0.6742 -1.6477 -0.5328
  199MOL0     H26838  10.488   9.679   0.196 -0.2696  0.0921  1.4093
  199MOL0     H26839  10.244   9.873   0.240 -1.9592 -0.9105  2.2091
  199MOL0     H26840  10.287   9.730   0.335  1.7816 -0.2925  0.5299
  199MOL0     H26841  10.456   9.985   0.325  1.5296 -1.1233 -2.6030
  199MOL0     H26842  10.491   9.839   0.408 -0.6608 -0.1615  0.5381
  199MOL0     H26843  10.239  10.002   0.452 -1.8415 -2.0714  0.7840
  199MOL0     H26844  10.291   9.861   0.556  0.5523  0.6772 -0.1587
  199MOL0     H26845   9.874   9.657   0.227 -2.1772  1.2452 -2.7913
  199MOL0     H26846   9.771   9.483   0.343 -0.7545  1.0128 -1.1173
  199MOL0     H26847   9.724   8.996   0.291 -0.9088  0.9528 -3.4231
  199MOL0     H26848   9.633   8.762   0.374 -1.2463 -0.3862  1.4763
  199MOL0     H26849   7.895   8.536   0.866 -1.1745  0.7235 -0.5824
  199MOL0     H26850   7.666   8.638   0.907 -1.7380 -1.6358 -0.8764
  199MOL0     H26851   7.236   8.520   1.129 -2.4071  0.4807 -1.2729
  199MOL0     H26852   7.011   8.581   1.168 -0.1809 -1.1805  2.4563
  199MOL0     H26853   6.939   9.017   1.237 -0.3920  1.0803  1.0694
  199MOL0     H26854   6.901   8.938   1.395 -0.6969 -0.2120  0.4830
  199MOL0     H26855   6.691   8.976   1.177 -1.2927  0.8718  0.5783
  199MOL0     H26856   6.733   9.084   1.316 -0.2955  0.8119  0.1129
  199MOL0     H26857   6.661   8.935   1.482 -0.8234  0.4225 -0.5445
  199MOL0     H26858   6.658   8.795   1.365  2.6873  0.7446  0.1275
  199MOL0     H26859   6.494   8.936   1.232  0.1046 -2.5681  0.0264
  199MOL0     H26860   6.435   8.856   1.371 -2.6590  2.8679 -0.5857
  199MOL0     H26861   6.455   9.281   1.467  0.7977  0.0736 -2.6227
  199MOL0     H26862   7.146   8.955   1.332 -0.2069  0.5865 -0.3011
  199MOL0     H26863   7.449   8.877   1.419 -0.6218 -1.2519  0.2009
  199MOL0     H26864   7.485   8.940   1.261 -1.0572 -0.8802 -0.8566
  199MOL0     H26865   7.347   9.010   1.353 -4.3194 -1.5408 -2.0762
  200MOL0     O26866   7.169   0.865   0.273 -0.4867  0.0885  0.0644
  200MOL0     C26867   7.088   0.819   0.357  0.9578  0.6161 -0.1080
  200MOL0     O26868   7.116   0.735   0.466 -0.4023  0.0597  0.1807
  200MOL0     C26869   7.248   0.690   0.498  0.5664 -0.4410  0.2887
  200MOL0     C26870   7.369   0.689   0.431  0.1515  0.6738 -0.4388
  200MOL0     C26871   7.479   0.622   0.490 -0.0734  1.3596  1.1164
  200MOL0     C26872   7.468   0.577   0.618 -0.2266  0.0978  0.2247
  200MOL0     O26873   7.589   0.530   0.663  0.7812  0.5808  0.4347
  200MOL0     C26874   7.591   0.420   0.750  0.1084 -0.4343 -0.3473
  200MOL0     C26875   7.681   0.466   0.871  0.1235  0.3450  0.7669
  200MOL0     C26876   7.640   0.618   0.913 -0.0854 -0.1811  0.4322
  200MOL0     C26877   7.717   0.659   1.047 -0.3025 -0.5542 -0.3350
  200MOL0     C26878   7.863   0.623   1.070 -0.3920 -0.7333  0.0661
  200MOL0     C26879   7.951   0.692   0.960 -0.2578 -1.0636  0.0543
  200MOL0     C26880   8.102   0.689   0.976  0.3933  0.0839 -0.8347
  200MOL0     C26881   8.185   0.765   0.874 -0.1616 -0.1121  0.9878
  200MOL0     N26882   8.329   0.768   0.917  0.2709  0.3174  0.3899
  200MOL0     C26883   8.438   0.846   0.872  1.2224  0.5918  0.4545
  200MOL0     C26884   8.543   0.793   0.928 -0.0201  0.7919  0.0402
  200MOL0     C26885   8.687   0.834   0.905  0.6168  0.2904  0.3347
  200MOL0     C26886   8.789   0.727   0.857  1.3791 -0.3647  0.2571
  200MOL0     C26887   8.794   0.594   0.936  0.4309  0.9812 -0.8874
  200MOL0     C26888   8.901   0.498   0.878 -0.2567 -0.2669  0.0707
  200MOL0     O26889   9.021   0.572   0.872 -0.7464 -0.2998 -0.3140
  200MOL0     C26890   9.135   0.524   0.802  0.4405 -0.1549 -0.0556
  200MOL0     C26891   9.154   0.396   0.753  0.1987  0.7540  0.4743
  200MOL0     C26892   9.278   0.355   0.695 -0.0140  0.7838 -0.5302
  200MOL0     C26893   9.387   0.448   0.695  0.1326  0.3815 -0.7336
  200MOL0     C26894   9.513   0.415   0.639 -0.2359 -0.2943 -0.6062
  200MOL0     O26895   9.589   0.517   0.588  0.3677  0.6667  0.5877
  200MOL0     C26896   9.699   0.492   0.505  0.4010  0.8916 -0.0532
  200MOL0     C26897   9.711   0.374   0.425  0.2965 -0.4981  0.8476
  200MOL0     C26898   9.815   0.372   0.330 -0.3298  0.3805 -0.4300
  200MOL0     C26899   9.914   0.471   0.332  0.1015 -0.0814 -0.6919
  200MOL0     O26900  10.000   0.483   0.226 -0.1360 -1.0481 -0.4013
  200MOL0     C26901  10.031   0.376   0.140  0.0891 -0.2008  0.4188
  200MOL0     C26902  10.128   0.427   0.031  0.2219  0.7094 -0.4645
  200MOL0     C26903  10.273   0.401   0.092  0.2569 -1.1985  0.0082
  200MOL0     C26904  10.377   0.432  -0.012  0.0765 -0.6045 -0.4325
  200MOL0     C26905  10.522   0.399   0.033 -0.3922 -0.0284  1.2699
  200MOL0     C26906  10.618   0.400  -0.091 -0.0116  1.0677 -0.0621
  200MOL0     C26907  10.769   0.387  -0.062  0.3057 -0.7916  0.1856
  200MOL0     C26908  10.835   0.336  -0.185 -0.4844 -0.6500 -0.1533
  200MOL0    Cl26909  10.794   0.419  -0.337 -0.2619  0.0638 -0.4254
  200MOL0     C26910   9.909   0.571   0.428 -0.5354  0.3888 -0.2599
  200MOL0     C26911   9.804   0.580   0.521  0.6958  0.1760 -0.5027
  200MOL0     O26912   9.542   0.297   0.653  0.2320 -0.0939  0.4958
  200MOL0     C26913   9.358   0.582   0.723 -0.5671  0.5802  0.1369
  200MOL0     C26914   9.236   0.618   0.781  0.0502  0.8795 -0.3030
  200MOL0     N26915   8.501   0.703   1.022 -0.5788 -0.2545 -0.1922
  200MOL0     N26916   8.376   0.681   1.016  0.1942 -0.4636  0.2826
  200MOL0     C26917   7.343   0.574   0.684  0.2198  0.1578 -0.5359
  200MOL0     C26918   7.233   0.635   0.620  0.2074  0.2452  0.2219
  200MOL0     C26919   6.942   0.835   0.328 -0.2107  0.4300 -0.5313
  200MOL0     C26920   6.903   0.886   0.204  0.3171 -0.7182  0.6557
  200MOL0     C26921   6.763   0.905   0.168  0.4431 -0.1221 -0.7795
  200MOL0     C26922   6.665   0.864   0.257  0.0601 -0.1143 -0.0242
  200MOL0     O26923   6.540   0.899   0.224  0.1142 -0.7786  0.1271
  200MOL0     C26924   6.459   0.822   0.136 -0.4692  0.4605 -0.3824
  200MOL0     C26925   6.331   0.885   0.082 -0.9885 -0.1329 -0.3434
  200MOL0     C26926   6.257   0.791  -0.009  0.0087 -0.3954  0.4329
  200MOL0     C26927   6.103   0.775   0.013 -0.6169  0.6237  0.1528
  200MOL0     C26928   6.027   0.896  -0.017  0.1500  0.2300 -0.4995
  200MOL0     C26929   5.980   1.008  -0.045  0.1798  0.3618  0.6148
  200MOL0     C26930   6.701   0.793   0.374 -0.2323 -1.1458 -0.4214
  200MOL0     C26931   6.836   0.791   0.416  0.2500 -0.4234  0.2561
  200MOL0     C26932   6.845   0.734   0.555 -0.7054  0.0337 -0.2604
  200MOL0     H26933   7.383   0.717   0.327 -1.0380  2.0344 -0.2649
  200MOL0     H26934   7.566   0.601   0.429 -1.6298 -2.1454 -0.1370
  200MOL0     H26935   7.492   0.398   0.789  0.3853 -0.8082  0.1500
  200MOL0     H26936   7.629   0.326   0.710 -0.5503 -0.2510 -1.4487
  200MOL0     H26937   7.781   0.475   0.827  0.3506  4.6488  1.7235
  200MOL0     H26938   7.679   0.394   0.953 -0.6635 -0.6975 -0.1298
  200MOL0     H26939   7.532   0.635   0.911  0.1354  1.5158  1.5952
  200MOL0     H26940   7.683   0.677   0.832 -2.2998  0.9995  0.0232
  200MOL0     H26941   7.711   0.768   1.052 -1.3921 -0.5344 -1.5739
  200MOL0     H26942   7.661   0.628   1.135  0.3847  0.5214  0.5075
  200MOL0     H26943   7.902   0.668   1.161  1.1453  1.8528 -1.7344
  200MOL0     H26944   7.867   0.514   1.076  0.0817 -0.8197 -1.3493
  200MOL0     H26945   7.927   0.642   0.866 -0.8189  0.7344 -0.8047
  200MOL0     H26946   7.924   0.798   0.959 -2.1514 -1.5095  0.2129
  200MOL0     H26947   8.134   0.584   0.980 -1.9445 -0.6557  0.7377
  200MOL0     H26948   8.129   0.726   1.075 -0.8554 -1.0583 -0.0359
  200MOL0     H26949   8.183   0.720   0.774  0.7645 -0.5778  1.1650
  200MOL0     H26950   8.147   0.867   0.865  0.3077  0.3601  3.5332
  200MOL0     H26951   8.439   0.926   0.799 -2.8572  0.2675 -0.1690
  200MOL0     H26952   8.682   0.921   0.839 -0.3677  0.2042  0.2750
  200MOL0     H26953   8.726   0.868   1.001  1.3703  2.3030 -0.6219
  200MOL0     H26954   8.761   0.704   0.754  1.3167  1.3247 -0.1397
  200MOL0     H26955   8.884   0.781   0.860  0.1103  2.0359  0.9970
  200MOL0     H26956   8.702   0.536   0.929  1.7553 -1.1403 -1.6387
  200MOL0     H26957   8.828   0.614   1.038  3.4469 -0.5709 -1.4614
  200MOL0     H26958   8.879   0.459   0.778  0.9326 -1.0190  0.0887
  200MOL0     H26959   8.916   0.406   0.935 -1.4771  0.5156  1.7552
  200MOL0     H26960   9.072   0.325   0.760  2.1938 -1.8145 -0.5327
  200MOL0     H26961   9.288   0.258   0.649 -2.1560  1.1733 -1.9550
  200MOL0     H26962   9.637   0.295   0.426 -1.6667  1.2087 -0.1763
  200MOL0     H26963   9.817   0.283   0.267  2.9461  0.0391 -0.0138
  200MOL0     H26964  10.071   0.285   0.186 -1.8719 -1.9357 -1.1045
  200MOL0     H26965   9.935   0.345   0.097 -0.9739  0.0357  2.4675
  200MOL0     H26966  10.108   0.376  -0.063 -4.9447  2.0004 -0.3544
  200MOL0     H26967  10.104   0.530   0.006  0.6374  0.5352 -1.6281
  200MOL0     H26968  10.292   0.457   0.184  0.3662 -0.7176 -0.3085
  200MOL0     H26969  10.278   0.294   0.115  0.4782 -2.1607 -3.8751
  200MOL0     H26970  10.376   0.539  -0.033  0.7591 -0.5605 -0.2740
  200MOL0     H26971  10.360   0.382  -0.108  1.8036  1.0460 -1.6758
  200MOL0     H26972  10.525   0.299   0.077 -0.9207  0.5018  2.5512
  200MOL0     H26973  10.548   0.473   0.110  2.5231  3.5769 -2.7068
  200MOL0     H26974  10.576   0.311  -0.140 -0.8082  0.3516  1.8337
  200MOL0     H26975  10.597   0.490  -0.151  0.0894  0.9137 -0.3323
  200MOL0     H26976  10.775   0.316   0.021  0.6402  1.4923  2.2092
  200MOL0     H26977  10.806   0.485  -0.033 -1.5636  0.3172 -0.9734
  200MOL0     H26978  10.943   0.330  -0.168 -0.3273 -0.2713 -0.9516
  200MOL0     H26979  10.796   0.236  -0.204  1.2877 -0.8388 -3.5670
  200MOL0     H26980   9.988   0.643   0.407  0.0113 -0.2422 -0.4099
  200MOL0     H26981   9.788   0.662   0.590  2.9715  0.1979  0.0823
  200MOL0     H26982   9.432   0.662   0.719 -0.5541  0.5356 -1.0506
  200MOL0     H26983   9.230   0.718   0.821 -1.3204 -0.3859  3.0693
  200MOL0     H26984   7.319   0.519   0.774  3.0337  2.2988  1.7008
  200MOL0     H26985   7.134   0.628   0.666  0.9260  0.9296  1.9594
  200MOL0     H26986   6.973   0.905   0.124 -0.1665  0.4334  0.4844
  200MOL0     H26987   6.732   0.959   0.080 -1.9124  1.4354  0.9072
  200MOL0     H26988   6.412   0.750   0.204  1.5811 -0.1435  0.4848
  200MOL0     H26989   6.516   0.768   0.061 -2.4511  0.5347 -2.0358
  200MOL0     H26990   6.371   0.966   0.021  1.4891 -0.8616  0.1908
  200MOL0     H26991   6.271   0.930   0.162  2.2669  1.4201  1.4040
  200MOL0     H26992   6.296   0.689   0.004 -2.6601 -1.7990 -1.5999
  200MOL0     H26993   6.286   0.819  -0.110 -0.0465  1.0580  0.8042
  200MOL0     H26994   6.085   0.702  -0.067  1.8296  1.3271 -1.1534
  200MOL0     H26995   6.075   0.720   0.103  3.3473  0.0950  1.2524
  200MOL0     H26996   5.960   1.111  -0.066  0.4706  0.2094 -0.4814
  200MOL0     H26997   6.622   0.757   0.440  0.4258  1.6489  2.1498
  200MOL0     H26998   6.912   0.793   0.618 -1.1659 -1.2090  1.4759
  200MOL0     H26999   6.754   0.724   0.614  1.0398 -1.4382  2.4163
  200MOL0     H27000   6.894   0.636   0.559  1.7999  1.1974 -0.5215
  201MOL0     O27001  10.352   0.489   4.255  0.2384 -0.3523  0.0308
  201MOL0     C27002  10.293   0.594   4.236  0.2976 -0.5482 -0.0897
  201MOL0     O27003  10.348   0.705   4.176  0.8070 -0.2844  0.3719
  201MOL0     C27004  10.485   0.718   4.188 -0.0270 -0.8172 -0.4602
  201MOL0     C27005  10.533   0.843   4.245 -0.5000  0.4380 -0.1103
  201MOL0     C27006  10.667   0.873   4.251 -0.2038 -0.2941 -0.8397
  201MOL0     C27007  10.750   0.811   4.168 -0.2431  0.4455  0.2121
  201MOL0     O27008  10.879   0.839   4.141  0.8498  0.9517 -0.4488
  201MOL0     C27009  10.892   0.881   4.000  0.7457 -0.5229  0.1854
  201MOL0     C27010  10.973   1.007   3.983  0.1194 -0.0331 -0.0144
  201MOL0     C27011  10.999   1.040   3.838  0.3498 -0.0991 -0.8271
  201MOL0     C27012  11.113   0.969   3.767  0.1611 -0.1100  0.1658
  201MOL0     C27013  11.100   0.982   3.611  0.5200  0.6185  0.3044
  201MOL0     C27014  11.113   1.128   3.565  0.4270  0.8467  0.5771
  201MOL0     C27015  11.237   1.199   3.612  0.4535  0.4886 -0.2759
  201MOL0     C27016  11.361   1.122   3.580 -1.1840  0.7852 -0.4448
  201MOL0     N27017  11.475   1.201   3.629 -0.5886  0.5310 -0.1919
  201MOL0     C27018  11.570   1.256   3.543  0.1148  0.1837  0.4860
  201MOL0     C27019  11.640   1.337   3.629 -0.3756 -0.2462  0.6590
  201MOL0     C27020  11.742   1.432   3.583 -0.7898 -0.1072  0.1584
  201MOL0     C27021  11.871   1.361   3.541  0.7081 -0.7689  0.2000
  201MOL0     C27022  11.923   1.259   3.634 -0.6237  0.0577 -0.2184
  201MOL0     C27023  12.053   1.194   3.575  0.4524  0.1691  0.0151
  201MOL0     O27024  12.143   1.302   3.537 -0.5503 -0.0546 -0.4497
  201MOL0     C27025  12.277   1.274   3.524 -0.1967 -0.0742  0.7010
  201MOL0     C27026  12.356   1.387   3.540 -0.7164 -0.5136  0.7956
  201MOL0     C27027  12.497   1.372   3.563  0.5032  0.0762  0.6049
  201MOL0     C27028  12.550   1.240   3.571 -0.1384  0.5666 -0.4572
  201MOL0     C27029  12.698   1.234   3.591 -1.0021 -0.2691  0.6916
  201MOL0     O27030  12.778   1.338   3.638  0.3508  0.6558  0.7013
  201MOL0     C27031  12.909   1.317   3.682 -0.0207 -0.2474  0.6964
  201MOL0     C27032  13.009   1.411   3.656  0.3769  0.0015 -0.3711
  201MOL0     C27033  13.144   1.403   3.705  0.0690 -0.3436  0.0000
  201MOL0     C27034  13.182   1.284   3.761  0.2028  0.5419  1.0052
  201MOL0     O27035  13.316   1.257   3.782  0.2691 -0.1733 -0.3837
  201MOL0     C27036  13.418   1.352   3.750 -0.1749 -0.6162 -0.4044
  201MOL0     C27037  13.550   1.294   3.775  0.2087 -0.5777  0.7933
  201MOL0     C27038  13.587   1.194   3.670 -0.5205  1.3263 -0.4523
  201MOL0     C27039  13.737   1.162   3.674 -0.9640  0.1283 -0.0359
  201MOL0     C27040  13.779   1.067   3.557 -0.4998 -0.0293  0.5725
  201MOL0     C27041  13.925   1.090   3.508 -0.5569  0.2982  0.8196
  201MOL0     C27042  14.029   1.045   3.618 -0.5289 -0.0201 -1.0602
  201MOL0     C27043  14.169   1.061   3.563  0.4457  0.1728 -0.5188
  201MOL0    Cl27044  14.191   0.947   3.428 -0.0063  0.2730  0.2564
  201MOL0     C27045  13.093   1.182   3.794 -0.6137  0.1017 -0.3741
  201MOL0     C27046  12.954   1.205   3.753 -0.0006 -0.0297 -0.3304
  201MOL0     O27047  12.735   1.118   3.575  0.0602 -0.0659  0.2692
  201MOL0     C27048  12.472   1.130   3.552 -0.0175  0.3071 -0.1135
  201MOL0     C27049  12.332   1.146   3.527 -0.8896 -0.0287 -1.0730
  201MOL0     N27050  11.598   1.312   3.759  0.5837 -0.2020  0.4150
  201MOL0     N27051  11.497   1.235   3.754  0.1636  0.2696  0.1021
  201MOL0     C27052  10.705   0.691   4.100  0.2789  0.1561 -0.7733
  201MOL0     C27053  10.576   0.643   4.119  0.6477 -0.0964  0.7382
  201MOL0     C27054  10.147   0.607   4.281 -0.2822  0.0616  0.8427
  201MOL0     C27055  10.102   0.733   4.321 -1.1905 -0.2056 -0.4021
  201MOL0     C27056   9.980   0.754   4.376  0.1513 -1.1340 -0.0910
  201MOL0     C27057   9.885   0.650   4.380  0.3988  1.0461  0.1952
  201MOL0     O27058   9.757   0.661   4.428  0.3475  0.8545  0.5312
  201MOL0     C27059   9.745   0.742   4.547  0.0546  0.1857 -0.0943
  201MOL0     C27060   9.686   0.885   4.514  0.5188  1.1640  0.2465
  201MOL0     C27061   9.542   0.857   4.492  0.1543 -0.2691  0.0649
  201MOL0     C27062   9.461   0.981   4.441 -0.3826 -0.1365 -0.1629
  201MOL0     C27063   9.463   1.098   4.536  0.5664 -0.4505 -0.5047
  201MOL0     C27064   9.473   1.195   4.611  0.4204  0.6322 -0.6452
  201MOL0     C27065   9.922   0.530   4.339 -0.8054 -0.0240 -0.9128
  201MOL0     C27066  10.054   0.501   4.288 -0.1702 -0.2016  0.8070
  201MOL0     C27067  10.087   0.353   4.258 -1.0894  0.2879  0.0858
  201MOL0     H27068  10.464   0.907   4.299 -0.7532  0.8732 -0.9281
  201MOL0     H27069  10.697   0.963   4.304 -0.3650 -0.8034  0.1399
  201MOL0     H27070  10.940   0.796   3.949  1.8982  0.8868 -1.1948
  201MOL0     H27071  10.793   0.885   3.953  0.5830 -3.7822 -0.0005
  201MOL0     H27072  11.073   0.991   4.025  1.5662  1.3468 -2.6383
  201MOL0     H27073  10.920   1.093   4.024  0.9635 -0.1454  1.3932
  201MOL0     H27074  11.022   1.146   3.834 -1.8261  0.4961  0.3752
  201MOL0     H27075  10.906   1.029   3.782  0.2733  1.4908 -1.0522
  201MOL0     H27076  11.211   1.007   3.799  0.4562 -0.8486  0.1748
  201MOL0     H27077  11.120   0.865   3.801 -1.4881 -0.9644 -1.9055
  201MOL0     H27078  11.183   0.922   3.575 -0.1251 -1.3267  1.8565
  201MOL0     H27079  11.002   0.941   3.582 -0.1240  1.1936  1.5788
  201MOL0     H27080  11.119   1.127   3.455 -0.4650  0.1437  0.5300
  201MOL0     H27081  11.020   1.183   3.579 -0.2957 -0.2748  0.2537
  201MOL0     H27082  11.235   1.212   3.721  2.7710 -0.8272 -0.0106
  201MOL0     H27083  11.246   1.300   3.569  1.2528  2.0532  3.1900
  201MOL0     H27084  11.358   1.027   3.634 -2.3497 -1.1814 -3.6765
  201MOL0     H27085  11.349   1.095   3.475 -0.1319  0.3439 -0.4623
  201MOL0     H27086  11.567   1.245   3.436  1.2933  1.1232  0.3297
  201MOL0     H27087  11.705   1.500   3.506 -0.2417  1.4086  1.1789
  201MOL0     H27088  11.766   1.506   3.660 -2.4021  0.7513 -0.1179
  201MOL0     H27089  11.858   1.319   3.441  2.0355  2.8633 -1.6709
  201MOL0     H27090  11.950   1.436   3.531  1.0207 -1.0216  0.7095
  201MOL0     H27091  11.854   1.177   3.655  1.1597 -1.6648 -0.7092
  201MOL0     H27092  11.946   1.309   3.729  2.7469 -0.5715 -0.5616
  201MOL0     H27093  12.035   1.134   3.486  0.2557 -0.4992  0.4975
  201MOL0     H27094  12.094   1.125   3.649 -1.6597 -0.7431  0.4252
  201MOL0     H27095  12.316   1.487   3.531 -0.0445 -0.1676  1.5510
  201MOL0     H27096  12.560   1.459   3.576  0.3283  0.1736  0.7951
  201MOL0     H27097  12.971   1.496   3.601 -0.9132 -1.0442 -1.1489
  201MOL0     H27098  13.206   1.489   3.685  0.5932 -0.6174  0.4274
  201MOL0     H27099  13.406   1.384   3.646 -0.1358  1.2960  0.1342
  201MOL0     H27100  13.414   1.436   3.820  1.4695 -1.0767  0.3133
  201MOL0     H27101  13.622   1.377   3.767  0.9150 -1.1937  0.6349
  201MOL0     H27102  13.568   1.253   3.874  3.7915  0.6257  0.7999
  201MOL0     H27103  13.538   1.100   3.697 -3.5467  3.1300  0.8394
  201MOL0     H27104  13.548   1.219   3.571  2.3138 -0.3446 -2.1304
  201MOL0     H27105  13.767   1.113   3.768 -2.8674  0.1481  0.6319
  201MOL0     H27106  13.795   1.254   3.663 -0.6463 -0.3183 -3.1129
  201MOL0     H27107  13.712   1.082   3.471 -0.5200 -0.9293  0.4303
  201MOL0     H27108  13.769   0.967   3.598  1.1728 -0.3514  0.2406
  201MOL0     H27109  13.953   1.024   3.425  2.3497  2.0656  0.2531
  201MOL0     H27110  13.942   1.193   3.474 -1.0421 -0.0231 -0.4871
  201MOL0     H27111  14.014   0.944   3.658  0.9014 -0.3607 -1.3357
  201MOL0     H27112  14.021   1.118   3.699 -0.9662 -0.1893 -0.9494
  201MOL0     H27113  14.176   1.166   3.534  0.0171  0.1750 -0.6242
  201MOL0     H27114  14.239   1.048   3.645 -0.4730  0.4711  0.3293
  201MOL0     H27115  13.111   1.087   3.842  0.2601  0.6446  0.3839
  201MOL0     H27116  12.866   1.145   3.774  0.9380 -1.8542 -1.3290
  201MOL0     H27117  12.509   1.028   3.552  2.3684  1.1147 -1.3933
  201MOL0     H27118  12.260   1.065   3.516 -3.3953  1.8385  0.3954
  201MOL0     H27119  10.779   0.644   4.036 -0.5026 -1.1398 -0.7609
  201MOL0     H27120  10.530   0.560   4.066 -0.6155 -1.3848  3.6166
  201MOL0     H27121  10.178   0.809   4.337  0.3236 -2.3519  4.1199
  201MOL0     H27122   9.948   0.850   4.417 -0.2922  0.5128 -3.8548
  201MOL0     H27123   9.844   0.744   4.594  0.2046 -1.2093 -0.3009
  201MOL0     H27124   9.673   0.692   4.612 -0.2454  0.8741  0.1064
  201MOL0     H27125   9.731   0.927   4.424  1.9192  1.0787  0.8793
  201MOL0     H27126   9.705   0.948   4.602  0.4653  3.2640 -1.1677
  201MOL0     H27127   9.494   0.835   4.588  0.1093 -0.8933 -0.0942
  201MOL0     H27128   9.526   0.781   4.415  0.7774 -0.9610  0.6005
  201MOL0     H27129   9.495   1.015   4.343 -0.1034 -2.4831 -0.9563
  201MOL0     H27130   9.356   0.950   4.437 -0.2073 -0.9860  0.9957
  201MOL0     H27131   9.479   1.276   4.681  2.3633 -0.5367  0.6369
  201MOL0     H27132   9.858   0.449   4.374  1.1124 -0.6654  1.3959
  201MOL0     H27133   9.999   0.289   4.270 -0.6977 -0.4298 -0.7787
  201MOL0     H27134  10.126   0.332   4.158  0.0233  0.8816  0.3835
  201MOL0     H27135  10.162   0.322   4.330  1.5474 -0.1433 -2.6334
  202MOL0     O27136  10.006  11.295   5.912  0.8066  0.6252  0.0755
  202MOL0     C27137  10.021  11.174   5.936 -0.3692 -0.6185 -0.0371
  202MOL0     O27138  10.150  11.118   5.960  0.8056 -0.0837 -0.4828
  202MOL0     C27139  10.251  11.208   5.979 -0.0688  0.2983  0.0205
  202MOL0     C27140  10.358  11.214   5.890 -0.2649 -0.6581  0.4458
  202MOL0     C27141  10.466  11.299   5.918  0.3365  0.1548  0.0436
  202MOL0     C27142  10.467  11.382   6.027  0.0578 -0.3959  0.6101
  202MOL0     O27143  10.584  11.448   6.050 -0.6639 -0.3855  0.5297
  202MOL0     C27144  10.595  11.515   6.170  1.2475  0.7891  0.0831
  202MOL0     C27145  10.711  11.598   6.172 -0.2119 -0.0939  0.3080
  202MOL0     C27146  10.855  11.529   6.169 -0.0168  0.4438 -0.4340
  202MOL0     C27147  10.964  11.621   6.126 -0.0014  1.2031 -0.2882
  202MOL0     C27148  10.960  11.642   5.978  0.1519  0.4829  0.1128
  202MOL0     C27149  11.103  11.655   5.914 -0.6934 -0.1259  0.3584
  202MOL0     C27150  11.159  11.795   5.926  0.3457 -1.1031  0.4253
  202MOL0     C27151  11.271  11.825   5.834 -1.1127  0.5528  0.1870
  202MOL0     N27152  11.343  11.949   5.844  0.1540  0.0754 -0.5816
  202MOL0     C27153  11.306  12.065   5.776 -0.6646 -0.6979  1.1898
  202MOL0     C27154  11.409  12.148   5.807  0.1260 -0.1373  0.3274
  202MOL0     C27155  11.442  12.291   5.775 -0.2926  0.0405  1.1211
  202MOL0     C27156  11.335  12.363   5.683 -0.0613 -1.1196 -0.2301
  202MOL0     C27157  11.369  12.522   5.690  0.0181 -0.9099 -0.2856
  202MOL0     C27158  11.514  12.562   5.659  0.1479 -0.0532 -0.0725
  202MOL0     O27159  11.547  12.536   5.522  0.1569 -0.1408 -0.3894
  202MOL0     C27160  11.647  12.447   5.490 -0.6817 -0.4325  0.5516
  202MOL0     C27161  11.655  12.425   5.353 -0.2205  0.3687  0.4051
  202MOL0     C27162  11.757  12.341   5.302  0.8774 -0.7413 -0.2731
  202MOL0     C27163  11.854  12.286   5.381  0.3811 -0.3797  0.0849
  202MOL0     C27164  11.969  12.206   5.327 -0.0445  0.6710 -0.4659
  202MOL0     O27165  12.084  12.199   5.396  0.2823  0.6318  0.4221
  202MOL0     C27166  12.193  12.142   5.334  0.4966  0.5520  0.4100
  202MOL0     C27167  12.271  12.214   5.243  0.1272  0.8523  0.5342
  202MOL0     C27168  12.384  12.150   5.181  0.3451  0.4237  0.3741
  202MOL0     C27169  12.429  12.019   5.207  0.6005 -0.4121  0.5960
  202MOL0     O27170  12.533  11.950   5.144  0.0553 -0.5027 -0.0822
  202MOL0     C27171  12.662  12.026   5.167 -0.1775 -0.4020  0.7332
  202MOL0     C27172  12.778  11.939   5.110  0.0563  0.2417  0.4441
  202MOL0     C27173  12.906  12.020   5.121 -0.2014  0.0441 -0.3070
  202MOL0     C27174  13.028  11.926   5.120  1.0873 -0.5524  0.2272
  202MOL0     C27175  13.150  12.002   5.164  0.7115 -0.7194  0.0784
  202MOL0     C27176  13.264  11.901   5.194 -0.6470  0.6802 -0.3037
  202MOL0     C27177  13.397  11.961   5.214  0.3540 -0.6888 -0.8905
  202MOL0     C27178  13.514  11.885   5.169  0.5146 -1.0560  0.2544
  202MOL0    Cl27179  13.517  11.716   5.233  0.1115  0.4128 -0.2013
  202MOL0     C27180  12.348  11.947   5.300  0.0142  0.0414  0.0133
  202MOL0     C27181  12.232  12.008   5.357  0.9072  0.0573 -0.3637
  202MOL0     O27182  11.945  12.146   5.223  0.0665  0.1356  0.3419
  202MOL0     C27183  11.853  12.314   5.520  0.3339  0.3379 -0.7672
  202MOL0     C27184  11.746  12.394   5.576 -0.8898 -0.8622  0.1817
  202MOL0     N27185  11.488  12.080   5.907 -0.0524 -0.8396  1.0582
  202MOL0     N27186  11.443  11.969   5.928  0.5638 -0.8610  0.2348
  202MOL0     C27187  10.357  11.382   6.114  0.2291 -0.3010  0.8370
  202MOL0     C27188  10.249  11.296   6.085 -0.2546  0.4532 -0.5799
  202MOL0     C27189   9.900  11.091   5.948 -1.2439 -0.0291 -0.4993
  202MOL0     C27190   9.934  10.958   5.988  0.0509 -0.8598  0.3887
  202MOL0     C27191   9.835  10.862   6.001 -0.4485  0.1685  0.0141
  202MOL0     C27192   9.710  10.890   5.963 -0.7412  1.0045  0.4485
  202MOL0     O27193   9.619  10.784   5.963  0.1155 -0.4669  0.3169
  202MOL0     C27194   9.498  10.777   5.886  0.0946 -0.7815  0.1649
  202MOL0     C27195   9.426  10.647   5.917  0.7927 -0.5472  0.4039
  202MOL0     C27196   9.307  10.628   5.824  0.2774 -0.8619  1.0727
  202MOL0     C27197   9.216  10.511   5.837 -0.6385  0.5950 -0.3996
  202MOL0     C27198   9.284  10.395   5.783 -0.5205 -0.2962 -0.6040
  202MOL0     C27199   9.329  10.299   5.732  0.0899 -0.6137 -1.3303
  202MOL0     C27200   9.677  11.025   5.910 -0.9999  0.4313 -0.3675
  202MOL0     C27201   9.765  11.125   5.915 -0.3417  0.0080  0.4741
  202MOL0     C27202   9.732  11.261   5.862 -0.0066 -0.4260 -0.7229
  202MOL0     H27203  10.358  11.145   5.806 -1.7334  0.1495 -0.2456
  202MOL0     H27204  10.542  11.310   5.841  0.6209  2.8071  0.5907
  202MOL0     H27205  10.517  11.590   6.181  1.2300  0.8529 -0.4385
  202MOL0     H27206  10.591  11.442   6.251  1.9210 -1.4967 -1.8093
  202MOL0     H27207  10.708  11.663   6.260 -1.7093 -0.7906  0.7912
  202MOL0     H27208  10.703  11.663   6.084 -1.9767  0.3700  0.7731
  202MOL0     H27209  10.858  11.447   6.097  1.2736  3.0337 -3.6233
  202MOL0     H27210  10.877  11.479   6.263  0.5105 -0.3672 -0.9802
  202MOL0     H27211  10.955  11.721   6.170  2.5104  0.5454  2.0050
  202MOL0     H27212  11.061  11.580   6.155 -0.0168  1.3732  0.0128
  202MOL0     H27213  10.915  11.554   5.931 -2.2175  2.5650 -1.7650
  202MOL0     H27214  10.895  11.726   5.952 -1.0039 -0.0731  1.1199
  202MOL0     H27215  11.179  11.588   5.957  0.8464  1.5053  0.2701
  202MOL0     H27216  11.093  11.636   5.807 -0.9737 -0.1725  0.3912
  202MOL0     H27217  11.192  11.820   6.027 -1.2530 -0.7465  0.8928
  202MOL0     H27218  11.071  11.858   5.909 -1.5510 -2.5699  3.7608
  202MOL0     H27219  11.347  11.749   5.850 -1.6955  0.2015  1.4609
  202MOL0     H27220  11.236  11.816   5.731  2.5635 -1.9822 -1.0040
  202MOL0     H27221  11.230  12.085   5.701 -0.9765  3.6107  2.4436
  202MOL0     H27222  11.457  12.344   5.870  0.1154 -1.4211  1.9146
  202MOL0     H27223  11.535  12.289   5.717 -0.2507  1.6877  1.0963
  202MOL0     H27224  11.339  12.323   5.581 -0.6769  2.8715 -1.9881
  202MOL0     H27225  11.233  12.356   5.721  0.1314 -0.7761  0.3702
  202MOL0     H27226  11.342  12.561   5.789 -2.6045 -0.8899 -0.9450
  202MOL0     H27227  11.299  12.572   5.623 -0.4467 -1.1378  0.0212
  202MOL0     H27228  11.579  12.496   5.718  0.4710 -1.3448 -1.7901
  202MOL0     H27229  11.531  12.665   5.691  1.7666 -0.4368  0.3610
  202MOL0     H27230  11.580  12.470   5.290  0.2059  1.3167  0.5603
  202MOL0     H27231  11.748  12.309   5.199  1.3524 -0.0388 -0.5458
  202MOL0     H27232  12.244  12.316   5.217 -0.8161 -0.1647 -2.9883
  202MOL0     H27233  12.435  12.214   5.110 -1.9671  0.9533 -0.9163
  202MOL0     H27234  12.651  12.117   5.106 -1.0358 -0.7718  0.3158
  202MOL0     H27235  12.681  12.058   5.270 -0.2718 -0.1208  0.6659
  202MOL0     H27236  12.777  11.844   5.164 -2.0798 -1.9422 -3.0250
  202MOL0     H27237  12.755  11.915   5.006 -0.5485 -1.7608  0.9845
  202MOL0     H27238  12.911  12.090   5.037  1.0822 -1.1976 -1.3246
  202MOL0     H27239  12.897  12.075   5.215 -1.9650 -1.1793  0.3004
  202MOL0     H27240  13.047  11.873   5.026  1.9380 -2.7539  1.5723
  202MOL0     H27241  13.003  11.846   5.191 -5.2929  1.6287  1.1227
  202MOL0     H27242  13.131  12.057   5.257  3.4615  1.5310 -0.5538
  202MOL0     H27243  13.171  12.078   5.088  1.4986  0.5661  1.5367
  202MOL0     H27244  13.252  11.833   5.279 -0.4531 -1.1755 -1.7022
  202MOL0     H27245  13.267  11.841   5.103  0.2786  2.4844 -1.5362
  202MOL0     H27246  13.413  11.981   5.321 -0.3284 -1.8522 -0.5542
  202MOL0     H27247  13.385  12.053   5.156 -1.6854  0.0798  0.6298
  202MOL0     H27248  13.501  11.895   5.061  2.1910  4.2902  0.2445
  202MOL0     H27249  13.612  11.929   5.189  0.0336 -0.3233  1.0473
  202MOL0     H27250  12.370  11.844   5.325  2.6344  0.3765 -0.6565
  202MOL0     H27251  12.170  11.950   5.424 -1.7003 -2.6533 -4.6694
  202MOL0     H27252  11.927  12.266   5.584  0.9420  0.0810 -1.6518
  202MOL0     H27253  11.751  12.412   5.683 -2.2313 -0.1314  0.1473
  202MOL0     H27254  10.354  11.453   6.197  1.6801  4.5004 -2.7510
  202MOL0     H27255  10.163  11.301   6.152  0.5981  3.9820  0.4652
  202MOL0     H27256  10.032  10.920   6.016  1.1554 -0.5584 -2.6624
  202MOL0     H27257   9.860  10.760   6.027 -1.7482 -0.2862 -0.4827
  202MOL0     H27258   9.525  10.787   5.780 -3.1836  4.3800 -0.5659
  202MOL0     H27259   9.439  10.866   5.908  0.0606 -0.7320 -0.1211
  202MOL0     H27260   9.396  10.649   6.022 -0.1257 -0.0120  0.1401
  202MOL0     H27261   9.498  10.566   5.908  1.5388  0.2262 -1.0161
  202MOL0     H27262   9.348  10.620   5.723  3.3509 -0.1974  2.1517
  202MOL0     H27263   9.252  10.723   5.824 -1.2082 -1.6857  0.1844
  202MOL0     H27264   9.175  10.503   5.938 -2.8213 -0.6262 -1.3213
  202MOL0     H27265   9.126  10.511   5.776 -0.2424 -1.3325 -1.0664
  202MOL0     H27266   9.373  10.210   5.693  0.7458 -0.7204 -0.3752
  202MOL0     H27267   9.576  11.032   5.869 -1.0790  0.0220 -0.2450
  202MOL0     H27268   9.813  11.312   5.810 -0.6858 -1.5429 -3.0183
  202MOL0     H27269   9.647  11.243   5.796 -0.0006 -1.7502 -0.4085
  202MOL0     H27270   9.693  11.317   5.947 -0.0379 -2.2476  0.5230
  203MOL0     O27271   1.834   1.999   6.666  0.0369  1.0596 -0.4044
  203MOL0     C27272   1.761   2.002   6.566  0.2043  0.5749 -0.5355
  203MOL0     O27273   1.795   2.041   6.445  0.4040  0.0293  0.2043
  203MOL0     C27274   1.922   2.017   6.404 -0.9107 -0.6143  0.2468
  203MOL0     C27275   1.982   2.113   6.330  0.7286 -0.0597  0.0434
  203MOL0     C27276   2.113   2.097   6.297  0.2965 -0.6713  0.5172
  203MOL0     C27277   2.188   1.989   6.334 -0.4465 -0.1534 -0.1302
  203MOL0     O27278   2.318   1.979   6.290  0.1318 -0.2873 -0.2943
  203MOL0     C27279   2.418   1.901   6.365 -0.5217  0.2199  0.2800
  203MOL0     C27280   2.552   1.933   6.295  0.0158  0.5170  0.2842
  203MOL0     C27281   2.655   1.837   6.342  0.3071  0.4579 -0.0408
  203MOL0     C27282   2.776   1.840   6.244 -0.1902  0.2447  0.4395
  203MOL0     C27283   2.900   1.781   6.307  0.3310 -0.2746  0.8804
  203MOL0     C27284   3.009   1.784   6.207 -0.7443  0.6014 -0.7309
  203MOL0     C27285   3.139   1.730   6.276 -0.0387 -0.8830  0.5698
  203MOL0     C27286   3.248   1.715   6.164 -0.5991  0.7513  0.7915
  203MOL0     N27287   3.375   1.691   6.226 -0.3863  0.1590 -0.5348
  203MOL0     C27288   3.490   1.711   6.165 -0.1876 -1.1506 -0.3638
  203MOL0     C27289   3.581   1.634   6.222  0.1483 -0.0455 -0.4293
  203MOL0     C27290   3.727   1.625   6.187 -0.0854 -0.3743 -0.0803
  203MOL0     C27291   3.828   1.637   6.303 -0.4348 -0.1533  0.1622
  203MOL0     C27292   3.977   1.626   6.257  0.5539 -0.1054  0.3990
  203MOL0     C27293   4.068   1.602   6.379  0.3410 -0.3562  0.1374
  203MOL0     O27294   4.075   1.732   6.442 -0.1266  0.4792 -0.2694
  203MOL0     C27295   4.189   1.776   6.493  0.3730 -0.8946 -0.2151
  203MOL0     C27296   4.191   1.915   6.522  0.5911  0.1216 -1.5787
  203MOL0     C27297   4.304   1.975   6.575 -0.0194 -0.0550 -1.3671
  203MOL0     C27298   4.426   1.904   6.586  0.5984 -0.4241  0.2732
  203MOL0     C27299   4.550   1.988   6.617  0.4199  0.6800 -0.5944
  203MOL0     O27300   4.539   2.130   6.602 -0.0317  0.0232 -0.1504
  203MOL0     C27301   4.643   2.212   6.646  0.0080 -0.4924  0.5742
  203MOL0     C27302   4.608   2.324   6.719 -0.8754  0.2206  0.1558
  203MOL0     C27303   4.702   2.430   6.745  0.7505 -0.1169 -0.7664
  203MOL0     C27304   4.837   2.413   6.710  0.4432  0.8923  0.9066
  203MOL0     O27305   4.921   2.512   6.736 -0.0384 -0.7319 -0.3066
  203MOL0     C27306   4.998   2.490   6.853 -0.0030 -0.0481 -0.4037
  203MOL0     C27307   5.057   2.624   6.905  0.0304 -0.5587 -1.2370
  203MOL0     C27308   5.107   2.725   6.797 -0.6370  0.0830 -1.2570
  203MOL0     C27309   5.111   2.869   6.854 -0.0452  1.1508 -0.5154
  203MOL0     C27310   5.186   2.966   6.763 -0.5751 -0.4530  0.1010
  203MOL0     C27311   5.219   3.098   6.830  0.8767  0.2723 -0.2966
  203MOL0     C27312   5.295   3.184   6.730 -0.1560  0.1830 -0.6296
  203MOL0     C27313   5.276   3.327   6.740  0.6476 -0.3439 -0.6043
  203MOL0    Cl27314   5.360   3.375   6.889 -0.0653 -0.2267 -0.6047
  203MOL0     C27315   4.881   2.286   6.651  0.0802 -0.3218 -0.1168
  203MOL0     C27316   4.780   2.190   6.608 -0.2820 -0.3556 -0.3105
  203MOL0     O27317   4.648   1.930   6.658  0.3521 -0.3452  0.4015
  203MOL0     C27318   4.419   1.768   6.559 -0.3759  0.2450  0.2752
  203MOL0     C27319   4.303   1.703   6.523  0.7220 -0.3410 -0.3181
  203MOL0     N27320   3.518   1.560   6.323  0.1255 -0.2015 -0.0317
  203MOL0     N27321   3.391   1.598   6.326 -0.4547 -1.3502  0.6514
  203MOL0     C27322   2.127   1.885   6.404  0.0317 -0.4534 -0.0976
  203MOL0     C27323   1.993   1.899   6.440 -0.0850 -0.0308 -0.9799
  203MOL0     C27324   1.612   2.003   6.586  0.3092  0.4313 -0.3167
  203MOL0     C27325   1.534   2.114   6.544 -0.5765 -0.1337  0.1529
  203MOL0     C27326   1.399   2.130   6.580  0.8171  0.1052  0.7320
  203MOL0     C27327   1.331   2.040   6.659 -0.4754  0.0007 -0.2637
  203MOL0     O27328   1.197   2.053   6.684  0.7532  0.2065  0.1975
  203MOL0     C27329   1.131   1.972   6.771  0.2858 -0.4086 -0.8872
  203MOL0     C27330   1.000   2.029   6.800 -0.8521 -0.0422  0.0450
  203MOL0     C27331   0.914   2.050   6.684  0.4607  0.9430  0.7112
  203MOL0     C27332   0.910   1.940   6.573  0.6555  1.1332 -0.0847
  203MOL0     C27333   0.862   1.810   6.628 -0.3693  0.2556  0.8067
  203MOL0     C27334   0.854   1.691   6.657  0.2792 -0.3600 -0.5021
  203MOL0     C27335   1.409   1.928   6.700  0.5075  0.3694 -1.0500
  203MOL0     C27336   1.545   1.912   6.674  0.0744  0.2338 -1.0168
  203MOL0     C27337   1.605   1.782   6.726 -0.0856 -0.2449 -0.2125
  203MOL0     H27338   1.925   2.203   6.310 -1.0223 -0.5378  2.4168
  203MOL0     H27339   2.145   2.185   6.241 -1.2674  1.6328  3.0159
  203MOL0     H27340   2.443   1.921   6.470  0.2292 -1.3268  0.4148
  203MOL0     H27341   2.398   1.794   6.360 -1.4387  0.3298  1.1981
  203MOL0     H27342   2.585   2.035   6.319 -4.4475  2.5013 -0.9374
  203MOL0     H27343   2.543   1.931   6.186 -1.5156  2.5321  0.3135
  203MOL0     H27344   2.627   1.731   6.345  1.3304  0.0783 -2.0304
  203MOL0     H27345   2.688   1.870   6.441 -0.8770  1.4852  0.0392
  203MOL0     H27346   2.757   1.771   6.161 -1.6755  0.2666  0.7291
  203MOL0     H27347   2.797   1.939   6.204  1.4133 -0.6958 -1.1935
  203MOL0     H27348   2.939   1.834   6.395 -0.1410 -0.0355  0.9505
  203MOL0     H27349   2.878   1.676   6.329  1.8135 -1.1788 -1.5872
  203MOL0     H27350   2.993   1.718   6.121  0.4920  1.1910 -1.4344
  203MOL0     H27351   3.029   1.886   6.173  0.9770  0.9621  1.1699
  203MOL0     H27352   3.121   1.634   6.326 -1.2815 -0.3919  1.0958
  203MOL0     H27353   3.177   1.803   6.347 -1.3245 -0.0121  0.3929
  203MOL0     H27354   3.227   1.633   6.095  1.9063 -1.2403  2.2516
  203MOL0     H27355   3.250   1.809   6.107  1.2818 -0.3639 -1.1226
  203MOL0     H27356   3.514   1.778   6.083 -0.8288 -2.4954 -1.6816
  203MOL0     H27357   3.747   1.540   6.121 -0.1555  0.4248 -1.1593
  203MOL0     H27358   3.753   1.708   6.121 -1.9697  2.1568  2.1619
  203MOL0     H27359   3.805   1.723   6.367 -1.5461 -1.1930  1.2215
  203MOL0     H27360   3.800   1.553   6.368  0.1437  0.0485  0.6834
  203MOL0     H27361   4.008   1.716   6.203  2.9347 -2.3179 -2.2983
  203MOL0     H27362   3.997   1.541   6.192  0.7011 -0.7416  1.2574
  203MOL0     H27363   4.164   1.559   6.348  1.0306  0.7211  0.7400
  203MOL0     H27364   4.025   1.538   6.458 -0.6596 -1.0299 -0.9144
  203MOL0     H27365   4.102   1.977   6.512  0.9206  0.9780  0.2592
  203MOL0     H27366   4.305   2.083   6.583 -0.4283  0.2137 -4.0387
  203MOL0     H27367   4.501   2.337   6.732 -1.1840 -1.8533 -0.0133
  203MOL0     H27368   4.668   2.523   6.790  1.1704 -0.4452  0.2660
  203MOL0     H27369   4.942   2.450   6.938 -3.4617  3.4129 -0.7949
  203MOL0     H27370   5.083   2.430   6.818 -1.2779 -0.9261 -2.1331
  203MOL0     H27371   4.990   2.671   6.978  2.1857 -2.2799  2.1584
  203MOL0     H27372   5.146   2.594   6.962  0.0927  0.6588 -0.6669
  203MOL0     H27373   5.203   2.690   6.759 -1.0287 -1.3454 -0.9946
  203MOL0     H27374   5.032   2.734   6.718 -0.7481  2.0483 -0.9949
  203MOL0     H27375   5.153   2.856   6.954 -0.0364 -2.4033 -0.8349
  203MOL0     H27376   5.006   2.896   6.872  0.3107  1.6016  0.9727
  203MOL0     H27377   5.129   2.974   6.670  1.1851 -0.8506 -1.0616
  203MOL0     H27378   5.278   2.925   6.720 -0.7233 -0.6323 -0.0506
  203MOL0     H27379   5.126   3.145   6.862 -1.2746 -2.4633 -2.1039
  203MOL0     H27380   5.288   3.095   6.915  1.1318  0.3299 -0.5016
  203MOL0     H27381   5.260   3.150   6.632  0.5655 -1.9946 -0.1877
  203MOL0     H27382   5.401   3.160   6.747  0.3215  2.5301  0.0910
  203MOL0     H27383   5.316   3.378   6.651 -0.6618  1.3219 -0.2839
  203MOL0     H27384   5.171   3.357   6.729  0.4040 -1.0824 -0.3254
  203MOL0     H27385   4.985   2.269   6.628  0.3507 -1.3529  1.7257
  203MOL0     H27386   4.814   2.100   6.558  0.5625  1.4382 -3.2539
  203MOL0     H27387   4.511   1.712   6.569 -1.6519 -1.7466  1.7533
  203MOL0     H27388   4.315   1.599   6.497  2.8243 -0.1508 -0.2915
  203MOL0     H27389   2.177   1.790   6.420 -0.1534 -1.0555 -2.5440
  203MOL0     H27390   1.947   1.821   6.501  3.4642 -1.3712  0.2399
  203MOL0     H27391   1.585   2.180   6.473  0.1152 -1.9344 -1.0838
  203MOL0     H27392   1.352   2.224   6.552  0.0907 -1.0318 -2.1086
  203MOL0     H27393   1.185   1.966   6.866 -1.1158 -2.8127 -0.1397
  203MOL0     H27394   1.117   1.867   6.742 -3.1038 -0.7719  1.4046
  203MOL0     H27395   1.019   2.123   6.853 -0.3832 -0.6440  0.9923
  203MOL0     H27396   0.957   1.958   6.872  1.1538  0.2390  1.6046
  203MOL0     H27397   0.940   2.146   6.638 -3.7892  2.0379  0.1495
  203MOL0     H27398   0.809   2.058   6.711 -0.4704 -0.4242 -2.1505
  203MOL0     H27399   0.846   1.982   6.495 -0.6363 -1.4365 -0.5317
  203MOL0     H27400   1.007   1.919   6.526 -0.6996 -1.5639 -1.9500
  203MOL0     H27401   0.831   1.593   6.694  3.5732 -2.1823 -2.7854
  203MOL0     H27402   1.358   1.847   6.751 -0.5113  1.7819  0.2830
  203MOL0     H27403   1.600   1.705   6.649 -3.0121  0.4032 -0.8066
  203MOL0     H27404   1.708   1.804   6.756 -0.7345  1.3359  1.0337
  203MOL0     H27405   1.556   1.752   6.819 -1.2629  0.7701 -0.4702
  204MOL0     O27406   8.980   0.949   8.257 -0.0862  0.8561  0.2660
  204MOL0     C27407   8.966   1.018   8.158 -0.2753  0.8020 -0.0918
  204MOL0     O27408   9.057   1.068   8.081 -0.5218  0.6504  0.5269
  204MOL0     C27409   9.182   1.002   8.067  0.2687 -0.1695 -0.2700
  204MOL0     C27410   9.218   0.869   8.078  0.3131  0.2083  0.4910
  204MOL0     C27411   9.346   0.821   8.050 -0.6310  0.0346 -0.2439
  204MOL0     C27412   9.443   0.909   8.008  0.2820 -0.4464  1.0622
  204MOL0     O27413   9.565   0.857   7.977 -1.5193  0.0133 -0.4523
  204MOL0     C27414   9.690   0.916   7.986  0.1925 -0.2710  0.3928
  204MOL0     C27415   9.734   0.966   8.123  0.5896 -0.1876 -0.3409
  204MOL0     C27416   9.870   1.033   8.123 -0.4378  0.4531 -0.6626
  204MOL0     C27417   9.901   1.056   8.276  0.0682  0.0579 -0.6254
  204MOL0     C27418  10.041   1.107   8.292 -0.4625 -0.1236 -0.8173
  204MOL0     C27419  10.070   1.127   8.448  0.1758 -0.3609 -0.2742
  204MOL0     C27420  10.202   1.173   8.486 -0.0772 -0.1335 -0.2297
  204MOL0     C27421  10.318   1.098   8.424 -0.1137  0.2793  0.2362
  204MOL0     N27422  10.441   1.137   8.485  0.8297  0.6078  0.7879
  204MOL0     C27423  10.472   1.131   8.619  0.1576  0.2084 -0.0102
  204MOL0     C27424  10.577   1.214   8.639  0.6892 -0.3801  0.9447
  204MOL0     C27425  10.655   1.246   8.769 -0.1082  0.1512  0.0059
  204MOL0     C27426  10.801   1.214   8.738  0.7589 -0.3455  0.0697
  204MOL0     C27427  10.888   1.229   8.866  0.2177  0.2406  0.7998
  204MOL0     C27428  11.033   1.199   8.820  0.2109 -0.5834  0.6871
  204MOL0     O27429  11.123   1.240   8.919  0.0653  0.8269  0.0772
  204MOL0     C27430  11.257   1.251   8.890 -0.2002 -0.2335 -0.1278
  204MOL0     C27431  11.338   1.293   8.997 -0.9368  0.3556 -0.5882
  204MOL0     C27432  11.468   1.326   8.986 -0.1587  0.0599  0.6120
  204MOL0     C27433  11.530   1.315   8.858  0.2273  0.0876 -0.4729
  204MOL0     C27434  11.677   1.332   8.856 -0.2290 -1.1370 -0.5170
  204MOL0     O27435  11.737   1.293   8.746 -0.2047 -0.4368 -0.1395
  204MOL0     C27436  11.875   1.303   8.735 -0.5089  0.0284 -0.4117
  204MOL0     C27437  11.971   1.262   8.836 -0.3858  0.1755 -0.5666
  204MOL0     C27438  12.110   1.278   8.817 -0.6260 -0.4980 -0.8907
  204MOL0     C27439  12.150   1.332   8.695 -0.4424  0.4434  0.3590
  204MOL0     O27440  12.286   1.332   8.658  0.4480 -0.6494 -0.0119
  204MOL0     C27441  12.384   1.388   8.753 -0.0673  1.0404  0.3296
  204MOL0     C27442  12.390   1.538   8.746 -0.2448  0.0579  0.4951
  204MOL0     C27443  12.510   1.582   8.827 -0.4601 -0.3291 -0.8660
  204MOL0     C27444  12.570   1.710   8.782 -0.6101 -0.0779 -0.0782
  204MOL0     C27445  12.712   1.728   8.835 -0.1757 -0.1276 -0.6966
  204MOL0     C27446  12.753   1.873   8.803  0.3459 -0.1554  0.4115
  204MOL0     C27447  12.899   1.899   8.835 -0.9313 -0.4836 -0.6393
  204MOL0     C27448  12.995   1.861   8.720  0.1012  0.5400  0.7829
  204MOL0    Cl27449  12.973   1.975   8.568  0.4069 -0.0957 -0.1894
  204MOL0     C27450  12.059   1.370   8.599  0.6102  0.0869  0.0317
  204MOL0     C27451  11.922   1.357   8.618  0.5282 -0.0274  0.2564
  204MOL0     O27452  11.729   1.387   8.954  0.0005  0.1829 -0.4985
  204MOL0     C27453  11.452   1.263   8.746 -0.1056  0.3485 -0.3498
  204MOL0     C27454  11.314   1.238   8.761  0.8925 -0.1537  0.7563
  204MOL0     N27455  10.618   1.246   8.506  0.1285 -0.1044  0.2883
  204MOL0     N27456  10.533   1.204   8.417 -0.3425  0.0479 -0.5561
  204MOL0     C27457   9.408   1.048   7.991 -0.1930 -0.2741  0.3280
  204MOL0     C27458   9.282   1.098   8.024 -0.1275 -0.2061 -0.1778
  204MOL0     C27459   8.828   1.065   8.136  0.8288  0.1307  0.6754
  204MOL0     C27460   8.806   1.191   8.089  0.3422 -0.0757 -0.0291
  204MOL0     C27461   8.677   1.238   8.058 -0.3095  0.3078  0.4361
  204MOL0     C27462   8.560   1.158   8.077  0.0258 -0.6951 -0.6291
  204MOL0     O27463   8.437   1.212   8.053  0.0884 -0.0473  0.5321
  204MOL0     C27464   8.312   1.126   8.068  0.6009  0.4443  0.4723
  204MOL0     C27465   8.195   1.213   8.031  0.3685 -0.8261  0.4608
  204MOL0     C27466   8.228   1.290   7.897  0.9966  0.2773  0.6930
  204MOL0     C27467   8.104   1.356   7.833  0.0762  0.2781  0.6909
  204MOL0     C27468   7.996   1.406   7.921  0.4633 -0.2830  0.1237
  204MOL0     C27469   7.909   1.443   8.004  0.7044  0.8927  0.9024
  204MOL0     C27470   8.584   1.026   8.126 -0.3369  0.0247 -0.7524
  204MOL0     C27471   8.716   0.979   8.148  0.3374 -0.5027  0.4738
  204MOL0     C27472   8.735   0.825   8.166  0.8220 -0.3128  0.3389
  204MOL0     H27473   9.153   0.786   8.105  1.2639 -1.4584 -1.9573
  204MOL0     H27474   9.381   0.720   8.066  1.3735  0.3880 -1.9766
  204MOL0     H27475   9.760   0.837   7.958 -1.2635 -1.1979 -0.7509
  204MOL0     H27476   9.691   1.002   7.918 -0.7848  0.4957  1.3204
  204MOL0     H27477   9.746   0.875   8.183  1.0481  0.7671  1.0511
  204MOL0     H27478   9.653   1.021   8.172 -1.4263 -3.5367  0.3913
  204MOL0     H27479   9.867   1.128   8.067 -1.4938 -0.8581 -2.9653
  204MOL0     H27480   9.939   0.957   8.085  0.1372  0.1418  0.9654
  204MOL0     H27481   9.831   1.124   8.327  1.6798  0.8050  0.6839
  204MOL0     H27482   9.885   0.968   8.339 -2.2275  1.6077  1.1429
  204MOL0     H27483  10.109   1.035   8.245 -1.1687 -0.6566 -1.0244
  204MOL0     H27484  10.040   1.204   8.242 -2.1697 -0.3778 -1.3131
  204MOL0     H27485   9.991   1.190   8.490  2.9283  3.2438 -0.0823
  204MOL0     H27486  10.049   1.031   8.497 -2.6956 -0.9226 -2.3309
  204MOL0     H27487  10.205   1.169   8.596 -2.7928 -1.4005 -0.1309
  204MOL0     H27488  10.203   1.280   8.467 -3.0490 -0.1609 -1.0133
  204MOL0     H27489  10.304   0.992   8.447  0.6766  0.4524  1.5899
  204MOL0     H27490  10.318   1.116   8.316  2.2938 -0.4586  0.0545
  204MOL0     H27491  10.412   1.083   8.695 -3.2263  0.0851 -2.5078
  204MOL0     H27492  10.651   1.353   8.789  1.2696  0.2215  0.0053
  204MOL0     H27493  10.606   1.183   8.845 -0.7266 -0.7339 -1.0923
  204MOL0     H27494  10.813   1.112   8.700  1.9207 -0.2148  0.0590
  204MOL0     H27495  10.834   1.291   8.668 -1.1976 -1.3933 -2.1487
  204MOL0     H27496  10.861   1.170   8.953 -1.6965 -0.8854 -0.4850
  204MOL0     H27497  10.886   1.335   8.892  1.8985  0.0660  1.7900
  204MOL0     H27498  11.062   1.248   8.727 -1.8741 -0.5887 -0.0244
  204MOL0     H27499  11.040   1.091   8.805  1.0275 -0.7982  2.3858
  204MOL0     H27500  11.290   1.304   9.094 -0.6035 -0.4288 -0.3282
  204MOL0     H27501  11.517   1.367   9.074  2.0400 -0.8329 -0.1063
  204MOL0     H27502  11.930   1.213   8.924  1.8091 -0.4142  0.1851
  204MOL0     H27503  12.182   1.238   8.888 -2.3890  0.1321  1.3535
  204MOL0     H27504  12.349   1.350   8.850 -1.7829 -4.4487 -2.0264
  204MOL0     H27505  12.487   1.351   8.745 -0.0958  1.1302 -0.5517
  204MOL0     H27506  12.398   1.575   8.644  3.5202 -3.6293 -0.8564
  204MOL0     H27507  12.304   1.584   8.795  0.7730  1.2337  1.2304
  204MOL0     H27508  12.487   1.585   8.934 -0.7808  0.0955 -0.9441
  204MOL0     H27509  12.598   1.521   8.804 -0.9861 -1.5085  0.1147
  204MOL0     H27510  12.512   1.796   8.818  0.9781  0.2030  2.0338
  204MOL0     H27511  12.579   1.717   8.673  1.0072  1.7280  0.1224
  204MOL0     H27512  12.773   1.660   8.776  0.0479  0.3417 -1.0099
  204MOL0     H27513  12.727   1.707   8.942 -3.8161  1.1043  0.1953
  204MOL0     H27514  12.743   1.895   8.696 -1.6126  0.1259  0.6112
  204MOL0     H27515  12.687   1.944   8.855  1.0365  0.5693  0.3110
  204MOL0     H27516  12.937   1.838   8.918 -0.4289  1.4537  0.6195
  204MOL0     H27517  12.912   2.000   8.876 -0.7782 -1.6705  2.6012
  204MOL0     H27518  13.097   1.851   8.758  0.2881  0.0667  0.1758
  204MOL0     H27519  12.971   1.764   8.674 -0.3785  0.5322  1.0416
  204MOL0     H27520  12.091   1.412   8.503 -0.0383 -1.7260 -1.0323
  204MOL0     H27521  11.857   1.369   8.533  1.5255 -0.1694 -0.5425
  204MOL0     H27522  11.514   1.250   8.658 -0.1861 -2.8149 -0.0448
  204MOL0     H27523  11.257   1.190   8.682 -0.8927  2.8823  0.0394
  204MOL0     H27524   9.483   1.117   7.953  0.5890 -0.0184  2.2303
  204MOL0     H27525   9.267   1.204   8.006 -0.4593 -0.4162 -1.2600
  204MOL0     H27526   8.889   1.256   8.062  2.1757 -1.2243  2.4168
  204MOL0     H27527   8.657   1.341   8.030  0.5659  0.9127  1.9277
  204MOL0     H27528   8.293   1.088   8.169  0.8105  2.8539  1.4812
  204MOL0     H27529   8.324   1.042   7.999  4.2887  1.6156 -0.5392
  204MOL0     H27530   8.160   1.282   8.109 -1.7201 -0.2004 -0.9206
  204MOL0     H27531   8.106   1.152   8.015 -0.3636  0.1699  0.5951
  204MOL0     H27532   8.272   1.223   7.823 -0.0959  0.2797  0.0146
  204MOL0     H27533   8.302   1.365   7.926 -0.1822  1.3619  0.9772
  204MOL0     H27534   8.136   1.446   7.779  0.5612 -0.0993  0.3399
  204MOL0     H27535   8.054   1.289   7.762  1.7900 -0.9222  0.5466
  204MOL0     H27536   7.829   1.474   8.068 -2.5468 -3.0623 -0.8379
  204MOL0     H27537   8.504   0.957   8.152  2.0547 -1.4443  3.8300
  204MOL0     H27538   8.806   0.779   8.096  2.3161 -0.3455  1.8209
  204MOL0     H27539   8.773   0.802   8.265  1.1583 -2.4699 -0.2330
  204MOL0     H27540   8.638   0.775   8.157  1.4721 -2.0405  2.2888
  205MOL0     O27541   3.704   0.325  11.281  0.1616 -0.1256 -0.0496
  205MOL0     C27542   3.612   0.355  11.364 -1.0943  0.5080 -0.7351
  205MOL0     O27543   3.626   0.356  11.502 -0.4923  1.1539 -0.3786
  205MOL0     C27544   3.745   0.347  11.570  0.5365 -0.5192 -0.3854
  205MOL0     C27545   3.857   0.277  11.523  0.2431  0.0452  0.0421
  205MOL0     C27546   3.982   0.280  11.586  0.8037  0.2824 -0.3622
  205MOL0     C27547   4.002   0.358  11.695  0.4642 -0.8479 -0.3622
  205MOL0     O27548   4.124   0.388  11.758 -0.2705  0.3965  0.0895
  205MOL0     C27549   4.223   0.288  11.730  0.4480 -0.6144 -0.0491
  205MOL0     C27550   4.347   0.307  11.815  0.4005  0.3610 -0.2621
  205MOL0     C27551   4.427   0.176  11.786  0.2928  1.1390  0.4629
  205MOL0     C27552   4.570   0.184  11.843  0.2478 -0.2845 -0.5127
  205MOL0     C27553   4.633   0.044  11.862  0.3114 -0.4732 -0.4327
  205MOL0     C27554   4.631  -0.037  11.728  0.6339  0.1100  0.3966
  205MOL0     C27555   4.663  -0.183  11.747 -0.0543 -1.1356 -0.3958
  205MOL0     C27556   4.579  -0.261  11.853  0.2445 -0.2188 -0.1402
  205MOL0     N27557   4.614  -0.404  11.829 -0.3632  0.0017  0.0313
  205MOL0     C27558   4.711  -0.462  11.906 -0.1820  0.2736 -0.7250
  205MOL0     C27559   4.719  -0.594  11.855 -0.7669 -0.3619  0.1406
  205MOL0     C27560   4.809  -0.707  11.902  0.2205  0.8588 -0.2860
  205MOL0     C27561   4.936  -0.725  11.818 -0.7094 -0.7657  0.4498
  205MOL0     C27562   5.006  -0.860  11.834 -0.1247  0.9164 -0.7214
  205MOL0     C27563   5.112  -0.878  11.718  0.0704  0.4418 -0.1693
  205MOL0     O27564   5.220  -0.960  11.760  0.5693 -0.2802  0.0648
  205MOL0     C27565   5.339  -0.932  11.695 -0.1185 -0.0613 -0.4352
  205MOL0     C27566   5.434  -0.831  11.730 -0.7545  0.2590 -0.2033
  205MOL0     C27567   5.555  -0.818  11.660  0.2737 -0.0712 -0.3905
  205MOL0     C27568   5.582  -0.889  11.548  0.7913 -0.0367 -0.5208
  205MOL0     C27569   5.708  -0.863  11.481 -0.7865  0.4386  0.0794
  205MOL0     O27570   5.715  -0.935  11.363 -0.4845 -0.2184  0.0071
  205MOL0     C27571   5.835  -0.922  11.299  0.2366 -0.1131  0.5931
  205MOL0     C27572   5.836  -0.862  11.177 -0.4129  0.0426  0.6755
  205MOL0     C27573   5.939  -0.844  11.086 -0.7376  0.0901 -0.1051
  205MOL0     C27574   6.068  -0.869  11.131  0.2882  0.2191  0.2302
  205MOL0     O27575   6.182  -0.852  11.053  0.1653  0.1922  0.2928
  205MOL0     C27576   6.303  -0.829  11.125  0.0163 -0.0560  1.2014
  205MOL0     C27577   6.377  -0.716  11.036  0.2683 -0.6393  0.1282
  205MOL0     C27578   6.502  -0.667  11.106  0.0676  0.3957 -0.7741
  205MOL0     C27579   6.578  -0.571  11.015 -0.2360 -1.0408  0.2200
  205MOL0     C27580   6.725  -0.566  11.039  0.0574  0.2200 -0.5951
  205MOL0     C27581   6.791  -0.701  11.001 -1.3764  0.7270  0.5999
  205MOL0     C27582   6.950  -0.703  11.014  0.4967 -0.2754  0.3118
  205MOL0     C27583   6.995  -0.845  10.983  0.9774 -0.4801 -0.2279
  205MOL0    Cl27584   7.167  -0.848  11.009 -0.2619 -0.3757 -0.2961
  205MOL0     C27585   6.080  -0.934  11.261 -0.2131 -0.5913  0.0033
  205MOL0     C27586   5.964  -0.957  11.344 -0.5617 -0.7191  0.7246
  205MOL0     O27587   5.779  -0.768  11.513  0.1690  0.3851  0.2373
  205MOL0     C27588   5.492  -0.984  11.511 -0.1653  0.3732  0.2905
  205MOL0     C27589   5.372  -1.007  11.579 -1.3276  0.1817 -1.1266
  205MOL0     N27590   4.628  -0.603  11.745  0.1304  0.2938 -0.2857
  205MOL0     N27591   4.570  -0.493  11.730 -0.2139  0.7030 -0.3278
  205MOL0     C27592   3.886   0.425  11.755 -1.1653  0.1754  0.2568
  205MOL0     C27593   3.758   0.413  11.693  0.0080  0.0143  0.0709
  205MOL0     C27594   3.478   0.385  11.310 -0.4502  0.4021  0.8562
  205MOL0     C27595   3.396   0.453  11.396 -0.5438  0.8778 -0.0488
  205MOL0     C27596   3.269   0.502  11.362 -0.1704 -0.6644  1.0427
  205MOL0     C27597   3.224   0.495  11.227  0.8841  0.4796 -0.3844
  205MOL0     O27598   3.108   0.533  11.160 -0.7832 -0.6873  0.2037
  205MOL0     C27599   3.003   0.582  11.244  0.0884 -0.6580 -0.5747
  205MOL0     C27600   2.868   0.579  11.166 -1.0190  0.5541  0.2440
  205MOL0     C27601   2.733   0.603  11.235  0.0383  0.5070  0.1956
  205MOL0     C27602   2.739   0.740  11.313 -0.5780  0.1454  0.8334
  205MOL0     C27603   2.795   0.728  11.448  0.1956 -0.5296 -0.4496
  205MOL0     C27604   2.844   0.698  11.561 -0.2317 -0.5649  0.3690
  205MOL0     C27605   3.310   0.432  11.139  1.1268 -0.3242  0.0467
  205MOL0     C27606   3.434   0.376  11.175 -1.0676  0.9627 -0.4956
  205MOL0     C27607   3.509   0.285  11.078 -0.3593  0.3937 -0.1774
  205MOL0     H27608   3.868   0.221  11.431  2.6146  0.1053  0.2255
  205MOL0     H27609   4.055   0.209  11.549  0.3613 -1.3867  1.7952
  205MOL0     H27610   4.182   0.188  11.752  2.4036 -1.2562  0.8987
  205MOL0     H27611   4.227   0.299  11.622 -4.5044 -0.2124 -0.4476
  205MOL0     H27612   4.325   0.302  11.922  2.8148 -1.1837  0.2447
  205MOL0     H27613   4.386   0.406  11.790 -1.2821  2.0870  3.2117
  205MOL0     H27614   4.428   0.172  11.676 -0.2128 -0.0811  0.4835
  205MOL0     H27615   4.366   0.098  11.833 -1.4029  0.4767 -2.5350
  205MOL0     H27616   4.629   0.244  11.774  1.6850 -1.1068 -0.0491
  205MOL0     H27617   4.584   0.231  11.941  3.1745  1.3978 -1.6290
  205MOL0     H27618   4.740   0.044  11.886  0.6460 -7.3467 -0.0792
  205MOL0     H27619   4.582  -0.011  11.942  2.0676 -2.0925 -0.3710
  205MOL0     H27620   4.528  -0.035  11.693  0.9930 -3.5654 -1.3389
  205MOL0     H27621   4.701   0.014  11.661 -0.6189  0.8934 -0.3532
  205MOL0     H27622   4.770  -0.192  11.769 -0.1728 -0.3320  0.5526
  205MOL0     H27623   4.642  -0.233  11.652 -0.5375 -0.8137 -0.4580
  205MOL0     H27624   4.588  -0.229  11.957 -1.8905 -0.7442  0.2620
  205MOL0     H27625   4.474  -0.252  11.822  1.4470  1.9296 -4.2647
  205MOL0     H27626   4.775  -0.423  11.984 -0.6331  1.7732 -1.0790
  205MOL0     H27627   4.832  -0.693  12.009 -0.0134 -0.0469 -0.1054
  205MOL0     H27628   4.747  -0.797  11.892  1.1281  0.2353 -0.3635
  205MOL0     H27629   4.916  -0.706  11.712 -1.4685  1.9001  0.9995
  205MOL0     H27630   5.005  -0.648  11.851  2.0075 -2.9612  0.2694
  205MOL0     H27631   4.920  -0.928  11.834 -1.3308  2.3849  0.3540
  205MOL0     H27632   5.041  -0.876  11.936 -1.3930  3.0208  0.0767
  205MOL0     H27633   5.152  -0.782  11.684  0.5090  0.3823  0.1647
  205MOL0     H27634   5.070  -0.922  11.627 -0.2389  0.6213 -0.1132
  205MOL0     H27635   5.419  -0.765  11.815 -0.1222 -2.4680  2.2122
  205MOL0     H27636   5.625  -0.743  11.696 -2.2356  2.1780  0.1492
  205MOL0     H27637   5.741  -0.827  11.138 -0.1029  1.5279  1.2119
  205MOL0     H27638   5.924  -0.803  10.987 -1.8373 -1.3506 -0.5612
  205MOL0     H27639   6.272  -0.792  11.223 -2.6647 -3.2179  1.6881
  205MOL0     H27640   6.372  -0.912  11.143  1.1228  0.2313 -1.1755
  205MOL0     H27641   6.395  -0.757  10.936 -2.5866 -0.2594 -0.6375
  205MOL0     H27642   6.311  -0.631  11.017 -0.6409 -1.2944  0.2919
  205MOL0     H27643   6.470  -0.614  11.197 -2.9026  0.7189 -1.8793
  205MOL0     H27644   6.567  -0.751  11.131  3.0021  2.1582 -1.9243
  205MOL0     H27645   6.538  -0.471  11.032  1.2599 -0.2657 -0.6164
  205MOL0     H27646   6.566  -0.592  10.908 -1.9717 -2.1940  0.5847
  205MOL0     H27647   6.740  -0.553  11.147 -3.7669  0.5425  0.0429
  205MOL0     H27648   6.777  -0.486  10.986  1.1136 -0.2595 -0.3168
  205MOL0     H27649   6.753  -0.783  11.063 -1.4577 -1.1571 -1.7907
  205MOL0     H27650   6.760  -0.724  10.899 -2.4406 -1.3971  1.3437
  205MOL0     H27651   6.975  -0.671  11.115  0.6141 -0.2058  0.2608
  205MOL0     H27652   6.994  -0.635  10.940  0.2990 -0.2188  0.2455
  205MOL0     H27653   6.941  -0.913  11.049  1.9218  0.4125  1.5430
  205MOL0     H27654   6.961  -0.872  10.883 -4.0932 -0.1871  1.1110
  205MOL0     H27655   6.176  -0.970  11.297 -0.6399 -1.2707  0.4909
  205MOL0     H27656   5.992  -0.976  11.447  0.7140 -0.1690  0.4978
  205MOL0     H27657   5.520  -1.049  11.429  0.1984 -0.2024  0.8564
  205MOL0     H27658   5.297  -1.081  11.554 -0.9559 -1.2728  1.7100
  205MOL0     H27659   3.895   0.487  11.844  2.8880 -0.2013  0.2740
  205MOL0     H27660   3.665   0.452  11.732 -0.7860  0.8440 -2.4729
  205MOL0     H27661   3.414   0.469  11.502 -3.4812 -0.1134  0.6757
  205MOL0     H27662   3.193   0.539  11.429 -0.6867  0.2586 -0.0119
  205MOL0     H27663   3.027   0.678  11.289 -0.7148 -0.7925  0.1844
  205MOL0     H27664   2.984   0.512  11.326 -2.5224 -0.5252 -0.9868
  205MOL0     H27665   2.858   0.485  11.112 -0.4444  0.1932  0.7530
  205MOL0     H27666   2.870   0.667  11.101  1.1152  1.0405  0.8979
  205MOL0     H27667   2.716   0.515  11.298 -0.7186  0.7728  0.3827
  205MOL0     H27668   2.649   0.595  11.166 -0.6508  0.2989  1.0332
  205MOL0     H27669   2.796   0.810  11.250  1.1704 -1.4284  0.5730
  205MOL0     H27670   2.641   0.788  11.305 -1.0255 -0.6844  1.1810
  205MOL0     H27671   2.892   0.697  11.657  1.2395 -1.9174 -0.3368
  205MOL0     H27672   3.285   0.420  11.034 -0.4660 -0.1479  0.3956
  205MOL0     H27673   3.562   0.200  11.124  1.4977 -0.4014 -3.4253
  205MOL0     H27674   3.446   0.240  11.000  1.8353 -0.2793 -1.6861
  205MOL0     H27675   3.585   0.341  11.022  0.7314  1.0568  1.8779
  206MOL0     O27676   2.867   2.503   5.497 -0.4620 -0.2740 -0.5233
  206MOL0     C27677   2.802   2.577   5.573 -0.0201  0.4892  0.2567
  206MOL0     O27678   2.838   2.631   5.683 -0.4215 -0.3405 -0.0044
  206MOL0     C27679   2.972   2.618   5.711  0.6392  0.2728 -0.0288
  206MOL0     C27680   3.004   2.511   5.799 -0.0219 -0.8685 -0.4362
  206MOL0     C27681   3.134   2.496   5.831 -0.1557  0.6582 -0.3699
  206MOL0     C27682   3.225   2.589   5.794 -0.7571  0.4714 -0.0654
  206MOL0     O27683   3.357   2.595   5.844  0.1019 -0.4706 -0.2756
  206MOL0     C27684   3.394   2.482   5.930 -0.8052  0.3873 -0.1344
  206MOL0     C27685   3.516   2.529   6.006  0.5259 -0.0623 -0.0512
  206MOL0     C27686   3.646   2.556   5.917 -0.0443  0.7281 -0.8021
  206MOL0     C27687   3.694   2.424   5.847 -0.6379  1.7154  0.4155
  206MOL0     C27688   3.797   2.461   5.733 -0.3435  0.1928 -0.0126
  206MOL0     C27689   3.881   2.352   5.666  0.6431  1.3863 -0.2272
  206MOL0     C27690   3.964   2.410   5.557 -0.0670  0.6142 -0.1259
  206MOL0     C27691   4.028   2.296   5.484 -0.0861  0.1596  0.7208
  206MOL0     N27692   4.144   2.238   5.560  0.1644 -0.4030  0.0452
  206MOL0     C27693   4.138   2.118   5.629 -0.7880 -0.4021 -0.5121
  206MOL0     C27694   4.269   2.086   5.656  0.2264 -0.4933  0.8232
  206MOL0     C27695   4.302   1.968   5.733 -0.5980 -1.1762  0.4033
  206MOL0     C27696   4.284   1.998   5.886  0.2468 -0.1123 -0.2508
  206MOL0     C27697   4.329   1.877   5.966 -0.3641 -0.4250  0.5303
  206MOL0     C27698   4.286   1.890   6.119  0.7456 -0.2501 -1.7201
  206MOL0     O27699   4.335   2.012   6.183  0.2361 -0.3652  0.7596
  206MOL0     C27700   4.465   2.030   6.209  0.1184 -0.3363  0.1939
  206MOL0     C27701   4.512   2.163   6.221 -1.5042 -0.3862 -0.3981
  206MOL0     C27702   4.645   2.203   6.249  0.1267  0.2939 -0.3418
  206MOL0     C27703   4.740   2.098   6.272  0.1859 -0.5589  0.7384
  206MOL0     C27704   4.888   2.122   6.295 -0.2015  0.7160 -0.2015
  206MOL0     O27705   4.960   2.008   6.331  1.0261  0.1713  0.6012
  206MOL0     C27706   5.086   2.026   6.371 -0.5195  0.3825  1.2849
  206MOL0     C27707   5.116   1.990   6.498 -0.4825 -0.3137  0.1257
  206MOL0     C27708   5.252   1.976   6.536 -0.1720 -0.3610 -0.7580
  206MOL0     C27709   5.363   1.988   6.451 -0.6300  0.1620 -0.5464
  206MOL0     O27710   5.494   1.953   6.496  0.6154  0.0494 -0.3639
  206MOL0     C27711   5.600   2.006   6.420  0.0267  0.3412 -0.3405
  206MOL0     C27712   5.744   1.973   6.472 -0.1722  0.1088  0.2986
  206MOL0     C27713   5.843   2.057   6.394 -0.2008  0.0674  0.4974
  206MOL0     C27714   5.996   2.021   6.422  0.5482 -0.1314 -0.7673
  206MOL0     C27715   6.096   2.118   6.355  0.0721  0.4385 -0.1535
  206MOL0     C27716   6.227   2.090   6.414  0.3547 -0.7407 -0.3662
  206MOL0     C27717   6.345   2.168   6.359 -0.3762  0.3880 -1.1276
  206MOL0     C27718   6.477   2.134   6.436 -0.3239 -0.0405  0.6104
  206MOL0    Cl27719   6.618   2.168   6.320  0.5194 -0.4003 -0.1766
  206MOL0     C27720   5.328   2.030   6.318  0.0859  1.0602  0.2059
  206MOL0     C27721   5.197   2.052   6.283  0.3992 -0.5879 -0.0755
  206MOL0     O27722   4.926   2.241   6.290  0.0627  1.1995 -0.2436
  206MOL0     C27723   4.685   1.969   6.279 -0.2670 -0.7846  0.1822
  206MOL0     C27724   4.560   1.930   6.237  0.5836  0.2405  0.5167
  206MOL0     N27725   4.344   2.186   5.610 -0.2458 -0.2533 -0.1312
  206MOL0     N27726   4.281   2.279   5.550  0.3299  0.1008  0.2038
  206MOL0     C27727   3.198   2.690   5.703 -0.4299  1.0203  0.6123
  206MOL0     C27728   3.065   2.699   5.655  0.2018 -1.0185  0.2720
  206MOL0     C27729   2.656   2.578   5.567  0.0590 -0.1707  0.6158
  206MOL0     C27730   2.575   2.558   5.675  0.7016 -0.0838 -0.5036
  206MOL0     C27731   2.437   2.543   5.667 -1.1302  0.0705  0.0786
  206MOL0     C27732   2.377   2.565   5.546 -0.1367 -0.6541  0.5801
  206MOL0     O27733   2.235   2.557   5.548 -0.2844  0.7142  0.1449
  206MOL0     C27734   2.176   2.544   5.417 -0.3432  0.4668  0.3917
  206MOL0     C27735   2.025   2.518   5.408 -0.0455  0.3444 -0.2916
  206MOL0     C27736   1.986   2.393   5.479  0.7445 -0.0992 -0.5921
  206MOL0     C27737   1.831   2.356   5.476 -0.3082  0.3590  0.6352
  206MOL0     C27738   1.755   2.410   5.587  0.2064 -0.2792 -0.0947
  206MOL0     C27739   1.719   2.421   5.703  0.0119 -0.4231  0.4067
  206MOL0     C27740   2.450   2.573   5.428 -0.3009 -0.1273 -0.8205
  206MOL0     C27741   2.584   2.582   5.443 -0.9944 -0.9727 -0.2256
  206MOL0     C27742   2.663   2.630   5.314  0.0944 -0.6428 -1.2957
  206MOL0     H27743   2.925   2.453   5.845  0.7803 -0.8296  1.0396
  206MOL0     H27744   3.153   2.402   5.881 -2.8779 -0.6481 -1.5434
  206MOL0     H27745   3.319   2.450   6.003 -0.2927 -1.3306 -0.3209
  206MOL0     H27746   3.420   2.394   5.871 -2.5566  1.1435 -2.1255
  206MOL0     H27747   3.538   2.466   6.093  0.2948 -0.4067 -0.2411
  206MOL0     H27748   3.480   2.621   6.052 -0.7032  0.1666 -1.4152
  206MOL0     H27749   3.727   2.581   5.986 -2.2926 -2.5836  3.5719
  206MOL0     H27750   3.635   2.636   5.843 -1.9926 -0.2847 -1.6786
  206MOL0     H27751   3.731   2.351   5.920 -1.6520 -1.3697 -1.9008
  206MOL0     H27752   3.610   2.373   5.799  0.4256 -0.8199  1.0799
  206MOL0     H27753   3.745   2.516   5.654  0.3411 -0.5042 -0.9725
  206MOL0     H27754   3.873   2.525   5.779 -0.0009  0.5671 -1.0830
  206MOL0     H27755   3.939   2.298   5.742  1.4654 -1.8881 -2.9368
  206MOL0     H27756   3.815   2.273   5.629  2.2059  0.6948 -1.6995
  206MOL0     H27757   4.041   2.472   5.604  1.9832 -1.5553 -0.4066
  206MOL0     H27758   3.905   2.469   5.487 -0.7263  2.0736  1.5870
  206MOL0     H27759   3.949   2.225   5.460 -0.3533  0.8211 -0.4907
  206MOL0     H27760   4.071   2.328   5.388 -0.0835 -0.5699  0.4788
  206MOL0     H27761   4.056   2.049   5.651 -1.8112  0.2921 -2.0018
  206MOL0     H27762   4.222   1.898   5.709  0.6735 -1.8472 -2.1976
  206MOL0     H27763   4.404   1.934   5.710  0.2732  1.1674  0.5578
  206MOL0     H27764   4.355   2.076   5.917 -1.3460  0.9767  0.7931
  206MOL0     H27765   4.183   2.032   5.910 -0.5571 -1.3781 -1.6897
  206MOL0     H27766   4.437   1.860   5.960 -0.2905  0.5442 -2.1909
  206MOL0     H27767   4.294   1.782   5.925 -0.8826 -0.4544  1.0172
  206MOL0     H27768   4.316   1.802   6.176  0.8476  2.3232  2.6658
  206MOL0     H27769   4.177   1.894   6.131  0.6894 -1.1757 -1.8992
  206MOL0     H27770   4.444   2.242   6.191 -0.5464 -0.1462 -2.1041
  206MOL0     H27771   4.672   2.308   6.245  1.8542 -0.1254 -0.3551
  206MOL0     H27772   5.036   1.979   6.571 -0.7954 -1.1075 -0.3212
  206MOL0     H27773   5.271   1.961   6.642  2.2853  2.1936 -0.7263
  206MOL0     H27774   5.593   1.962   6.321 -1.4550 -1.6232  0.5701
  206MOL0     H27775   5.591   2.114   6.406  1.1843  0.3183 -1.4564
  206MOL0     H27776   5.760   1.993   6.578  0.9444  2.1541 -0.2002
  206MOL0     H27777   5.764   1.869   6.444  0.8297  0.6150 -0.9935
  206MOL0     H27778   5.833   2.031   6.288  0.0582 -1.8794  0.9144
  206MOL0     H27779   5.816   2.160   6.419 -0.4227 -0.4587  2.5943
  206MOL0     H27780   6.002   1.919   6.383  0.5284 -1.0959  1.5408
  206MOL0     H27781   6.001   2.018   6.532  0.0554  0.9856 -0.7028
  206MOL0     H27782   6.073   2.221   6.382  2.3870  1.5410 -1.9751
  206MOL0     H27783   6.105   2.117   6.246  2.2212  2.3015 -0.0739
  206MOL0     H27784   6.216   2.101   6.522  0.5590 -0.6033 -0.3583
  206MOL0     H27785   6.249   1.986   6.389 -0.2295 -0.6724 -1.2037
  206MOL0     H27786   6.338   2.277   6.368  2.0933  0.4038  2.3853
  206MOL0     H27787   6.361   2.144   6.253 -1.9777 -2.8066 -0.7522
  206MOL0     H27788   6.486   2.191   6.529 -0.5000  0.0580  0.5686
  206MOL0     H27789   6.485   2.027   6.460  0.5281 -0.1859 -0.2605
  206MOL0     H27790   5.404   2.060   6.246 -0.9680  2.1009 -0.4967
  206MOL0     H27791   5.165   2.082   6.184  0.3069  1.1865  0.4640
  206MOL0     H27792   4.754   1.890   6.306  1.6292  0.5649 -0.4640
  206MOL0     H27793   4.531   1.826   6.249 -0.1836  0.4747  0.7755
  206MOL0     H27794   3.275   2.763   5.679  0.3316  0.4404  1.2149
  206MOL0     H27795   3.022   2.783   5.601  0.0662 -0.6253  0.9751
  206MOL0     H27796   2.612   2.561   5.778 -0.5633 -0.6266 -0.0149
  206MOL0     H27797   2.381   2.511   5.755  1.4286  0.0276  1.7928
  206MOL0     H27798   2.216   2.454   5.371 -1.3880 -0.1551  0.6742
  206MOL0     H27799   2.209   2.629   5.356 -0.2414 -1.6277 -2.6624
  206MOL0     H27800   2.004   2.514   5.301  0.7242  0.1909 -0.4389
  206MOL0     H27801   1.960   2.590   5.458 -1.2924  1.2187 -2.9855
  206MOL0     H27802   2.012   2.404   5.585 -2.8148  1.6643  0.2648
  206MOL0     H27803   2.037   2.300   5.451  0.5672 -1.4773  3.1011
  206MOL0     H27804   1.794   2.387   5.378  0.6145 -0.9100 -0.1474
  206MOL0     H27805   1.816   2.249   5.494 -1.0317  0.4702  0.7458
  206MOL0     H27806   1.682   2.438   5.801  1.3130 -1.7597  1.1721
  206MOL0     H27807   2.408   2.583   5.329 -0.9889  2.2818 -0.3370
  206MOL0     H27808   2.763   2.664   5.340 -0.7898  0.2400  1.3285
  206MOL0     H27809   2.673   2.542   5.250  1.1065 -1.9876  0.6314
  206MOL0     H27810   2.611   2.708   5.257  2.0992 -0.2660 -2.6888
  207MOL0     O27811   3.248   1.084  11.266  0.4528  0.3797 -0.3678
  207MOL0     C27812   3.170   1.054  11.362 -0.2919  0.7138  1.1408
  207MOL0     O27813   3.210   0.976  11.472  0.3513 -0.3652 -0.6793
  207MOL0     C27814   3.340   0.945  11.507  0.4617  0.4081  0.4794
  207MOL0     C27815   3.440   1.040  11.497 -0.0553 -0.2823 -0.8064
  207MOL0     C27816   3.569   1.019  11.552 -0.6169 -0.2099  0.5277
  207MOL0     C27817   3.603   0.897  11.618 -0.1128  0.0483  0.6477
  207MOL0     O27818   3.721   0.870  11.663 -0.3356  0.3706 -0.1964
  207MOL0     C27819   3.803   0.808  11.569  0.0740 -0.3545 -0.1967
  207MOL0     C27820   3.931   0.765  11.642  0.3663 -0.1721 -0.0362
  207MOL0     C27821   4.021   0.884  11.681 -0.2905  0.5513  0.5694
  207MOL0     C27822   4.144   0.833  11.762 -0.0723  0.0415  0.2173
  207MOL0     C27823   4.249   0.938  11.781 -0.4556 -0.2225  0.0558
  207MOL0     C27824   4.347   0.899  11.892  0.4394  0.0118  0.6346
  207MOL0     C27825   4.447   1.008  11.915  0.5141  0.3689  0.1230
  207MOL0     C27826   4.512   1.055  11.790 -0.0041  0.2434 -0.5104
  207MOL0     N27827   4.648   1.104  11.816 -0.3456 -0.9634 -0.3656
  207MOL0     C27828   4.684   1.218  11.896 -0.0609  0.9699 -0.5190
  207MOL0     C27829   4.813   1.194  11.934  0.0749 -0.0331 -0.8662
  207MOL0     C27830   4.893   1.285  12.021 -0.1742  1.1232  0.0427
  207MOL0     C27831   5.022   1.226  12.074 -0.9044 -0.3852 -0.0957
  207MOL0     C27832   5.136   1.240  11.978  0.8250  0.2930 -0.0164
  207MOL0     C27833   5.250   1.163  12.037 -0.5763  0.3202 -0.2384
  207MOL0     O27834   5.352   1.207  11.948 -0.1175  0.2437  0.0874
  207MOL0     C27835   5.483   1.196  11.978  0.1468  0.1392  0.5103
  207MOL0     C27836   5.569   1.257  11.881 -0.1713  0.1063 -0.1647
  207MOL0     C27837   5.705   1.266  11.904  0.7318  0.0089 -0.7417
  207MOL0     C27838   5.766   1.206  12.018 -0.6159 -0.4034  0.1101
  207MOL0     C27839   5.912   1.201  12.036  0.5303 -0.9235  0.3439
  207MOL0     O27840   5.963   1.110  12.116 -0.9391  0.4678 -0.3618
  207MOL0     C27841   6.097   1.116  12.133 -0.6321 -0.0412  0.4153
  207MOL0     C27842   6.144   1.162  12.256  0.0420  0.3067  0.0509
  207MOL0     C27843   6.279   1.152  12.282 -0.1513 -0.0068  0.1073
  207MOL0     C27844   6.364   1.097  12.196 -0.3930 -0.4554  0.0514
  207MOL0     O27845   6.494   1.060  12.219 -0.7168 -0.1992 -0.1631
  207MOL0     C27846   6.557   1.080  12.346 -0.3178  0.7581 -0.6674
  207MOL0     C27847   6.665   0.978  12.373 -0.7546  0.5638  0.5491
  207MOL0     C27848   6.747   0.937  12.247  0.1807  0.1237  0.7805
  207MOL0     C27849   6.873   0.848  12.274 -0.5716  0.3592  0.1575
  207MOL0     C27850   6.991   0.937  12.318  0.0342  0.6873  0.5248
  207MOL0     C27851   7.115   0.850  12.352 -0.1961 -0.1696  0.0919
  207MOL0     C27852   7.238   0.938  12.386 -0.4664 -0.4679  0.5944
  207MOL0     C27853   7.368   0.863  12.361  0.0341 -0.5809 -0.1768
  207MOL0    Cl27854   7.367   0.709  12.452 -0.2978 -0.1281  0.2515
  207MOL0     C27855   6.319   1.044  12.072  0.1320  0.7522  0.2528
  207MOL0     C27856   6.183   1.052  12.048  0.1759 -0.5727 -0.2619
  207MOL0     O27857   5.978   1.289  11.984 -0.3445 -0.5846  0.9464
  207MOL0     C27858   5.679   1.137  12.105 -0.3215 -0.2766 -1.5744
  207MOL0     C27859   5.540   1.138  12.092 -0.4449 -0.3372  0.4565
  207MOL0     N27860   4.853   1.070  11.890  0.7728  0.4086  0.0706
  207MOL0     N27861   4.758   1.017  11.824 -0.3197 -0.6246  0.0124
  207MOL0     C27862   3.499   0.803  11.626  0.0221  0.0902  0.4257
  207MOL0     C27863   3.364   0.823  11.571 -1.2826  0.0281 -0.5501
  207MOL0     C27864   3.016   1.094  11.350  0.6896 -0.3584  0.3429
  207MOL0     C27865   2.934   1.077  11.460  0.2175 -0.6381 -1.0685
  207MOL0     C27866   2.801   1.113  11.454 -0.5644 -0.0570  0.4089
  207MOL0     C27867   2.747   1.176  11.338  0.3518  0.3565 -0.6874
  207MOL0     O27868   2.619   1.225  11.322  0.2139 -0.8160 -0.2451
  207MOL0     C27869   2.534   1.256  11.436  0.5131  0.0706 -0.5968
  207MOL0     C27870   2.464   1.135  11.495  0.9206 -0.1394 -0.0300
  207MOL0     C27871   2.383   1.060  11.381  0.2921 -0.7128  0.8080
  207MOL0     C27872   2.323   0.930  11.443  0.0166 -0.3402 -0.4819
  207MOL0     C27873   2.245   0.954  11.570 -0.4788  1.3513  0.5042
  207MOL0     C27874   2.179   0.962  11.672  0.0208  0.1717  0.3270
  207MOL0     C27875   2.826   1.187  11.224  0.9626 -0.0839  0.1263
  207MOL0     C27876   2.962   1.153  11.231  0.3898 -0.2443 -0.0916
  207MOL0     C27877   3.044   1.179  11.105  0.0089 -0.4058  0.6388
  207MOL0     H27878   3.420   1.135  11.448 -1.9704  0.5275  1.3755
  207MOL0     H27879   3.642   1.097  11.536 -0.9946  0.0440  0.0134
  207MOL0     H27880   3.750   0.716  11.542  0.9805 -1.5367  1.8421
  207MOL0     H27881   3.829   0.873  11.485  1.2167 -1.0242 -0.3734
  207MOL0     H27882   3.982   0.681  11.594 -1.6081 -2.4145  1.5068
  207MOL0     H27883   3.893   0.714  11.731  0.2894 -1.4922 -0.7914
  207MOL0     H27884   3.970   0.971  11.721  0.5024  1.2641  0.0670
  207MOL0     H27885   4.063   0.914  11.584  0.7576 -0.6308  0.6243
  207MOL0     H27886   4.096   0.808  11.857  0.2762 -3.2044 -0.3257
  207MOL0     H27887   4.191   0.744  11.718 -1.5553 -0.3239 -0.6973
  207MOL0     H27888   4.300   0.957  11.686 -0.1438  2.4774  0.6775
  207MOL0     H27889   4.201   1.032  11.811 -0.2262 -0.7919  2.3673
  207MOL0     H27890   4.288   0.882  11.982 -0.4218  0.9981  0.2681
  207MOL0     H27891   4.392   0.801  11.873 -1.7316 -0.8814 -0.1803
  207MOL0     H27892   4.515   0.963  11.988 -3.3991 -1.6310  2.8870
  207MOL0     H27893   4.399   1.094  11.963  1.0096  0.0894  1.1392
  207MOL0     H27894   4.525   0.974  11.718 -0.2891 -0.4595  0.2113
  207MOL0     H27895   4.453   1.137  11.748 -0.0421  2.0667  2.7761
  207MOL0     H27896   4.613   1.297  11.917 -5.7504 -3.4279 -0.5347
  207MOL0     H27897   4.903   1.383  11.972 -0.5455  1.3224  0.3551
  207MOL0     H27898   4.835   1.296  12.113  0.1128 -4.0480  1.1525
  207MOL0     H27899   5.055   1.280  12.163 -0.6904 -0.8629  0.1201
  207MOL0     H27900   5.010   1.119  12.092 -0.6741 -1.2356 -4.2036
  207MOL0     H27901   5.158   1.347  11.967 -0.3616  0.7660  1.7630
  207MOL0     H27902   5.111   1.204  11.878 -1.4162  2.9191 -0.5329
  207MOL0     H27903   5.234   1.055  12.029 -0.2765 -0.3966  5.0411
  207MOL0     H27904   5.272   1.186  12.142  2.8808 -0.3456 -0.6700
  207MOL0     H27905   5.531   1.280  11.782 -0.7538 -3.0167 -0.7816
  207MOL0     H27906   5.772   1.317  11.836 -0.4447  2.6482 -0.0680
  207MOL0     H27907   6.071   1.205  12.324 -0.1442  1.5647 -0.9005
  207MOL0     H27908   6.326   1.182  12.375  1.0873 -0.0727 -0.4820
  207MOL0     H27909   6.611   1.175  12.348 -0.0246  0.5965 -0.8293
  207MOL0     H27910   6.482   1.069  12.424 -0.6022 -0.5853 -1.1050
  207MOL0     H27911   6.727   1.007  12.458 -1.3730 -1.0637  1.6072
  207MOL0     H27912   6.622   0.884  12.409 -1.1481  1.4194  2.4600
  207MOL0     H27913   6.681   0.886  12.176  1.7356 -1.1127  0.1627
  207MOL0     H27914   6.782   1.029  12.199  1.8425 -1.2270 -0.7094
  207MOL0     H27915   6.906   0.787  12.189 -3.4038 -2.1421  0.6682
  207MOL0     H27916   6.848   0.779  12.355  0.8531  1.0310  1.2128
  207MOL0     H27917   6.968   0.989  12.411 -0.1133 -2.8502  2.6415
  207MOL0     H27918   7.014   1.003  12.234 -2.8599 -0.9046 -1.7088
  207MOL0     H27919   7.089   0.793  12.442  1.3815 -0.3157  0.4864
  207MOL0     H27920   7.139   0.786  12.267 -1.0008  3.0115 -2.7188
  207MOL0     H27921   7.228   0.973  12.489  0.8105  0.1991  0.5194
  207MOL0     H27922   7.241   1.025  12.320  0.9699  0.1566  1.4163
  207MOL0     H27923   7.392   0.829  12.260 -0.6024 -0.0881 -0.5009
  207MOL0     H27924   7.449   0.920  12.407 -0.9500  1.0209 -0.3455
  207MOL0     H27925   6.383   0.977  12.017 -1.0563  1.7607 -2.5051
  207MOL0     H27926   6.133   1.013  11.960 -1.5492  0.1003  0.3791
  207MOL0     H27927   5.717   1.080  12.189  0.0052 -2.0359 -2.8435
  207MOL0     H27928   5.480   1.096  12.172 -0.1417 -0.4406  0.6283
  207MOL0     H27929   3.530   0.712  11.676  1.0030  0.6689  0.9068
  207MOL0     H27930   3.296   0.738  11.575  0.2309 -1.2086  3.1590
  207MOL0     H27931   2.970   1.030  11.552 -1.8902  1.3649  0.9065
  207MOL0     H27932   2.742   1.093  11.543 -1.5497 -0.3375 -0.2932
  207MOL0     H27933   2.467   1.338  11.408 -0.6379 -0.6759 -0.1024
  207MOL0     H27934   2.598   1.302  11.512 -1.7540  1.2901  0.7010
  207MOL0     H27935   2.403   1.170  11.579 -0.4354 -0.7415 -0.7288
  207MOL0     H27936   2.541   1.064  11.527 -0.0699  0.3729  3.9251
  207MOL0     H27937   2.433   1.024  11.291 -1.4145 -3.2834  0.7837
  207MOL0     H27938   2.311   1.136  11.351  1.5367  0.5500  0.9218
  207MOL0     H27939   2.263   0.884  11.365  0.1787  0.4876 -1.1089
  207MOL0     H27940   2.407   0.864  11.468 -0.6077 -0.1865  2.3133
  207MOL0     H27941   2.127   0.964  11.766  2.1460  2.7915  1.5813
  207MOL0     H27942   2.781   1.249  11.147  1.3838  0.3960  0.2597
  207MOL0     H27943   2.978   1.213  11.024  2.2961 -0.8180 -1.5104
  207MOL0     H27944   3.121   1.257  11.112 -0.0889  0.3845 -3.9462
  207MOL0     H27945   3.090   1.083  11.083 -1.7005 -2.1616  3.8726
  208MOL0     O27946   2.130   4.509   5.524 -0.5948 -0.4251 -0.5156
  208MOL0     C27947   2.109   4.525   5.646 -0.4679 -0.5491 -0.1058
  208MOL0     O27948   1.984   4.562   5.704 -0.2213  0.3659  0.4505
  208MOL0     C27949   1.877   4.563   5.612 -0.3622  0.5521 -0.9409
  208MOL0     C27950   1.829   4.446   5.573  0.0652  0.5534  0.2397
  208MOL0     C27951   1.709   4.444   5.495  1.0800 -0.1027 -0.1421
  208MOL0     C27952   1.643   4.569   5.466  0.3084  1.5348 -0.2083
  208MOL0     O27953   1.526   4.580   5.399 -0.3117 -0.2913  1.5299
  208MOL0     C27954   1.477   4.462   5.344  0.1094 -0.0022 -0.6014
  208MOL0     C27955   1.334   4.487   5.299 -0.2817 -0.5738 -0.1949
  208MOL0     C27956   1.330   4.573   5.166  0.2688 -0.8410 -0.8339
  208MOL0     C27957   1.294   4.484   5.048  0.1576  0.3047  0.6209
  208MOL0     C27958   1.267   4.564   4.922  0.1907  0.1455 -0.6539
  208MOL0     C27959   1.251   4.475   4.806  0.3180 -0.3971  0.1575
  208MOL0     C27960   1.181   4.546   4.683 -0.7391 -0.0187 -1.2092
  208MOL0     C27961   1.121   4.444   4.589 -0.7707  0.2274 -0.1184
  208MOL0     N27962   1.226   4.352   4.535 -0.0390 -0.8219  1.2462
  208MOL0     C27963   1.225   4.217   4.506  0.1726 -0.3881 -0.0982
  208MOL0     C27964   1.349   4.192   4.460  0.1698  0.0412 -0.8789
  208MOL0     C27965   1.408   4.062   4.447  0.7322  0.3379  0.0642
  208MOL0     C27966   1.450   3.999   4.583  0.3476 -0.0475 -0.0540
  208MOL0     C27967   1.559   3.880   4.562  0.0539  0.1750  1.0816
  208MOL0     C27968   1.602   3.817   4.699 -1.1499  0.2598  0.3076
  208MOL0     O27969   1.499   3.744   4.755  0.3643  0.2563  0.0279
  208MOL0     C27970   1.511   3.665   4.867 -0.3091  0.1441  0.0286
  208MOL0     C27971   1.406   3.592   4.908 -0.4061  0.4489 -0.5243
  208MOL0     C27972   1.414   3.496   5.011 -0.5541  0.6866  0.5942
  208MOL0     C27973   1.537   3.469   5.070  0.1885 -0.4746  0.0949
  208MOL0     C27974   1.544   3.361   5.170 -0.5081 -0.1464  0.6374
  208MOL0     O27975   1.667   3.351   5.242  0.5017 -0.1244 -0.5563
  208MOL0     C27976   1.677   3.251   5.337  0.8288 -0.5359 -0.1864
  208MOL0     C27977   1.739   3.278   5.457  0.0732  0.7268 -0.2569
  208MOL0     C27978   1.746   3.183   5.558  0.1360 -0.1689 -0.4836
  208MOL0     C27979   1.710   3.050   5.533  0.5858  0.6585  0.4259
  208MOL0     O27980   1.720   2.965   5.645  0.8017 -0.6300  0.9447
  208MOL0     C27981   1.825   2.872   5.630 -0.0936 -0.3216  0.7685
  208MOL0     C27982   1.835   2.790   5.758  0.3435 -0.1964 -0.1976
  208MOL0     C27983   1.966   2.712   5.767 -0.8594  0.0380  0.2862
  208MOL0     C27984   1.975   2.616   5.880  0.2309 -0.4836 -0.4327
  208MOL0     C27985   2.107   2.536   5.873  0.3179  0.9459  0.5726
  208MOL0     C27986   2.123   2.461   6.007 -0.0898 -0.0455 -0.4638
  208MOL0     C27987   2.258   2.380   6.026  0.5028  0.0577 -1.0500
  208MOL0     C27988   2.237   2.234   5.973  0.7218 -0.6351  0.1483
  208MOL0    Cl27989   2.227   2.228   5.801 -0.1211 -0.0513  0.5880
  208MOL0     C27990   1.652   3.010   5.412 -0.0554  0.1019  0.5412
  208MOL0     C27991   1.639   3.113   5.319  0.0058  0.1710  0.2002
  208MOL0     O27992   1.447   3.284   5.166  0.1716  0.1926 -0.6324
  208MOL0     C27993   1.648   3.539   5.032  1.1305  0.3584  0.4653
  208MOL0     C27994   1.633   3.633   4.925 -0.9098 -0.1936  0.0778
  208MOL0     N27995   1.407   4.308   4.445 -0.4611 -0.0164  0.0702
  208MOL0     N27996   1.343   4.404   4.483  0.2513  0.3165 -0.4668
  208MOL0     C27997   1.699   4.682   5.505 -0.4419 -0.8315  0.7321
  208MOL0     C27998   1.816   4.680   5.568  0.6444  0.3686  0.0256
  208MOL0     C27999   2.216   4.504   5.746 -0.4378  0.2602  0.7467
  208MOL0     C28000   2.178   4.466   5.878  0.2479  0.8381  0.0567
  208MOL0     C28001   2.276   4.431   5.970  0.3680  0.5936  0.1578
  208MOL0     C28002   2.412   4.441   5.943 -0.4953  0.0567  0.2094
  208MOL0     O28003   2.491   4.409   6.054 -0.2826  0.1770  0.2713
  208MOL0     C28004   2.633   4.419   6.027  0.2151  0.1488 -0.1582
  208MOL0     C28005   2.723   4.371   6.146  0.0713 -0.7118  0.1997
  208MOL0     C28006   2.725   4.220   6.173  0.3574 -0.0614  1.5483
  208MOL0     C28007   2.746   4.186   6.317  0.6258  0.5398 -0.5158
  208MOL0     C28008   2.885   4.223   6.372  0.0975  0.0646 -0.0552
  208MOL0     C28009   2.997   4.249   6.414  0.3715  0.0622  0.0151
  208MOL0     C28010   2.457   4.470   5.809 -0.0875  0.3219  0.7022
  208MOL0     C28011   2.357   4.498   5.713  1.3011  0.4263  0.3474
  208MOL0     C28012   2.405   4.537   5.582 -0.0655 -0.2045 -0.5078
  208MOL0     H28013   1.874   4.352   5.603 -0.3951 -0.7086 -2.6749
  208MOL0     H28014   1.663   4.347   5.481  0.5167  0.5856 -4.2794
  208MOL0     H28015   1.537   4.439   5.255  1.5092 -1.7070  0.7033
  208MOL0     H28016   1.487   4.377   5.412  0.7922 -0.3249 -1.0950
  208MOL0     H28017   1.271   4.535   5.374  0.9624 -1.9031  1.7795
  208MOL0     H28018   1.292   4.387   5.283  2.0237 -1.7794  0.8908
  208MOL0     H28019   1.432   4.604   5.141  0.1507  2.1986  1.7845
  208MOL0     H28020   1.265   4.659   5.182  3.3110  1.2390  1.3753
  208MOL0     H28021   1.375   4.412   5.029 -0.2499 -0.7963  2.6783
  208MOL0     H28022   1.204   4.428   5.075  2.1517 -4.8582 -1.9276
  208MOL0     H28023   1.181   4.631   4.936 -1.4931 -2.2570  1.2824
  208MOL0     H28024   1.353   4.627   4.895  1.8853 -0.3244  3.1133
  208MOL0     H28025   1.350   4.437   4.784  0.0699 -4.1636  4.2734
  208MOL0     H28026   1.194   4.387   4.836  0.5300 -0.2007  1.1541
  208MOL0     H28027   1.240   4.624   4.634 -1.0418 -0.3618 -2.1474
  208MOL0     H28028   1.092   4.595   4.722 -0.0142  1.0517 -0.8585
  208MOL0     H28029   1.040   4.381   4.628 -0.8972  1.1498  1.1896
  208MOL0     H28030   1.083   4.505   4.507  0.2682  1.3200  0.1777
  208MOL0     H28031   1.138   4.155   4.527  3.1538 -4.9382  0.2643
  208MOL0     H28032   1.338   3.994   4.397  0.6764  0.7749 -0.4610
  208MOL0     H28033   1.489   4.077   4.374 -1.8913 -0.1334 -3.1829
  208MOL0     H28034   1.496   4.082   4.636 -2.6601  0.3965  2.1062
  208MOL0     H28035   1.364   3.970   4.643 -0.5132  0.3474 -1.0560
  208MOL0     H28036   1.650   3.926   4.522 -0.2110 -0.6862 -0.5931
  208MOL0     H28037   1.529   3.807   4.487  6.4790 -2.6440  0.6386
  208MOL0     H28038   1.635   3.888   4.775  0.8706  2.6749 -2.6081
  208MOL0     H28039   1.687   3.751   4.679 -2.0259  0.0305 -3.4737
  208MOL0     H28040   1.308   3.604   4.863 -1.4149  0.2166  1.4924
  208MOL0     H28041   1.326   3.432   5.017 -0.0052 -0.2669 -1.1004
  208MOL0     H28042   1.763   3.382   5.477 -1.3267  1.0137  0.0510
  208MOL0     H28043   1.790   3.208   5.654  0.3899 -2.2857 -0.0008
  208MOL0     H28044   1.819   2.808   5.541 -2.9201 -0.6840  1.1164
  208MOL0     H28045   1.919   2.928   5.618 -1.0204  1.1166 -0.1050
  208MOL0     H28046   1.828   2.862   5.840  0.0274  1.0283 -1.2628
  208MOL0     H28047   1.754   2.719   5.775  0.9263 -0.4550  1.7337
  208MOL0     H28048   1.987   2.667   5.669  1.6433 -0.6301  1.0364
  208MOL0     H28049   2.056   2.773   5.781  1.6532 -3.4573  0.8704
  208MOL0     H28050   1.897   2.539   5.880 -0.0742 -0.1761 -0.3144
  208MOL0     H28051   1.982   2.672   5.973  0.1586 -1.9292  0.4705
  208MOL0     H28052   2.193   2.600   5.853  1.5765 -0.0544  2.4793
  208MOL0     H28053   2.085   2.465   5.793  0.7160  0.4469  0.8981
  208MOL0     H28054   2.126   2.548   6.072 -2.1432  0.4892 -1.0257
  208MOL0     H28055   2.036   2.395   6.010 -0.3752  0.1239 -2.8080
  208MOL0     H28056   2.256   2.367   6.134 -1.1509  2.1495 -0.7739
  208MOL0     H28057   2.344   2.436   5.987  0.4279  1.9992  1.3231
  208MOL0     H28058   2.315   2.166   6.009  0.4922 -0.3187  1.2952
  208MOL0     H28059   2.140   2.191   6.001  0.4671 -0.7431 -0.8830
  208MOL0     H28060   1.627   2.905   5.399  0.5157 -0.2270  1.9624
  208MOL0     H28061   1.594   3.078   5.227 -0.6870  0.3659  0.4583
  208MOL0     H28062   1.745   3.532   5.081  1.3211  0.7993  0.1621
  208MOL0     H28063   1.724   3.681   4.891 -0.8739  0.1654  0.6670
  208MOL0     H28064   1.646   4.773   5.479 -1.3754 -2.1355 -2.4853
  208MOL0     H28065   1.845   4.783   5.589 -0.0071  1.3170 -3.1961
  208MOL0     H28066   2.072   4.472   5.900 -0.0839  3.2357 -1.7502
  208MOL0     H28067   2.250   4.400   6.071  2.9372 -2.3535  0.0663
  208MOL0     H28068   2.658   4.521   5.997  1.5221 -0.2499 -0.4653
  208MOL0     H28069   2.670   4.351   5.950  0.1134 -0.0365 -0.0425
  208MOL0     H28070   2.698   4.422   6.240  1.9436 -0.9960  0.8969
  208MOL0     H28071   2.821   4.405   6.110 -0.7439  0.5957 -0.8812
  208MOL0     H28072   2.800   4.177   6.105 -0.1081 -1.1075  1.6686
  208MOL0     H28073   2.630   4.175   6.144  1.1197  0.1551 -1.6827
  208MOL0     H28074   2.670   4.245   6.368  1.9307  2.3411 -0.5459
  208MOL0     H28075   2.730   4.080   6.339  1.0186  1.1780  3.5359
  208MOL0     H28076   3.089   4.281   6.458  2.1124 -0.6012 -2.8711
  208MOL0     H28077   2.563   4.474   5.785 -0.5566 -0.4521 -1.7720
  208MOL0     H28078   2.330   4.575   5.513 -0.3880 -0.8030 -0.5005
  208MOL0     H28079   2.481   4.614   5.596 -0.0065 -0.5627  1.4377
  208MOL0     H28080   2.457   4.448   5.546  0.0456 -0.4120  0.1443
  209MOL0     O28081   5.287   9.600   4.718 -0.3277 -0.0017  0.0774
  209MOL0     C28082   5.264   9.664   4.822  0.1501  0.3837  1.0847
  209MOL0     O28083   5.350   9.757   4.872 -0.5521 -0.2238 -0.5627
  209MOL0     C28084   5.481   9.744   4.842  0.4399  0.1195  0.3467
  209MOL0     C28085   5.551   9.621   4.861  0.1807 -0.2606 -1.8439
  209MOL0     C28086   5.690   9.623   4.854 -0.5941  0.6579 -1.0422
  209MOL0     C28087   5.759   9.737   4.808 -0.1233  0.3639 -0.0128
  209MOL0     O28088   5.895   9.723   4.789  0.4479 -0.2667 -0.2351
  209MOL0     C28089   5.960   9.824   4.701 -0.5190 -0.3575 -0.8632
  209MOL0     C28090   6.084   9.754   4.646  1.2820  0.1345  0.0860
  209MOL0     C28091   6.181   9.716   4.763 -0.0969 -0.1705  0.7828
  209MOL0     C28092   6.307   9.637   4.717 -0.1363 -0.0500 -0.1103
  209MOL0     C28093   6.414   9.647   4.820  0.1124 -0.4465  0.4291
  209MOL0     C28094   6.543   9.573   4.765  0.4546  0.0909 -0.3989
  209MOL0     C28095   6.664   9.601   4.837  0.3486 -0.1080  0.6533
  209MOL0     C28096   6.794   9.531   4.783  0.0452 -0.1729 -0.5613
  209MOL0     N28097   6.917   9.552   4.870  0.5974 -0.4838  0.9749
  209MOL0     C28098   6.934   9.484   4.994 -0.0626 -0.1767  0.3277
  209MOL0     C28099   7.069   9.505   5.019  0.0745 -0.5794 -0.5079
  209MOL0     C28100   7.143   9.491   5.148  0.2822  0.4502 -0.0204
  209MOL0     C28101   7.249   9.381   5.141  0.2928  0.1024 -0.0685
  209MOL0     C28102   7.328   9.371   5.274 -0.7557  0.8434 -0.1853
  209MOL0     C28103   7.432   9.481   5.291  0.4526 -0.7180 -0.8016
  209MOL0     O28104   7.514   9.484   5.180  0.0222  0.2140 -0.8801
  209MOL0     C28105   7.640   9.526   5.172  0.6186 -0.4919  0.0418
  209MOL0     C28106   7.681   9.633   5.246 -0.0097 -0.5214 -0.4497
  209MOL0     C28107   7.796   9.700   5.208 -0.5555  0.1754  0.0196
  209MOL0     C28108   7.877   9.659   5.104 -0.0758  0.6413  0.0230
  209MOL0     C28109   7.999   9.730   5.069 -0.0758 -0.3973 -0.3062
  209MOL0     O28110   8.085   9.669   4.992  0.1306 -0.3837 -0.1613
  209MOL0     C28111   8.213   9.705   4.962 -0.8816 -0.7763  0.7747
  209MOL0     C28112   8.312   9.608   4.967 -0.4948 -0.2483 -0.7416
  209MOL0     C28113   8.439   9.639   4.956 -1.3370 -1.7299 -0.9580
  209MOL0     C28114   8.489   9.775   4.939  0.3569  0.5761 -0.0496
  209MOL0     O28115   8.620   9.806   4.948 -0.3609 -0.0149 -0.2361
  209MOL0     C28116   8.714   9.707   4.896  0.6318  0.0954  0.2085
  209MOL0     C28117   8.848   9.780   4.846 -0.2338  0.1280 -0.3346
  209MOL0     C28118   8.976   9.694   4.856 -1.0002 -0.0289 -0.2448
  209MOL0     C28119   9.006   9.665   5.002  0.0818 -0.0189  0.2507
  209MOL0     C28120   9.151   9.677   5.049  0.3894  0.0709 -0.2332
  209MOL0     C28121   9.178   9.629   5.194  0.4897 -0.2534  0.6919
  209MOL0     C28122   9.120   9.697   5.315 -0.1213 -0.2298 -0.5327
  209MOL0     C28123   9.181   9.838   5.342 -0.0779 -0.0043  0.8618
  209MOL0    Cl28124   9.356   9.819   5.389  0.5797  0.2785  0.1319
  209MOL0     C28125   8.391   9.874   4.935  0.0940 -0.3085 -0.1208
  209MOL0     C28126   8.255   9.839   4.939  0.0704  0.4853 -0.0134
  209MOL0     O28127   8.008   9.842   5.118 -0.2960 -0.4548 -0.7981
  209MOL0     C28128   7.820   9.550   5.020 -0.3988 -0.3378  0.1665
  209MOL0     C28129   7.707   9.484   5.053  0.4363 -0.5052 -0.0222
  209MOL0     N28130   7.125   9.560   4.908 -0.1518 -0.6709 -0.0125
  209MOL0     N28131   7.032   9.605   4.829  0.3563 -0.1222 -0.4476
  209MOL0     C28132   5.690   9.855   4.774  0.4923 -0.4300  0.8790
  209MOL0     C28133   5.547   9.862   4.808 -0.3859 -0.3187 -0.0179
  209MOL0     C28134   5.130   9.631   4.884  0.3045 -0.4285 -0.2667
  209MOL0     C28135   5.062   9.512   4.847  0.0792 -0.2817 -0.3154
  209MOL0     C28136   4.944   9.480   4.909 -0.1523 -1.1087 -0.4605
  209MOL0     C28137   4.880   9.565   4.996 -0.4692  0.3108 -0.0774
  209MOL0     O28138   4.767   9.511   5.062  0.2951 -0.1266 -0.2139
  209MOL0     C28139   4.694   9.586   5.163 -0.2659  0.1793  0.4301
  209MOL0     C28140   4.624   9.707   5.106 -0.3094  0.1769 -0.0198
  209MOL0     C28141   4.494   9.666   5.035 -0.3450  0.4519 -0.1292
  209MOL0     C28142   4.385   9.767   5.008 -0.1253 -0.8023 -0.3263
  209MOL0     C28143   4.250   9.730   5.036  0.6649  0.0753  0.8045
  209MOL0     C28144   4.130   9.711   5.052 -0.2372 -0.6475  0.5294
  209MOL0     C28145   4.947   9.674   5.044 -0.1105 -1.0068 -0.4336
  209MOL0     C28146   5.062   9.718   4.972 -0.7840 -0.1100 -0.3929
  209MOL0     C28147   5.113   9.853   5.021  0.9223 -0.4335 -0.3601
  209MOL0     H28148   5.500   9.537   4.907  1.2144 -0.3618 -0.8322
  209MOL0     H28149   5.748   9.532   4.864  2.0542  2.1577 -1.7404
  209MOL0     H28150   5.896   9.864   4.622  1.0019  1.0705 -1.4364
  209MOL0     H28151   5.985   9.914   4.759  2.2018 -0.0676 -2.2864
  209MOL0     H28152   6.128   9.819   4.570 -0.2653 -0.5292 -1.4210
  209MOL0     H28153   6.059   9.661   4.595 -1.7309  0.4953  0.7345
  209MOL0     H28154   6.123   9.665   4.840 -0.5451  0.7705  1.0935
  209MOL0     H28155   6.215   9.800   4.825 -1.2725 -1.8706  3.9204
  209MOL0     H28156   6.276   9.534   4.696  3.0051 -1.0234 -0.4472
  209MOL0     H28157   6.341   9.681   4.623 -0.3305 -0.0949 -0.2028
  209MOL0     H28158   6.430   9.755   4.819  1.1109 -0.5833  0.4814
  209MOL0     H28159   6.380   9.625   4.922  0.8515 -4.0348  0.0298
  209MOL0     H28160   6.514   9.468   4.768  2.3626 -0.4771 -0.5237
  209MOL0     H28161   6.556   9.597   4.659 -0.2354  1.0783 -0.2747
  209MOL0     H28162   6.641   9.578   4.942 -2.5664 -1.3642 -0.1660
  209MOL0     H28163   6.685   9.708   4.841 -2.3638  0.6120 -1.5473
  209MOL0     H28164   6.767   9.426   4.771 -2.1906  0.4610 -1.7016
  209MOL0     H28165   6.811   9.574   4.684 -0.8667 -0.7958 -1.0048
  209MOL0     H28166   6.858   9.453   5.066 -1.9396 -0.7359 -1.7931
  209MOL0     H28167   7.185   9.588   5.172 -1.1218  1.0070  0.2828
  209MOL0     H28168   7.062   9.465   5.218 -0.5236  3.0884  0.1146
  209MOL0     H28169   7.205   9.284   5.116  2.5034 -1.2014  0.8005
  209MOL0     H28170   7.317   9.402   5.058 -1.0060  1.3361 -0.8720
  209MOL0     H28171   7.388   9.282   5.254  1.5742  2.1034  0.7456
  209MOL0     H28172   7.266   9.356   5.363 -1.7817 -2.9338 -1.3842
  209MOL0     H28173   7.486   9.477   5.386 -3.4643  4.9959  2.2001
  209MOL0     H28174   7.401   9.583   5.313  0.4791 -1.3339  2.5982
  209MOL0     H28175   7.621   9.672   5.327  3.9484 -0.4725  2.7887
  209MOL0     H28176   7.826   9.782   5.272 -2.6499  0.7810  0.2926
  209MOL0     H28177   8.290   9.502   4.978 -1.5160  0.0765  0.8059
  209MOL0     H28178   8.510   9.557   4.967  0.0626 -0.3683  0.8142
  209MOL0     H28179   8.730   9.638   4.979  0.4584 -0.4919 -0.2355
  209MOL0     H28180   8.679   9.644   4.814  0.4997  0.8272 -0.3053
  209MOL0     H28181   8.830   9.789   4.738 -2.0706 -0.7206 -0.1422
  209MOL0     H28182   8.866   9.877   4.893 -0.3837 -0.1944  0.3957
  209MOL0     H28183   8.958   9.612   4.786 -2.9730  0.7062 -0.6811
  209MOL0     H28184   9.065   9.753   4.832 -0.5149 -0.7892 -0.3392
  209MOL0     H28185   8.946   9.581   5.039  1.7888 -0.5767  1.9105
  209MOL0     H28186   8.963   9.749   5.057 -1.6457 -0.2424 -0.6798
  209MOL0     H28187   9.183   9.780   5.035  0.8072  0.7190  4.1086
  209MOL0     H28188   9.215   9.604   4.998  0.1255 -0.0747 -0.3565
  209MOL0     H28189   9.129   9.531   5.192  2.5292 -1.3393  0.6630
  209MOL0     H28190   9.287   9.624   5.201  0.7421  2.4864 -0.1353
  209MOL0     H28191   9.132   9.634   5.403 -1.8490  2.4970  1.8651
  209MOL0     H28192   9.011   9.708   5.308  0.0084  1.5380 -0.3185
  209MOL0     H28193   9.167   9.904   5.255 -1.0309 -0.4664  0.6544
  209MOL0     H28194   9.123   9.874   5.427 -3.6904 -3.4416  0.1304
  209MOL0     H28195   8.416   9.979   4.942 -1.5322  0.0416  0.8431
  209MOL0     H28196   8.182   9.917   4.925 -1.8603 -0.9584  1.4719
  209MOL0     H28197   7.871   9.518   4.929 -2.2027  0.3909 -1.1450
  209MOL0     H28198   7.658   9.421   4.980 -1.5198  0.9655 -0.0497
  209MOL0     H28199   5.729   9.943   4.725 -4.1151 -0.3790 -3.5480
  209MOL0     H28200   5.478   9.946   4.804  0.4599  0.8251  4.1493
  209MOL0     H28201   5.103   9.442   4.775 -0.3801  0.1833 -1.0386
  209MOL0     H28202   4.892   9.388   4.882 -0.7915 -0.1760 -2.6058
  209MOL0     H28203   4.773   9.623   5.228 -0.0319 -0.9052  0.7849
  209MOL0     H28204   4.623   9.530   5.224  1.1081 -0.6924  1.2858
  209MOL0     H28205   4.685   9.765   5.035  2.6558 -0.0827  2.1459
  209MOL0     H28206   4.604   9.772   5.192  0.6054  1.4213 -0.7115
  209MOL0     H28207   4.453   9.589   5.101  0.7221 -0.6944 -0.7560
  209MOL0     H28208   4.522   9.612   4.944 -0.7543 -1.3480  0.7622
  209MOL0     H28209   4.417   9.856   5.063  0.8759 -0.0863 -2.0217
  209MOL0     H28210   4.397   9.806   4.907  2.2519 -1.5103 -0.3786
  209MOL0     H28211   4.027   9.720   5.083 -0.9148  2.0550 -2.0393
  209MOL0     H28212   4.907   9.737   5.123 -1.9626 -2.9018  0.2576
  209MOL0     H28213   5.154   9.907   4.936 -0.2461 -0.7491 -1.1426
  209MOL0     H28214   5.028   9.909   5.061 -1.3107 -2.1504 -2.4404
  209MOL0     H28215   5.188   9.846   5.101 -1.4607 -1.3274  1.9768
  210MOL0     O28216  10.040   5.133   3.725 -0.0970 -0.5016  0.1264
  210MOL0     C28217  10.028   5.213   3.817  0.4759  0.1347 -0.3674
  210MOL0     O28218  10.129   5.242   3.912 -0.1668 -0.7842  0.3284
  210MOL0     C28219  10.233   5.150   3.944  0.3248 -0.5279 -0.0509
  210MOL0     C28220  10.358   5.204   3.988 -0.1630 -0.0674  0.9579
  210MOL0     C28221  10.459   5.124   4.035 -0.2115  0.7424  0.1874
  210MOL0     C28222  10.445   4.985   4.041  0.1234  0.4837 -0.0374
  210MOL0     O28223  10.559   4.922   4.086  0.5572 -0.1194  0.0810
  210MOL0     C28224  10.561   4.783   4.074 -0.1144 -0.2225  0.0560
  210MOL0     C28225  10.703   4.728   4.127 -0.1036 -0.4378 -0.6081
  210MOL0     C28226  10.800   4.715   4.007  0.9596 -0.5279  0.2269
  210MOL0     C28227  10.920   4.625   4.038 -0.3954 -0.6163  0.6228
  210MOL0     C28228  11.029   4.634   3.924  0.4504  0.3070  0.1953
  210MOL0     C28229  11.129   4.525   3.940  1.4367  0.5538  0.1811
  210MOL0     C28230  11.241   4.540   3.845 -0.6455 -0.4686  0.7473
  210MOL0     C28231  11.340   4.425   3.877  0.4352 -0.2411 -0.6161
  210MOL0     N28232  11.473   4.445   3.817  0.4630  0.3871 -0.2656
  210MOL0     C28233  11.580   4.505   3.884 -0.0204  0.8808  0.3282
  210MOL0     C28234  11.680   4.474   3.796 -0.7631  0.4991 -0.5010
  210MOL0     C28235  11.826   4.530   3.817  0.2256 -0.9766  0.1501
  210MOL0     C28236  11.909   4.536   3.686  0.2164  0.3087 -0.0872
  210MOL0     C28237  11.862   4.640   3.583 -0.0948  0.0947 -0.7778
  210MOL0     C28238  11.923   4.630   3.442  0.3167 -0.6375 -0.0278
  210MOL0     O28239  12.057   4.677   3.455 -0.8316  0.5657 -0.3661
  210MOL0     C28240  12.136   4.650   3.345 -0.1877 -0.6219 -0.4635
  210MOL0     C28241  12.090   4.633   3.209  0.2964 -0.2770 -1.3565
  210MOL0     C28242  12.177   4.606   3.110 -0.3269  0.5100  0.8465
  210MOL0     C28243  12.312   4.602   3.135 -0.4628  0.0617  0.6372
  210MOL0     C28244  12.420   4.594   3.025  0.4679 -0.4113 -0.3546
  210MOL0     O28245  12.524   4.512   3.051  0.6071  0.4132 -0.3967
  210MOL0     C28246  12.629   4.508   2.962  0.0463 -0.0113  0.2407
  210MOL0     C28247  12.616   4.435   2.842  0.2486 -0.1512  0.2225
  210MOL0     C28248  12.707   4.449   2.739 -0.0061 -0.0602 -0.1751
  210MOL0     C28249  12.796   4.557   2.741 -0.5193 -0.2123  0.4914
  210MOL0     O28250  12.884   4.566   2.642  0.2390  0.0289  0.6266
  210MOL0     C28251  12.916   4.694   2.593 -0.9139  0.4461  0.7957
  210MOL0     C28252  13.003   4.677   2.461 -0.0175 -0.2022 -0.3852
  210MOL0     C28253  13.141   4.620   2.506  0.3944 -0.8600  0.1757
  210MOL0     C28254  13.255   4.614   2.402  0.2275  0.2652 -1.1920
  210MOL0     C28255  13.206   4.595   2.255  0.6279  0.3382  0.6488
  210MOL0     C28256  13.326   4.599   2.151  0.0133 -0.0355 -0.9291
  210MOL0     C28257  13.426   4.485   2.163 -0.1795  1.4422  0.0131
  210MOL0     C28258  13.440   4.395   2.039 -0.3386 -0.7397 -1.0882
  210MOL0    Cl28259  13.582   4.280   2.068  0.2214 -0.3079 -0.4469
  210MOL0     C28260  12.807   4.638   2.850  0.2111 -0.2927  0.6746
  210MOL0     C28261  12.726   4.615   2.961  0.3483  0.5724 -0.2614
  210MOL0     O28262  12.402   4.653   2.924  0.1365  0.0435 -0.1856
  210MOL0     C28263  12.360   4.624   3.263 -0.6514 -0.6999  0.1137
  210MOL0     C28264  12.273   4.646   3.366  0.0073 -0.3373  0.6588
  210MOL0     N28265  11.635   4.391   3.692 -0.4822 -0.2721  0.1616
  210MOL0     N28266  11.511   4.369   3.712 -0.8028 -0.2520  0.5545
  210MOL0     C28267  10.327   4.926   3.984  0.4118 -0.4761 -0.0458
  210MOL0     C28268  10.220   5.008   3.938  0.7000 -0.3600 -0.1793
  210MOL0     C28269   9.903   5.294   3.844 -0.6806 -0.1572  0.2954
  210MOL0     C28270   9.858   5.299   3.980 -1.0664 -0.2747  0.5072
  210MOL0     C28271   9.740   5.359   4.015  0.3804  0.4237 -0.2817
  210MOL0     C28272   9.658   5.406   3.922 -0.6775  0.1030 -0.5666
  210MOL0     O28273   9.533   5.453   3.962  1.1461  0.0067  0.2912
  210MOL0     C28274   9.458   5.539   3.877 -0.6704  0.6401 -0.0277
  210MOL0     C28275   9.368   5.453   3.786  0.3083 -0.8271  0.2674
  210MOL0     C28276   9.300   5.540   3.686  0.6253 -0.8256 -0.7040
  210MOL0     C28277   9.177   5.625   3.732  0.3452  0.3020 -0.9467
  210MOL0     C28278   9.089   5.657   3.611  0.4157 -0.4108  0.3601
  210MOL0     C28279   9.007   5.684   3.522 -0.5384 -0.4294  0.2336
  210MOL0     C28280   9.706   5.415   3.793  0.1826 -0.3319  0.0373
  210MOL0     C28281   9.821   5.352   3.752  0.2682  0.3834  0.2803
  210MOL0     C28282   9.866   5.360   3.613 -0.1628  0.6920  0.2493
  210MOL0     H28283  10.380   5.308   3.965  1.0154 -0.4471  0.2379
  210MOL0     H28284  10.555   5.164   4.065  1.0903 -1.5416 -0.6820
  210MOL0     H28285  10.478   4.740   4.131  0.3448  0.3708  1.2023
  210MOL0     H28286  10.545   4.755   3.970 -0.5656 -1.5400  0.4595
  210MOL0     H28287  10.692   4.629   4.173 -0.6900 -1.1388 -2.1952
  210MOL0     H28288  10.750   4.794   4.200  1.1313  0.7486 -2.4081
  210MOL0     H28289  10.843   4.816   4.001  0.6442 -0.2914  1.5741
  210MOL0     H28290  10.747   4.674   3.920  0.2490 -3.1344  1.7791
  210MOL0     H28291  10.971   4.664   4.127 -0.1305  0.6774 -0.0715
  210MOL0     H28292  10.885   4.522   4.055 -0.3862 -0.8803 -0.8161
  210MOL0     H28293  10.983   4.624   3.826  0.1630  1.0942  0.2414
  210MOL0     H28294  11.071   4.735   3.930  0.9932  0.0555  0.7320
  210MOL0     H28295  11.161   4.521   4.044 -0.2989  0.6434  0.7590
  210MOL0     H28296  11.079   4.431   3.914  0.2105  1.5522 -1.2380
  210MOL0     H28297  11.278   4.642   3.851  1.1822 -1.0963  0.6123
  210MOL0     H28298  11.204   4.533   3.742 -0.9352 -2.2750  0.9397
  210MOL0     H28299  11.352   4.400   3.983  1.3224 -0.5920 -0.7887
  210MOL0     H28300  11.290   4.336   3.835  1.9490 -0.6629 -1.5994
  210MOL0     H28301  11.568   4.570   3.970 -2.6157 -1.3981  1.8278
  210MOL0     H28302  11.824   4.628   3.865 -0.6919 -1.1866  0.5518
  210MOL0     H28303  11.878   4.464   3.887 -1.3198 -2.7810 -0.3346
  210MOL0     H28304  12.010   4.555   3.725  0.0326  0.4976  0.2973
  210MOL0     H28305  11.904   4.434   3.647 -1.3018 -0.1565  1.1928
  210MOL0     H28306  11.881   4.735   3.634 -0.1625 -0.8702  1.1475
  210MOL0     H28307  11.753   4.642   3.573  0.0636  0.8088 -2.9079
  210MOL0     H28308  11.868   4.692   3.372  0.5315  1.4992  1.6022
  210MOL0     H28309  11.921   4.525   3.411  0.6483 -1.1182  1.4690
  210MOL0     H28310  11.985   4.639   3.181 -0.5521 -1.0958  1.2858
  210MOL0     H28311  12.138   4.594   3.010  0.5860  1.7476  0.3122
  210MOL0     H28312  12.538   4.359   2.845  2.1342 -2.1871  0.9787
  210MOL0     H28313  12.704   4.385   2.652  2.0307 -2.0957  1.1544
  210MOL0     H28314  12.823   4.746   2.566 -0.5909 -1.1549 -4.6127
  210MOL0     H28315  12.978   4.747   2.666  0.7090 -0.4022  0.0792
  210MOL0     H28316  12.948   4.618   2.387  1.9232 -0.4988 -1.6630
  210MOL0     H28317  13.025   4.773   2.413 -0.6087 -0.3579 -0.9856
  210MOL0     H28318  13.183   4.670   2.594  0.0633  2.9412 -1.6373
  210MOL0     H28319  13.115   4.520   2.543  2.7555 -2.1928 -1.4240
  210MOL0     H28320  13.319   4.528   2.426 -1.7629 -1.0151 -0.2071
  210MOL0     H28321  13.306   4.709   2.419 -0.4875  0.1777  2.1474
  210MOL0     H28322  13.139   4.672   2.215  0.4234 -0.4606 -0.5957
  210MOL0     H28323  13.159   4.496   2.246  1.3644  0.0600 -0.2529
  210MOL0     H28324  13.278   4.595   2.053  1.3867  0.8823 -1.6639
  210MOL0     H28325  13.381   4.692   2.164 -1.4675  0.7069  0.2465
  210MOL0     H28326  13.402   4.413   2.242  2.4792 -1.0468 -1.2944
  210MOL0     H28327  13.523   4.516   2.203  1.0039 -3.2104  1.3298
  210MOL0     H28328  13.346   4.341   2.020 -1.2461  0.6540 -0.7039
  210MOL0     H28329  13.461   4.457   1.951  1.3199  1.0110  0.4498
  210MOL0     H28330  12.886   4.712   2.847  0.5963 -0.6116  2.1985
  210MOL0     H28331  12.740   4.670   3.054 -1.2692 -1.3055  1.2178
  210MOL0     H28332  12.466   4.617   3.286 -1.2604 -2.8780  2.8726
  210MOL0     H28333  12.315   4.642   3.466  0.5537 -5.6567  0.5326
  210MOL0     H28334  10.301   4.822   3.969  1.8713 -0.8288 -0.1781
  210MOL0     H28335  10.123   4.967   3.914  0.2453 -0.4535  1.6588
  210MOL0     H28336   9.921   5.247   4.051 -2.2970 -2.1088  0.3422
  210MOL0     H28337   9.703   5.357   4.117  6.4560 -1.8557  2.3160
  210MOL0     H28338   9.519   5.608   3.819  2.1142 -0.7149  1.0893
  210MOL0     H28339   9.397   5.598   3.946 -0.6383 -1.0549  1.5575
  210MOL0     H28340   9.305   5.401   3.858  0.0938  0.3107  0.9223
  210MOL0     H28341   9.423   5.370   3.741 -1.7085 -1.3294 -1.4256
  210MOL0     H28342   9.261   5.488   3.598 -1.1937  2.2081 -1.8902
  210MOL0     H28343   9.388   5.594   3.649  3.5901 -2.8469  2.7186
  210MOL0     H28344   9.134   5.575   3.819  2.4045 -0.3464 -0.2336
  210MOL0     H28345   9.208   5.717   3.782 -2.2643 -0.6035  2.7047
  210MOL0     H28346   8.932   5.698   3.447  0.9700  2.3750 -0.9043
  210MOL0     H28347   9.648   5.456   3.710 -0.5769 -2.0660 -0.3493
  210MOL0     H28348   9.966   5.319   3.591 -0.7405  0.5858 -2.5531
  210MOL0     H28349   9.795   5.297   3.558  1.8172 -1.9858  0.5158
  210MOL0     H28350   9.865   5.463   3.577 -0.9612  0.4323 -0.4967
  211MOL0     O28351   4.458   5.851   7.038  0.0849  0.7139 -0.1417
  211MOL0     C28352   4.425   5.851   6.923 -0.9237 -0.3868  0.0143
  211MOL0     O28353   4.503   5.830   6.816 -0.8062  0.7078  0.0743
  211MOL0     C28354   4.639   5.833   6.823 -0.5981 -0.1379 -0.1476
  211MOL0     C28355   4.713   5.716   6.859 -0.6395  0.3674  1.4598
  211MOL0     C28356   4.856   5.735   6.861  0.8257  0.4164  0.0095
  211MOL0     C28357   4.927   5.857   6.853 -0.4684 -0.0218  0.1326
  211MOL0     O28358   5.063   5.858   6.867  0.1204  0.3146 -0.1420
  211MOL0     C28359   5.123   5.985   6.907 -0.0567 -0.1877 -1.2695
  211MOL0     C28360   5.248   5.961   6.999  0.1339 -0.7200 -0.1923
  211MOL0     C28361   5.385   5.960   6.934  0.3916 -0.3244  0.3315
  211MOL0     C28362   5.495   5.947   7.031 -0.2765  0.6711  0.0924
  211MOL0     C28363   5.634   5.986   6.973  0.1077  0.7206 -0.5517
  211MOL0     C28364   5.742   5.966   7.084  0.0213 -0.2871  0.1034
  211MOL0     C28365   5.876   6.032   7.050 -0.3762 -0.2816  0.0333
  211MOL0     C28366   5.951   5.965   6.936  0.1986 -0.2210 -0.1018
  211MOL0     N28367   6.078   6.044   6.909 -0.6089 -0.2480 -0.7850
  211MOL0     C28368   6.145   6.036   6.793 -0.0669  0.0210  0.5082
  211MOL0     C28369   6.266   6.086   6.812  0.1927 -0.5989  0.0993
  211MOL0     C28370   6.373   6.081   6.704 -0.1969 -0.1681 -0.3678
  211MOL0     C28371   6.442   5.941   6.692  0.3219 -0.4886  0.9074
  211MOL0     C28372   6.540   5.935   6.576 -0.7486 -0.0914  0.7542
  211MOL0     C28373   6.682   5.948   6.626  1.0355 -0.0185 -0.1185
  211MOL0     O28374   6.701   6.092   6.660  1.1812 -0.2990  0.4205
  211MOL0     C28375   6.803   6.133   6.728  0.2922 -0.9749  0.7317
  211MOL0     C28376   6.822   6.271   6.735 -0.1065  0.4153  0.1663
  211MOL0     C28377   6.936   6.328   6.798  0.9748  0.0069 -0.1652
  211MOL0     C28378   7.040   6.255   6.852  0.2227  0.5497  0.1970
  211MOL0     C28379   7.161   6.319   6.908  0.5704  0.5412  0.6908
  211MOL0     O28380   7.227   6.243   6.991  0.1284 -0.2476  0.2932
  211MOL0     C28381   7.354   6.288   7.020  0.9845  0.2479  0.2906
  211MOL0     C28382   7.460   6.258   6.928 -0.4706  0.1050  0.1834
  211MOL0     C28383   7.588   6.303   6.942 -0.4474  0.6162  1.5288
  211MOL0     C28384   7.628   6.367   7.057 -1.0264  0.1758  0.6571
  211MOL0     O28385   7.756   6.417   7.078  0.0371  0.1111 -0.1675
  211MOL0     C28386   7.797   6.514   6.979 -0.1030 -0.6323  0.8119
  211MOL0     C28387   7.950   6.491   6.951 -1.1227 -0.4845  0.4195
  211MOL0     C28388   8.003   6.612   6.870 -0.4686 -0.1578 -0.0175
  211MOL0     C28389   8.148   6.581   6.836  0.2959 -1.0054 -0.2637
  211MOL0     C28390   8.215   6.709   6.791  0.0899  0.9115 -1.0226
  211MOL0     C28391   8.361   6.679   6.777  0.9874  0.3706 -1.0772
  211MOL0     C28392   8.442   6.807   6.765 -0.3308  0.2358  0.5589
  211MOL0     C28393   8.464   6.853   6.619 -0.1200 -0.1435 -0.3757
  211MOL0    Cl28394   8.588   6.990   6.615 -0.4034  0.2801  0.4936
  211MOL0     C28395   7.529   6.387   7.147 -0.5699 -0.0738  0.2120
  211MOL0     C28396   7.395   6.354   7.138  0.4793  0.4569  0.0436
  211MOL0     O28397   7.194   6.433   6.867 -0.3642  0.8360 -0.2987
  211MOL0     C28398   7.025   6.112   6.842 -0.6417 -0.6413 -0.0318
  211MOL0     C28399   6.908   6.047   6.790 -0.2683  0.6443 -0.5535
  211MOL0     N28400   6.273   6.125   6.947  0.3752  0.5044  0.2052
  211MOL0     N28401   6.152   6.109   7.003 -0.1273  0.0483  0.1330
  211MOL0     C28402   4.847   5.969   6.817 -0.3098 -0.0027 -0.8002
  211MOL0     C28403   4.710   5.953   6.801  0.0153 -1.1338 -0.4661
  211MOL0     C28404   4.287   5.907   6.901  0.6654  0.6720  0.3038
  211MOL0     C28405   4.234   5.895   6.764  0.2189  0.0267 -0.1855
  211MOL0     C28406   4.105   5.924   6.734 -0.4076  0.3917  0.2111
  211MOL0     C28407   4.013   5.967   6.825 -0.6896  0.9430  0.1060
  211MOL0     O28408   3.888   6.010   6.776 -0.0840  0.1142  0.1106
  211MOL0     C28409   3.790   6.065   6.857  0.3053  0.0553 -0.3237
  211MOL0     C28410   3.726   5.964   6.940 -0.2849 -0.1415  0.2287
  211MOL0     C28411   3.616   5.891   6.851 -0.7511 -0.4970  0.4612
  211MOL0     C28412   3.559   5.750   6.911 -0.1421  0.3320 -0.3634
  211MOL0     C28413   3.544   5.745   7.055  0.1959 -0.4526  0.9857
  211MOL0     C28414   3.528   5.760   7.173  0.2282  0.6657 -0.0484
  211MOL0     C28415   4.059   5.986   6.962 -0.5882  1.0501 -0.2708
  211MOL0     C28416   4.189   5.958   7.001 -0.8783 -0.6328  0.6074
  211MOL0     C28417   4.219   5.999   7.138  0.0953  0.3471 -0.6301
  211MOL0     H28418   4.667   5.620   6.882 -0.1760 -0.0425  0.7143
  211MOL0     H28419   4.917   5.650   6.889 -1.5606 -0.9558  1.3442
  211MOL0     H28420   5.150   6.045   6.819 -0.3647  2.1332  0.1317
  211MOL0     H28421   5.042   6.029   6.966  1.5064  0.5535  0.3990
  211MOL0     H28422   5.231   5.867   7.052  0.1687 -0.1124  0.9235
  211MOL0     H28423   5.250   6.041   7.074 -0.2861 -0.8449 -0.0458
  211MOL0     H28424   5.394   6.055   6.880 -3.3580  0.0470  0.1017
  211MOL0     H28425   5.400   5.881   6.860  1.6326 -0.3051  0.5428
  211MOL0     H28426   5.491   6.004   7.125  0.6422 -1.9722  1.8471
  211MOL0     H28427   5.488   5.843   7.064  0.0662 -0.6568 -3.5933
  211MOL0     H28428   5.660   5.925   6.886 -1.8496  0.8460 -1.2674
  211MOL0     H28429   5.619   6.093   6.959  0.1460  1.0024  1.3338
  211MOL0     H28430   5.697   6.027   7.163  0.5992  1.7298 -1.0544
  211MOL0     H28431   5.762   5.863   7.115  3.8261  0.2714 -0.0415
  211MOL0     H28432   5.922   6.033   7.149 -0.1143 -0.8390 -0.0825
  211MOL0     H28433   5.856   6.135   7.020  2.2413  0.6271  1.1533
  211MOL0     H28434   5.992   5.869   6.968  1.0282 -0.1166 -0.8399
  211MOL0     H28435   5.894   5.955   6.843  2.1730  0.0985 -1.3896
  211MOL0     H28436   6.121   5.979   6.704  3.4326 -1.3216  0.2689
  211MOL0     H28437   6.331   6.113   6.608  0.5182 -1.2156 -1.0545
  211MOL0     H28438   6.458   6.145   6.731  0.1723 -1.3305  1.4360
  211MOL0     H28439   6.475   5.910   6.791  0.9151 -0.1466  0.8193
  211MOL0     H28440   6.366   5.863   6.679 -1.1203  0.5684  2.6335
  211MOL0     H28441   6.519   6.017   6.506  1.4604 -1.8663 -2.1992
  211MOL0     H28442   6.520   5.843   6.520 -0.9018  0.0031  0.6518
  211MOL0     H28443   6.737   5.930   6.534 -0.9316  2.0108 -1.8137
  211MOL0     H28444   6.702   5.874   6.704 -0.1898 -0.8271 -0.5431
  211MOL0     H28445   6.745   6.324   6.680  0.0241 -0.3607 -0.7934
  211MOL0     H28446   6.947   6.436   6.811  3.1819 -0.3066  1.1169
  211MOL0     H28447   7.428   6.206   6.838 -2.1820  1.2557  0.0782
  211MOL0     H28448   7.658   6.276   6.863 -2.0571 -0.4212  0.4031
  211MOL0     H28449   7.750   6.490   6.883  2.9167  3.3766 -1.9713
  211MOL0     H28450   7.778   6.615   7.016 -2.2014 -0.5019 -0.4182
  211MOL0     H28451   8.008   6.502   7.043 -0.6504  3.5076 -0.1844
  211MOL0     H28452   7.974   6.394   6.904 -0.5903 -0.0098 -0.3199
  211MOL0     H28453   7.954   6.618   6.773  3.1322 -0.3851 -1.9928
  211MOL0     H28454   8.005   6.702   6.932  1.8182  0.9572 -1.5771
  211MOL0     H28455   8.154   6.498   6.765  3.8395  0.8336 -2.4141
  211MOL0     H28456   8.198   6.544   6.926  0.7173 -1.5212 -0.7057
  211MOL0     H28457   8.203   6.789   6.865  3.2029 -1.4822  2.4721
  211MOL0     H28458   8.175   6.739   6.694 -0.4463  3.2779 -0.1301
  211MOL0     H28459   8.393   6.633   6.871 -4.0647  0.0768  0.8006
  211MOL0     H28460   8.385   6.605   6.701 -0.2755 -0.1318 -1.0027
  211MOL0     H28461   8.539   6.788   6.813  0.1845 -0.1587 -0.6009
  211MOL0     H28462   8.393   6.892   6.814 -0.6724  0.9390 -0.9454
  211MOL0     H28463   8.505   6.772   6.558  0.7215  1.8488 -2.6069
  211MOL0     H28464   8.373   6.893   6.575  1.3411  2.6450 -1.0866
  211MOL0     H28465   7.567   6.427   7.240 -2.1815  0.3009  0.7487
  211MOL0     H28466   7.326   6.371   7.221  1.4808  1.9291  0.6193
  211MOL0     H28467   7.093   6.046   6.895 -1.4427 -0.8618  0.7711
  211MOL0     H28468   6.906   5.938   6.793  0.7215  0.6206  0.2304
  211MOL0     H28469   4.897   6.062   6.791 -1.5249  0.2769 -2.2236
  211MOL0     H28470   4.650   6.041   6.778  1.9375  0.2106 -0.6237
  211MOL0     H28471   4.297   5.867   6.681  1.7099 -0.2332  0.9825
  211MOL0     H28472   4.081   5.918   6.629 -2.5443  1.6867  0.5580
  211MOL0     H28473   3.719   6.120   6.794  0.1934  1.2252  0.7897
  211MOL0     H28474   3.834   6.129   6.933  1.1551 -1.6782  0.6985
  211MOL0     H28475   3.680   6.012   7.027 -2.3647 -2.8264  0.7446
  211MOL0     H28476   3.785   5.883   6.984  0.8767  1.3570  1.5441
  211MOL0     H28477   3.660   5.876   6.752  0.4721  0.1057  0.8903
  211MOL0     H28478   3.531   5.960   6.847 -2.6809 -2.7334  0.8246
  211MOL0     H28479   3.464   5.726   6.863 -1.1466  0.3631  1.5347
  211MOL0     H28480   3.625   5.671   6.874  1.7950  0.6200  2.2145
  211MOL0     H28481   3.508   5.773   7.277  0.4503 -0.9657  0.2311
  211MOL0     H28482   3.994   6.027   7.038 -1.9950  1.3068 -1.5743
  211MOL0     H28483   4.205   6.107   7.148 -1.7071  0.1041 -0.1760
  211MOL0     H28484   4.145   5.953   7.204  0.6305 -0.3498 -0.5063
  211MOL0     H28485   4.322   5.978   7.169 -0.1352  1.9233  1.4569
  212MOL0     O28486   3.977   3.036   4.993 -0.8457 -0.5111 -0.5512
  212MOL0     C28487   3.922   2.992   4.893  0.0947 -0.5866 -0.2852
  212MOL0     O28488   3.982   2.939   4.783 -1.1220  0.2156 -0.6885
  212MOL0     C28489   4.116   2.942   4.764  1.0478 -0.6877 -0.2879
  212MOL0     C28490   4.174   3.055   4.702 -0.9190 -0.1262  0.1368
  212MOL0     C28491   4.317   3.054   4.684  0.5855  0.5945  0.4205
  212MOL0     C28492   4.397   2.944   4.712 -0.6357 -0.3556 -0.0321
  212MOL0     O28493   4.530   2.943   4.680  0.3327 -0.6323  0.0315
  212MOL0     C28494   4.565   2.843   4.581 -0.9778  0.8686 -0.2560
  212MOL0     C28495   4.705   2.782   4.617  0.1180 -0.7386  0.5942
  212MOL0     C28496   4.793   2.712   4.506 -0.0744 -0.5823 -0.2814
  212MOL0     C28497   4.948   2.709   4.535 -0.2973  0.1248 -0.6392
  212MOL0     C28498   4.983   2.600   4.642  0.2462  0.3940 -1.3618
  212MOL0     C28499   5.137   2.580   4.656  0.3200 -0.2038  0.1785
  212MOL0     C28500   5.206   2.714   4.695  0.6836  0.5887 -0.4356
  212MOL0     C28501   5.333   2.692   4.778 -0.4646  0.7501 -0.2380
  212MOL0     N28502   5.440   2.630   4.693 -0.1888  0.1167  0.5128
  212MOL0     C28503   5.526   2.535   4.733  0.4113 -0.0162 -0.5332
  212MOL0     C28504   5.628   2.527   4.657 -0.2363  0.2501 -0.4631
  212MOL0     C28505   5.750   2.434   4.660  0.1167 -0.1612 -0.6262
  212MOL0     C28506   5.791   2.372   4.789  0.2985  0.5829 -0.3413
  212MOL0     C28507   5.912   2.275   4.780  0.9362 -0.3814  0.0798
  212MOL0     C28508   5.942   2.214   4.911 -0.1006  0.0957  0.2418
  212MOL0     O28509   6.046   2.124   4.903  0.0280  0.7333  0.0653
  212MOL0     C28510   6.177   2.148   4.867  0.3033 -0.4161  0.4738
  212MOL0     C28511   6.270   2.179   4.962 -0.4557  0.0983  0.4962
  212MOL0     C28512   6.402   2.210   4.916  0.1896 -0.5682  0.0149
  212MOL0     C28513   6.439   2.204   4.782 -0.4778  0.2616 -0.1874
  212MOL0     C28514   6.579   2.229   4.738 -0.3210 -0.0262  0.2317
  212MOL0     O28515   6.679   2.253   4.834 -0.3864  0.9410 -0.0747
  212MOL0     C28516   6.800   2.297   4.782  0.2281  0.3185 -0.2009
  212MOL0     C28517   6.842   2.433   4.778  0.1468  0.0585 -0.4732
  212MOL0     C28518   6.961   2.491   4.732  0.1333 -0.4569 -0.6229
  212MOL0     C28519   7.053   2.401   4.674  0.2849 -0.4671 -0.5291
  212MOL0     O28520   7.165   2.437   4.616 -0.3549 -0.3246  0.2568
  212MOL0     C28521   7.230   2.560   4.664 -0.0298 -0.0965 -0.4681
  212MOL0     C28522   7.359   2.575   4.577  0.4823 -0.2149  0.3525
  212MOL0     C28523   7.455   2.672   4.631  0.0463  0.0746 -0.1414
  212MOL0     C28524   7.579   2.674   4.542 -0.3295 -0.3428  0.6057
  212MOL0     C28525   7.691   2.771   4.597  0.0382  0.1886  0.1671
  212MOL0     C28526   7.736   2.747   4.745 -0.5155  0.4684 -0.5802
  212MOL0     C28527   7.785   2.600   4.786 -0.0140 -0.6457 -0.2428
  212MOL0     C28528   7.825   2.600   4.926 -0.0342  0.2724 -0.0276
  212MOL0    Cl28529   7.694   2.582   5.036 -0.2345 -0.0555  0.0800
  212MOL0     C28530   7.016   2.261   4.675  0.8469 -0.3073 -0.1281
  212MOL0     C28531   6.893   2.213   4.724  0.2113  0.6034  0.4523
  212MOL0     O28532   6.593   2.236   4.620 -0.7464  0.4915 -0.1504
  212MOL0     C28533   6.339   2.173   4.692 -0.1510 -0.1677  0.0691
  212MOL0     C28534   6.210   2.147   4.728  0.1088 -0.5231 -0.8045
  212MOL0     N28535   5.623   2.633   4.572 -0.7618 -0.3049  0.4403
  212MOL0     N28536   5.511   2.698   4.597  0.2552 -0.0946 -0.0565
  212MOL0     C28537   4.334   2.833   4.773  0.5001  0.1272  0.3645
  212MOL0     C28538   4.195   2.833   4.801  0.8302 -0.5771 -0.7831
  212MOL0     C28539   3.768   2.967   4.900  0.1926 -0.6350  0.4188
  212MOL0     C28540   3.685   3.062   4.965 -0.5197  0.0721 -0.3128
  212MOL0     C28541   3.544   3.040   4.978 -0.0158 -0.0892 -0.5014
  212MOL0     C28542   3.489   2.934   4.901  0.2798  0.2758  0.1113
  212MOL0     O28543   3.356   2.900   4.905 -0.4955 -0.0190 -0.2442
  212MOL0     C28544   3.257   2.977   4.968  0.6049  0.4787 -0.8094
  212MOL0     C28545   3.159   2.865   4.996 -0.3069 -0.6590 -0.7351
  212MOL0     C28546   3.203   2.747   5.076 -0.3586 -0.1819 -0.4632
  212MOL0     C28547   3.267   2.775   5.216  0.8583  0.7032 -1.1084
  212MOL0     C28548   3.182   2.850   5.311 -0.1174 -0.2893  0.2874
  212MOL0     C28549   3.112   2.933   5.373 -0.7332  0.4624  0.8017
  212MOL0     C28550   3.569   2.843   4.838  0.2540 -0.6213  0.5495
  212MOL0     C28551   3.708   2.846   4.843 -0.1543 -0.1057  0.1052
  212MOL0     C28552   3.784   2.728   4.775 -0.8865 -0.0405 -0.5624
  212MOL0     H28553   4.108   3.138   4.676  0.9476  2.1548  2.2030
  212MOL0     H28554   4.370   3.127   4.624  1.4398 -0.2568  0.1116
  212MOL0     H28555   4.487   2.766   4.586 -3.5815  3.3159 -0.9920
  212MOL0     H28556   4.567   2.887   4.481  0.6343  0.1739 -0.5775
  212MOL0     H28557   4.690   2.713   4.700 -1.7879 -0.1380  0.7951
  212MOL0     H28558   4.764   2.859   4.668  0.0545 -0.7999  0.7605
  212MOL0     H28559   4.772   2.777   4.421 -0.6782  0.2298  0.4674
  212MOL0     H28560   4.751   2.613   4.485 -1.5040 -0.9450  3.4749
  212MOL0     H28561   5.001   2.684   4.443 -1.6289 -0.9076 -1.1576
  212MOL0     H28562   4.976   2.806   4.578 -3.1245  1.2364 -1.0668
  212MOL0     H28563   4.934   2.640   4.731 -1.9828 -0.3549 -2.1768
  212MOL0     H28564   4.945   2.501   4.613 -1.1107 -0.1121  1.7741
  212MOL0     H28565   5.158   2.508   4.736  1.6509 -1.0676 -0.9016
  212MOL0     H28566   5.176   2.539   4.563  0.6151  1.6817 -0.5876
  212MOL0     H28567   5.145   2.762   4.772  0.8028 -1.6780  1.1927
  212MOL0     H28568   5.226   2.778   4.609  1.6009  1.4615  0.3974
  212MOL0     H28569   5.384   2.785   4.803  0.2630 -0.5194  3.7346
  212MOL0     H28570   5.305   2.640   4.870 -1.4001  1.7321  0.0643
  212MOL0     H28571   5.501   2.469   4.816 -1.5867 -0.5036 -1.4678
  212MOL0     H28572   5.727   2.359   4.583  1.4608 -1.1708 -0.1014
  212MOL0     H28573   5.840   2.481   4.619  0.1136 -0.8565 -1.4782
  212MOL0     H28574   5.817   2.450   4.861 -0.6623 -0.0356  0.7135
  212MOL0     H28575   5.709   2.313   4.830 -0.6366  2.2262  0.2230
  212MOL0     H28576   5.998   2.335   4.748 -0.1330  1.8692  1.1946
  212MOL0     H28577   5.901   2.199   4.702 -3.0279  1.4964 -1.4502
  212MOL0     H28578   5.857   2.160   4.953  0.9558 -2.3217 -0.5133
  212MOL0     H28579   5.964   2.283   4.993 -0.2477 -0.6453  0.9192
  212MOL0     H28580   6.241   2.184   5.067  0.6275 -1.5854  0.9257
  212MOL0     H28581   6.471   2.244   4.993  1.7793  0.5561 -1.8041
  212MOL0     H28582   6.767   2.502   4.816 -0.4583 -1.1732  0.6456
  212MOL0     H28583   6.965   2.598   4.749  2.1671 -0.5974  0.1445
  212MOL0     H28584   7.167   2.648   4.647  1.9848  1.6470  0.5967
  212MOL0     H28585   7.256   2.537   4.768  0.1501  1.2522 -0.2047
  212MOL0     H28586   7.403   2.475   4.573  0.2343 -0.3155  0.1022
  212MOL0     H28587   7.324   2.611   4.480  0.2240  1.1299  0.9155
  212MOL0     H28588   7.409   2.770   4.648 -0.2356 -0.1975  0.7097
  212MOL0     H28589   7.485   2.628   4.726 -0.5749 -0.7962 -0.3363
  212MOL0     H28590   7.542   2.712   4.447 -2.3314 -4.0371 -0.2679
  212MOL0     H28591   7.623   2.577   4.517  0.6151  0.4745 -1.1226
  212MOL0     H28592   7.667   2.878   4.597  1.7434  0.6152 -0.8978
  212MOL0     H28593   7.781   2.763   4.535  1.6036  0.9809  2.2270
  212MOL0     H28594   7.812   2.821   4.772  0.7539 -0.5152 -1.3354
  212MOL0     H28595   7.646   2.751   4.808  0.4598  0.8044  0.8433
  212MOL0     H28596   7.878   2.588   4.730  1.1107  0.3098  1.3565
  212MOL0     H28597   7.705   2.530   4.761  0.3760 -0.9847 -0.5552
  212MOL0     H28598   7.887   2.511   4.941 -3.6133 -2.0489  2.3200
  212MOL0     H28599   7.880   2.689   4.960 -3.6247  1.2057  4.4088
  212MOL0     H28600   7.080   2.189   4.623 -0.0419  0.7284 -2.8627
  212MOL0     H28601   6.880   2.107   4.706  0.1006  1.0280 -2.5036
  212MOL0     H28602   6.367   2.152   4.589 -0.5817  0.4426 -0.1738
  212MOL0     H28603   6.127   2.106   4.671 -0.0020 -0.2269 -0.8604
  212MOL0     H28604   4.388   2.745   4.807 -0.1373 -1.4208 -2.3191
  212MOL0     H28605   4.148   2.752   4.856 -1.1312 -0.2611 -1.8653
  212MOL0     H28606   3.733   3.140   5.023  3.3720 -2.6823  0.5720
  212MOL0     H28607   3.492   3.106   5.046  3.1780 -1.2545  3.4820
  212MOL0     H28608   3.222   3.053   4.898 -1.1779 -0.3122 -0.8221
  212MOL0     H28609   3.284   3.024   5.064  1.9121 -2.0995  0.1913
  212MOL0     H28610   3.127   2.817   4.903 -1.8799  2.2178 -1.7998
  212MOL0     H28611   3.075   2.915   5.045 -1.0735 -0.0179 -2.6237
  212MOL0     H28612   3.272   2.682   5.020 -0.7673 -3.2770  2.3171
  212MOL0     H28613   3.114   2.684   5.088 -1.7181  1.2868 -2.2672
  212MOL0     H28614   3.284   2.683   5.273 -2.2388  0.6813 -0.0731
  212MOL0     H28615   3.368   2.816   5.201  1.8070 -1.0941 -0.0428
  212MOL0     H28616   3.048   3.007   5.418  0.6512  0.3535  3.1281
  212MOL0     H28617   3.526   2.756   4.791  0.1103 -0.0909 -0.3218
  212MOL0     H28618   3.715   2.643   4.781  0.4108 -1.0555  2.9227
  212MOL0     H28619   3.801   2.745   4.669  0.4968 -0.7021 -0.4762
  212MOL0     H28620   3.875   2.712   4.835 -1.8435 -0.2022  0.9061
  213MOL0     O28621   6.599   1.388   3.265  0.2833 -0.0085  0.3003
  213MOL0     C28622   6.551   1.494   3.304  0.7081  0.8711 -0.6937
  213MOL0     O28623   6.618   1.609   3.273  0.1408 -0.1466 -0.8893
  213MOL0     C28624   6.753   1.598   3.272  0.6941  0.3810 -0.4519
  213MOL0     C28625   6.827   1.570   3.398  0.2968 -0.0051  0.4677
  213MOL0     C28626   6.961   1.549   3.401  0.0044  0.0158  0.2432
  213MOL0     C28627   7.034   1.562   3.280  0.2532  0.4597 -0.3546
  213MOL0     O28628   7.171   1.559   3.253 -0.1329  0.9172 -0.7912
  213MOL0     C28629   7.261   1.574   3.348  0.2292  0.6823 -0.8531
  213MOL0     C28630   7.372   1.674   3.300 -0.7991 -0.1780  0.4739
  213MOL0     C28631   7.506   1.656   3.372  0.9021  0.0422  0.3711
  213MOL0     C28632   7.617   1.725   3.290 -0.3398  0.2938  0.1413
  213MOL0     C28633   7.762   1.694   3.327  0.0371 -0.6113  1.0224
  213MOL0     C28634   7.800   1.771   3.453 -0.0797 -0.2341  0.0754
  213MOL0     C28635   7.942   1.737   3.499  0.2966 -0.4336  0.3744
  213MOL0     C28636   7.969   1.811   3.625  0.1100  0.1131 -0.9258
  213MOL0     N28637   7.918   1.730   3.741  0.0667 -0.3140  0.0928
  213MOL0     C28638   7.786   1.713   3.784 -0.3717  0.8722  0.4984
  213MOL0     C28639   7.797   1.653   3.901  0.2430  0.4529 -0.7209
  213MOL0     C28640   7.673   1.615   3.973  0.4098 -0.1775  0.1140
  213MOL0     C28641   7.695   1.480   4.043  0.7751 -0.7430 -0.6548
  213MOL0     C28642   7.717   1.355   3.957 -0.1984 -0.0852 -0.0095
  213MOL0     C28643   7.703   1.234   4.059  0.1738  0.4042  0.2906
  213MOL0     O28644   7.692   1.101   3.997 -0.0873  0.0132  0.2011
  213MOL0     C28645   7.811   1.031   3.977  0.2397  0.2361 -0.0324
  213MOL0     C28646   7.941   1.067   4.013  0.0756  0.9474 -0.8836
  213MOL0     C28647   8.045   0.986   3.974 -0.1395 -0.0150  0.8930
  213MOL0     C28648   8.025   0.880   3.888 -0.1990  0.4123 -0.0867
  213MOL0     C28649   8.139   0.815   3.827  0.1880 -1.0408  0.4172
  213MOL0     O28650   8.241   0.906   3.809 -0.3212  0.0769  0.4778
  213MOL0     C28651   8.357   0.871   3.740 -0.3399 -0.7223  0.2933
  213MOL0     C28652   8.417   0.964   3.655 -0.2029  0.2873 -0.2150
  213MOL0     C28653   8.539   0.948   3.582  0.0479 -0.8052 -0.7644
  213MOL0     C28654   8.610   0.831   3.609 -0.3212  0.1168  0.1575
  213MOL0     O28655   8.719   0.795   3.539 -0.4208 -0.2875 -0.4866
  213MOL0     C28656   8.829   0.886   3.544  0.3358 -0.3156  0.3927
  213MOL0     C28657   8.901   0.866   3.406  0.0987  0.2157 -0.5986
  213MOL0     C28658   9.036   0.937   3.409 -0.2437  0.3142  0.0728
  213MOL0     C28659   9.030   1.073   3.343 -0.0847  0.7812  0.7351
  213MOL0     C28660   9.162   1.148   3.357  0.2031 -0.0041 -0.0538
  213MOL0     C28661   9.149   1.275   3.269 -0.4996 -0.5261 -0.1382
  213MOL0     C28662   9.278   1.345   3.282  0.6964 -0.2063  0.7394
  213MOL0     C28663   9.262   1.484   3.225 -0.0429 -0.6198  0.4578
  213MOL0    Cl28664   9.381   1.600   3.301  0.1026 -0.1402 -0.1444
  213MOL0     C28665   8.554   0.735   3.692  0.5367  0.3356  0.3303
  213MOL0     C28666   8.430   0.755   3.756 -0.6669  0.5179  0.5743
  213MOL0     O28667   8.125   0.707   3.776 -0.4694  0.5588 -0.3956
  213MOL0     C28668   7.891   0.836   3.859 -0.3203  0.4060 -0.1244
  213MOL0     C28669   7.788   0.912   3.909  0.0466 -0.0803 -0.6951
  213MOL0     N28670   7.931   1.637   3.942  0.4763  0.1643  0.1993
  213MOL0     N28671   7.995   1.685   3.844  0.2370 -0.0050 -0.3823
  213MOL0     C28672   6.963   1.580   3.160 -0.0813  0.2977  0.4601
  213MOL0     C28673   6.826   1.593   3.158 -0.1267  0.2859 -0.1641
  213MOL0     C28674   6.405   1.498   3.354 -0.3103  0.4317  1.1864
  213MOL0     C28675   6.346   1.621   3.371  0.0289 -0.0033  0.2248
  213MOL0     C28676   6.212   1.636   3.410 -0.1822 -0.1898  0.4833
  213MOL0     C28677   6.132   1.524   3.422 -0.0362  0.6996  0.4374
  213MOL0     O28678   5.997   1.541   3.443 -0.5428 -0.0559 -0.4831
  213MOL0     C28679   5.922   1.469   3.352 -0.0997  0.1565 -0.0553
  213MOL0     C28680   5.775   1.503   3.359  0.5927  0.2396 -0.3252
  213MOL0     C28681   5.688   1.409   3.263 -1.0205 -0.9503 -0.1513
  213MOL0     C28682   5.541   1.432   3.301 -0.2262  0.6812  0.0110
  213MOL0     C28683   5.456   1.350   3.216  0.9461  0.1742 -0.2456
  213MOL0     C28684   5.388   1.293   3.134 -1.0418 -0.3319 -0.2833
  213MOL0     C28685   6.190   1.397   3.412 -0.9042  0.3927  0.8951
  213MOL0     C28686   6.327   1.384   3.373 -0.1286  0.5455  0.9880
  213MOL0     C28687   6.365   1.239   3.360 -0.7246  0.2616  0.2762
  213MOL0     H28688   6.775   1.572   3.493  0.8552 -2.3280  0.8744
  213MOL0     H28689   7.019   1.526   3.490  0.3369 -1.6408 -0.3725
  213MOL0     H28690   7.224   1.612   3.444  1.4047 -1.3050  0.4719
  213MOL0     H28691   7.295   1.470   3.361  1.1554  0.7338 -2.5794
  213MOL0     H28692   7.336   1.777   3.290  0.5885  0.1918 -1.3876
  213MOL0     H28693   7.393   1.641   3.197  1.9318 -2.2005  1.5549
  213MOL0     H28694   7.519   1.548   3.381 -2.7860 -0.7574 -1.6875
  213MOL0     H28695   7.502   1.706   3.469  1.0240 -1.0800  0.9660
  213MOL0     H28696   7.595   1.698   3.186  1.0974 -2.0774  0.3826
  213MOL0     H28697   7.609   1.834   3.300  1.4772  0.7524 -2.4422
  213MOL0     H28698   7.782   1.587   3.336 -0.7884 -0.8270  0.3539
  213MOL0     H28699   7.824   1.729   3.245 -2.0549  2.9763  0.7570
  213MOL0     H28700   7.795   1.877   3.428 -0.6223 -0.3104 -0.1497
  213MOL0     H28701   7.725   1.760   3.531  1.4974 -3.0021  1.3552
  213MOL0     H28702   8.008   1.763   3.415 -0.4348 -0.5278 -0.2410
  213MOL0     H28703   7.959   1.630   3.512  1.5943 -0.1914  0.8626
  213MOL0     H28704   8.076   1.817   3.644  0.0010  0.4095 -0.4064
  213MOL0     H28705   7.923   1.909   3.617  0.0769  0.0629 -1.3646
  213MOL0     H28706   7.689   1.733   3.740 -1.0422 -2.1843  0.3919
  213MOL0     H28707   7.649   1.685   4.054 -0.6420  0.3759 -0.6536
  213MOL0     H28708   7.582   1.619   3.913  0.6468 -0.3826 -0.2564
  213MOL0     H28709   7.782   1.481   4.110 -0.5668 -0.2987  1.1574
  213MOL0     H28710   7.607   1.470   4.107  1.2875 -2.3538 -0.1453
  213MOL0     H28711   7.803   1.351   3.889  0.2926  1.7274  0.4438
  213MOL0     H28712   7.635   1.347   3.884 -0.0715 -2.7735  0.0413
  213MOL0     H28713   7.608   1.250   4.111 -0.4984  0.4903 -0.9281
  213MOL0     H28714   7.778   1.242   4.138 -0.2757  0.1492  0.7512
  213MOL0     H28715   7.972   1.151   4.075 -0.2227 -0.5868  1.4884
  213MOL0     H28716   8.147   1.012   4.000  0.2249 -3.6934  3.9251
  213MOL0     H28717   8.352   1.050   3.643 -0.8607 -0.1809 -0.1066
  213MOL0     H28718   8.569   1.025   3.512 -2.5804  0.7893 -0.2619
  213MOL0     H28719   8.796   0.990   3.558 -3.8717 -1.3536 -0.5322
  213MOL0     H28720   8.896   0.862   3.627  0.5710  3.5714  1.5364
  213MOL0     H28721   8.909   0.758   3.388 -0.1160 -0.3999  2.5294
  213MOL0     H28722   8.838   0.903   3.324 -0.9451  2.1464  0.9716
  213MOL0     H28723   9.066   0.955   3.512 -0.0760 -0.2124  0.1183
  213MOL0     H28724   9.094   0.860   3.358 -3.7216 -2.8677  0.4588
  213MOL0     H28725   8.941   1.130   3.370 -1.7239 -1.0040 -0.5752
  213MOL0     H28726   9.008   1.058   3.237 -0.7553 -1.5268  1.1337
  213MOL0     H28727   9.237   1.076   3.323 -1.4853 -0.8290 -2.3186
  213MOL0     H28728   9.174   1.169   3.463 -1.5777  4.6731 -0.5592
  213MOL0     H28729   9.121   1.255   3.165 -1.0184  2.9292 -0.7644
  213MOL0     H28730   9.070   1.337   3.312  0.6411  1.8607 -1.2788
  213MOL0     H28731   9.353   1.294   3.220  0.4267 -0.8870  0.9620
  213MOL0     H28732   9.324   1.347   3.381  0.0576  0.5913  1.0326
  213MOL0     H28733   9.286   1.484   3.118  2.5042 -0.3300  0.9646
  213MOL0     H28734   9.164   1.532   3.221  0.9855  1.5383 -0.1986
  213MOL0     H28735   8.600   0.637   3.698 -0.9750 -0.3964  0.4688
  213MOL0     H28736   8.379   0.669   3.800 -0.3457 -0.7118 -1.3510
  213MOL0     H28737   7.879   0.740   3.810 -0.5525  0.5244 -0.3033
  213MOL0     H28738   7.686   0.888   3.880  0.1904 -0.8571 -0.5930
  213MOL0     H28739   7.019   1.574   3.067  0.5697  1.0339  0.7950
  213MOL0     H28740   6.783   1.598   3.058 -0.2537 -0.6807 -0.1666
  213MOL0     H28741   6.400   1.712   3.349 -0.8039  0.3125 -0.6047
  213MOL0     H28742   6.176   1.735   3.433  0.1527  0.5020 -1.7657
  213MOL0     H28743   5.927   1.361   3.369 -3.2199  0.2894  2.9040
  213MOL0     H28744   5.969   1.486   3.255  1.1253  1.8798  0.7900
  213MOL0     H28745   5.765   1.606   3.326  0.5290 -0.0180 -1.1472
  213MOL0     H28746   5.748   1.494   3.464 -0.7563  2.0010 -0.4761
  213MOL0     H28747   5.712   1.302   3.269 -0.9820 -1.0535 -1.8088
  213MOL0     H28748   5.706   1.439   3.160 -1.7083  0.8636  0.2327
  213MOL0     H28749   5.531   1.409   3.407  2.0764 -1.8090 -0.1953
  213MOL0     H28750   5.510   1.536   3.286  0.7937  0.9961  0.0531
  213MOL0     H28751   5.321   1.254   3.061  1.3213 -0.4488 -2.5149
  213MOL0     H28752   6.132   1.308   3.432  0.0186 -0.5081 -0.2887
  213MOL0     H28753   6.300   1.188   3.289  1.7958 -1.3305 -1.0313
  213MOL0     H28754   6.459   1.208   3.313 -2.0912 -1.8637 -1.2164
  213MOL0     H28755   6.374   1.191   3.458 -0.1301 -0.0667  0.0679
  214MOL0     O28756   3.382   7.230   0.256  0.3163  0.2893  0.1345
  214MOL0     C28757   3.397   7.121   0.308  0.5087 -0.3904  0.0947
  214MOL0     O28758   3.330   7.073   0.421 -0.3996 -0.0865  0.6547
  214MOL0     C28759   3.232   7.148   0.471  0.5785 -0.8378 -0.8113
  214MOL0     C28760   3.256   7.199   0.593 -0.2236  0.5918 -0.6421
  214MOL0     C28761   3.156   7.271   0.659 -0.4359 -0.3556  0.3474
  214MOL0     C28762   3.030   7.301   0.602 -1.0163  0.0623  0.2971
  214MOL0     O28763   2.939   7.376   0.675 -0.7090  0.2960  0.2552
  214MOL0     C28764   2.803   7.351   0.630  0.7011  1.0658  0.1263
  214MOL0     C28765   2.708   7.432   0.722  0.0756  0.1557 -0.4243
  214MOL0     C28766   2.697   7.395   0.874  0.8355  1.4138  0.4252
  214MOL0     C28767   2.579   7.472   0.927 -0.2725  0.2716  0.3039
  214MOL0     C28768   2.564   7.445   1.080  0.0923 -0.1460  0.6794
  214MOL0     C28769   2.432   7.497   1.131 -0.5019  0.7257 -0.9133
  214MOL0     C28770   2.435   7.509   1.284 -0.0946  0.6109  0.2121
  214MOL0     C28771   2.319   7.575   1.364  0.6733  0.5885  0.2711
  214MOL0     N28772   2.275   7.695   1.291  0.0835 -0.1580  0.2746
  214MOL0     C28773   2.151   7.710   1.224 -0.4171  0.0809 -0.3037
  214MOL0     C28774   2.134   7.841   1.198  0.6279 -0.8679  0.0011
  214MOL0     C28775   2.025   7.906   1.129 -0.1412 -0.0476 -0.2333
  214MOL0     C28776   2.021   8.061   1.139  1.0763  0.5577  0.2245
  214MOL0     C28777   2.087   8.135   1.023  0.3119  0.3140 -0.1789
  214MOL0     C28778   2.231   8.175   1.060 -0.2039 -0.6085 -0.0031
  214MOL0     O28779   2.281   8.266   0.956  0.5725 -1.0078 -0.7914
  214MOL0     C28780   2.422   8.266   0.941 -0.4353  0.0120 -0.0204
  214MOL0     C28781   2.513   8.196   1.027  0.3850  0.2679 -0.0359
  214MOL0     C28782   2.645   8.190   0.997 -0.0722 -0.4905 -0.1423
  214MOL0     C28783   2.703   8.268   0.889 -0.1752 -1.0006  0.2668
  214MOL0     C28784   2.848   8.251   0.852 -0.0548  0.0963  1.0402
  214MOL0     O28785   2.874   8.293   0.719  0.1228  0.4732 -0.2452
  214MOL0     C28786   2.992   8.262   0.661  0.7212  0.0733  0.0062
  214MOL0     C28787   2.991   8.164   0.562 -0.0799 -0.2754 -0.9001
  214MOL0     C28788   3.110   8.143   0.491  0.0709 -0.2773 -0.3329
  214MOL0     C28789   3.233   8.204   0.521 -0.2261  0.2605  0.5854
  214MOL0     O28790   3.349   8.192   0.447 -0.1131  0.3276  0.0788
  214MOL0     C28791   3.345   8.140   0.320  0.2769  0.1292  0.4786
  214MOL0     C28792   3.495   8.138   0.270 -0.2813  0.2184 -0.7277
  214MOL0     C28793   3.566   8.283   0.280 -0.5947  0.5763 -0.2759
  214MOL0     C28794   3.521   8.399   0.181  0.3047 -1.0531 -0.1034
  214MOL0     C28795   3.579   8.536   0.220  0.1765  0.0507 -0.1961
  214MOL0     C28796   3.707   8.552   0.136 -0.3488 -0.6265  0.3845
  214MOL0     C28797   3.756   8.698   0.130  0.0259  0.3319 -0.8655
  214MOL0     C28798   3.765   8.773   0.270  0.5242 -1.8892 -0.0048
  214MOL0    Cl28799   3.861   8.698   0.410 -0.4303  0.0398  0.2354
  214MOL0     C28800   3.232   8.297   0.632 -0.3135  0.4924 -0.3505
  214MOL0     C28801   3.114   8.325   0.700  1.1059  0.1348 -0.1343
  214MOL0     O28802   2.921   8.187   0.922 -0.9161  0.0875  0.3693
  214MOL0     C28803   2.611   8.340   0.811  0.1903 -0.3357 -1.5177
  214MOL0     C28804   2.471   8.335   0.832 -0.2491 -0.3340 -0.5186
  214MOL0     N28805   2.247   7.903   1.236  0.4372  0.6254  0.7660
  214MOL0     N28806   2.330   7.819   1.296  0.2696 -0.2641 -0.3990
  214MOL0     C28807   3.013   7.257   0.464 -0.2355 -0.3561 -0.1789
  214MOL0     C28808   3.111   7.172   0.407  0.3430 -0.0222 -0.1238
  214MOL0     C28809   3.508   7.044   0.248 -0.0366  0.3736  0.4067
  214MOL0     C28810   3.504   7.029   0.114 -0.2723  1.1474 -0.3275
  214MOL0     C28811   3.585   6.944   0.041 -0.0509 -0.0160  0.9893
  214MOL0     C28812   3.700   6.886   0.108 -0.3049 -0.7691  1.5456
  214MOL0     O28813   3.790   6.807   0.043  0.6378 -0.1328  1.1023
  214MOL0     C28814   3.767   6.771  -0.096  0.3340  0.2679 -0.2697
  214MOL0     C28815   3.891   6.684  -0.134  0.2491  0.1913  0.0646
  214MOL0     C28816   3.868   6.633  -0.272 -0.3575  0.0187  0.3109
  214MOL0     C28817   3.981   6.531  -0.305  0.7260 -0.1821  0.2902
  214MOL0     C28818   3.956   6.454  -0.433 -0.5599  0.1790 -0.3414
  214MOL0     C28819   3.924   6.412  -0.545 -0.0096 -0.9063 -0.2834
  214MOL0     C28820   3.713   6.905   0.246  0.2282  0.2716 -0.3509
  214MOL0     C28821   3.608   6.972   0.317 -0.6571 -0.1789  0.1255
  214MOL0     C28822   3.611   6.981   0.465  0.7370  0.7138  0.1599
  214MOL0     H28823   3.352   7.178   0.640  0.0867 -0.4834 -1.7125
  214MOL0     H28824   3.181   7.320   0.752  1.0313  0.8768 -0.6442
  214MOL0     H28825   2.787   7.378   0.525  1.4453  4.8061  0.8342
  214MOL0     H28826   2.774   7.246   0.639 -0.0244  1.2558  0.0859
  214MOL0     H28827   2.606   7.427   0.684  0.4144  1.8577 -1.6831
  214MOL0     H28828   2.741   7.537   0.719 -0.2489  0.2526 -0.5709
  214MOL0     H28829   2.789   7.428   0.924  0.0830  1.4193  1.8739
  214MOL0     H28830   2.692   7.287   0.885 -0.4123  1.1480 -2.1113
  214MOL0     H28831   2.586   7.579   0.909  0.8794  0.0426 -0.7573
  214MOL0     H28832   2.496   7.428   0.870 -0.5770 -0.6222  1.3768
  214MOL0     H28833   2.581   7.339   1.104 -0.9709 -1.3238 -3.1565
  214MOL0     H28834   2.645   7.502   1.127 -1.0680  1.3651  0.9239
  214MOL0     H28835   2.406   7.594   1.087  0.8751  2.1232  1.2058
  214MOL0     H28836   2.364   7.417   1.098 -0.6430  0.6389 -0.4074
  214MOL0     H28837   2.530   7.556   1.312  0.3814 -0.0972 -0.2075
  214MOL0     H28838   2.451   7.409   1.324  1.5562  1.5804  2.1224
  214MOL0     H28839   2.224   7.528   1.391  0.8251  0.9261  1.4380
  214MOL0     H28840   2.368   7.594   1.460  0.9858 -0.5771  0.3592
  214MOL0     H28841   2.080   7.631   1.199 -2.4744  1.5705  0.5387
  214MOL0     H28842   2.025   7.872   1.025 -0.7124 -2.2185  0.4369
  214MOL0     H28843   1.933   7.863   1.168  0.6844 -1.8080 -0.1219
  214MOL0     H28844   1.917   8.097   1.139  1.0996  0.6231 -0.0279
  214MOL0     H28845   2.054   8.094   1.238 -0.0364  0.1975  0.7454
  214MOL0     H28846   2.030   8.226   0.999  0.3678  1.1992  2.6765
  214MOL0     H28847   2.088   8.071   0.935  0.9239  0.0127  0.0416
  214MOL0     H28848   2.292   8.084   1.057  1.6863  0.6439 -1.2334
  214MOL0     H28849   2.247   8.220   1.159  1.8248 -2.6536  0.6819
  214MOL0     H28850   2.478   8.152   1.120  3.8489 -0.5975  1.0036
  214MOL0     H28851   2.718   8.154   1.068 -0.0578  1.4694  0.9202
  214MOL0     H28852   2.907   8.096   0.549 -0.6621 -0.5811  3.2383
  214MOL0     H28853   3.110   8.085   0.398 -0.0238  0.7329 -0.9771
  214MOL0     H28854   3.310   8.036   0.318  2.3904 -0.6433  0.0062
  214MOL0     H28855   3.284   8.211   0.264 -1.1197 -1.2307  0.2009
  214MOL0     H28856   3.545   8.068   0.337 -0.2850  1.1844  0.3226
  214MOL0     H28857   3.501   8.113   0.164 -0.4078 -0.6953 -0.5255
  214MOL0     H28858   3.551   8.323   0.380  0.7661 -1.5484  0.8802
  214MOL0     H28859   3.674   8.266   0.273 -0.7705 -0.3024 -1.0575
  214MOL0     H28860   3.412   8.404   0.189  0.5006  1.0924  2.9509
  214MOL0     H28861   3.544   8.379   0.076  0.7391  1.9059 -0.6661
  214MOL0     H28862   3.589   8.565   0.325  1.0533  3.8283 -1.1633
  214MOL0     H28863   3.511   8.616   0.189 -0.4949  0.0570  1.2197
  214MOL0     H28864   3.793   8.490   0.164  1.2729 -0.2305 -3.1287
  214MOL0     H28865   3.687   8.529   0.031  3.1976  0.9566 -0.7975
  214MOL0     H28866   3.685   8.750   0.065  0.8069 -0.6714 -2.5966
  214MOL0     H28867   3.854   8.695   0.082  0.9594 -1.1984  0.9837
  214MOL0     H28868   3.812   8.870   0.251 -1.8342  0.2005  3.5848
  214MOL0     H28869   3.667   8.802   0.309  0.8227  1.1181 -1.2031
  214MOL0     H28870   3.330   8.339   0.654 -0.5225  0.6772  0.2478
  214MOL0     H28871   3.120   8.407   0.771  0.0512 -0.7586  1.0263
  214MOL0     H28872   2.633   8.405   0.727  0.5564 -0.6506 -1.6710
  214MOL0     H28873   2.407   8.398   0.771  1.7232  1.8654 -0.4112
  214MOL0     H28874   2.934   7.278   0.393 -0.1605 -1.3824 -0.5865
  214MOL0     H28875   3.117   7.146   0.302  0.8231 -1.3435  0.2096
  214MOL0     H28876   3.425   7.070   0.051  0.1676 -1.4877 -2.7832
  214MOL0     H28877   3.554   6.920  -0.060  0.0516 -2.9944  1.5588
  214MOL0     H28878   3.757   6.864  -0.153 -1.4973  1.4698  1.8741
  214MOL0     H28879   3.674   6.715  -0.108  1.0077 -0.5535 -2.0166
  214MOL0     H28880   3.896   6.608  -0.055 -0.2681  0.0550 -0.0316
  214MOL0     H28881   3.984   6.740  -0.124  0.7391 -0.9195  2.9069
  214MOL0     H28882   3.881   6.709  -0.349  0.9082 -0.8120 -0.3352
  214MOL0     H28883   3.767   6.592  -0.274  0.6847 -3.0913  2.7728
  214MOL0     H28884   4.072   6.592  -0.312  0.5037  0.0008 -1.3103
  214MOL0     H28885   3.980   6.459  -0.223 -0.8301  0.1301  0.5638
  214MOL0     H28886   3.899   6.371  -0.641  4.7932 -2.2035 -1.2668
  214MOL0     H28887   3.799   6.864   0.299 -0.0372  2.6985  2.1891
  214MOL0     H28888   3.626   7.086   0.494  3.0297  0.7054 -0.7716
  214MOL0     H28889   3.520   6.935   0.505  1.4548 -0.8641  0.0358
  214MOL0     H28890   3.695   6.919   0.498  1.4473  1.2862 -0.5440
  215MOL0     O28891   3.305   1.778   9.245  0.3259  0.6636 -0.4222
  215MOL0     C28892   3.316   1.884   9.188  0.9170  0.5419 -0.4521
  215MOL0     O28893   3.406   1.907   9.093 -0.1736 -0.3335  0.2754
  215MOL0     C28894   3.518   1.829   9.082 -0.3790 -0.2281  0.2418
  215MOL0     C28895   3.518   1.713   9.010  0.3048  0.6103 -0.2829
  215MOL0     C28896   3.623   1.618   9.010 -0.7721 -0.1222 -0.3347
  215MOL0     C28897   3.737   1.645   9.093  0.3023  0.7582 -0.0759
  215MOL0     O28898   3.842   1.556   9.084  0.4335 -0.3749 -0.3845
  215MOL0     C28899   3.926   1.550   9.198  0.6509 -0.4104  0.4528
  215MOL0     C28900   4.018   1.430   9.208  0.0204  0.4302 -0.8227
  215MOL0     C28901   4.128   1.429   9.106 -0.3874  0.5496 -0.0932
  215MOL0     C28902   4.201   1.293   9.104 -0.6770 -0.1163 -0.6576
  215MOL0     C28903   4.325   1.296   9.019 -0.4766 -0.5426  1.0033
  215MOL0     C28904   4.412   1.169   9.031  0.4080 -0.1518 -0.3283
  215MOL0     C28905   4.556   1.189   8.991 -0.1473 -0.0547  0.0711
  215MOL0     C28906   4.638   1.049   9.007 -0.2394  0.1037  0.1244
  215MOL0     N28907   4.784   1.057   8.994  0.1322 -0.3756 -0.5369
  215MOL0     C28908   4.864   1.036   8.889  0.6233 -0.4943  0.0754
  215MOL0     C28909   4.983   1.103   8.910  0.5370 -0.2423  0.6523
  215MOL0     C28910   5.108   1.090   8.830 -0.1180  0.7048 -0.6331
  215MOL0     C28911   5.230   1.064   8.916  0.7652  0.2939  0.1506
  215MOL0     C28912   5.361   1.056   8.834  0.2620  0.0103 -0.9793
  215MOL0     C28913   5.488   1.090   8.915  0.1861 -0.7554  0.3013
  215MOL0     O28914   5.603   1.018   8.858  0.1604  0.9887  0.1957
  215MOL0     C28915   5.729   1.078   8.864  0.3169 -0.6822  0.5440
  215MOL0     C28916   5.829   1.035   8.785 -0.1178 -0.0091  0.5238
  215MOL0     C28917   5.960   1.099   8.780 -0.1806  0.1777  0.8000
  215MOL0     C28918   5.993   1.202   8.869 -0.1997 -0.4363 -0.6529
  215MOL0     C28919   6.126   1.256   8.872 -0.2015  0.5364 -0.0059
  215MOL0     O28920   6.168   1.300   8.997  0.5215 -0.1609 -0.0516
  215MOL0     C28921   6.300   1.329   9.002  0.4436  0.2932  0.0598
  215MOL0     C28922   6.365   1.423   8.909 -0.6701  1.1738  0.1991
  215MOL0     C28923   6.493   1.469   8.936  0.4304 -0.2623 -0.3975
  215MOL0     C28924   6.573   1.409   9.036 -0.0960 -0.0193  1.0233
  215MOL0     O28925   6.711   1.428   9.056  0.8066  0.1127 -0.5983
  215MOL0     C28926   6.768   1.552   9.031 -0.1828  0.3750  0.2468
  215MOL0     C28927   6.687   1.662   9.106  0.7868  0.2581  0.5197
  215MOL0     C28928   6.750   1.799   9.072 -0.1074  0.5638 -0.3836
  215MOL0     C28929   6.703   1.910   9.164 -0.0216  0.0603  0.7435
  215MOL0     C28930   6.769   1.888   9.307  0.6772 -1.0786 -0.9552
  215MOL0     C28931   6.741   1.997   9.401  0.5845 -0.2617  0.0698
  215MOL0     C28932   6.749   1.965   9.545  0.5606  0.6780  0.7752
  215MOL0     C28933   6.879   1.915   9.595 -0.4065 -0.1748  0.5953
  215MOL0    Cl28934   7.034   2.021   9.559  0.1062  0.2122  0.0347
  215MOL0     C28935   6.512   1.328   9.130  0.2573 -0.6330  0.0195
  215MOL0     C28936   6.381   1.297   9.118  0.0205  1.0963 -0.2501
  215MOL0     O28937   6.195   1.239   8.772  0.1722  0.0560 -0.0956
  215MOL0     C28938   5.895   1.237   8.963 -0.4037 -0.7909  0.2855
  215MOL0     C28939   5.765   1.183   8.954  1.3473  0.2262 -0.2847
  215MOL0     N28940   4.974   1.155   9.036 -0.2722  0.4558  1.0291
  215MOL0     N28941   4.852   1.133   9.079 -0.0098  0.0611  0.8140
  215MOL0     C28942   3.735   1.760   9.169 -0.1665 -0.2626  0.6041
  215MOL0     C28943   3.634   1.857   9.155  0.2236  0.1293  0.1152
  215MOL0     C28944   3.220   1.995   9.213 -0.0576  0.5767  0.4838
  215MOL0     C28945   3.226   2.071   9.334 -0.6540 -0.1716 -0.5261
  215MOL0     C28946   3.139   2.174   9.355 -0.1619 -0.7899  0.7332
  215MOL0     C28947   3.041   2.207   9.261 -0.1334  0.2797  0.2934
  215MOL0     O28948   2.968   2.322   9.280 -0.3857 -0.9955  0.1794
  215MOL0     C28949   2.831   2.315   9.238  1.2053  0.2136 -0.2746
  215MOL0     C28950   2.765   2.443   9.246  0.4668  0.8645 -0.7020
  215MOL0     C28951   2.736   2.475   9.403 -0.1442  0.1217  0.9955
  215MOL0     C28952   2.767   2.627   9.429 -0.3703 -0.9288 -0.2754
  215MOL0     C28953   2.682   2.721   9.348  0.8671 -0.3562 -0.3333
  215MOL0     C28954   2.613   2.788   9.277 -0.2276  0.3689 -0.2411
  215MOL0     C28955   3.037   2.131   9.140 -0.0525 -0.6718  0.2141
  215MOL0     C28956   3.118   2.025   9.114  0.2567 -0.6424 -0.1063
  215MOL0     C28957   3.098   1.933   8.998 -0.2234 -0.0682 -0.0019
  215MOL0     H28958   3.435   1.691   8.944 -0.9722  1.1737  1.0641
  215MOL0     H28959   3.616   1.532   8.945  2.7584  0.8860 -2.3129
  215MOL0     H28960   3.992   1.636   9.202 -1.7509  1.5110  2.0110
  215MOL0     H28961   3.855   1.549   9.282 -0.2174 -1.4395 -0.2667
  215MOL0     H28962   3.963   1.337   9.193  1.9936 -1.3024  1.9972
  215MOL0     H28963   4.062   1.429   9.308 -2.0230 -2.1077  0.1646
  215MOL0     H28964   4.200   1.503   9.142  0.7990  0.0872 -1.4133
  215MOL0     H28965   4.090   1.462   9.009  0.4650  0.9985 -0.2819
  215MOL0     H28966   4.246   1.277   9.202  1.8374  1.0484 -1.5337
  215MOL0     H28967   4.131   1.211   9.084 -0.8958  0.0807 -0.6930
  215MOL0     H28968   4.296   1.317   8.915 -0.2011  2.1198  1.3979
  215MOL0     H28969   4.376   1.385   9.058  0.9257 -0.8734 -0.0216
  215MOL0     H28970   4.419   1.137   9.135  1.8661  2.4120  0.4464
  215MOL0     H28971   4.374   1.087   8.969  2.8203 -0.8124 -1.0323
  215MOL0     H28972   4.588   1.278   9.047 -1.1588  0.4630 -0.1418
  215MOL0     H28973   4.564   1.224   8.887  0.7288 -0.3489  0.0276
  215MOL0     H28974   4.609   1.021   9.108 -0.1026  0.0064  0.1370
  215MOL0     H28975   4.603   0.967   8.943  0.7051  0.5482 -1.0098
  215MOL0     H28976   4.830   0.979   8.804  0.1388  2.2767 -1.7104
  215MOL0     H28977   5.100   1.007   8.760 -1.7187 -0.5828  0.9739
  215MOL0     H28978   5.126   1.178   8.767  0.1316  0.7417 -0.5130
  215MOL0     H28979   5.249   1.133   8.998  2.2284 -0.1967  0.2506
  215MOL0     H28980   5.208   0.965   8.957 -1.4163  0.2701 -0.8945
  215MOL0     H28981   5.355   1.123   8.748 -2.4677  0.8943 -0.2072
  215MOL0     H28982   5.380   0.952   8.806  0.9121 -0.3162  0.5805
  215MOL0     H28983   5.474   1.056   9.018 -2.9639 -0.1854  0.1652
  215MOL0     H28984   5.510   1.196   8.904  2.4832 -1.4083 -3.0280
  215MOL0     H28985   5.805   0.959   8.712  1.6281 -1.4228  1.3527
  215MOL0     H28986   6.038   1.073   8.711 -0.5687  0.8673  0.0877
  215MOL0     H28987   6.324   1.469   8.820  0.1697  2.9309  0.6831
  215MOL0     H28988   6.531   1.542   8.866  0.5358 -0.2820 -0.3602
  215MOL0     H28989   6.871   1.556   9.068 -0.3536 -1.5751  1.0587
  215MOL0     H28990   6.779   1.568   8.923  0.5115  1.7506  0.4916
  215MOL0     H28991   6.578   1.663   9.099  0.6653  2.4119  1.7921
  215MOL0     H28992   6.694   1.637   9.213  0.9183 -0.5100  0.3407
  215MOL0     H28993   6.859   1.793   9.073 -0.0601 -0.5682 -3.1040
  215MOL0     H28994   6.725   1.824   8.968  0.3407  1.2320 -0.3359
  215MOL0     H28995   6.595   1.918   9.175 -0.7041 -0.7080 -3.6147
  215MOL0     H28996   6.742   2.002   9.120 -2.6916  1.4953  1.2079
  215MOL0     H28997   6.877   1.871   9.304  0.4697 -2.6288 -0.6154
  215MOL0     H28998   6.741   1.791   9.351 -0.3072 -0.2675  0.2831
  215MOL0     H28999   6.796   2.090   9.384 -2.5515  2.0452  1.5007
  215MOL0     H29000   6.634   2.019   9.389  0.8501  0.2138 -1.6148
  215MOL0     H29001   6.674   1.887   9.562 -0.3149  1.1053 -0.8662
  215MOL0     H29002   6.720   2.054   9.602  0.2408  0.7938  0.4355
  215MOL0     H29003   6.877   1.905   9.704  2.2817  1.5409  0.9083
  215MOL0     H29004   6.883   1.814   9.554  0.0942  0.0649  0.0226
  215MOL0     H29005   6.569   1.299   9.219 -0.5368 -2.2202  0.0496
  215MOL0     H29006   6.336   1.235   9.195  1.9900 -1.5516 -1.1140
  215MOL0     H29007   5.910   1.314   9.037 -0.6374 -1.3618  0.9369
  215MOL0     H29008   5.697   1.228   9.026  1.9007  1.6996 -0.6597
  215MOL0     H29009   3.830   1.785   9.215  0.7014 -1.2743 -0.5749
  215MOL0     H29010   3.643   1.949   9.213  4.2168  2.0661 -3.0823
  215MOL0     H29011   3.301   2.041   9.406 -1.5340 -1.8135 -0.2466
  215MOL0     H29012   3.151   2.229   9.448 -3.2722 -0.6962  1.2034
  215MOL0     H29013   2.778   2.234   9.287  0.3795  0.5526 -0.5932
  215MOL0     H29014   2.817   2.280   9.136 -1.9546  1.8529 -0.5386
  215MOL0     H29015   2.676   2.434   9.183  1.7874 -0.0676 -2.5351
  215MOL0     H29016   2.830   2.517   9.199  2.4374 -1.1943 -1.4277
  215MOL0     H29017   2.799   2.425   9.476  1.2476  0.5009  0.0942
  215MOL0     H29018   2.630   2.449   9.418  0.4776 -2.7350  1.0233
  215MOL0     H29019   2.743   2.641   9.535  0.1000  0.2797 -0.3047
  215MOL0     H29020   2.874   2.641   9.410 -0.9761 -0.7672 -4.7635
  215MOL0     H29021   2.547   2.849   9.219 -1.4287  0.2045  0.9148
  215MOL0     H29022   2.966   2.165   9.065 -0.6844 -1.4300  0.4628
  215MOL0     H29023   3.039   1.981   8.920 -1.0566 -0.5599  0.3092
  215MOL0     H29024   3.190   1.914   8.943  0.2795  1.7007  0.1826
  215MOL0     H29025   3.047   1.842   9.033  1.1228 -1.5059 -1.6548
  216MOL0     O29026   2.025   0.416   4.166 -0.4464 -0.2411 -0.2461
  216MOL0     C29027   1.935   0.339   4.200  0.0680 -1.1895  0.2434
  216MOL0     O29028   1.948   0.206   4.225  0.1638  0.0189 -0.1427
  216MOL0     C29029   2.071   0.146   4.187  0.1769  0.3912  0.8287
  216MOL0     C29030   2.135   0.163   4.056 -0.4288  0.5508  0.3956
  216MOL0     C29031   2.260   0.104   4.035  0.4417  0.0391 -0.4873
  216MOL0     C29032   2.313   0.009   4.124  0.6063  0.3980  0.4033
  216MOL0     O29033   2.442  -0.036   4.110 -0.2121 -0.1634  0.0144
  216MOL0     C29034   2.539   0.060   4.076  0.1582  0.1909  1.2377
  216MOL0     C29035   2.675   0.002   4.078  0.5426 -0.3396 -0.8294
  216MOL0     C29036   2.708  -0.066   4.211  0.2724  0.0067  0.5630
  216MOL0     C29037   2.718   0.024   4.339  0.8336  0.5196  0.2154
  216MOL0     C29038   2.720  -0.060   4.474 -0.2565 -0.4066 -0.1208
  216MOL0     C29039   2.846  -0.131   4.498 -1.2164  0.5901 -0.3787
  216MOL0     C29040   2.963  -0.034   4.494 -0.1473  0.4378 -0.5797
  216MOL0     C29041   3.083  -0.103   4.564 -0.5653 -0.5274 -0.2419
  216MOL0     N29042   3.199  -0.037   4.510 -1.1316  0.0689 -0.0032
  216MOL0     C29043   3.318  -0.110   4.511  0.8426  0.7704  0.8739
  216MOL0     C29044   3.400  -0.023   4.451 -0.0799  0.2867 -0.1359
  216MOL0     C29045   3.548  -0.049   4.449 -0.4285 -0.5742  0.0300
  216MOL0     C29046   3.594  -0.177   4.378  0.5736  0.3874 -0.3013
  216MOL0     C29047   3.745  -0.179   4.355 -0.2183 -0.0935 -0.2024
  216MOL0     C29048   3.789  -0.073   4.253 -0.7851  0.0745  0.5892
  216MOL0     O29049   3.916  -0.119   4.181  0.0077  0.0692  0.1277
  216MOL0     C29050   3.987  -0.035   4.101 -0.6490  0.1812 -0.3982
  216MOL0     C29051   3.939   0.079   4.036 -0.2149  0.7779  0.6429
  216MOL0     C29052   4.024   0.140   3.955  0.0095 -0.3213 -0.3974
  216MOL0     C29053   4.165   0.095   3.933 -0.3928  0.4640 -0.3561
  216MOL0     C29054   4.256   0.154   3.833  0.7175 -0.2910  0.6308
  216MOL0     O29055   4.385   0.117   3.823  0.2374  0.1942 -0.8233
  216MOL0     C29056   4.469   0.163   3.728 -0.7279  0.7146  0.4281
  216MOL0     C29057   4.600   0.175   3.775 -0.1837 -0.9598  0.2615
  216MOL0     C29058   4.707   0.213   3.688 -0.5654  0.8048  0.6564
  216MOL0     C29059   4.675   0.228   3.550  0.3655  0.1128  0.2569
  216MOL0     O29060   4.786   0.263   3.469 -0.3785  0.2915  0.7636
  216MOL0     C29061   4.788   0.229   3.327  0.1025  0.0723  1.0687
  216MOL0     C29062   4.924   0.268   3.255  0.1779 -0.5638 -0.7945
  216MOL0     C29063   4.963   0.420   3.259  0.6861 -0.8941  0.0921
  216MOL0     C29064   5.001   0.478   3.124 -0.3110 -1.0006 -0.6498
  216MOL0     C29065   5.040   0.629   3.124  0.2341 -0.3969 -0.2699
  216MOL0     C29066   5.091   0.693   3.256  0.0291  0.5644  0.1318
  216MOL0     C29067   5.152   0.830   3.233 -0.1317 -0.6998 -0.2689
  216MOL0     C29068   5.178   0.899   3.367  0.0903 -0.3252 -0.7957
  216MOL0    Cl29069   5.164   1.074   3.357  0.4240  0.0741  0.1576
  216MOL0     C29070   4.549   0.207   3.497  0.1960 -0.0237  0.1091
  216MOL0     C29071   4.438   0.181   3.589 -0.4372 -0.0030 -0.2498
  216MOL0     O29072   4.207   0.242   3.762  0.6606  0.3364  0.5822
  216MOL0     C29073   4.203  -0.021   3.998 -0.0938 -1.1263 -0.5607
  216MOL0     C29074   4.120  -0.080   4.089  0.0990  0.0766 -0.3781
  216MOL0     N29075   3.330   0.091   4.410 -0.3214  0.8629  0.0373
  216MOL0     N29076   3.210   0.079   4.445  0.6075 -0.1655 -0.6635
  216MOL0     C29077   2.250  -0.008   4.250  0.0841 -1.3687 -1.0048
  216MOL0     C29078   2.124   0.054   4.275  0.4631  0.1744  0.0374
  216MOL0     C29079   1.798   0.391   4.205  0.6547  0.3495  0.1659
  216MOL0     C29080   1.767   0.489   4.104  0.2233 -0.2845 -0.9642
  216MOL0     C29081   1.638   0.549   4.115 -0.3677  0.6040 -0.0507
  216MOL0     C29082   1.552   0.519   4.219  0.2128  1.1247 -0.0923
  216MOL0     O29083   1.441   0.601   4.226  0.0239  0.2678  0.0389
  216MOL0     C29084   1.364   0.615   4.346 -0.3299  0.4454 -0.4170
  216MOL0     C29085   1.251   0.730   4.330  0.4608  0.5824  0.1290
  216MOL0     C29086   1.124   0.676   4.267  0.8674 -0.1686  0.3383
  216MOL0     C29087   1.024   0.784   4.210  0.2106  0.5013  0.1206
  216MOL0     C29088   0.908   0.717   4.150 -0.5411 -0.2567 -0.0408
  216MOL0     C29089   0.806   0.683   4.092 -0.3664  0.5261  0.3505
  216MOL0     C29090   1.586   0.423   4.313  0.1508  0.0985 -0.7349
  216MOL0     C29091   1.709   0.355   4.311  0.0374 -0.0304 -0.1616
  216MOL0     C29092   1.748   0.252   4.411  0.0452 -0.1797  0.4167
  216MOL0     H29093   2.115   0.239   3.981 -0.6349 -0.3742 -0.5106
  216MOL0     H29094   2.300   0.116   3.935  0.9952  0.2509 -0.2411
  216MOL0     H29095   2.514   0.098   3.976  2.1162 -1.2208  0.1386
  216MOL0     H29096   2.524   0.149   4.137 -0.3499  2.4418 -1.8859
  216MOL0     H29097   2.738   0.083   4.041  1.0234 -0.6794 -0.7642
  216MOL0     H29098   2.669  -0.078   4.002  0.4264 -1.0602 -0.0753
  216MOL0     H29099   2.803  -0.119   4.198 -0.7802 -1.7111 -0.4734
  216MOL0     H29100   2.631  -0.143   4.224  1.2376 -1.1578 -0.3995
  216MOL0     H29101   2.804   0.091   4.334  1.3271 -0.1945 -1.7699
  216MOL0     H29102   2.625   0.080   4.331  0.7029  0.3936  0.7898
  216MOL0     H29103   2.704   0.004   4.562  0.9693 -1.7895  1.1609
  216MOL0     H29104   2.640  -0.135   4.475  0.2667 -0.9687 -0.2499
  216MOL0     H29105   2.830  -0.190   4.589 -1.4398  1.3317  0.0748
  216MOL0     H29106   2.861  -0.202   4.416 -2.0516 -1.2437  0.9808
  216MOL0     H29107   2.947   0.055   4.556 -2.1239 -1.4522  1.8352
  216MOL0     H29108   2.986  -0.001   4.392 -0.2513  1.6720 -0.2150
  216MOL0     H29109   3.071  -0.100   4.672  1.5240  1.9700  0.0229
  216MOL0     H29110   3.081  -0.204   4.521  0.6055  0.1261 -1.9611
  216MOL0     H29111   3.334  -0.210   4.549 -0.0524 -0.7686 -2.4741
  216MOL0     H29112   3.586   0.037   4.393 -0.8763 -0.5225 -0.2026
  216MOL0     H29113   3.584  -0.045   4.552 -0.5491  0.5501  0.0493
  216MOL0     H29114   3.567  -0.262   4.442  1.3265 -0.0229 -0.5132
  216MOL0     H29115   3.541  -0.188   4.283 -0.1558  1.1978 -0.0001
  216MOL0     H29116   3.785  -0.279   4.336 -0.0460 -0.2713  1.0217
  216MOL0     H29117   3.793  -0.155   4.450 -3.0565 -1.7410  1.8141
  216MOL0     H29118   3.794   0.025   4.302 -1.2540  0.9176 -0.9855
  216MOL0     H29119   3.716  -0.068   4.172 -0.6903 -0.9293  0.4399
  216MOL0     H29120   3.837   0.110   4.053 -0.5415  1.0424 -1.4860
  216MOL0     H29121   3.986   0.229   3.905 -1.6432  0.9693  2.8522
  216MOL0     H29122   4.618   0.165   3.882  1.7839  0.9232  0.1758
  216MOL0     H29123   4.807   0.243   3.719  0.2835  0.2063 -1.3417
  216MOL0     H29124   4.776   0.121   3.318 -0.5223  0.2349 -0.1447
  216MOL0     H29125   4.715   0.288   3.271  2.2269  1.1273 -0.7828
  216MOL0     H29126   4.996   0.215   3.317  0.0627 -0.4567 -0.5689
  216MOL0     H29127   4.935   0.236   3.151  0.7584  0.0176 -0.9199
  216MOL0     H29128   4.886   0.473   3.316  1.7800  0.0007  0.7773
  216MOL0     H29129   5.042   0.424   3.335  0.4827 -1.6743  0.3595
  216MOL0     H29130   4.922   0.457   3.051 -0.8321 -3.0612  0.4493
  216MOL0     H29131   5.095   0.426   3.104 -0.7474 -1.4986 -1.4458
  216MOL0     H29132   4.951   0.683   3.091  0.6595  0.9947  0.7367
  216MOL0     H29133   5.123   0.640   3.052  1.5464 -1.4114  1.0316
  216MOL0     H29134   5.022   0.700   3.340 -0.9736 -0.2181 -0.6032
  216MOL0     H29135   5.178   0.636   3.291 -0.0537  0.6384  0.4620
  216MOL0     H29136   5.086   0.891   3.171 -1.4171 -0.4007  1.3169
  216MOL0     H29137   5.255   0.827   3.197  1.2201  0.1396  3.1177
  216MOL0     H29138   5.101   0.866   3.437 -0.1623 -1.1759 -1.4566
  216MOL0     H29139   5.272   0.867   3.413  0.1541  2.2772  1.0773
  216MOL0     H29140   4.527   0.204   3.391 -0.8248  2.3895  0.1810
  216MOL0     H29141   4.338   0.150   3.559 -0.2600 -1.3169  0.4430
  216MOL0     H29142   4.305  -0.056   3.986 -0.2545 -2.4748  1.4993
  216MOL0     H29143   4.151  -0.169   4.143 -1.6307  0.0397  0.6209
  216MOL0     H29144   2.296  -0.065   4.330  1.5231  0.1369 -0.6976
  216MOL0     H29145   2.084   0.044   4.375  0.3332 -0.6206 -0.0815
  216MOL0     H29146   1.835   0.516   4.024 -1.3977  1.1467 -1.9352
  216MOL0     H29147   1.606   0.625   4.044 -1.7497  0.9706  0.9198
  216MOL0     H29148   1.433   0.649   4.424  1.3738  2.7416 -2.7355
  216MOL0     H29149   1.312   0.525   4.378  0.5134  0.8913  2.5296
  216MOL0     H29150   1.285   0.805   4.258  0.3734 -0.7191 -1.3239
  216MOL0     H29151   1.223   0.779   4.424  1.5015 -0.4352  1.0000
  216MOL0     H29152   1.063   0.618   4.337 -1.5166 -0.3949 -1.7965
  216MOL0     H29153   1.158   0.611   4.185 -0.9791  2.5668 -2.8161
  216MOL0     H29154   0.978   0.837   4.294 -3.8211 -2.3025 -0.0182
  216MOL0     H29155   1.074   0.856   4.145  1.4935 -0.7678 -0.3551
  216MOL0     H29156   0.717   0.664   4.035  0.2478 -4.1981  0.6263
  216MOL0     H29157   1.512   0.415   4.392 -0.9678  0.1155 -1.7546
  216MOL0     H29158   1.771   0.156   4.363  2.2945 -1.2391  3.3041
  216MOL0     H29159   1.831   0.286   4.474  0.9187  1.4179 -1.4813
  216MOL0     H29160   1.662   0.228   4.473 -1.9237 -2.4008 -2.8621
  217MOL0     O29161  11.141   2.725   3.183  0.6758  0.3898 -0.2889
  217MOL0     C29162  11.086   2.613   3.166 -0.0746  0.4802 -0.3728
  217MOL0     O29163  11.136   2.494   3.204 -0.2253  0.7068  0.0549
  217MOL0     C29164  11.276   2.489   3.211  0.2925  0.1689  0.5602
  217MOL0     C29165  11.339   2.421   3.117 -0.2868  0.2018  0.9277
  217MOL0     C29166  11.483   2.401   3.132  0.5221 -0.5276  0.3906
  217MOL0     C29167  11.555   2.453   3.243  0.4095  0.2407 -0.5249
  217MOL0     O29168  11.691   2.451   3.269  0.0493  0.0038 -0.8474
  217MOL0     C29169  11.771   2.378   3.180  0.3363 -0.4104  0.3742
  217MOL0     C29170  11.914   2.388   3.231  0.3730 -0.7347  0.1371
  217MOL0     C29171  12.004   2.272   3.194  0.2762  0.0110  0.3889
  217MOL0     C29172  12.154   2.314   3.197  0.0954 -0.1170  0.0616
  217MOL0     C29173  12.227   2.192   3.146 -0.7667 -0.1200  0.0808
  217MOL0     C29174  12.378   2.210   3.120  0.4600  0.4166 -0.6151
  217MOL0     C29175  12.463   2.269   3.235  0.1531  0.0102  0.9129
  217MOL0     C29176  12.467   2.197   3.371 -0.0203 -0.2283  0.5291
  217MOL0     N29177  12.563   2.087   3.369 -0.8033  0.3623  0.3838
  217MOL0     C29178  12.689   2.087   3.423 -0.3188 -0.3291 -0.9713
  217MOL0     C29179  12.756   1.981   3.368  0.0618 -0.0344 -0.3077
  217MOL0     C29180  12.904   1.959   3.391  0.2130 -0.0574  0.8474
  217MOL0     C29181  12.933   1.887   3.519 -0.7679  0.2170 -0.1419
  217MOL0     C29182  13.081   1.850   3.510 -0.5337 -0.5812  0.8816
  217MOL0     C29183  13.128   1.809   3.645  0.9272  0.7250  0.0778
  217MOL0     O29184  13.266   1.768   3.653 -0.1929 -0.3389 -0.5945
  217MOL0     C29185  13.338   1.785   3.770 -0.1383  0.3916 -0.4837
  217MOL0     C29186  13.277   1.818   3.893 -0.4320  0.1390 -0.1651
  217MOL0     C29187  13.361   1.848   4.010  0.3911 -0.2537 -0.2236
  217MOL0     C29188  13.499   1.844   4.001 -0.4239  0.2970  0.2723
  217MOL0     C29189  13.582   1.887   4.113  0.1052  1.2707 -0.1434
  217MOL0     O29190  13.715   1.857   4.110 -0.2731  0.1767 -0.2623
  217MOL0     C29191  13.800   1.888   4.211 -0.0857 -0.0472 -1.1127
  217MOL0     C29192  13.935   1.903   4.173  0.6891 -0.2817 -1.0779
  217MOL0     C29193  14.035   1.918   4.272 -0.5251  0.8779  1.2139
  217MOL0     C29194  13.999   1.938   4.404  0.4491 -0.4462 -0.5225
  217MOL0     O29195  14.108   1.983   4.481  0.6333  0.1358 -0.1901
  217MOL0     C29196  14.105   1.996   4.620  0.2946  0.3426 -0.2673
  217MOL0     C29197  14.211   2.081   4.687 -0.1180  0.1430 -0.8641
  217MOL0     C29198  14.352   2.052   4.634 -0.0620 -0.4246  0.4040
  217MOL0     C29199  14.415   1.928   4.706 -0.0231 -0.7723  0.8642
  217MOL0     C29200  14.481   1.849   4.603  0.2416 -0.4628  0.4108
  217MOL0     C29201  14.574   1.738   4.652  0.2938 -0.1209 -0.2143
  217MOL0     C29202  14.484   1.628   4.715 -0.0229 -0.7684 -0.6735
  217MOL0     C29203  14.527   1.484   4.695  0.7188 -0.3472 -0.1216
  217MOL0    Cl29204  14.704   1.471   4.733  0.1882  0.1438 -0.1371
  217MOL0     C29205  13.867   1.922   4.449 -0.4856 -0.8243 -0.4503
  217MOL0     C29206  13.771   1.892   4.350  0.0713  0.3807  0.5713
  217MOL0     O29207  13.526   1.951   4.202  0.5772 -0.0217  0.0900
  217MOL0     C29208  13.553   1.785   3.880  0.3188  0.4907 -0.8041
  217MOL0     C29209  13.475   1.753   3.769  0.1813  0.2536 -0.2361
  217MOL0     N29210  12.664   1.914   3.287 -0.0709  0.0423 -0.1163
  217MOL0     N29211  12.547   1.971   3.302  0.7103  0.3699  0.5287
  217MOL0     C29212  11.475   2.519   3.339  1.0698  0.5777  0.1209
  217MOL0     C29213  11.341   2.536   3.325 -0.9240 -0.0692 -0.4843
  217MOL0     C29214  10.934   2.621   3.128 -0.9282 -0.5704  0.5064
  217MOL0     C29215  10.853   2.506   3.148  0.1916 -0.2379 -0.6511
  217MOL0     C29216  10.713   2.507   3.140 -1.1324 -1.1564 -0.0422
  217MOL0     C29217  10.652   2.625   3.088 -0.0954 -0.2736  0.1086
  217MOL0     O29218  10.519   2.640   3.072 -0.1267  0.3380  0.4532
  217MOL0     C29219  10.436   2.560   3.159 -0.0574  0.0678  0.8505
  217MOL0     C29220  10.441   2.605   3.309  0.8340  0.2964  0.1876
  217MOL0     C29221  10.316   2.684   3.339  0.1423 -0.8538 -0.7256
  217MOL0     C29222  10.294   2.714   3.487 -0.4882 -0.0401 -0.3736
  217MOL0     C29223  10.264   2.589   3.571  0.5721  0.4415 -0.2431
  217MOL0     C29224  10.250   2.489   3.649 -0.2247 -0.0187 -0.1974
  217MOL0     C29225  10.727   2.735   3.050  0.5968  0.6206  0.2112
  217MOL0     C29226  10.869   2.741   3.069  0.3942 -0.5344  0.5243
  217MOL0     C29227  10.939   2.868   3.022  0.1413  0.5457  0.2523
  217MOL0     H29228  11.290   2.358   3.043  2.9129 -0.0319 -1.1836
  217MOL0     H29229  11.530   2.344   3.053  1.2135 -0.0686  0.4651
  217MOL0     H29230  11.736   2.274   3.185  1.4264 -0.7956  0.3525
  217MOL0     H29231  11.772   2.402   3.074 -2.6095 -2.9985 -0.3966
  217MOL0     H29232  11.917   2.404   3.339  1.4831 -0.6988  0.1142
  217MOL0     H29233  11.947   2.486   3.195 -0.8008 -0.6278 -0.7274
  217MOL0     H29234  11.967   2.249   3.093 -2.7287  2.5572  0.7686
  217MOL0     H29235  11.989   2.184   3.257 -2.3324  1.1606  1.5047
  217MOL0     H29236  12.158   2.398   3.127  1.5001 -1.5055 -1.6195
  217MOL0     H29237  12.190   2.339   3.297  2.8062  2.3569 -1.3713
  217MOL0     H29238  12.212   2.133   3.237 -0.4022  0.8857  0.8076
  217MOL0     H29239  12.178   2.149   3.058 -2.7293  2.9185 -0.4817
  217MOL0     H29240  12.418   2.108   3.117 -0.4438  0.0653 -0.9131
  217MOL0     H29241  12.397   2.258   3.023  1.2692  1.8724  0.2363
  217MOL0     H29242  12.429   2.372   3.251  2.1102  0.4759  2.6316
  217MOL0     H29243  12.567   2.278   3.201 -0.0277 -2.6742 -0.6079
  217MOL0     H29244  12.485   2.279   3.441 -1.9454  2.1283 -1.5341
  217MOL0     H29245  12.374   2.148   3.403 -1.3953  0.1412 -2.5762
  217MOL0     H29246  12.721   2.165   3.491 -2.3043 -0.6585  0.3975
  217MOL0     H29247  12.927   1.896   3.305  0.0610  0.9467  0.0484
  217MOL0     H29248  12.961   2.050   3.372 -1.5906  1.1924  1.1717
  217MOL0     H29249  12.920   1.941   3.613  1.7437  2.0414 -0.7355
  217MOL0     H29250  12.860   1.806   3.524  0.6745 -1.4859 -3.5030
  217MOL0     H29251  13.143   1.935   3.480 -1.6577 -1.0028 -3.1412
  217MOL0     H29252  13.094   1.780   3.428  0.4101  1.9694 -1.2814
  217MOL0     H29253  13.064   1.725   3.673  1.3320 -0.0090 -1.1261
  217MOL0     H29254  13.100   1.889   3.715  2.9960  1.2309  0.4170
  217MOL0     H29255  13.169   1.821   3.900 -0.6723 -1.5815 -1.9729
  217MOL0     H29256  13.313   1.886   4.100  2.7038  0.9268  0.5940
  217MOL0     H29257  13.955   1.904   4.067 -0.0653  0.1248 -1.2223
  217MOL0     H29258  14.137   1.928   4.237 -0.4341 -1.3635  0.6932
  217MOL0     H29259  14.009   2.021   4.666 -1.1438  0.6506 -3.2302
  217MOL0     H29260  14.117   1.892   4.650  1.9643  0.4976 -0.2814
  217MOL0     H29261  14.187   2.185   4.663 -0.3545 -0.0860 -1.6488
  217MOL0     H29262  14.194   2.058   4.793 -0.5860  4.0888  0.0990
  217MOL0     H29263  14.349   2.032   4.527  1.9848  0.1355  0.1969
  217MOL0     H29264  14.409   2.144   4.652 -0.5209 -0.4257  2.0874
  217MOL0     H29265  14.342   1.872   4.764  0.0140 -0.2919  1.3795
  217MOL0     H29266  14.496   1.951   4.776  0.5876  0.9807 -0.3447
  217MOL0     H29267  14.541   1.922   4.548 -1.7721 -0.4160 -1.9381
  217MOL0     H29268  14.421   1.811   4.519  1.6429 -1.3691 -0.2329
  217MOL0     H29269  14.641   1.700   4.575  0.2106 -2.5847  0.8378
  217MOL0     H29270  14.650   1.781   4.718 -0.3897 -1.8401  1.7912
  217MOL0     H29271  14.377   1.640   4.697  0.2213  1.0536 -1.0950
  217MOL0     H29272  14.500   1.644   4.822  1.3575  0.4051 -1.0216
  217MOL0     H29273  14.475   1.414   4.761  2.1430 -1.7244 -0.3955
  217MOL0     H29274  14.502   1.456   4.593  1.2118  0.4561 -0.4697
  217MOL0     H29275  13.840   1.944   4.551  0.6609  0.8931 -0.4585
  217MOL0     H29276  13.667   1.882   4.383 -0.9126 -3.0427 -2.8074
  217MOL0     H29277  13.661   1.771   3.881  0.2722  0.1555 -0.0751
  217MOL0     H29278  13.518   1.721   3.675 -0.9427  0.9979 -1.0267
  217MOL0     H29279  11.513   2.563   3.430  0.7127 -0.5392  0.8351
  217MOL0     H29280  11.305   2.598   3.407  2.0820  2.9749 -1.2493
  217MOL0     H29281  10.896   2.415   3.189  2.6933  1.4051  0.6318
  217MOL0     H29282  10.658   2.420   3.176  0.4924 -2.6897 -1.0996
  217MOL0     H29283  10.453   2.453   3.151 -1.0226  0.0214 -1.1224
  217MOL0     H29284  10.334   2.559   3.119 -0.7055  2.8631  2.1184
  217MOL0     H29285  10.526   2.672   3.327  1.4292 -0.2640 -0.4829
  217MOL0     H29286  10.451   2.509   3.359  2.0476 -0.9163 -2.2073
  217MOL0     H29287  10.234   2.621   3.305 -0.4932 -0.9981  0.9710
  217MOL0     H29288  10.313   2.772   3.275 -3.0781 -1.3200 -1.3833
  217MOL0     H29289  10.395   2.748   3.514  0.5070 -0.9583 -2.7121
  217MOL0     H29290  10.216   2.788   3.509  0.3768  0.0947  2.8592
  217MOL0     H29291  10.219   2.408   3.712 -2.3032  0.6341 -0.3215
  217MOL0     H29292  10.682   2.823   3.005 -1.9517 -0.9176 -0.4524
  217MOL0     H29293  11.018   2.834   2.954 -1.5004 -1.0635 -0.9502
  217MOL0     H29294  10.870   2.935   2.971  0.1607  1.0358  0.8640
  217MOL0     H29295  10.983   2.923   3.105 -0.5040  3.1106 -1.0080
  218MOL0     O29296   2.443   1.897   4.789 -0.4701  0.1713  0.1476
  218MOL0     C29297   2.375   1.860   4.881  0.1962  0.3558  0.3121
  218MOL0     O29298   2.430   1.808   4.994  0.3938  0.6083 -0.2490
  218MOL0     C29299   2.556   1.756   4.990  0.7936  0.1664  1.3263
  218MOL0     C29300   2.578   1.613   4.996  0.0763 -0.2477  0.1610
  218MOL0     C29301   2.711   1.563   4.998 -0.9030  0.8342 -0.1446
  218MOL0     C29302   2.819   1.656   5.004  0.7186 -0.4273  0.1822
  218MOL0     O29303   2.943   1.619   5.022 -0.9654  0.0127 -0.0409
  218MOL0     C29304   2.968   1.488   5.063  0.0934  0.2353 -0.3493
  218MOL0     C29305   3.107   1.480   5.108 -0.7432  0.0717 -0.2477
  218MOL0     C29306   3.131   1.569   5.232 -0.0691 -0.2152 -0.1073
  218MOL0     C29307   3.259   1.550   5.310  0.0936 -0.3366  1.4897
  218MOL0     C29308   3.335   1.683   5.350  0.5912  0.4501 -0.1553
  218MOL0     C29309   3.444   1.665   5.454  0.4977 -0.1427  0.1721
  218MOL0     C29310   3.580   1.609   5.396 -0.3191  0.0193 -0.4197
  218MOL0     C29311   3.695   1.594   5.500 -0.1734 -0.4307  0.3568
  218MOL0     N29312   3.773   1.469   5.488 -0.9772  0.4237  1.1294
  218MOL0     C29313   3.858   1.425   5.387  0.0375 -0.0278  0.5921
  218MOL0     C29314   3.914   1.310   5.435  0.7183 -0.0621 -0.8952
  218MOL0     C29315   4.010   1.227   5.358  0.8806  0.8473  0.6144
  218MOL0     C29316   4.149   1.277   5.369 -0.2503  0.3493 -0.1330
  218MOL0     C29317   4.239   1.179   5.307 -0.6538 -0.2562  0.1989
  218MOL0     C29318   4.379   1.158   5.361  0.7665 -0.5416 -0.2246
  218MOL0     O29319   4.458   1.058   5.293 -0.2599  0.3913 -0.7755
  218MOL0     C29320   4.591   1.039   5.338  0.3463 -0.0807  0.0080
  218MOL0     C29321   4.656   0.943   5.265 -0.3921  0.3404 -0.0934
  218MOL0     C29322   4.801   0.926   5.294 -0.3711  0.2979  0.2300
  218MOL0     C29323   4.861   0.991   5.400  0.2617 -0.4186  0.4289
  218MOL0     C29324   5.011   0.982   5.419  0.1290  0.5344 -0.6675
  218MOL0     O29325   5.071   0.879   5.356 -0.8310  0.6344 -0.3618
  218MOL0     C29326   5.206   0.887   5.335  0.3488  0.0959  0.0847
  218MOL0     C29327   5.287   0.823   5.425 -0.0570  0.1860 -0.1127
  218MOL0     C29328   5.423   0.833   5.412  0.5567 -0.7959  0.1571
  218MOL0     C29329   5.485   0.921   5.323  0.4127  0.6386  0.3200
  218MOL0     O29330   5.620   0.912   5.307 -0.4220  0.5027  0.3752
  218MOL0     C29331   5.691   1.032   5.310 -0.2068  0.1464  0.9123
  218MOL0     C29332   5.836   0.978   5.288  0.0314  0.1300 -0.7009
  218MOL0     C29333   5.936   1.084   5.281 -1.2651 -0.5191  0.2854
  218MOL0     C29334   6.055   1.018   5.220  0.0494  0.3699 -0.2487
  218MOL0     C29335   6.180   1.095   5.254  0.2094  0.3347  0.3955
  218MOL0     C29336   6.294   1.049   5.162 -0.1235 -0.2070  0.6699
  218MOL0     C29337   6.410   1.145   5.204 -0.9525 -0.4833  0.7273
  218MOL0     C29338   6.540   1.099   5.156 -0.5578 -1.1072 -0.0197
  218MOL0    Cl29339   6.576   1.128   4.984 -0.0290 -0.3897  0.2605
  218MOL0     C29340   5.410   0.985   5.226 -0.1448 -0.2139 -0.4046
  218MOL0     C29341   5.271   0.963   5.238  0.5433 -0.6278 -0.0750
  218MOL0     O29342   5.062   1.074   5.484  0.4732  0.6408  0.3248
  218MOL0     C29343   4.782   1.068   5.479  0.0163  0.1999  0.0461
  218MOL0     C29344   4.645   1.096   5.450 -0.8935  0.3213 -0.2298
  218MOL0     N29345   3.851   1.280   5.557 -0.9699  0.4353  0.0830
  218MOL0     N29346   3.773   1.376   5.584  0.3910 -0.3193  0.1442
  218MOL0     C29347   2.795   1.795   4.996 -0.2706  0.3265  0.9423
  218MOL0     C29348   2.661   1.847   4.999 -0.3814  0.8457  0.3172
  218MOL0     C29349   2.230   1.885   4.875  0.4161  0.1131 -0.5959
  218MOL0     C29350   2.153   1.814   4.974 -0.3979  0.2262 -0.0500
  218MOL0     C29351   2.019   1.827   4.982 -0.2848  0.2190  0.4069
  218MOL0     C29352   1.950   1.922   4.905  0.2390  0.1919  0.1548
  218MOL0     O29353   1.813   1.944   4.911  1.1297 -1.0976 -0.3835
  218MOL0     C29354   1.746   1.906   5.029  0.4682 -0.0542  0.8593
  218MOL0     C29355   1.795   1.982   5.151  0.2829 -0.6734  0.2818
  218MOL0     C29356   1.743   2.125   5.119 -0.4224 -0.8084  0.1602
  218MOL0     C29357   1.847   2.205   5.037 -0.0578 -0.2048  0.6457
  218MOL0     C29358   1.848   2.348   5.067 -0.3651  0.5135 -0.0453
  218MOL0     C29359   1.852   2.471   5.086 -0.2000 -0.9816  0.0878
  218MOL0     C29360   2.023   1.989   4.805  0.0731  0.0500  0.0800
  218MOL0     C29361   2.160   1.958   4.776  0.4717 -0.9118 -0.8501
  218MOL0     C29362   2.221   2.030   4.660  0.0239  0.6330 -0.2061
  218MOL0     H29363   2.490   1.549   4.999  1.1315 -1.7470  0.4861
  218MOL0     H29364   2.728   1.458   5.017  2.7672  1.5774  1.5087
  218MOL0     H29365   2.908   1.469   5.152  4.0490 -0.1818  2.5116
  218MOL0     H29366   2.955   1.416   4.981 -0.0799  0.9158 -0.9340
  218MOL0     H29367   3.180   1.494   5.028 -0.5795 -4.4348 -1.1580
  218MOL0     H29368   3.120   1.374   5.133 -0.1749  0.1674 -0.1307
  218MOL0     H29369   3.051   1.555   5.304 -0.7528 -1.7471 -1.1114
  218MOL0     H29370   3.118   1.672   5.195 -2.9725 -1.1969 -2.2249
  218MOL0     H29371   3.236   1.482   5.392 -1.2226 -0.8906  0.6978
  218MOL0     H29372   3.316   1.498   5.232 -1.9895 -1.2105  0.4727
  218MOL0     H29373   3.365   1.730   5.256  0.6804 -0.9170 -0.8344
  218MOL0     H29374   3.260   1.752   5.390 -0.5221 -0.6810 -0.2314
  218MOL0     H29375   3.459   1.756   5.513 -0.9585 -0.7700  1.6159
  218MOL0     H29376   3.409   1.593   5.529 -1.0063 -0.5204 -0.8348
  218MOL0     H29377   3.611   1.674   5.313  2.0224 -0.8189 -0.2898
  218MOL0     H29378   3.562   1.504   5.370 -0.8925  0.2176 -0.8398
  218MOL0     H29379   3.761   1.677   5.475 -0.1951  0.0045  1.6525
  218MOL0     H29380   3.655   1.607   5.601  0.2245  2.9347  0.1999
  218MOL0     H29381   3.874   1.473   5.291 -0.0076  1.4605  1.2970
  218MOL0     H29382   3.996   1.124   5.392  2.0633  0.6625  0.5881
  218MOL0     H29383   3.976   1.234   5.255 -1.7846  3.6480  1.5433
  218MOL0     H29384   4.167   1.379   5.334 -2.9973  1.5900  1.7275
  218MOL0     H29385   4.166   1.284   5.477 -2.0509  0.5692  0.1520
  218MOL0     H29386   4.258   1.205   5.203  1.5210 -2.2269  0.0388
  218MOL0     H29387   4.193   1.080   5.312 -1.5684 -0.0742 -2.8770
  218MOL0     H29388   4.367   1.128   5.466  0.2969 -2.8464 -0.8892
  218MOL0     H29389   4.426   1.257   5.355  1.4062 -0.7866  0.6059
  218MOL0     H29390   4.611   0.893   5.180 -2.2803  0.5808  0.7247
  218MOL0     H29391   4.844   0.845   5.237  1.4961  0.7915  0.8630
  218MOL0     H29392   5.253   0.758   5.505 -1.1310 -1.1026 -1.5635
  218MOL0     H29393   5.484   0.764   5.469  1.1061 -2.3309 -2.1626
  218MOL0     H29394   5.663   1.105   5.234 -3.4619  0.9481  2.6651
  218MOL0     H29395   5.683   1.080   5.408 -2.5779  1.4073  0.1979
  218MOL0     H29396   5.862   0.923   5.379 -3.7437  0.6645  0.9164
  218MOL0     H29397   5.848   0.912   5.203  2.1996 -1.8537  1.0112
  218MOL0     H29398   5.912   1.170   5.219  0.5916 -0.3243 -0.2146
  218MOL0     H29399   5.955   1.113   5.385 -2.0375 -3.1277  1.2446
  218MOL0     H29400   6.039   0.993   5.115 -1.0204 -0.9364  0.1955
  218MOL0     H29401   6.063   0.919   5.267 -3.4283 -0.2487 -0.7141
  218MOL0     H29402   6.196   1.093   5.362 -0.5351 -1.3251  0.5030
  218MOL0     H29403   6.156   1.199   5.230 -0.5408  0.0428 -0.1582
  218MOL0     H29404   6.321   0.944   5.177 -2.4487 -1.2910 -1.8697
  218MOL0     H29405   6.276   1.072   5.056 -1.2098 -1.6458  0.5117
  218MOL0     H29406   6.422   1.158   5.312 -1.7530  1.2583  0.6347
  218MOL0     H29407   6.388   1.243   5.161  1.6140 -1.4458 -3.3510
  218MOL0     H29408   6.619   1.156   5.206 -0.5543  0.4883 -1.7448
  218MOL0     H29409   6.532   0.991   5.174 -1.4179 -1.1867 -0.8173
  218MOL0     H29410   5.449   1.038   5.139  0.6106 -0.6903 -0.3712
  218MOL0     H29411   5.211   1.016   5.165 -1.0211 -0.4028  1.3047
  218MOL0     H29412   4.829   1.117   5.564 -1.9914  0.2116  1.2007
  218MOL0     H29413   4.600   1.158   5.527  0.2294 -1.7050  2.1726
  218MOL0     H29414   2.878   1.866   4.998  0.2679 -0.2608  3.9820
  218MOL0     H29415   2.644   1.954   4.997  0.0774  0.9212 -1.5369
  218MOL0     H29416   2.203   1.741   5.036 -2.5106 -1.5482 -0.2838
  218MOL0     H29417   1.959   1.770   5.052 -1.8582 -0.3833 -1.3387
  218MOL0     H29418   1.766   1.800   5.041  5.5232  0.3926 -1.0849
  218MOL0     H29419   1.638   1.920   5.013  0.3470 -2.1602 -0.5772
  218MOL0     H29420   1.904   1.984   5.166  0.2879 -1.1857  0.3372
  218MOL0     H29421   1.736   1.966   5.242 -0.5655  2.1459  0.2997
  218MOL0     H29422   1.734   2.179   5.215 -3.1093  0.3830 -0.6617
  218MOL0     H29423   1.638   2.136   5.091 -0.0606  1.4716 -0.5805
  218MOL0     H29424   1.943   2.163   5.068 -0.5764 -0.4135  2.0830
  218MOL0     H29425   1.835   2.200   4.929  3.5084 -0.6727  0.1563
  218MOL0     H29426   1.846   2.578   5.087  1.1883 -0.8632 -1.0138
  218MOL0     H29427   1.964   2.056   4.743  1.3426  0.3942 -0.8118
  218MOL0     H29428   2.140   2.089   4.616 -0.8706 -1.0746 -0.9444
  218MOL0     H29429   2.298   2.096   4.700  1.9738 -0.2587 -2.3059
  218MOL0     H29430   2.253   1.964   4.580 -3.5062 -0.3776 -0.9553
  219MOL0     O29431  10.806   0.293   5.047 -0.1533 -0.5734 -0.6051
  219MOL0     C29432  10.769   0.381   4.971  0.1452 -0.7604 -0.2033
  219MOL0     O29433  10.826   0.422   4.850 -0.2497  0.4414  0.0245
  219MOL0     C29434  10.960   0.406   4.833  0.5299 -0.1964 -0.6529
  219MOL0     C29435  11.057   0.424   4.933 -0.5079  0.2498  0.4443
  219MOL0     C29436  11.192   0.418   4.912 -0.0646  0.0552 -0.4351
  219MOL0     C29437  11.238   0.416   4.780  0.3283  0.3833  0.4592
  219MOL0     O29438  11.372   0.417   4.774 -0.5058  0.4325 -0.2450
  219MOL0     C29439  11.429   0.396   4.641 -0.0287 -0.6133 -0.8558
  219MOL0     C29440  11.580   0.423   4.622 -0.3667  0.6252  0.6462
  219MOL0     C29441  11.669   0.340   4.701 -0.0379  0.0004  0.4757
  219MOL0     C29442  11.818   0.346   4.657  0.8094  0.3772  0.1226
  219MOL0     C29443  11.895   0.231   4.723 -0.3085 -0.6772  0.0673
  219MOL0     C29444  12.047   0.254   4.726 -0.1026  0.0711 -0.5402
  219MOL0     C29445  12.143   0.148   4.790 -0.1039  0.5619 -0.4733
  219MOL0     C29446  12.156   0.022   4.700 -0.1739 -0.2943 -0.4135
  219MOL0     N29447  12.255  -0.077   4.749 -0.3357 -0.1421  0.5735
  219MOL0     C29448  12.389  -0.075   4.713  0.4566 -1.1788 -0.4776
  219MOL0     C29449  12.444  -0.150   4.811 -0.1103 -0.5235  0.5970
  219MOL0     C29450  12.595  -0.176   4.818  0.0554 -0.7976 -0.1310
  219MOL0     C29451  12.635  -0.301   4.901 -0.2431  0.5928  0.0756
  219MOL0     C29452  12.654  -0.259   5.051 -0.1330 -0.1952 -0.2979
  219MOL0     C29453  12.748  -0.136   5.071  0.1781 -0.4939  0.4717
  219MOL0     O29454  12.869  -0.145   5.001  0.4249 -0.3279 -0.0490
  219MOL0     C29455  12.983  -0.219   5.053  0.5568  0.1760  0.4210
  219MOL0     C29456  12.977  -0.271   5.185  0.2969  0.6317  0.5059
  219MOL0     C29457  13.076  -0.355   5.230  0.3119  0.1843  0.5963
  219MOL0     C29458  13.187  -0.371   5.143  0.2411  0.6334 -1.0581
  219MOL0     C29459  13.301  -0.441   5.190  0.1941 -0.5172  0.3317
  219MOL0     O29460  13.357  -0.535   5.111 -0.1152  0.1741 -0.4443
  219MOL0     C29461  13.476  -0.586   5.151 -0.4049 -0.5486 -0.3825
  219MOL0     C29462  13.488  -0.717   5.206 -0.6506 -0.7072  0.4215
  219MOL0     C29463  13.616  -0.765   5.253  0.9960 -1.2770 -0.3855
  219MOL0     C29464  13.732  -0.682   5.245 -0.6337 -0.0176  0.1466
  219MOL0     O29465  13.855  -0.728   5.283  0.3042 -0.4972  0.3624
  219MOL0     C29466  13.878  -0.796   5.407  0.5022  0.2154 -0.6927
  219MOL0     C29467  14.025  -0.791   5.444  0.2743  0.2844  0.2865
  219MOL0     C29468  14.100  -0.863   5.336 -0.6501  0.4834 -0.0620
  219MOL0     C29469  14.243  -0.876   5.387 -0.0562 -0.8917  0.2825
  219MOL0     C29470  14.326  -0.981   5.321  0.0364  0.1278  0.2983
  219MOL0     C29471  14.474  -0.973   5.364  0.3906 -0.6675  0.0890
  219MOL0     C29472  14.496  -0.960   5.521  0.3873  0.1400  0.1959
  219MOL0     C29473  14.647  -0.972   5.545  0.2667  0.1839 -0.4517
  219MOL0    Cl29474  14.735  -0.834   5.479  0.4707  0.2347  0.3294
  219MOL0     C29475  13.720  -0.556   5.191 -0.3754 -0.2997  0.8164
  219MOL0     C29476  13.600  -0.499   5.143  0.0484  0.0851 -0.5980
  219MOL0     O29477  13.336  -0.418   5.300 -0.2766 -0.7778 -0.0435
  219MOL0     C29478  13.190  -0.329   5.010  0.1581 -0.0649  0.7847
  219MOL0     C29479  13.081  -0.253   4.959 -0.5160  0.7817 -0.3635
  219MOL0     N29480  12.350  -0.188   4.908 -0.2687 -0.1385  0.2133
  219MOL0     N29481  12.243  -0.149   4.864  0.2529  0.0130 -0.3408
  219MOL0     C29482  11.146   0.400   4.672  0.1726  0.0457  0.0093
  219MOL0     C29483  11.008   0.395   4.709 -0.2072  0.1574  0.5142
  219MOL0     C29484  10.647   0.463   5.006  0.4637 -0.0627  0.3782
  219MOL0     C29485  10.608   0.576   4.917 -0.3899  0.1225 -0.9086
  219MOL0     C29486  10.486   0.641   4.932 -0.5822 -0.5963 -1.0043
  219MOL0     C29487  10.404   0.616   5.041  0.3942 -0.2372  0.7699
  219MOL0     O29488  10.295   0.694   5.062  0.8862 -0.0261 -0.3536
  219MOL0     C29489  10.241   0.720   5.193 -0.5151 -0.3674  0.4453
  219MOL0     C29490  10.163   0.846   5.197  1.0411 -0.4176  0.0315
  219MOL0     C29491  10.068   0.846   5.321  0.1003  0.3531 -0.6465
  219MOL0     C29492  10.122   0.940   5.435  0.2721 -0.3286  0.4303
  219MOL0     C29493  10.126   1.080   5.389 -0.2065 -0.5305 -0.1630
  219MOL0     C29494  10.117   1.201   5.368  0.2589  0.1675  1.3973
  219MOL0     C29495  10.436   0.498   5.121 -1.2091 -0.5250  0.3684
  219MOL0     C29496  10.548   0.417   5.100 -0.5521  0.4028 -0.9469
  219MOL0     C29497  10.547   0.281   5.169  0.9856  0.2032 -0.1184
  219MOL0     H29498  11.039   0.441   5.039 -0.4912  0.6185  0.3884
  219MOL0     H29499  11.253   0.431   5.000  0.4229  0.6798 -0.8559
  219MOL0     H29500  11.401   0.294   4.612 -2.8263 -0.6893  1.6159
  219MOL0     H29501  11.381   0.465   4.571 -0.2174 -1.0794 -1.1959
  219MOL0     H29502  11.602   0.528   4.644  0.5169  0.5109  0.3510
  219MOL0     H29503  11.605   0.409   4.516 -2.4432 -0.6990  0.2528
  219MOL0     H29504  11.639   0.238   4.677  1.3004 -0.4431  0.5899
  219MOL0     H29505  11.654   0.356   4.808 -0.7354 -0.0333  0.3847
  219MOL0     H29506  11.820   0.330   4.549 -0.6083 -2.1617  0.4016
  219MOL0     H29507  11.863   0.442   4.687 -0.4262  1.5150 -1.5066
  219MOL0     H29508  11.849   0.212   4.820 -2.3963 -3.0527 -1.2651
  219MOL0     H29509  11.882   0.144   4.658  0.4475  0.7887 -2.1953
  219MOL0     H29510  12.089   0.277   4.628 -1.0528 -0.8384 -1.1768
  219MOL0     H29511  12.066   0.334   4.798 -0.3566  1.9261 -2.4360
  219MOL0     H29512  12.108   0.123   4.890  1.8546  1.7719  0.5905
  219MOL0     H29513  12.245   0.188   4.800  0.9574 -2.1471  0.4102
  219MOL0     H29514  12.060  -0.028   4.684 -0.2280 -0.0100 -0.9994
  219MOL0     H29515  12.201   0.047   4.604  2.8773  0.0733  1.0069
  219MOL0     H29516  12.436  -0.017   4.635  3.2167 -2.1464  0.3682
  219MOL0     H29517  12.631  -0.214   4.722 -2.8646 -2.1232 -0.8274
  219MOL0     H29518  12.640  -0.081   4.846  0.8143  0.5297 -5.0070
  219MOL0     H29519  12.557  -0.377   4.893  2.7175 -3.1031  2.4302
  219MOL0     H29520  12.725  -0.343   4.855 -1.2501  1.4973 -2.9643
  219MOL0     H29521  12.698  -0.340   5.111 -1.4714 -0.0343  0.9644
  219MOL0     H29522  12.562  -0.224   5.097 -0.6457  1.7052 -2.6050
  219MOL0     H29523  12.766  -0.109   5.175 -0.5970  4.3671 -0.4057
  219MOL0     H29524  12.699  -0.045   5.034  0.3465 -1.0780 -1.3021
  219MOL0     H29525  12.900  -0.247   5.258 -0.0772  1.6318 -0.2133
  219MOL0     H29526  13.067  -0.400   5.328  1.4757 -1.7921 -0.1549
  219MOL0     H29527  13.403  -0.784   5.209 -0.8941 -0.4336 -0.2293
  219MOL0     H29528  13.630  -0.856   5.311 -0.1626 -1.4375 -0.3301
  219MOL0     H29529  13.820  -0.754   5.490  0.5334 -1.9306  0.4890
  219MOL0     H29530  13.849  -0.900   5.390  0.8059  0.0768 -0.3706
  219MOL0     H29531  14.054  -0.686   5.449 -0.6277  0.6857 -1.7644
  219MOL0     H29532  14.039  -0.842   5.539 -0.6630 -1.9595 -0.6993
  219MOL0     H29533  14.069  -0.963   5.306  1.0687  0.0432 -0.4848
  219MOL0     H29534  14.088  -0.808   5.242 -0.2295 -2.2540 -1.8386
  219MOL0     H29535  14.249  -0.891   5.495  1.3259 -2.5890  0.0115
  219MOL0     H29536  14.305  -0.788   5.366 -0.8165 -0.6208 -0.9083
  219MOL0     H29537  14.321  -0.967   5.213  1.8570 -0.8479  0.0490
  219MOL0     H29538  14.291  -1.079   5.355  0.2337  0.5904  1.9064
  219MOL0     H29539  14.519  -1.065   5.323 -0.5356  0.1563 -3.0677
  219MOL0     H29540  14.529  -0.887   5.326  0.7108  0.3582  2.6734
  219MOL0     H29541  14.439  -1.040   5.568 -1.8977  0.1055 -2.4283
  219MOL0     H29542  14.467  -0.865   5.567  0.2989 -1.0403  2.7452
  219MOL0     H29543  14.655  -0.967   5.654 -0.4248  1.3666 -0.4352
  219MOL0     H29544  14.695  -1.062   5.505  0.2095  0.0943 -0.3140
  219MOL0     H29545  13.810  -0.497   5.197  0.6924 -1.9411  1.6922
  219MOL0     H29546  13.605  -0.393   5.120  2.3485  0.2664  0.4613
  219MOL0     H29547  13.278  -0.341   4.948 -1.9250 -0.6884 -2.2615
  219MOL0     H29548  13.070  -0.214   4.858 -1.9939 -2.4666 -1.6109
  219MOL0     H29549  11.182   0.383   4.571  0.7532  1.0243  0.0458
  219MOL0     H29550  10.933   0.402   4.631 -0.6402  4.7489  1.0999
  219MOL0     H29551  10.668   0.603   4.831  0.3555  1.3284 -0.0470
  219MOL0     H29552  10.458   0.724   4.869  0.5322  0.3100 -0.3341
  219MOL0     H29553  10.328   0.722   5.258 -0.3761 -0.6669  0.2704
  219MOL0     H29554  10.183   0.629   5.211  0.2751 -0.6081  1.9715
  219MOL0     H29555  10.104   0.853   5.104  1.6330 -0.3602 -0.3447
  219MOL0     H29556  10.235   0.927   5.208  2.6011 -1.7028 -0.4263
  219MOL0     H29557  10.048   0.748   5.365  2.1659  0.5593  0.9154
  219MOL0     H29558   9.971   0.888   5.292 -0.8130  0.6047  2.4835
  219MOL0     H29559  10.057   0.935   5.523  1.0393  0.6749  1.0818
  219MOL0     H29560  10.223   0.899   5.450  0.1548 -1.1733 -0.8914
  219MOL0     H29561  10.117   1.308   5.366 -2.2197  0.2346 -0.4980
  219MOL0     H29562  10.370   0.477   5.205 -1.1347 -1.2794  0.2430
  219MOL0     H29563  10.474   0.258   5.248  1.1766 -0.2020 -0.0567
  219MOL0     H29564  10.534   0.208   5.088 -1.4066  1.4467 -0.9646
  219MOL0     H29565  10.639   0.260   5.223  1.5102  1.1662 -0.6177
  220MOL0     O29566   8.029   3.072   4.807  0.5618  0.1506 -0.5903
  220MOL0     C29567   7.986   3.191   4.802  0.7841  0.5703  0.2336
  220MOL0     O29568   8.052   3.312   4.819  0.0063  1.0747  0.0581
  220MOL0     C29569   8.185   3.313   4.818 -0.2558 -0.5277  0.5164
  220MOL0     C29570   8.247   3.394   4.919 -0.1951  0.0527  0.3541
  220MOL0     C29571   8.386   3.380   4.939 -0.7723  0.3507 -0.3437
  220MOL0     C29572   8.464   3.294   4.860  1.1296 -0.1920  0.5460
  220MOL0     O29573   8.601   3.276   4.859  0.0144  0.4399 -0.1770
  220MOL0     C29574   8.674   3.343   4.956  0.8002  0.7742 -0.9359
  220MOL0     C29575   8.827   3.337   4.918 -0.3353 -0.4635  0.0978
  220MOL0     C29576   8.878   3.193   4.946 -0.4283  0.5038 -0.9932
  220MOL0     C29577   9.013   3.148   4.881  0.2727 -1.1271 -0.3321
  220MOL0     C29578   9.143   3.179   4.954 -0.0538 -0.0189  0.4175
  220MOL0     C29579   9.265   3.125   4.881  0.2464  0.4129 -0.5447
  220MOL0     C29580   9.398   3.129   4.965 -0.6903 -0.4389 -0.0714
  220MOL0     C29581   9.515   3.157   4.871 -0.4025 -0.5298  0.0894
  220MOL0     N29582   9.646   3.179   4.938 -0.1763  0.1586  0.6391
  220MOL0     C29583   9.691   3.300   5.002  0.6940  0.2389  0.4186
  220MOL0     C29584   9.796   3.255   5.077 -0.1556 -0.5878  0.5942
  220MOL0     C29585   9.912   3.334   5.141  0.5415 -0.1939 -0.5660
  220MOL0     C29586   9.863   3.452   5.234  0.3786  0.9067  0.7554
  220MOL0     C29587   9.975   3.546   5.277  0.8178 -0.3388 -0.3372
  220MOL0     C29588  10.081   3.480   5.368  0.4239  0.1723  0.1040
  220MOL0     O29589  10.189   3.568   5.401  0.0490 -0.4903 -0.0053
  220MOL0     C29590  10.307   3.526   5.458 -0.9739 -0.2082 -0.4524
  220MOL0     C29591  10.324   3.393   5.508  0.7994 -1.1135 -0.1278
  220MOL0     C29592  10.452   3.358   5.555  0.1875  0.9046  0.3054
  220MOL0     C29593  10.565   3.442   5.553 -0.1836 -0.0009 -0.2364
  220MOL0     C29594  10.696   3.396   5.592 -0.7589  0.4931 -0.1490
  220MOL0     O29595  10.800   3.479   5.630  0.2648 -0.2220 -0.2721
  220MOL0     C29596  10.923   3.430   5.667 -1.0704  0.0608  0.1925
  220MOL0     C29597  10.983   3.323   5.600  0.0432 -0.4391  0.0706
  220MOL0     C29598  11.096   3.263   5.646 -0.0639 -0.2611 -0.5994
  220MOL0     C29599  11.173   3.312   5.759 -0.0599 -0.1056  0.3243
  220MOL0     O29600  11.287   3.242   5.800 -0.3731 -0.3284 -0.8337
  220MOL0     C29601  11.333   3.254   5.934 -0.3686  0.4256 -0.2413
  220MOL0     C29602  11.481   3.202   5.949  0.6161  1.0562 -0.2079
  220MOL0     C29603  11.581   3.289   5.873 -0.4649 -0.7718 -1.4671
  220MOL0     C29604  11.719   3.232   5.884 -0.0146  0.3709 -0.3520
  220MOL0     C29605  11.807   3.322   5.798 -0.0330 -0.1467  0.2084
  220MOL0     C29606  11.855   3.451   5.857 -0.3068 -0.1204 -0.3539
  220MOL0     C29607  11.963   3.506   5.765  0.1021  0.0819  0.1245
  220MOL0     C29608  12.059   3.606   5.838  0.1540  0.9483 -0.2246
  220MOL0    Cl29609  12.195   3.634   5.734 -0.1084 -0.0806  0.3053
  220MOL0     C29610  11.122   3.438   5.820 -0.2291  0.5945 -0.2463
  220MOL0     C29611  10.992   3.484   5.785  0.1732  0.2717  0.7200
  220MOL0     O29612  10.703   3.270   5.598  0.1141 -0.3389 -0.3816
  220MOL0     C29613  10.539   3.569   5.504 -0.0268  0.0344 -0.0752
  220MOL0     C29614  10.416   3.612   5.463 -0.9438 -0.1998  0.5961
  220MOL0     N29615   9.811   3.115   5.053  0.4101 -0.5836 -0.9179
  220MOL0     N29616   9.719   3.070   4.975 -0.7139  0.8653 -0.3070
  220MOL0     C29617   8.399   3.220   4.764  0.2940  0.6377 -0.3636
  220MOL0     C29618   8.266   3.229   4.744 -0.0887  0.0566  0.0226
  220MOL0     C29619   7.843   3.200   4.801 -0.0384 -0.3997 -0.2587
  220MOL0     C29620   7.793   3.298   4.721  0.1096 -0.3464  0.1284
  220MOL0     C29621   7.649   3.319   4.711 -0.9644  0.2102 -0.5072
  220MOL0     C29622   7.562   3.232   4.786  0.0829  0.5623 -0.0764
  220MOL0     O29623   7.429   3.239   4.810 -0.4504 -0.5109  0.6391
  220MOL0     C29624   7.356   3.355   4.773  0.6253 -0.6345 -1.3516
  220MOL0     C29625   7.269   3.414   4.877 -0.1957 -0.1258 -0.1079
  220MOL0     C29626   7.164   3.315   4.935 -0.3176  0.1491  0.1038
  220MOL0     C29627   7.086   3.241   4.830  0.6163 -0.1734 -0.1240
  220MOL0     C29628   7.013   3.339   4.751  0.6063  0.4488 -0.2388
  220MOL0     C29629   6.953   3.429   4.694  0.5522 -0.3299 -0.3550
  220MOL0     C29630   7.624   3.138   4.864  0.6061  0.8449 -0.7936
  220MOL0     C29631   7.758   3.127   4.884 -0.1171  0.1224 -0.4718
  220MOL0     C29632   7.810   3.026   4.982  0.3689  0.4937  0.0883
  220MOL0     H29633   8.183   3.468   4.968 -0.2249 -1.0756  2.0892
  220MOL0     H29634   8.441   3.440   5.011  1.0441 -1.2693 -0.2688
  220MOL0     H29635   8.641   3.446   4.975 -2.2580 -0.4040  0.8738
  220MOL0     H29636   8.652   3.304   5.056  1.0706 -1.0787 -1.5605
  220MOL0     H29637   8.888   3.408   4.975 -2.0304  0.5670  0.7080
  220MOL0     H29638   8.841   3.363   4.813 -0.9911  0.9905  0.3455
  220MOL0     H29639   8.806   3.124   4.903  1.6497 -1.8594 -0.9147
  220MOL0     H29640   8.887   3.168   5.052  1.8421  0.2217 -1.1959
  220MOL0     H29641   9.008   3.039   4.874  0.0952 -1.3576  2.2671
  220MOL0     H29642   9.013   3.185   4.778 -2.5593  1.3871  0.4106
  220MOL0     H29643   9.151   3.288   4.967  0.2995  0.1046 -0.7486
  220MOL0     H29644   9.135   3.140   5.056 -2.6768  0.0150  0.3104
  220MOL0     H29645   9.233   3.028   4.843 -3.1070  1.7188 -1.4413
  220MOL0     H29646   9.279   3.185   4.791 -3.0165  0.5084 -1.1236
  220MOL0     H29647   9.410   3.025   4.995 -1.0650 -1.9117 -4.2693
  220MOL0     H29648   9.394   3.200   5.048 -0.0197  0.2664 -0.6253
  220MOL0     H29649   9.523   3.073   4.802  0.3935 -0.4507  0.0699
  220MOL0     H29650   9.501   3.248   4.813  0.8495 -0.7148 -0.5427
  220MOL0     H29651   9.651   3.396   4.971 -1.3736 -0.6152  0.3392
  220MOL0     H29652   9.967   3.262   5.202  1.3775  1.5571  0.8414
  220MOL0     H29653   9.975   3.384   5.067 -0.0212 -1.4619 -1.9615
  220MOL0     H29654   9.796   3.522   5.183 -2.9271 -1.6355  1.3188
  220MOL0     H29655   9.809   3.408   5.318 -0.5263  0.0408 -0.2571
  220MOL0     H29656   9.931   3.626   5.336 -0.0139 -2.9009  2.8080
  220MOL0     H29657  10.027   3.587   5.190 -0.5353  0.5597 -0.7614
  220MOL0     H29658  10.120   3.385   5.330  1.5037  0.8058 -0.4358
  220MOL0     H29659  10.024   3.462   5.459 -0.4045 -1.3104 -0.6731
  220MOL0     H29660  10.245   3.321   5.492  1.0254 -1.5057  0.4798
  220MOL0     H29661  10.457   3.253   5.584  1.5808  0.8652 -0.0178
  220MOL0     H29662  10.938   3.282   5.510  0.7599  1.9983 -1.5149
  220MOL0     H29663  11.138   3.176   5.596 -1.4477 -0.5440 -1.3196
  220MOL0     H29664  11.330   3.358   5.967 -1.8929 -0.1325  1.6213
  220MOL0     H29665  11.266   3.195   5.998  2.6423  0.0588  2.8901
  220MOL0     H29666  11.508   3.199   6.055 -0.0542 -2.8038  0.0058
  220MOL0     H29667  11.480   3.097   5.921  0.8814  0.1138  2.8653
  220MOL0     H29668  11.549   3.313   5.771 -1.3260 -2.0667 -1.5218
  220MOL0     H29669  11.569   3.382   5.930 -1.5087 -1.9748  0.3628
  220MOL0     H29670  11.729   3.128   5.854  1.7464  0.4877 -0.2560
  220MOL0     H29671  11.753   3.233   5.988 -1.0977  1.0671  0.0222
  220MOL0     H29672  11.753   3.348   5.707 -1.0585  1.2586  1.1713
  220MOL0     H29673  11.889   3.254   5.773 -1.9736 -2.9563  0.9643
  220MOL0     H29674  11.775   3.522   5.881 -0.5613 -0.3806 -0.4258
  220MOL0     H29675  11.905   3.425   5.951 -0.5495 -0.3513 -0.2868
  220MOL0     H29676  11.917   3.554   5.678 -0.4464 -2.3694 -1.0239
  220MOL0     H29677  12.005   3.415   5.722  0.8316 -0.6101  2.1514
  220MOL0     H29678  12.002   3.699   5.846 -0.5733  0.5003 -0.0592
  220MOL0     H29679  12.091   3.569   5.936  0.0630 -0.6556 -0.7795
  220MOL0     H29680  11.161   3.489   5.908 -0.8963  2.7650 -1.1488
  220MOL0     H29681  10.962   3.574   5.838  1.5237  1.0836  0.1623
  220MOL0     H29682  10.625   3.634   5.512  1.5342 -1.9849  0.3338
  220MOL0     H29683  10.413   3.710   5.415 -0.0456 -1.7425 -2.9538
  220MOL0     H29684   8.444   3.147   4.698 -3.0069 -2.1265  0.1731
  220MOL0     H29685   8.232   3.176   4.655  1.5403 -1.0413  0.0116
  220MOL0     H29686   7.855   3.358   4.655 -2.0044 -0.2838 -1.9216
  220MOL0     H29687   7.607   3.395   4.646 -4.0651  0.1754  1.2355
  220MOL0     H29688   7.299   3.322   4.686 -1.0262  2.9623 -1.8103
  220MOL0     H29689   7.406   3.451   4.756  0.2054 -0.0886  0.3701
  220MOL0     H29690   7.219   3.495   4.824 -1.3603  0.2754  1.5110
  220MOL0     H29691   7.336   3.446   4.957 -0.7826 -1.0217  0.7745
  220MOL0     H29692   7.101   3.384   4.993  0.7554  1.1172  0.1470
  220MOL0     H29693   7.213   3.243   5.001 -1.2281 -1.6633 -1.0898
  220MOL0     H29694   7.145   3.175   4.765 -0.3241  1.7456 -3.1217
  220MOL0     H29695   7.011   3.180   4.882  0.5894  0.5002  0.6408
  220MOL0     H29696   6.890   3.502   4.646 -2.9609  0.3089  4.4426
  220MOL0     H29697   7.571   3.073   4.933  0.6586  0.9697 -0.6344
  220MOL0     H29698   7.860   3.072   5.067  2.1370  0.3073 -0.7875
  220MOL0     H29699   7.735   2.952   5.011 -0.1443  0.8899 -0.2025
  220MOL0     H29700   7.882   2.959   4.934  0.9183  1.2294 -0.1417
  221MOL0     O29701   5.912   2.677   7.410 -0.5170  0.3826  0.0528
  221MOL0     C29702   5.981   2.621   7.496  0.0811 -0.1333  0.5724
  221MOL0     O29703   6.112   2.650   7.522 -0.6447 -0.3298  0.9279
  221MOL0     C29704   6.182   2.741   7.454  0.4473  0.3269 -0.1432
  221MOL0     C29705   6.218   2.723   7.325  0.3792  0.5339  0.5732
  221MOL0     C29706   6.301   2.809   7.259 -0.3723  0.6435 -0.1475
  221MOL0     C29707   6.372   2.910   7.331 -0.7640 -0.2749 -0.2342
  221MOL0     O29708   6.473   2.991   7.283 -0.1879 -0.1517 -0.9304
  221MOL0     C29709   6.422   3.111   7.229 -0.2037  0.1542  0.2838
  221MOL0     C29710   6.388   3.216   7.344  0.1968 -0.5296  0.2820
  221MOL0     C29711   6.353   3.359   7.287 -0.1839 -0.0619 -0.0856
  221MOL0     C29712   6.452   3.458   7.338  0.5765  0.6899 -1.1706
  221MOL0     C29713   6.426   3.609   7.298 -0.6352  1.1503 -1.1547
  221MOL0     C29714   6.277   3.658   7.315 -0.9085  0.5990  0.5861
  221MOL0     C29715   6.203   3.615   7.439 -0.0932  1.0495  0.3098
  221MOL0     C29716   6.119   3.727   7.507  0.2898 -0.3762  0.2737
  221MOL0     N29717   6.006   3.669   7.574  0.4724  0.1482  0.0607
  221MOL0     C29718   6.007   3.622   7.695  0.4294 -0.0579 -0.2484
  221MOL0     C29719   5.877   3.573   7.721  0.3492 -0.2838  0.1789
  221MOL0     C29720   5.837   3.500   7.839 -0.1897 -0.1131 -0.6583
  221MOL0     C29721   5.869   3.573   7.977 -0.3572 -0.1342 -0.2445
  221MOL0     C29722   5.824   3.481   8.085  0.0710 -0.3338  0.5746
  221MOL0     C29723   5.851   3.543   8.218  0.4311  0.0556 -0.4219
  221MOL0     O29724   5.992   3.587   8.225 -1.1376 -0.2306 -0.1532
  221MOL0     C29725   6.038   3.602   8.353  0.5813 -0.0342  0.7873
  221MOL0     C29726   6.177   3.603   8.365  0.8935 -0.6879  1.0165
  221MOL0     C29727   6.233   3.610   8.491 -0.3903  0.8363 -0.2204
  221MOL0     C29728   6.161   3.627   8.605  0.5267  0.4647 -0.2889
  221MOL0     C29729   6.223   3.653   8.733  0.2573 -0.5581 -0.1287
  221MOL0     O29730   6.353   3.652   8.742 -0.2330  0.0046  0.5075
  221MOL0     C29731   6.404   3.692   8.862 -0.3674 -0.7037 -0.4526
  221MOL0     C29732   6.482   3.809   8.852  0.2879  0.7159  0.6190
  221MOL0     C29733   6.535   3.874   8.960  0.4829 -0.0974 -0.3225
  221MOL0     C29734   6.521   3.834   9.085 -0.5294  0.3241  0.7267
  221MOL0     O29735   6.558   3.911   9.186  0.5802 -0.1891 -0.0077
  221MOL0     C29736   6.700   3.886   9.225  0.2543 -0.4572  0.4403
  221MOL0     C29737   6.735   3.999   9.320  0.1775  0.2312 -0.3221
  221MOL0     C29738   6.880   4.008   9.358 -0.3084  0.6617  0.2522
  221MOL0     C29739   6.910   3.881   9.437 -0.3647  0.3743  0.3495
  221MOL0     C29740   7.024   3.901   9.531 -0.5540  0.2223 -0.0204
  221MOL0     C29741   7.169   3.885   9.461 -0.2333  0.1701  0.1459
  221MOL0     C29742   7.273   3.886   9.567 -0.2126 -0.3466 -0.7962
  221MOL0     C29743   7.304   3.752   9.635  1.3086  0.3078  0.1149
  221MOL0    Cl29744   7.314   3.618   9.513 -0.2488 -0.3597  0.2253
  221MOL0     C29745   6.442   3.719   9.108 -0.0916  0.4699 -0.0825
  221MOL0     C29746   6.381   3.651   8.994 -0.8505  0.1189 -0.2637
  221MOL0     O29747   6.145   3.694   8.819 -0.5795  0.6220  0.5068
  221MOL0     C29748   6.018   3.620   8.589  0.6138 -0.7372 -0.3211
  221MOL0     C29749   5.956   3.614   8.465 -0.2957 -0.4289 -0.3725
  221MOL0     N29750   5.801   3.607   7.616 -0.7661  0.4569 -0.4393
  221MOL0     N29751   5.879   3.646   7.523  0.4400  0.1049  0.3509
  221MOL0     C29752   6.349   2.923   7.466 -0.0530 -0.4765 -0.2537
  221MOL0     C29753   6.255   2.836   7.527  0.2028  0.9253 -0.1003
  221MOL0     C29754   5.928   2.512   7.581  0.9487  0.2783  0.3114
  221MOL0     C29755   6.025   2.410   7.628 -0.0849  0.3793  0.6334
  221MOL0     C29756   5.986   2.310   7.722  0.4374  0.7008 -0.5085
  221MOL0     C29757   5.854   2.304   7.760 -0.6132 -0.2409 -0.1092
  221MOL0     O29758   5.811   2.207   7.841  0.5508  0.5204  0.1601
  221MOL0     C29759   5.735   2.104   7.776 -0.0060 -0.3464 -0.0031
  221MOL0     C29760   5.630   2.052   7.871  0.5692 -0.3686 -0.1920
  221MOL0     C29761   5.531   2.168   7.899  0.4068 -0.9792 -0.2307
  221MOL0     C29762   5.417   2.140   8.004 -1.1262 -0.5689  0.4161
  221MOL0     C29763   5.331   2.037   7.950 -0.4138  0.5226  0.0671
  221MOL0     C29764   5.245   1.963   7.898  0.9481 -0.1621  0.0779
  221MOL0     C29765   5.768   2.398   7.718  1.0139  1.4012  0.4521
  221MOL0     C29766   5.792   2.500   7.624 -0.3867 -1.1745 -1.2099
  221MOL0     C29767   5.682   2.598   7.589  0.0002 -0.2893 -1.0110
  221MOL0     H29768   6.185   2.642   7.261  1.6146  0.6237 -0.2089
  221MOL0     H29769   6.332   2.785   7.158  2.6952 -0.4043  0.9398
  221MOL0     H29770   6.503   3.158   7.173 -0.3305  1.0916  0.8632
  221MOL0     H29771   6.334   3.116   7.164  1.0874  1.8991 -1.4896
  221MOL0     H29772   6.474   3.220   7.411 -0.7781 -2.4530  1.7493
  221MOL0     H29773   6.304   3.172   7.398  0.9383 -0.6757  1.3363
  221MOL0     H29774   6.256   3.382   7.331 -0.7921 -0.5031 -1.1479
  221MOL0     H29775   6.363   3.366   7.178  3.7681  0.5560  0.1642
  221MOL0     H29776   6.455   3.458   7.447  0.4210  2.1546 -1.1462
  221MOL0     H29777   6.551   3.430   7.301 -0.1208 -0.8528 -1.9700
  221MOL0     H29778   6.497   3.659   7.365  2.7419 -0.7098 -3.0334
  221MOL0     H29779   6.468   3.631   7.199  0.0615 -0.3156 -1.2170
  221MOL0     H29780   6.273   3.767   7.313 -0.1208  0.6356  0.5427
  221MOL0     H29781   6.232   3.621   7.222 -0.2477 -0.6703  0.7400
  221MOL0     H29782   6.280   3.586   7.512 -0.7554 -0.0125  0.6066
  221MOL0     H29783   6.137   3.533   7.408  2.6891 -2.0932  1.9995
  221MOL0     H29784   6.183   3.785   7.574  0.6878  2.2725 -2.2391
  221MOL0     H29785   6.085   3.797   7.430 -1.6188  2.7229  3.5773
  221MOL0     H29786   6.091   3.606   7.761 -0.1784 -3.2620 -0.0765
  221MOL0     H29787   5.729   3.487   7.832 -0.2207  0.2933 -0.9683
  221MOL0     H29788   5.887   3.402   7.838  2.3647  1.0864  0.6088
  221MOL0     H29789   5.974   3.603   7.981 -0.5585  0.6756 -0.8101
  221MOL0     H29790   5.813   3.667   7.982 -0.1404  0.1044 -1.8825
  221MOL0     H29791   5.872   3.383   8.083 -0.8796 -0.8847  2.3840
  221MOL0     H29792   5.716   3.463   8.084 -0.1045 -1.1349 -5.6493
  221MOL0     H29793   5.838   3.460   8.288  1.2717 -0.8850 -1.3549
  221MOL0     H29794   5.780   3.626   8.229  0.3928 -0.1051  0.6136
  221MOL0     H29795   6.233   3.613   8.273  0.5693 -1.9583  0.6664
  221MOL0     H29796   6.341   3.599   8.497 -0.5852 -2.1773 -0.9490
  221MOL0     H29797   6.508   3.855   8.757 -2.1836  0.2571 -0.3694
  221MOL0     H29798   6.580   3.971   8.940 -2.9368  1.7231 -0.1045
  221MOL0     H29799   6.714   3.783   9.258 -0.3092 -0.9551 -0.8135
  221MOL0     H29800   6.765   3.902   9.139  1.3979  0.2481  1.4151
  221MOL0     H29801   6.711   4.089   9.261 -0.0391 -0.3773 -1.1896
  221MOL0     H29802   6.667   3.998   9.405  0.0269 -0.4776 -0.4468
  221MOL0     H29803   6.946   4.020   9.271 -2.2796 -2.8868 -1.9464
  221MOL0     H29804   6.883   4.102   9.414 -2.4181  0.0542  1.5198
  221MOL0     H29805   6.940   3.800   9.370 -1.9390 -1.1771  1.4334
  221MOL0     H29806   6.824   3.851   9.498  0.9370 -0.5079  1.8503
  221MOL0     H29807   7.023   3.837   9.620  1.9127  1.7892  1.2669
  221MOL0     H29808   7.016   4.004   9.568 -0.8537 -0.5574  2.2654
  221MOL0     H29809   7.164   3.797   9.397  0.9832 -0.9409  1.5142
  221MOL0     H29810   7.187   3.981   9.412 -1.5157  1.0472  1.2816
  221MOL0     H29811   7.251   3.950   9.652 -5.4622 -3.3725  0.6285
  221MOL0     H29812   7.367   3.920   9.522  1.0395  0.1900  2.0021
  221MOL0     H29813   7.401   3.769   9.683  0.0333  2.1410  2.2376
  221MOL0     H29814   7.231   3.734   9.715  0.3856  0.9087 -0.5792
  221MOL0     H29815   6.415   3.699   9.211  0.3640 -0.8643 -0.1973
  221MOL0     H29816   6.318   3.565   9.019  0.5571 -0.6526  0.8233
  221MOL0     H29817   5.949   3.619   8.673  0.0763  1.5428 -0.6545
  221MOL0     H29818   5.848   3.616   8.454 -0.3067 -1.6917 -0.6212
  221MOL0     H29819   6.409   2.994   7.522 -0.0584  0.8268 -1.8066
  221MOL0     H29820   6.235   2.848   7.633 -2.4303 -1.0081 -0.2660
  221MOL0     H29821   6.132   2.410   7.610  0.4838 -2.4298  3.2372
  221MOL0     H29822   6.062   2.244   7.763 -0.6597  0.8457  1.8720
  221MOL0     H29823   5.800   2.023   7.742 -1.1654 -1.8937  1.3063
  221MOL0     H29824   5.678   2.141   7.690  0.3922 -0.4344 -0.3050
  221MOL0     H29825   5.669   2.023   7.969 -0.1723 -0.4548  0.0790
  221MOL0     H29826   5.578   1.963   7.834 -1.6898 -0.8842  3.7190
  221MOL0     H29827   5.487   2.191   7.802  0.1996 -0.0470  0.0734
  221MOL0     H29828   5.586   2.256   7.932  0.3852 -0.2983 -1.9371
  221MOL0     H29829   5.456   2.107   8.100 -0.3715 -1.2630 -0.1083
  221MOL0     H29830   5.362   2.232   8.028 -0.7466 -0.5491  1.2218
  221MOL0     H29831   5.165   1.911   7.849  0.7977  2.1079 -2.2936
  221MOL0     H29832   5.667   2.383   7.755  2.2400 -3.9359  2.5076
  221MOL0     H29833   5.692   2.640   7.488 -0.5555  2.3000 -0.0809
  221MOL0     H29834   5.580   2.558   7.596  0.4157 -1.0364  2.8196
  221MOL0     H29835   5.691   2.688   7.651 -0.2007 -0.6527 -0.4488
  222MOL0     O29836   1.196   5.541   9.834  0.0953 -0.9318 -0.1400
  222MOL0     C29837   1.133   5.614   9.761 -0.0608 -0.4408  0.0596
  222MOL0     O29838   1.192   5.688   9.660  0.4023  0.0600 -0.0024
  222MOL0     C29839   1.323   5.688   9.632  0.1949  0.7794 -0.8814
  222MOL0     C29840   1.419   5.673   9.723 -0.0909  0.1594 -0.8381
  222MOL0     C29841   1.547   5.688   9.681  0.0117  0.0732  0.6131
  222MOL0     C29842   1.584   5.733   9.547  0.3664 -0.3390  0.1300
  222MOL0     O29843   1.710   5.758   9.505 -0.1381  0.7488  0.3044
  222MOL0     C29844   1.822   5.717   9.591 -0.3297 -0.1935  0.1338
  222MOL0     C29845   1.963   5.718   9.523  0.5147  0.4925  0.0117
  222MOL0     C29846   2.074   5.628   9.594  0.3982 -0.8845 -0.0892
  222MOL0     C29847   2.200   5.640   9.509 -0.4370  0.8519  0.2795
  222MOL0     C29848   2.298   5.532   9.558  0.4083 -0.7957 -0.1980
  222MOL0     C29849   2.436   5.549   9.496  0.1208  0.3580 -0.4104
  222MOL0     C29850   2.437   5.549   9.345 -0.6251  0.4330  0.1927
  222MOL0     C29851   2.577   5.579   9.293  0.5417 -0.6203 -0.6956
  222MOL0     N29852   2.679   5.476   9.314 -0.6743  0.4538 -0.0829
  222MOL0     C29853   2.741   5.397   9.218 -0.7480 -0.0421 -0.9480
  222MOL0     C29854   2.841   5.336   9.294 -0.0843  0.3425  0.1129
  222MOL0     C29855   2.955   5.259   9.228  0.0090 -0.0052 -0.3169
  222MOL0     C29856   3.098   5.323   9.237 -0.1060  0.1356 -0.3488
  222MOL0     C29857   3.195   5.274   9.127  0.6063  0.2262  0.1796
  222MOL0     C29858   3.338   5.327   9.137  0.1396 -0.3492  0.4037
  222MOL0     O29859   3.399   5.308   9.271 -0.7118  0.5155  0.5240
  222MOL0     C29860   3.530   5.324   9.279 -0.1977 -0.1632 -0.9665
  222MOL0     C29861   3.586   5.310   9.406 -0.1793  0.1241  0.1203
  222MOL0     C29862   3.723   5.320   9.425  0.1230 -0.1107 -0.5185
  222MOL0     C29863   3.804   5.359   9.312  0.1263  0.3955 -0.8461
  222MOL0     C29864   3.949   5.372   9.327  0.7026 -0.2992 -0.5728
  222MOL0     O29865   4.029   5.379   9.217  0.2203  0.4370 -0.4766
  222MOL0     C29866   4.165   5.387   9.241 -0.4958  0.1992 -0.6592
  222MOL0     C29867   4.241   5.323   9.350  0.5277  0.5457  0.2364
  222MOL0     C29868   4.375   5.354   9.373 -0.7043 -0.4705 -0.3191
  222MOL0     C29869   4.444   5.450   9.296  0.5349 -0.1499  0.4184
  222MOL0     O29870   4.567   5.494   9.315 -0.6546  0.4648 -0.1989
  222MOL0     C29871   4.644   5.431   9.420  0.5640 -0.0240 -0.3460
  222MOL0     C29872   4.795   5.413   9.363 -0.8313 -0.2705  0.5992
  222MOL0     C29873   4.853   5.555   9.347 -0.6296  0.3576  0.7869
  222MOL0     C29874   4.980   5.560   9.256  0.0819 -0.0268  0.8553
  222MOL0     C29875   5.035   5.700   9.243 -0.2839 -1.1798  0.9075
  222MOL0     C29876   5.080   5.771   9.374 -0.5570  0.2591 -0.2244
  222MOL0     C29877   5.153   5.905   9.358 -0.9781 -0.5311 -0.1392
  222MOL0     C29878   5.181   5.970   9.497 -0.1000 -0.1493 -0.1225
  222MOL0    Cl29879   5.339   5.918   9.572  0.2723 -0.2379 -0.2006
  222MOL0     C29880   4.378   5.482   9.176  0.3831 -0.5440  0.5211
  222MOL0     C29881   4.243   5.456   9.149 -0.2306  0.7083  0.4429
  222MOL0     O29882   3.981   5.393   9.443 -0.7003  0.2617  0.1444
  222MOL0     C29883   3.742   5.397   9.192 -0.1733  0.6064  0.2432
  222MOL0     C29884   3.603   5.379   9.175  0.1486 -0.4456 -0.5677
  222MOL0     N29885   2.836   5.376   9.427  0.5319  0.1564 -0.7360
  222MOL0     N29886   2.733   5.456   9.442  0.4621  0.4090 -0.4024
  222MOL0     C29887   1.475   5.759   9.459  0.2569  0.1124  0.0376
  222MOL0     C29888   1.348   5.717   9.500  0.4978  0.4799  0.3832
  222MOL0     C29889   0.990   5.634   9.773 -0.6148 -0.7137 -1.7542
  222MOL0     C29890   0.933   5.748   9.710 -0.1673 -0.1623 -0.1352
  222MOL0     C29891   0.791   5.756   9.703 -1.2308  0.4337  0.4212
  222MOL0     C29892   0.715   5.653   9.760  0.7847 -0.5320  1.4846
  222MOL0     O29893   0.577   5.632   9.749  0.3839 -0.3852 -0.1283
  222MOL0     C29894   0.516   5.729   9.658 -0.3648  0.5551  0.2293
  222MOL0     C29895   0.365   5.695   9.643 -0.1896  0.6398  0.1948
  222MOL0     C29896   0.284   5.716   9.774 -0.1891  0.0732  0.4235
  222MOL0     C29897   0.142   5.657   9.759 -0.9676 -0.4036  0.8805
  222MOL0     C29898   0.055   5.730   9.659 -1.0525 -0.7693  0.3083
  222MOL0     C29899  -0.016   5.795   9.583 -0.0547 -1.0861 -0.6620
  222MOL0     C29900   0.765   5.554   9.837 -0.4595 -0.4362 -0.5426
  222MOL0     C29901   0.909   5.536   9.844  0.1746 -0.8155  0.3180
  222MOL0     C29902   0.952   5.418   9.914  0.1055  0.8997  0.3957
  222MOL0     H29903   1.403   5.657   9.830  1.8882 -0.2151 -0.5648
  222MOL0     H29904   1.621   5.666   9.758 -0.3364 -0.2913  0.8474
  222MOL0     H29905   1.813   5.776   9.682  1.1603  1.2090 -0.5831
  222MOL0     H29906   1.808   5.613   9.622 -1.8867 -0.0604 -0.0545
  222MOL0     H29907   1.994   5.822   9.514 -2.6359  1.5095 -0.4694
  222MOL0     H29908   1.957   5.674   9.423  2.1316 -0.6107  0.3598
  222MOL0     H29909   2.036   5.526   9.588  0.7757 -0.9866 -0.7963
  222MOL0     H29910   2.096   5.666   9.694  0.4595  1.5096 -0.9347
  222MOL0     H29911   2.183   5.626   9.401  1.4654 -1.7814  0.2194
  222MOL0     H29912   2.247   5.739   9.518 -1.8392  1.4820  0.8497
  222MOL0     H29913   2.298   5.533   9.668  2.5541 -3.4139 -0.0773
  222MOL0     H29914   2.255   5.433   9.539 -0.9504  0.3472 -4.0047
  222MOL0     H29915   2.484   5.637   9.540  5.5031  0.2862 -4.9341
  222MOL0     H29916   2.497   5.464   9.529 -1.5064 -0.4291  0.6800
  222MOL0     H29917   2.378   5.628   9.298  0.5463  1.9688  1.2205
  222MOL0     H29918   2.385   5.462   9.302 -1.8647  1.3805 -0.2905
  222MOL0     H29919   2.555   5.593   9.187  1.7650  2.7944 -0.6225
  222MOL0     H29920   2.618   5.673   9.332  0.4671 -0.1262 -1.7846
  222MOL0     H29921   2.730   5.379   9.112  0.2275 -0.7638 -0.9426
  222MOL0     H29922   2.948   5.162   9.277 -0.8457  0.2446  0.0628
  222MOL0     H29923   2.933   5.263   9.121  0.8333 -0.3708 -0.5094
  222MOL0     H29924   3.088   5.431   9.223 -4.1133  0.2254  1.6987
  222MOL0     H29925   3.150   5.291   9.328  1.4022 -0.3007 -1.3201
  222MOL0     H29926   3.151   5.301   9.030  1.3901  2.1508  0.3129
  222MOL0     H29927   3.199   5.165   9.124  0.4066  0.2239 -0.1486
  222MOL0     H29928   3.343   5.434   9.118 -0.0668 -0.2367  0.9541
  222MOL0     H29929   3.402   5.271   9.069 -1.8836 -1.0943 -0.9824
  222MOL0     H29930   3.518   5.293   9.489  0.6380  3.4258  1.6352
  222MOL0     H29931   3.769   5.303   9.522  1.4402 -0.0115 -1.0981
  222MOL0     H29932   4.196   5.255   9.422 -1.9648  1.3421 -0.4953
  222MOL0     H29933   4.414   5.312   9.465 -1.2245 -1.9494 -0.7611
  222MOL0     H29934   4.645   5.491   9.512 -1.2081  0.6042 -0.7013
  222MOL0     H29935   4.606   5.333   9.451  3.0977 -0.9250  0.1165
  222MOL0     H29936   4.860   5.339   9.412 -0.8358 -0.1528  0.7850
  222MOL0     H29937   4.777   5.367   9.265 -0.2534  0.5072  0.1186
  222MOL0     H29938   4.769   5.612   9.306 -0.5052 -0.6498 -0.9834
  222MOL0     H29939   4.883   5.589   9.446 -0.1182  0.0159  0.7518
  222MOL0     H29940   4.950   5.517   9.160 -1.1357 -2.2269  2.1392
  222MOL0     H29941   5.054   5.492   9.300 -0.7149 -1.9453 -0.6603
  222MOL0     H29942   4.954   5.759   9.200 -0.0589 -0.3248  1.5989
  222MOL0     H29943   5.115   5.700   9.168 -1.8599  1.0975 -0.9153
  222MOL0     H29944   4.984   5.773   9.425 -0.2730 -0.6922  0.3894
  222MOL0     H29945   5.153   5.714   9.433 -1.0284 -1.6630 -1.4101
  222MOL0     H29946   5.080   5.966   9.305  2.5145  2.0745 -2.3795
  222MOL0     H29947   5.241   5.888   9.296  1.1422  0.2700  2.4874
  222MOL0     H29948   5.175   6.080   9.501 -2.3875 -0.2690  1.8697
  222MOL0     H29949   5.107   5.943   9.573  0.8910 -0.5864  0.6961
  222MOL0     H29950   4.438   5.538   9.105  0.5332 -1.1962  0.1161
  222MOL0     H29951   4.191   5.491   9.060 -1.8585 -1.0563  0.6257
  222MOL0     H29952   3.800   5.422   9.104 -2.2502  1.9697 -0.8218
  222MOL0     H29953   3.561   5.420   9.083 -0.2580  2.7279  0.9084
  222MOL0     H29954   1.478   5.786   9.354  1.4133 -2.1748 -0.5903
  222MOL0     H29955   1.267   5.721   9.428  0.3669 -3.5956  0.0485
  222MOL0     H29956   0.985   5.835   9.672  0.2752 -0.7485 -0.8970
  222MOL0     H29957   0.743   5.844   9.663 -1.2793 -0.3429 -1.3155
  222MOL0     H29958   0.565   5.712   9.561 -2.0428 -0.7920 -0.4237
  222MOL0     H29959   0.529   5.832   9.693 -3.1664  0.9983  0.2004
  222MOL0     H29960   0.347   5.590   9.617 -1.3144  0.9392 -0.2969
  222MOL0     H29961   0.320   5.755   9.563 -3.1051 -1.2681  0.2795
  222MOL0     H29962   0.286   5.820   9.807 -0.3147  1.0594 -2.4251
  222MOL0     H29963   0.338   5.660   9.851  3.4373  1.5283 -0.8727
  222MOL0     H29964   0.160   5.551   9.738  0.7838 -0.2425  1.4395
  222MOL0     H29965   0.099   5.669   9.859  0.8777  1.0113  1.5504
  222MOL0     H29966  -0.079   5.860   9.527 -0.0228 -0.5006 -0.0389
  222MOL0     H29967   0.699   5.489   9.893 -0.3913 -1.1961 -1.3248
  222MOL0     H29968   0.868   5.350   9.934  1.1902 -0.0205  2.0882
  222MOL0     H29969   1.026   5.360   9.857 -1.9590 -0.8070 -0.7246
  222MOL0     H29970   0.985   5.461  10.009 -0.7274  4.3447 -0.7479
  223MOL0     O29971   8.823   2.951   3.269 -0.7789 -0.4130 -0.3338
  223MOL0     C29972   8.781   2.853   3.210 -0.2809 -0.4139  0.2541
  223MOL0     O29973   8.855   2.759   3.149  0.3609  0.1968 -0.1648
  223MOL0     C29974   8.962   2.826   3.095  0.9599 -0.4770  0.7748
  223MOL0     C29975   8.940   2.893   2.972 -0.3172  0.4149  0.3141
  223MOL0     C29976   9.054   2.957   2.919 -0.0686  0.2994  0.8730
  223MOL0     C29977   9.185   2.944   2.978 -0.4521 -0.6544  1.0479
  223MOL0     O29978   9.285   3.028   2.933  0.0170 -0.1345 -0.0026
  223MOL0     C29979   9.323   3.024   2.795  0.0348  0.2711  0.4317
  223MOL0     C29980   9.408   2.905   2.773  0.2147  0.3652 -0.0345
  223MOL0     C29981   9.497   2.921   2.649  0.2479 -0.9530 -0.3116
  223MOL0     C29982   9.560   2.790   2.596 -0.4228  0.1655 -0.4751
  223MOL0     C29983   9.671   2.818   2.499 -0.3612 -0.0204 -0.2015
  223MOL0     C29984   9.685   2.686   2.413 -0.0687  0.8504  0.3396
  223MOL0     C29985   9.815   2.707   2.335 -0.1139 -0.6314 -0.1172
  223MOL0     C29986   9.937   2.678   2.430 -0.1789  0.1710  0.7271
  223MOL0     N29987  10.064   2.743   2.382 -0.0222  1.1441  0.0130
  223MOL0     C29988  10.119   2.854   2.441  0.1334  0.3661  0.6180
  223MOL0     C29989  10.248   2.856   2.406  0.7109  0.0808 -0.3093
  223MOL0     C29990  10.353   2.953   2.441 -0.0034  0.0279  0.3653
  223MOL0     C29991  10.415   2.991   2.312 -0.6670  0.4406  0.7283
  223MOL0     C29992  10.521   3.103   2.310  0.2392 -0.4436  0.3008
  223MOL0     C29993  10.582   3.138   2.181 -0.1074 -0.2642 -0.7029
  223MOL0     O29994  10.678   3.243   2.208 -0.8333 -0.3601 -0.4374
  223MOL0     C29995  10.789   3.239   2.126  0.1532  0.9507 -0.6370
  223MOL0     C29996  10.900   3.294   2.181  0.4783 -0.1302 -0.4477
  223MOL0     C29997  11.017   3.309   2.103  0.0823  0.1231  0.6420
  223MOL0     C29998  11.023   3.261   1.966 -0.3381  0.4534 -0.1531
  223MOL0     C29999  11.149   3.264   1.890  0.9110 -0.1048  1.0329
  223MOL0     O30000  11.243   3.356   1.928  0.0427  0.2821 -0.5404
  223MOL0     C30001  11.360   3.355   1.858  0.0720  0.7274  0.9747
  223MOL0     C30002  11.371   3.360   1.716 -0.3828 -0.6874  1.0659
  223MOL0     C30003  11.503   3.373   1.656  0.0392  0.0135 -0.1000
  223MOL0     C30004  11.617   3.390   1.737  0.2599 -0.3676  0.2465
  223MOL0     O30005  11.743   3.392   1.676  0.4831 -0.1853  0.4932
  223MOL0     C30006  11.805   3.521   1.672 -0.1130 -0.5437  0.8398
  223MOL0     C30007  11.732   3.624   1.575 -1.3464  0.4711 -0.0856
  223MOL0     C30008  11.791   3.771   1.597  0.0670  0.1796  0.4900
  223MOL0     C30009  11.702   3.882   1.552 -0.0433  0.2616 -0.9179
  223MOL0     C30010  11.564   3.904   1.604  0.8872  0.2052  0.4981
  223MOL0     C30011  11.483   4.013   1.530 -0.3267 -0.6354  0.7777
  223MOL0     C30012  11.439   3.978   1.389  0.0554  0.0521  0.5780
  223MOL0     C30013  11.322   3.888   1.380  0.0334  0.0454 -0.3913
  223MOL0    Cl30014  11.180   3.949   1.465  0.5290 -0.2677 -0.1290
  223MOL0     C30015  11.600   3.390   1.865 -0.2100  0.4533 -0.6951
  223MOL0     C30016  11.474   3.371   1.927 -0.7887 -0.4759 -0.7493
  223MOL0     O30017  11.156   3.187   1.796 -0.9452 -0.4460  0.1350
  223MOL0     C30018  10.903   3.205   1.918  1.0297  0.4016 -0.0435
  223MOL0     C30019  10.783   3.208   1.994  0.3895 -0.3845  0.4374
  223MOL0     N30020  10.274   2.743   2.333 -0.3641 -0.2599  0.0574
  223MOL0     N30021  10.167   2.671   2.316 -0.7206  0.1305  0.7135
  223MOL0     C30022   9.205   2.881   3.100 -0.2475  0.4262  0.0148
  223MOL0     C30023   9.092   2.813   3.152 -0.0865  0.8872 -0.3579
  223MOL0     C30024   8.636   2.841   3.206 -0.0711  0.2951  0.4164
  223MOL0     C30025   8.581   2.719   3.230 -0.0639  0.5443 -0.0235
  223MOL0     C30026   8.442   2.690   3.234 -0.9825  0.0883 -0.2812
  223MOL0     C30027   8.360   2.799   3.230  0.6882 -0.5193 -0.7207
  223MOL0     O30028   8.223   2.773   3.231  0.5126 -0.3564 -0.2117
  223MOL0     C30029   8.129   2.880   3.202 -0.0060 -0.5653  0.3685
  223MOL0     C30030   8.137   2.926   3.058  0.5183  0.2326  0.2900
  223MOL0     C30031   8.004   2.994   3.007 -0.9540  0.2542 -0.5242
  223MOL0     C30032   8.012   3.015   2.859  0.2858  0.2984 -0.4755
  223MOL0     C30033   7.885   3.082   2.830 -0.5017 -0.4147 -0.5691
  223MOL0     C30034   7.781   3.141   2.805  0.2342 -0.0979  0.2113
  223MOL0     C30035   8.410   2.929   3.227  0.6482 -0.4870  0.2014
  223MOL0     C30036   8.549   2.947   3.211  0.3523  0.5782  0.3252
  223MOL0     C30037   8.598   3.088   3.175  0.2984 -0.4708  0.1439
  223MOL0     H30038   8.847   2.906   2.917  0.0854  2.9880  0.1078
  223MOL0     H30039   9.026   3.011   2.829 -1.5812 -1.3279  0.2833
  223MOL0     H30040   9.239   3.016   2.725  0.7733 -5.1137 -0.2629
  223MOL0     H30041   9.394   3.106   2.782 -0.2945  0.9354  2.4392
  223MOL0     H30042   9.336   2.824   2.756 -0.2999  0.8451 -0.1796
  223MOL0     H30043   9.468   2.883   2.861 -0.0212  3.9856  1.1995
  223MOL0     H30044   9.582   2.989   2.658 -0.2697  0.2084 -3.2302
  223MOL0     H30045   9.438   2.965   2.568 -0.1379 -1.1300 -0.1308
  223MOL0     H30046   9.596   2.729   2.679 -1.5103 -2.2826 -1.7082
  223MOL0     H30047   9.490   2.716   2.558  2.3423 -2.3835 -1.0297
  223MOL0     H30048   9.651   2.901   2.431  0.2977 -0.6171 -1.1504
  223MOL0     H30049   9.759   2.845   2.559 -0.6104  1.3304 -0.4104
  223MOL0     H30050   9.691   2.594   2.472  1.7878  0.1257 -0.9045
  223MOL0     H30051   9.603   2.665   2.344 -0.3169 -0.6881  1.0580
  223MOL0     H30052   9.820   2.813   2.309  0.1915 -1.0993 -2.0800
  223MOL0     H30053   9.824   2.644   2.247 -3.9766 -2.8829  0.9056
  223MOL0     H30054   9.916   2.714   2.530  0.1175 -0.1011  0.8901
  223MOL0     H30055   9.951   2.570   2.441 -3.9107 -0.2081  3.8956
  223MOL0     H30056  10.075   2.925   2.510 -1.4745 -0.3477  0.3758
  223MOL0     H30057  10.307   3.042   2.483 -2.5290 -1.4620  0.9181
  223MOL0     H30058  10.425   2.908   2.510 -2.2029 -0.0830  2.7100
  223MOL0     H30059  10.466   2.905   2.268 -0.6732  2.3208 -3.4031
  223MOL0     H30060  10.339   3.023   2.239  0.4378 -2.7294 -2.0801
  223MOL0     H30061  10.597   3.067   2.380 -0.1045  0.4428  1.1562
  223MOL0     H30062  10.486   3.200   2.347 -1.9368 -0.4355 -1.5302
  223MOL0     H30063  10.512   3.186   2.112 -0.4621  2.9528  1.6656
  223MOL0     H30064  10.626   3.046   2.141 -0.9298 -0.8007 -0.3941
  223MOL0     H30065  10.895   3.332   2.282  1.8945  0.5610 -0.6046
  223MOL0     H30066  11.108   3.356   2.139 -0.9097  3.2914 -0.6051
  223MOL0     H30067  11.284   3.348   1.652  1.3185 -0.0742 -1.5361
  223MOL0     H30068  11.520   3.386   1.550  1.5791  1.0341  0.2466
  223MOL0     H30069  11.807   3.553   1.777  1.8768  2.5027  0.0037
  223MOL0     H30070  11.912   3.520   1.652 -0.3842 -0.6057 -0.7809
  223MOL0     H30071  11.759   3.587   1.476  2.8243 -2.3272  1.8064
  223MOL0     H30072  11.624   3.634   1.579 -1.2476  1.5778  0.2595
  223MOL0     H30073  11.836   3.787   1.696  0.7888  4.1517 -0.3385
  223MOL0     H30074  11.880   3.768   1.534 -0.7739 -0.1650 -0.7256
  223MOL0     H30075  11.700   3.888   1.443 -2.1824  0.6789 -0.8916
  223MOL0     H30076  11.749   3.974   1.588 -3.4152  1.5483  0.5507
  223MOL0     H30077  11.574   3.919   1.712  2.0413 -2.1791  0.7601
  223MOL0     H30078  11.510   3.812   1.581  0.7718  0.0788  1.2521
  223MOL0     H30079  11.394   4.045   1.585 -0.3051  4.4952 -1.5901
  223MOL0     H30080  11.546   4.102   1.527  0.1289 -0.9688  0.1886
  223MOL0     H30081  11.529   3.940   1.339  1.5669  2.2879  1.4150
  223MOL0     H30082  11.421   4.076   1.342  1.2842  0.3212  0.6251
  223MOL0     H30083  11.288   3.887   1.276 -0.8135  1.1843 -0.1419
  223MOL0     H30084  11.350   3.787   1.412 -1.4438 -0.3622 -0.3218
  223MOL0     H30085  11.687   3.417   1.923  1.1083 -1.1965 -1.8173
  223MOL0     H30086  11.476   3.375   2.036  2.7057  0.1381 -0.7337
  223MOL0     H30087  10.897   3.174   1.814  1.1468  0.1974  0.0108
  223MOL0     H30088  10.685   3.180   1.956 -1.0313  1.4109  2.5101
  223MOL0     H30089   9.303   2.886   3.146 -0.1692  0.2544 -0.1351
  223MOL0     H30090   9.097   2.755   3.244  0.3733  0.1842 -0.8120
  223MOL0     H30091   8.643   2.631   3.239  0.3893  1.0233  2.0062
  223MOL0     H30092   8.401   2.591   3.248  2.0744 -1.2052  0.3960
  223MOL0     H30093   8.142   2.975   3.256  0.2789  0.3079 -1.1631
  223MOL0     H30094   8.027   2.849   3.228 -0.3311  1.1270  1.3092
  223MOL0     H30095   8.163   2.838   2.999 -3.0271 -1.4164  0.9061
  223MOL0     H30096   8.214   3.004   3.056 -1.1953  2.0417  1.5455
  223MOL0     H30097   8.006   3.089   3.063  1.7309  1.2768 -2.1486
  223MOL0     H30098   7.918   2.934   3.037  0.9558 -1.2460  2.4499
  223MOL0     H30099   8.096   3.071   2.816 -0.2414  0.7709 -0.9093
  223MOL0     H30100   8.019   2.916   2.813 -3.6092  0.5978 -2.0658
  223MOL0     H30101   7.702   3.193   2.755  1.9497  0.5902 -1.9146
  223MOL0     H30102   8.352   3.020   3.224  1.7188  0.2052 -0.4438
  223MOL0     H30103   8.513   3.156   3.176  0.9255  0.5121  3.8042
  223MOL0     H30104   8.654   3.127   3.261  0.2852 -0.5419  0.1846
  223MOL0     H30105   8.663   3.081   3.088  0.6086 -2.0417  0.4774
  224MOL0     O30106  10.921   6.954  11.018  0.1972 -0.1736 -0.8714
  224MOL0     C30107  10.895   6.946  10.898  0.4200 -0.1703 -0.9520
  224MOL0     O30108  10.945   7.016  10.802 -0.6630 -0.2140 -0.1238
  224MOL0     C30109  11.048   7.095  10.828 -1.1659  0.3291 -0.2827
  224MOL0     C30110  11.036   7.231  10.814  0.0165  0.3637 -0.2926
  224MOL0     C30111  11.137   7.319  10.851 -0.2746  0.4636  0.4347
  224MOL0     C30112  11.259   7.266  10.886  0.3114 -0.6286 -0.0682
  224MOL0     O30113  11.358   7.357  10.936  0.1431  0.3432  0.4734
  224MOL0     C30114  11.492   7.300  10.944  0.0747  0.5719 -0.6595
  224MOL0     C30115  11.589   7.422  10.957  0.9157  0.1591 -0.2375
  224MOL0     C30116  11.734   7.368  10.972  1.2127  0.2358  0.3438
  224MOL0     C30117  11.792   7.350  10.836  0.4362 -0.5628 -0.2250
  224MOL0     C30118  11.944   7.349  10.820  0.5271 -0.3193 -0.8568
  224MOL0     C30119  11.978   7.278  10.692  0.6832 -0.4559 -0.7037
  224MOL0     C30120  12.130   7.289  10.667  0.3202  0.5197  0.1425
  224MOL0     C30121  12.166   7.271  10.520 -0.8927  0.4467 -0.0890
  224MOL0     N30122  12.309   7.238  10.522 -0.5699  0.6306 -0.4572
  224MOL0     C30123  12.353   7.111  10.529 -0.4142 -1.2100  0.4397
  224MOL0     C30124  12.491   7.128  10.523  0.8187  1.1807  0.7157
  224MOL0     C30125  12.598   7.024  10.554 -0.7824  0.4836  0.3698
  224MOL0     C30126  12.659   7.045  10.693 -0.1186  0.8802  0.5558
  224MOL0     C30127  12.788   6.963  10.710 -0.5090  1.0165  1.2708
  224MOL0     C30128  12.850   6.966  10.853 -0.2836  0.5519  0.0776
  224MOL0     O30129  12.917   7.092  10.865 -0.0988 -0.0077 -0.0214
  224MOL0     C30130  13.038   7.100  10.812 -0.1635 -0.6219  0.3604
  224MOL0     C30131  13.103   6.994  10.729  0.6708  0.1112 -0.4448
  224MOL0     C30132  13.232   7.019  10.685 -0.0271  0.6491 -0.0521
  224MOL0     C30133  13.304   7.136  10.721  0.4458  0.0951  0.2741
  224MOL0     C30134  13.441   7.148  10.682  0.5272  0.2577  0.5723
  224MOL0     O30135  13.504   7.040  10.636  0.6761  0.0323  0.1994
  224MOL0     C30136  13.629   7.053  10.582  0.7182  0.6705  0.4741
  224MOL0     C30137  13.655   6.971  10.473  0.6828  0.8391 -0.5069
  224MOL0     C30138  13.774   6.956  10.406 -0.6604  0.0216 -0.0587
  224MOL0     C30139  13.883   7.040  10.438 -0.2882 -0.7821  0.7304
  224MOL0     O30140  14.002   7.028  10.372  0.0075  0.2248  0.0700
  224MOL0     C30141  14.119   7.100  10.411  0.7749 -0.6440  0.8905
  224MOL0     C30142  14.225   7.051  10.312 -0.7523 -0.2980 -0.3251
  224MOL0     C30143  14.318   7.176  10.273 -0.3879  0.1998 -0.4974
  224MOL0     C30144  14.424   7.121  10.182  0.0705  0.1383  0.3440
  224MOL0     C30145  14.514   7.242  10.133  0.4442  0.1265  0.4756
  224MOL0     C30146  14.647   7.212  10.062 -0.0279  0.9514 -0.2701
  224MOL0     C30147  14.736   7.328  10.023 -0.1494  0.5081 -0.2024
  224MOL0     C30148  14.664   7.412   9.915 -1.0933  0.0700 -0.2168
  224MOL0    Cl30149  14.674   7.342   9.749 -0.1109  0.1835 -0.0703
  224MOL0     C30150  13.863   7.132  10.539  0.0997 -0.1183  0.1090
  224MOL0     C30151  13.737   7.140  10.613 -0.0325 -0.2680  0.0520
  224MOL0     O30152  13.498   7.257  10.692  0.8441 -0.0683  0.5832
  224MOL0     C30153  13.245   7.229  10.802 -0.5344  0.5777  0.3164
  224MOL0     C30154  13.112   7.212  10.849  0.2366  0.4096  0.8553
  224MOL0     N30155  12.520   7.269  10.502  0.0212  0.3061  0.1869
  224MOL0     N30156  12.413   7.330  10.505  0.0705  1.4993  0.0545
  224MOL0     C30157  11.280   7.124  10.896 -0.3636 -0.5091  0.7352
  224MOL0     C30158  11.174   7.042  10.858 -0.2566  0.7091  0.3430
  224MOL0     C30159  10.782   6.850  10.873  0.3580  0.3542 -0.5908
  224MOL0     C30160  10.763   6.743  10.967  0.0495  0.0967 -0.3713
  224MOL0     C30161  10.671   6.641  10.944 -0.3596  0.1997  0.3228
  224MOL0     C30162  10.585   6.650  10.837  0.5329  1.5921 -0.7473
  224MOL0     O30163  10.481   6.558  10.834 -0.6045 -0.0769 -0.9370
  224MOL0     C30164  10.391   6.539  10.727  0.4786  0.1820 -0.0849
  224MOL0     C30165  10.301   6.419  10.757 -0.1744 -0.3609 -0.1713
  224MOL0     C30166  10.388   6.289  10.791  0.6704  0.1409  0.1595
  224MOL0     C30167  10.314   6.157  10.780  0.6613  0.0750  0.0333
  224MOL0     C30168  10.199   6.129  10.862 -0.1482 -0.2800  0.3643
  224MOL0     C30169  10.099   6.111  10.924 -0.2157  0.3103 -0.2043
  224MOL0     C30170  10.593   6.757  10.748  0.8533  1.3104 -0.4507
  224MOL0     C30171  10.687   6.859  10.764 -0.2052 -0.6025  0.5192
  224MOL0     C30172  10.680   6.982  10.667  0.2523 -0.0270 -0.2752
  224MOL0     H30173  10.935   7.264  10.791 -0.5625 -0.3802  1.0622
  224MOL0     H30174  11.133   7.426  10.837  1.3552  0.7563  1.7783
  224MOL0     H30175  11.495   7.237  11.034 -2.3732  2.2115  0.6777
  224MOL0     H30176  11.522   7.239  10.859  3.2614  1.1647 -0.1054
  224MOL0     H30177  11.563   7.476  11.048  0.2997 -0.3551 -0.0958
  224MOL0     H30178  11.567   7.480  10.867  0.3468  0.5479  0.1478
  224MOL0     H30179  11.735   7.268  11.017 -0.4993  1.1776  2.6667
  224MOL0     H30180  11.783   7.434  11.044  2.2469 -0.9476  0.7670
  224MOL0     H30181  11.751   7.258  10.795  2.4855 -1.3303 -0.6437
  224MOL0     H30182  11.759   7.432  10.771 -1.4907 -2.0062 -1.1555
  224MOL0     H30183  11.986   7.449  10.811 -0.5037  0.2444  0.2950
  224MOL0     H30184  11.986   7.308  10.912 -0.8962 -3.0011 -1.2886
  224MOL0     H30185  11.941   7.175  10.695  0.7601 -0.4885  2.1104
  224MOL0     H30186  11.926   7.335  10.613 -1.8325  0.0983  1.2039
  224MOL0     H30187  12.176   7.209  10.726  0.4929 -0.8692 -1.7823
  224MOL0     H30188  12.178   7.381  10.702  0.2319  0.6678 -0.1233
  224MOL0     H30189  12.109   7.188  10.477  0.2790 -0.7369  0.5670
  224MOL0     H30190  12.141   7.367  10.473 -0.5477  0.8187  0.4785
  224MOL0     H30191  12.288   7.025  10.538  0.4430 -1.8736  0.4477
  224MOL0     H30192  12.562   6.922  10.541  3.1511 -0.8758 -1.6118
  224MOL0     H30193  12.671   7.040  10.474 -0.6150 -0.3642  0.3469
  224MOL0     H30194  12.672   7.154  10.699 -4.2221  1.6536 -0.8783
  224MOL0     H30195  12.584   7.025  10.770  0.2633 -1.0507  0.4622
  224MOL0     H30196  12.862   6.997  10.637 -0.0488  1.5993  1.9971
  224MOL0     H30197  12.757   6.864  10.675 -2.1284  2.3116 -1.2322
  224MOL0     H30198  12.922   6.888  10.877 -0.0792  0.2904 -1.3139
  224MOL0     H30199  12.761   6.951  10.915 -1.1754 -0.2565 -1.3538
  224MOL0     H30200  13.054   6.905  10.691  1.5640 -0.1312 -1.0696
  224MOL0     H30201  13.274   6.934  10.632 -1.3820  0.3691 -0.7147
  224MOL0     H30202  13.571   6.913  10.437  0.9569 -0.5775  0.9829
  224MOL0     H30203  13.793   6.888  10.324  1.8077 -1.4637  1.6145
  224MOL0     H30204  14.109   7.208  10.422 -0.7649 -0.8708  2.0989
  224MOL0     H30205  14.141   7.064  10.512  1.0091  0.5448  1.2703
  224MOL0     H30206  14.289   6.969  10.346 -2.1326 -0.7456  1.3190
  224MOL0     H30207  14.174   7.023  10.219 -2.8725  4.2721 -0.7962
  224MOL0     H30208  14.260   7.259  10.232 -1.7286 -0.9238 -0.9584
  224MOL0     H30209  14.364   7.213  10.365 -0.8321 -0.0581 -0.1661
  224MOL0     H30210  14.386   7.064  10.097 -1.0414  2.0588 -0.5298
  224MOL0     H30211  14.482   7.049  10.241 -1.8085  0.1983  2.3991
  224MOL0     H30212  14.546   7.304  10.217  3.0044  1.6739 -1.4897
  224MOL0     H30213  14.447   7.307  10.075  0.4328 -0.8282 -0.6147
  224MOL0     H30214  14.697   7.148  10.135  1.5945  3.5965  1.1034
  224MOL0     H30215  14.629   7.155   9.971 -0.5997  0.5108  0.1173
  224MOL0     H30216  14.834   7.291   9.991  1.3742  2.2129  2.1308
  224MOL0     H30217  14.766   7.393  10.106  3.6268  1.0010 -1.7602
  224MOL0     H30218  14.559   7.432   9.939 -0.9700  0.8763 -0.3154
  224MOL0     H30219  14.717   7.507   9.910  2.3634 -1.7380 -2.6445
  224MOL0     H30220  13.944   7.191  10.581 -0.4593 -0.0071  1.0513
  224MOL0     H30221  13.738   7.222  10.683 -1.1154  1.6065 -1.9856
  224MOL0     H30222  13.307   7.313  10.833 -0.9256  0.1387  2.4324
  224MOL0     H30223  13.051   7.286  10.900 -2.9474 -2.0428  0.9341
  224MOL0     H30224  11.369   7.082  10.941  2.2224  2.0396 -1.6223
  224MOL0     H30225  11.172   6.935  10.875  1.8185  0.7157  0.8859
  224MOL0     H30226  10.804   6.735  11.067 -0.5081 -1.3143 -0.2373
  224MOL0     H30227  10.641   6.567  11.018 -1.9382 -0.4037 -0.8758
  224MOL0     H30228  10.438   6.525  10.629 -1.2752 -0.2003 -0.8996
  224MOL0     H30229  10.326   6.627  10.719  1.6107  0.8771 -2.6935
  224MOL0     H30230  10.232   6.395  10.675  0.7074  0.6414 -1.2471
  224MOL0     H30231  10.239   6.450  10.842  1.1927  4.1176 -0.5870
  224MOL0     H30232  10.439   6.293  10.887 -2.1060 -2.9368  1.9621
  224MOL0     H30233  10.474   6.281  10.723  0.7239 -0.8747  0.3285
  224MOL0     H30234  10.279   6.160  10.676 -3.0569  3.2820  1.1451
  224MOL0     H30235  10.381   6.073  10.800 -1.2009 -1.4516  0.2547
  224MOL0     H30236  10.016   6.103  10.991  2.7368  1.4475  4.0146
  224MOL0     H30237  10.529   6.754  10.661  1.3409 -1.6805 -0.8344
  224MOL0     H30238  10.578   7.008  10.639  0.5313 -0.5157 -1.8424
  224MOL0     H30239  10.729   7.065  10.719 -0.5447 -1.0184  2.2176
  224MOL0     H30240  10.742   6.951  10.582 -0.4581  1.1094 -1.2401
  225MOL0     O30241   7.661   9.285   8.138 -1.0486 -0.7466  0.5930
  225MOL0     C30242   7.670   9.238   8.247  0.5300  0.3409 -0.0897
  225MOL0     O30243   7.764   9.275   8.345  0.2328 -0.3582  0.2695
  225MOL0     C30244   7.886   9.328   8.312  0.5903 -1.5531 -0.1599
  225MOL0     C30245   7.957   9.371   8.426  1.0443 -0.2419 -0.2471
  225MOL0     C30246   8.070   9.463   8.413  0.4021  0.7155  1.0643
  225MOL0     C30247   8.121   9.487   8.291 -0.4704 -0.4412  0.9909
  225MOL0     O30248   8.231   9.573   8.293  0.0445  0.2212 -0.4084
  225MOL0     C30249   8.333   9.557   8.195 -0.4900 -0.1068 -0.0198
  225MOL0     C30250   8.405   9.688   8.197  0.1662  0.1373  0.0459
  225MOL0     C30251   8.514   9.699   8.086  0.0844 -0.0627 -0.2039
  225MOL0     C30252   8.662   9.650   8.123  0.4340  1.3124  0.1233
  225MOL0     C30253   8.697   9.508   8.082 -0.2070  0.9630  0.7531
  225MOL0     C30254   8.834   9.457   8.145 -0.2845 -0.8116  1.0423
  225MOL0     C30255   8.960   9.536   8.106 -0.6488 -0.0556  0.1183
  225MOL0     C30256   8.973   9.568   7.957 -0.4741 -0.4006  0.6146
  225MOL0     N30257   9.101   9.637   7.926  0.4002 -0.3875 -0.4122
  225MOL0     C30258   9.222   9.637   7.999 -0.7690  0.5505  0.0989
  225MOL0     C30259   9.304   9.733   7.931 -0.3099  0.0116 -0.1465
  225MOL0     C30260   9.442   9.772   7.982 -0.5559 -0.1756 -0.3918
  225MOL0     C30261   9.542   9.677   7.908  0.4491 -0.6932 -0.0300
  225MOL0     C30262   9.539   9.683   7.753 -0.2285  0.5759  0.4504
  225MOL0     C30263   9.625   9.788   7.696 -0.1423 -0.7347  0.2888
  225MOL0     O30264   9.756   9.743   7.731  0.1204 -0.0650 -0.5126
  225MOL0     C30265   9.849   9.843   7.731 -0.1278  0.1487 -0.6071
  225MOL0     C30266   9.940   9.855   7.838  0.5678 -0.2039  0.4794
  225MOL0     C30267  10.031   9.961   7.845  0.3474 -0.3801  0.5630
  225MOL0     C30268  10.030  10.063   7.749 -0.0665 -0.7020 -0.1228
  225MOL0     C30269  10.114  10.193   7.775  0.5331 -0.1792  0.3794
  225MOL0     O30270  10.104  10.301   7.696  0.4690 -0.7352 -0.4317
  225MOL0     C30271  10.192  10.408   7.717 -0.0350  0.4372 -0.2007
  225MOL0     C30272  10.129  10.528   7.680  0.3317 -0.2327  0.0460
  225MOL0     C30273  10.202  10.641   7.684  0.1224 -0.1508 -0.6264
  225MOL0     C30274  10.337  10.644   7.729 -0.0366 -1.2921 -0.0914
  225MOL0     O30275  10.403  10.763   7.754  0.1443 -1.0457  0.6421
  225MOL0     C30276  10.336  10.888   7.732  0.0099 -0.0576 -0.2686
  225MOL0     C30277  10.428  11.001   7.783 -0.3365 -0.6355  1.1324
  225MOL0     C30278  10.555  11.001   7.697 -0.7897  1.2699 -0.6133
  225MOL0     C30279  10.654  11.110   7.729  0.3798 -0.3878 -0.5481
  225MOL0     C30280  10.771  11.098   7.633  0.3473  0.9287  0.6648
  225MOL0     C30281  10.865  11.215   7.658  0.2705 -0.3774  0.3529
  225MOL0     C30282  10.972  11.210   7.548  0.4238  1.0724  0.2393
  225MOL0     C30283  11.044  11.342   7.528  0.1133 -0.0603  0.1551
  225MOL0    Cl30284  11.170  11.373   7.653  0.1156  0.3324 -0.1241
  225MOL0     C30285  10.387  10.524   7.777  0.6744  0.6388  0.7186
  225MOL0     C30286  10.320  10.400   7.761  0.7345 -0.1293  0.4440
  225MOL0     O30287  10.190  10.187   7.867  0.2447  0.5696 -0.3323
  225MOL0     C30288   9.933  10.056   7.647 -0.3318 -0.2164  0.0084
  225MOL0     C30289   9.846   9.951   7.639  0.0924  0.2748  0.2543
  225MOL0     N30290   9.234   9.790   7.832  0.6407  0.7601  0.3340
  225MOL0     N30291   9.116   9.729   7.821 -0.6350 -0.1996 -0.2905
  225MOL0     C30292   8.060   9.431   8.185  0.0730 -0.5085  0.0145
  225MOL0     C30293   7.941   9.363   8.187 -0.9267  0.1347 -0.3001
  225MOL0     C30294   7.569   9.131   8.287 -0.7516  0.2537  0.6128
  225MOL0     C30295   7.516   9.144   8.412  0.3293 -0.3487  1.2648
  225MOL0     C30296   7.405   9.070   8.442 -0.8364 -0.6490  0.7436
  225MOL0     C30297   7.341   8.991   8.341 -0.7285 -0.2536 -0.7400
  225MOL0     O30298   7.221   8.937   8.380  0.5867 -0.2492 -0.7549
  225MOL0     C30299   7.137   8.873   8.278  0.1412 -0.1956 -0.3537
  225MOL0     C30300   6.999   8.835   8.337 -0.1070  0.5511  0.6572
  225MOL0     C30301   7.004   8.768   8.473 -0.6552  0.8516 -0.1544
  225MOL0     C30302   6.886   8.669   8.493 -0.1308  0.2154 -0.1173
  225MOL0     C30303   6.759   8.740   8.493  0.5923  0.1460 -0.5498
  225MOL0     C30304   6.666   8.802   8.516  1.1567 -0.1955 -0.1044
  225MOL0     C30305   7.396   8.976   8.214 -0.3051  0.1918 -0.0661
  225MOL0     C30306   7.517   9.040   8.185 -0.0540  0.4763  0.1471
  225MOL0     C30307   7.593   9.010   8.061  0.4939  0.1426  0.0576
  225MOL0     H30308   7.913   9.352   8.523  0.6264  2.2555  0.1164
  225MOL0     H30309   8.109   9.494   8.510 -0.0334 -0.3199  1.5854
  225MOL0     H30310   8.400   9.474   8.219 -1.2030 -0.8306 -0.4701
  225MOL0     H30311   8.297   9.544   8.093 -1.1118 -0.3864  0.2297
  225MOL0     H30312   8.455   9.705   8.293 -1.4580 -0.8339  1.1091
  225MOL0     H30313   8.333   9.769   8.184  0.3067  0.4405  1.0462
  225MOL0     H30314   8.506   9.801   8.050 -2.2362  0.4397  1.4908
  225MOL0     H30315   8.486   9.629   8.007 -1.4248 -0.2850  0.4905
  225MOL0     H30316   8.736   9.718   8.080 -0.6533  2.5065  0.1076
  225MOL0     H30317   8.665   9.636   8.231 -0.1672 -0.8303 -0.0849
  225MOL0     H30318   8.616   9.442   8.115 -1.2549 -0.2766 -3.7089
  225MOL0     H30319   8.690   9.499   7.973  1.7134  0.6724  0.6145
  225MOL0     H30320   8.826   9.468   8.254 -1.2259  0.9840  0.8227
  225MOL0     H30321   8.842   9.353   8.112  0.2375 -0.1581 -1.0758
  225MOL0     H30322   9.041   9.466   8.131 -0.2538  0.0054 -0.9092
  225MOL0     H30323   8.975   9.631   8.157  1.0099  0.3604 -1.0449
  225MOL0     H30324   8.969   9.482   7.889  0.3895  0.8971 -1.1855
  225MOL0     H30325   8.900   9.646   7.935  1.5137  1.6370  0.8690
  225MOL0     H30326   9.257   9.581   8.085  0.6969  0.7981 -0.3005
  225MOL0     H30327   9.458   9.874   7.948 -0.3134  0.0667  0.4418
  225MOL0     H30328   9.450   9.762   8.091  1.7922 -1.5513 -0.6272
  225MOL0     H30329   9.637   9.709   7.952 -1.3698  2.3055  2.1848
  225MOL0     H30330   9.509   9.580   7.945 -2.6311  0.1730 -0.1778
  225MOL0     H30331   9.437   9.702   7.719  0.4177  0.7032 -1.5451
  225MOL0     H30332   9.569   9.586   7.712  0.1780  0.9942 -0.2768
  225MOL0     H30333   9.594   9.883   7.741 -1.6683 -1.9724  2.0204
  225MOL0     H30334   9.613   9.787   7.587  0.4141 -0.9723  0.2253
  225MOL0     H30335   9.942   9.781   7.918 -0.5355 -0.4304  0.3195
  225MOL0     H30336  10.091   9.973   7.935 -0.1861  1.4134  0.7194
  225MOL0     H30337  10.027  10.533   7.643 -0.0322 -0.4243  0.9933
  225MOL0     H30338  10.154  10.731   7.647 -1.2860  0.6863  2.8591
  225MOL0     H30339  10.315  10.901   7.625 -1.7220  0.3119  0.0873
  225MOL0     H30340  10.244  10.900   7.790  0.7498  0.0768  0.9009
  225MOL0     H30341  10.377  11.097   7.768  0.2951 -0.3812  0.5526
  225MOL0     H30342  10.451  11.000   7.890  0.8994  0.7499  0.9124
  225MOL0     H30343  10.598  10.905   7.726 -2.9171  0.8102  1.2974
  225MOL0     H30344  10.546  11.005   7.588  2.8754  2.0067 -1.0144
  225MOL0     H30345  10.691  11.101   7.832  1.0744 -1.3329 -0.8706
  225MOL0     H30346  10.605  11.208   7.719  1.3081 -0.0059 -1.5838
  225MOL0     H30347  10.734  11.104   7.530 -0.6198  2.0943  1.0477
  225MOL0     H30348  10.808  10.996   7.644 -2.7336 -0.9301 -3.2034
  225MOL0     H30349  10.811  11.309   7.662 -0.9773 -1.0351 -0.3770
  225MOL0     H30350  10.913  11.209   7.756 -0.4310 -1.5806  0.6441
  225MOL0     H30351  10.930  11.182   7.451  0.5447 -0.6546  0.6604
  225MOL0     H30352  11.040  11.128   7.573 -1.4370 -1.4730 -2.3867
  225MOL0     H30353  11.105  11.333   7.437  2.6204  0.6842  1.6496
  225MOL0     H30354  10.975  11.426   7.513  0.7517  0.2889 -0.9792
  225MOL0     H30355  10.481  10.531   7.832  1.5560  1.9848 -0.8620
  225MOL0     H30356  10.362  10.307   7.798 -0.5207 -1.6656 -1.7661
  225MOL0     H30357   9.938  10.140   7.579  1.1914 -0.4312 -0.1955
  225MOL0     H30358   9.775   9.953   7.557 -1.7774 -1.2464  1.7448
  225MOL0     H30359   8.098   9.442   8.084  1.5675  1.0762  0.7028
  225MOL0     H30360   7.901   9.337   8.089 -2.9952  2.7651 -0.2670
  225MOL0     H30361   7.556   9.213   8.486  0.1930  1.4188 -0.2494
  225MOL0     H30362   7.363   9.078   8.541  0.8946  2.9983  1.3298
  225MOL0     H30363   7.189   8.782   8.246  1.6587  0.2082  0.8257
  225MOL0     H30364   7.119   8.944   8.197  2.8877  0.2817 -0.6497
  225MOL0     H30365   6.934   8.778   8.271  1.0673  0.9214 -0.8846
  225MOL0     H30366   6.945   8.929   8.353  0.5415  1.1662 -0.5389
  225MOL0     H30367   7.003   8.846   8.550 -2.5816  0.8750 -0.1638
  225MOL0     H30368   7.097   8.711   8.476 -0.5187  1.1069  1.6455
  225MOL0     H30369   6.883   8.587   8.420  0.7135  1.5737 -1.7395
  225MOL0     H30370   6.906   8.613   8.585 -1.2408 -0.0651 -0.0260
  225MOL0     H30371   6.582   8.866   8.533 -0.3988 -2.3422  0.6327
  225MOL0     H30372   7.359   8.898   8.148 -3.8481 -1.2928  3.3018
  225MOL0     H30373   7.580   9.086   7.983  1.4321  0.8400  0.5572
  225MOL0     H30374   7.698   9.018   8.092  0.2294  1.4213  0.6929
  225MOL0     H30375   7.589   8.909   8.021  2.4449  0.5642 -1.3396
  226MOL0     O30376   5.514   2.520   8.682  0.4019 -0.1695 -0.0517
  226MOL0     C30377   5.436   2.425   8.703 -0.9761 -0.3279 -0.5274
  226MOL0     O30378   5.453   2.299   8.655 -0.3674  0.1811 -0.1599
  226MOL0     C30379   5.542   2.276   8.557 -0.2656  1.2356 -0.9978
  226MOL0     C30380   5.508   2.308   8.429 -0.1775 -0.1473 -0.5715
  226MOL0     C30381   5.588   2.293   8.319  0.5504  0.5146  0.7306
  226MOL0     C30382   5.704   2.219   8.335  0.5157  0.6553  0.3727
  226MOL0     O30383   5.771   2.177   8.231 -0.4134  0.1692 -0.9944
  226MOL0     C30384   5.851   2.274   8.160 -0.5011 -0.6278 -0.3361
  226MOL0     C30385   5.986   2.225   8.113  0.3981 -0.0034 -0.2955
  226MOL0     C30386   6.064   2.346   8.056 -0.1242 -0.4549 -0.3539
  226MOL0     C30387   6.218   2.321   8.043  0.6865 -0.7243  0.5101
  226MOL0     C30388   6.282   2.408   7.940 -0.3818 -0.0846 -0.5112
  226MOL0     C30389   6.433   2.375   7.928  0.5272  0.6854  0.2724
  226MOL0     C30390   6.513   2.489   7.849 -0.1840 -0.1914  0.2165
  226MOL0     C30391   6.456   2.516   7.713 -0.1512 -0.5830  0.3934
  226MOL0     N30392   6.553   2.588   7.622 -0.0132  0.1617  0.3071
  226MOL0     C30393   6.545   2.603   7.481 -0.5603 -0.4716 -1.2412
  226MOL0     C30394   6.659   2.660   7.440 -0.4847 -0.4235  0.2698
  226MOL0     C30395   6.677   2.712   7.301 -0.4310  1.6841 -0.0906
  226MOL0     C30396   6.817   2.752   7.259  0.0561 -0.5958 -0.1717
  226MOL0     C30397   6.819   2.765   7.106 -0.2636 -0.4273 -0.2232
  226MOL0     C30398   6.949   2.821   7.051  0.0066 -0.3757 -0.2578
  226MOL0     O30399   7.062   2.730   7.071  0.0449  1.0931 -0.4134
  226MOL0     C30400   7.180   2.768   7.010 -0.2658 -0.4647  0.8904
  226MOL0     C30401   7.281   2.671   7.020 -0.7187 -0.5345  0.0905
  226MOL0     C30402   7.411   2.709   6.964 -0.1477 -0.4955 -0.4197
  226MOL0     C30403   7.436   2.832   6.892 -0.2817  0.5324 -0.1763
  226MOL0     C30404   7.568   2.865   6.843 -0.9545 -0.0909  0.4527
  226MOL0     O30405   7.674   2.777   6.847 -0.0798  0.4631  0.1327
  226MOL0     C30406   7.792   2.800   6.785 -0.4746  0.8012  0.4961
  226MOL0     C30407   7.807   2.838   6.656  0.6168 -0.4531  0.1065
  226MOL0     C30408   7.931   2.866   6.604 -0.3623  0.4463  0.3516
  226MOL0     C30409   8.043   2.867   6.687  1.0549 -0.2057  0.2321
  226MOL0     O30410   8.158   2.909   6.616  0.4216 -0.0834  0.0661
  226MOL0     C30411   8.268   2.942   6.698 -0.1583 -0.2370 -0.4233
  226MOL0     C30412   8.383   2.986   6.606 -0.1774  0.4719  0.1594
  226MOL0     C30413   8.499   3.076   6.675  0.7189  0.0855 -0.5010
  226MOL0     C30414   8.621   3.087   6.590  0.1620 -0.4334  0.1446
  226MOL0     C30415   8.724   3.170   6.659  0.3963 -0.1170 -0.2720
  226MOL0     C30416   8.847   3.163   6.569 -0.1066  0.5161  0.4296
  226MOL0     C30417   8.968   3.237   6.620 -0.0071  0.2544  0.3643
  226MOL0     C30418   9.056   3.258   6.497  0.3033  0.0137  0.7463
  226MOL0    Cl30419   9.219   3.331   6.542  0.1052 -0.5172  0.3599
  226MOL0     C30420   8.027   2.832   6.820 -0.0361 -0.5578 -0.2386
  226MOL0     C30421   7.906   2.788   6.871  0.2442  0.1693  0.3757
  226MOL0     O30422   7.568   2.970   6.781  0.5326 -1.5707 -0.0500
  226MOL0     C30423   7.328   2.914   6.880 -0.7721  0.3264  0.8637
  226MOL0     C30424   7.203   2.889   6.945  0.0864  0.3639  0.1703
  226MOL0     N30425   6.747   2.671   7.552  0.1697 -0.4183  1.1261
  226MOL0     N30426   6.683   2.632   7.656 -0.1156 -0.0929  0.5703
  226MOL0     C30427   5.749   2.172   8.464 -0.4304 -0.6273  0.4341
  226MOL0     C30428   5.668   2.210   8.575  0.3429 -0.0782  0.3221
  226MOL0     C30429   5.316   2.460   8.786  0.5757  0.9798  0.4486
  226MOL0     C30430   5.188   2.430   8.740  0.1445  0.2981 -0.0127
  226MOL0     C30431   5.072   2.473   8.815  0.1969 -0.6538  0.2825
  226MOL0     C30432   5.084   2.533   8.938  0.6270  0.2244  0.2478
  226MOL0     O30433   4.986   2.595   9.005  0.8705 -0.1819 -0.5932
  226MOL0     C30434   4.848   2.584   8.951  0.6746  1.4134 -0.8454
  226MOL0     C30435   4.784   2.453   8.991 -0.2986 -0.1091 -0.6942
  226MOL0     C30436   4.638   2.441   8.959  0.3777 -0.7654  0.2998
  226MOL0     C30437   4.572   2.326   9.048 -0.6458 -0.5260 -0.5869
  226MOL0     C30438   4.439   2.293   9.009  1.1696 -0.7114  0.1215
  226MOL0     C30439   4.331   2.253   8.989  0.4872 -0.8371  0.0591
  226MOL0     C30440   5.213   2.553   8.988  0.3118  0.2521  1.0893
  226MOL0     C30441   5.328   2.519   8.915  0.4207 -0.5657 -0.2516
  226MOL0     C30442   5.451   2.542   8.988 -0.5904  0.1640  0.5530
  226MOL0     H30443   5.417   2.364   8.406  0.3523  1.6621  1.5011
  226MOL0     H30444   5.552   2.327   8.222 -1.1913  0.1728  1.2200
  226MOL0     H30445   5.788   2.284   8.071  1.5294 -1.7408 -2.0083
  226MOL0     H30446   5.856   2.368   8.216 -1.7089  1.2400 -3.1307
  226MOL0     H30447   5.972   2.145   8.040  0.4730 -1.3667  1.1306
  226MOL0     H30448   6.036   2.181   8.200  3.0101  2.1066 -0.6059
  226MOL0     H30449   6.052   2.437   8.116 -0.0159  0.6593 -1.9825
  226MOL0     H30450   6.021   2.392   7.967 -1.0512 -0.7970 -0.0952
  226MOL0     H30451   6.264   2.342   8.140 -0.3007  1.5209  0.5684
  226MOL0     H30452   6.230   2.217   8.013 -1.1170 -0.9946  0.5998
  226MOL0     H30453   6.244   2.394   7.838  2.5138 -2.3718 -1.4214
  226MOL0     H30454   6.279   2.512   7.971 -0.4429 -0.2677  0.1053
  226MOL0     H30455   6.472   2.365   8.030  0.2691  1.6988  0.4898
  226MOL0     H30456   6.435   2.278   7.878 -1.9202  0.8717 -0.3294
  226MOL0     H30457   6.611   2.445   7.829  0.0070  0.5970 -0.7009
  226MOL0     H30458   6.517   2.578   7.912 -2.7366  0.8815 -0.9710
  226MOL0     H30459   6.436   2.422   7.659  1.3267 -2.8408  3.4705
  226MOL0     H30460   6.365   2.577   7.723  1.5970  1.7702  3.8379
  226MOL0     H30461   6.455   2.580   7.426 -2.8948  4.5682 -0.1125
  226MOL0     H30462   6.644   2.643   7.223  0.3716  0.7414  0.3727
  226MOL0     H30463   6.610   2.796   7.282 -2.4992 -0.2309 -1.8240
  226MOL0     H30464   6.836   2.854   7.292 -1.3725 -0.9245  1.8563
  226MOL0     H30465   6.881   2.671   7.296 -0.9190 -1.9651 -1.3658
  226MOL0     H30466   6.741   2.838   7.082 -0.0965 -0.7111 -1.6938
  226MOL0     H30467   6.790   2.674   7.052  2.2652 -1.1013 -0.5525
  226MOL0     H30468   6.959   2.919   7.098  1.9356 -0.9343  0.5914
  226MOL0     H30469   6.945   2.839   6.943 -2.2917  0.2954 -0.1150
  226MOL0     H30470   7.258   2.577   7.070  0.0691 -1.4323 -1.1604
  226MOL0     H30471   7.491   2.639   6.986  1.1058  1.3831  1.2770
  226MOL0     H30472   7.716   2.867   6.605 -0.1794 -2.4026  0.3102
  226MOL0     H30473   7.930   2.915   6.507 -1.0466 -2.0710 -0.9989
  226MOL0     H30474   8.246   3.016   6.775 -1.1311 -0.8717 -0.0721
  226MOL0     H30475   8.301   2.853   6.751 -2.3383 -0.4288  0.7194
  226MOL0     H30476   8.430   2.893   6.572 -1.0191 -0.1562  0.6971
  226MOL0     H30477   8.351   3.041   6.517 -1.9499 -0.4387  0.2058
  226MOL0     H30478   8.459   3.178   6.676  1.0412  0.2245  1.2779
  226MOL0     H30479   8.533   3.050   6.776  1.6238  0.2604 -0.7528
  226MOL0     H30480   8.592   3.130   6.494 -2.7599 -0.0104  1.1237
  226MOL0     H30481   8.651   2.984   6.568 -2.8725 -2.0071  2.5168
  226MOL0     H30482   8.744   3.126   6.758 -2.5946 -1.1434 -0.0335
  226MOL0     H30483   8.688   3.271   6.679  2.0222  0.5852 -0.7155
  226MOL0     H30484   8.889   3.067   6.538  0.0734 -0.0466  2.2715
  226MOL0     H30485   8.817   3.222   6.482  0.2590  1.9026  1.2108
  226MOL0     H30486   9.025   3.176   6.690 -1.7834  0.5629  2.1740
  226MOL0     H30487   8.937   3.330   6.669  4.4216  1.5387  1.1596
  226MOL0     H30488   9.082   3.154   6.477  0.1201 -0.3010  2.0598
  226MOL0     H30489   9.007   3.315   6.418 -2.0136 -3.6098 -0.7023
  226MOL0     H30490   8.120   2.831   6.875  1.0170 -1.2342 -1.9261
  226MOL0     H30491   7.904   2.754   6.974 -1.7529 -2.7955 -0.5046
  226MOL0     H30492   7.341   3.011   6.832 -3.6442  1.1005  1.4470
  226MOL0     H30493   7.137   2.975   6.953  1.6821  1.7009 -0.2232
  226MOL0     H30494   5.849   2.132   8.478  0.5722  2.0063  1.3065
  226MOL0     H30495   5.703   2.195   8.676  2.9263 -2.3952 -0.7867
  226MOL0     H30496   5.183   2.397   8.637  1.8146  0.4062 -0.1618
  226MOL0     H30497   4.978   2.462   8.764 -0.7659  4.6907  0.3731
  226MOL0     H30498   4.834   2.587   8.843  0.0788 -0.8961 -0.8717
  226MOL0     H30499   4.788   2.664   8.996 -0.4657  0.6126 -0.9148
  226MOL0     H30500   4.786   2.448   9.101  1.3590  0.4536 -0.6821
  226MOL0     H30501   4.834   2.372   8.938 -1.1933  0.0664 -1.8433
  226MOL0     H30502   4.619   2.421   8.853 -1.8956  2.8602 -0.1931
  226MOL0     H30503   4.593   2.540   8.974  1.3446 -0.2422 -0.1801
  226MOL0     H30504   4.641   2.243   9.036  1.7825  1.2295  0.3970
  226MOL0     H30505   4.585   2.348   9.155  0.5965  1.6788 -1.1303
  226MOL0     H30506   4.231   2.218   8.973  0.2668 -1.0272  1.6845
  226MOL0     H30507   5.236   2.589   9.088  2.7801  1.0570  0.3093
  226MOL0     H30508   5.499   2.634   8.952 -0.9520 -0.1919 -0.8846
  226MOL0     H30509   5.438   2.549   9.097  0.0593 -1.3402  0.7597
  226MOL0     H30510   5.510   2.452   8.966 -0.3595 -0.9614  4.7698
  227MOL0     O30511   2.234  10.093   8.209  0.0695  0.2571  0.0949
  227MOL0     C30512   2.217   9.983   8.152  0.0842  0.9552 -0.3053
  227MOL0     O30513   2.314   9.921   8.069  0.4615  0.0650 -0.4344
  227MOL0     C30514   2.441   9.963   8.081 -0.0394  0.1617 -0.2145
  227MOL0     C30515   2.511   9.994   7.965  0.3757 -0.6674  0.7862
  227MOL0     C30516   2.650  10.027   7.971  0.2263 -0.2980 -0.2697
  227MOL0     C30517   2.733  10.003   8.081  0.6012  1.1404 -0.3753
  227MOL0     O30518   2.869  10.003   8.066  0.2736  0.0802  0.2202
  227MOL0     C30519   2.951   9.991   8.177  0.2988  0.7836 -0.5937
  227MOL0     C30520   3.081   9.951   8.116 -0.8281  0.5410 -0.0503
  227MOL0     C30521   3.199   9.965   8.222  0.2216 -0.5535 -0.1549
  227MOL0     C30522   3.334   9.896   8.171  0.1202 -0.6516  0.3233
  227MOL0     C30523   3.426   9.876   8.296  0.4967  0.1514 -0.2038
  227MOL0     C30524   3.551   9.777   8.275  0.8685 -0.1769  0.2377
  227MOL0     C30525   3.644   9.817   8.158  0.4018 -0.1305  0.5967
  227MOL0     C30526   3.741   9.698   8.153 -0.3808 -0.1641 -0.6370
  227MOL0     N30527   3.862   9.750   8.083  0.6783  0.8812 -0.5673
  227MOL0     C30528   3.976   9.772   8.142  0.0538 -0.3928 -0.0136
  227MOL0     C30529   4.048   9.808   8.032 -0.0338 -0.3161  0.1290
  227MOL0     C30530   4.186   9.867   8.031  0.2232  0.7483  0.1720
  227MOL0     C30531   4.298   9.766   8.009  0.3135  0.1919 -0.5460
  227MOL0     C30532   4.439   9.824   7.989 -0.1458  0.2290  0.7391
  227MOL0     C30533   4.456   9.855   7.839  0.4422  0.0653 -0.1961
  227MOL0     O30534   4.560   9.950   7.804  0.2655  0.4182  0.1906
  227MOL0     C30535   4.685   9.922   7.836  0.6471 -0.4366  0.8525
  227MOL0     C30536   4.721   9.787   7.834 -0.3645 -0.6395  0.1928
  227MOL0     C30537   4.858   9.753   7.867 -0.5278 -0.2666 -0.6128
  227MOL0     C30538   4.951   9.854   7.885 -1.0846 -0.2565  0.2602
  227MOL0     C30539   5.092   9.821   7.914  0.6295 -0.0094  0.4895
  227MOL0     O30540   5.142   9.696   7.891 -0.1850 -0.3402 -0.3449
  227MOL0     C30541   5.273   9.675   7.928 -0.1996  0.3847 -0.0388
  227MOL0     C30542   5.371   9.747   7.863 -0.3515 -0.6161  0.1158
  227MOL0     C30543   5.509   9.729   7.891  0.2410 -0.6149 -0.0238
  227MOL0     C30544   5.553   9.623   7.968 -0.3638  0.8091 -0.1619
  227MOL0     O30545   5.692   9.599   7.976  0.1094 -0.4861 -0.1188
  227MOL0     C30546   5.732   9.524   8.092 -0.0475  0.9151 -0.4007
  227MOL0     C30547   5.871   9.570   8.146 -0.2020 -0.4435 -0.0254
  227MOL0     C30548   5.976   9.532   8.038 -0.1125 -0.4571  0.4832
  227MOL0     C30549   6.122   9.554   8.083  0.9531  0.3511  0.5325
  227MOL0     C30550   6.219   9.490   7.977 -0.6199 -0.0013 -0.3188
  227MOL0     C30551   6.363   9.493   8.036 -1.2452 -0.4046  0.5395
  227MOL0     C30552   6.474   9.429   7.949 -0.2638 -0.2800 -0.2466
  227MOL0     C30553   6.598   9.376   8.030  0.4024 -0.6853  0.2560
  227MOL0    Cl30554   6.705   9.506   8.096 -0.5143  0.0232  0.1708
  227MOL0     C30555   5.451   9.541   8.026  0.5902  0.2207 -0.0852
  227MOL0     C30556   5.310   9.567   8.008 -0.9192 -0.3533 -0.3438
  227MOL0     O30557   5.155   9.913   7.964  0.2544  0.1020 -0.6483
  227MOL0     C30558   4.911   9.990   7.877  0.6728 -1.2225  0.6469
  227MOL0     C30559   4.772  10.027   7.855 -0.6382 -0.2546  0.5878
  227MOL0     N30560   3.976   9.801   7.919  0.5537 -0.1247  0.4964
  227MOL0     N30561   3.862   9.763   7.952  0.5830 -0.2072 -0.1748
  227MOL0     C30562   2.661   9.974   8.196 -0.0092 -1.0435 -0.9444
  227MOL0     C30563   2.518   9.957   8.204 -0.2428  0.0326  0.6399
  227MOL0     C30564   2.082   9.909   8.160  0.3987 -1.6461 -0.0384
  227MOL0     C30565   2.060   9.795   8.086  0.6208  0.2833  0.8609
  227MOL0     C30566   1.950   9.703   8.090 -0.0599  0.5926  0.2497
  227MOL0     C30567   1.848   9.745   8.172 -0.1168 -0.2137  0.5243
  227MOL0     O30568   1.735   9.668   8.181 -0.0514  0.4139 -0.6219
  227MOL0     C30569   1.636   9.687   8.282 -0.0093  0.1986  0.1636
  227MOL0     C30570   1.523   9.768   8.221 -0.0624 -0.4249  0.2425
  227MOL0     C30571   1.427   9.820   8.326  0.7152  0.1596 -0.5154
  227MOL0     C30572   1.318   9.916   8.267 -0.4843 -0.4892 -0.0288
  227MOL0     C30573   1.227   9.835   8.178  0.6373  0.3675 -0.1658
  227MOL0     C30574   1.149   9.784   8.096  0.4831  0.0586 -0.4874
  227MOL0     C30575   1.860   9.868   8.239  0.4358  0.9244 -0.6141
  227MOL0     C30576   1.968   9.949   8.233 -0.3667  0.4275 -0.2583
  227MOL0     C30577   1.950  10.076   8.311  0.2734  0.6417 -0.3796
  227MOL0     H30578   2.470   9.997   7.865  1.0032 -2.0331  0.4718
  227MOL0     H30579   2.696  10.062   7.879  0.3591  2.9274  0.9014
  227MOL0     H30580   2.951  10.083   8.237 -2.0212 -0.2092  1.1317
  227MOL0     H30581   2.925   9.911   8.248 -0.7319  2.9427  1.6175
  227MOL0     H30582   3.093  10.028   8.039  1.2523  1.1322  0.8007
  227MOL0     H30583   3.079   9.848   8.079  2.9168  0.7104 -1.0445
  227MOL0     H30584   3.176   9.906   8.311  0.2145 -0.6272 -0.2040
  227MOL0     H30585   3.225  10.068   8.247 -0.1973 -0.3426 -0.5717
  227MOL0     H30586   3.305   9.802   8.124  0.3135 -0.6657  0.2291
  227MOL0     H30587   3.386   9.954   8.093  1.6100 -0.8980  1.0908
  227MOL0     H30588   3.474   9.970   8.326 -1.5452  1.1329  0.1541
  227MOL0     H30589   3.371   9.829   8.378  0.6723  0.1064 -0.1112
  227MOL0     H30590   3.611   9.769   8.366 -0.7461 -1.5286  1.2452
  227MOL0     H30591   3.503   9.683   8.247 -0.2665  0.6061 -0.5889
  227MOL0     H30592   3.698   9.910   8.175 -0.0842  0.6761 -1.8039
  227MOL0     H30593   3.590   9.828   8.063  0.9470  0.4937  0.3585
  227MOL0     H30594   3.781   9.661   8.248  1.0839 -0.3524 -1.2999
  227MOL0     H30595   3.706   9.605   8.108  1.4832 -1.9961  1.4606
  227MOL0     H30596   4.018   9.758   8.241  0.4150 -1.7087 -0.3359
  227MOL0     H30597   4.191   9.937   7.947 -2.7492 -1.3279 -1.9297
  227MOL0     H30598   4.214   9.909   8.128 -1.3871 -2.7583  2.3270
  227MOL0     H30599   4.288   9.712   8.103 -0.9871 -0.1882 -0.8846
  227MOL0     H30600   4.274   9.700   7.924  2.5140 -0.5321 -0.6781
  227MOL0     H30601   4.517   9.753   8.019  0.8924  1.0681  0.1104
  227MOL0     H30602   4.437   9.916   8.048 -5.2164  0.9879 -0.1925
  227MOL0     H30603   4.355   9.880   7.806  0.8439  0.9646 -0.7662
  227MOL0     H30604   4.467   9.762   7.783  2.4620 -0.8101  1.5131
  227MOL0     H30605   4.659   9.706   7.799  1.0413 -1.6475 -0.0627
  227MOL0     H30606   4.884   9.648   7.882  0.4626  0.0966  0.4163
  227MOL0     H30607   5.342   9.834   7.805 -0.7161  0.6733  2.1429
  227MOL0     H30608   5.584   9.799   7.855 -1.2106  0.8913 -0.2423
  227MOL0     H30609   5.653   9.520   8.168  2.0606  1.7694  2.0030
  227MOL0     H30610   5.752   9.422   8.056  0.9122  1.6483 -2.0674
  227MOL0     H30611   5.867   9.678   8.164 -0.5559 -0.6763  1.4092
  227MOL0     H30612   5.898   9.515   8.237 -0.8351 -2.4660 -1.0149
  227MOL0     H30613   5.966   9.426   8.017  2.8801 -0.4863 -1.4634
  227MOL0     H30614   5.969   9.598   7.951 -0.1856  1.0833  1.6170
  227MOL0     H30615   6.138   9.497   8.176  0.9937 -3.1044 -1.4463
  227MOL0     H30616   6.138   9.661   8.104  0.1639  0.4772  0.5072
  227MOL0     H30617   6.219   9.549   7.885  0.0224  0.8165  0.1868
  227MOL0     H30618   6.192   9.387   7.950 -2.1299  0.8739 -2.4739
  227MOL0     H30619   6.403   9.593   8.059  0.7519 -0.7689 -1.0515
  227MOL0     H30620   6.363   9.438   8.130  0.8347  3.3571  2.9817
  227MOL0     H30621   6.512   9.503   7.878  0.0993  0.6716  0.9079
  227MOL0     H30622   6.441   9.335   7.904  3.9424 -2.3454  0.5338
  227MOL0     H30623   6.558   9.303   8.100 -1.2656  0.1752  0.2382
  227MOL0     H30624   6.665   9.321   7.963  1.0924 -0.1097  0.4480
  227MOL0     H30625   5.465   9.452   8.087  1.9564 -1.1286 -2.2445
  227MOL0     H30626   5.229   9.512   8.055  0.1356 -0.5464  1.3289
  227MOL0     H30627   4.975  10.077   7.885  0.8438 -1.2347 -0.4305
  227MOL0     H30628   4.747  10.130   7.833  1.8008  0.0758 -0.9419
  227MOL0     H30629   2.710   9.965   8.293  0.5432 -0.3920 -1.1572
  227MOL0     H30630   2.472   9.941   8.302  0.0466  0.9388  0.9305
  227MOL0     H30631   2.137   9.755   8.022 -1.1769 -0.3432 -1.0451
  227MOL0     H30632   1.959   9.610   8.035  0.6226  0.5549  0.4204
  227MOL0     H30633   1.692   9.726   8.367  3.5739 -1.2284 -1.3071
  227MOL0     H30634   1.589   9.593   8.313 -1.7979  0.9478 -0.1685
  227MOL0     H30635   1.472   9.700   8.153  1.8462 -0.3388 -1.3796
  227MOL0     H30636   1.550   9.859   8.166 -1.8470  1.1151  1.7500
  227MOL0     H30637   1.491   9.863   8.404  1.4000 -0.3186 -0.8067
  227MOL0     H30638   1.385   9.733   8.377  3.0576  0.0023  1.3502
  227MOL0     H30639   1.267   9.964   8.351  0.0315  0.9392 -0.5096
  227MOL0     H30640   1.363   9.993   8.204  1.2370 -2.7609 -1.7483
  227MOL0     H30641   1.087   9.749   8.015  0.9103  1.7792 -1.5981
  227MOL0     H30642   1.773   9.912   8.288 -0.5353  0.4449 -1.8397
  227MOL0     H30643   1.860  10.126   8.275 -1.0693 -2.9248 -2.5779
  227MOL0     H30644   1.927  10.050   8.415 -1.4352 -0.1667 -0.9113
  227MOL0     H30645   2.034  10.146   8.318 -0.1502  1.0201  1.4348
  228MOL0     O30646   2.676   6.181   0.230 -0.1924  0.2993 -0.4438
  228MOL0     C30647   2.595   6.178   0.318  0.0741  0.0318  0.2121
  228MOL0     O30648   2.462   6.223   0.307  0.0370  0.2361 -0.3325
  228MOL0     C30649   2.402   6.273   0.192  0.3908  0.1662 -0.9075
  228MOL0     C30650   2.262   6.288   0.201  0.5812 -0.9134  0.1027
  228MOL0     C30651   2.179   6.331   0.095  0.4584  1.1986  0.2242
  228MOL0     C30652   2.239   6.374  -0.021  0.5407  0.5287 -0.1019
  228MOL0     O30653   2.170   6.408  -0.130  0.9393 -0.6820  0.4293
  228MOL0     C30654   2.046   6.343  -0.167  0.3784 -0.1033 -0.5660
  228MOL0     C30655   2.040   6.327  -0.325 -0.4785 -0.0823 -0.9222
  228MOL0     C30656   2.127   6.221  -0.373  0.8121 -0.3505  0.8170
  228MOL0     C30657   2.107   6.186  -0.532  1.2887 -0.2841 -0.3675
  228MOL0     C30658   2.229   6.117  -0.587 -0.1632 -0.3535 -0.4183
  228MOL0     C30659   2.358   6.210  -0.575  0.1819 -1.3017  0.4589
  228MOL0     C30660   2.479   6.177  -0.645 -0.0118  0.6469 -0.6402
  228MOL0     C30661   2.531   6.029  -0.610  0.2694 -0.5255  0.0304
  228MOL0     N30662   2.555   6.009  -0.466 -0.3672  0.2928 -0.3850
  228MOL0     C30663   2.676   6.055  -0.409  0.6926  0.0590  0.3167
  228MOL0     C30664   2.654   6.025  -0.277 -0.5421 -0.4877  0.1121
  228MOL0     C30665   2.755   6.081  -0.179  0.5227 -0.4565  0.0406
  228MOL0     C30666   2.820   5.974  -0.090 -0.2976 -1.1371 -0.6643
  228MOL0     C30667   2.717   5.908   0.006 -0.1815 -0.4182 -0.4193
  228MOL0     C30668   2.785   5.787   0.077  0.3128 -0.5350 -0.8129
  228MOL0     O30669   2.897   5.840   0.153  0.1700  0.1689 -0.0769
  228MOL0     C30670   3.006   5.759   0.179  0.1722 -0.1556  0.6661
  228MOL0     C30671   3.005   5.621   0.189  0.0617 -0.3164  0.4462
  228MOL0     C30672   3.129   5.554   0.188 -0.1334  0.3084 -0.3067
  228MOL0     C30673   3.255   5.624   0.173  0.1847  0.4352 -0.1249
  228MOL0     C30674   3.377   5.540   0.182  0.3639 -0.1384 -0.4548
  228MOL0     O30675   3.490   5.602   0.230  0.8313  0.3392  0.1809
  228MOL0     C30676   3.617   5.552   0.222  0.3486 -0.3763  0.1945
  228MOL0     C30677   3.652   5.431   0.170 -0.0592  0.2229  0.1303
  228MOL0     C30678   3.786   5.388   0.179 -0.5411 -0.5032  0.5997
  228MOL0     C30679   3.888   5.468   0.235 -0.0680 -0.4821 -0.5356
  228MOL0     O30680   4.014   5.410   0.258 -0.0195 -0.6008  0.3081
  228MOL0     C30681   4.117   5.496   0.310  0.1784 -0.5190 -0.2365
  228MOL0     C30682   4.232   5.411   0.350 -0.4610  1.0022 -0.6090
  228MOL0     C30683   4.361   5.485   0.394 -1.3921  0.3399  0.5969
  228MOL0     C30684   4.454   5.506   0.269 -0.5722 -0.8345  0.1333
  228MOL0     C30685   4.598   5.526   0.304 -0.2838  0.6015  0.3595
  228MOL0     C30686   4.689   5.560   0.180 -0.0825  0.2504 -0.7928
  228MOL0     C30687   4.828   5.600   0.223  0.7392 -0.9506 -0.2127
  228MOL0     C30688   4.921   5.592   0.097 -0.0967  0.1977  0.8564
  228MOL0    Cl30689   5.086   5.658   0.136  0.3478 -0.4879  0.3494
  228MOL0     C30690   3.838   5.597   0.285 -0.1399  0.1752  0.3672
  228MOL0     C30691   3.711   5.638   0.279  0.6821  1.1927 -0.1739
  228MOL0     O30692   3.373   5.429   0.131 -1.0423  0.4060  0.3117
  228MOL0     C30693   3.261   5.760   0.180  0.7195 -0.0073  0.3658
  228MOL0     C30694   3.134   5.825   0.170  0.2340 -0.2338 -0.3558
  228MOL0     N30695   2.545   5.946  -0.259 -0.4852 -0.1509  0.0948
  228MOL0     N30696   2.479   5.939  -0.376  0.3156  0.9216  0.3067
  228MOL0     C30697   2.379   6.379  -0.026 -0.2537 -0.4984 -0.7508
  228MOL0     C30698   2.456   6.322   0.076 -0.5936  0.6165 -0.6914
  228MOL0     C30699   2.637   6.105   0.441 -0.2588  0.5082 -0.5742
  228MOL0     C30700   2.538   6.062   0.535  0.1653 -0.1906 -1.2173
  228MOL0     C30701   2.566   5.962   0.640  0.5004 -0.5562 -0.1407
  228MOL0     C30702   2.697   5.915   0.646  0.4045  0.8196  0.9741
  228MOL0     O30703   2.709   5.803   0.724  0.3200 -0.7762  0.2782
  228MOL0     C30704   2.838   5.780   0.787 -0.0989 -0.0373 -1.3131
  228MOL0     C30705   2.801   5.688   0.915  0.2096  0.5356 -0.4767
  228MOL0     C30706   2.934   5.630   0.979  0.0792  0.0817 -0.3116
  228MOL0     C30707   3.026   5.739   1.035  0.1686 -0.0745  0.1863
  228MOL0     C30708   2.967   5.817   1.147  0.2447 -0.4595  0.3495
  228MOL0     C30709   2.928   5.871   1.247 -0.1392  0.1909  0.1297
  228MOL0     C30710   2.794   5.961   0.564 -0.5359 -0.4921 -2.0097
  228MOL0     C30711   2.772   6.064   0.476  0.0201  0.4298  0.4596
  228MOL0     C30712   2.900   6.107   0.403  0.0882  0.6567 -0.5761
  228MOL0     H30713   2.233   6.273   0.304  0.9334  2.6428  0.8246
  228MOL0     H30714   2.072   6.339   0.112  0.7870  1.9103  2.2661
  228MOL0     H30715   2.036   6.241  -0.128 -2.8581  0.7720  1.2427
  228MOL0     H30716   1.957   6.399  -0.138  0.6468 -0.9808  2.2760
  228MOL0     H30717   2.076   6.423  -0.364  0.0814 -0.1527 -0.5933
  228MOL0     H30718   1.937   6.307  -0.356 -1.4941  0.0546  2.0610
  228MOL0     H30719   2.110   6.132  -0.312 -2.7212  0.2364  0.8981
  228MOL0     H30720   2.227   6.257  -0.350  0.9761 -2.1297  3.2822
  228MOL0     H30721   2.011   6.134  -0.537 -0.0926  1.8433  1.8032
  228MOL0     H30722   2.090   6.273  -0.596  1.5651  0.3625  0.4151
  228MOL0     H30723   2.241   6.025  -0.528 -2.9694  1.2513  3.0334
  228MOL0     H30724   2.200   6.082  -0.686 -0.4327  0.0959 -0.4971
  228MOL0     H30725   2.337   6.316  -0.594  1.7156 -1.3034 -1.6715
  228MOL0     H30726   2.390   6.225  -0.471  0.7357 -2.0829  0.4131
  228MOL0     H30727   2.555   6.253  -0.625  0.7334  0.3770 -2.2337
  228MOL0     H30728   2.458   6.175  -0.752 -0.4588  0.7196 -0.5533
  228MOL0     H30729   2.454   5.963  -0.650 -1.5909  1.4700  0.1174
  228MOL0     H30730   2.622   6.018  -0.669 -0.3802 -0.7080 -0.9471
  228MOL0     H30731   2.762   6.103  -0.455  0.4547  0.3954  0.2241
  228MOL0     H30732   2.829   6.130  -0.243 -1.3951  2.0321 -0.4119
  228MOL0     H30733   2.705   6.154  -0.115 -1.2207 -0.2713 -1.4758
  228MOL0     H30734   2.864   5.897  -0.154 -0.0652 -1.5377 -0.0363
  228MOL0     H30735   2.907   6.021  -0.043 -1.8228 -2.1326  3.5742
  228MOL0     H30736   2.635   5.861  -0.049 -1.0103 -1.9100  1.9396
  228MOL0     H30737   2.683   5.981   0.079  1.1281 -1.1436  0.9666
  228MOL0     H30738   2.825   5.713   0.007  0.0658 -1.6024  0.1367
  228MOL0     H30739   2.714   5.727   0.136  0.5137  0.2321  0.2409
  228MOL0     H30740   2.917   5.557   0.189 -1.2553  1.0878 -4.5454
  228MOL0     H30741   3.137   5.447   0.199  0.6134  0.3253 -0.5952
  228MOL0     H30742   3.585   5.365   0.116  1.2326  0.2919 -1.6705
  228MOL0     H30743   3.809   5.285   0.152 -0.3862 -1.5502  4.2382
  228MOL0     H30744   4.145   5.575   0.240  0.9239  0.4885  1.1422
  228MOL0     H30745   4.081   5.554   0.396 -0.6288  0.8361 -1.4307
  228MOL0     H30746   4.200   5.346   0.432  0.9850 -2.1579 -2.3415
  228MOL0     H30747   4.240   5.348   0.261 -1.9905  0.5215 -0.4369
  228MOL0     H30748   4.345   5.584   0.436 -0.3490  0.6363  0.3231
  228MOL0     H30749   4.410   5.421   0.468 -0.7976 -1.3343 -1.1644
  228MOL0     H30750   4.419   5.591   0.209  1.9146  0.9392  1.0474
  228MOL0     H30751   4.439   5.414   0.211  1.1950 -0.3134 -1.2675
  228MOL0     H30752   4.639   5.438   0.355 -1.8782 -0.5198 -0.2375
  228MOL0     H30753   4.600   5.617   0.366 -3.5153  2.3915 -1.8928
  228MOL0     H30754   4.703   5.478   0.108  0.7819  1.4852 -2.1011
  228MOL0     H30755   4.639   5.637   0.121  0.3055  1.6250  0.6274
  228MOL0     H30756   4.870   5.533   0.298  0.3549  0.8633  1.7261
  228MOL0     H30757   4.831   5.704   0.258  1.1756 -1.6320  1.8520
  228MOL0     H30758   4.923   5.490   0.058 -3.3020 -0.8825  3.0614
  228MOL0     H30759   4.899   5.660   0.014  0.6985 -0.5988 -0.0266
  228MOL0     H30760   3.902   5.664   0.341  1.3538 -0.3283 -0.6644
  228MOL0     H30761   3.686   5.737   0.317 -1.0492  0.8487 -0.3280
  228MOL0     H30762   3.347   5.818   0.212 -0.4090  0.2651  3.1930
  228MOL0     H30763   3.141   5.933   0.169  0.7159 -0.2500  0.3935
  228MOL0     H30764   2.418   6.428  -0.115  1.2173  3.3437  1.7650
  228MOL0     H30765   2.565   6.321   0.069 -0.2420 -4.1022  1.7014
  228MOL0     H30766   2.433   6.088   0.526  0.2446  0.2206 -1.0036
  228MOL0     H30767   2.494   5.930   0.714  2.3504 -1.7983  1.2052
  228MOL0     H30768   2.886   5.874   0.814 -1.2589  0.2220 -0.0580
  228MOL0     H30769   2.900   5.721   0.719  0.6387  0.2009 -0.8503
  228MOL0     H30770   2.740   5.602   0.888 -0.6727  1.2037 -0.6349
  228MOL0     H30771   2.737   5.743   0.984 -2.8520 -2.7553 -0.4756
  228MOL0     H30772   2.993   5.590   0.896 -0.8255 -2.7507  0.2936
  228MOL0     H30773   2.912   5.547   1.047 -0.5209  0.0141 -0.5872
  228MOL0     H30774   3.113   5.697   1.088  0.3003 -1.1110 -0.8093
  228MOL0     H30775   3.059   5.811   0.959 -2.9170  0.3776 -0.8652
  228MOL0     H30776   2.886   5.918   1.334 -0.3763 -0.4328  0.3616
  228MOL0     H30777   2.891   5.912   0.570 -0.1284  0.4793  0.6962
  228MOL0     H30778   2.925   6.044   0.317  4.3305 -0.7260  1.3783
  228MOL0     H30779   2.895   6.212   0.375 -0.3831  0.8163  0.0802
  228MOL0     H30780   2.983   6.097   0.473  1.5548  3.2183 -1.8259
  229MOL0     O30781   4.158   5.087  11.011  1.1045  0.2669  0.6403
  229MOL0     C30782   4.069   5.142  11.076  0.4217 -0.7872 -0.7708
  229MOL0     O30783   4.063   5.273  11.110  0.1434  0.2582  0.1041
  229MOL0     C30784   4.165   5.355  11.062  0.0724  0.4902  0.2585
  229MOL0     C30785   4.161   5.414  10.936 -0.8023  0.0194 -1.2535
  229MOL0     C30786   4.264   5.499  10.899  0.2093 -0.0115  0.3510
  229MOL0     C30787   4.361   5.542  10.992  0.6264  0.4741 -0.3641
  229MOL0     O30788   4.454   5.636  10.949  0.0561  0.2218 -0.4390
  229MOL0     C30789   4.551   5.689  11.042  0.4078  0.5513 -0.3026
  229MOL0     C30790   4.639   5.779  10.962 -0.6359  0.9981 -0.5745
  229MOL0     C30791   4.770   5.820  11.036 -0.6258 -0.4350 -0.2507
  229MOL0     C30792   4.880   5.881  10.943  0.4916 -0.5640 -0.0306
  229MOL0     C30793   5.022   5.861  11.004  0.1385 -0.6361 -0.0805
  229MOL0     C30794   5.029   5.940  11.135 -0.2897  0.1436 -0.1989
  229MOL0     C30795   5.168   5.923  11.200 -0.6836  0.5781  0.1487
  229MOL0     C30796   5.182   6.019  11.312 -0.0176 -0.7673 -0.4247
  229MOL0     N30797   5.316   6.026  11.360 -0.8487  0.1046  0.1257
  229MOL0     C30798   5.369   6.124  11.444  0.0149 -0.5123  0.8116
  229MOL0     C30799   5.486   6.081  11.488  0.1526  0.5097 -0.3359
  229MOL0     C30800   5.593   6.144  11.580  0.3849  0.5440 -0.3177
  229MOL0     C30801   5.733   6.086  11.556  0.8465 -0.4415  0.8119
  229MOL0     C30802   5.837   6.162  11.635 -0.4905  0.0914 -0.1329
  229MOL0     C30803   5.889   6.088  11.766  0.3807 -0.5704 -0.2333
  229MOL0     O30804   5.958   6.199  11.832 -1.0913  0.0907  0.1742
  229MOL0     C30805   6.041   6.161  11.938  0.1197  0.7750  0.4562
  229MOL0     C30806   6.123   6.251  12.000 -0.3514  0.5247 -0.0603
  229MOL0     C30807   6.217   6.217  12.092  0.5947  0.2471  0.0270
  229MOL0     C30808   6.226   6.085  12.138  0.5741 -0.2300  0.2205
  229MOL0     C30809   6.307   6.049  12.259  0.6430 -0.2861  0.1844
  229MOL0     O30810   6.407   6.126  12.288  0.4839 -0.0320 -0.3117
  229MOL0     C30811   6.515   6.068  12.349  0.2789 -1.1480 -0.0957
  229MOL0     C30812   6.559   6.121  12.480 -0.1865  0.1211 -0.0472
  229MOL0     C30813   6.678   6.083  12.531 -0.0196 -0.7116 -0.2814
  229MOL0     C30814   6.759   5.986  12.471  1.3196 -0.1159  0.0773
  229MOL0     O30815   6.873   5.958  12.536 -0.0152  0.6168 -0.5146
  229MOL0     C30816   6.985   5.902  12.468 -1.0186  0.4309  0.0423
  229MOL0     C30817   7.104   5.892  12.563  0.4097  0.0679  0.0186
  229MOL0     C30818   7.135   6.022  12.639  0.8330  0.0719  0.3346
  229MOL0     C30819   7.242   6.015  12.750 -0.3900  0.2432 -0.3536
  229MOL0     C30820   7.187   5.953  12.886  0.7511 -0.5932  0.0858
  229MOL0     C30821   7.270   5.982  13.006  1.1098 -0.1357 -0.4254
  229MOL0     C30822   7.201   5.936  13.133 -0.7476  0.4211  0.0718
  229MOL0     C30823   7.299   5.930  13.250  0.9438 -0.0082 -0.1228
  229MOL0    Cl30824   7.358   6.086  13.293  0.0077 -0.5959 -0.1757
  229MOL0     C30825   6.725   5.942  12.346 -0.1765 -0.0582  0.4851
  229MOL0     C30826   6.610   5.988  12.280  0.2686  0.3691  0.1582
  229MOL0     O30827   6.271   5.954  12.329 -0.4564  0.1322  0.6233
  229MOL0     C30828   6.138   5.989  12.077 -0.7836  0.3487  0.1023
  229MOL0     C30829   6.048   6.028  11.983  0.0098  0.3564  0.5165
  229MOL0     N30830   5.516   5.963  11.422  0.1816  0.2669  0.1135
  229MOL0     N30831   5.413   5.934  11.345  0.0886 -0.1675 -1.1337
  229MOL0     C30832   4.363   5.474  11.114 -0.5179 -0.1624 -0.5353
  229MOL0     C30833   4.266   5.385  11.154 -0.6887 -0.5035 -0.1189
  229MOL0     C30834   3.943   5.060  11.110  0.8631  0.6409 -0.2190
  229MOL0     C30835   3.815   5.121  11.079  0.1917  0.5899  0.6061
  229MOL0     C30836   3.697   5.048  11.109  0.4830 -0.4822 -0.6124
  229MOL0     C30837   3.693   4.918  11.152 -0.0911  0.1200  0.5569
  229MOL0     O30838   3.585   4.844  11.187 -0.2454 -0.4427 -0.1328
  229MOL0     C30839   3.460   4.913  11.180 -0.1823 -0.4172  0.5121
  229MOL0     C30840   3.346   4.815  11.220 -0.4387  0.4913  0.3680
  229MOL0     C30841   3.203   4.890  11.227 -0.2158  0.9096  0.5405
  229MOL0     C30842   3.098   4.822  11.118  0.2923 -0.6396 -0.1095
  229MOL0     C30843   2.965   4.868  11.152 -0.3238  0.6622  0.5510
  229MOL0     C30844   2.856   4.897  11.185  0.5549  0.5766  0.2678
  229MOL0     C30845   3.814   4.857  11.171 -0.1837 -0.4156  0.2961
  229MOL0     C30846   3.938   4.921  11.143  0.3343  0.8561 -0.0198
  229MOL0     C30847   4.064   4.850  11.187  0.1010  0.3282  0.6741
  229MOL0     H30848   4.090   5.391  10.857 -1.0832 -1.8304 -0.5059
  229MOL0     H30849   4.268   5.537  10.797  1.1805 -2.6549 -0.6873
  229MOL0     H30850   4.496   5.750  11.115  0.7827  1.5454 -0.8247
  229MOL0     H30851   4.610   5.609  11.087 -3.3972 -3.0438 -1.0947
  229MOL0     H30852   4.594   5.874  10.932  0.6082  1.9150  0.3256
  229MOL0     H30853   4.672   5.719  10.876  0.6136  2.1006 -0.9005
  229MOL0     H30854   4.815   5.738  11.093  0.5543 -0.9242 -1.8104
  229MOL0     H30855   4.728   5.890  11.109 -3.5869 -0.1984 -2.0158
  229MOL0     H30856   4.887   5.829  10.847  2.0388  1.4688 -1.1123
  229MOL0     H30857   4.865   5.984  10.909  1.7385 -0.3744 -0.0494
  229MOL0     H30858   5.044   5.754  11.017  0.3591 -0.2928  3.0594
  229MOL0     H30859   5.085   5.902  10.925 -1.2348 -0.0494 -0.9098
  229MOL0     H30860   5.014   6.047  11.119  1.1265  0.1429 -1.8213
  229MOL0     H30861   4.956   5.918  11.213  1.0678  1.2281  1.4565
  229MOL0     H30862   5.239   5.949  11.120 -1.4622  5.2548  0.6896
  229MOL0     H30863   5.189   5.823  11.238  2.9236  0.9928 -0.3666
  229MOL0     H30864   5.141   6.117  11.285  0.6602  0.8195  3.6337
  229MOL0     H30865   5.121   5.983  11.396  0.4020 -3.1404 -1.0625
  229MOL0     H30866   5.320   6.213  11.482  2.5736  1.9972 -1.3593
  229MOL0     H30867   5.580   6.253  11.575 -0.3698  0.6675  2.4567
  229MOL0     H30868   5.563   6.121  11.683 -0.6423  2.1973 -0.2012
  229MOL0     H30869   5.745   5.979  11.575 -1.6569 -0.9038  0.0890
  229MOL0     H30870   5.763   6.111  11.453 -1.0768  3.5532  1.0260
  229MOL0     H30871   5.789   6.256  11.663  1.2193  0.3627  2.1035
  229MOL0     H30872   5.917   6.191  11.566  0.2241  3.9295  2.0180
  229MOL0     H30873   5.963   6.010  11.746 -1.2195 -1.7309 -1.9721
  229MOL0     H30874   5.814   6.050  11.837  2.1139 -1.9834  0.9407
  229MOL0     H30875   6.124   6.353  11.963 -0.6809 -0.2252 -2.2671
  229MOL0     H30876   6.275   6.298  12.135  0.8323 -1.4293  3.1724
  229MOL0     H30877   6.513   6.208  12.527  2.2942  0.7300  1.4522
  229MOL0     H30878   6.704   6.128  12.626  0.2821  1.9313 -1.5027
  229MOL0     H30879   6.959   5.804  12.427 -1.4777  0.8612 -0.7244
  229MOL0     H30880   7.011   5.965  12.382 -2.8217 -0.1081 -0.9549
  229MOL0     H30881   7.079   5.810  12.631 -0.4876  0.4183  0.1218
  229MOL0     H30882   7.195   5.861  12.511 -0.2682 -1.1254 -0.5189
  229MOL0     H30883   7.161   6.092  12.559  0.1505 -0.7675 -0.6435
  229MOL0     H30884   7.042   6.055  12.686  0.6087 -0.7801  0.5072
  229MOL0     H30885   7.259   6.121  12.775  1.1063 -0.2389  0.9002
  229MOL0     H30886   7.337   5.976  12.712 -1.1601 -2.5049  0.3165
  229MOL0     H30887   7.162   5.847  12.875 -0.9765 -0.1180 -1.0105
  229MOL0     H30888   7.092   6.005  12.899  0.7410 -0.7571  0.6672
  229MOL0     H30889   7.364   5.929  12.988  0.6292 -0.7778 -1.1123
  229MOL0     H30890   7.291   6.087  13.026 -0.7596  0.0396  0.9301
  229MOL0     H30891   7.160   5.835  13.120 -0.0760  0.2986 -1.2533
  229MOL0     H30892   7.125   6.013  13.150  1.9813  3.1032  0.8814
  229MOL0     H30893   7.257   5.878  13.337 -0.1966 -0.9229 -1.1947
  229MOL0     H30894   7.384   5.872  13.214  0.6330 -0.5340 -0.0122
  229MOL0     H30895   6.783   5.862  12.300 -2.3343 -0.4392 -1.7463
  229MOL0     H30896   6.573   5.946  12.187  0.3593  2.1708 -0.7161
  229MOL0     H30897   6.147   5.883  12.100 -3.2244 -0.3676 -1.8096
  229MOL0     H30898   5.986   5.952  11.935  0.9802  1.4235 -2.6365
  229MOL0     H30899   4.435   5.501  11.190 -0.1761 -5.0187  1.2098
  229MOL0     H30900   4.268   5.334  11.249  4.8105 -0.3575  0.1358
  229MOL0     H30901   3.814   5.226  11.051  0.5642 -0.4209 -4.0658
  229MOL0     H30902   3.609   5.104  11.077  0.5789  0.2593  0.3599
  229MOL0     H30903   3.444   4.954  11.079  1.6079  0.8428  0.7004
  229MOL0     H30904   3.452   4.997  11.248  1.2385  0.1915 -0.0521
  229MOL0     H30905   3.365   4.758  11.311 -1.4239 -2.2476 -1.0251
  229MOL0     H30906   3.348   4.731  11.150  1.7660  1.2677 -0.5651
  229MOL0     H30907   3.213   4.998  11.213  0.4659  1.4189  4.0657
  229MOL0     H30908   3.159   4.872  11.325 -0.2866 -2.7340 -0.0362
  229MOL0     H30909   3.109   4.847  11.012 -1.3744 -0.7923 -0.3416
  229MOL0     H30910   3.109   4.714  11.132  0.4025 -0.9399 -2.2470
  229MOL0     H30911   2.761   4.927  11.223  1.2968  1.0097  1.8738
  229MOL0     H30912   3.802   4.764  11.226 -4.1795  0.0512  0.5301
  229MOL0     H30913   4.091   4.886  11.286  0.8760  4.2925 -0.7865
  229MOL0     H30914   4.037   4.744  11.195  0.7502  0.2084  1.4121
  229MOL0     H30915   4.148   4.861  11.118  2.1624 -0.2435  2.9549
  230MOL0     O30916   0.075   0.250   5.551  0.1666 -0.2717 -0.0948
  230MOL0     C30917   0.067   0.284   5.433 -0.3900  0.3335 -0.7888
  230MOL0     O30918   0.138   0.370   5.369 -0.4869  0.6220 -0.4356
  230MOL0     C30919   0.246   0.426   5.433 -0.1237  0.5711 -0.4338
  230MOL0     C30920   0.221   0.491   5.548 -0.2158 -0.9406  0.2886
  230MOL0     C30921   0.323   0.549   5.624 -0.3760  0.0233  0.0181
  230MOL0     C30922   0.454   0.548   5.576  0.6072 -0.1083  0.2533
  230MOL0     O30923   0.560   0.605   5.644 -1.1099  0.5945  0.7276
  230MOL0     C30924   0.566   0.621   5.783 -0.0484  0.5364 -0.7221
  230MOL0     C30925   0.703   0.643   5.846 -0.1182  0.0346  0.0133
  230MOL0     C30926   0.771   0.757   5.786  0.6002 -0.7889 -0.3147
  230MOL0     C30927   0.921   0.750   5.812  0.0040  0.7507  1.2124
  230MOL0     C30928   0.984   0.881   5.755  1.0644 -0.2491  0.3172
  230MOL0     C30929   1.133   0.874   5.734  0.8925 -0.1618 -0.6393
  230MOL0     C30930   1.201   0.847   5.874  0.6880 -0.8126 -0.3198
  230MOL0     C30931   1.346   0.830   5.854 -0.1846  0.2722  0.1473
  230MOL0     N30932   1.410   0.952   5.804 -0.3354 -0.6410  0.9337
  230MOL0     C30933   1.489   1.036   5.883  0.2772 -0.9748 -0.3352
  230MOL0     C30934   1.543   1.123   5.791  0.0199 -0.6553 -0.7955
  230MOL0     C30935   1.637   1.234   5.824 -0.7705  0.5608 -1.2333
  230MOL0     C30936   1.771   1.176   5.778  0.5041 -0.7989  0.6665
  230MOL0     C30937   1.861   1.298   5.751 -1.0806 -0.2366 -0.7278
  230MOL0     C30938   1.990   1.251   5.689 -0.5342  0.6793 -0.7328
  230MOL0     O30939   2.093   1.334   5.747 -0.2823  0.1251  0.7330
  230MOL0     C30940   2.227   1.288   5.749 -0.1916 -0.2453 -0.3064
  230MOL0     C30941   2.317   1.358   5.825 -0.0686 -0.1159 -0.0360
  230MOL0     C30942   2.449   1.313   5.835  0.0007  0.6075 -0.5360
  230MOL0     C30943   2.492   1.199   5.764  0.0768  0.1421  0.6014
  230MOL0     C30944   2.634   1.155   5.752 -0.7543 -0.0350  0.0753
  230MOL0     O30945   2.730   1.235   5.807 -0.4213 -0.5082 -0.2093
  230MOL0     C30946   2.859   1.208   5.778  0.1977  0.4089  0.4743
  230MOL0     C30947   2.916   1.265   5.664  0.4950  0.4738  0.1037
  230MOL0     C30948   3.052   1.244   5.639  0.3579  0.1018 -0.1507
  230MOL0     C30949   3.124   1.161   5.722 -0.2052  0.9089  0.8966
  230MOL0     O30950   3.261   1.144   5.707  0.1501 -0.0227  0.1621
  230MOL0     C30951   3.335   1.195   5.596 -1.2992  0.2254  0.1769
  230MOL0     C30952   3.439   1.086   5.572 -0.1396  0.2690  0.9923
  230MOL0     C30953   3.535   1.115   5.458 -0.2257  1.2313 -0.4900
  230MOL0     C30954   3.476   1.114   5.317  0.0284 -0.7702  0.6034
  230MOL0     C30955   3.569   1.187   5.215 -0.0075  0.7535  0.3155
  230MOL0     C30956   3.503   1.169   5.078  0.0157  0.2807  0.2385
  230MOL0     C30957   3.599   1.176   4.952  0.4126 -0.8007 -0.5194
  230MOL0     C30958   3.669   1.317   4.944  0.3023 -0.9692 -0.8830
  230MOL0    Cl30959   3.787   1.350   5.071 -0.2513  0.4943  0.2937
  230MOL0     C30960   3.071   1.112   5.843 -0.0854 -0.0688  0.6690
  230MOL0     C30961   2.938   1.139   5.874 -0.0234 -0.0652 -0.1770
  230MOL0     O30962   2.653   1.052   5.688  0.4039  0.3043 -0.3123
  230MOL0     C30963   2.397   1.132   5.684  0.7787 -0.1630  0.0572
  230MOL0     C30964   2.269   1.173   5.682  0.0946  0.6810 -1.2562
  230MOL0     N30965   1.502   1.082   5.662 -0.2675 -0.5433 -0.0776
  230MOL0     N30966   1.420   0.985   5.668 -0.4029  0.2673  0.6937
  230MOL0     C30967   0.481   0.472   5.459 -0.3219 -0.4103 -0.4267
  230MOL0     C30968   0.378   0.419   5.383  0.8352 -0.1196 -0.0705
  230MOL0     C30969  -0.036   0.219   5.353  0.4185 -0.4291 -0.5581
  230MOL0     C30970  -0.025   0.228   5.209 -0.3366  0.3141 -0.7746
  230MOL0     C30971  -0.112   0.152   5.125  0.7104  1.0388  0.0224
  230MOL0     C30972  -0.215   0.069   5.176 -0.1640  0.9237 -0.8004
  230MOL0     O30973  -0.309  -0.003   5.113 -0.9834  0.3444 -0.2517
  230MOL0     C30974  -0.313   0.005   4.969  0.2975  0.2331  0.3418
  230MOL0     C30975  -0.400  -0.118   4.924  0.1181 -0.0723 -0.5497
  230MOL0     C30976  -0.329  -0.251   4.956  0.6175 -0.2050 -0.5360
  230MOL0     C30977  -0.433  -0.362   4.941 -0.4826 -0.6118  0.2035
  230MOL0     C30978  -0.432  -0.411   4.807  0.1731 -0.7805 -0.2801
  230MOL0     C30979  -0.431  -0.438   4.688 -1.1662 -0.9057  0.0975
  230MOL0     C30980  -0.226   0.067   5.320  0.5680  0.7798 -0.3724
  230MOL0     C30981  -0.152   0.152   5.407 -0.6402 -0.1185 -0.7581
  230MOL0     C30982  -0.186   0.138   5.550 -0.1791  0.0237 -0.7176
  230MOL0     H30983   0.119   0.508   5.579  0.0289 -1.3994  1.3748
  230MOL0     H30984   0.298   0.616   5.705  2.7201  1.1413  0.2118
  230MOL0     H30985   0.503   0.702   5.822  1.0563  1.1571 -0.1686
  230MOL0     H30986   0.529   0.527   5.827 -1.2843  1.8342  1.1496
  230MOL0     H30987   0.760   0.550   5.842 -0.4935 -0.1657 -0.9761
  230MOL0     H30988   0.681   0.666   5.951 -5.0620 -2.3167 -0.2024
  230MOL0     H30989   0.727   0.848   5.828  3.7408  0.2268  1.0802
  230MOL0     H30990   0.766   0.765   5.677 -1.9097  1.1657 -0.1575
  230MOL0     H30991   0.950   0.727   5.915  3.2741 -2.3769 -0.1812
  230MOL0     H30992   0.960   0.668   5.751  1.6714 -1.0038  4.3705
  230MOL0     H30993   0.931   0.907   5.663 -2.4731  0.0706  2.2477
  230MOL0     H30994   0.956   0.960   5.826 -1.3304  1.6421 -2.5071
  230MOL0     H30995   1.159   0.794   5.665  0.6289  0.0050 -0.9376
  230MOL0     H30996   1.166   0.971   5.695 -0.7936  0.8403  0.2632
  230MOL0     H30997   1.160   0.757   5.920 -0.5052  0.7852  1.9096
  230MOL0     H30998   1.182   0.928   5.944 -0.1113 -1.5985  0.3822
  230MOL0     H30999   1.398   0.802   5.946  0.6605 -1.1875 -0.7328
  230MOL0     H31000   1.351   0.748   5.781 -2.1520  1.5085 -1.4916
  230MOL0     H31001   1.507   1.046   5.989 -2.5311  2.0900  0.0356
  230MOL0     H31002   1.609   1.328   5.777  0.6472  1.7497  0.1979
  230MOL0     H31003   1.626   1.253   5.931 -1.1577  0.8228 -1.3204
  230MOL0     H31004   1.807   1.116   5.862  0.0332  1.4539  2.5905
  230MOL0     H31005   1.758   1.115   5.689 -0.5616  0.5324 -0.1318
  230MOL0     H31006   1.887   1.335   5.851  0.0413 -3.4598  0.2738
  230MOL0     H31007   1.815   1.378   5.692  0.9812  2.0955  0.6123
  230MOL0     H31008   1.978   1.261   5.581  1.0845  0.1176 -0.9928
  230MOL0     H31009   2.005   1.146   5.716 -0.3613  1.2855  1.7540
  230MOL0     H31010   2.286   1.452   5.870  0.5165  0.2445 -0.3731
  230MOL0     H31011   2.527   1.358   5.896  0.8881 -0.3510 -0.9352
  230MOL0     H31012   2.853   1.332   5.606  0.8624 -0.1375 -1.0256
  230MOL0     H31013   3.092   1.296   5.553 -1.7052 -0.8886 -1.8059
  230MOL0     H31014   3.274   1.215   5.508 -1.1624  1.0209  0.2593
  230MOL0     H31015   3.388   1.284   5.632  0.6359 -0.9316  0.3735
  230MOL0     H31016   3.490   1.071   5.667 -0.3749  2.5376  1.5434
  230MOL0     H31017   3.379   0.998   5.549 -0.2400  0.9109 -1.5618
  230MOL0     H31018   3.572   1.215   5.482  1.5991  0.3494  0.6096
  230MOL0     H31019   3.619   1.044   5.461  0.4017  1.9984  1.3622
  230MOL0     H31020   3.384   1.173   5.312  1.7497  1.9669 -2.1889
  230MOL0     H31021   3.452   1.011   5.291 -2.2548 -0.5391  1.5808
  230MOL0     H31022   3.671   1.147   5.222  0.2632  1.1091 -1.2314
  230MOL0     H31023   3.570   1.294   5.240 -4.3283  1.1724 -0.5183
  230MOL0     H31024   3.452   1.072   5.083 -3.4116  2.0111  3.1564
  230MOL0     H31025   3.421   1.240   5.063 -0.5771 -0.4093  0.1142
  230MOL0     H31026   3.545   1.154   4.859  1.0169 -1.6232 -0.6937
  230MOL0     H31027   3.675   1.098   4.966  0.9073 -0.2737 -0.2701
  230MOL0     H31028   3.721   1.338   4.850  1.0940 -1.8301 -0.6521
  230MOL0     H31029   3.595   1.397   4.958  0.5395 -1.0455  1.0346
  230MOL0     H31030   3.140   1.056   5.905  2.7852 -0.9804 -3.0106
  230MOL0     H31031   2.896   1.119   5.972 -1.8004  0.6619 -0.7424
  230MOL0     H31032   2.422   1.046   5.623 -1.5849 -3.0965  2.8924
  230MOL0     H31033   2.212   1.117   5.609  1.4052 -1.7944 -0.5092
  230MOL0     H31034   0.583   0.472   5.424 -1.0208 -1.1622 -2.6493
  230MOL0     H31035   0.404   0.363   5.294  1.9370  0.2242  0.0203
  230MOL0     H31036   0.060   0.272   5.157  0.6936 -0.9149 -0.1925
  230MOL0     H31037  -0.086   0.137   5.021 -0.9299  0.1105 -0.2958
  230MOL0     H31038  -0.217   0.009   4.917 -0.6063 -0.6073 -1.5244
  230MOL0     H31039  -0.366   0.101   4.960 -0.5575 -0.3922 -4.4049
  230MOL0     H31040  -0.410  -0.109   4.815 -0.8623 -0.8158 -0.5304
  230MOL0     H31041  -0.496  -0.108   4.975  1.2209 -2.5025  2.3198
  230MOL0     H31042  -0.286  -0.248   5.056  3.2514  0.7987 -1.6081
  230MOL0     H31043  -0.244  -0.263   4.889 -0.4036  1.1295 -2.1770
  230MOL0     H31044  -0.408  -0.447   5.006  0.3845 -1.1059 -0.7419
  230MOL0     H31045  -0.530  -0.329   4.978 -0.8575 -0.0870 -1.1941
  230MOL0     H31046  -0.428  -0.452   4.582  1.3783  1.4260 -0.2663
  230MOL0     H31047  -0.302   0.005   5.366 -0.1956  1.3793 -0.7900
  230MOL0     H31048  -0.292   0.111   5.553 -0.2788  0.2241 -1.9198
  230MOL0     H31049  -0.130   0.052   5.586  0.2864 -1.1594 -3.9630
  230MOL0     H31050  -0.169   0.234   5.601  2.3788  0.0489 -1.4878
  231MOL0     O31051  11.165   3.193   5.023 -1.1729 -0.0186 -0.0456
  231MOL0     C31052  11.126   3.202   5.141  0.9513 -0.3710 -0.1003
  231MOL0     O31053  11.199   3.173   5.254 -0.2284  0.3547 -0.7944
  231MOL0     C31054  11.332   3.150   5.231 -0.5012  0.0195  0.2041
  231MOL0     C31055  11.375   3.017   5.248  0.0063 -0.6371 -0.5580
  231MOL0     C31056  11.504   2.981   5.208  0.3343 -0.3342  0.0868
  231MOL0     C31057  11.595   3.082   5.159  0.3568 -0.1954  0.5475
  231MOL0     O31058  11.729   3.059   5.148 -0.1542  0.1400 -0.5942
  231MOL0     C31059  11.774   2.969   5.256 -0.1753  0.7809  0.7239
  231MOL0     C31060  11.930   2.964   5.286 -0.1657  0.2618 -0.0550
  231MOL0     C31061  11.980   3.093   5.342  0.3561  0.4624 -0.1033
  231MOL0     C31062  12.119   3.084   5.412  0.0843  0.0626  1.2844
  231MOL0     C31063  12.181   3.226   5.436 -0.3438 -0.5590  0.6749
  231MOL0     C31064  12.309   3.204   5.522 -0.5491  0.1555  0.7768
  231MOL0     C31065  12.434   3.152   5.447 -0.2528  0.7827  0.3954
  231MOL0     C31066  12.549   3.122   5.539  0.0181 -0.3695 -0.0670
  231MOL0     N31067  12.544   2.988   5.606 -0.6277 -0.2885  0.0405
  231MOL0     C31068  12.646   2.923   5.674  0.1772 -0.9151  0.2418
  231MOL0     C31069  12.597   2.802   5.704  0.3957  0.7643  0.2253
  231MOL0     C31070  12.656   2.675   5.761  0.1987  0.0202  0.0422
  231MOL0     C31071  12.748   2.722   5.876  0.3328 -0.3743 -0.0824
  231MOL0     C31072  12.725   2.614   5.991  0.7235  0.6005 -0.1755
  231MOL0     C31073  12.833   2.600   6.092  0.1400  0.7014  0.1131
  231MOL0     O31074  12.916   2.721   6.086  0.5553 -0.6526 -0.4983
  231MOL0     C31075  13.032   2.724   6.155 -0.5969  0.8543 -0.0833
  231MOL0     C31076  13.091   2.615   6.226 -0.6362  0.5174  0.5257
  231MOL0     C31077  13.209   2.632   6.299 -0.7663 -0.4298 -0.5854
  231MOL0     C31078  13.283   2.748   6.292  0.4803  0.0896  0.0198
  231MOL0     C31079  13.410   2.749   6.363  0.3381  0.4722  0.1984
  231MOL0     O31080  13.435   2.656   6.454 -0.1017  0.3360  0.3900
  231MOL0     C31081  13.553   2.655   6.531  0.2400 -0.1316  0.7530
  231MOL0     C31082  13.675   2.653   6.466 -0.6821  0.3389  0.3392
  231MOL0     C31083  13.791   2.668   6.540  0.3755 -0.2142  0.7157
  231MOL0     C31084  13.788   2.662   6.678 -0.1075 -0.0251 -0.2607
  231MOL0     O31085  13.905   2.663   6.752 -0.3872 -0.1502  0.0355
  231MOL0     C31086  14.023   2.601   6.692  0.4045  0.1731  0.6934
  231MOL0     C31087  14.113   2.564   6.806  1.0632  0.4423 -0.2243
  231MOL0     C31088  14.241   2.495   6.753 -0.5041  0.0633 -0.1901
  231MOL0     C31089  14.337   2.442   6.867  0.2522  0.8312 -0.6529
  231MOL0     C31090  14.453   2.367   6.803 -0.1174  0.1188 -0.0994
  231MOL0     C31091  14.574   2.377   6.902 -0.3189 -0.0775  0.0317
  231MOL0     C31092  14.678   2.266   6.860  0.5283 -0.7570 -0.4362
  231MOL0     C31093  14.821   2.298   6.918 -0.1997 -0.4257  0.0867
  231MOL0    Cl31094  14.828   2.336   7.087 -0.0511 -0.6346  0.1584
  231MOL0     C31095  13.665   2.644   6.745 -0.0405 -0.0442 -1.4202
  231MOL0     C31096  13.549   2.649   6.676  0.8258  0.2939 -0.2520
  231MOL0     O31097  13.486   2.838   6.336 -0.0658  0.5222  0.4926
  231MOL0     C31098  13.230   2.856   6.213  0.7797  0.9593 -0.2577
  231MOL0     C31099  13.111   2.836   6.147 -0.2501 -0.4502 -0.6527
  231MOL0     N31100  12.464   2.803   5.660  0.1130 -0.5690 -0.8546
  231MOL0     N31101  12.434   2.909   5.599 -0.4916 -0.0905  0.2379
  231MOL0     C31102  11.544   3.215   5.143 -0.6069 -0.6286  0.4847
  231MOL0     C31103  11.422   3.243   5.175  0.1354 -0.1619  0.1662
  231MOL0     C31104  10.982   3.236   5.170 -0.4595  0.1132  0.8130
  231MOL0     C31105  10.943   3.364   5.116 -0.9687 -0.0561 -0.3131
  231MOL0     C31106  10.821   3.411   5.141 -0.4319 -0.7626  0.0022
  231MOL0     C31107  10.724   3.332   5.210 -0.1616  0.0834  0.2119
  231MOL0     O31108  10.596   3.376   5.215 -0.3389 -0.2987  0.7439
  231MOL0     C31109  10.500   3.304   5.146  0.1410  0.7164 -0.4850
  231MOL0     C31110  10.413   3.395   5.056 -0.6965  0.0681  0.4539
  231MOL0     C31111  10.487   3.502   4.958 -0.3253 -0.7377 -0.6378
  231MOL0     C31112  10.384   3.553   4.854  0.3408 -0.7465  0.6777
  231MOL0     C31113  10.269   3.624   4.915  0.0941  0.0202  1.7771
  231MOL0     C31114  10.179   3.693   4.950  0.4551  0.4586  0.1030
  231MOL0     C31115  10.772   3.222   5.282  0.3611  0.0756 -0.2669
  231MOL0     C31116  10.900   3.166   5.259 -0.8036 -0.1095 -0.7509
  231MOL0     C31117  10.936   3.036   5.337 -1.1052 -0.5201 -1.1678
  231MOL0     H31118  11.303   2.949   5.292 -1.3674  0.0556 -1.6350
  231MOL0     H31119  11.539   2.882   5.233  0.8238 -0.0726  0.4697
  231MOL0     H31120  11.726   2.986   5.353  1.0510 -1.3217  1.7901
  231MOL0     H31121  11.746   2.865   5.236 -0.6425  0.5402  2.4667
  231MOL0     H31122  11.987   2.933   5.197 -0.0101 -1.4205  0.5926
  231MOL0     H31123  11.954   2.888   5.361  0.2099 -1.6031 -1.9624
  231MOL0     H31124  11.913   3.122   5.423  1.0556 -0.8756  1.0075
  231MOL0     H31125  11.977   3.168   5.262  2.8158  0.8586  0.0881
  231MOL0     H31126  12.115   3.029   5.507 -2.3964 -1.4273  0.4322
  231MOL0     H31127  12.193   3.028   5.355 -1.6129 -1.8052  0.7809
  231MOL0     H31128  12.201   3.271   5.338  0.3189 -1.5780  0.3208
  231MOL0     H31129  12.108   3.287   5.489 -0.3124 -0.6298  0.7995
  231MOL0     H31130  12.337   3.299   5.569  2.8843 -0.5140  0.3578
  231MOL0     H31131  12.292   3.135   5.605 -0.6210  1.3007  1.7383
  231MOL0     H31132  12.461   3.230   5.375 -1.2765  0.4768 -0.3413
  231MOL0     H31133  12.410   3.065   5.386 -0.6962  0.3416  1.1888
  231MOL0     H31134  12.641   3.139   5.482 -0.0870  1.3025  0.2087
  231MOL0     H31135  12.561   3.204   5.610 -4.0203  0.9777 -0.7091
  231MOL0     H31136  12.743   2.964   5.699 -0.3237 -0.4652  1.5568
  231MOL0     H31137  12.571   2.610   5.781  0.7777 -1.2647 -1.5011
  231MOL0     H31138  12.714   2.634   5.678 -1.2997 -1.2244 -0.4353
  231MOL0     H31139  12.853   2.714   5.847  0.7766  0.6887  1.1236
  231MOL0     H31140  12.717   2.821   5.910 -1.9816 -1.1241  0.1234
  231MOL0     H31141  12.701   2.512   5.957 -0.6868  0.5688  0.8303
  231MOL0     H31142  12.640   2.650   6.049 -0.7438  0.8299 -2.3386
  231MOL0     H31143  12.897   2.517   6.060 -2.3059 -0.1271 -3.1385
  231MOL0     H31144  12.794   2.591   6.194 -0.4643  1.5580 -0.0318
  231MOL0     H31145  13.028   2.527   6.224 -2.7282  1.8831 -3.6257
  231MOL0     H31146  13.237   2.540   6.350 -1.1678 -0.5057 -0.4930
  231MOL0     H31147  13.687   2.641   6.359 -0.8357 -1.2109  0.4613
  231MOL0     H31148  13.883   2.683   6.485 -0.9639  3.5401 -0.8022
  231MOL0     H31149  14.009   2.508   6.635  1.7162  0.3411  0.0452
  231MOL0     H31150  14.079   2.670   6.629  0.5238 -1.9564 -1.6988
  231MOL0     H31151  14.134   2.657   6.861 -1.8383  0.3459  1.2978
  231MOL0     H31152  14.056   2.487   6.859  0.0723 -2.0280 -4.4268
  231MOL0     H31153  14.211   2.407   6.696 -0.1326 -0.1148 -0.1078
  231MOL0     H31154  14.289   2.568   6.687 -0.5145  0.6129  0.4022
  231MOL0     H31155  14.280   2.375   6.932  4.1855  1.5521  4.1744
  231MOL0     H31156  14.368   2.531   6.922  2.1448  0.8072 -1.5878
  231MOL0     H31157  14.481   2.409   6.706 -1.6426  0.6057 -0.3651
  231MOL0     H31158  14.417   2.264   6.789 -0.7023 -0.5424  4.6163
  231MOL0     H31159  14.622   2.475   6.897 -1.3658  0.5892  1.9776
  231MOL0     H31160  14.527   2.364   7.000 -4.2116  1.6024 -1.4358
  231MOL0     H31161  14.681   2.253   6.751 -1.2331  0.0548 -0.6140
  231MOL0     H31162  14.645   2.172   6.905  3.7582 -0.2484  3.6298
  231MOL0     H31163  14.880   2.206   6.906  3.6615  1.9392 -0.6240
  231MOL0     H31164  14.875   2.378   6.868 -0.4125  1.5275  2.7873
  231MOL0     H31165  13.659   2.636   6.853 -1.8085 -0.9532 -1.5309
  231MOL0     H31166  13.453   2.645   6.726 -1.2462 -0.5716 -3.9241
  231MOL0     H31167  13.269   2.957   6.223 -0.2856  1.5350 -1.5796
  231MOL0     H31168  13.065   2.916   6.091  0.1389 -1.0185 -1.8074
  231MOL0     H31169  11.611   3.290   5.101 -0.2816 -0.5838  1.0729
  231MOL0     H31170  11.383   3.343   5.159 -1.2485 -0.8399 -0.9211
  231MOL0     H31171  11.012   3.407   5.044  0.7706 -1.5808  0.3764
  231MOL0     H31172  10.795   3.507   5.099 -0.4777 -0.4579  0.7056
  231MOL0     H31173  10.435   3.250   5.216 -0.2150 -0.0803 -1.3931
  231MOL0     H31174  10.545   3.232   5.076 -2.4777 -2.1556  0.5356
  231MOL0     H31175  10.335   3.453   5.107 -0.3251  3.0138 -2.0322
  231MOL0     H31176  10.364   3.324   4.989  1.9238 -4.3107  2.7971
  231MOL0     H31177  10.570   3.448   4.911  2.6437  0.9433  2.1785
  231MOL0     H31178  10.531   3.592   5.002 -0.8750 -2.1611  3.1707
  231MOL0     H31179  10.439   3.626   4.794  2.2491  0.0514  3.2140
  231MOL0     H31180  10.349   3.474   4.787  0.9702  0.1287 -0.7409
  231MOL0     H31181  10.094   3.753   4.977 -1.3148 -1.3011 -1.2210
  231MOL0     H31182  10.701   3.168   5.344  2.8388 -3.0268  0.0874
  231MOL0     H31183  11.042   3.007   5.339 -1.3889 -1.7221  1.8000
  231MOL0     H31184  10.914   3.051   5.443  0.5032 -0.3406 -0.8301
  231MOL0     H31185  10.886   2.946   5.300  0.4012 -2.2232  0.7421
  232MOL0     O31186  10.022  10.466   9.869 -0.7206 -0.6704 -0.1433
  232MOL0     C31187   9.963  10.451   9.977 -0.2118 -0.4165 -0.6376
  232MOL0     O31188  10.011  10.506  10.091 -0.8340 -0.3651  0.5702
  232MOL0     C31189  10.098  10.608  10.074  0.1794 -0.5844  0.5863
  232MOL0     C31190  10.241  10.591  10.052  0.2944 -0.5290 -0.5813
  232MOL0     C31191  10.327  10.701  10.023  0.3145 -1.2628  0.5742
  232MOL0     C31192  10.267  10.832  10.018 -0.4920  0.9599 -0.0596
  232MOL0     O31193  10.340  10.946   9.997 -0.4295  0.0660 -0.1483
  232MOL0     C31194  10.476  10.940   9.945 -0.9196 -0.6427 -0.3432
  232MOL0     C31195  10.508  11.083   9.884 -0.0738  0.5488  1.1036
  232MOL0     C31196  10.643  11.090   9.816  0.7699 -0.8273  0.3047
  232MOL0     C31197  10.654  11.225   9.746 -0.0891  0.5888  0.6511
  232MOL0     C31198  10.763  11.212   9.638 -0.1735 -0.2736  0.3996
  232MOL0     C31199  10.792  11.364   9.598 -0.1264 -0.4091  0.4527
  232MOL0     C31200  10.905  11.374   9.490 -0.2163  0.3838  0.1803
  232MOL0     C31201  11.040  11.345   9.557 -0.7913 -0.3172  0.7676
  232MOL0     N31202  11.113  11.472   9.586  0.3537  0.0163  0.6343
  232MOL0     C31203  11.217  11.532   9.510 -0.4595  0.2149 -0.3429
  232MOL0     C31204  11.260  11.638   9.589  0.4952 -0.1236 -0.6261
  232MOL0     C31205  11.376  11.733   9.567  0.4166 -0.5645 -0.5608
  232MOL0     C31206  11.506  11.659   9.556  0.0491  0.5062  0.4366
  232MOL0     C31207  11.558  11.610   9.689  0.4192  1.2698  0.1923
  232MOL0     C31208  11.708  11.656   9.705 -0.8174 -0.3054  0.0804
  232MOL0     O31209  11.784  11.607   9.598 -0.0950 -0.4556  0.0060
  232MOL0     C31210  11.919  11.634   9.587  0.4000  0.1936  0.0069
  232MOL0     C31211  11.993  11.673   9.700  0.4504  0.4192  0.9571
  232MOL0     C31212  12.127  11.698   9.677 -0.4096 -0.0634  0.5481
  232MOL0     C31213  12.191  11.710   9.549 -0.0845  0.4656  0.7216
  232MOL0     C31214  12.335  11.735   9.543 -0.5372 -0.1609  0.8264
  232MOL0     O31215  12.415  11.727   9.651 -0.0455 -0.8521 -0.0790
  232MOL0     C31216  12.550  11.733   9.636 -0.4324  0.4466 -0.2706
  232MOL0     C31217  12.624  11.647   9.550 -0.1497  0.6433 -0.5960
  232MOL0     C31218  12.760  11.649   9.559 -0.2064  0.5400  0.6881
  232MOL0     C31219  12.834  11.736   9.642  0.1110 -0.0991  0.2844
  232MOL0     O31220  12.972  11.735   9.664 -0.3458 -0.3216 -0.0855
  232MOL0     C31221  13.035  11.602   9.648 -0.0418 -0.5576 -0.4927
  232MOL0     C31222  13.174  11.593   9.726  1.1403 -1.1107 -0.3889
  232MOL0     C31223  13.272  11.695   9.668 -0.9333  0.0332  0.0673
  232MOL0     C31224  13.395  11.719   9.753  0.4081 -0.1555  0.5103
  232MOL0     C31225  13.502  11.615   9.748  0.0548  0.3413  0.2712
  232MOL0     C31226  13.642  11.656   9.793  0.4789 -0.4301  0.4660
  232MOL0     C31227  13.753  11.557   9.777  0.9320  0.2926  0.5194
  232MOL0     C31228  13.816  11.581   9.642 -0.7108  0.3421  0.0320
  232MOL0    Cl31229  13.949  11.469   9.619  0.1875 -0.1304 -0.4225
  232MOL0     C31230  12.761  11.821   9.723 -1.0103  1.0014 -0.3106
  232MOL0     C31231  12.626  11.819   9.720  0.0854  1.7492 -0.2776
  232MOL0     O31232  12.371  11.791   9.438  0.4270  0.4487 -0.5734
  232MOL0     C31233  12.110  11.680   9.436  0.0253 -0.6476  0.6228
  232MOL0     C31234  11.973  11.644   9.459  0.1037  1.2242  0.5833
  232MOL0     N31235  11.160  11.646   9.699  0.4526  0.2166  0.0416
  232MOL0     N31236  11.080  11.546   9.698 -0.5668 -0.2784 -0.0451
  232MOL0     C31237  10.130  10.844  10.047  0.4761 -0.3285 -0.9699
  232MOL0     C31238  10.043  10.731  10.073 -0.0300 -0.8046  0.4425
  232MOL0     C31239   9.843  10.368   9.985 -0.3268  0.0714  0.2633
  232MOL0     C31240   9.810  10.322  10.112  0.3604  0.4830 -0.2632
  232MOL0     C31241   9.697  10.236  10.118  0.9915  0.6661 -0.8774
  232MOL0     C31242   9.601  10.231  10.016 -1.5011 -0.1462  0.2528
  232MOL0     O31243   9.477  10.170  10.025  0.1143 -0.0827  0.5961
  232MOL0     C31244   9.451  10.086  10.134 -0.5810 -0.5310 -0.2915
  232MOL0     C31245   9.305  10.033  10.107 -0.8961 -0.0942  0.3041
  232MOL0     C31246   9.273   9.897  10.186 -0.5899 -0.1473 -0.5277
  232MOL0     C31247   9.130   9.854  10.166  0.8498 -0.4380  0.0229
  232MOL0     C31248   9.083   9.829  10.028 -0.9025  0.5118  0.0416
  232MOL0     C31249   9.029   9.832   9.919  0.1670  0.0825  0.4862
  232MOL0     C31250   9.634  10.281   9.892 -1.1859 -0.4483  0.7772
  232MOL0     C31251   9.754  10.346   9.870 -0.2880  0.3099 -0.3675
  232MOL0     C31252   9.776  10.405   9.737 -0.4484  0.1376 -0.1427
  232MOL0     H31253  10.279  10.490  10.053  0.5385 -0.5063 -2.6617
  232MOL0     H31254  10.432  10.681  10.005 -0.4675 -3.0975 -2.7354
  232MOL0     H31255  10.546  10.912  10.024  1.9940  0.2891 -2.4196
  232MOL0     H31256  10.492  10.868   9.865  0.2644  2.4375 -3.1099
  232MOL0     H31257  10.514  11.156   9.965  1.6511  0.0937  1.4282
  232MOL0     H31258  10.426  11.115   9.819 -0.7474  0.4429  1.8869
  232MOL0     H31259  10.654  11.007   9.746  1.2329  0.1184 -0.7803
  232MOL0     H31260  10.720  11.082   9.893  1.7632 -3.1082 -0.8344
  232MOL0     H31261  10.566  11.245   9.686 -0.2303 -0.3929  0.5165
  232MOL0     H31262  10.664  11.305   9.821  2.1875 -1.4785  2.7387
  232MOL0     H31263  10.854  11.165   9.675 -0.2918 -2.0657 -1.4492
  232MOL0     H31264  10.733  11.153   9.551 -0.7790 -3.9380  2.8723
  232MOL0     H31265  10.702  11.399   9.546  1.1659  1.4882 -0.6635
  232MOL0     H31266  10.804  11.424   9.689 -0.1520  0.5043 -0.1285
  232MOL0     H31267  10.912  11.468   9.435 -1.4761 -0.6077 -1.8164
  232MOL0     H31268  10.870  11.301   9.415  2.8572 -1.5335  0.4207
  232MOL0     H31269  11.030  11.295   9.654  0.0882  3.4677  3.0617
  232MOL0     H31270  11.097  11.292   9.481 -1.3294  0.4985 -0.2274
  232MOL0     H31271  11.259  11.498   9.416 -2.0190 -0.8033 -0.7138
  232MOL0     H31272  11.353  11.786   9.474  2.0027 -0.1765 -0.7492
  232MOL0     H31273  11.374  11.815   9.639  4.4011 -1.0229  0.3023
  232MOL0     H31274  11.504  11.576   9.485 -0.1301 -0.1296  1.1836
  232MOL0     H31275  11.571  11.727   9.500 -2.2938 -1.2417 -5.0950
  232MOL0     H31276  11.553  11.501   9.697  0.3732  1.3113  0.8251
  232MOL0     H31277  11.504  11.653   9.775 -1.1183 -1.6538  0.8218
  232MOL0     H31278  11.747  11.618   9.800  2.3439 -0.9269 -1.3234
  232MOL0     H31279  11.715  11.763   9.724 -0.4003 -0.4972  1.0448
  232MOL0     H31280  11.946  11.672   9.798 -0.0151  2.2709  0.7937
  232MOL0     H31281  12.187  11.717   9.765  0.8520 -0.2443 -0.2459
  232MOL0     H31282  12.583  11.566   9.491  0.6031 -1.8407  2.0803
  232MOL0     H31283  12.807  11.570   9.502 -1.8444 -0.9249  1.2559
  232MOL0     H31284  12.973  11.529   9.699  2.0668 -3.5671 -1.9472
  232MOL0     H31285  13.041  11.578   9.542  2.2493 -2.6230  0.0192
  232MOL0     H31286  13.169  11.616   9.833 -1.0005  2.3671 -1.0901
  232MOL0     H31287  13.217  11.493   9.719  1.4555 -0.8748 -2.2486
  232MOL0     H31288  13.304  11.658   9.570 -1.6725 -0.2656 -0.0696
  232MOL0     H31289  13.223  11.790   9.643 -0.2741  0.0880 -1.1019
  232MOL0     H31290  13.356  11.736   9.853 -1.1407  0.2519 -0.1309
  232MOL0     H31291  13.437  11.815   9.721 -0.9989 -0.0213 -1.0387
  232MOL0     H31292  13.501  11.587   9.642  0.0479 -1.3261  0.6984
  232MOL0     H31293  13.471  11.523   9.798 -3.2572  1.0318 -0.2389
  232MOL0     H31294  13.663  11.751   9.742  1.1683 -0.9634 -0.2833
  232MOL0     H31295  13.629  11.677   9.900 -1.8114  0.5308  0.0639
  232MOL0     H31296  13.723  11.451   9.777 -0.1541  0.5852 -0.2585
  232MOL0     H31297  13.823  11.564   9.861  2.7773 -0.1200 -0.9002
  232MOL0     H31298  13.749  11.582   9.556 -0.0924  0.5578 -0.4492
  232MOL0     H31299  13.865  11.678   9.651  0.5461 -0.3977  1.7739
  232MOL0     H31300  12.813  11.886   9.792  1.1650 -0.5833 -0.3721
  232MOL0     H31301  12.565  11.886   9.780  0.3887  0.0807  2.0208
  232MOL0     H31302  12.153  11.683   9.337  0.4608 -1.5464  0.7739
  232MOL0     H31303  11.910  11.615   9.376 -0.5463  1.1025  1.1123
  232MOL0     H31304  10.077  10.937  10.027 -0.6790 -1.3295 -2.8841
  232MOL0     H31305   9.937  10.752  10.075  0.0060 -0.6376  0.7355
  232MOL0     H31306   9.872  10.347  10.198 -2.9408  1.9509  1.8924
  232MOL0     H31307   9.682  10.172  10.204  0.7362 -0.3143 -1.6385
  232MOL0     H31308   9.458  10.133  10.232 -0.4629  1.5623 -1.2413
  232MOL0     H31309   9.515   9.998  10.128 -0.0123 -0.1081 -0.4487
  232MOL0     H31310   9.287  10.022   9.999  1.9800  0.5953 -0.3383
  232MOL0     H31311   9.240  10.113  10.142  0.6942  0.8201  1.2620
  232MOL0     H31312   9.290   9.922  10.291  1.4318 -2.0482 -0.3203
  232MOL0     H31313   9.337   9.814  10.154 -0.2638  0.5812 -1.8529
  232MOL0     H31314   9.113   9.761  10.220  0.0476 -0.2253  0.1626
  232MOL0     H31315   9.066   9.933  10.209  1.9531 -0.2180  1.3306
  232MOL0     H31316   8.982   9.835   9.823  0.0991 -1.7294  0.4307
  232MOL0     H31317   9.565  10.265   9.809 -0.1597  1.1629 -0.4566
  232MOL0     H31318   9.777  10.511   9.763  1.1545 -0.2598  1.7245
  232MOL0     H31319   9.872  10.378   9.692  0.4115 -0.8690  2.0987
  232MOL0     H31320   9.700  10.383   9.661  0.1868  0.5773 -0.9212
  233MOL0     O31321   7.401   4.184   0.332  0.7204 -0.5855  0.2675
  233MOL0     C31322   7.403   4.107   0.234 -0.6192 -0.2608  0.2393
  233MOL0     O31323   7.519   4.058   0.179  0.1947  0.2106  0.2828
  233MOL0     C31324   7.638   4.106   0.232  0.2442 -0.1035  0.1307
  233MOL0     C31325   7.669   4.240   0.200 -1.0431  1.0407 -0.4805
  233MOL0     C31326   7.791   4.304   0.240 -0.4676 -0.1978  0.0284
  233MOL0     C31327   7.866   4.234   0.333 -0.5454 -0.4572 -0.2795
  233MOL0     O31328   7.973   4.286   0.402  0.0944  0.5215 -0.3937
  233MOL0     C31329   8.015   4.419   0.376 -0.1872 -0.5646  0.1408
  233MOL0     C31330   8.119   4.467   0.467  0.0927  0.3190 -0.7936
  233MOL0     C31331   8.247   4.385   0.452 -0.8014 -0.8644  0.3910
  233MOL0     C31332   8.363   4.485   0.500 -1.0647  0.7261 -0.2950
  233MOL0     C31333   8.503   4.423   0.495 -0.5736  0.1778  0.1043
  233MOL0     C31334   8.610   4.517   0.557 -0.4203  0.2155  0.6057
  233MOL0     C31335   8.762   4.450   0.551  0.4716  0.1788 -0.0795
  233MOL0     C31336   8.826   4.427   0.417 -0.3395 -0.1509 -0.5875
  233MOL0     N31337   8.946   4.348   0.431  0.6334 -0.2869 -0.7024
  233MOL0     C31338   8.960   4.213   0.439 -0.1309 -1.0489  0.2409
  233MOL0     C31339   9.090   4.183   0.431 -0.7833 -0.5974 -0.1277
  233MOL0     C31340   9.158   4.050   0.455  0.4519  0.4548 -0.7830
  233MOL0     C31341   9.316   4.052   0.454  0.3356 -0.1427  0.0365
  233MOL0     C31342   9.374   3.925   0.509 -0.7759 -0.1561  0.0679
  233MOL0     C31343   9.529   3.905   0.480  0.5959  0.7013  0.0273
  233MOL0     O31344   9.544   3.913   0.338  0.8709 -0.0676  0.9642
  233MOL0     C31345   9.664   3.886   0.282 -0.3416  0.0455  0.6890
  233MOL0     C31346   9.787   3.865   0.350 -0.0632  0.0045  0.1662
  233MOL0     C31347   9.906   3.843   0.279  0.3680 -0.1142 -0.3197
  233MOL0     C31348   9.902   3.832   0.140 -0.1979 -0.1707  0.1025
  233MOL0     C31349  10.022   3.790   0.070 -1.2916 -0.1154 -0.0353
  233MOL0     O31350  10.113   3.718   0.144 -0.0982 -0.0241  0.3964
  233MOL0     C31351  10.238   3.721   0.083 -0.2571 -0.6906 -0.0115
  233MOL0     C31352  10.264   3.616  -0.008 -0.4609  0.0743 -0.3826
  233MOL0     C31353  10.393   3.601  -0.064  0.1977  0.6829  0.7915
  233MOL0     C31354  10.493   3.694  -0.024 -0.1925  1.0070  0.1858
  233MOL0     O31355  10.615   3.692  -0.079 -0.0615 -0.3396  0.2676
  233MOL0     C31356  10.623   3.760  -0.210  1.1477  0.3102  0.0873
  233MOL0     C31357  10.766   3.759  -0.270  0.0865 -0.7557  1.1716
  233MOL0     C31358  10.777   3.625  -0.336 -0.3528 -0.1932  0.3299
  233MOL0     C31359  10.906   3.624  -0.415 -0.2933 -0.0868  0.4620
  233MOL0     C31360  10.953   3.480  -0.456 -0.1573  0.1442 -0.6064
  233MOL0     C31361  11.046   3.477  -0.572 -0.4041  0.2160 -0.1569
  233MOL0     C31362  11.170   3.560  -0.531  0.3141 -0.0332  0.7880
  233MOL0     C31363  11.273   3.536  -0.643 -0.0339  0.4454 -1.1775
  233MOL0    Cl31364  11.213   3.623  -0.785  0.4586 -0.1277 -0.0649
  233MOL0     C31365  10.467   3.784   0.075  0.8723  0.2376  0.2095
  233MOL0     C31366  10.345   3.796   0.132 -0.6257 -0.6489  0.5449
  233MOL0     O31367  10.040   3.822  -0.051 -0.2333 -0.2998  0.2905
  233MOL0     C31368   9.778   3.857   0.078 -0.8859 -1.2215 -0.1188
  233MOL0     C31369   9.668   3.904   0.147  0.0952  0.2266  0.3262
  233MOL0     N31370   9.163   4.299   0.441  0.6908 -0.1529  0.8044
  233MOL0     N31371   9.077   4.400   0.436  0.0843  0.6895  1.1292
  233MOL0     C31372   7.832   4.095   0.363  0.5564 -0.3697 -0.4650
  233MOL0     C31373   7.720   4.031   0.316 -0.0662 -0.1844 -0.3396
  233MOL0     C31374   7.277   4.060   0.174  0.3050 -0.2556 -0.3143
  233MOL0     C31375   7.265   3.929   0.118 -0.3961 -0.4038 -0.2523
  233MOL0     C31376   7.150   3.886   0.055 -0.0981  0.0850 -0.4302
  233MOL0     C31377   7.037   3.967   0.048 -0.0347  0.1701  0.7802
  233MOL0     O31378   6.923   3.924  -0.018  0.4154  0.3069 -0.6416
  233MOL0     C31379   6.844   4.015  -0.089 -0.4183 -0.7474  0.4679
  233MOL0     C31380   6.721   3.947  -0.158 -0.3340  0.0495 -0.5858
  233MOL0     C31381   6.600   3.919  -0.061 -0.0794  0.7274 -0.7188
  233MOL0     C31382   6.489   4.032  -0.071  0.2442 -0.8413  0.1027
  233MOL0     C31383   6.398   3.998  -0.181  1.3701  0.0215 -0.5511
  233MOL0     C31384   6.327   3.948  -0.270 -0.3420 -0.2644  0.6976
  233MOL0     C31385   7.048   4.092   0.105 -0.5144  0.0561 -0.5194
  233MOL0     C31386   7.163   4.141   0.168 -0.7468 -0.9749 -1.0373
  233MOL0     C31387   7.146   4.281   0.222  0.4152  0.0832  0.0663
  233MOL0     H31388   7.595   4.279   0.131 -1.4430  2.4072  0.6706
  233MOL0     H31389   7.819   4.402   0.202 -1.1494 -0.5397 -1.4407
  233MOL0     H31390   8.055   4.419   0.275  1.6332 -2.5756  0.7955
  233MOL0     H31391   7.937   4.497   0.372  1.3813  1.0789 -4.5161
  233MOL0     H31392   8.076   4.470   0.567 -1.6391  0.1381 -1.5005
  233MOL0     H31393   8.141   4.566   0.426 -2.2660  1.4361  0.4407
  233MOL0     H31394   8.261   4.363   0.346 -0.6819 -0.3066  0.2838
  233MOL0     H31395   8.241   4.290   0.504  1.5952 -1.8816 -1.0269
  233MOL0     H31396   8.366   4.580   0.447  1.3198  0.2655 -1.0734
  233MOL0     H31397   8.349   4.506   0.607  1.6662 -1.7385  0.6650
  233MOL0     H31398   8.503   4.339   0.565 -1.4745  2.7930  3.5272
  233MOL0     H31399   8.528   4.399   0.391 -1.0696  2.0815 -0.5152
  233MOL0     H31400   8.619   4.610   0.500  0.0555  0.8278  1.6538
  233MOL0     H31401   8.578   4.532   0.660 -0.5112  1.4141  0.4093
  233MOL0     H31402   8.736   4.354   0.598  0.0131  0.9412  1.2925
  233MOL0     H31403   8.825   4.506   0.621  1.3263  2.2999 -2.4145
  233MOL0     H31404   8.752   4.382   0.350  0.3939  1.5454 -2.6479
  233MOL0     H31405   8.852   4.521   0.367  0.5356 -0.9831 -1.7788
  233MOL0     H31406   8.874   4.147   0.451  0.9578 -2.6024 -0.1917
  233MOL0     H31407   9.123   4.016   0.553  2.3793  0.7997  0.0616
  233MOL0     H31408   9.127   3.981   0.376 -2.1960  0.2730  0.3019
  233MOL0     H31409   9.361   4.060   0.354  1.3886 -0.1449  0.4931
  233MOL0     H31410   9.355   4.141   0.504  1.3540  1.6283 -3.5294
  233MOL0     H31411   9.320   3.835   0.478 -2.3443  1.1833 -1.2996
  233MOL0     H31412   9.364   3.921   0.618  2.1715 -1.4242  0.3777
  233MOL0     H31413   9.560   3.803   0.504  1.2590  0.4887 -1.5699
  233MOL0     H31414   9.596   3.971   0.535  2.4149 -0.3020 -0.8747
  233MOL0     H31415   9.792   3.862   0.459  0.8033 -2.3319  0.1154
  233MOL0     H31416   9.993   3.833   0.342 -0.7498 -0.2034  1.2728
  233MOL0     H31417  10.190   3.546  -0.045  0.5483 -0.3061 -1.7586
  233MOL0     H31418  10.413   3.513  -0.124  1.4286  0.5376  1.3932
  233MOL0     H31419  10.551   3.713  -0.277 -0.0217  2.3007 -0.1246
  233MOL0     H31420  10.601   3.863  -0.181  0.6241  0.7132 -1.6259
  233MOL0     H31421  10.766   3.842  -0.341 -2.6717  0.1206  2.0673
  233MOL0     H31422  10.838   3.777  -0.190  0.5795  1.5117  0.2746
  233MOL0     H31423  10.774   3.553  -0.253  1.0997  1.6307  2.0664
  233MOL0     H31424  10.687   3.611  -0.395 -1.0648 -0.6881  1.4923
  233MOL0     H31425  10.985   3.655  -0.346  0.7366 -2.6783  0.5724
  233MOL0     H31426  10.882   3.697  -0.493 -0.7222 -0.0431  0.6319
  233MOL0     H31427  10.861   3.431  -0.491  0.0446 -0.7943  0.1327
  233MOL0     H31428  10.996   3.429  -0.370  0.2497 -0.1695 -0.9940
  233MOL0     H31429  11.078   3.373  -0.586  0.1130  0.3178  0.2164
  233MOL0     H31430  11.002   3.512  -0.665 -0.2696 -0.1774 -0.3741
  233MOL0     H31431  11.209   3.526  -0.434  2.8312  3.5196  1.2090
  233MOL0     H31432  11.144   3.666  -0.536 -0.9277 -0.3534 -2.9507
  233MOL0     H31433  11.365   3.581  -0.602 -0.7197 -0.3287  1.3973
  233MOL0     H31434  11.298   3.431  -0.658 -2.4331 -0.8442  2.4981
  233MOL0     H31435  10.544   3.857   0.100  0.6568  0.9813 -1.2039
  233MOL0     H31436  10.317   3.872   0.205  1.5230 -0.8495  1.6596
  233MOL0     H31437   9.783   3.879  -0.029  3.8080  1.1703  0.3308
  233MOL0     H31438   9.587   3.951   0.092  2.1770  0.2556 -2.9390
  233MOL0     H31439   7.887   4.043   0.441  2.0329  0.6443 -0.7902
  233MOL0     H31440   7.696   3.926   0.331  1.4190 -0.5370 -0.3345
  233MOL0     H31441   7.354   3.866   0.118  0.3420  0.5936  0.5217
  233MOL0     H31442   7.150   3.792   0.001  1.5478  1.6008 -3.3452
  233MOL0     H31443   6.911   4.065  -0.161  0.9743 -0.2488  2.0463
  233MOL0     H31444   6.801   4.097  -0.030 -1.2508  2.0536 -3.5504
  233MOL0     H31445   6.749   3.850  -0.202  1.4208 -0.5717  1.6981
  233MOL0     H31446   6.685   4.012  -0.237  0.9765  0.5275 -0.7989
  233MOL0     H31447   6.625   3.907   0.045 -1.6859 -0.1711 -0.4020
  233MOL0     H31448   6.556   3.821  -0.084 -1.2809  1.3815 -1.3338
  233MOL0     H31449   6.438   4.027   0.026  0.3434 -0.2755  0.1890
  233MOL0     H31450   6.532   4.132  -0.084  1.4979 -1.5138 -1.1743
  233MOL0     H31451   6.256   3.918  -0.344  0.2028 -1.0194  0.4709
  233MOL0     H31452   6.960   4.156   0.100 -0.6592 -0.2505 -3.1734
  233MOL0     H31453   7.212   4.348   0.166  0.5627  0.4926  0.7173
  233MOL0     H31454   7.045   4.324   0.213 -1.0008 -2.9843  0.1066
  233MOL0     H31455   7.173   4.286   0.328 -1.4897 -0.4373  0.6108
  234MOL0     O31456   8.739  11.190   9.403  0.2824  0.1334  0.8287
  234MOL0     C31457   8.781  11.114   9.494 -0.1859  0.1298  0.7513
  234MOL0     O31458   8.916  11.084   9.516  0.0283 -0.6556  0.4542
  234MOL0     C31459   9.019  11.170   9.470  0.0100  0.3908 -0.8704
  234MOL0     C31460   9.133  11.157   9.552 -0.4444 -0.4986  0.2719
  234MOL0     C31461   9.246  11.242   9.525 -0.4751  0.6078 -0.5515
  234MOL0     C31462   9.253  11.317   9.408 -0.5346  0.5351 -0.5146
  234MOL0     O31463   9.362  11.390   9.380  0.2720 -0.3429  0.3712
  234MOL0     C31464   9.497  11.376   9.412 -0.1176  0.5313 -0.0352
  234MOL0     C31465   9.595  11.444   9.327  0.3673  0.5030  0.1476
  234MOL0     C31466   9.589  11.410   9.176 -0.0766  0.3200  0.2558
  234MOL0     C31467   9.578  11.256   9.135  0.3258 -0.2731  0.8371
  234MOL0     C31468   9.575  11.236   8.986  1.5575  0.7181  0.2028
  234MOL0     C31469   9.482  11.336   8.909 -0.7629  0.1394  0.6347
  234MOL0     C31470   9.338  11.338   8.966  1.0122  0.1763 -0.8627
  234MOL0     C31471   9.268  11.193   8.959 -0.2402 -0.7167  0.9734
  234MOL0     N31472   9.279  11.127   8.829  0.8220 -1.3196 -0.0141
  234MOL0     C31473   9.199  11.156   8.721  0.2058 -0.0424 -0.0147
  234MOL0     C31474   9.238  11.076   8.623  0.4590  0.5508 -0.0187
  234MOL0     C31475   9.188  11.078   8.479  0.1878  0.6925  0.5707
  234MOL0     C31476   9.085  10.970   8.447 -0.2622  0.0103 -0.5710
  234MOL0     C31477   8.928  11.021   8.484 -1.1950  0.0993 -0.0591
  234MOL0     C31478   8.837  10.911   8.441 -0.1153  0.4277  0.0548
  234MOL0     O31479   8.734  10.904   8.539 -0.0809 -0.2251 -0.3003
  234MOL0     C31480   8.615  10.881   8.495  0.0043  1.1437 -0.6720
  234MOL0     C31481   8.534  10.987   8.470 -0.0169 -0.5003  0.2070
  234MOL0     C31482   8.408  10.960   8.409 -0.0493 -0.0726  0.1065
  234MOL0     C31483   8.372  10.826   8.382 -0.1574 -0.5610  0.3674
  234MOL0     C31484   8.238  10.799   8.338  0.6985 -0.0987 -0.0955
  234MOL0     O31485   8.174  10.890   8.265 -0.4736  0.1498  0.3249
  234MOL0     C31486   8.054  10.852   8.210 -0.2982 -0.3173 -0.7709
  234MOL0     C31487   7.942  10.833   8.294 -0.1831 -0.9352  0.3875
  234MOL0     C31488   7.824  10.799   8.235  0.7226 -0.0562 -0.1000
  234MOL0     C31489   7.811  10.801   8.091 -0.5961  0.5128 -0.9978
  234MOL0     O31490   7.700  10.773   8.015 -0.2217  0.9007 -0.5102
  234MOL0     C31491   7.575  10.762   8.077  0.1044  0.0973 -0.8553
  234MOL0     C31492   7.488  10.670   7.995  0.0434  0.5577  0.2169
  234MOL0     C31493   7.363  10.642   8.073 -0.0767 -0.1257  0.0437
  234MOL0     C31494   7.235  10.692   7.990  0.3020 -0.4201 -0.2652
  234MOL0     C31495   7.111  10.644   8.051  0.7236 -0.3973  0.4177
  234MOL0     C31496   6.984  10.665   7.955 -0.0210 -0.1374 -0.0212
  234MOL0     C31497   6.855  10.634   8.026  0.4483 -0.0158  0.3269
  234MOL0     C31498   6.738  10.714   7.972  0.6313 -0.0395  1.0338
  234MOL0    Cl31499   6.697  10.644   7.822  0.1889 -0.6963 -0.0575
  234MOL0     C31500   7.921  10.827   8.015 -0.0744  0.2915  0.9200
  234MOL0     C31501   8.043  10.857   8.072 -1.2083  0.5616 -0.4400
  234MOL0     O31502   8.197  10.691   8.372  0.5356  0.8074  0.1774
  234MOL0     C31503   8.455  10.722   8.422  0.0205  0.3021  1.0696
  234MOL0     C31504   8.583  10.752   8.472  0.2454  1.2393  0.4830
  234MOL0     N31505   9.357  11.026   8.661 -0.3452 -0.0390 -0.4792
  234MOL0     N31506   9.382  11.049   8.787  0.0690  0.1828  0.9851
  234MOL0     C31507   9.143  11.329   9.330  0.7198 -0.4659 -0.1760
  234MOL0     C31508   9.021  11.254   9.357  0.2251 -0.7017  0.1719
  234MOL0     C31509   8.678  11.050   9.575 -0.0715  0.3069  0.2869
  234MOL0     C31510   8.717  10.989   9.692  0.5443 -0.3490 -0.1733
  234MOL0     C31511   8.626  10.946   9.790  0.2102 -0.0785  0.7000
  234MOL0     C31512   8.492  10.950   9.753 -0.6806  0.0262  0.6717
  234MOL0     O31513   8.388  10.907   9.833 -0.4023 -0.5758  0.2278
  234MOL0     C31514   8.403  10.914   9.974 -0.1263  0.6279  0.1310
  234MOL0     C31515   8.269  10.947  10.038 -1.0285 -0.1030 -0.8479
  234MOL0     C31516   8.262  11.089  10.083 -0.6881  0.0718 -0.1171
  234MOL0     C31517   8.363  11.122  10.200  0.2945  0.5732 -0.1165
  234MOL0     C31518   8.328  11.061  10.326 -0.3367 -0.1616  0.5072
  234MOL0     C31519   8.290  11.025  10.436 -1.2729  0.0402 -0.1181
  234MOL0     C31520   8.458  10.978   9.621  0.1633  0.0246 -0.4762
  234MOL0     C31521   8.541  11.042   9.531 -0.2469  0.3983  0.2412
  234MOL0     C31522   8.469  11.090   9.402  1.1973 -0.0464 -0.3285
  234MOL0     H31523   9.144  11.084   9.631 -0.5320 -2.8780 -1.7988
  234MOL0     H31524   9.328  11.242   9.596 -1.3101 -2.0258  0.5440
  234MOL0     H31525   9.512  11.385   9.520 -1.5799 -0.2782  0.2617
  234MOL0     H31526   9.515  11.270   9.393 -1.7900 -0.0333  1.2956
  234MOL0     H31527   9.695  11.412   9.359 -0.5500 -2.3649  0.4708
  234MOL0     H31528   9.576  11.551   9.339 -0.5750  0.4719 -0.8197
  234MOL0     H31529   9.677  11.445   9.121 -0.2587  2.0962  1.0419
  234MOL0     H31530   9.494  11.456   9.145 -1.9239 -2.8660  0.7419
  234MOL0     H31531   9.666  11.202   9.171  1.2618  0.9689  0.4643
  234MOL0     H31532   9.484  11.215   9.172 -2.5447  2.0739 -3.1063
  234MOL0     H31533   9.678  11.255   8.953  1.8298  1.1356  1.2409
  234MOL0     H31534   9.550  11.133   8.959  2.4353 -0.0213  2.0270
  234MOL0     H31535   9.524  11.437   8.909  3.1844 -1.2300 -2.7304
  234MOL0     H31536   9.468  11.309   8.804 -0.6681 -0.6115  0.8079
  234MOL0     H31537   9.271  11.417   8.931  0.2549  0.4860  1.1419
  234MOL0     H31538   9.336  11.355   9.074  0.7467 -1.6336 -0.5551
  234MOL0     H31539   9.311  11.129   9.036  1.8473 -2.1905 -1.2690
  234MOL0     H31540   9.166  11.199   9.000  0.0578 -0.9800  1.7719
  234MOL0     H31541   9.126  11.236   8.719 -0.0811 -0.2717  0.8820
  234MOL0     H31542   9.146  11.177   8.458  2.3793  1.6315  0.3591
  234MOL0     H31543   9.276  11.073   8.414 -0.0018  0.3399  0.3356
  234MOL0     H31544   9.082  10.961   8.338 -3.9190  0.1660 -0.6118
  234MOL0     H31545   9.113  10.876   8.496 -0.3105  0.0967 -0.3815
  234MOL0     H31546   8.912  11.112   8.425  0.8967 -0.6899 -1.9846
  234MOL0     H31547   8.922  11.041   8.592  2.9350 -1.0918  0.5815
  234MOL0     H31548   8.893  10.819   8.421  1.4859  1.1100  1.2066
  234MOL0     H31549   8.792  10.934   8.344 -0.2789 -0.7227 -0.1574
  234MOL0     H31550   8.572  11.089   8.480  0.4777 -0.3487 -2.5111
  234MOL0     H31551   8.338  11.038   8.382 -2.1125 -2.3336 -1.4663
  234MOL0     H31552   7.946  10.851   8.401  2.7772 -0.9263  0.3467
  234MOL0     H31553   7.738  10.774   8.297 -0.4183  2.4638 -0.5310
  234MOL0     H31554   7.588  10.711   8.173  2.3347 -1.4226 -1.8962
  234MOL0     H31555   7.534  10.862   8.097  1.4893 -0.0208  3.7552
  234MOL0     H31556   7.467  10.722   7.901 -1.4055  1.4943  1.0104
  234MOL0     H31557   7.534  10.572   7.980 -3.5969 -1.6458  2.0791
  234MOL0     H31558   7.353  10.534   8.082  4.2052 -0.5299  2.5678
  234MOL0     H31559   7.358  10.690   8.171 -0.4019 -0.4164  0.1724
  234MOL0     H31560   7.224  10.677   7.882 -0.4139  1.5315 -0.5117
  234MOL0     H31561   7.238  10.799   8.008  0.6950 -0.3454 -0.7542
  234MOL0     H31562   7.090  10.696   8.145 -1.3436  0.5517 -0.4993
  234MOL0     H31563   7.126  10.536   8.066 -1.6867 -0.9408 -0.4423
  234MOL0     H31564   6.973  10.766   7.916 -2.8060 -0.2656  0.2176
  234MOL0     H31565   6.983  10.603   7.864  3.0521  1.7332 -1.4799
  234MOL0     H31566   6.851  10.656   8.133 -2.8913  2.3199 -0.1338
  234MOL0     H31567   6.837  10.526   8.030  0.0143  0.0610  0.5612
  234MOL0     H31568   6.642  10.707   8.025 -0.2973 -1.1596 -0.6986
  234MOL0     H31569   6.760  10.819   7.952 -3.2975  0.5838 -1.0739
  234MOL0     H31570   7.905  10.836   7.908  2.1169 -0.9897  0.4303
  234MOL0     H31571   8.121  10.882   8.002 -0.1130 -1.1883  0.0963
  234MOL0     H31572   8.421  10.622   8.395 -0.8339  1.4464 -2.7615
  234MOL0     H31573   8.659  10.677   8.493  0.5214  0.9532 -1.3496
  234MOL0     H31574   9.154  11.398   9.246  2.5782  1.1924  1.3269
  234MOL0     H31575   8.950  11.284   9.280 -0.6910 -1.3633  0.7475
  234MOL0     H31576   8.821  10.996   9.722  0.5518  0.1676 -0.3224
  234MOL0     H31577   8.662  10.914   9.887  0.4523  1.1602  1.0324
  234MOL0     H31578   8.481  10.985  10.004 -2.2656  4.2911 -2.2381
  234MOL0     H31579   8.430  10.816  10.015 -1.4804  1.2404  2.6865
  234MOL0     H31580   8.237  10.881  10.119  1.5867  1.1433  1.3943
  234MOL0     H31581   8.190  10.945   9.963 -3.2820  0.9714  1.3723
  234MOL0     H31582   8.160  11.115  10.114 -0.4631  2.1806 -0.9862
  234MOL0     H31583   8.282  11.154   9.998  0.9219  1.2265  1.0850
  234MOL0     H31584   8.466  11.091  10.184  1.5662  3.2380  1.9870
  234MOL0     H31585   8.362  11.232  10.207  0.1233  0.6705 -1.4293
  234MOL0     H31586   8.249  11.009  10.533  0.1362 -3.5752  0.0149
  234MOL0     H31587   8.352  10.971   9.602  0.0541 -1.1622  0.4911
  234MOL0     H31588   8.532  11.068   9.315  0.4377 -0.4539 -0.7831
  234MOL0     H31589   8.387  11.020   9.385  1.0597 -0.5358  2.0302
  234MOL0     H31590   8.451  11.198   9.403 -0.2149 -0.2344 -1.8451
  235MOL0     O31591   5.041   6.280   0.972  0.4330  0.6859  0.7496
  235MOL0     C31592   5.051   6.308   0.853  0.2019  1.0092  0.4268
  235MOL0     O31593   4.953   6.355   0.780  0.3018  0.2167  0.3515
  235MOL0     C31594   4.827   6.357   0.837 -0.0822 -0.5999 -0.0091
  235MOL0     C31595   4.745   6.254   0.802  0.6765  0.4442  0.2696
  235MOL0     C31596   4.613   6.247   0.853  0.9713 -0.2643 -0.2721
  235MOL0     C31597   4.563   6.354   0.936 -0.0556  0.2542 -0.0951
  235MOL0     O31598   4.432   6.365   0.962 -0.1385 -0.4789  0.1840
  235MOL0     C31599   4.362   6.492   0.993  0.5908  0.4877 -0.2758
  235MOL0     C31600   4.211   6.464   0.983 -0.0477  0.1752  0.4131
  235MOL0     C31601   4.122   6.584   1.020 -0.4898 -0.0380  0.0916
  235MOL0     C31602   4.067   6.649   0.892  0.4186 -0.1309  0.1798
  235MOL0     C31603   3.994   6.783   0.914  0.5031 -0.6845 -0.4296
  235MOL0     C31604   3.876   6.761   1.010 -0.0844 -0.5628  0.5706
  235MOL0     C31605   3.772   6.880   1.010  0.2258 -0.1455 -0.1184
  235MOL0     C31606   3.705   6.907   0.867 -0.6779  0.5655 -0.3731
  235MOL0     N31607   3.598   7.005   0.887  0.5207  0.3452  0.3474
  235MOL0     C31608   3.615   7.125   0.956 -0.5752 -0.7141  0.7986
  235MOL0     C31609   3.497   7.199   0.949  0.1823  0.2125  0.0066
  235MOL0     C31610   3.478   7.338   1.007  0.5030 -0.4652 -0.0364
  235MOL0     C31611   3.415   7.441   0.909 -0.6417  0.0268 -1.1968
  235MOL0     C31612   3.498   7.465   0.777 -0.4630  1.6392 -0.3057
  235MOL0     C31613   3.425   7.567   0.689 -0.4692 -0.1548  0.0113
  235MOL0     O31614   3.451   7.530   0.546  0.1625 -0.1668 -0.4436
  235MOL0     C31615   3.570   7.556   0.482  0.1126  0.2346  0.0970
  235MOL0     C31616   3.596   7.501   0.358  0.3921 -0.1318  0.7403
  235MOL0     C31617   3.721   7.510   0.292 -0.1125  0.2229 -0.3286
  235MOL0     C31618   3.821   7.583   0.348 -0.6460 -0.3151  0.5070
  235MOL0     C31619   3.951   7.588   0.288 -0.4569 -0.3647  0.6920
  235MOL0     O31620   4.042   7.663   0.347  0.1803  0.0293 -0.9954
  235MOL0     C31621   4.162   7.668   0.288 -0.4970  0.2317  0.0200
  235MOL0     C31622   4.271   7.588   0.344 -0.2717 -0.3979  0.2098
  235MOL0     C31623   4.397   7.595   0.280  0.3632 -0.1613  0.5113
  235MOL0     C31624   4.419   7.685   0.171 -0.4263  0.3864  0.0273
  235MOL0     O31625   4.540   7.720   0.114 -0.0470 -0.1328  0.7221
  235MOL0     C31626   4.645   7.625   0.130 -0.2617  0.1041  0.0141
  235MOL0     C31627   4.741   7.674   0.017  0.0704  0.4806 -0.1705
  235MOL0     C31628   4.886   7.646   0.054  0.0284 -0.0502 -1.0595
  235MOL0     C31629   4.972   7.661  -0.073  0.0707  0.2565  0.2772
  235MOL0     C31630   4.991   7.807  -0.116 -0.1677  0.3254  0.1978
  235MOL0     C31631   5.038   7.822  -0.261  0.1227 -0.2906 -0.0490
  235MOL0     C31632   5.162   7.744  -0.293 -0.4483  0.1775 -0.1136
  235MOL0     C31633   5.215   7.803  -0.426 -0.1553 -0.3343  0.1855
  235MOL0    Cl31634   5.351   7.705  -0.473 -0.0000 -0.4184  0.4248
  235MOL0     C31635   4.313   7.769   0.134 -0.4525 -0.2886 -0.5326
  235MOL0     C31636   4.188   7.756   0.186  0.0999 -0.4659 -0.5767
  235MOL0     O31637   3.966   7.529   0.174 -0.6709  0.2579 -0.7411
  235MOL0     C31638   3.800   7.641   0.477 -0.2667 -1.2737 -0.2011
  235MOL0     C31639   3.671   7.640   0.532 -0.0973  0.2762 -0.3870
  235MOL0     N31640   3.410   7.114   0.883  0.5648  0.8883  0.5908
  235MOL0     N31641   3.469   7.007   0.842  0.0719 -0.4372 -0.2573
  235MOL0     C31642   4.656   6.455   0.971 -0.8881 -0.4397 -0.0100
  235MOL0     C31643   4.784   6.455   0.929 -0.5292 -0.2034  0.3446
  235MOL0     C31644   5.180   6.286   0.784 -0.5530 -0.4269  0.0302
  235MOL0     C31645   5.232   6.157   0.797 -0.6712 -0.2287 -0.3435
  235MOL0     C31646   5.351   6.121   0.741  0.2771 -0.1151 -0.4097
  235MOL0     C31647   5.422   6.217   0.667 -0.4112 -0.4190 -0.5474
  235MOL0     O31648   5.560   6.204   0.643  0.2751 -0.1548 -0.6895
  235MOL0     C31649   5.630   6.180   0.760  0.1950 -0.0131 -0.1247
  235MOL0     C31650   5.726   6.296   0.780 -0.0744 -0.0681 -0.2665
  235MOL0     C31651   5.819   6.238   0.888  0.0438  0.1637  0.0130
  235MOL0     C31652   5.907   6.364   0.948  0.6371 -0.2204 -0.3829
  235MOL0     C31653   6.006   6.325   1.051 -0.1574  0.6210 -0.4680
  235MOL0     C31654   6.089   6.304   1.129 -0.2308 -0.2455  0.1380
  235MOL0     C31655   5.377   6.346   0.653  0.2497 -0.7956 -0.7913
  235MOL0     C31656   5.247   6.386   0.712 -0.2117 -0.5107 -0.3331
  235MOL0     C31657   5.220   6.533   0.707 -0.7652 -0.4192  0.4743
  235MOL0     H31658   4.772   6.181   0.726 -3.6092 -1.7190  0.5085
  235MOL0     H31659   4.555   6.168   0.807  2.0600 -1.5212  0.4654
  235MOL0     H31660   4.377   6.518   1.098  3.3303  0.4291 -0.5869
  235MOL0     H31661   4.395   6.573   0.928 -1.7686  1.6452 -0.1286
  235MOL0     H31662   4.183   6.393   1.062  0.9316  0.9248  1.4805
  235MOL0     H31663   4.183   6.424   0.886 -2.7607 -0.7187  1.4699
  235MOL0     H31664   4.194   6.652   1.068 -0.0426  0.3269 -1.0736
  235MOL0     H31665   4.047   6.559   1.096 -0.4967  0.8232  0.3812
  235MOL0     H31666   4.146   6.667   0.818 -0.3540 -0.3370 -0.7191
  235MOL0     H31667   3.995   6.583   0.843 -3.9750  4.2668 -0.1313
  235MOL0     H31668   4.067   6.852   0.958  0.7902  0.9557 -3.2632
  235MOL0     H31669   3.953   6.831   0.825 -2.1087  1.0297  1.5619
  235MOL0     H31670   3.826   6.677   0.961  0.4755 -2.7165  3.4084
  235MOL0     H31671   3.903   6.727   1.111  3.7035 -0.2891 -0.2100
  235MOL0     H31672   3.823   6.972   1.040  1.7595 -0.0988 -2.5840
  235MOL0     H31673   3.696   6.853   1.084 -0.3499 -0.2181 -0.7355
  235MOL0     H31674   3.772   6.957   0.797 -0.2709 -0.6166 -0.8598
  235MOL0     H31675   3.656   6.829   0.807  0.4427  1.6605 -2.8442
  235MOL0     H31676   3.706   7.160   1.004 -0.6281  1.7459 -0.6846
  235MOL0     H31677   3.410   7.327   1.092 -1.7468 -1.2695 -1.8380
  235MOL0     H31678   3.568   7.388   1.043 -0.2100  2.0840 -1.5459
  235MOL0     H31679   3.313   7.412   0.881 -1.6234  0.6032  1.5512
  235MOL0     H31680   3.404   7.534   0.965 -0.5448  0.9974 -2.7134
  235MOL0     H31681   3.508   7.372   0.721 -0.5212  1.5095 -0.1018
  235MOL0     H31682   3.598   7.504   0.796 -0.2592  0.6503  0.7488
  235MOL0     H31683   3.451   7.673   0.697 -0.3376 -0.1048 -0.9387
  235MOL0     H31684   3.319   7.556   0.712 -0.8880  0.7484 -1.3670
  235MOL0     H31685   3.519   7.442   0.307 -0.2038  1.4403 -0.2436
  235MOL0     H31686   3.731   7.453   0.200  2.9802  1.5635 -0.9304
  235MOL0     H31687   4.258   7.530   0.435 -3.7948  0.3956  0.3761
  235MOL0     H31688   4.481   7.540   0.320  0.0115 -0.8626  0.2911
  235MOL0     H31689   4.691   7.635   0.229 -0.6586  1.4643  0.0879
  235MOL0     H31690   4.618   7.520   0.114 -1.9751  0.8043 -2.3100
  235MOL0     H31691   4.716   7.629  -0.079  0.3284  3.0275 -1.4949
  235MOL0     H31692   4.733   7.783   0.027  1.7970  0.6887 -0.7690
  235MOL0     H31693   4.926   7.721   0.123 -1.7318 -0.4433  0.4341
  235MOL0     H31694   4.898   7.549   0.102 -1.6805 -0.5448 -1.5541
  235MOL0     H31695   4.932   7.601  -0.155  0.4945  2.5826 -1.7414
  235MOL0     H31696   5.072   7.629  -0.043 -0.5282 -1.3276  0.6790
  235MOL0     H31697   5.066   7.840  -0.043  0.8971 -2.1650  0.3301
  235MOL0     H31698   4.896   7.858  -0.097 -0.9727 -0.3740 -1.7183
  235MOL0     H31699   4.952   7.782  -0.316 -0.0451 -3.0099  2.0041
  235MOL0     H31700   5.035   7.926  -0.297 -3.8100  1.0049  3.2112
  235MOL0     H31701   5.130   7.640  -0.310 -0.8004  0.2584  0.0409
  235MOL0     H31702   5.235   7.751  -0.212  1.9293  0.5678 -2.1893
  235MOL0     H31703   5.145   7.791  -0.509  0.3843 -1.5895 -0.1180
  235MOL0     H31704   5.233   7.910  -0.415 -0.3720  0.2030 -3.3791
  235MOL0     H31705   4.335   7.853   0.069 -0.4467  1.1779  1.2980
  235MOL0     H31706   4.102   7.819   0.164 -0.0290 -0.6205 -0.5133
  235MOL0     H31707   3.875   7.709   0.517 -1.2516  0.2364 -0.8221
  235MOL0     H31708   3.664   7.692   0.627  1.5614  0.5331 -0.3707
  235MOL0     H31709   4.624   6.534   1.039  0.4401  1.3726 -1.4111
  235MOL0     H31710   4.848   6.531   0.972  0.0616 -1.5166  1.8901
  235MOL0     H31711   5.173   6.083   0.850 -1.5481  0.0135 -0.9459
  235MOL0     H31712   5.392   6.022   0.754  1.8992  0.6132  0.4398
  235MOL0     H31713   5.685   6.086   0.748  0.8811  0.5969 -2.1201
  235MOL0     H31714   5.572   6.172   0.853 -1.2850 -1.9148 -1.1291
  235MOL0     H31715   5.677   6.385   0.818 -0.1087 -0.3114  0.2732
  235MOL0     H31716   5.778   6.318   0.687  2.2009 -0.2781  0.8824
  235MOL0     H31717   5.895   6.169   0.849  1.0666  1.0387  0.4139
  235MOL0     H31718   5.759   6.198   0.970  2.8051 -3.0329  0.7074
  235MOL0     H31719   5.962   6.415   0.869  1.4803  2.4162  1.7181
  235MOL0     H31720   5.838   6.436   0.993  0.5345  0.3908 -1.5070
  235MOL0     H31721   6.177   6.299   1.191  0.7326  0.5891 -1.1063
  235MOL0     H31722   5.446   6.413   0.602  3.3460  0.6171  4.4527
  235MOL0     H31723   5.115   6.552   0.685 -0.6216 -0.1032  0.0663
  235MOL0     H31724   5.241   6.577   0.805 -1.3236  1.2688 -0.1387
  235MOL0     H31725   5.286   6.585   0.638  1.5101  0.0667  2.8290
  236MOL0     O31726   5.219   5.109   7.006  0.4054 -0.5185 -0.0428
  236MOL0     C31727   5.233   5.018   6.928  1.1867  0.8156  0.5278
  236MOL0     O31728   5.347   4.975   6.877  0.4152  0.4013 -0.2306
  236MOL0     C31729   5.465   5.031   6.904 -0.4566  0.5694  0.1450
  236MOL0     C31730   5.577   4.953   6.933  0.0127 -0.0062  0.7055
  236MOL0     C31731   5.703   5.006   6.959  1.0865 -0.6547  0.2835
  236MOL0     C31732   5.720   5.149   6.954  0.3289  1.5901 -0.2377
  236MOL0     O31733   5.840   5.205   6.965 -0.5530 -0.4293  0.3462
  236MOL0     C31734   5.938   5.168   6.863  0.7495  0.7530 -0.6058
  236MOL0     C31735   6.066   5.104   6.932 -1.0320 -0.1296  0.3364
  236MOL0     C31736   6.159   5.217   6.990 -0.1368 -0.0142  0.5769
  236MOL0     C31737   6.295   5.160   7.026  0.0917  0.3566 -0.3631
  236MOL0     C31738   6.382   5.262   7.087 -0.4001 -0.5189 -0.3630
  236MOL0     C31739   6.524   5.236   7.077  0.3267  0.1271 -0.6003
  236MOL0     C31740   6.616   5.345   7.134  0.0821 -1.1506 -0.3322
  236MOL0     C31741   6.757   5.296   7.157 -0.3390  0.1856  0.9820
  236MOL0     N31742   6.837   5.386   7.238  0.2775 -0.1798  0.1235
  236MOL0     C31743   6.925   5.493   7.200  0.0955 -0.1779  0.2539
  236MOL0     C31744   6.964   5.539   7.322 -0.6174 -0.6412  0.2703
  236MOL0     C31745   7.042   5.661   7.347 -0.2245 -0.2295 -0.4288
  236MOL0     C31746   7.199   5.639   7.345  0.1715 -0.2397 -0.9049
  236MOL0     C31747   7.247   5.525   7.429  0.4505  0.0447 -0.0814
  236MOL0     C31748   7.399   5.506   7.432  0.4089 -0.1220  0.6363
  236MOL0     O31749   7.437   5.473   7.300  0.5877 -0.4180  0.1250
  236MOL0     C31750   7.569   5.485   7.269  0.7311 -0.1366 -0.2505
  236MOL0     C31751   7.671   5.535   7.355 -0.0855  0.0607 -0.2761
  236MOL0     C31752   7.805   5.546   7.312  0.0126 -0.7895 -0.0501
  236MOL0     C31753   7.837   5.515   7.184  0.2890  0.4246  0.5911
  236MOL0     C31754   7.983   5.516   7.153 -0.2697  0.0581  1.1973
  236MOL0     O31755   8.071   5.539   7.249 -0.2886  0.4113  0.0824
  236MOL0     C31756   8.205   5.573   7.228  0.1205  0.0167 -0.4318
  236MOL0     C31757   8.259   5.667   7.132  0.4430 -0.4147 -0.8102
  236MOL0     C31758   8.387   5.695   7.121 -0.0735  0.8892 -0.2742
  236MOL0     C31759   8.483   5.636   7.202  0.1693  0.3666  0.1072
  236MOL0     O31760   8.619   5.661   7.175  0.9451  0.7412 -0.5659
  236MOL0     C31761   8.693   5.681   7.296  0.2572 -0.3573  0.4399
  236MOL0     C31762   8.821   5.745   7.252  0.1513 -0.6933  0.2128
  236MOL0     C31763   8.920   5.659   7.171  0.7161 -0.7512 -0.1307
  236MOL0     C31764   9.036   5.733   7.115  0.5075  0.8690  0.4305
  236MOL0     C31765   9.152   5.728   7.208 -0.2812  0.4855  0.2887
  236MOL0     C31766   9.263   5.810   7.150 -0.4914 -0.0727 -1.1549
  236MOL0     C31767   9.336   5.762   7.027  0.2638 -0.2297 -0.0190
  236MOL0     C31768   9.463   5.838   7.000 -0.1243 -0.7661  0.3478
  236MOL0    Cl31769   9.457   6.015   6.972 -0.0987  0.0551 -0.2456
  236MOL0     C31770   8.442   5.553   7.302 -0.8885 -0.0690  0.0433
  236MOL0     C31771   8.306   5.519   7.315  0.6767 -0.2219  0.3453
  236MOL0     O31772   8.011   5.495   7.036  0.2457 -0.1615  0.0114
  236MOL0     C31773   7.737   5.470   7.098 -0.2678  0.1727 -0.3260
  236MOL0     C31774   7.605   5.451   7.138 -0.2965  0.5473  0.0853
  236MOL0     N31775   6.924   5.452   7.425  0.8358 -0.6196  0.3023
  236MOL0     N31776   6.849   5.367   7.375 -0.1276  0.4338  0.2239
  236MOL0     C31777   5.608   5.230   6.926  0.7668  0.7380  0.0700
  236MOL0     C31778   5.487   5.171   6.894  0.1058 -0.2186 -0.6054
  236MOL0     C31779   5.112   4.945   6.884 -0.0168  0.1119 -0.2329
  236MOL0     C31780   5.127   4.834   6.802  0.0781  0.8213 -0.4912
  236MOL0     C31781   5.019   4.762   6.747 -0.6799  0.6267 -0.1189
  236MOL0     C31782   4.883   4.795   6.787 -0.2875  0.3950  0.1635
  236MOL0     O31783   4.760   4.748   6.746  0.4665  0.3096 -0.3111
  236MOL0     C31784   4.746   4.653   6.646 -0.1537 -0.5367 -0.5819
  236MOL0     C31785   4.601   4.604   6.630  0.8558  0.0038 -0.4186
  236MOL0     C31786   4.495   4.722   6.641  0.3012 -0.2632 -0.3920
  236MOL0     C31787   4.355   4.668   6.607 -0.1570 -0.6239  0.1608
  236MOL0     C31788   4.282   4.627   6.726  0.0076  0.3220 -0.4068
  236MOL0     C31789   4.241   4.574   6.823  0.0767  0.6183 -0.8502
  236MOL0     C31790   4.874   4.900   6.875  0.6128  0.4551 -0.7961
  236MOL0     C31791   4.979   4.974   6.931 -0.7587  0.5439  0.7270
  236MOL0     C31792   4.933   5.085   7.025 -0.0298 -0.5061 -0.2894
  236MOL0     H31793   5.569   4.845   6.936 -1.6969  0.0237 -0.9383
  236MOL0     H31794   5.782   4.939   6.991  0.7941 -0.4185  1.5799
  236MOL0     H31795   5.906   5.104   6.780  1.3059  2.3114 -2.0808
  236MOL0     H31796   5.955   5.264   6.815 -2.6350  1.4793 -0.5882
  236MOL0     H31797   6.128   5.057   6.855  0.3313 -2.8156  2.8870
  236MOL0     H31798   6.036   5.026   7.002 -2.8889  1.3547  1.2880
  236MOL0     H31799   6.095   5.267   7.062 -2.2814 -1.1670 -0.4355
  236MOL0     H31800   6.182   5.288   6.910  2.1737  0.0150  1.1796
  236MOL0     H31801   6.287   5.076   7.096  2.9834 -0.1095 -0.4789
  236MOL0     H31802   6.332   5.124   6.930 -1.6007 -0.9321 -0.5915
  236MOL0     H31803   6.376   5.359   7.038  2.1860 -0.1538 -0.0879
  236MOL0     H31804   6.361   5.265   7.195 -2.0411  1.4906 -0.6854
  236MOL0     H31805   6.540   5.140   7.128 -1.9212 -0.0293 -0.1188
  236MOL0     H31806   6.549   5.220   6.972  0.6251 -2.4060 -0.2188
  236MOL0     H31807   6.583   5.393   7.227  0.3611  1.2515 -1.3789
  236MOL0     H31808   6.610   5.427   7.061 -0.4382 -2.0728 -1.3575
  236MOL0     H31809   6.756   5.199   7.207  0.0873 -0.6458 -0.5603
  236MOL0     H31810   6.808   5.286   7.061  0.1322 -0.5489  1.2966
  236MOL0     H31811   6.934   5.567   7.121 -0.1567  0.2474  0.6128
  236MOL0     H31812   7.014   5.744   7.282  2.3755  0.6660 -0.5443
  236MOL0     H31813   7.022   5.688   7.451  0.9476  1.3547 -0.5784
  236MOL0     H31814   7.232   5.603   7.248 -0.6201 -1.4868 -0.7298
  236MOL0     H31815   7.243   5.733   7.380  1.4649 -1.0933 -0.1449
  236MOL0     H31816   7.191   5.440   7.388  1.7746 -0.5198 -0.7613
  236MOL0     H31817   7.217   5.556   7.530 -0.6078  1.8174 -0.8841
  236MOL0     H31818   7.420   5.429   7.506 -0.0144 -1.2189 -0.3553
  236MOL0     H31819   7.439   5.603   7.464  2.7466 -0.5956 -0.6329
  236MOL0     H31820   7.652   5.570   7.456  2.2044 -0.9225  0.5820
  236MOL0     H31821   7.878   5.583   7.383 -0.0625 -1.5588  0.4456
  236MOL0     H31822   8.197   5.715   7.057  1.0302  2.0208  0.1936
  236MOL0     H31823   8.427   5.746   7.034 -1.2291 -2.0642 -2.6776
  236MOL0     H31824   8.646   5.747   7.370 -0.8979  0.2793 -0.8124
  236MOL0     H31825   8.715   5.592   7.355 -0.2826  1.0767  2.9562
  236MOL0     H31826   8.787   5.828   7.190  0.7194  0.2821  1.1766
  236MOL0     H31827   8.876   5.784   7.337 -0.5086 -0.1524  0.4001
  236MOL0     H31828   8.953   5.570   7.227  1.0628  0.0589  0.9906
  236MOL0     H31829   8.863   5.627   7.083 -3.8110  4.2776  0.4680
  236MOL0     H31830   9.009   5.838   7.107  0.6895  0.7769 -2.4518
  236MOL0     H31831   9.057   5.705   7.011 -1.1034 -1.6983  0.7016
  236MOL0     H31832   9.171   5.623   7.228  0.9241  1.0084  2.1924
  236MOL0     H31833   9.123   5.769   7.306 -1.3573 -4.0717  2.1429
  236MOL0     H31834   9.216   5.905   7.122 -0.8064  0.4426  0.9801
  236MOL0     H31835   9.337   5.834   7.227 -1.3308 -0.4411 -0.2092
  236MOL0     H31836   9.266   5.764   6.943  1.9283 -1.9589 -1.5428
  236MOL0     H31837   9.367   5.657   7.027 -3.5858 -1.5300 -1.2483
  236MOL0     H31838   9.532   5.819   7.082  2.1204  4.2074 -0.0099
  236MOL0     H31839   9.503   5.804   6.904  0.1704  0.3856  0.0404
  236MOL0     H31840   8.520   5.502   7.359 -0.3500 -1.5678 -1.9187
  236MOL0     H31841   8.261   5.465   7.398  1.0458  0.4077  0.9692
  236MOL0     H31842   7.765   5.442   6.997 -2.6724 -2.1240 -0.4493
  236MOL0     H31843   7.530   5.432   7.062 -2.2057  0.5687  1.8628
  236MOL0     H31844   5.614   5.338   6.940 -1.7952  0.7927  1.3055
  236MOL0     H31845   5.400   5.236   6.881  0.0437 -0.3363 -0.7772
  236MOL0     H31846   5.226   4.827   6.759 -1.0154  1.7096 -3.4174
  236MOL0     H31847   5.043   4.683   6.677 -1.1919 -0.7530  1.2249
  236MOL0     H31848   4.801   4.563   6.673 -1.1970 -1.0571 -0.1394
  236MOL0     H31849   4.780   4.690   6.548  1.1742  1.6956  0.6446
  236MOL0     H31850   4.579   4.526   6.704 -1.5494  0.7208 -0.2642
  236MOL0     H31851   4.586   4.552   6.535  0.3666  1.0315 -0.9214
  236MOL0     H31852   4.516   4.808   6.577 -1.1106  0.5490  0.2014
  236MOL0     H31853   4.491   4.743   6.748 -1.3484 -1.6631 -0.1264
  236MOL0     H31854   4.302   4.747   6.552  1.4463  0.3503 -0.0454
  236MOL0     H31855   4.354   4.589   6.532  0.0581 -0.9918  0.5463
  236MOL0     H31856   4.208   4.523   6.911  1.2609  0.4861 -0.4707
  236MOL0     H31857   4.775   4.922   6.913  0.7272 -2.2296  1.3490
  236MOL0     H31858   4.941   5.179   6.968 -0.8402 -1.0395 -1.3182
  236MOL0     H31859   4.828   5.081   7.054  0.0478  0.4841  0.1502
  236MOL0     H31860   4.994   5.093   7.115  1.2910  3.5041 -1.2977
  237MOL0     O31861   3.388   3.180   4.320  0.6392  0.1428 -0.7071
  237MOL0     C31862   3.355   3.122   4.427 -0.0390 -0.4148  0.1566
  237MOL0     O31863   3.435   3.102   4.530  0.0259  0.1095  0.7796
  237MOL0     C31864   3.561   3.159   4.521 -1.0282  0.2561  0.2492
  237MOL0     C31865   3.592   3.294   4.493 -0.0538  0.0915  0.8203
  237MOL0     C31866   3.727   3.341   4.496  0.3691 -0.3724 -0.7895
  237MOL0     C31867   3.833   3.255   4.524 -0.1754  0.3820 -0.1102
  237MOL0     O31868   3.965   3.289   4.511 -0.0265 -0.1066  0.6984
  237MOL0     C31869   4.003   3.425   4.484 -0.1491 -0.7163 -0.0069
  237MOL0     C31870   4.158   3.428   4.476  0.2614  0.1702  0.0448
  237MOL0     C31871   4.218   3.552   4.416  0.2892 -0.1613  0.1106
  237MOL0     C31872   4.373   3.568   4.398  0.2487  0.6119 -0.2026
  237MOL0     C31873   4.388   3.700   4.313 -0.1450  0.0116  0.9489
  237MOL0     C31874   4.536   3.743   4.290  0.0364 -0.2578 -0.5941
  237MOL0     C31875   4.536   3.871   4.202 -0.0962 -0.2570 -0.1978
  237MOL0     C31876   4.670   3.935   4.191 -0.0818  0.4824  0.6215
  237MOL0     N31877   4.767   3.929   4.309  0.0276  0.7762  0.4351
  237MOL0     C31878   4.882   3.860   4.326 -0.2557 -0.1805  0.4240
  237MOL0     C31879   4.917   3.878   4.455 -0.8246 -0.1362  0.1076
  237MOL0     C31880   5.043   3.840   4.517 -0.7850 -0.7257 -0.1986
  237MOL0     C31881   5.166   3.903   4.450  0.0230 -0.8296 -0.4139
  237MOL0     C31882   5.297   3.843   4.499 -0.5250 -0.1653  0.0266
  237MOL0     C31883   5.340   3.879   4.642  0.1094  0.0464  0.4969
  237MOL0     O31884   5.481   3.889   4.659 -0.3867 -0.7207  1.0063
  237MOL0     C31885   5.546   3.766   4.689  0.0173  0.4505 -0.5190
  237MOL0     C31886   5.492   3.629   4.689  0.0784 -0.7400 -0.3019
  237MOL0     C31887   5.581   3.523   4.720  0.4179 -0.2465 -0.0641
  237MOL0     C31888   5.725   3.545   4.741  0.4689 -0.4228  0.0464
  237MOL0     C31889   5.825   3.431   4.740  0.2101 -0.3532  0.3722
  237MOL0     O31890   5.951   3.459   4.774  0.1000  0.1075 -0.0866
  237MOL0     C31891   6.049   3.371   4.779 -0.3411  1.1110  0.0480
  237MOL0     C31892   6.147   3.393   4.873  0.2941 -0.4500  0.5736
  237MOL0     C31893   6.253   3.310   4.893  0.3905  0.5081 -0.1327
  237MOL0     C31894   6.271   3.203   4.801  0.4528 -0.9391 -0.3691
  237MOL0     O31895   6.372   3.115   4.830 -0.4491  0.9059 -0.3426
  237MOL0     C31896   6.416   3.033   4.715 -0.0196  0.2833 -1.0889
  237MOL0     C31897   6.556   2.982   4.747 -0.4697 -0.7840 -0.1672
  237MOL0     C31898   6.620   2.933   4.613  0.5078 -0.6125 -0.2808
  237MOL0     C31899   6.711   2.807   4.636 -0.0349 -0.2954 -0.0414
  237MOL0     C31900   6.756   2.740   4.506 -0.4221  0.8258 -0.4156
  237MOL0     C31901   6.855   2.823   4.422  1.2279  0.2232 -0.1256
  237MOL0     C31902   6.909   2.747   4.293 -0.2686  0.0171 -0.0775
  237MOL0     C31903   7.035   2.815   4.248  0.1689  0.0392  0.3106
  237MOL0    Cl31904   7.165   2.816   4.371  0.0853 -0.2716  0.6813
  237MOL0     C31905   6.182   3.189   4.697  1.1554  0.0696 -0.0195
  237MOL0     C31906   6.061   3.264   4.692 -0.6905  0.3469  0.1668
  237MOL0     O31907   5.782   3.317   4.709  0.0618  0.3625 -0.2613
  237MOL0     C31908   5.768   3.677   4.744  1.2062 -0.8743  0.0031
  237MOL0     C31909   5.680   3.779   4.714 -0.3147 -0.2260  0.7410
  237MOL0     N31910   4.820   3.949   4.518 -0.0934  1.4374  0.6681
  237MOL0     N31911   4.739   3.980   4.427  0.2353  0.1060  0.6707
  237MOL0     C31912   3.800   3.118   4.562 -0.7942  0.2852 -0.1880
  237MOL0     C31913   3.667   3.078   4.563  0.0939  0.6721  0.0507
  237MOL0     C31914   3.215   3.087   4.447 -0.6465  0.5358  0.0015
  237MOL0     C31915   3.173   3.033   4.569  0.1779  0.7249  0.0987
  237MOL0     C31916   3.043   2.999   4.594 -0.8162  0.4478  0.2229
  237MOL0     C31917   2.940   3.011   4.500 -0.2143  0.3116  0.3090
  237MOL0     O31918   2.802   2.984   4.512 -0.1538  0.9269 -0.0532
  237MOL0     C31919   2.760   2.935   4.636 -0.0853 -0.0852  0.4824
  237MOL0     C31920   2.760   2.787   4.649 -0.2612 -0.5165  1.1383
  237MOL0     C31921   2.680   2.757   4.775  0.9473  0.6202  0.5691
  237MOL0     C31922   2.688   2.614   4.830  0.0633 -0.2895  1.0893
  237MOL0     C31923   2.824   2.567   4.859  0.7661 -0.1403 -0.2766
  237MOL0     C31924   2.932   2.523   4.882 -0.4671 -0.0718 -0.0890
  237MOL0     C31925   2.983   3.049   4.368  0.8155 -1.1807  0.8357
  237MOL0     C31926   3.114   3.088   4.339  0.4398 -0.0492 -0.2484
  237MOL0     C31927   3.135   3.134   4.195  0.6236  0.0649 -0.2390
  237MOL0     H31928   3.515   3.363   4.460  0.4322  0.1639 -0.1978
  237MOL0     H31929   3.742   3.445   4.469  0.1907 -0.9410 -3.3657
  237MOL0     H31930   3.953   3.454   4.391 -0.9402 -2.5788 -0.2171
  237MOL0     H31931   3.962   3.494   4.557  1.0534 -0.3239  0.3142
  237MOL0     H31932   4.204   3.341   4.428  1.5934  0.4341  0.7954
  237MOL0     H31933   4.189   3.423   4.581 -0.9209  1.9332  0.5377
  237MOL0     H31934   4.182   3.634   4.480  1.3617 -0.8729  1.6891
  237MOL0     H31935   4.183   3.567   4.314  4.0536  1.4997 -1.1301
  237MOL0     H31936   4.417   3.587   4.496 -1.5964 -0.2391  0.8463
  237MOL0     H31937   4.417   3.476   4.358 -1.0452  0.0658 -0.4345
  237MOL0     H31938   4.337   3.700   4.216  0.2045  1.9311  0.7170
  237MOL0     H31939   4.333   3.783   4.360 -1.4618 -0.3969  0.1737
  237MOL0     H31940   4.578   3.771   4.387  2.5552  0.2801 -1.7635
  237MOL0     H31941   4.605   3.664   4.261  1.7465  0.9379  0.0696
  237MOL0     H31942   4.472   3.950   4.243 -1.7311 -1.6745  0.1243
  237MOL0     H31943   4.497   3.846   4.103 -3.0047  1.5481  0.3562
  237MOL0     H31944   4.719   3.880   4.110  0.2117  0.6205  0.7046
  237MOL0     H31945   4.652   4.037   4.156  0.6726  0.3687 -0.1198
  237MOL0     H31946   4.937   3.802   4.253  3.5467  1.6555  1.5461
  237MOL0     H31947   5.045   3.878   4.620 -0.2943 -0.5046 -0.2861
  237MOL0     H31948   5.060   3.733   4.525  1.9388 -0.4945 -1.7353
  237MOL0     H31949   5.161   3.891   4.341  1.3558 -2.4205 -0.3395
  237MOL0     H31950   5.164   4.010   4.474 -3.6159 -0.6654 -0.9058
  237MOL0     H31951   5.375   3.872   4.428  0.4994  0.1631  1.2636
  237MOL0     H31952   5.285   3.735   4.489  0.5439 -0.2393 -0.5355
  237MOL0     H31953   5.280   3.808   4.700 -2.9564 -0.5299 -2.9878
  237MOL0     H31954   5.297   3.979   4.654  0.8673  0.1992  2.1738
  237MOL0     H31955   5.390   3.596   4.673 -0.8358  1.1800  1.0914
  237MOL0     H31956   5.544   3.421   4.721 -0.5654  0.0869  1.7794
  237MOL0     H31957   6.132   3.474   4.944 -2.2584  0.8055 -1.2522
  237MOL0     H31958   6.320   3.313   4.978  0.4037  0.2637 -0.1331
  237MOL0     H31959   6.341   2.954   4.707 -1.5513  1.3589  1.5713
  237MOL0     H31960   6.423   3.104   4.632 -0.0279  0.5449 -0.8690
  237MOL0     H31961   6.618   3.062   4.788  0.7245 -2.6613  1.9085
  237MOL0     H31962   6.550   2.907   4.826 -0.2602 -3.2605 -2.3468
  237MOL0     H31963   6.548   2.897   4.538  0.6539 -2.2716  0.3305
  237MOL0     H31964   6.676   3.015   4.568 -1.2157  0.7295 -0.0835
  237MOL0     H31965   6.663   2.728   4.693 -1.4999  2.0355  2.1870
  237MOL0     H31966   6.800   2.842   4.689  0.5979 -1.6223 -0.1988
  237MOL0     H31967   6.671   2.703   4.448 -0.3756 -0.2241  0.1564
  237MOL0     H31968   6.808   2.648   4.534 -1.9363  0.0743  0.0442
  237MOL0     H31969   6.802   2.916   4.398 -0.8994 -0.6297  1.0168
  237MOL0     H31970   6.934   2.831   4.497 -0.0269 -2.6358  1.6808
  237MOL0     H31971   6.840   2.753   4.208  1.8406 -2.8783 -2.1941
  237MOL0     H31972   6.928   2.642   4.316 -0.6328  0.3270  1.7832
  237MOL0     H31973   7.068   2.762   4.157  0.1231 -1.6275  1.2306
  237MOL0     H31974   7.020   2.916   4.207 -0.5670 -0.4838 -0.7680
  237MOL0     H31975   6.198   3.113   4.622  0.1292 -0.6793  0.4893
  237MOL0     H31976   5.993   3.248   4.609 -0.7024 -0.4841  0.3278
  237MOL0     H31977   5.870   3.693   4.777  1.5407  2.3411 -2.1766
  237MOL0     H31978   5.722   3.879   4.718  1.3614 -0.8359 -0.4457
  237MOL0     H31979   3.886   3.057   4.587  0.4936  2.1061  0.0381
  237MOL0     H31980   3.654   2.978   4.603 -3.0918  1.1797  0.5616
  237MOL0     H31981   3.239   3.022   4.654 -0.2514 -1.2285  0.2163
  237MOL0     H31982   3.022   2.958   4.692 -1.5556 -1.4630 -0.6790
  237MOL0     H31983   2.654   2.959   4.637  0.0768  1.1715 -2.1782
  237MOL0     H31984   2.814   2.981   4.719  2.1949 -1.7363  0.0331
  237MOL0     H31985   2.862   2.749   4.639  0.5474  1.8001 -0.0819
  237MOL0     H31986   2.702   2.748   4.564 -0.4266  0.9556  0.5459
  237MOL0     H31987   2.574   2.770   4.750  1.0727  1.5553  0.4872
  237MOL0     H31988   2.705   2.822   4.860  2.4597 -0.9793  1.4027
  237MOL0     H31989   2.639   2.604   4.927 -1.0331 -5.3956  0.3077
  237MOL0     H31990   2.648   2.546   4.754  1.8624 -0.0054 -0.2072
  237MOL0     H31991   3.031   2.484   4.899 -0.4720 -0.0002  0.1113
  237MOL0     H31992   2.902   3.043   4.296 -0.5594 -3.4038  2.4270
  237MOL0     H31993   3.198   3.064   4.139 -1.7149  0.8023 -4.1660
  237MOL0     H31994   3.045   3.150   4.134 -1.3497 -4.2312  1.1099
  237MOL0     H31995   3.184   3.231   4.198 -0.5352  0.6639 -0.3130
  238MOL0     O31996   3.234   1.726  10.041  0.2879 -0.4749  0.8257
  238MOL0     C31997   3.271   1.835  10.088  0.1230  0.7801  0.2472
  238MOL0     O31998   3.395   1.879  10.101 -0.0985  0.4949 -0.0466
  238MOL0     C31999   3.502   1.819  10.040  0.1128 -0.9596  0.0840
  238MOL0     C32000   3.625   1.857  10.092 -0.0947 -0.5847 -0.7237
  238MOL0     C32001   3.742   1.791  10.063 -0.3120 -0.2839  0.1599
  238MOL0     C32002   3.743   1.692   9.961 -0.6001 -0.2195  0.4479
  238MOL0     O32003   3.863   1.633   9.924  0.8176 -0.2964  0.3383
  238MOL0     C32004   3.982   1.714   9.936 -0.0456 -0.0769  0.2680
  238MOL0     C32005   4.085   1.668   9.837 -0.9309 -0.1398 -0.1640
  238MOL0     C32006   4.156   1.540   9.881 -0.0483 -0.2577 -0.1287
  238MOL0     C32007   4.273   1.511   9.779  0.1431 -0.5758 -0.4876
  238MOL0     C32008   4.367   1.404   9.834 -1.3208 -0.2313 -0.2450
  238MOL0     C32009   4.497   1.404   9.749  0.6576  0.1028  0.5576
  238MOL0     C32010   4.603   1.294   9.789  0.5571 -0.2497 -0.1928
  238MOL0     C32011   4.676   1.313   9.927 -0.7645 -0.6305 -0.3021
  238MOL0     N32012   4.773   1.418   9.927  0.4452 -0.4833  0.1018
  238MOL0     C32013   4.756   1.550   9.959 -0.4773  0.1696 -0.7114
  238MOL0     C32014   4.885   1.597   9.946 -0.8963 -0.3583 -0.3152
  238MOL0     C32015   4.931   1.746   9.963 -0.1086 -0.4197 -0.2268
  238MOL0     C32016   5.038   1.789   9.871  0.1165  0.0315  0.8064
  238MOL0     C32017   4.980   1.779   9.725 -0.5435 -0.3132  0.0716
  238MOL0     C32018   5.072   1.831   9.615  0.1917 -0.3542 -0.3251
  238MOL0     O32019   5.199   1.759   9.640  0.2335 -0.8788  0.4754
  238MOL0     C32020   5.306   1.799   9.575 -0.8822  0.2712  0.8660
  238MOL0     C32021   5.321   1.889   9.458  0.1566 -0.3191 -0.4588
  238MOL0     C32022   5.444   1.914   9.398  0.3740  0.9897 -0.6423
  238MOL0     C32023   5.558   1.863   9.456  0.3876  0.5091 -0.0209
  238MOL0     C32024   5.688   1.892   9.402  0.6187 -0.5352 -0.2874
  238MOL0     O32025   5.799   1.828   9.449 -0.5480  0.0956  0.9780
  238MOL0     C32026   5.915   1.820   9.374 -0.2104  0.5595  0.2268
  238MOL0     C32027   5.970   1.939   9.325  0.2896 -0.4585 -0.1239
  238MOL0     C32028   6.072   1.935   9.236  0.0586  0.0818 -0.3476
  238MOL0     C32029   6.125   1.811   9.191 -1.1166  0.1979 -0.6137
  238MOL0     O32030   6.212   1.797   9.081 -0.4767  0.6789 -0.4339
  238MOL0     C32031   6.285   1.918   9.048 -0.7214  0.4707 -0.5111
  238MOL0     C32032   6.376   1.871   8.929  0.6120 -0.3715 -0.5017
  238MOL0     C32033   6.438   1.991   8.860  0.1593 -0.2176 -0.0157
  238MOL0     C32034   6.515   1.957   8.731 -0.6570  0.4729  0.5380
  238MOL0     C32035   6.568   2.079   8.654  0.1728  0.4037 -0.1963
  238MOL0     C32036   6.682   2.162   8.722  1.4386  1.0172  0.3645
  238MOL0     C32037   6.741   2.264   8.618 -0.9527  0.7948  0.1716
  238MOL0     C32038   6.845   2.187   8.527 -0.2313 -0.0163  0.1935
  238MOL0    Cl32039   6.852   2.274   8.372  0.3600  0.3930 -0.0520
  238MOL0     C32040   6.066   1.692   9.240 -0.5304  0.1687 -0.1638
  238MOL0     C32041   5.966   1.697   9.329  0.1379 -0.5464 -1.0460
  238MOL0     O32042   5.682   1.967   9.308 -0.6865  0.2396  0.6156
  238MOL0     C32043   5.548   1.777   9.567  0.6446  0.1124 -0.0853
  238MOL0     C32044   5.422   1.742   9.618  0.2993  0.5599 -0.4667
  238MOL0     N32045   4.967   1.495   9.913 -0.9133 -0.3972 -0.7771
  238MOL0     N32046   4.899   1.390   9.898  0.0398  0.8481  0.1320
  238MOL0     C32047   3.625   1.650   9.901 -1.0404 -0.4228  0.1163
  238MOL0     C32048   3.506   1.711   9.943 -0.8628 -0.4045 -0.6272
  238MOL0     C32049   3.161   1.934  10.121 -0.2768  0.1907  0.6779
  238MOL0     C32050   3.056   1.929  10.029  0.9020 -0.3053  0.1723
  238MOL0     C32051   2.955   2.023  10.050  0.6119 -0.3375 -0.0358
  238MOL0     C32052   2.944   2.110  10.162 -0.5330 -0.0149  0.1159
  238MOL0     O32053   2.838   2.192  10.192  0.1679  1.0094  0.3324
  238MOL0     C32054   2.741   2.225  10.088 -0.1725 -1.1428 -0.0144
  238MOL0     C32055   2.626   2.124  10.081 -0.3702 -0.5473 -0.1329
  238MOL0     C32056   2.532   2.101  10.205 -0.9516  0.7643 -0.0297
  238MOL0     C32057   2.581   1.993  10.306 -1.0270 -0.1682 -1.0172
  238MOL0     C32058   2.473   1.927  10.384  0.1325  0.4086  0.2206
  238MOL0     C32059   2.379   1.882  10.454  0.2648  0.1630 -0.1476
  238MOL0     C32060   3.045   2.090  10.260  0.1754  0.5468  0.4183
  238MOL0     C32061   3.153   2.005  10.239  0.1964 -0.3134  0.4124
  238MOL0     C32062   3.273   2.007  10.324  0.0340  1.5366 -0.6239
  238MOL0     H32063   3.622   1.935  10.168  1.4566  0.6634 -1.8892
  238MOL0     H32064   3.829   1.793  10.127  0.5963  0.3922 -1.0706
  238MOL0     H32065   3.963   1.820   9.915  1.3977 -0.0020 -0.7986
  238MOL0     H32066   4.022   1.702  10.037  1.1541 -0.7130 -0.2623
  238MOL0     H32067   4.155   1.751   9.822 -0.8119 -0.1653  0.2513
  238MOL0     H32068   4.037   1.647   9.740  0.1557 -1.8358 -0.3699
  238MOL0     H32069   4.081   1.461   9.881  0.7988 -1.3219 -4.5537
  238MOL0     H32070   4.197   1.566   9.980 -1.5768  1.1949  0.1647
  238MOL0     H32071   4.232   1.487   9.681 -4.0087 -1.1941  1.1886
  238MOL0     H32072   4.332   1.603   9.775 -1.4934  0.5154 -0.6634
  238MOL0     H32073   4.396   1.418   9.938 -1.3443 -0.5537 -0.1939
  238MOL0     H32074   4.315   1.308   9.822 -0.5491 -0.8307  1.0328
  238MOL0     H32075   4.477   1.391   9.643 -1.9563  1.1616  0.8567
  238MOL0     H32076   4.537   1.504   9.768 -4.3545  2.6945 -0.9351
  238MOL0     H32077   4.681   1.292   9.712  1.0114  0.7032  0.2237
  238MOL0     H32078   4.552   1.198   9.785 -1.2318  0.6980 -2.4327
  238MOL0     H32079   4.608   1.325  10.012 -0.5967 -2.8111  0.1854
  238MOL0     H32080   4.738   1.225   9.947  0.1999  0.2241  0.6296
  238MOL0     H32081   4.664   1.599   9.988 -0.6946 -1.5157  1.8194
  238MOL0     H32082   4.841   1.807   9.954  0.3940  0.8371  2.2255
  238MOL0     H32083   4.966   1.771  10.064  3.4965  0.3803 -1.5375
  238MOL0     H32084   5.070   1.890   9.899 -2.5390  1.4022 -0.6860
  238MOL0     H32085   5.127   1.725   9.878  1.1027  0.7930 -2.4948
  238MOL0     H32086   4.884   1.831   9.724 -0.0458  0.6698  1.1076
  238MOL0     H32087   4.949   1.677   9.702 -2.3952  0.6779 -2.3713
  238MOL0     H32088   5.076   1.941   9.621 -2.3737 -0.2312  0.2487
  238MOL0     H32089   5.031   1.817   9.515 -1.5330  0.2955  0.2502
  238MOL0     H32090   5.228   1.928   9.417 -0.4824 -0.5500  0.7248
  238MOL0     H32091   5.450   1.988   9.319 -1.1347  0.9029 -0.8699
  238MOL0     H32092   5.932   2.040   9.336  2.5611  0.8033 -2.5731
  238MOL0     H32093   6.107   2.031   9.199 -2.7942  0.7663 -1.5749
  238MOL0     H32094   6.226   2.004   9.016 -0.2177  0.3413 -1.8255
  238MOL0     H32095   6.348   1.947   9.132 -1.0091 -0.4203  0.0349
  238MOL0     H32096   6.448   1.791   8.951  1.7479  0.4012 -1.2841
  238MOL0     H32097   6.304   1.831   8.858  1.3691 -2.5239 -0.1657
  238MOL0     H32098   6.364   2.068   8.840 -1.4163 -1.8662 -0.8699
  238MOL0     H32099   6.512   2.038   8.925 -0.5148  2.1126 -0.8307
  238MOL0     H32100   6.438   1.904   8.674 -0.1736 -1.8829  1.9379
  238MOL0     H32101   6.598   1.888   8.751  0.5665  1.8111  0.2310
  238MOL0     H32102   6.483   2.143   8.628  0.0096  0.1076 -0.3973
  238MOL0     H32103   6.614   2.037   8.564  0.3292 -5.0905  2.0783
  238MOL0     H32104   6.644   2.211   8.812 -0.2196 -3.3406  2.3184
  238MOL0     H32105   6.753   2.097   8.773 -1.8993 -3.2279  0.2046
  238MOL0     H32106   6.792   2.348   8.666 -1.0847  0.5143  0.8098
  238MOL0     H32107   6.665   2.308   8.553 -0.5334 -0.2080 -1.0376
  238MOL0     H32108   6.941   2.190   8.579 -2.2535 -0.4395  4.4206
  238MOL0     H32109   6.814   2.082   8.519  0.2366 -0.1603  0.2042
  238MOL0     H32110   6.094   1.599   9.193 -0.2772  1.1425 -2.0564
  238MOL0     H32111   5.918   1.602   9.349  1.1115 -0.9201 -0.4336
  238MOL0     H32112   5.638   1.738   9.614  1.8150  0.3854 -2.0090
  238MOL0     H32113   5.420   1.675   9.704  1.6149  0.0048 -0.8391
  238MOL0     H32114   3.630   1.572   9.825  0.7420  0.7300 -1.0314
  238MOL0     H32115   3.410   1.693   9.895 -1.5963  4.0099 -1.2836
  238MOL0     H32116   3.047   1.871   9.938 -0.6654 -1.1384  0.8103
  238MOL0     H32117   2.876   2.031   9.977 -0.8120 -1.1929  1.3451
  238MOL0     H32118   2.794   2.242   9.993  1.8389 -2.1563  0.8564
  238MOL0     H32119   2.696   2.323  10.106  3.1264  1.5134 -4.1146
  238MOL0     H32120   2.667   2.025  10.059  1.4727 -0.5705  2.8064
  238MOL0     H32121   2.567   2.145   9.991 -0.4891 -0.0219  0.0623
  238MOL0     H32122   2.438   2.062  10.165  0.9193 -1.9383 -2.1215
  238MOL0     H32123   2.528   2.188  10.272  1.5685  1.0926 -0.2273
  238MOL0     H32124   2.635   1.916  10.250 -0.5543 -0.1308 -0.6106
  238MOL0     H32125   2.643   2.041  10.381 -1.6320 -0.0830 -0.5593
  238MOL0     H32126   2.304   1.847  10.522 -0.4412 -0.0460 -1.0177
  238MOL0     H32127   3.034   2.148  10.352 -0.3004  3.0600 -1.1275
  238MOL0     H32128   3.348   2.076  10.284  1.7209  0.6802  0.8982
  238MOL0     H32129   3.252   2.047  10.423 -1.0016 -0.7697  0.1756
  238MOL0     H32130   3.318   1.908  10.335  0.0256  1.2901 -2.4969
  239MOL0     O32131   5.698   7.605   1.927  0.5427  0.2456 -0.0218
  239MOL0     C32132   5.646   7.539   2.022 -0.6564  0.1000 -0.0167
  239MOL0     O32133   5.635   7.406   2.027  0.2323 -0.4712 -0.3608
  239MOL0     C32134   5.678   7.351   1.910 -0.0497  1.3574 -0.0979
  239MOL0     C32135   5.789   7.272   1.926 -0.7540 -0.4730 -0.4972
  239MOL0     C32136   5.852   7.206   1.819  0.0640 -0.7837  0.5837
  239MOL0     C32137   5.789   7.207   1.695 -0.6981  0.3674 -0.1459
  239MOL0     O32138   5.849   7.135   1.592  0.5247 -0.5446 -0.5956
  239MOL0     C32139   5.883   7.222   1.480  0.2495  0.2564  0.8542
  239MOL0     C32140   6.000   7.293   1.516 -0.4459 -0.3408  0.3384
  239MOL0     C32141   6.057   7.364   1.396 -0.9803 -0.2460  0.4458
  239MOL0     C32142   6.168   7.458   1.436 -0.5267  0.4028 -0.5509
  239MOL0     C32143   6.193   7.582   1.349 -0.4328  0.0339 -0.4094
  239MOL0     C32144   6.244   7.542   1.205 -0.0716  0.0514  0.1520
  239MOL0     C32145   6.375   7.473   1.191 -0.4086 -0.1961  0.2843
  239MOL0     C32146   6.493   7.568   1.197  0.9061  0.4264 -0.0092
  239MOL0     N32147   6.625   7.494   1.187 -0.7611  0.2008 -0.5851
  239MOL0     C32148   6.719   7.453   1.281  0.4656 -0.5462 -0.4966
  239MOL0     C32149   6.807   7.374   1.220  0.0594 -0.4022 -0.4002
  239MOL0     C32150   6.915   7.290   1.277  0.4859 -0.1787  0.2321
  239MOL0     C32151   7.015   7.358   1.373  0.2798  0.0769 -0.2381
  239MOL0     C32152   7.140   7.291   1.345 -0.2883  0.0850  0.0726
  239MOL0     C32153   7.252   7.324   1.444  0.4605 -0.1225 -0.8010
  239MOL0     O32154   7.367   7.248   1.422 -0.2690  0.1201  0.3027
  239MOL0     C32155   7.456   7.234   1.531 -0.1914 -0.1320  0.2822
  239MOL0     C32156   7.489   7.338   1.619  0.8842 -0.1071  0.0238
  239MOL0     C32157   7.567   7.313   1.728 -0.6881 -0.1839  0.3209
  239MOL0     C32158   7.619   7.189   1.762  1.4092  0.0377 -0.7464
  239MOL0     C32159   7.699   7.171   1.891 -0.3879 -0.0484  0.3343
  239MOL0     O32160   7.770   7.060   1.908  0.6240 -0.2748  0.1961
  239MOL0     C32161   7.867   7.063   2.003  0.5519 -0.2482  0.7021
  239MOL0     C32162   7.993   7.041   1.955 -0.2560  0.3774 -0.7412
  239MOL0     C32163   8.096   7.020   2.051 -0.3727 -0.0093  0.1421
  239MOL0     C32164   8.066   7.024   2.181  0.2802  0.2323 -0.3484
  239MOL0     O32165   8.170   7.016   2.264 -0.0181  0.2185  0.2133
  239MOL0     C32166   8.213   7.131   2.333 -0.0555  0.5808 -0.0437
  239MOL0     C32167   8.279   7.228   2.238  0.5091 -1.1341  0.6630
  239MOL0     C32168   8.398   7.175   2.159  0.5473 -0.2091 -1.0152
  239MOL0     C32169   8.464   7.270   2.052 -0.2408  0.4377 -0.5496
  239MOL0     C32170   8.607   7.217   2.027 -0.1444 -0.1593  0.9373
  239MOL0     C32171   8.670   7.324   1.937 -0.1916  0.7990 -0.6919
  239MOL0     C32172   8.806   7.268   1.876 -0.1754 -0.4299  0.4664
  239MOL0     C32173   8.847   7.355   1.760  0.5912 -0.3407 -0.6960
  239MOL0    Cl32174   8.902   7.510   1.820  0.3044  0.0747 -0.4024
  239MOL0     C32175   7.936   7.041   2.231  0.4973  0.2298 -0.1723
  239MOL0     C32176   7.831   7.055   2.132 -0.2561 -0.5055  1.0482
  239MOL0     O32177   7.689   7.264   1.974 -0.0871 -0.1335 -0.7138
  239MOL0     C32178   7.590   7.081   1.669 -0.4277  0.5698  0.1127
  239MOL0     C32179   7.510   7.106   1.558 -0.2001  1.5515 -0.3401
  239MOL0     N32180   6.771   7.366   1.087  0.4138  0.2502 -0.2854
  239MOL0     N32181   6.658   7.434   1.071  0.5625 -0.1893  0.0715
  239MOL0     C32182   5.677   7.292   1.672 -0.1204  0.7831 -0.3632
  239MOL0     C32183   5.614   7.357   1.784 -0.3330 -0.1703 -0.1378
  239MOL0     C32184   5.586   7.604   2.149 -0.0143 -0.6162  0.6591
  239MOL0     C32185   5.546   7.522   2.257  0.2332 -0.0900 -0.8009
  239MOL0     C32186   5.494   7.581   2.375 -0.5458 -0.3043  0.3707
  239MOL0     C32187   5.481   7.717   2.384 -0.3033 -0.2466  0.3976
  239MOL0     O32188   5.427   7.750   2.504  0.7705  0.1422  0.5780
  239MOL0     C32189   5.372   7.879   2.530 -0.0108  0.0261  0.5709
  239MOL0     C32190   5.405   7.913   2.678 -0.0351 -0.2965 -0.4076
  239MOL0     C32191   5.347   8.049   2.725  0.0621  0.6665 -0.1942
  239MOL0     C32192   5.193   8.051   2.745 -1.0189  0.1237 -0.0109
  239MOL0     C32193   5.147   8.189   2.774  0.6219  0.1099 -0.2897
  239MOL0     C32194   5.116   8.306   2.785 -0.7664 -0.1852  0.4378
  239MOL0     C32195   5.527   7.796   2.280 -0.7617 -0.6281  0.5109
  239MOL0     C32196   5.584   7.748   2.165 -0.1441 -0.3329 -0.4413
  239MOL0     C32197   5.623   7.849   2.069  0.1874  0.2823  0.3045
  239MOL0     H32198   5.837   7.276   2.024 -3.6661  1.4357  0.9891
  239MOL0     H32199   5.936   7.138   1.828  0.3285 -0.9734 -2.4627
  239MOL0     H32200   5.905   7.167   1.388  2.9399 -0.5325  1.8775
  239MOL0     H32201   5.800   7.291   1.463 -0.3925 -0.5039  0.8689
  239MOL0     H32202   6.065   7.219   1.563 -0.7786 -0.4751  0.5891
  239MOL0     H32203   5.989   7.369   1.593  0.5658 -1.8360  2.0540
  239MOL0     H32204   5.984   7.423   1.341  0.4077  0.4656 -0.7013
  239MOL0     H32205   6.095   7.294   1.321 -0.2766 -0.3869  0.9173
  239MOL0     H32206   6.142   7.500   1.534  0.5362  0.4918 -0.2884
  239MOL0     H32207   6.261   7.401   1.443 -1.0196 -0.1831  1.9552
  239MOL0     H32208   6.100   7.637   1.331  0.4112  1.0973 -1.7489
  239MOL0     H32209   6.265   7.652   1.392 -0.4059 -0.5028  0.4293
  239MOL0     H32210   6.169   7.474   1.165  0.3316 -2.1147  2.7805
  239MOL0     H32211   6.249   7.627   1.136  1.0985 -2.1550 -2.7180
  239MOL0     H32212   6.368   7.417   1.097 -1.8897 -0.8503  0.7493
  239MOL0     H32213   6.401   7.399   1.267  0.0190 -0.0714  0.2611
  239MOL0     H32214   6.476   7.650   1.127  0.6551 -1.5330 -2.3664
  239MOL0     H32215   6.496   7.612   1.297  1.8660 -1.6527  0.9454
  239MOL0     H32216   6.727   7.467   1.389  0.2172  1.6078 -0.7084
  239MOL0     H32217   6.856   7.216   1.332 -1.2752  0.8736 -0.1515
  239MOL0     H32218   6.970   7.250   1.192  0.2537 -0.2738  0.1254
  239MOL0     H32219   7.020   7.467   1.365  0.4242  0.3176  2.3521
  239MOL0     H32220   6.982   7.345   1.477 -1.8089  2.3813 -0.5032
  239MOL0     H32221   7.173   7.310   1.242 -2.7360 -1.9408 -1.1928
  239MOL0     H32222   7.129   7.182   1.349  1.7075 -0.1336  2.4092
  239MOL0     H32223   7.210   7.306   1.544 -0.1930  2.0668 -0.6325
  239MOL0     H32224   7.277   7.429   1.430 -1.2997  0.4392 -0.0593
  239MOL0     H32225   7.452   7.439   1.602 -1.0822 -0.7090  0.3863
  239MOL0     H32226   7.592   7.393   1.798 -2.0115 -1.1406  1.9684
  239MOL0     H32227   8.004   7.038   1.847  2.2209 -2.6677 -0.5504
  239MOL0     H32228   8.196   7.008   2.010 -0.6377  2.2345 -1.3098
  239MOL0     H32229   8.123   7.183   2.369  1.3886  1.7342  2.1328
  239MOL0     H32230   8.286   7.104   2.410  0.4263 -1.8018 -1.2751
  239MOL0     H32231   8.208   7.271   2.168  0.3443 -0.4961  1.2096
  239MOL0     H32232   8.307   7.308   2.307  4.5601 -2.5050  0.8666
  239MOL0     H32233   8.478   7.156   2.232 -0.1575 -1.7067 -0.5933
  239MOL0     H32234   8.373   7.080   2.111 -0.9970 -0.0803 -0.5077
  239MOL0     H32235   8.467   7.369   2.100  0.2421  0.2029 -0.0906
  239MOL0     H32236   8.405   7.280   1.960  1.9356 -2.5349 -2.4155
  239MOL0     H32237   8.600   7.118   1.980  0.8292 -0.6425  1.7799
  239MOL0     H32238   8.661   7.204   2.121  0.3587  2.3563  1.0766
  239MOL0     H32239   8.607   7.332   1.848  2.0083 -1.7384 -2.6078
  239MOL0     H32240   8.685   7.420   1.988  0.3137  2.0486 -3.0577
  239MOL0     H32241   8.787   7.166   1.841 -0.8036 -0.9576  2.2284
  239MOL0     H32242   8.885   7.270   1.952 -0.2500  2.9895  0.5743
  239MOL0     H32243   8.933   7.317   1.704  0.5057  1.7079 -2.3267
  239MOL0     H32244   8.763   7.368   1.691  2.0268  0.8129 -2.3129
  239MOL0     H32245   7.900   7.034   2.333 -1.4443 -0.7444 -0.8743
  239MOL0     H32246   7.726   7.057   2.162 -0.0296 -2.6428  2.2017
  239MOL0     H32247   7.633   6.983   1.690  1.8196  1.0468 -1.8603
  239MOL0     H32248   7.489   7.024   1.490  0.2558  0.5152  0.7308
  239MOL0     H32249   5.617   7.280   1.583  0.8532  0.6943 -1.0229
  239MOL0     H32250   5.513   7.399   1.782 -1.1566 -1.9806  1.1680
  239MOL0     H32251   5.536   7.416   2.239 -0.9668 -0.4761  1.7275
  239MOL0     H32252   5.448   7.519   2.451 -1.2235  1.3314  1.3303
  239MOL0     H32253   5.264   7.871   2.520  0.1802 -0.1184 -1.8505
  239MOL0     H32254   5.402   7.955   2.458 -2.7678 -0.7724 -1.5746
  239MOL0     H32255   5.513   7.922   2.693 -0.2460  4.3280 -0.2199
  239MOL0     H32256   5.374   7.839   2.752 -2.0883  1.0797  0.2006
  239MOL0     H32257   5.364   8.122   2.646 -0.5665  1.8587  0.7515
  239MOL0     H32258   5.396   8.090   2.814  2.2074  2.7356 -2.1985
  239MOL0     H32259   5.142   8.009   2.657 -3.7051  1.0103  1.0324
  239MOL0     H32260   5.170   7.998   2.838 -0.3029  2.8098  1.8028
  239MOL0     H32261   5.096   8.406   2.817  2.4810  0.3238  1.3305
  239MOL0     H32262   5.520   7.904   2.280  0.9953 -0.4218 -2.1256
  239MOL0     H32263   5.716   7.811   2.026 -0.2900 -0.7596  0.1623
  239MOL0     H32264   5.549   7.858   1.988 -0.9796  0.4463  1.3491
  239MOL0     H32265   5.633   7.947   2.118 -1.1175  1.1479 -1.0792
  240MOL0     O32266   0.370  10.866   6.265  0.4239 -0.3171 -0.3273
  240MOL0     C32267   0.294  10.912   6.183 -0.1131  0.2666 -0.6115
  240MOL0     O32268   0.308  11.038   6.127  0.3962  0.0357 -0.0667
  240MOL0     C32269   0.375  11.129   6.200  0.2123  0.3109 -0.2257
  240MOL0     C32270   0.453  11.222   6.140  0.2547  0.7313  0.2756
  240MOL0     C32271   0.518  11.321   6.216 -0.1074 -0.0273 -0.1576
  240MOL0     C32272   0.505  11.340   6.354 -0.3072  0.1434 -0.1524
  240MOL0     O32273   0.594  11.417   6.417  0.1116 -0.1410 -0.1540
  240MOL0     C32274   0.582  11.452   6.558 -0.0854  0.1228  0.8278
  240MOL0     C32275   0.698  11.523   6.635  0.0065  0.2719 -0.2833
  240MOL0     C32276   0.822  11.440   6.649  0.2418 -0.5940  0.4523
  240MOL0     C32277   0.803  11.328   6.754  0.1964  0.8421  0.3071
  240MOL0     C32278   0.932  11.246   6.778  0.3904 -1.2907  0.0463
  240MOL0     C32279   0.909  11.110   6.848 -0.2737  1.1032 -0.1277
  240MOL0     C32280   1.031  11.026   6.854 -0.2285 -0.1674  0.1819
  240MOL0     C32281   1.026  10.903   6.949 -1.3309  0.2343  0.3459
  240MOL0     N32282   0.928  10.807   6.906  0.4552  0.2178  0.2191
  240MOL0     C32283   0.936  10.719   6.796 -0.5336 -0.7388 -0.2851
  240MOL0     C32284   0.833  10.630   6.818 -0.3733 -0.3778  0.0115
  240MOL0     C32285   0.803  10.512   6.741  0.0465  0.8927  0.1470
  240MOL0     C32286   0.893  10.392   6.761 -0.5422 -0.0941  0.1641
  240MOL0     C32287   1.040  10.402   6.719 -0.4973  0.1540  0.0744
  240MOL0     C32288   1.057  10.455   6.586 -0.4987  0.8752  0.3183
  240MOL0     O32289   1.199  10.470   6.561  0.3115  0.2007  0.0534
  240MOL0     C32290   1.254  10.599   6.570  0.0176 -0.2765  0.3018
  240MOL0     C32291   1.374  10.619   6.637  0.2986 -1.3416 -0.6197
  240MOL0     C32292   1.424  10.747   6.644 -0.2099 -0.3276 -0.3352
  240MOL0     C32293   1.352  10.858   6.606  0.3206 -0.0285  0.9333
  240MOL0     C32294   1.409  10.992   6.638 -0.7210 -0.6051  0.7549
  240MOL0     O32295   1.310  11.088   6.654 -0.1972  0.1368 -0.0457
  240MOL0     C32296   1.326  11.214   6.696  0.6580  1.1358 -0.3387
  240MOL0     C32297   1.254  11.310   6.613  0.4057 -0.4186 -0.6935
  240MOL0     C32298   1.258  11.444   6.647  0.4668 -0.2303 -0.4096
  240MOL0     C32299   1.335  11.481   6.759  0.1202  0.1817 -0.5031
  240MOL0     O32300   1.338  11.615   6.795 -0.0590  0.3430  0.1532
  240MOL0     C32301   1.289  11.650   6.923 -0.2306 -0.0590 -0.5919
  240MOL0     C32302   1.194  11.764   6.912  0.8377  0.4450  0.1578
  240MOL0     C32303   1.060  11.724   6.838 -0.5593  0.4242  0.3419
  240MOL0     C32304   0.951  11.832   6.867 -0.3546 -0.2967 -0.0869
  240MOL0     C32305   0.835  11.834   6.767 -0.3156  0.2401  0.2145
  240MOL0     C32306   0.748  11.960   6.783  0.0642 -0.6919  0.2421
  240MOL0     C32307   0.655  11.968   6.660  0.0083  0.2066 -0.2874
  240MOL0     C32308   0.534  12.065   6.692  0.1576  0.3896 -0.5332
  240MOL0    Cl32309   0.579  12.239   6.663  0.3613 -0.3437 -0.1603
  240MOL0     C32310   1.399  11.384   6.845 -0.8956  0.9601  0.3731
  240MOL0     C32311   1.390  11.247   6.815  0.4685  0.2557 -0.0422
  240MOL0     O32312   1.534  11.009   6.653  0.4652 -0.0973 -0.8271
  240MOL0     C32313   1.235  10.838   6.539 -0.2725 -0.3911 -0.6828
  240MOL0     C32314   1.187  10.708   6.515  0.6059  0.6934 -0.0846
  240MOL0     N32315   0.770  10.669   6.935 -0.1334  0.0733  0.1404
  240MOL0     N32316   0.823  10.773   6.986  0.1393  0.1903 -0.0235
  240MOL0     C32317   0.409  11.252   6.413 -0.3401  1.4959 -1.0719
  240MOL0     C32318   0.339  11.157   6.339 -1.0058  0.0584  0.6399
  240MOL0     C32319   0.181  10.820   6.134 -0.2139 -1.2173 -0.2223
  240MOL0     C32320   0.159  10.827   5.994  0.3294 -0.0840  0.3218
  240MOL0     C32321   0.042  10.774   5.941  0.5202 -0.1572  0.6316
  240MOL0     C32322  -0.049  10.713   6.028 -0.3898  0.1185  0.5137
  240MOL0     O32323  -0.180  10.686   5.991 -0.1438  0.5128 -0.1866
  240MOL0     C32324  -0.207  10.650   5.853  0.1080  0.1257 -0.1500
  240MOL0     C32325  -0.310  10.747   5.793 -0.3683 -0.3296  0.1631
  240MOL0     C32326  -0.362  10.704   5.649  0.0421  0.4761  0.3661
  240MOL0     C32327  -0.439  10.576   5.636  0.0177  0.9682  0.4061
  240MOL0     C32328  -0.570  10.575   5.710 -0.1715 -0.1194  0.3015
  240MOL0     C32329  -0.675  10.582   5.773 -0.2164 -0.7179  0.4831
  240MOL0     C32330  -0.027  10.697   6.160  0.7240  0.0467 -0.0211
  240MOL0     C32331   0.084  10.757   6.217 -0.6284 -0.4094  0.1183
  240MOL0     C32332   0.104  10.771   6.367  0.4122  0.5301  1.3527
  240MOL0     H32333   0.467  11.234   6.033 -1.7474  3.3587  0.2044
  240MOL0     H32334   0.581  11.390   6.161 -1.3196 -1.5183 -3.7932
  240MOL0     H32335   0.489  11.508   6.571 -0.2322  0.4631 -1.3284
  240MOL0     H32336   0.567  11.357   6.611  2.2510 -0.2432  0.9255
  240MOL0     H32337   0.672  11.547   6.738  1.8552  2.1828 -0.1920
  240MOL0     H32338   0.702  11.615   6.576  0.2770 -0.2740 -1.1392
  240MOL0     H32339   0.907  11.504   6.672  0.3857  0.3541 -2.3592
  240MOL0     H32340   0.852  11.388   6.558  0.7157  0.2102  0.1456
  240MOL0     H32341   0.782  11.371   6.853  0.3378 -1.4067  1.3683
  240MOL0     H32342   0.723  11.261   6.722  0.4129 -0.6009  2.5648
  240MOL0     H32343   0.985  11.228   6.684  2.8502  2.9783  0.3510
  240MOL0     H32344   0.997  11.310   6.838 -0.2519 -0.5019 -0.0854
  240MOL0     H32345   0.862  11.130   6.945  0.6454  2.0588  0.1362
  240MOL0     H32346   0.837  11.051   6.790  1.7895 -0.0043 -1.6923
  240MOL0     H32347   1.118  11.083   6.889  1.2964 -2.3600  0.1331
  240MOL0     H32348   1.057  11.000   6.751 -0.2579 -0.7512  0.3216
  240MOL0     H32349   1.121  10.850   6.939 -1.0426  0.2201  2.6207
  240MOL0     H32350   1.008  10.934   7.052  1.7037 -1.0097  1.3673
  240MOL0     H32351   1.020  10.726   6.727 -0.9967  0.8657 -0.7271
  240MOL0     H32352   0.697  10.489   6.751  0.8033 -2.5102  1.9246
  240MOL0     H32353   0.808  10.531   6.633 -0.8065  0.7062  0.0683
  240MOL0     H32354   0.896  10.376   6.869 -0.0903 -2.3959 -0.1440
  240MOL0     H32355   0.845  10.304   6.719 -1.0922 -0.4743  1.5290
  240MOL0     H32356   1.085  10.303   6.733 -0.2747  0.5385  2.7077
  240MOL0     H32357   1.100  10.469   6.781  1.4664  1.1260 -2.7023
  240MOL0     H32358   1.002  10.549   6.579 -1.3587  0.2806 -2.0243
  240MOL0     H32359   1.013  10.383   6.516 -1.8731  1.2111  0.7938
  240MOL0     H32360   1.435  10.544   6.687 -0.9164 -2.1369 -0.2864
  240MOL0     H32361   1.510  10.762   6.708 -2.7320 -0.3367  3.3257
  240MOL0     H32362   1.196  11.273   6.529 -2.4045  2.1432 -0.0441
  240MOL0     H32363   1.203  11.517   6.588  1.7374  0.8473 -0.3077
  240MOL0     H32364   1.241  11.573   6.984  0.7477  0.3202  0.6874
  240MOL0     H32365   1.372  11.683   6.987 -0.6748  0.3237 -0.2047
  240MOL0     H32366   1.172  11.790   7.017 -0.8102 -1.2187  0.2772
  240MOL0     H32367   1.232  11.848   6.854  1.0057  1.7885  2.0899
  240MOL0     H32368   1.079  11.706   6.732 -0.1097 -2.0182  0.7930
  240MOL0     H32369   1.019  11.631   6.879 -0.2011  0.7924  1.5977
  240MOL0     H32370   0.994  11.933   6.871  3.1438 -1.6220 -0.5793
  240MOL0     H32371   0.906  11.813   6.965 -0.6193 -0.2782 -0.2065
  240MOL0     H32372   0.778  11.743   6.783 -0.6605  0.7230  1.9330
  240MOL0     H32373   0.862  11.829   6.661 -2.9098  1.0746 -0.5796
  240MOL0     H32374   0.689  11.972   6.874  0.4921 -0.2642  0.4691
  240MOL0     H32375   0.814  12.048   6.785  0.0287 -0.6706  0.6163
  240MOL0     H32376   0.607  11.869   6.655 -1.6155  0.9520  0.0176
  240MOL0     H32377   0.709  11.995   6.569  0.5431  2.0784  0.5472
  240MOL0     H32378   0.456  12.047   6.618 -2.4332  3.1987  1.2761
  240MOL0     H32379   0.494  12.050   6.793  0.2967 -0.4725 -0.5947
  240MOL0     H32380   1.462  11.416   6.928  1.6881 -0.8662 -0.7548
  240MOL0     H32381   1.438  11.178   6.884 -0.1942  1.5273  1.7813
  240MOL0     H32382   1.176  10.918   6.496 -0.2298  0.3450  0.5769
  240MOL0     H32383   1.093  10.707   6.462  0.6527 -1.6622 -0.2523
  240MOL0     H32384   0.404  11.251   6.521  0.9244  1.6661 -0.9953
  240MOL0     H32385   0.265  11.102   6.396 -0.8544  1.5964  2.4194
  240MOL0     H32386   0.236  10.873   5.933 -0.3366  1.2547  0.4534
  240MOL0     H32387   0.039  10.776   5.832  0.8477 -0.5980  0.6126
  240MOL0     H32388  -0.239  10.545   5.850  2.0685 -0.5040 -2.9611
  240MOL0     H32389  -0.119  10.647   5.789  1.8873  2.1680  2.0110
  240MOL0     H32390  -0.277  10.850   5.780 -0.8918 -0.0450  0.9784
  240MOL0     H32391  -0.395  10.748   5.863 -0.3021 -1.5504  0.2853
  240MOL0     H32392  -0.274  10.706   5.583  0.8099  2.1611  1.3899
  240MOL0     H32393  -0.435  10.780   5.619  0.5139  0.4077 -1.0391
  240MOL0     H32394  -0.451  10.557   5.529 -1.5005  2.9518  0.1674
  240MOL0     H32395  -0.387  10.489   5.677  1.4258  1.8131  0.4473
  240MOL0     H32396  -0.766  10.594   5.827 -0.8950  0.0419 -0.7743
  240MOL0     H32397  -0.103  10.661   6.229  0.9948  0.8699  0.7270
  240MOL0     H32398   0.208  10.763   6.400  0.2122 -0.3796  1.7660
  240MOL0     H32399   0.080  10.874   6.396 -0.7716 -0.0926  2.6223
  240MOL0     H32400   0.034  10.706   6.420  0.0190  0.4797  0.7822
  241MOL0     O32401   0.576   5.728   8.821  0.9374  0.3911 -0.1003
  241MOL0     C32402   0.511   5.765   8.721  0.2294  0.9646 -0.2633
  241MOL0     O32403   0.538   5.874   8.645  0.1136 -0.2076 -0.2981
  241MOL0     C32404   0.656   5.946   8.657 -0.3283 -0.2985  0.0035
  241MOL0     C32405   0.646   6.064   8.575 -0.1895 -0.5727 -0.0255
  241MOL0     C32406   0.756   6.156   8.568  0.1795  0.2656  0.7606
  241MOL0     C32407   0.873   6.133   8.644 -0.0210  0.6177  0.0400
  241MOL0     O32408   0.966   6.232   8.637  0.0592 -0.0778  0.5761
  241MOL0     C32409   1.062   6.232   8.737  0.1670  0.4514  0.6225
  241MOL0     C32410   1.139   6.363   8.729 -0.8134  0.0263 -0.6724
  241MOL0     C32411   1.257   6.375   8.829 -0.2067 -0.5661  0.3969
  241MOL0     C32412   1.222   6.346   8.980  0.4199 -0.0809  1.0538
  241MOL0     C32413   1.135   6.457   9.040 -0.1761  0.2057 -0.3249
  241MOL0     C32414   1.089   6.421   9.187 -0.1939 -0.2925  0.0086
  241MOL0     C32415   0.979   6.312   9.185 -0.7634 -0.6675 -0.4118
  241MOL0     C32416   0.919   6.292   9.331 -0.1646 -0.3825 -0.5550
  241MOL0     N32417   1.000   6.228   9.441 -0.0514  0.0394  0.6714
  241MOL0     C32418   1.053   6.290   9.552  0.3984  0.2404 -0.6834
  241MOL0     C32419   1.135   6.197   9.610 -0.6251  0.2473  0.4064
  241MOL0     C32420   1.222   6.207   9.741 -0.7447  0.2747  0.3858
  241MOL0     C32421   1.338   6.108   9.733 -0.5711  0.1342  0.2107
  241MOL0     C32422   1.453   6.162   9.824  0.3931 -0.0268  0.2940
  241MOL0     C32423   1.578   6.073   9.836  0.0079 -0.7027 -0.1570
  241MOL0     O32424   1.565   6.001   9.963 -0.5131 -0.3018 -0.4923
  241MOL0     C32425   1.671   5.913   9.987  0.3642 -0.7252 -0.0695
  241MOL0     C32426   1.795   5.912   9.916 -0.1470 -0.0060  0.0118
  241MOL0     C32427   1.888   5.826   9.976 -0.7925 -0.0739  0.1047
  241MOL0     C32428   1.867   5.753  10.092 -0.3472  0.1196 -0.9295
  241MOL0     C32429   1.982   5.681  10.163 -0.0877 -0.2043  0.8230
  241MOL0     O32430   2.100   5.683  10.101 -0.1311 -0.2823 -0.0835
  241MOL0     C32431   2.212   5.621  10.143 -0.1795 -0.9390 -0.6837
  241MOL0     C32432   2.222   5.536  10.252 -0.5379 -0.7423 -0.1960
  241MOL0     C32433   2.353   5.490  10.284  0.6287 -0.5212  0.4089
  241MOL0     C32434   2.464   5.521  10.209  0.1268  0.4854  0.6028
  241MOL0     O32435   2.581   5.463  10.231  0.5048  0.3367  0.0507
  241MOL0     C32436   2.697   5.553  10.256  1.2095 -0.6071  0.3240
  241MOL0     C32437   2.792   5.557  10.139  0.1180  0.8167 -0.0211
  241MOL0     C32438   2.900   5.660  10.158 -0.4707 -0.2154  0.0155
  241MOL0     C32439   3.008   5.637  10.257 -0.3961  0.7984  0.0132
  241MOL0     C32440   3.108   5.751  10.262  0.1288  0.4306  0.5300
  241MOL0     C32441   3.060   5.870  10.347  0.4811  0.3303 -0.0578
  241MOL0     C32442   3.179   5.953  10.404 -0.1623 -0.6900 -0.3183
  241MOL0     C32443   3.147   6.075  10.502 -0.5327 -1.3055  0.2684
  241MOL0    Cl32444   3.061   5.998  10.638 -0.4566  0.4189  0.2664
  241MOL0     C32445   2.450   5.615  10.105  0.0266  0.2639  0.3117
  241MOL0     C32446   2.323   5.664  10.073  0.0673 -0.3821 -0.2593
  241MOL0     O32447   1.947   5.618  10.258 -0.0397 -0.3717 -0.3745
  241MOL0     C32448   1.738   5.756  10.145  0.0851 -0.4368 -0.7434
  241MOL0     C32449   1.645   5.839  10.096  0.3146  0.1444  0.8073
  241MOL0     N32450   1.118   6.078   9.545 -0.6210  0.4006  0.2644
  241MOL0     N32451   1.038   6.091   9.448 -0.4253  0.1707  0.6669
  241MOL0     C32452   0.890   6.011   8.714 -0.2082 -0.6495 -0.5150
  241MOL0     C32453   0.778   5.921   8.723  0.4960 -0.5510  0.4838
  241MOL0     C32454   0.392   5.686   8.680 -0.1669  0.3276 -0.1333
  241MOL0     C32455   0.411   5.548   8.667 -0.1131  0.3025 -0.4289
  241MOL0     C32456   0.297   5.471   8.633  0.3385 -0.5297 -1.2088
  241MOL0     C32457   0.171   5.523   8.629 -0.5510 -0.2735  0.1428
  241MOL0     O32458   0.059   5.460   8.609 -0.0683  0.0488  0.2037
  241MOL0     C32459  -0.009   5.430   8.731 -0.3541  0.7398 -1.0061
  241MOL0     C32460  -0.163   5.408   8.711 -0.4141  0.5778 -0.6642
  241MOL0     C32461  -0.188   5.262   8.672 -0.7909  0.4439 -0.6481
  241MOL0     C32462  -0.333   5.231   8.626  0.5181  0.4342  0.4190
  241MOL0     C32463  -0.344   5.204   8.481 -0.1009 -0.2548  0.4504
  241MOL0     C32464  -0.346   5.171   8.364 -0.2815 -0.6001 -0.0331
  241MOL0     C32465   0.156   5.659   8.644  0.1286  0.4934 -0.5752
  241MOL0     C32466   0.266   5.740   8.662  0.4038  0.1783 -0.9082
  241MOL0     C32467   0.239   5.889   8.676  0.3310  0.0474  0.5259
  241MOL0     H32468   0.557   6.088   8.519  0.5003  1.3503 -0.3527
  241MOL0     H32469   0.758   6.232   8.490  1.0212 -1.9896 -1.5420
  241MOL0     H32470   1.009   6.220   8.832  1.7472 -1.4712  1.3370
  241MOL0     H32471   1.129   6.146   8.728  0.1597  0.4187  0.8741
  241MOL0     H32472   1.066   6.443   8.748  0.7367  1.3479 -0.0461
  241MOL0     H32473   1.182   6.387   8.631  1.4913  4.6510  1.1543
  241MOL0     H32474   1.306   6.472   8.822  1.5890 -1.2062  2.7970
  241MOL0     H32475   1.333   6.302   8.802  0.1265 -1.6118  3.7432
  241MOL0     H32476   1.180   6.245   8.987  0.4333 -0.2189 -0.4766
  241MOL0     H32477   1.318   6.347   9.033 -0.1379  1.9031  2.1246
  241MOL0     H32478   1.187   6.554   9.037 -0.7310  0.4850 -2.2871
  241MOL0     H32479   1.041   6.472   8.987 -0.7692  0.3598  0.7399
  241MOL0     H32480   1.174   6.387   9.247 -2.8298 -3.3755  2.3911
  241MOL0     H32481   1.040   6.506   9.235 -0.0114 -0.9634  1.4124
  241MOL0     H32482   1.019   6.217   9.148  1.0501 -0.1035 -0.0125
  241MOL0     H32483   0.906   6.343   9.110 -1.4555 -0.2022  0.4403
  241MOL0     H32484   0.878   6.389   9.360  0.1284  0.0108 -1.4109
  241MOL0     H32485   0.833   6.224   9.327  0.1704 -0.8847  0.4859
  241MOL0     H32486   1.031   6.387   9.595  0.1048  0.4262 -1.2514
  241MOL0     H32487   1.265   6.305   9.767  1.0460 -0.8966  2.2134
  241MOL0     H32488   1.158   6.170   9.822 -0.7761 -1.3824 -0.3574
  241MOL0     H32489   1.302   6.008   9.758 -0.0628 -0.5569 -1.6216
  241MOL0     H32490   1.391   6.107   9.638 -2.0240  1.4294 -0.6641
  241MOL0     H32491   1.419   6.182   9.926  0.1821  2.4797 -0.2057
  241MOL0     H32492   1.490   6.256   9.781 -1.3267 -0.1608 -1.6290
  241MOL0     H32493   1.678   6.114   9.821 -0.1303 -1.0163 -2.1312
  241MOL0     H32494   1.567   5.987   9.769 -2.4137 -3.6707  3.5819
  241MOL0     H32495   1.818   5.967   9.826 -3.9332  1.2396 -0.3506
  241MOL0     H32496   1.983   5.838   9.926 -1.2747 -0.8865 -1.0394
  241MOL0     H32497   2.143   5.488  10.309  0.2002 -2.4853 -0.5658
  241MOL0     H32498   2.368   5.421  10.367  2.1835  0.6759  1.1867
  241MOL0     H32499   2.663   5.654  10.280  0.3960 -0.6850 -0.4467
  241MOL0     H32500   2.748   5.509  10.343  1.0110 -1.3955  0.0575
  241MOL0     H32501   2.844   5.464  10.115  0.7237  1.1056  0.1477
  241MOL0     H32502   2.736   5.587  10.050 -0.2741  0.0118 -0.0484
  241MOL0     H32503   2.948   5.681  10.061 -0.2231 -0.2577  0.1266
  241MOL0     H32504   2.844   5.747  10.192 -1.3371 -0.9242  0.4196
  241MOL0     H32505   3.053   5.543  10.223 -0.2311  0.3400  1.4287
  241MOL0     H32506   2.976   5.599  10.355 -2.1596  0.5576 -0.6196
  241MOL0     H32507   3.146   5.782  10.164  2.2884 -0.4718  1.0230
  241MOL0     H32508   3.182   5.694  10.319 -0.7018 -1.7937 -0.4653
  241MOL0     H32509   2.997   5.938  10.290 -1.8895 -0.9452  0.8930
  241MOL0     H32510   3.012   5.832  10.438  0.9836  2.8195  1.3596
  241MOL0     H32511   3.220   5.998  10.313 -0.3068  0.1203  0.0088
  241MOL0     H32512   3.259   5.894  10.450 -0.5026 -1.5579 -0.8036
  241MOL0     H32513   3.241   6.115  10.539  0.0151 -2.5263  0.2459
  241MOL0     H32514   3.080   6.149  10.457 -0.1361  0.2485  2.1119
  241MOL0     H32515   2.523   5.628  10.026 -1.6714  0.8045 -1.2507
  241MOL0     H32516   2.303   5.742  10.000  2.6880  1.6954  1.0520
  241MOL0     H32517   1.710   5.699  10.233 -2.0669 -0.5073 -1.4421
  241MOL0     H32518   1.543   5.853  10.132  0.0811  1.1819 -0.2048
  241MOL0     H32519   0.989   5.990   8.755 -0.7587 -0.2209  1.1155
  241MOL0     H32520   0.794   5.828   8.777  1.4307 -0.2320  0.7797
  241MOL0     H32521   0.505   5.499   8.687 -1.5048 -2.3535  0.0156
  241MOL0     H32522   0.307   5.363   8.623 -0.3446 -0.7218  0.0255
  241MOL0     H32523  -0.008   5.516   8.799 -4.4297  0.4071 -0.2712
  241MOL0     H32524   0.041   5.344   8.777 -0.2981  1.9512  1.4086
  241MOL0     H32525  -0.197   5.480   8.635  0.6262 -1.4498 -3.2292
  241MOL0     H32526  -0.210   5.422   8.808  3.6295 -2.6592  2.0724
  241MOL0     H32527  -0.180   5.206   8.766 -2.0249  0.8360 -0.2970
  241MOL0     H32528  -0.115   5.219   8.603  2.3561  0.3282  2.4201
  241MOL0     H32529  -0.384   5.153   8.682  1.1512 -0.6076 -0.4237
  241MOL0     H32530  -0.396   5.317   8.651 -1.0092 -0.4398 -0.3162
  241MOL0     H32531  -0.358   5.156   8.259  0.4702 -2.2387  0.0784
  241MOL0     H32532   0.059   5.708   8.637  0.9433  2.4831  1.2459
  241MOL0     H32533   0.273   5.925   8.774  1.2522 -1.2895  0.7332
  241MOL0     H32534   0.302   5.933   8.598 -0.2904 -1.0330 -0.6012
  241MOL0     H32535   0.138   5.915   8.643  1.1285  0.9147 -1.3905
  242MOL0     O32536   4.744   2.374   7.095 -0.5855 -0.6283  0.1425
  242MOL0     C32537   4.679   2.466   7.150 -0.0561 -0.5826  0.1977
  242MOL0     O32538   4.736   2.582   7.198  0.4820 -0.7161 -0.9303
  242MOL0     C32539   4.873   2.601   7.219 -0.0802 -0.3664  0.1307
  242MOL0     C32540   4.972   2.500   7.252  0.0325 -0.9583  0.1797
  242MOL0     C32541   5.104   2.537   7.269 -0.2657 -0.8146 -0.4467
  242MOL0     C32542   5.136   2.679   7.265 -0.1958 -0.2157 -1.5148
  242MOL0     O32543   5.257   2.719   7.316 -0.2802 -0.6528 -0.5060
  242MOL0     C32544   5.329   2.818   7.236 -0.1153  0.0208 -0.0932
  242MOL0     C32545   5.409   2.747   7.124 -0.1765  0.7742 -0.2827
  242MOL0     C32546   5.480   2.853   7.031  0.5853 -0.0248 -0.4240
  242MOL0     C32547   5.577   2.942   7.123  0.6739 -0.6811  0.7752
  242MOL0     C32548   5.678   3.012   7.027  0.2118  0.6230 -0.0356
  242MOL0     C32549   5.620   3.138   6.980  0.3092 -0.0420  0.6743
  242MOL0     C32550   5.727   3.209   6.883  0.9620 -0.7103 -0.1044
  242MOL0     C32551   5.741   3.146   6.745 -0.1494 -0.3082 -0.4637
  242MOL0     N32552   5.820   3.223   6.653 -0.3640  0.0467 -0.6730
  242MOL0     C32553   5.877   3.168   6.540 -0.2987 -0.2071 -0.8324
  242MOL0     C32554   5.945   3.269   6.489 -1.0940  0.3725  0.5592
  242MOL0     C32555   6.037   3.247   6.367  0.5500 -0.0111  0.1084
  242MOL0     C32556   6.184   3.267   6.413 -0.0372  0.2097 -0.0433
  242MOL0     C32557   6.241   3.156   6.482 -0.0817  0.7376  0.0511
  242MOL0     C32558   6.396   3.160   6.491 -0.1903 -0.7231  0.7278
  242MOL0     O32559   6.452   3.143   6.364 -0.2477  0.5956  0.5296
  242MOL0     C32560   6.582   3.185   6.349  0.5792  0.2032  0.3748
  242MOL0     C32561   6.679   3.191   6.450 -0.2229 -0.5818  0.1374
  242MOL0     C32562   6.812   3.212   6.409  0.0023  0.8440 -0.7565
  242MOL0     C32563   6.842   3.246   6.276 -0.3214 -0.4703 -0.9816
  242MOL0     C32564   6.980   3.281   6.236 -1.1982 -0.2844 -0.2061
  242MOL0     O32565   7.012   3.275   6.097 -0.0600  0.0049 -0.4397
  242MOL0     C32566   7.143   3.316   6.071  1.4708 -0.7833  0.2881
  242MOL0     C32567   7.155   3.452   6.045 -0.1838 -0.1965 -0.1290
  242MOL0     C32568   7.284   3.502   6.041 -0.2004 -0.1385 -0.8638
  242MOL0     C32569   7.395   3.418   6.045  0.5136  1.3180 -0.1301
  242MOL0     O32570   7.519   3.462   6.058 -0.0139 -0.0944  0.2310
  242MOL0     C32571   7.597   3.482   5.931  0.2649  0.2157 -0.0276
  242MOL0     C32572   7.720   3.578   5.954 -0.2073  0.3935 -0.1235
  242MOL0     C32573   7.687   3.722   5.973  0.4678  0.5727 -0.1749
  242MOL0     C32574   7.812   3.794   6.026 -0.5499  0.3881  0.8727
  242MOL0     C32575   7.781   3.949   6.019  0.4157  0.7539  0.2872
  242MOL0     C32576   7.919   4.011   6.054  0.0861 -0.0674 -0.6805
  242MOL0     C32577   7.915   4.162   6.020  0.5191 -0.0852 -0.3016
  242MOL0     C32578   7.930   4.208   5.877  0.4243 -0.1351 -0.4898
  242MOL0    Cl32579   8.104   4.169   5.819 -0.3109  0.4337 -0.0206
  242MOL0     C32580   7.378   3.281   6.046 -0.0648  0.3596  1.3110
  242MOL0     C32581   7.245   3.227   6.053 -0.0771 -0.5130 -0.9548
  242MOL0     O32582   7.058   3.308   6.330  0.3400  0.2445  0.6082
  242MOL0     C32583   6.740   3.234   6.178  0.7519  0.4247  0.2923
  242MOL0     C32584   6.611   3.208   6.216 -0.2799 -0.8895  0.5128
  242MOL0     N32585   5.924   3.383   6.555 -0.5386  0.0575  0.4826
  242MOL0     N32586   5.853   3.360   6.656  0.4379  0.5495  0.1097
  242MOL0     C32587   5.036   2.776   7.240  0.2926  0.5048 -0.2281
  242MOL0     C32588   4.906   2.734   7.222  0.2547  0.0180 -0.1824
  242MOL0     C32589   4.532   2.444   7.167 -0.5027  0.0077  0.2279
  242MOL0     C32590   4.470   2.340   7.096  0.0654 -0.4408  0.0473
  242MOL0     C32591   4.335   2.309   7.119  0.2397 -0.1806  0.3182
  242MOL0     C32592   4.256   2.384   7.208 -0.1061  0.4425  0.0501
  242MOL0     O32593   4.119   2.365   7.244  0.3874  0.8884 -0.0168
  242MOL0     C32594   4.048   2.264   7.174  0.0603  0.1804 -0.0325
  242MOL0     C32595   3.911   2.243   7.239  0.0396  0.4497 -0.9907
  242MOL0     C32596   3.816   2.152   7.151 -1.1721  0.4969  0.0983
  242MOL0     C32597   3.704   2.096   7.240 -0.2487 -0.0116  0.3524
  242MOL0     C32598   3.607   2.032   7.150  0.7131 -0.5709  0.8752
  242MOL0     C32599   3.526   1.990   7.069 -0.1580 -0.1974  1.5315
  242MOL0     C32600   4.317   2.485   7.274 -0.0189  0.1391  0.6690
  242MOL0     C32601   4.450   2.515   7.258 -1.1713  0.3463 -0.1341
  242MOL0     C32602   4.485   2.649   7.329  0.2330 -0.1884  0.9723
  242MOL0     H32603   4.936   2.398   7.265 -2.0892 -0.0830  1.5857
  242MOL0     H32604   5.185   2.467   7.282 -0.2360 -0.5585  0.9817
  242MOL0     H32605   5.256   2.882   7.187 -0.2933 -0.9304 -1.0955
  242MOL0     H32606   5.405   2.863   7.300  1.4684  0.5544 -2.2347
  242MOL0     H32607   5.340   2.685   7.066  0.6572  0.5576 -1.0644
  242MOL0     H32608   5.493   2.688   7.161  0.3892  0.7724 -1.5339
  242MOL0     H32609   5.401   2.920   6.996  0.9491  0.5285 -0.2034
  242MOL0     H32610   5.528   2.804   6.946 -1.8398 -2.3565 -0.5808
  242MOL0     H32611   5.528   3.017   7.185  0.2238  0.0063 -0.3801
  242MOL0     H32612   5.634   2.875   7.188 -0.6866 -2.8386 -0.1630
  242MOL0     H32613   5.768   3.032   7.086 -0.0383  0.1836  0.5042
  242MOL0     H32614   5.705   2.949   6.942 -2.6154  1.6377 -1.8111
  242MOL0     H32615   5.527   3.128   6.924 -0.1982  3.6291  0.6376
  242MOL0     H32616   5.598   3.199   7.068  0.9709  0.5944  0.4171
  242MOL0     H32617   5.829   3.198   6.920  0.3526  0.6952  2.1517
  242MOL0     H32618   5.689   3.308   6.856  2.2131 -0.2648 -0.3181
  242MOL0     H32619   5.779   3.044   6.752 -1.2469 -0.6249  1.6643
  242MOL0     H32620   5.643   3.134   6.699 -0.4270  0.1614 -0.0042
  242MOL0     H32621   5.866   3.066   6.504 -1.7951 -0.9311  1.4194
  242MOL0     H32622   6.030   3.147   6.322  1.0034 -0.5266  1.1398
  242MOL0     H32623   6.018   3.309   6.279 -1.1843  1.2319  1.3181
  242MOL0     H32624   6.244   3.285   6.323 -1.2971  0.5133 -0.8550
  242MOL0     H32625   6.211   3.353   6.475  1.9148 -1.0073  0.8936
  242MOL0     H32626   6.196   3.068   6.433 -0.3853  1.1476 -0.4221
  242MOL0     H32627   6.191   3.160   6.579 -2.5009  0.2097 -1.0857
  242MOL0     H32628   6.433   3.080   6.557 -1.0050 -0.5205  1.4352
  242MOL0     H32629   6.405   3.260   6.534 -4.9486 -0.2513  1.1585
  242MOL0     H32630   6.659   3.170   6.555  1.5453 -1.2873  0.3594
  242MOL0     H32631   6.885   3.209   6.490 -1.4055  0.5037  0.5400
  242MOL0     H32632   7.059   3.500   6.029 -0.2473 -1.1547 -3.1533
  242MOL0     H32633   7.295   3.610   6.042 -2.6330  0.1630 -0.2782
  242MOL0     H32634   7.627   3.384   5.894 -1.0483  0.2478 -1.2734
  242MOL0     H32635   7.528   3.532   5.862 -0.2078 -0.2306  0.1087
  242MOL0     H32636   7.780   3.534   6.034  1.2171 -1.5216 -2.1294
  242MOL0     H32637   7.775   3.576   5.859 -1.0902 -0.6234 -0.6416
  242MOL0     H32638   7.650   3.762   5.877  0.7648 -2.9203 -1.8992
  242MOL0     H32639   7.608   3.739   6.047 -0.6164  0.1996 -1.1965
  242MOL0     H32640   7.897   3.763   5.964 -0.5406  1.8469  0.0984
  242MOL0     H32641   7.836   3.763   6.128  2.5173  0.7149  0.3621
  242MOL0     H32642   7.704   3.972   6.093 -2.5544 -3.3548 -1.1957
  242MOL0     H32643   7.750   3.996   5.926  0.5160 -0.0151 -0.1372
  242MOL0     H32644   7.933   3.996   6.161  0.0805 -0.0657 -0.6796
  242MOL0     H32645   7.997   3.959   5.998  1.8997  1.5653  0.1968
  242MOL0     H32646   7.988   4.195   6.095 -0.8411  1.3466  0.4749
  242MOL0     H32647   7.825   4.215   6.052  1.9014  0.8135  2.4620
  242MOL0     H32648   7.854   4.162   5.813  1.8843  0.2551 -2.6313
  242MOL0     H32649   7.922   4.317   5.877  2.2795  0.0474  0.7194
  242MOL0     H32650   7.458   3.207   6.044 -0.4411 -0.0459  0.9365
  242MOL0     H32651   7.230   3.120   6.064  0.6798 -0.4369  1.4303
  242MOL0     H32652   6.761   3.251   6.073  0.6769 -1.3910 -0.0545
  242MOL0     H32653   6.531   3.211   6.143 -1.8814 -0.9586  2.1972
  242MOL0     H32654   5.053   2.883   7.236 -1.0445  0.7063 -1.5643
  242MOL0     H32655   4.827   2.809   7.216 -1.6593 -1.9625 -0.9071
  242MOL0     H32656   4.529   2.279   7.029  0.1721 -2.3937  1.8255
  242MOL0     H32657   4.294   2.223   7.068 -1.7642  1.8106 -1.6543
  242MOL0     H32658   4.098   2.167   7.173 -0.4013 -0.1055 -2.3848
  242MOL0     H32659   4.028   2.305   7.074 -1.2023  1.2060  0.6133
  242MOL0     H32660   3.860   2.340   7.248  0.5351  0.5851  0.5894
  242MOL0     H32661   3.944   2.205   7.336  0.2651  0.0061 -1.2413
  242MOL0     H32662   3.879   2.070   7.116 -2.8045 -1.0833  0.6827
  242MOL0     H32663   3.772   2.197   7.062 -2.4209 -0.9382 -0.0590
  242MOL0     H32664   3.742   2.023   7.313 -1.0251 -2.1401 -1.2524
  242MOL0     H32665   3.660   2.180   7.294 -1.4859  1.7048 -3.0743
  242MOL0     H32666   3.460   1.941   7.000 -0.7076 -0.6675  2.3764
  242MOL0     H32667   4.253   2.539   7.343  0.6063 -1.2903  2.4406
  242MOL0     H32668   4.542   2.619   7.418 -0.1802  1.6725  1.9243
  242MOL0     H32669   4.540   2.717   7.263  0.9350  0.7885  2.5050
  242MOL0     H32670   4.392   2.700   7.355 -1.8398 -0.7605 -4.2392
  243MOL0     O32671   2.201   0.812   3.529  0.2253 -0.7342 -0.3740
  243MOL0     C32672   2.156   0.694   3.506 -0.1678 -0.6291  0.3201
  243MOL0     O32673   2.232   0.582   3.503  0.1718 -0.2025  0.1768
  243MOL0     C32674   2.368   0.605   3.499  0.3371 -0.0230 -0.2035
  243MOL0     C32675   2.431   0.541   3.395 -0.1289 -0.0607 -0.6127
  243MOL0     C32676   2.567   0.528   3.386 -0.1518 -0.5000 -0.1639
  243MOL0     C32677   2.649   0.594   3.479 -0.6523 -0.7273 -0.3561
  243MOL0     O32678   2.785   0.613   3.471  0.2227  0.8592  0.2968
  243MOL0     C32679   2.848   0.546   3.359  0.1278 -0.0186  0.4917
  243MOL0     C32680   2.997   0.589   3.381  0.6579 -0.1737 -0.4204
  243MOL0     C32681   3.088   0.536   3.269  0.7860 -0.1230  0.4699
  243MOL0     C32682   3.232   0.577   3.298 -0.0284 -0.0167 -0.1526
  243MOL0     C32683   3.326   0.497   3.206 -0.1160  0.3960  0.3701
  243MOL0     C32684   3.480   0.519   3.238  0.1713 -0.1500 -0.1852
  243MOL0     C32685   3.567   0.446   3.130 -0.0558  0.4350 -0.1206
  243MOL0     C32686   3.716   0.505   3.125 -0.1704  0.6269 -0.9230
  243MOL0     N32687   3.806   0.404   3.072  0.1224  0.3563  0.3368
  243MOL0     C32688   3.821   0.275   3.108  0.1250  0.0617  0.1280
  243MOL0     C32689   3.905   0.216   3.016 -0.2760  0.0993 -0.9847
  243MOL0     C32690   3.956   0.071   3.040 -0.8532 -0.0745  0.2624
  243MOL0     C32691   4.082   0.059   2.953  1.1660 -0.1098 -0.2430
  243MOL0     C32692   4.152  -0.074   2.980 -0.3453 -0.8716 -0.0634
  243MOL0     C32693   4.285  -0.090   2.909 -0.2562 -0.5298 -0.4234
  243MOL0     O32694   4.380   0.014   2.958  0.6448 -0.1974  0.4661
  243MOL0     C32695   4.515   0.003   2.924 -0.5671  0.0158 -0.7274
  243MOL0     C32696   4.565  -0.112   2.855  0.2190  0.2729 -0.1729
  243MOL0     C32697   4.702  -0.111   2.834  0.0736 -0.1474 -0.5053
  243MOL0     C32698   4.788  -0.010   2.875 -0.5381 -0.0541  0.4747
  243MOL0     C32699   4.930  -0.013   2.851 -0.3538 -0.0036  0.3563
  243MOL0     O32700   5.003   0.095   2.880 -0.2040  0.0599  0.3123
  243MOL0     C32701   5.139   0.073   2.881  0.4548 -0.1553 -0.2701
  243MOL0     C32702   5.220   0.056   2.767 -0.0381 -0.1942  0.5260
  243MOL0     C32703   5.356   0.049   2.787  0.2617 -0.4267 -0.0305
  243MOL0     C32704   5.416   0.077   2.907  0.1940  0.4371 -0.0060
  243MOL0     O32705   5.556   0.077   2.924 -0.2526  0.2823 -0.4070
  243MOL0     C32706   5.640  -0.020   2.861 -0.2251 -0.6290  0.4790
  243MOL0     C32707   5.790  -0.000   2.854 -0.1191  0.3683  0.1332
  243MOL0     C32708   5.849   0.051   2.990  0.1237 -0.0601  0.4730
  243MOL0     C32709   5.844  -0.056   3.103  0.4198  0.9618  0.0082
  243MOL0     C32710   5.703  -0.065   3.189  0.0311 -0.0854  0.1748
  243MOL0     C32711   5.722  -0.131   3.320  0.2774  0.5994  0.1098
  243MOL0     C32712   5.731  -0.284   3.298 -0.9324 -0.5297 -1.2914
  243MOL0     C32713   5.778  -0.357   3.432  0.2095 -0.5632 -0.8780
  243MOL0    Cl32714   5.961  -0.362   3.436  0.3587 -0.2087 -0.2390
  243MOL0     C32715   5.333   0.096   3.020  0.3980 -0.1888 -0.3945
  243MOL0     C32716   5.196   0.093   3.008 -0.7704  0.3560  0.3129
  243MOL0     O32717   4.971  -0.119   2.813  0.3133  0.6690  0.4183
  243MOL0     C32718   4.735   0.097   2.948  0.1822 -0.1003 -0.7105
  243MOL0     C32719   4.596   0.109   2.967  0.2052  0.1846  0.2510
  243MOL0     N32720   3.940   0.315   2.931 -0.1152  0.1958 -0.5967
  243MOL0     N32721   3.881   0.421   2.960 -0.1096  0.1339 -0.1513
  243MOL0     C32722   2.593   0.660   3.583 -0.1892  0.3236 -1.0601
  243MOL0     C32723   2.451   0.662   3.602 -0.3356  0.6732  0.2452
  243MOL0     C32724   2.009   0.677   3.481 -0.6480 -0.1935 -0.4149
  243MOL0     C32725   1.965   0.550   3.433 -0.4400  0.1466  0.2379
  243MOL0     C32726   1.833   0.527   3.408 -0.1887  0.9487 -0.4243
  243MOL0     C32727   1.738   0.620   3.429  0.1417  0.4285 -0.3761
  243MOL0     O32728   1.614   0.573   3.400  0.4235 -0.1747  0.0864
  243MOL0     C32729   1.498   0.631   3.466 -0.0052  0.0252  0.3327
  243MOL0     C32730   1.375   0.536   3.449 -1.1897  0.3023 -0.0760
  243MOL0     C32731   1.344   0.513   3.306  0.3407 -0.1745 -0.0945
  243MOL0     C32732   1.405   0.378   3.254  0.1749 -0.4649  0.6253
  243MOL0     C32733   1.317   0.261   3.266  1.3895 -0.8317  0.1434
  243MOL0     C32734   1.266   0.156   3.285 -0.3277  0.4995 -0.4951
  243MOL0     C32735   1.771   0.744   3.478  0.0509 -0.3201 -0.1730
  243MOL0     C32736   1.904   0.780   3.505  0.4198 -0.8475  0.4798
  243MOL0     C32737   1.919   0.914   3.574  0.3113 -0.2687  0.6556
  243MOL0     H32738   2.365   0.511   3.314 -0.3534  2.3093 -1.3977
  243MOL0     H32739   2.603   0.459   3.310 -2.6055 -3.2368  0.9437
  243MOL0     H32740   2.842   0.437   3.368 -2.9081 -0.0550 -0.8077
  243MOL0     H32741   2.816   0.587   3.263 -0.5484 -0.4387  0.5323
  243MOL0     H32742   3.024   0.549   3.479  1.1655  0.6757 -0.2060
  243MOL0     H32743   3.001   0.698   3.391 -3.4672 -0.0191  2.6534
  243MOL0     H32744   3.051   0.575   3.174 -2.7486  1.2627  2.2352
  243MOL0     H32745   3.087   0.427   3.263  1.9789 -0.0684 -1.3313
  243MOL0     H32746   3.254   0.684   3.288 -0.4892 -0.0828 -2.2072
  243MOL0     H32747   3.256   0.539   3.398  4.7714  1.4527 -0.5398
  243MOL0     H32748   3.310   0.390   3.222  2.8831 -0.0811  0.7459
  243MOL0     H32749   3.305   0.518   3.101  1.9256 -1.1108 -0.3965
  243MOL0     H32750   3.502   0.625   3.222 -0.5575 -0.0298 -0.4419
  243MOL0     H32751   3.509   0.485   3.337  1.9907 -2.7008 -1.4797
  243MOL0     H32752   3.519   0.466   3.033 -3.2509  1.7383  1.5672
  243MOL0     H32753   3.558   0.340   3.155  1.4327  0.1618 -0.6394
  243MOL0     H32754   3.716   0.600   3.071  1.8879 -0.3513 -2.8261
  243MOL0     H32755   3.739   0.515   3.231  1.4370  0.3584 -1.2180
  243MOL0     H32756   3.793   0.240   3.206  1.5952 -1.7178 -0.0376
  243MOL0     H32757   3.965   0.051   3.147  1.8339 -2.9767 -0.3423
  243MOL0     H32758   3.877   0.003   3.007  2.0400 -2.2390 -2.9089
  243MOL0     H32759   4.056   0.066   2.847 -1.3232  1.5722  0.3852
  243MOL0     H32760   4.151   0.139   2.980 -0.1783 -0.2149  4.1462
  243MOL0     H32761   4.086  -0.161   2.973 -0.1362 -1.0020 -0.4225
  243MOL0     H32762   4.188  -0.071   3.083 -1.2663  0.7347  0.2460
  243MOL0     H32763   4.277  -0.078   2.800  1.3703  1.2787 -0.4081
  243MOL0     H32764   4.324  -0.190   2.929  3.4246  1.0315  1.1943
  243MOL0     H32765   4.512  -0.197   2.813  1.3591  0.7177 -2.7484
  243MOL0     H32766   4.739  -0.196   2.778 -0.2508 -0.6121 -0.0266
  243MOL0     H32767   5.175   0.054   2.669 -3.6900  1.8713  1.9478
  243MOL0     H32768   5.413   0.017   2.701 -0.5320 -0.2004 -0.6446
  243MOL0     H32769   5.629  -0.110   2.922 -0.1813  0.5241  2.2341
  243MOL0     H32770   5.615  -0.037   2.755 -0.0259 -0.1878  0.3599
  243MOL0     H32771   5.847  -0.086   2.817  1.8536  1.7848 -0.2652
  243MOL0     H32772   5.814   0.077   2.780  1.8791 -2.2995 -2.2389
  243MOL0     H32773   5.953   0.086   2.986  0.6841 -1.1125  3.3833
  243MOL0     H32774   5.789   0.141   3.006  2.7054  1.9542 -0.4692
  243MOL0     H32775   5.920  -0.031   3.177 -0.3460 -0.5510  1.3897
  243MOL0     H32776   5.861  -0.157   3.064  0.5494  1.3568 -0.9622
  243MOL0     H32777   5.625  -0.111   3.127  1.2326 -0.9120 -0.7907
  243MOL0     H32778   5.664   0.036   3.200 -0.9278 -0.0707 -2.5742
  243MOL0     H32779   5.810  -0.092   3.372  1.5299 -2.8238  0.8711
  243MOL0     H32780   5.640  -0.115   3.390 -0.1161 -2.4235  0.4631
  243MOL0     H32781   5.798  -0.307   3.215  0.0004 -1.9716 -0.1986
  243MOL0     H32782   5.632  -0.327   3.280 -1.5829  0.4785 -0.2737
  243MOL0     H32783   5.730  -0.311   3.518  1.0626 -0.3557 -0.5008
  243MOL0     H32784   5.753  -0.463   3.427  0.6212 -0.6922 -0.1928
  243MOL0     H32785   5.382   0.101   3.116  0.1470  0.2890 -0.2907
  243MOL0     H32786   5.132   0.129   3.088 -3.5157 -0.6138 -1.3089
  243MOL0     H32787   4.793   0.180   2.987  1.1820 -1.7776  1.5930
  243MOL0     H32788   4.551   0.196   3.014 -1.0768 -0.2350 -0.1505
  243MOL0     H32789   2.660   0.705   3.656  0.6889 -2.4810 -0.0058
  243MOL0     H32790   2.400   0.711   3.684  0.1427  1.1571  0.2570
  243MOL0     H32791   2.036   0.470   3.413 -1.3805 -0.4589 -0.8093
  243MOL0     H32792   1.807   0.434   3.359  0.7054  0.2518  0.3939
  243MOL0     H32793   1.472   0.732   3.434 -1.8596 -0.7771 -0.8702
  243MOL0     H32794   1.515   0.647   3.573 -1.0237  0.7232  0.4078
  243MOL0     H32795   1.289   0.577   3.503 -1.0627  0.7037 -0.1729
  243MOL0     H32796   1.404   0.446   3.503 -2.2290 -0.7386 -1.2078
  243MOL0     H32797   1.404   0.588   3.254  0.3901 -0.7878 -0.9438
  243MOL0     H32798   1.244   0.525   3.264  0.9565 -2.6982 -2.5873
  243MOL0     H32799   1.413   0.380   3.145 -3.2226 -0.0493  0.2692
  243MOL0     H32800   1.503   0.349   3.294 -0.2887 -5.2402 -1.0709
  243MOL0     H32801   1.221   0.059   3.290 -0.2831  0.4538 -0.9344
  243MOL0     H32802   1.693   0.815   3.506 -0.7611 -0.4835 -1.9357
  243MOL0     H32803   2.004   0.911   3.642  0.9430 -0.0471 -0.1080
  243MOL0     H32804   1.919   0.993   3.498 -3.7339 -2.9922 -2.6738
  243MOL0     H32805   1.831   0.944   3.631 -0.8402  0.5587 -1.4172
  244MOL0     O32806   5.986   8.981   1.603 -0.5556  0.1200 -0.0477
  244MOL0     C32807   6.019   8.878   1.656  0.2536  0.3754  0.3267
  244MOL0     O32808   5.930   8.781   1.706  1.1146 -0.0484 -0.4450
  244MOL0     C32809   5.791   8.788   1.700 -0.4057  0.0182 -0.2508
  244MOL0     C32810   5.716   8.852   1.603  0.2721 -0.8356  0.2676
  244MOL0     C32811   5.579   8.836   1.603  0.4778  0.5548 -0.6740
  244MOL0     C32812   5.517   8.770   1.714  1.4491 -0.7109  0.8941
  244MOL0     O32813   5.376   8.773   1.714 -0.0389  0.2811  0.9485
  244MOL0     C32814   5.315   8.862   1.813  0.4809  0.6273  0.3084
  244MOL0     C32815   5.221   8.970   1.765  0.2336 -0.1835 -0.2412
  244MOL0     C32816   5.073   8.918   1.782  0.3449 -0.7573 -1.0407
  244MOL0     C32817   4.968   9.031   1.752  0.6839  0.0644  0.8419
  244MOL0     C32818   4.830   8.970   1.720  0.1566 -0.4031  0.3261
  244MOL0     C32819   4.743   8.932   1.845 -0.4837  0.1512  0.3757
  244MOL0     C32820   4.696   9.052   1.926 -0.0730 -0.4583 -0.1913
  244MOL0     C32821   4.625   9.014   2.054  0.3089  0.3492 -0.5883
  244MOL0     N32822   4.716   8.973   2.155  0.2564 -0.2544  0.1016
  244MOL0     C32823   4.769   8.850   2.172  0.1189  0.5253  0.0591
  244MOL0     C32824   4.872   8.864   2.254 -0.6930  0.8030 -0.5543
  244MOL0     C32825   4.961   8.748   2.284 -0.1914  1.0784 -0.1845
  244MOL0     C32826   5.050   8.718   2.167  0.3310 -0.2273 -0.2133
  244MOL0     C32827   5.142   8.596   2.196  0.0456 -0.5678 -0.4082
  244MOL0     C32828   5.274   8.612   2.118 -0.1472 -0.3032 -0.2165
  244MOL0     O32829   5.343   8.739   2.131  0.4073  0.1400  0.0736
  244MOL0     C32830   5.480   8.735   2.160 -0.5267 -0.1582 -0.2490
  244MOL0     C32831   5.548   8.858   2.146  0.0693 -0.0417 -0.0950
  244MOL0     C32832   5.689   8.858   2.157 -0.6667  0.7932 -0.2198
  244MOL0     C32833   5.763   8.745   2.198  0.3874  0.9013 -0.1030
  244MOL0     C32834   5.911   8.756   2.221 -0.0949 -0.0024  0.6781
  244MOL0     O32835   5.971   8.851   2.151  0.2559  0.3441  0.5286
  244MOL0     C32836   6.106   8.874   2.148  0.1370  0.0538  0.3947
  244MOL0     C32837   6.194   8.849   2.250 -0.1713  0.1857  0.0825
  244MOL0     C32838   6.329   8.878   2.241 -0.1128 -0.0457  0.4349
  244MOL0     C32839   6.389   8.939   2.126 -0.1332 -0.2600  0.1655
  244MOL0     O32840   6.523   8.957   2.133 -0.8206  0.6303 -0.1842
  244MOL0     C32841   6.585   8.949   2.001  0.5706  0.5633 -0.1507
  244MOL0     C32842   6.732   8.973   2.013  0.0266 -0.3773  0.7671
  244MOL0     C32843   6.770   9.126   2.019  0.3857 -0.0781 -0.0798
  244MOL0     C32844   6.922   9.158   1.990  0.3755  0.3435 -0.5106
  244MOL0     C32845   7.023   9.138   2.106  0.2042 -0.1597 -0.0590
  244MOL0     C32846   7.168   9.182   2.066  0.8000  0.1422 -0.3873
  244MOL0     C32847   7.182   9.327   2.072 -0.7916 -0.5675  0.1209
  244MOL0     C32848   7.283   9.366   1.958  0.6792  0.2701 -0.2833
  244MOL0    Cl32849   7.375   9.518   1.989  0.0544 -0.0062 -0.2730
  244MOL0     C32850   6.295   8.974   2.023 -0.3392  0.4294 -0.6123
  244MOL0     C32851   6.162   8.925   2.027 -0.0975  0.3772  0.4940
  244MOL0     O32852   5.967   8.652   2.266  0.2960 -0.1302 -0.1900
  244MOL0     C32853   5.703   8.620   2.202  1.1548 -1.2536  0.4585
  244MOL0     C32854   5.556   8.618   2.184 -0.6202 -0.1596 -0.3540
  244MOL0     N32855   4.890   8.997   2.279 -0.0145  0.3227  0.3005
  244MOL0     N32856   4.784   9.061   2.238  0.3389  0.4658 -0.1122
  244MOL0     C32857   5.584   8.710   1.816 -0.1253  0.1223 -0.2750
  244MOL0     C32858   5.725   8.720   1.808 -0.3797 -0.6352  0.3460
  244MOL0     C32859   6.163   8.851   1.663  0.1164  0.0874 -0.1388
  244MOL0     C32860   6.194   8.721   1.668 -0.8163  0.3972 -0.8429
  244MOL0     C32861   6.334   8.687   1.678  1.2980 -0.2806  0.8800
  244MOL0     C32862   6.439   8.785   1.694  0.9012  0.9891 -0.8692
  244MOL0     O32863   6.575   8.759   1.700  0.4219 -0.2028  0.2781
  244MOL0     C32864   6.630   8.637   1.651 -0.1264 -0.7338  0.2187
  244MOL0     C32865   6.784   8.655   1.632  0.1086 -0.4276 -0.0533
  244MOL0     C32866   6.864   8.684   1.759  0.6015 -0.6264 -1.2864
  244MOL0     C32867   6.985   8.770   1.732 -0.3653 -0.0595  0.4546
  244MOL0     C32868   7.046   8.799   1.862 -0.6835  0.5499  0.4351
  244MOL0     C32869   7.087   8.824   1.979  0.6471 -0.2713  0.3651
  244MOL0     C32870   6.392   8.914   1.689  0.6819 -0.7931  0.1573
  244MOL0     C32871   6.263   8.953   1.670  0.2313 -0.7553  0.0158
  244MOL0     C32872   6.223   9.102   1.665 -0.6233  0.3127 -0.6470
  244MOL0     H32873   5.777   8.900   1.528  0.4006  0.2672  1.0450
  244MOL0     H32874   5.517   8.886   1.529  1.4891 -0.1424 -2.0562
  244MOL0     H32875   5.255   8.807   1.886 -1.2355  0.7854 -0.9163
  244MOL0     H32876   5.395   8.909   1.871 -0.0352  1.8798  0.0258
  244MOL0     H32877   5.250   8.992   1.662  1.5378 -0.6848 -0.0037
  244MOL0     H32878   5.235   9.052   1.835 -0.6943 -0.4129  0.2314
  244MOL0     H32879   5.066   8.885   1.886  2.7994 -1.3103 -1.0027
  244MOL0     H32880   5.049   8.832   1.718  0.0279 -1.8624  0.4934
  244MOL0     H32881   4.961   9.100   1.836 -1.1782 -1.3074  1.8857
  244MOL0     H32882   5.002   9.083   1.662  1.1084 -1.6646 -0.0449
  244MOL0     H32883   4.774   9.048   1.668  2.6774  0.4567 -1.3085
  244MOL0     H32884   4.837   8.886   1.650 -0.1426  1.8666 -2.6618
  244MOL0     H32885   4.649   8.887   1.811 -0.3263  0.7557 -0.9150
  244MOL0     H32886   4.809   8.861   1.896  0.6802  1.8406  1.3542
  244MOL0     H32887   4.638   9.120   1.863 -0.6738 -0.4024  0.4189
  244MOL0     H32888   4.783   9.112   1.951 -0.3047  0.1507 -0.7906
  244MOL0     H32889   4.558   9.088   2.098 -1.0618 -1.2623  0.1189
  244MOL0     H32890   4.554   8.934   2.035  1.2558 -0.4733 -0.7795
  244MOL0     H32891   4.741   8.759   2.120 -3.5806  1.9193 -0.7035
  244MOL0     H32892   5.032   8.770   2.364 -0.3959  1.0503  0.0061
  244MOL0     H32893   4.893   8.666   2.310 -1.6023  2.0821 -0.6461
  244MOL0     H32894   4.990   8.712   2.076 -3.5771  3.5445  1.7251
  244MOL0     H32895   5.114   8.806   2.154  0.0403  0.0558  0.2543
  244MOL0     H32896   5.092   8.510   2.150 -0.5915 -0.0080 -0.7697
  244MOL0     H32897   5.158   8.583   2.303  0.6164  0.7376 -0.3141
  244MOL0     H32898   5.253   8.592   2.012 -0.0370 -2.1528  0.0738
  244MOL0     H32899   5.330   8.523   2.151 -0.7242 -0.5979 -0.0119
  244MOL0     H32900   5.497   8.950   2.122 -0.3119 -0.4361 -0.8413
  244MOL0     H32901   5.752   8.946   2.145  3.0619 -1.6905 -0.6950
  244MOL0     H32902   6.161   8.795   2.338  0.4421  0.7504  0.6709
  244MOL0     H32903   6.390   8.859   2.329  0.8267 -0.5673 -0.3155
  244MOL0     H32904   6.571   8.849   1.961  1.8134 -0.3463  1.5456
  244MOL0     H32905   6.544   9.023   1.932  0.9856 -0.6815 -1.7928
  244MOL0     H32906   6.773   8.909   2.092  0.5504 -2.4597 -1.0723
  244MOL0     H32907   6.784   8.942   1.921  4.3398 -2.1181  3.4816
  244MOL0     H32908   6.711   9.177   1.942  0.3258 -1.0105 -0.6735
  244MOL0     H32909   6.734   9.163   2.115 -1.4357 -3.7086  0.8185
  244MOL0     H32910   6.924   9.259   1.947 -0.5457  1.4818  1.9170
  244MOL0     H32911   6.945   9.089   1.909 -1.6938  1.7460 -2.4063
  244MOL0     H32912   7.020   9.031   2.129 -2.2296  0.1729  1.5240
  244MOL0     H32913   6.988   9.196   2.191  0.4253  1.4592 -1.0241
  244MOL0     H32914   7.230   9.126   2.138  0.3051  0.0211 -0.0470
  244MOL0     H32915   7.195   9.135   1.971 -1.7382  0.0543 -1.1168
  244MOL0     H32916   7.222   9.357   2.169  0.4012 -0.0707 -0.5159
  244MOL0     H32917   7.084   9.376   2.067 -1.9417 -2.3300  2.7512
  244MOL0     H32918   7.352   9.283   1.941 -1.1386 -1.0005 -1.9145
  244MOL0     H32919   7.233   9.370   1.860  0.1471 -0.5166 -0.0529
  244MOL0     H32920   6.340   9.016   1.934  1.0029 -1.1308 -0.7197
  244MOL0     H32921   6.099   8.941   1.939 -2.7346 -1.0514  1.9925
  244MOL0     H32922   5.757   8.527   2.218  0.0809 -2.0080 -0.1473
  244MOL0     H32923   5.516   8.517   2.187  0.8828 -0.8680 -2.1857
  244MOL0     H32924   5.536   8.669   1.905  2.7669 -0.7424  1.0032
  244MOL0     H32925   5.786   8.684   1.890 -1.4022 -2.2261  0.4497
  244MOL0     H32926   6.112   8.652   1.688  0.1536  0.1389  3.0802
  244MOL0     H32927   6.357   8.581   1.681  1.1694 -0.2895  1.9648
  244MOL0     H32928   6.580   8.617   1.556 -1.5815  1.0142  0.5709
  244MOL0     H32929   6.617   8.562   1.730  0.0430 -0.4507  0.5185
  244MOL0     H32930   6.806   8.743   1.570  2.0447 -0.7756  0.0630
  244MOL0     H32931   6.824   8.568   1.581  0.4234  0.6686 -1.7675
  244MOL0     H32932   6.905   8.590   1.798  1.8270 -0.9558 -3.2159
  244MOL0     H32933   6.808   8.730   1.840  1.0209 -0.1528 -1.2610
  244MOL0     H32934   7.059   8.717   1.672 -1.1536 -0.5299 -0.1278
  244MOL0     H32935   6.967   8.869   1.687  0.6701 -0.0415  0.0532
  244MOL0     H32936   7.118   8.847   2.079 -2.9908 -1.3428  1.9087
  244MOL0     H32937   6.466   8.993   1.679 -2.5195  2.4251 -0.3775
  244MOL0     H32938   6.310   9.168   1.667 -1.6613  1.7392 -0.0333
  244MOL0     H32939   6.173   9.138   1.575 -1.1939  0.2040 -0.3825
  244MOL0     H32940   6.163   9.118   1.755 -0.0625  0.9918 -0.3811
  245MOL0     O32941   2.947   7.603   4.108 -1.0012  0.6152 -0.7851
  245MOL0     C32942   2.922   7.672   4.012 -0.2625 -0.2950 -0.0686
  245MOL0     O32943   3.008   7.715   3.916 -0.4550 -0.7544 -0.4000
  245MOL0     C32944   3.140   7.676   3.914 -0.5122 -0.7351  0.0182
  245MOL0     C32945   3.209   7.745   3.811  0.1156 -0.5459  0.0657
  245MOL0     C32946   3.346   7.730   3.794 -0.4305  0.1277 -0.2190
  245MOL0     C32947   3.419   7.646   3.879  0.7388  0.2009  0.5601
  245MOL0     O32948   3.560   7.639   3.855  0.7453 -0.3260  0.3077
  245MOL0     C32949   3.637   7.541   3.926 -0.4330 -0.2544  0.3760
  245MOL0     C32950   3.772   7.514   3.847  0.2478 -0.5815 -0.3933
  245MOL0     C32951   3.744   7.461   3.707 -0.2158  0.1698  0.1350
  245MOL0     C32952   3.883   7.406   3.662  0.5186 -0.3278  0.1796
  245MOL0     C32953   3.894   7.378   3.513  0.3426  0.1327 -1.0385
  245MOL0     C32954   4.013   7.302   3.476 -0.7382  0.2509 -0.9260
  245MOL0     C32955   3.992   7.203   3.362 -0.5880  0.5242  0.1322
  245MOL0     C32956   4.107   7.105   3.340  0.6960  0.1745 -0.4326
  245MOL0     N32957   4.216   7.162   3.264  0.0872 -0.8719  0.1126
  245MOL0     C32958   4.296   7.080   3.190 -0.7603  0.6292  0.4429
  245MOL0     C32959   4.381   7.170   3.121 -0.3552  0.0154 -0.5443
  245MOL0     C32960   4.475   7.134   3.015 -0.1248 -0.8649 -0.0723
  245MOL0     C32961   4.599   7.052   3.058  0.2412 -0.2682 -0.1496
  245MOL0     C32962   4.694   7.135   3.145  0.0106 -0.3027  0.9985
  245MOL0     C32963   4.837   7.085   3.142  0.5432  0.9336 -0.2843
  245MOL0     O32964   4.887   7.133   3.020 -0.0118  0.4102 -0.2894
  245MOL0     C32965   5.025   7.155   3.018  0.5706  0.0682  0.6437
  245MOL0     C32966   5.065   7.236   2.915  0.2795  0.5067  0.3298
  245MOL0     C32967   5.200   7.279   2.897 -0.1481  0.1968 -0.5913
  245MOL0     C32968   5.297   7.236   2.991  0.4299  0.3546  0.2809
  245MOL0     C32969   5.431   7.288   2.992  0.2898 -1.2210 -0.8150
  245MOL0     O32970   5.476   7.326   2.871  0.2541  0.2028  0.0822
  245MOL0     C32971   5.602   7.369   2.854 -0.4593  0.7282 -0.4390
  245MOL0     C32972   5.714   7.306   2.923  0.0365 -0.0018  0.3756
  245MOL0     C32973   5.841   7.362   2.909  0.4823 -0.4966 -0.5775
  245MOL0     C32974   5.864   7.470   2.835  0.3354 -0.6249 -1.0952
  245MOL0     O32975   5.987   7.518   2.816  0.5505  0.2593  0.4604
  245MOL0     C32976   6.046   7.568   2.935 -0.4154 -0.0393 -0.4247
  245MOL0     C32977   6.190   7.623   2.911  0.1859  0.3989  0.0044
  245MOL0     C32978   6.254   7.691   3.038 -0.1027 -0.2202  0.2832
  245MOL0     C32979   6.280   7.593   3.151  0.5397  0.7303 -0.0467
  245MOL0     C32980   6.301   7.679   3.276 -0.4834 -1.0659 -0.1136
  245MOL0     C32981   6.349   7.600   3.396 -0.3014 -0.2509  0.1932
  245MOL0     C32982   6.378   7.691   3.524 -0.9460 -0.6572  0.5685
  245MOL0     C32983   6.404   7.600   3.645  0.4598  0.5994  0.0296
  245MOL0    Cl32984   6.253   7.522   3.697 -0.3438 -0.5741 -0.0704
  245MOL0     C32985   5.761   7.527   2.755 -0.2138  0.3652 -0.5416
  245MOL0     C32986   5.629   7.475   2.773  1.0461 -0.2663  0.0460
  245MOL0     O32987   5.493   7.304   3.100 -0.0983 -0.2690 -0.7387
  245MOL0     C32988   5.258   7.157   3.094 -0.2825 -0.6380 -0.7679
  245MOL0     C32989   5.124   7.117   3.111  0.3976 -0.4741 -0.2656
  245MOL0     N32990   4.356   7.296   3.157 -0.1781  0.2948  0.0396
  245MOL0     N32991   4.256   7.290   3.236  0.2210  0.1373  0.1144
  245MOL0     C32992   3.346   7.570   3.969 -0.1413 -0.1551 -0.3216
  245MOL0     C32993   3.210   7.577   3.985 -0.0162  1.3462  0.1040
  245MOL0     C32994   2.784   7.732   4.019 -0.7965 -0.4353  0.4126
  245MOL0     C32995   2.686   7.664   4.094 -0.0867  0.0098 -0.8367
  245MOL0     C32996   2.558   7.714   4.115 -0.4328 -0.1501 -0.6252
  245MOL0     C32997   2.521   7.839   4.060  0.1231  0.0990 -0.4917
  245MOL0     O32998   2.396   7.879   4.103  0.4563  0.6520  0.0114
  245MOL0     C32999   2.343   8.011   4.070  0.0616  0.9053  0.3347
  245MOL0     C33000   2.200   7.997   4.086  0.4682  0.6903  0.1833
  245MOL0     C33001   2.118   7.948   3.964 -0.0829  1.1558  0.9317
  245MOL0     C33002   1.969   7.920   4.010 -1.7441  0.2363  0.0313
  245MOL0     C33003   1.885   7.872   3.902  0.5929  0.7585 -0.1406
  245MOL0     C33004   1.822   7.838   3.804  0.2759 -0.5520 -0.2724
  245MOL0     C33005   2.620   7.911   3.994  0.6851 -0.2179 -0.2265
  245MOL0     C33006   2.747   7.864   3.975  0.3094 -0.0707 -0.0349
  245MOL0     C33007   2.844   7.946   3.897  0.2043 -0.5671  0.7821
  245MOL0     H33008   3.146   7.798   3.740  1.4556 -2.6937 -2.9036
  245MOL0     H33009   3.387   7.783   3.709 -2.5016 -1.4142 -2.3221
  245MOL0     H33010   3.653   7.591   4.022  1.5104  0.6982 -0.3748
  245MOL0     H33011   3.581   7.447   3.927  0.0846 -0.6290 -1.5168
  245MOL0     H33012   3.833   7.437   3.896 -1.8847 -1.4430  1.0282
  245MOL0     H33013   3.835   7.604   3.837 -0.0829 -0.5691 -2.8021
  245MOL0     H33014   3.711   7.542   3.641 -0.7691 -2.7503 -3.4940
  245MOL0     H33015   3.684   7.370   3.707  2.4333 -1.6937 -0.2536
  245MOL0     H33016   3.966   7.473   3.687  1.6159 -1.6166  0.1203
  245MOL0     H33017   3.893   7.313   3.720  1.0599  0.5104  1.4840
  245MOL0     H33018   3.800   7.326   3.492  0.6328 -1.1712  0.6443
  245MOL0     H33019   3.895   7.474   3.461  2.9739  0.2670 -0.8787
  245MOL0     H33020   4.090   7.376   3.452 -1.9492  0.7920 -3.4353
  245MOL0     H33021   4.040   7.241   3.563 -1.0815  0.7566 -0.4590
  245MOL0     H33022   3.965   7.248   3.266  0.7845  1.0633 -0.0254
  245MOL0     H33023   3.904   7.143   3.387 -0.0688 -0.3788 -0.1713
  245MOL0     H33024   4.142   7.061   3.434  0.6125  1.7858  0.3937
  245MOL0     H33025   4.053   7.025   3.291  1.7558 -1.9141  1.5971
  245MOL0     H33026   4.277   6.973   3.180 -2.3209  1.0019 -1.0557
  245MOL0     H33027   4.419   7.097   2.929 -0.3898 -1.4043  0.3213
  245MOL0     H33028   4.522   7.223   2.971  1.1975 -0.7336  1.4935
  245MOL0     H33029   4.572   6.962   3.115 -1.2250  0.2936  0.0996
  245MOL0     H33030   4.651   7.027   2.965  0.2290  0.9355 -0.4965
  245MOL0     H33031   4.664   7.127   3.250  1.9910  0.8885  1.7166
  245MOL0     H33032   4.697   7.241   3.117 -1.1238 -0.3123  0.7978
  245MOL0     H33033   4.830   6.976   3.147 -2.7581  1.0185 -1.0248
  245MOL0     H33034   4.887   7.122   3.232  0.7688 -0.8518  0.3538
  245MOL0     H33035   4.996   7.279   2.843 -0.7923 -1.5643  0.0600
  245MOL0     H33036   5.234   7.351   2.824 -1.7988 -0.1159 -1.7272
  245MOL0     H33037   5.692   7.229   2.997  0.0943  0.2832  0.6937
  245MOL0     H33038   5.921   7.303   2.952 -1.7775 -2.4277  1.2866
  245MOL0     H33039   5.980   7.649   2.965 -1.3928 -0.3347 -1.6758
  245MOL0     H33040   6.050   7.488   3.010 -2.0340  2.3827  2.4359
  245MOL0     H33041   6.252   7.539   2.879  3.6553  2.1708  1.5186
  245MOL0     H33042   6.179   7.695   2.829 -0.9904 -2.0782 -2.1362
  245MOL0     H33043   6.352   7.726   3.006  0.0545 -1.7253 -0.9703
  245MOL0     H33044   6.189   7.772   3.074  1.1479  1.0877 -0.3496
  245MOL0     H33045   6.354   7.518   3.121 -0.5161  0.5319 -2.3553
  245MOL0     H33046   6.193   7.530   3.172  0.3310  0.3929 -1.7287
  245MOL0     H33047   6.206   7.725   3.303 -0.5750 -2.0179  1.2517
  245MOL0     H33048   6.374   7.759   3.257  0.0284 -1.1080  1.5084
  245MOL0     H33049   6.273   7.526   3.422  1.8305 -2.2480  1.1798
  245MOL0     H33050   6.444   7.552   3.373 -0.2551 -0.3300  0.5449
  245MOL0     H33051   6.296   7.761   3.540  0.9670  1.3836  2.0285
  245MOL0     H33052   6.467   7.745   3.489 -2.4097  1.0211 -0.8097
  245MOL0     H33053   6.481   7.523   3.632 -1.9008 -1.3470 -4.5125
  245MOL0     H33054   6.449   7.661   3.725 -1.3090  1.9224  0.0755
  245MOL0     H33055   5.779   7.598   2.675  1.6356  1.4823  0.7715
  245MOL0     H33056   5.545   7.507   2.713 -0.9744 -1.0248  2.3142
  245MOL0     H33057   5.332   7.124   3.168 -0.3315 -0.2964 -0.5654
  245MOL0     H33058   5.095   7.066   3.202  0.8796 -2.6099 -1.2593
  245MOL0     H33059   3.388   7.486   4.024 -0.9815 -1.1667 -1.1927
  245MOL0     H33060   3.149   7.519   4.054  1.0767  1.8086  1.5006
  245MOL0     H33061   2.714   7.570   4.140  2.6206  1.4142  0.6267
  245MOL0     H33062   2.490   7.653   4.173 -2.8616  2.4801 -0.4757
  245MOL0     H33063   2.369   8.033   3.966  0.2309  1.2448  0.4495
  245MOL0     H33064   2.393   8.080   4.138  0.9510 -0.3265  0.9654
  245MOL0     H33065   2.166   8.098   4.112  0.7237  0.3026  2.1803
  245MOL0     H33066   2.182   7.930   4.170 -1.3265  0.9341  0.0531
  245MOL0     H33067   2.174   7.864   3.920  0.4907  2.4735 -0.9546
  245MOL0     H33068   2.125   8.029   3.891  0.5656  0.6600  0.4220
  245MOL0     H33069   1.961   7.840   4.084 -1.1441  0.2080  0.0746
  245MOL0     H33070   1.933   8.009   4.063 -4.4876 -2.2849  2.7471
  245MOL0     H33071   1.786   7.812   3.706 -1.6324 -0.3165  0.3114
  245MOL0     H33072   2.597   8.014   3.970  1.3318  0.1120  0.5307
  245MOL0     H33073   2.945   7.942   3.939 -0.3936  1.5354  2.6178
  245MOL0     H33074   2.851   7.912   3.793 -1.0296  0.4414  0.3446
  245MOL0     H33075   2.817   8.052   3.901  0.8307 -0.4455  2.9531
  246MOL0     O33076   4.232   5.764   0.659  0.0367  0.0288 -0.3574
  246MOL0     C33077   4.164   5.861   0.620 -0.6176 -0.2063 -0.4291
  246MOL0     O33078   4.214   5.981   0.577  0.5223 -0.4309 -0.5650
  246MOL0     C33079   4.338   6.008   0.545 -0.2299  0.4979 -0.8381
  246MOL0     C33080   4.426   5.901   0.514 -0.4484  0.3075  0.7766
  246MOL0     C33081   4.550   5.936   0.477  0.2065  0.8535 -0.0151
  246MOL0     C33082   4.588   6.073   0.448  0.4425 -0.3085 -0.6263
  246MOL0     O33083   4.712   6.104   0.389  0.5188  0.2610  0.0697
  246MOL0     C33084   4.819   6.017   0.428  1.2862 -0.5278 -0.3665
  246MOL0     C33085   4.946   6.100   0.409  0.2236  0.1857  0.3902
  246MOL0     C33086   5.069   6.030   0.465 -0.2774 -0.4011 -0.5839
  246MOL0     C33087   5.096   5.884   0.419 -0.3672 -0.0329 -0.4094
  246MOL0     C33088   5.239   5.844   0.458 -0.2420  0.5528  0.7623
  246MOL0     C33089   5.303   5.737   0.366 -0.5662  0.2350  0.3495
  246MOL0     C33090   5.435   5.686   0.437 -0.0930  1.1206  0.6081
  246MOL0     C33091   5.559   5.775   0.405  0.3343  0.3920  0.5724
  246MOL0     N33092   5.686   5.715   0.464 -0.0924  0.1761  0.1649
  246MOL0     C33093   5.715   5.584   0.456 -0.3718 -0.5534  0.4322
  246MOL0     C33094   5.818   5.570   0.547  0.1246 -0.0781 -0.3936
  246MOL0     C33095   5.898   5.453   0.591 -1.0360 -0.6285 -0.5280
  246MOL0     C33096   5.958   5.389   0.466 -0.5858  0.0452  0.4765
  246MOL0     C33097   6.020   5.250   0.484  0.3382 -0.3517 -0.2795
  246MOL0     C33098   6.073   5.195   0.355 -0.2580 -0.4244  0.3700
  246MOL0     O33099   6.190   5.264   0.309 -0.0758  0.6206  0.8335
  246MOL0     C33100   6.304   5.266   0.386  1.1993 -0.3150 -0.2263
  246MOL0     C33101   6.376   5.385   0.394 -0.8324  0.4892 -0.3574
  246MOL0     C33102   6.496   5.388   0.458  0.0484  1.0060 -0.5033
  246MOL0     C33103   6.552   5.271   0.514 -0.3101  0.2541 -1.1949
  246MOL0     C33104   6.690   5.278   0.574 -0.3488  0.7070  0.3524
  246MOL0     O33105   6.720   5.181   0.666 -0.0800  0.3167 -0.2066
  246MOL0     C33106   6.843   5.148   0.712  0.9324 -0.0566 -0.5579
  246MOL0     C33107   6.852   5.036   0.793  0.0750  0.3264  1.0873
  246MOL0     C33108   6.975   4.993   0.836  0.6942  0.7946 -0.4499
  246MOL0     C33109   7.087   5.073   0.825 -0.5036  0.2037 -0.5430
  246MOL0     O33110   7.203   5.024   0.872  0.2678  1.2397  0.2976
  246MOL0     C33111   7.206   4.987   1.012  0.7311  0.7657 -0.4835
  246MOL0     C33112   7.327   4.912   1.063  0.0049  0.4444  0.0442
  246MOL0     C33113   7.343   4.769   1.019  0.1457 -0.5580  0.2456
  246MOL0     C33114   7.473   4.717   1.086 -0.1755 -0.6117 -1.0547
  246MOL0     C33115   7.518   4.599   1.013 -0.2432  0.8781  0.1490
  246MOL0     C33116   7.618   4.510   1.095 -0.5013 -0.8334 -0.0406
  246MOL0     C33117   7.747   4.585   1.135 -0.0206  0.3010  0.1251
  246MOL0     C33118   7.862   4.480   1.161 -0.5718  0.0023  0.4126
  246MOL0    Cl33119   8.001   4.572   1.234  0.0126 -0.0490  0.0949
  246MOL0     C33120   7.084   5.196   0.742  0.5523  0.6914 -0.3036
  246MOL0     C33121   6.962   5.219   0.673 -0.0240  0.0359 -0.2116
  246MOL0     O33122   6.760   5.368   0.534  0.4036  0.2033  0.5424
  246MOL0     C33123   6.474   5.154   0.512  0.4691 -0.7506 -0.4837
  246MOL0     C33124   6.352   5.151   0.451 -1.0192 -1.1765  0.6006
  246MOL0     N33125   5.844   5.695   0.604 -0.5007  0.5618  0.0927
  246MOL0     N33126   5.763   5.777   0.554 -0.4260 -0.0974 -0.9853
  246MOL0     C33127   4.505   6.172   0.483 -0.6702 -0.5691  0.6098
  246MOL0     C33128   4.380   6.138   0.528  0.7034 -0.0613  0.1961
  246MOL0     C33129   4.012   5.847   0.628 -0.0715  0.4461  1.1486
  246MOL0     C33130   3.960   5.775   0.737 -0.5398  0.3900  0.6412
  246MOL0     C33131   3.818   5.768   0.751 -0.3527 -0.1865 -0.0583
  246MOL0     C33132   3.739   5.826   0.653  0.6336 -0.3296 -0.0522
  246MOL0     O33133   3.595   5.824   0.653  0.1870  0.2399 -0.0422
  246MOL0     C33134   3.526   5.755   0.763  0.3021  0.8372  0.7727
  246MOL0     C33135   3.374   5.741   0.739  0.2269 -0.4323 -0.1511
  246MOL0     C33136   3.322   5.890   0.737 -0.6472  0.3668  0.6047
  246MOL0     C33137   3.182   5.904   0.680  1.0758 -0.7766 -0.5061
  246MOL0     C33138   3.135   6.046   0.705  0.5869  0.0537 -0.2384
  246MOL0     C33139   3.090   6.150   0.734  0.5659 -0.7774  0.3969
  246MOL0     C33140   3.793   5.879   0.540 -0.3983 -1.2146 -0.0101
  246MOL0     C33141   3.933   5.899   0.528 -0.0790  0.5285  0.1381
  246MOL0     C33142   3.988   5.965   0.397  0.4368 -0.1805  0.1620
  246MOL0     H33143   4.403   5.795   0.519 -0.4319  0.2268 -0.5777
  246MOL0     H33144   4.620   5.854   0.473 -1.2620 -0.5264  1.2958
  246MOL0     H33145   4.810   5.994   0.535  3.2098  1.4542  0.2772
  246MOL0     H33146   4.819   5.919   0.380 -4.5954 -1.6910  1.2215
  246MOL0     H33147   4.943   6.192   0.468  0.1934  1.7408 -1.9155
  246MOL0     H33148   4.951   6.136   0.306  1.5479  2.0041  1.0333
  246MOL0     H33149   5.067   6.028   0.574 -1.1586  0.5809 -0.5654
  246MOL0     H33150   5.152   6.098   0.444  0.1273 -1.2663 -1.9347
  246MOL0     H33151   5.019   5.817   0.458 -1.5977  2.1322  1.0485
  246MOL0     H33152   5.098   5.883   0.309  0.4128 -1.4333 -0.4095
  246MOL0     H33153   5.303   5.932   0.459  0.7121 -0.1098 -0.3146
  246MOL0     H33154   5.234   5.817   0.564  3.1304  0.3559  0.9816
  246MOL0     H33155   5.229   5.656   0.362  1.0627 -1.2549 -1.7052
  246MOL0     H33156   5.317   5.781   0.267 -0.3628 -1.1809 -0.2763
  246MOL0     H33157   5.442   5.578   0.423 -1.1169  0.9774  1.1101
  246MOL0     H33158   5.419   5.697   0.545  0.7578  2.4204  0.6323
  246MOL0     H33159   5.559   5.774   0.296 -1.1137  1.1447  0.5454
  246MOL0     H33160   5.550   5.880   0.432  2.9890  0.4559  1.5726
  246MOL0     H33161   5.669   5.506   0.396  1.2937 -2.1026  1.0687
  246MOL0     H33162   5.985   5.496   0.640 -0.8255 -1.1280 -0.4596
  246MOL0     H33163   5.829   5.391   0.650 -0.3835 -1.5879 -0.7536
  246MOL0     H33164   5.886   5.383   0.384 -1.7361 -2.3185  1.5540
  246MOL0     H33165   6.033   5.458   0.426  0.3000  0.8829  3.3174
  246MOL0     H33166   5.935   5.189   0.517 -0.6235 -0.9530 -3.4885
  246MOL0     H33167   6.098   5.254   0.561 -0.4186  0.9681  0.4662
  246MOL0     H33168   5.992   5.188   0.282 -0.5070 -0.2923  0.6282
  246MOL0     H33169   6.099   5.089   0.362  0.3806 -0.2551  0.7004
  246MOL0     H33170   6.328   5.477   0.362  1.9051  4.2066  4.7086
  246MOL0     H33171   6.555   5.479   0.468 -1.3881  1.7427  2.4180
  246MOL0     H33172   6.768   4.974   0.823 -0.6320  1.7055  2.1064
  246MOL0     H33173   7.001   4.899   0.884  2.0483  1.6259  0.5256
  246MOL0     H33174   7.198   5.081   1.068  0.2802  0.6943 -0.4206
  246MOL0     H33175   7.119   4.926   1.040  1.2250  0.5554  0.6577
  246MOL0     H33176   7.414   4.973   1.039 -0.8467  1.7821  0.2499
  246MOL0     H33177   7.321   4.918   1.172  1.1493  1.1754  0.0766
  246MOL0     H33178   7.264   4.703   1.056 -1.0016  0.4542 -0.3427
  246MOL0     H33179   7.349   4.767   0.910  1.3795  0.2948  0.2749
  246MOL0     H33180   7.451   4.673   1.183  0.5236 -1.4623 -1.2707
  246MOL0     H33181   7.548   4.797   1.095 -1.2631  0.5550 -2.0413
  246MOL0     H33182   7.556   4.626   0.914  2.6777 -2.6569  0.0893
  246MOL0     H33183   7.442   4.521   1.002  2.1864 -1.5523 -0.4713
  246MOL0     H33184   7.581   4.472   1.190 -0.4536 -0.0938  0.2836
  246MOL0     H33185   7.650   4.431   1.027  2.2583  2.0178 -2.4045
  246MOL0     H33186   7.735   4.657   1.217  0.8949  1.8905 -1.0826
  246MOL0     H33187   7.771   4.648   1.049 -3.5664  0.3960 -0.9935
  246MOL0     H33188   7.819   4.404   1.226 -1.5685  1.9612  2.1743
  246MOL0     H33189   7.888   4.427   1.069 -1.0808  0.7184 -0.1544
  246MOL0     H33190   7.179   5.248   0.745  1.9960 -1.8066  0.5466
  246MOL0     H33191   6.967   5.308   0.611 -1.2778  1.5058  1.6929
  246MOL0     H33192   6.497   5.059   0.558 -2.5225 -0.5766  1.7183
  246MOL0     H33193   6.306   5.054   0.438 -2.0230 -0.7900  1.1583
  246MOL0     H33194   4.514   6.277   0.456 -4.0737  0.1819  1.8545
  246MOL0     H33195   4.306   6.217   0.530  1.0942  0.4267 -1.9739
  246MOL0     H33196   4.024   5.727   0.810 -0.1519 -3.3563 -1.9097
  246MOL0     H33197   3.775   5.728   0.841 -2.3920 -0.0372 -0.9200
  246MOL0     H33198   3.555   5.808   0.854  0.8442  1.9675 -0.0379
  246MOL0     H33199   3.564   5.654   0.781 -1.7753  0.3458  3.0373
  246MOL0     H33200   3.322   5.693   0.822 -1.0078 -1.8690 -1.6912
  246MOL0     H33201   3.352   5.688   0.646  1.6610  0.4613 -1.0493
  246MOL0     H33202   3.390   5.947   0.672  0.1087 -3.2045 -2.0117
  246MOL0     H33203   3.337   5.926   0.839 -0.4681 -2.4367  1.6633
  246MOL0     H33204   3.174   5.890   0.571  0.7542  3.0954 -1.1346
  246MOL0     H33205   3.109   5.837   0.725 -1.7244  0.8999 -2.2448
  246MOL0     H33206   3.039   6.239   0.766 -1.2437 -1.4729 -0.3904
  246MOL0     H33207   3.724   5.910   0.463 -1.7663  2.1595  2.3359
  246MOL0     H33208   4.021   6.069   0.405 -2.4713  0.8330  0.6162
  246MOL0     H33209   4.072   5.912   0.353 -0.7264 -1.3505 -0.7457
  246MOL0     H33210   3.903   5.965   0.328 -0.4452  2.8409  1.0715
  247MOL0     O33211   1.955   0.133   3.476  0.0285  1.0177 -0.7944
  247MOL0     C33212   1.949   0.129   3.597 -0.1988  0.0339  0.2705
  247MOL0     O33213   2.061   0.112   3.680  0.4824  0.0773  0.7785
  247MOL0     C33214   2.190   0.098   3.623 -0.7894 -1.8076 -1.0679
  247MOL0     C33215   2.257   0.196   3.546  0.6823  0.3775  0.4048
  247MOL0     C33216   2.389   0.180   3.512 -0.6444  0.0965  0.6483
  247MOL0     C33217   2.457   0.067   3.558  0.5000  0.5921  0.3057
  247MOL0     O33218   2.585   0.048   3.516  0.0845 -0.3964  0.4210
  247MOL0     C33219   2.681   0.151   3.515 -0.3900 -1.0672  0.3701
  247MOL0     C33220   2.795   0.114   3.604 -0.7388 -0.3011 -0.2701
  247MOL0     C33221   2.901   0.223   3.597 -0.2079  0.0196 -0.3277
  247MOL0     C33222   3.029   0.163   3.654  0.2094 -0.2121  0.1656
  247MOL0     C33223   3.130   0.278   3.653 -0.0342  0.0570 -0.0357
  247MOL0     C33224   3.272   0.230   3.681  0.0423 -0.2582 -0.3807
  247MOL0     C33225   3.339   0.136   3.576 -0.2194  0.1291 -0.5393
  247MOL0     C33226   3.494   0.136   3.580 -0.2683 -0.0992 -0.1585
  247MOL0     N33227   3.539   0.052   3.690 -0.3843  0.0746  0.4602
  247MOL0     C33228   3.572  -0.081   3.683 -0.2835  0.4059 -0.3606
  247MOL0     C33229   3.635  -0.108   3.796  0.1123 -0.1783  0.1145
  247MOL0     C33230   3.674  -0.246   3.831 -0.1782  0.5439  0.2964
  247MOL0     C33231   3.772  -0.268   3.941 -0.1144  0.5081 -0.3511
  247MOL0     C33232   3.841  -0.400   3.939 -0.2866  0.0959 -0.6922
  247MOL0     C33233   3.934  -0.426   3.820 -0.5745  0.3626  0.4172
  247MOL0     O33234   4.058  -0.356   3.837 -0.1587 -0.1151  0.0544
  247MOL0     C33235   4.171  -0.396   3.776  0.8020 -0.0965  1.1420
  247MOL0     C33236   4.289  -0.318   3.807  0.5993 -1.0338 -0.0545
  247MOL0     C33237   4.418  -0.358   3.765 -0.3752  0.4893  0.4395
  247MOL0     C33238   4.432  -0.474   3.681 -0.2738 -0.1743  0.2734
  247MOL0     C33239   4.568  -0.491   3.622 -0.6788 -0.2468  0.8527
  247MOL0     O33240   4.577  -0.587   3.522 -1.1550 -0.0568 -0.3745
  247MOL0     C33241   4.686  -0.622   3.450  0.2637 -0.8767  0.4066
  247MOL0     C33242   4.677  -0.736   3.379 -0.0693  0.2333  0.9144
  247MOL0     C33243   4.788  -0.769   3.294 -0.4291  0.1175 -0.0447
  247MOL0     C33244   4.914  -0.716   3.305  0.2902  0.0610 -0.3930
  247MOL0     O33245   5.008  -0.753   3.219 -0.5273  0.0083  0.4302
  247MOL0     C33246   5.135  -0.692   3.236 -0.2259 -0.6654 -0.4975
  247MOL0     C33247   5.235  -0.754   3.151 -0.1967  1.2321  0.0380
  247MOL0     C33248   5.371  -0.691   3.168 -0.1873 -0.8809 -0.3858
  247MOL0     C33249   5.481  -0.798   3.190 -0.3045 -0.2822 -0.5150
  247MOL0     C33250   5.623  -0.740   3.229  0.5302 -0.5738  0.1183
  247MOL0     C33251   5.708  -0.849   3.291 -0.1716 -0.0365  0.1171
  247MOL0     C33252   5.745  -0.974   3.204  0.7017  0.5480 -0.4417
  247MOL0     C33253   5.741  -1.111   3.275  0.4352  0.1410  0.0576
  247MOL0    Cl33254   5.646  -1.110   3.427  0.1832  0.5157 -0.3932
  247MOL0     C33255   4.927  -0.610   3.398  0.7179  0.6320 -0.6804
  247MOL0     C33256   4.814  -0.569   3.464  0.3372 -0.5667  0.1542
  247MOL0     O33257   4.660  -0.421   3.663  0.5874 -0.3440 -0.5541
  247MOL0     C33258   4.316  -0.538   3.640  0.1423 -0.2752  0.0557
  247MOL0     C33259   4.189  -0.511   3.690  0.2184  0.1390  0.0116
  247MOL0     N33260   3.644   0.005   3.878  0.5909  0.0149 -0.0993
  247MOL0     N33261   3.592   0.102   3.811 -0.0469  0.4159 -0.0312
  247MOL0     C33262   2.398  -0.025   3.644 -0.0246 -0.1312 -0.4360
  247MOL0     C33263   2.266   0.001   3.680  0.4468  0.3440  0.1611
  247MOL0     C33264   1.822   0.143   3.676 -0.8604 -1.0782  0.7196
  247MOL0     C33265   1.825   0.138   3.816 -0.4504  0.5874  0.1700
  247MOL0     C33266   1.701   0.139   3.886  0.4408 -0.5872  0.5233
  247MOL0     C33267   1.580   0.178   3.823  0.1842  0.9270  0.4212
  247MOL0     O33268   1.469   0.184   3.902 -0.3218 -0.3603 -0.2996
  247MOL0     C33269   1.422   0.316   3.930  1.1704 -0.4302  0.1530
  247MOL0     C33270   1.313   0.316   4.036 -0.2190 -1.7035  0.9116
  247MOL0     C33271   1.195   0.232   3.991 -0.3087  0.1176  0.5590
  247MOL0     C33272   1.064   0.308   3.995 -1.1858  0.1882 -0.0656
  247MOL0     C33273   0.948   0.223   3.986 -0.4497  0.0137 -0.8821
  247MOL0     C33274   0.852   0.151   3.994 -0.6944 -0.4347 -0.1141
  247MOL0     C33275   1.579   0.191   3.680 -0.4496  0.3059  0.3977
  247MOL0     C33276   1.699   0.167   3.601  0.5780 -0.1968 -0.3116
  247MOL0     C33277   1.681   0.142   3.450 -0.0463  0.3633 -0.0761
  247MOL0     H33278   2.196   0.274   3.500  1.5721  0.5440 -0.5378
  247MOL0     H33279   2.442   0.252   3.450 -0.5887 -0.4391  0.0696
  247MOL0     H33280   2.722   0.164   3.415 -0.3038 -0.1453  0.5223
  247MOL0     H33281   2.650   0.251   3.545  0.8081  0.6555 -3.5768
  247MOL0     H33282   2.841   0.016   3.587  1.3563  0.7081 -0.7740
  247MOL0     H33283   2.751   0.113   3.704 -1.5128 -1.4045 -0.6081
  247MOL0     H33284   2.864   0.306   3.658 -0.1294  0.6114 -1.0687
  247MOL0     H33285   2.916   0.248   3.492 -0.6129  2.3890  0.1179
  247MOL0     H33286   3.003   0.119   3.751 -2.9449 -1.8051 -1.2356
  247MOL0     H33287   3.059   0.080   3.590 -1.5904 -0.7905  0.0041
  247MOL0     H33288   3.130   0.334   3.559 -0.6558 -2.6022 -1.7235
  247MOL0     H33289   3.117   0.347   3.737 -0.0658 -1.8733  1.6211
  247MOL0     H33290   3.327   0.325   3.684 -0.8827  0.2784  0.1454
  247MOL0     H33291   3.277   0.174   3.775  2.4508  1.2542  0.4957
  247MOL0     H33292   3.317   0.176   3.476  0.0432  1.7313  0.0249
  247MOL0     H33293   3.305   0.032   3.578 -1.7532  0.6033 -1.0962
  247MOL0     H33294   3.544   0.099   3.490  1.1176 -0.7841  0.8654
  247MOL0     H33295   3.533   0.237   3.595 -1.5049  0.4272 -0.3353
  247MOL0     H33296   3.547  -0.147   3.601  0.1286 -0.2665  0.0485
  247MOL0     H33297   3.588  -0.309   3.855  0.9827 -0.9362  0.7633
  247MOL0     H33298   3.720  -0.285   3.740  0.2402  0.6931  0.4388
  247MOL0     H33299   3.842  -0.185   3.930  0.6544 -0.1177 -0.2681
  247MOL0     H33300   3.731  -0.266   4.043  1.6793  1.5878  0.4032
  247MOL0     H33301   3.767  -0.477   3.964 -0.7049  0.1644 -1.6392
  247MOL0     H33302   3.908  -0.409   4.025 -0.8263  1.8141 -0.0297
  247MOL0     H33303   3.881  -0.407   3.726 -2.0198 -0.3050  1.0697
  247MOL0     H33304   3.961  -0.532   3.821  0.6688  0.6484 -0.3942
  247MOL0     H33305   4.268  -0.240   3.880 -4.0682 -1.3738 -0.7189
  247MOL0     H33306   4.500  -0.295   3.798 -0.9514  0.1938  2.6117
  247MOL0     H33307   4.589  -0.796   3.360  1.2116 -1.3238 -0.3964
  247MOL0     H33308   4.771  -0.858   3.234 -0.1358  0.9543 -1.4182
  247MOL0     H33309   5.147  -0.585   3.214  0.5675 -0.8524 -1.0243
  247MOL0     H33310   5.167  -0.711   3.339 -0.9580 -0.6362 -0.2585
  247MOL0     H33311   5.230  -0.859   3.182  1.6376  1.3078  0.6610
  247MOL0     H33312   5.212  -0.740   3.045  2.7134 -0.2276 -0.8834
  247MOL0     H33313   5.395  -0.649   3.070 -2.2847  0.9914 -0.1724
  247MOL0     H33314   5.384  -0.602   3.229  1.9330  0.7253 -2.9549
  247MOL0     H33315   5.488  -0.868   3.106  0.9004  0.1433 -0.7948
  247MOL0     H33316   5.450  -0.850   3.281  1.1274  3.2287  2.2347
  247MOL0     H33317   5.606  -0.664   3.306 -1.3500  1.8413 -2.4817
  247MOL0     H33318   5.683  -0.689   3.152  0.0381  1.0701  0.7757
  247MOL0     H33319   5.797  -0.795   3.323 -0.0196 -0.6013  0.6508
  247MOL0     H33320   5.658  -0.872   3.385 -1.0430 -0.7441 -0.5043
  247MOL0     H33321   5.844  -0.956   3.162 -0.4913 -0.0101 -3.7450
  247MOL0     H33322   5.673  -0.979   3.122  0.8524  0.3441 -0.5634
  247MOL0     H33323   5.697  -1.191   3.214 -0.1431  0.2470  0.3358
  247MOL0     H33324   5.845  -1.139   3.295  0.6225  0.8899  0.1552
  247MOL0     H33325   5.027  -0.572   3.418 -0.0220  1.6023  1.4038
  247MOL0     H33326   4.848  -0.498   3.539 -0.5250  1.5903 -1.4172
  247MOL0     H33327   4.329  -0.606   3.556 -0.3704  0.5935 -0.7438
  247MOL0     H33328   4.106  -0.578   3.670  1.1228 -0.2782 -2.9329
  247MOL0     H33329   2.449  -0.107   3.692 -0.6866  1.3309  3.0573
  247MOL0     H33330   2.212  -0.075   3.735 -0.2687  1.7202  1.4440
  247MOL0     H33331   1.918   0.116   3.868 -0.8515  1.7239  1.4168
  247MOL0     H33332   1.688   0.125   3.993  1.5487 -3.5093  0.3579
  247MOL0     H33333   1.377   0.346   3.835  0.3478  0.2590  0.7414
  247MOL0     H33334   1.485   0.402   3.955  0.7153 -0.5769  1.9169
  247MOL0     H33335   1.278   0.414   4.069 -0.7929 -0.5667 -2.6098
  247MOL0     H33336   1.367   0.275   4.122  0.3861 -1.1272  0.8091
  247MOL0     H33337   1.197   0.147   4.059 -1.2567  0.9725  1.6983
  247MOL0     H33338   1.223   0.186   3.896  0.5608  0.1734  0.7786
  247MOL0     H33339   1.051   0.353   4.094 -0.4421  1.7338 -0.6478
  247MOL0     H33340   1.073   0.380   3.913  2.9006 -0.0855 -0.0804
  247MOL0     H33341   0.776   0.075   3.983  0.7036 -2.0711  0.9789
  247MOL0     H33342   1.488   0.211   3.625 -0.9430 -1.9999  0.2875
  247MOL0     H33343   1.749   0.187   3.376  0.1330  1.1710  0.5692
  247MOL0     H33344   1.702   0.036   3.432  3.4147  1.0488 -0.7219
  247MOL0     H33345   1.579   0.166   3.417 -0.9899 -0.3984  2.1106
  248MOL0     O33346   9.098   7.693  10.436 -0.6384  0.1916  0.5632
  248MOL0     C33347   9.095   7.799  10.375  0.2150 -0.2328  0.4394
  248MOL0     O33348   9.202   7.885  10.351  0.1017 -0.5205 -0.5648
  248MOL0     C33349   9.336   7.849  10.365  0.5898  0.2218  0.5535
  248MOL0     C33350   9.387   7.719  10.334 -0.3173  0.2964  0.1325
  248MOL0     C33351   9.520   7.686  10.349  0.9576 -0.0549 -0.6317
  248MOL0     C33352   9.604   7.792  10.392  0.1240 -0.3302  0.1276
  248MOL0     O33353   9.745   7.782  10.401 -0.0906 -0.2461  0.4650
  248MOL0     C33354   9.813   7.694  10.306  0.0151 -0.4982  0.2227
  248MOL0     C33355   9.956   7.735  10.317 -0.4282  1.2625  0.1824
  248MOL0     C33356  10.015   7.699  10.463 -0.4423 -0.0420  0.8759
  248MOL0     C33357  10.161   7.734  10.450  0.4328  0.6600  0.2192
  248MOL0     C33358  10.188   7.881  10.426  0.7591 -0.1131  0.2427
  248MOL0     C33359  10.340   7.901  10.425 -0.3540  0.9995 -0.0481
  248MOL0     C33360  10.416   7.892  10.557 -0.3566 -0.4922 -0.7817
  248MOL0     C33361  10.532   7.994  10.567  0.5446  0.7388  0.4414
  248MOL0     N33362  10.640   7.951  10.475 -0.5800 -0.1616  0.0915
  248MOL0     C33363  10.740   7.859  10.497 -0.3540  0.0863  0.0690
  248MOL0     C33364  10.833   7.888  10.402 -0.1441  0.4465 -0.6422
  248MOL0     C33365  10.963   7.820  10.383 -0.3489  0.2976  0.0521
  248MOL0     C33366  11.086   7.904  10.354 -0.7644  0.3928 -0.3234
  248MOL0     C33367  11.218   7.828  10.340  0.0843  1.2932 -0.7741
  248MOL0     C33368  11.340   7.912  10.311 -0.3407 -0.1664 -0.6455
  248MOL0     O33369  11.370   7.995  10.423 -0.3209  0.0457 -0.4094
  248MOL0     C33370  11.487   8.058  10.426 -0.0969  0.7253 -0.0530
  248MOL0     C33371  11.505   8.167  10.508 -0.1843  0.1387 -0.3453
  248MOL0     C33372  11.629   8.232  10.522  0.6928  0.6557 -0.5010
  248MOL0     C33373  11.740   8.184  10.455 -0.0269 -0.3878  0.1041
  248MOL0     C33374  11.876   8.255  10.476  0.7704 -0.3543 -0.5706
  248MOL0     O33375  11.983   8.186  10.431  0.7427  0.0706 -0.5782
  248MOL0     C33376  12.106   8.246  10.460 -0.1943  0.5245  0.2678
  248MOL0     C33377  12.153   8.382  10.436 -0.4204  0.7909 -0.1388
  248MOL0     C33378  12.287   8.422  10.462 -0.1062  0.5536  0.7144
  248MOL0     C33379  12.384   8.329  10.486 -0.4383  0.1965  0.7581
  248MOL0     O33380  12.507   8.388  10.504  0.0111 -0.0291  0.5004
  248MOL0     C33381  12.620   8.320  10.565  1.0237  0.8975 -1.0204
  248MOL0     C33382  12.750   8.370  10.510  0.1955 -0.0931 -0.0639
  248MOL0     C33383  12.773   8.522  10.531 -0.5461  0.3178  0.1130
  248MOL0     C33384  12.920   8.562  10.494 -0.3919 -0.0211  0.1568
  248MOL0     C33385  12.939   8.714  10.509 -0.9304  1.5270 -0.0693
  248MOL0     C33386  13.080   8.738  10.488 -1.1942 -0.5538  0.4547
  248MOL0     C33387  13.130   8.881  10.497 -0.2733 -0.9282  0.5050
  248MOL0     C33388  13.076   8.971  10.621  0.3853 -0.5051 -0.2620
  248MOL0    Cl33389  12.918   9.042  10.582  0.4303 -0.0749  0.2221
  248MOL0     C33390  12.348   8.197  10.502 -0.5208  0.1083 -0.0614
  248MOL0     C33391  12.211   8.161  10.493  0.4133  0.5342  0.4393
  248MOL0     O33392  11.874   8.367  10.527 -0.7032 -0.5917  0.0758
  248MOL0     C33393  11.721   8.082  10.370  0.1057 -0.4774  0.7482
  248MOL0     C33394  11.604   8.018  10.353 -0.3117  0.6204  0.7476
  248MOL0     N33395  10.785   7.983  10.317  0.7054  0.0818  0.0251
  248MOL0     N33396  10.668   8.020  10.354 -0.3602  0.3252 -0.1527
  248MOL0     C33397   9.554   7.914  10.430  0.5433 -0.0849 -0.0598
  248MOL0     C33398   9.421   7.941  10.426  0.3571  0.1361 -0.3613
  248MOL0     C33399   8.966   7.835  10.312  0.1055 -0.2043  0.0291
  248MOL0     C33400   8.971   7.906  10.185 -0.8435  0.1569  0.4183
  248MOL0     C33401   8.860   7.910  10.101  0.5411 -0.0252 -0.5659
  248MOL0     C33402   8.739   7.851  10.141  0.8039  0.5324  0.6288
  248MOL0     O33403   8.631   7.855  10.066  0.2203 -0.7650  0.2717
  248MOL0     C33404   8.582   7.981  10.032  0.3947 -0.1798  0.3708
  248MOL0     C33405   8.430   7.974  10.006  0.8727  0.6703  1.2770
  248MOL0     C33406   8.350   7.896  10.114  0.4088 -0.0037  0.1139
  248MOL0     C33407   8.213   7.854  10.061  0.0098  1.0006 -0.4911
  248MOL0     C33408   8.160   7.768  10.167  0.1173  0.5250 -0.2681
  248MOL0     C33409   8.116   7.712  10.265 -0.2853  1.1652 -0.5221
  248MOL0     C33410   8.730   7.796  10.268 -0.4693 -0.8171 -0.1175
  248MOL0     C33411   8.840   7.781  10.349 -0.1776  0.0882  0.4052
  248MOL0     C33412   8.816   7.702  10.480  0.3919  0.2475 -0.7338
  248MOL0     H33413   9.332   7.641  10.283  1.8379  0.3317 -2.4787
  248MOL0     H33414   9.558   7.588  10.321 -1.1706 -1.2310  0.3795
  248MOL0     H33415   9.791   7.589  10.328  0.3438 -0.6690 -0.2499
  248MOL0     H33416   9.777   7.719  10.206  0.7518  1.9727  0.4884
  248MOL0     H33417   9.964   7.842  10.294  0.7559  2.1695  4.0517
  248MOL0     H33418  10.012   7.692  10.233 -2.2841  0.2507 -0.6105
  248MOL0     H33419  10.009   7.593  10.490  0.8125 -0.2615  0.3774
  248MOL0     H33420   9.974   7.761  10.543 -1.0021 -0.9088  1.2791
  248MOL0     H33421  10.206   7.697  10.542 -0.1297 -1.8379 -0.4382
  248MOL0     H33422  10.199   7.669  10.371  0.5224  1.4526 -0.3949
  248MOL0     H33423  10.153   7.908  10.326  1.1642 -1.0432 -0.1614
  248MOL0     H33424  10.134   7.953  10.489 -0.6388 -1.0870  0.2180
  248MOL0     H33425  10.374   7.815  10.367 -1.9449 -0.3590  0.9213
  248MOL0     H33426  10.366   7.995  10.376 -2.8494  2.5527  1.3520
  248MOL0     H33427  10.454   7.793  10.581 -1.2619 -1.3074 -2.5192
  248MOL0     H33428  10.338   7.927  10.625 -0.8034 -0.3031 -1.3813
  248MOL0     H33429  10.495   8.093  10.542 -3.0731 -0.4970  0.2793
  248MOL0     H33430  10.578   7.993  10.667  2.0851  0.4791 -0.2388
  248MOL0     H33431  10.752   7.794  10.583 -0.0483 -2.3511 -1.7225
  248MOL0     H33432  10.974   7.766  10.478  1.6892 -1.7092 -1.2225
  248MOL0     H33433  10.954   7.745  10.305  0.9144 -0.1813  0.3470
  248MOL0     H33434  11.076   7.949  10.255  1.1002 -1.4077 -1.4050
  248MOL0     H33435  11.095   7.989  10.422  0.9304  0.5380 -0.6879
  248MOL0     H33436  11.214   7.754  10.259 -0.3818  1.0472 -0.5293
  248MOL0     H33437  11.249   7.776  10.431  0.2649  0.9673 -1.0207
  248MOL0     H33438  11.312   7.977  10.227  1.8378 -1.1419 -2.2206
  248MOL0     H33439  11.426   7.856  10.274  1.3712  1.4309  0.6842
  248MOL0     H33440  11.416   8.200  10.562 -1.2030  0.5219 -2.1595
  248MOL0     H33441  11.636   8.328  10.570 -1.5863  0.3213  0.5995
  248MOL0     H33442  12.080   8.457  10.405  1.0609  2.5639  0.4988
  248MOL0     H33443  12.323   8.523  10.470  2.8913 -0.3286 -0.4281
  248MOL0     H33444  12.612   8.343  10.672  0.9917  1.6217 -1.1757
  248MOL0     H33445  12.614   8.213  10.544 -3.5491  0.8512 -0.4135
  248MOL0     H33446  12.821   8.315  10.571  0.0447  0.6393  0.7935
  248MOL0     H33447  12.767   8.337  10.407 -0.2563  0.9619 -0.4929
  248MOL0     H33448  12.711   8.582  10.463  2.5577  1.8586 -1.5584
  248MOL0     H33449  12.753   8.552  10.634 -1.9928  2.3006 -0.6874
  248MOL0     H33450  12.941   8.541  10.388 -4.4116  1.2065 -1.0581
  248MOL0     H33451  12.990   8.506  10.557 -0.5830  2.2561  2.5784
  248MOL0     H33452  12.906   8.743  10.609 -2.2018 -1.1797  0.3880
  248MOL0     H33453  12.867   8.774  10.453 -0.6803  0.1283 -1.9939
  248MOL0     H33454  13.138   8.683  10.562  0.8181 -1.2006 -1.5049
  248MOL0     H33455  13.102   8.700  10.388 -2.8139  2.7192 -1.2948
  248MOL0     H33456  13.105   8.933  10.404  2.6705 -0.1811  0.0394
  248MOL0     H33457  13.239   8.872  10.490 -0.3126 -1.2982  0.3407
  248MOL0     H33458  13.086   8.921  10.717  0.3016  1.1986  0.6674
  248MOL0     H33459  13.151   9.051  10.633 -0.3549  0.3058 -0.8659
  248MOL0     H33460  12.422   8.118  10.515  0.2302  0.5649 -1.3803
  248MOL0     H33461  12.181   8.058  10.512 -0.4795  0.7442  0.1888
  248MOL0     H33462  11.807   8.042  10.317  0.2088 -1.4020  1.5824
  248MOL0     H33463  11.612   7.925  10.298  1.9486 -0.3760  2.6221
  248MOL0     H33464   9.601   7.988  10.493 -0.1685  0.2902  0.0429
  248MOL0     H33465   9.367   8.029  10.459 -0.1100 -0.8670  1.7320
  248MOL0     H33466   9.066   7.943  10.150 -1.4777  0.1517 -1.4236
  248MOL0     H33467   8.861   7.964  10.006  0.6295  0.1316 -0.4768
  248MOL0     H33468   8.644   8.016   9.949 -0.7658 -0.8426 -0.8126
  248MOL0     H33469   8.582   8.046  10.120 -3.0485 -0.9915  1.1278
  248MOL0     H33470   8.426   7.922   9.910 -1.3531  0.9529  1.1576
  248MOL0     H33471   8.380   8.070   9.992 -3.2027 -1.4524 -0.3007
  248MOL0     H33472   8.334   7.964  10.198  1.3874 -0.5349  0.7437
  248MOL0     H33473   8.409   7.811  10.148  1.8787  1.0729  0.3597
  248MOL0     H33474   8.152   7.939  10.029  0.4909  0.9077 -1.7336
  248MOL0     H33475   8.235   7.787   9.977  2.5477 -1.5260  1.9453
  248MOL0     H33476   8.076   7.671  10.356  0.6697 -0.3935 -0.7705
  248MOL0     H33477   8.634   7.749  10.284 -0.1949 -1.9680 -1.6322
  248MOL0     H33478   8.870   7.609  10.499  3.2550  2.1197  1.1962
  248MOL0     H33479   8.852   7.767  10.561  0.3088 -1.4695  0.7454
  248MOL0     H33480   8.711   7.687  10.508  0.5643  0.1945 -0.0818
  249MOL0     O33481   3.875  11.107   2.392  0.0402  0.3066  0.3241
  249MOL0     C33482   3.812  11.018   2.338  0.3400 -0.5848  0.9051
  249MOL0     O33483   3.860  10.909   2.278 -0.4762 -0.7216  0.0742
  249MOL0     C33484   3.996  10.895   2.247 -0.6043 -0.5694  0.2221
  249MOL0     C33485   4.027  10.811   2.143  0.1397  0.9176  0.9757
  249MOL0     C33486   4.156  10.798   2.096 -0.7711  0.4776  0.2031
  249MOL0     C33487   4.267  10.839   2.173  0.7081  0.1947  0.4387
  249MOL0     O33488   4.387  10.800   2.117  0.1704  0.1965 -0.1389
  249MOL0     C33489   4.505  10.856   2.172 -0.5198  0.1901 -0.3832
  249MOL0     C33490   4.630  10.796   2.125  0.0642  0.4654  0.5320
  249MOL0     C33491   4.759  10.867   2.173  0.0172 -0.8236 -0.3379
  249MOL0     C33492   4.867  10.769   2.137 -1.1800  0.0824  0.2624
  249MOL0     C33493   5.010  10.842   2.131  0.1302 -0.0741  0.1269
  249MOL0     C33494   5.126  10.740   2.122 -0.2889 -0.3029 -0.0658
  249MOL0     C33495   5.262  10.811   2.113 -0.1251  0.5263  0.3248
  249MOL0     C33496   5.378  10.706   2.101  0.4540  0.3692  0.0294
  249MOL0     N33497   5.513  10.766   2.080  0.6766  0.5526 -0.1150
  249MOL0     C33498   5.613  10.700   2.015  0.0423 -0.1245 -0.5839
  249MOL0     C33499   5.726  10.767   2.033  0.3405  0.2107 -0.7175
  249MOL0     C33500   5.863  10.733   1.981 -0.0928 -0.0196  0.0021
  249MOL0     C33501   5.873  10.711   1.819 -0.1498 -0.5859 -0.8104
  249MOL0     C33502   5.783  10.804   1.742 -0.2575 -0.2586 -0.5335
  249MOL0     C33503   5.824  10.948   1.750 -0.5617 -0.5794 -0.3979
  249MOL0     O33504   5.735  11.019   1.663 -0.1941  0.3753 -0.1907
  249MOL0     C33505   5.606  11.054   1.690 -0.3768  0.1555  0.0827
  249MOL0     C33506   5.536  11.132   1.589 -0.4411 -1.3977  0.5302
  249MOL0     C33507   5.404  11.172   1.612 -0.5598  0.1265 -0.3655
  249MOL0     C33508   5.337  11.144   1.737 -0.3697 -0.1788  0.1738
  249MOL0     C33509   5.200  11.190   1.776 -0.0759  0.3131  0.8098
  249MOL0     O33510   5.148  11.138   1.887  0.8760 -0.2447 -0.0699
  249MOL0     C33511   5.011  11.171   1.914 -0.5798 -0.0546  0.0986
  249MOL0     C33512   4.984  11.231   2.034 -0.0555 -1.0447 -0.6070
  249MOL0     C33513   4.858  11.243   2.093 -0.8780 -0.0842 -0.7149
  249MOL0     C33514   4.749  11.201   2.017 -0.0032  0.0214 -0.5871
  249MOL0     O33515   4.617  11.225   2.046  0.5749 -0.3949  0.2708
  249MOL0     C33516   4.580  11.260   2.186  0.2125  0.2520  0.4913
  249MOL0     C33517   4.435  11.325   2.176  0.7982 -0.1685 -0.5922
  249MOL0     C33518   4.436  11.460   2.102 -0.1478 -0.6439 -0.8837
  249MOL0     C33519   4.295  11.526   2.107  0.1072  0.1598  0.6497
  249MOL0     C33520   4.292  11.665   2.043  0.6033  0.0911  0.7917
  249MOL0     C33521   4.161  11.750   2.077 -0.2759  0.4695  1.0973
  249MOL0     C33522   4.158  11.796   2.220 -0.0402 -0.5901  1.1163
  249MOL0     C33523   4.034  11.889   2.241 -0.0812  0.6105  0.3623
  249MOL0    Cl33524   3.870  11.802   2.211  0.0285 -0.1406 -0.0078
  249MOL0     C33525   4.767  11.145   1.886  0.0858 -0.1336 -0.5978
  249MOL0     C33526   4.898  11.130   1.839 -0.5007  0.5001  0.3061
  249MOL0     O33527   5.142  11.264   1.699 -0.2222 -0.1972  0.2875
  249MOL0     C33528   5.418  11.080   1.832  0.6567 -0.3622  0.7985
  249MOL0     C33529   5.545  11.038   1.811 -0.5352  0.0664 -0.4533
  249MOL0     N33530   5.690  10.866   2.127 -0.2157 -0.2448 -0.2514
  249MOL0     N33531   5.566  10.862   2.161 -0.2466 -0.4293  0.8333
  249MOL0     C33532   4.238  10.918   2.289 -0.6145 -0.2162 -0.4535
  249MOL0     C33533   4.106  10.939   2.325 -0.3262 -0.3295 -0.5531
  249MOL0     C33534   3.663  11.026   2.320 -0.3945 -0.2346 -0.4813
  249MOL0     C33535   3.602  10.910   2.294 -0.2315 -0.3139  0.6679
  249MOL0     C33536   3.468  10.904   2.291 -0.5983 -0.0341 -0.4031
  249MOL0     C33537   3.393  11.012   2.317  1.1624 -0.0484 -1.1036
  249MOL0     O33538   3.255  10.984   2.294  0.5635  0.4239  0.3119
  249MOL0     C33539   3.157  11.061   2.369  0.1195 -0.2332  0.1157
  249MOL0     C33540   3.188  11.039   2.523 -0.1178  1.2878 -0.6684
  249MOL0     C33541   3.176  10.895   2.576 -0.3096 -0.7648  0.4547
  249MOL0     C33542   3.036  10.832   2.589 -0.3630  0.5443 -0.3502
  249MOL0     C33543   3.037  10.683   2.587 -0.6320  1.0601  0.6159
  249MOL0     C33544   3.031  10.561   2.584 -0.4797 -0.6474 -0.3683
  249MOL0     C33545   3.449  11.132   2.342  0.1769  0.4897 -0.2790
  249MOL0     C33546   3.585  11.139   2.350  0.6673 -0.0951 -0.5703
  249MOL0     C33547   3.643  11.267   2.400 -1.2567  0.6530 -0.2258
  249MOL0     H33548   3.940  10.785   2.085 -2.1222  1.0891  4.0543
  249MOL0     H33549   4.168  10.746   2.001 -5.3763 -0.7035  0.0407
  249MOL0     H33550   4.513  10.964   2.156 -0.6870  0.7871  2.8336
  249MOL0     H33551   4.513  10.837   2.279 -2.6787  3.0716  0.4342
  249MOL0     H33552   4.629  10.814   2.018 -0.7441  0.9951  0.6164
  249MOL0     H33553   4.629  10.690   2.151  5.9571  0.2792  1.3043
  249MOL0     H33554   4.763  10.880   2.282  0.1902  1.1714 -0.5527
  249MOL0     H33555   4.771  10.963   2.123 -1.2218 -0.8954 -0.8070
  249MOL0     H33556   4.865  10.684   2.206 -0.4017  0.4545  0.7541
  249MOL0     H33557   4.854  10.720   2.040 -0.0465 -1.2030  0.7268
  249MOL0     H33558   5.002  10.907   2.044 -0.4201 -1.8232 -1.1941
  249MOL0     H33559   5.024  10.908   2.217 -1.6359  2.6348 -1.5168
  249MOL0     H33560   5.120  10.683   2.215 -0.8607  0.2053  0.2120
  249MOL0     H33561   5.112  10.678   2.033  0.1644 -0.0709 -0.3012
  249MOL0     H33562   5.269  10.880   2.198 -1.7638  1.2779 -0.1141
  249MOL0     H33563   5.263  10.874   2.024  1.9075  0.3346  0.1618
  249MOL0     H33564   5.381  10.631   2.181  0.5045  0.0920 -0.2291
  249MOL0     H33565   5.352  10.651   2.010  0.1311 -0.9658  0.8923
  249MOL0     H33566   5.594  10.602   1.972 -2.3051 -1.7353  3.5463
  249MOL0     H33567   5.929  10.809   2.022  1.4462 -1.2875 -0.0232
  249MOL0     H33568   5.889  10.637   2.027 -1.0180  0.0125  0.6091
  249MOL0     H33569   5.977  10.727   1.790  1.0850  0.0953  3.3353
  249MOL0     H33570   5.855  10.604   1.804 -1.6450 -0.4730 -0.0649
  249MOL0     H33571   5.679  10.800   1.776  0.5766  0.0501  2.2484
  249MOL0     H33572   5.786  10.771   1.638 -0.4129  2.4483 -1.4941
  249MOL0     H33573   5.929  10.960   1.720 -0.6406 -0.5832 -0.6751
  249MOL0     H33574   5.812  10.978   1.855  1.6207 -2.8110  0.5837
  249MOL0     H33575   5.582  11.156   1.494  0.0193 -2.9941  0.3109
  249MOL0     H33576   5.350  11.229   1.536 -0.2522  0.0111 -0.6726
  249MOL0     H33577   5.072  11.265   2.088 -0.9125 -2.3700  1.7418
  249MOL0     H33578   4.835  11.297   2.184  1.6635  0.3686 -0.2718
  249MOL0     H33579   4.575  11.172   2.252  0.8463  0.2770  0.5881
  249MOL0     H33580   4.650  11.328   2.236  0.0984 -0.6159  1.8879
  249MOL0     H33581   4.361  11.255   2.135  0.1780  0.6397 -0.8781
  249MOL0     H33582   4.400  11.340   2.278  1.7691  0.8128 -0.3819
  249MOL0     H33583   4.513  11.526   2.144 -0.2776 -0.2307 -1.2940
  249MOL0     H33584   4.450  11.428   1.998  0.1289 -3.5106 -0.0501
  249MOL0     H33585   4.264  11.533   2.212  1.6382 -1.6049  1.2889
  249MOL0     H33586   4.231  11.461   2.045  0.5430  2.4360 -2.4051
  249MOL0     H33587   4.318  11.655   1.937  3.3799  0.9756  1.3029
  249MOL0     H33588   4.376  11.726   2.077  0.6964 -0.0643  0.8454
  249MOL0     H33589   4.159  11.841   2.016 -0.7929  0.3041  0.8589
  249MOL0     H33590   4.068  11.694   2.066  0.2383 -0.0497 -1.2340
  249MOL0     H33591   4.245  11.856   2.249  0.7532  0.0105 -2.0923
  249MOL0     H33592   4.155  11.717   2.295 -1.8765 -1.0405  0.6048
  249MOL0     H33593   4.038  11.942   2.337  2.3438 -1.3192  1.4168
  249MOL0     H33594   4.040  11.959   2.157 -1.1271  1.4633  0.9687
  249MOL0     H33595   4.676  11.115   1.835 -2.0917  3.2838  0.9419
  249MOL0     H33596   4.923  11.086   1.743  1.1952  0.0652  0.9234
  249MOL0     H33597   5.379  11.071   1.933  1.2529 -2.0318  0.9013
  249MOL0     H33598   5.596  10.985   1.891  1.2689 -1.1590 -2.3120
  249MOL0     H33599   4.321  10.954   2.349 -2.2645 -1.5285  2.8817
  249MOL0     H33600   4.079  11.004   2.408 -1.8610 -0.4747 -0.9122
  249MOL0     H33601   3.657  10.817   2.278 -0.3216 -0.1435 -0.7981
  249MOL0     H33602   3.413  10.811   2.290 -0.8240  0.0749  0.8038
  249MOL0     H33603   3.055  11.034   2.341  0.1407  0.5290 -0.7380
  249MOL0     H33604   3.168  11.169   2.354 -1.7225  0.4586  2.9623
  249MOL0     H33605   3.116  11.098   2.580 -2.2432  0.1177 -2.0239
  249MOL0     H33606   3.289  11.077   2.545  0.2420 -0.8875  1.8668
  249MOL0     H33607   3.236  10.907   2.666  2.5688  0.9445 -1.5183
  249MOL0     H33608   3.233  10.839   2.501  1.8117 -0.3037  1.6375
  249MOL0     H33609   2.986  10.862   2.682  0.5187 -0.8455  0.6099
  249MOL0     H33610   2.974  10.866   2.505  0.3068 -2.6234 -2.2921
  249MOL0     H33611   3.025  10.454   2.595  0.1589 -0.4625  2.7491
  249MOL0     H33612   3.410  11.231   2.366  3.7881  1.7465  1.0669
  249MOL0     H33613   3.650  11.257   2.508  0.4739 -0.8925 -0.4250
  249MOL0     H33614   3.745  11.282   2.363 -1.0275  0.0147  0.1349
  249MOL0     H33615   3.591  11.361   2.379  1.2237  2.2881  0.6310
  250MOL0     O33616   1.318  11.054   1.271  0.5763 -0.0456 -0.2204
  250MOL0     C33617   1.344  11.164   1.241  0.5145 -0.9191 -0.4148
  250MOL0     O33618   1.470  11.219   1.230  0.4543  0.0074 -0.0153
  250MOL0     C33619   1.582  11.140   1.220  0.4290 -0.5178  0.1938
  250MOL0     C33620   1.697  11.162   1.295 -0.7053  0.4998 -0.2123
  250MOL0     C33621   1.806  11.083   1.274 -0.2166 -0.1178 -0.1815
  250MOL0     C33622   1.810  10.980   1.174  0.4216  0.6853 -0.4006
  250MOL0     O33623   1.918  10.899   1.183  0.3069  0.3931  0.3717
  250MOL0     C33624   1.926  10.783   1.095 -0.2532 -0.3215 -0.1068
  250MOL0     C33625   2.067  10.733   1.111  0.2167  0.0669  1.4498
  250MOL0     C33626   2.171  10.839   1.080 -0.3942  1.3393 -0.0246
  250MOL0     C33627   2.306  10.781   1.021  0.0761 -0.1261  0.3715
  250MOL0     C33628   2.421  10.883   1.032  0.0147 -0.4988  0.1179
  250MOL0     C33629   2.552  10.841   0.972 -0.4222  0.7518 -1.1943
  250MOL0     C33630   2.687  10.908   1.013  0.7237 -0.3711 -0.9624
  250MOL0     C33631   2.805  10.803   0.990  0.4269  0.3265 -0.5325
  250MOL0     N33632   2.943  10.847   1.026  0.3013 -0.5819  0.7727
  250MOL0     C33633   3.039  10.768   1.071  0.5882  0.3827 -0.9525
  250MOL0     C33634   3.158  10.839   1.075  0.2473 -0.2892 -0.7506
  250MOL0     C33635   3.288  10.791   1.113  0.2976 -0.4195  0.0106
  250MOL0     C33636   3.296  10.709   1.241  0.1739 -0.2644  0.5172
  250MOL0     C33637   3.282  10.788   1.369  0.2780 -0.0610  0.5824
  250MOL0     C33638   3.244  10.692   1.474 -0.8236  0.7560  0.4850
  250MOL0     O33639   3.349  10.588   1.477 -0.0943 -0.0766 -0.6652
  250MOL0     C33640   3.469  10.611   1.538 -0.9380  0.2127  0.3174
  250MOL0     C33641   3.559  10.504   1.534 -0.4200 -0.9855 -0.6470
  250MOL0     C33642   3.685  10.504   1.597  0.2387 -0.2659  0.0784
  250MOL0     C33643   3.719  10.616   1.680 -0.1883  0.2972 -0.4878
  250MOL0     C33644   3.860  10.629   1.728 -0.0532  0.0107  0.0705
  250MOL0     O33645   3.943  10.530   1.701 -1.3807  0.1034  0.9235
  250MOL0     C33646   4.075  10.540   1.726  0.1683 -0.3179  0.7892
  250MOL0     C33647   4.141  10.445   1.797  0.2992 -0.5918  0.3065
  250MOL0     C33648   4.270  10.459   1.826  0.1792 -0.2765 -0.0083
  250MOL0     C33649   4.347  10.571   1.787 -0.4013 -1.2155  0.4994
  250MOL0     O33650   4.484  10.575   1.806  0.0270  0.1123  0.0182
  250MOL0     C33651   4.575  10.672   1.760 -0.2543  0.1044 -0.5717
  250MOL0     C33652   4.719  10.625   1.787 -0.1733  0.3404  0.3455
  250MOL0     C33653   4.821  10.729   1.744 -0.4651  0.3417 -0.7043
  250MOL0     C33654   4.964  10.664   1.742 -0.0678  0.2851  0.1373
  250MOL0     C33655   5.080  10.762   1.744 -0.4801 -0.5359 -0.5195
  250MOL0     C33656   5.215  10.686   1.704  0.1487 -0.1855  0.1062
  250MOL0     C33657   5.338  10.779   1.676 -1.1394  0.5506 -0.5908
  250MOL0     C33658   5.456  10.706   1.612  0.1437  0.3613  0.6826
  250MOL0    Cl33659   5.507  10.574   1.722 -0.7207  0.5789  0.0612
  250MOL0     C33660   4.281  10.669   1.711 -0.3748  1.0321  0.7539
  250MOL0     C33661   4.147  10.651   1.681 -0.3787 -0.3093 -0.4457
  250MOL0     O33662   3.889  10.728   1.789  0.3048 -0.4169 -0.4341
  250MOL0     C33663   3.626  10.718   1.695 -0.8785 -1.2858  0.0579
  250MOL0     C33664   3.503  10.714   1.623  0.0148 -0.9142  0.2647
  250MOL0     N33665   3.127  10.963   1.024 -0.0728 -0.2085  0.4314
  250MOL0     N33666   2.996  10.964   0.999 -1.0549 -0.1541 -1.6611
  250MOL0     C33667   1.700  10.960   1.095  0.4049 -0.5129 -1.0788
  250MOL0     C33668   1.585  11.035   1.122  0.4858 -0.3215  0.5008
  250MOL0     C33669   1.223  11.257   1.230 -1.3573 -0.5125 -0.8735
  250MOL0     C33670   1.098  11.196   1.235 -0.4622  0.1156 -0.0353
  250MOL0     C33671   0.976  11.266   1.230  0.4292 -0.2633  0.7733
  250MOL0     C33672   0.974  11.406   1.202 -0.3914  0.9316 -0.0447
  250MOL0     O33673   0.859  11.467   1.167 -0.4476  0.5929 -0.4154
  250MOL0     C33674   0.835  11.587   1.240  0.1382 -0.9087  0.5103
  250MOL0     C33675   0.690  11.591   1.303  0.0958 -0.1555  0.4043
  250MOL0     C33676   0.683  11.485   1.413  0.3228  0.1825  0.0636
  250MOL0     C33677   0.541  11.425   1.421  0.5791 -0.0088  0.2745
  250MOL0     C33678   0.443  11.528   1.464 -0.0232 -0.1346 -0.1020
  250MOL0     C33679   0.371  11.609   1.508 -0.1140  0.0882  1.0081
  250MOL0     C33680   1.100  11.477   1.210 -0.2346 -0.3984 -0.0191
  250MOL0     C33681   1.218  11.401   1.221 -0.0162 -0.5516  0.2264
  250MOL0     C33682   1.348  11.476   1.217 -0.3374 -0.0454 -0.2752
  250MOL0     H33683   1.701  11.243   1.367  0.7515  0.4390 -0.2021
  250MOL0     H33684   1.897  11.101   1.331 -0.0014 -1.4750 -0.0662
  250MOL0     H33685   1.859  10.707   1.137  0.0988  0.8390  2.7050
  250MOL0     H33686   1.909  10.813   0.991 -0.5228 -1.1726 -0.3192
  250MOL0     H33687   2.071  10.644   1.048 -0.1477 -0.8532  2.6849
  250MOL0     H33688   2.082  10.683   1.207 -3.8034 -2.0794  1.1879
  250MOL0     H33689   2.198  10.890   1.174 -1.6633  1.7899  0.1071
  250MOL0     H33690   2.128  10.918   1.018  1.1418  2.1585 -0.1213
  250MOL0     H33691   2.338  10.693   1.078  1.9374  1.9506  2.7353
  250MOL0     H33692   2.288  10.742   0.920 -0.8408 -2.6847  1.4492
  250MOL0     H33693   2.400  10.980   0.985 -2.5765 -1.7326 -1.5385
  250MOL0     H33694   2.437  10.899   1.139  2.4629 -0.6817 -0.1651
  250MOL0     H33695   2.559  10.745   1.023 -3.8821  0.6396 -0.7110
  250MOL0     H33696   2.544  10.825   0.865  0.0115 -2.0818 -0.8662
  250MOL0     H33697   2.686  10.933   1.120 -0.8146  0.1274 -1.0775
  250MOL0     H33698   2.701  11.000   0.954 -0.2742  1.9238  2.0906
  250MOL0     H33699   2.785  10.715   1.053  2.2488  0.6386  0.5611
  250MOL0     H33700   2.812  10.771   0.885  0.9294  1.5320 -0.8787
  250MOL0     H33701   3.020  10.668   1.108  0.8796  0.8843  0.6413
  250MOL0     H33702   3.319  10.727   1.030 -0.1524  0.3652 -0.7791
  250MOL0     H33703   3.350  10.879   1.132 -0.2063  0.4176 -1.9369
  250MOL0     H33704   3.220  10.630   1.232 -1.1216  0.9297  0.5253
  250MOL0     H33705   3.399  10.676   1.255  0.4449  0.5940  0.5540
  250MOL0     H33706   3.202  10.861   1.357 -0.5553 -0.6830  2.1295
  250MOL0     H33707   3.378  10.839   1.385  1.4042 -1.7369 -0.4887
  250MOL0     H33708   3.147  10.647   1.450  0.3534 -0.3919 -2.6915
  250MOL0     H33709   3.234  10.742   1.571  1.7596 -1.1339  1.8472
  250MOL0     H33710   3.529  10.423   1.467 -0.5423 -0.9892 -0.5874
  250MOL0     H33711   3.763  10.432   1.573  1.1171  1.0608 -1.2596
  250MOL0     H33712   4.082  10.359   1.827 -0.3864 -0.0900  0.4022
  250MOL0     H33713   4.321  10.369   1.857  1.6288  0.4234 -0.2669
  250MOL0     H33714   4.573  10.706   1.656  2.8185  0.9251 -0.4675
  250MOL0     H33715   4.557  10.757   1.826  0.7464  0.7125 -1.0550
  250MOL0     H33716   4.736  10.588   1.888  2.3884 -2.2393 -0.8812
  250MOL0     H33717   4.733  10.530   1.735  0.0035  0.2203  0.6144
  250MOL0     H33718   4.795  10.773   1.647 -0.5331 -0.2732 -0.9652
  250MOL0     H33719   4.819  10.811   1.817 -0.6126  0.2389 -0.5906
  250MOL0     H33720   4.965  10.603   1.651 -1.2934  1.2468 -0.5588
  250MOL0     H33721   4.981  10.621   1.841 -0.4220 -0.1160  0.0226
  250MOL0     H33722   5.100  10.816   1.836  4.3651 -0.7824 -1.1215
  250MOL0     H33723   5.061  10.831   1.661  0.9229 -1.7489 -1.9315
  250MOL0     H33724   5.236  10.620   1.789  1.2521  2.4118  1.9774
  250MOL0     H33725   5.188  10.625   1.617 -0.9255 -0.4767  0.6280
  250MOL0     H33726   5.380  10.810   1.772  1.7172 -0.8572 -1.2814
  250MOL0     H33727   5.307  10.861   1.610  0.7780  0.4361 -1.6939
  250MOL0     H33728   5.415  10.662   1.521 -1.6895  1.5381  0.8853
  250MOL0     H33729   5.531  10.780   1.585  1.4659 -1.1065  0.1578
  250MOL0     H33730   4.340  10.745   1.662  2.4447 -1.5934 -0.2737
  250MOL0     H33731   4.093  10.723   1.621  0.9460  2.8794  1.9393
  250MOL0     H33732   3.662  10.808   1.742  0.1017 -1.1229 -0.9789
  250MOL0     H33733   3.421  10.783   1.633 -2.0133 -3.0867 -0.2792
  250MOL0     H33734   1.720  10.899   1.008  3.6220  1.2158 -1.7117
  250MOL0     H33735   1.495  11.016   1.065  0.9337  2.2258 -1.2092
  250MOL0     H33736   1.089  11.088   1.239 -1.9219  0.2238 -0.1983
  250MOL0     H33737   0.885  11.207   1.226  0.6354 -0.5496  0.0863
  250MOL0     H33738   0.850  11.677   1.181 -0.0010 -1.0452  0.2647
  250MOL0     H33739   0.904  11.583   1.325  0.0645 -3.8697  0.5416
  250MOL0     H33740   0.618  11.565   1.225 -0.3214  1.2632  0.2836
  250MOL0     H33741   0.668  11.689   1.347 -1.7742 -0.0671 -0.6073
  250MOL0     H33742   0.707  11.527   1.511 -0.9504  1.3605 -0.1009
  250MOL0     H33743   0.761  11.410   1.402  0.2104 -0.3913  2.5114
  250MOL0     H33744   0.516  11.388   1.321 -2.2280  2.8144 -0.2451
  250MOL0     H33745   0.544  11.336   1.484 -1.4424 -3.2002 -3.7038
  250MOL0     H33746   0.289  11.676   1.521 -0.6069 -0.4383  0.6952
  250MOL0     H33747   1.108  11.583   1.191  0.6088 -1.0107 -4.1394
  250MOL0     H33748   1.405  11.438   1.132 -1.2267  0.3714 -1.0857
  250MOL0     H33749   1.338  11.585   1.215 -1.9534 -0.1675 -1.4470
  250MOL0     H33750   1.405  11.459   1.309 -3.8604 -0.7758  2.0139
  251MOL0     O33751   0.018   8.206   6.420 -0.0501  0.4690  0.0531
  251MOL0     C33752   0.017   8.125   6.507  0.2344  0.4868  0.3848
  251MOL0     O33753   0.097   8.013   6.514  0.2587  0.1239 -0.1469
  251MOL0     C33754   0.210   7.994   6.437 -1.0646  0.1261 -0.0560
  251MOL0     C33755   0.290   8.102   6.400  0.8882 -0.4563  0.0253
  251MOL0     C33756   0.415   8.088   6.331  0.7526  0.1926 -0.8317
  251MOL0     C33757   0.456   7.961   6.293  0.5599 -0.1341  0.3199
  251MOL0     O33758   0.572   7.949   6.214  0.4968 -0.3333 -1.0242
  251MOL0     C33759   0.654   7.835   6.233 -0.7053  0.0526 -0.0273
  251MOL0     C33760   0.786   7.896   6.208 -0.0007 -0.5169  0.3723
  251MOL0     C33761   0.910   7.794   6.208 -0.4475 -0.4871 -0.0069
  251MOL0     C33762   1.050   7.854   6.194 -0.4669 -0.5515  0.2968
  251MOL0     C33763   1.157   7.744   6.179  0.5618 -0.1458  0.2195
  251MOL0     C33764   1.295   7.807   6.157  0.4569  0.3106 -0.4018
  251MOL0     C33765   1.321   7.855   6.015  0.3069  0.2931 -0.0283
  251MOL0     C33766   1.442   7.947   6.008 -0.5755  0.4359 -0.1468
  251MOL0     N33767   1.563   7.874   6.033 -0.6416 -0.1006 -0.7042
  251MOL0     C33768   1.664   7.919   6.111 -0.3659 -0.5654 -0.9685
  251MOL0     C33769   1.770   7.834   6.103 -0.3495 -0.7299  0.4456
  251MOL0     C33770   1.910   7.851   6.164  0.5485  0.5009  0.1661
  251MOL0     C33771   1.888   7.854   6.318 -0.4372  0.0103  0.6446
  251MOL0     C33772   2.019   7.843   6.394  0.5927 -0.0613 -0.8624
  251MOL0     C33773   2.109   7.967   6.369  0.3979  0.1055  0.1022
  251MOL0     O33774   2.232   7.939   6.434 -0.7080 -0.2641 -0.1766
  251MOL0     C33775   2.339   7.888   6.359 -0.6475  0.2870  0.3324
  251MOL0     C33776   2.344   7.836   6.229  0.7401  0.0546  0.5011
  251MOL0     C33777   2.455   7.781   6.159 -0.2401  0.0261 -0.6106
  251MOL0     C33778   2.577   7.783   6.226 -0.3071  0.3906  0.5969
  251MOL0     C33779   2.701   7.723   6.163 -0.0934 -0.2345  0.1551
  251MOL0     O33780   2.794   7.676   6.250 -0.7697 -0.3164  0.0777
  251MOL0     C33781   2.927   7.685   6.213 -1.0208 -0.5393  0.3715
  251MOL0     C33782   3.007   7.574   6.166  0.4078 -0.0438  0.2782
  251MOL0     C33783   3.136   7.589   6.120 -1.0811 -0.2754  0.8978
  251MOL0     C33784   3.195   7.720   6.120  0.6773  0.2622  0.0470
  251MOL0     O33785   3.311   7.732   6.041  0.1299 -0.0122 -0.0041
  251MOL0     C33786   3.391   7.850   6.045  0.9230  0.1230 -0.8242
  251MOL0     C33787   3.532   7.811   6.004 -0.0276  0.0233  0.0595
  251MOL0     C33788   3.624   7.744   6.106  0.6268  0.4565  0.6739
  251MOL0     C33789   3.555   7.621   6.189 -0.4565  0.3141  0.7543
  251MOL0     C33790   3.648   7.552   6.277 -0.1264  0.2166  0.3557
  251MOL0     C33791   3.767   7.469   6.217  0.4398 -0.6291 -0.6580
  251MOL0     C33792   3.708   7.384   6.106  0.2199 -0.0690 -0.0664
  251MOL0     C33793   3.790   7.257   6.073 -0.3982 -0.5740  0.5371
  251MOL0    Cl33794   3.777   7.123   6.195 -0.1363 -0.0686 -0.2184
  251MOL0     C33795   3.121   7.825   6.172  0.8299  0.4765 -0.1948
  251MOL0     C33796   2.987   7.807   6.213  0.6448 -0.4108 -0.0265
  251MOL0     O33797   2.714   7.726   6.040 -0.4703 -0.4482  0.1250
  251MOL0     C33798   2.579   7.841   6.362  0.0403 -0.2031  0.1520
  251MOL0     C33799   2.470   7.891   6.425 -0.1534  0.2041 -0.3133
  251MOL0     N33800   1.725   7.731   6.024  0.7189 -0.2573 -1.0785
  251MOL0     N33801   1.607   7.759   5.974  0.0035 -0.1713 -1.2176
  251MOL0     C33802   0.373   7.856   6.318  0.4543  0.0313 -0.7392
  251MOL0     C33803   0.254   7.864   6.395 -0.1524 -0.4166  0.8945
  251MOL0     C33804  -0.073   8.154   6.623 -1.1511 -0.2036  0.2068
  251MOL0     C33805  -0.032   8.111   6.754 -0.5769  0.0885  0.5575
  251MOL0     C33806  -0.098   8.154   6.870  0.4961 -0.6811 -0.1715
  251MOL0     C33807  -0.214   8.239   6.855 -0.6202  1.2145  0.6873
  251MOL0     O33808  -0.279   8.288   6.961  0.3903  0.3346  0.0963
  251MOL0     C33809  -0.244   8.252   7.093  0.0288  0.6597  0.1433
  251MOL0     C33810  -0.328   8.337   7.190  0.5107 -0.8172 -0.1024
  251MOL0     C33811  -0.247   8.350   7.323 -0.6256 -0.2365 -0.0733
  251MOL0     C33812  -0.230   8.212   7.394  0.6583  0.5074 -0.3258
  251MOL0     C33813  -0.201   8.234   7.533  0.5027 -0.7851 -0.8532
  251MOL0     C33814  -0.178   8.239   7.648  0.0426 -0.5136 -0.2691
  251MOL0     C33815  -0.253   8.271   6.728 -0.8974 -0.4263  0.3276
  251MOL0     C33816  -0.188   8.234   6.609  0.0990  1.4642 -0.4566
  251MOL0     C33817  -0.253   8.275   6.483 -0.4252 -0.5475 -0.3602
  251MOL0     H33818   0.255   8.203   6.420  1.3340 -0.4334  0.7084
  251MOL0     H33819   0.479   8.166   6.292  0.0887  1.4160  0.4402
  251MOL0     H33820   0.654   7.777   6.326  2.6468 -3.9486 -2.1835
  251MOL0     H33821   0.631   7.766   6.152 -2.2234 -1.2824  1.4602
  251MOL0     H33822   0.802   7.984   6.271  0.7924  1.6735 -2.6135
  251MOL0     H33823   0.780   7.935   6.106  0.0612 -0.1269  0.5150
  251MOL0     H33824   0.893   7.728   6.122 -1.9094  1.6204 -1.4379
  251MOL0     H33825   0.909   7.726   6.293 -1.2259  1.1997  1.3779
  251MOL0     H33826   1.052   7.917   6.105 -0.5688 -1.0898 -0.0905
  251MOL0     H33827   1.067   7.932   6.269 -2.9010  1.1999 -0.8283
  251MOL0     H33828   1.160   7.694   6.277  1.4877  0.8188  0.7034
  251MOL0     H33829   1.135   7.685   6.090  1.6787 -1.5927  0.8549
  251MOL0     H33830   1.317   7.884   6.231 -3.0901  0.8084  0.3082
  251MOL0     H33831   1.357   7.718   6.170  0.0574 -0.3633 -2.5627
  251MOL0     H33832   1.229   7.906   5.986  1.2765  0.5042 -3.0224
  251MOL0     H33833   1.334   7.773   5.944  2.2638 -2.0388  2.7362
  251MOL0     H33834   1.441   7.991   5.907  1.9895  3.4602  0.9803
  251MOL0     H33835   1.440   8.036   6.071 -0.8150 -0.2950  0.9079
  251MOL0     H33836   1.660   8.009   6.171  2.6097 -0.9723  0.0048
  251MOL0     H33837   1.978   7.771   6.134  2.1633  1.3991  1.2558
  251MOL0     H33838   1.943   7.947   6.124 -0.2729 -0.1366 -2.2309
  251MOL0     H33839   1.839   7.944   6.356 -1.2426 -1.0636  2.2449
  251MOL0     H33840   1.830   7.763   6.338 -1.3340  0.8307  1.9170
  251MOL0     H33841   2.075   7.752   6.372  1.8367  0.2236  0.8769
  251MOL0     H33842   1.982   7.840   6.497  2.4127 -3.2333 -0.1904
  251MOL0     H33843   2.069   8.061   6.408 -0.9458  0.7263 -2.5158
  251MOL0     H33844   2.121   7.983   6.261  2.4646 -0.6354  0.1858
  251MOL0     H33845   2.247   7.832   6.180  1.5827 -0.7189 -1.1642
  251MOL0     H33846   2.444   7.732   6.063  0.6125 -0.5762 -0.3990
  251MOL0     H33847   2.960   7.477   6.149 -1.9676  1.4462 -2.7941
  251MOL0     H33848   3.193   7.510   6.071 -2.0645  1.1840 -2.9536
  251MOL0     H33849   3.361   7.923   5.969  1.6464  0.3360 -0.9196
  251MOL0     H33850   3.400   7.892   6.145 -1.2392  2.0368 -1.3446
  251MOL0     H33851   3.528   7.753   5.911  2.3688 -0.3182  0.1258
  251MOL0     H33852   3.575   7.909   5.980 -0.4972 -0.3023 -2.4019
  251MOL0     H33853   3.698   7.691   6.045 -3.1035 -3.6645 -0.8391
  251MOL0     H33854   3.661   7.818   6.178 -1.7029 -1.9498  4.7364
  251MOL0     H33855   3.499   7.560   6.117  0.3693  0.3811  0.0360
  251MOL0     H33856   3.472   7.656   6.251 -2.1498 -0.8811 -0.7220
  251MOL0     H33857   3.587   7.490   6.344  0.3343  0.4378  0.9903
  251MOL0     H33858   3.691   7.631   6.340  1.0746  0.2201 -0.4336
  251MOL0     H33859   3.842   7.541   6.182 -1.1647  2.6184  1.9458
  251MOL0     H33860   3.809   7.406   6.296 -3.1196 -3.2284 -0.5643
  251MOL0     H33861   3.705   7.445   6.015 -2.2697  0.1395  0.0737
  251MOL0     H33862   3.610   7.348   6.141  1.4971 -0.2382  3.8176
  251MOL0     H33863   3.748   7.216   5.981 -1.0797  1.6594 -0.2153
  251MOL0     H33864   3.893   7.285   6.050 -1.0435  0.8167 -0.8868
  251MOL0     H33865   3.162   7.925   6.165 -1.1981  1.4827  1.0989
  251MOL0     H33866   2.933   7.896   6.242 -0.0814 -0.9916  0.4363
  251MOL0     H33867   2.677   7.849   6.406 -0.2225 -0.8888  0.8823
  251MOL0     H33868   2.485   7.937   6.522  2.0448 -0.9492 -0.0615
  251MOL0     H33869   0.402   7.753   6.297 -1.9525 -0.9520  0.3730
  251MOL0     H33870   0.198   7.782   6.439  0.9747 -1.3734  0.5984
  251MOL0     H33871   0.068   8.070   6.763  0.4253  1.8121 -1.7764
  251MOL0     H33872  -0.069   8.118   6.969  0.6685 -3.9538 -1.2936
  251MOL0     H33873  -0.136   8.252   7.110 -0.0536 -0.0216  0.6924
  251MOL0     H33874  -0.278   8.149   7.110 -0.5299  0.0853 -3.5362
  251MOL0     H33875  -0.419   8.291   7.229  0.6021 -2.2368 -1.4671
  251MOL0     H33876  -0.351   8.436   7.149 -0.7190 -0.7691  0.6674
  251MOL0     H33877  -0.290   8.426   7.388  0.1486 -0.8730  1.2144
  251MOL0     H33878  -0.153   8.400   7.298 -0.2813  1.1512  3.4709
  251MOL0     H33879  -0.326   8.159   7.403  0.5544  0.8517  0.8705
  251MOL0     H33880  -0.168   8.139   7.342 -1.0593  2.3132 -5.5395
  251MOL0     H33881  -0.162   8.248   7.753  1.3968  1.1613 -0.5754
  251MOL0     H33882  -0.336   8.340   6.726 -1.5245 -1.1653 -1.7162
  251MOL0     H33883  -0.347   8.329   6.499 -0.3988  0.6627 -3.5675
  251MOL0     H33884  -0.183   8.331   6.421  1.1883  1.0260  2.6603
  251MOL0     H33885  -0.288   8.191   6.421 -0.1747 -0.0480 -1.1959
  252MOL0     O33886   9.043   5.419   6.024  0.0558 -0.3718  0.5685
  252MOL0     C33887   9.042   5.447   5.903  0.0608  0.0217  0.1036
  252MOL0     O33888   9.092   5.369   5.812  0.1921 -0.3535 -0.5008
  252MOL0     C33889   9.126   5.239   5.851 -0.6769 -0.9854 -0.2854
  252MOL0     C33890   9.040   5.150   5.914 -0.9233 -0.4377 -0.1572
  252MOL0     C33891   9.086   5.027   5.969 -0.1879  0.1469  0.1577
  252MOL0     C33892   9.223   4.995   5.954 -0.1159  0.7572 -0.0436
  252MOL0     O33893   9.284   4.878   6.005 -0.2369  0.2517 -0.2439
  252MOL0     C33894   9.221   4.804   6.109  0.1674  0.4965  0.1228
  252MOL0     C33895   9.293   4.682   6.144  0.7969  0.9866  0.0427
  252MOL0     C33896   9.250   4.625   6.280 -0.3982  0.4690 -0.0398
  252MOL0     C33897   9.357   4.645   6.389  0.5302 -0.7142 -0.6553
  252MOL0     C33898   9.285   4.606   6.517 -0.0237 -1.0049  0.3783
  252MOL0     C33899   9.370   4.629   6.645 -0.4495 -0.9250  0.2642
  252MOL0     C33900   9.323   4.564   6.768  0.1265  0.3823 -0.1631
  252MOL0     C33901   9.418   4.576   6.892  0.3069 -0.2579  0.2787
  252MOL0     N33902   9.557   4.538   6.855  0.3298 -0.1441  0.4210
  252MOL0     C33903   9.604   4.416   6.884 -0.3860  0.3864  1.1106
  252MOL0     C33904   9.736   4.435   6.877 -0.6718  0.0342 -0.5572
  252MOL0     C33905   9.835   4.337   6.935  0.0621  0.0572  0.0132
  252MOL0     C33906   9.902   4.253   6.825 -0.0302 -0.2050  0.4919
  252MOL0     C33907   9.992   4.323   6.720  0.3941  1.0428 -0.2601
  252MOL0     C33908  10.102   4.392   6.773 -0.6301  0.3480 -0.0164
  252MOL0     O33909  10.182   4.440   6.671  0.2709 -0.2728 -0.5053
  252MOL0     C33910  10.304   4.496   6.697  0.3448  0.1899  0.0073
  252MOL0     C33911  10.369   4.508   6.824 -0.6412 -0.8229  0.9151
  252MOL0     C33912  10.499   4.565   6.827 -0.0398 -0.5002  0.3636
  252MOL0     C33913  10.564   4.625   6.709  0.0796 -0.1128 -0.4837
  252MOL0     C33914  10.698   4.682   6.723  0.4998 -1.3026 -0.1518
  252MOL0     O33915  10.740   4.752   6.613 -0.0764 -0.1072  0.2694
  252MOL0     C33916  10.871   4.794   6.609 -0.2160 -0.3469  0.1877
  252MOL0     C33917  10.926   4.883   6.706 -0.4303  0.1339  0.5389
  252MOL0     C33918  11.063   4.925   6.691  0.3845  0.1498  0.1085
  252MOL0     C33919  11.135   4.894   6.580  0.5447 -0.1077  0.0720
  252MOL0     O33920  11.255   4.949   6.547 -0.1159 -0.8474  0.3295
  252MOL0     C33921  11.306   5.059   6.623 -0.5809 -0.3371  0.2743
  252MOL0     C33922  11.446   5.090   6.570  0.0807  0.9529 -0.2253
  252MOL0     C33923  11.542   5.184   6.641  0.0955 -0.1091 -0.1933
  252MOL0     C33924  11.634   5.246   6.535  0.2107 -0.3804 -0.2139
  252MOL0     C33925  11.759   5.316   6.591  0.3647  0.4327  0.2593
  252MOL0     C33926  11.858   5.243   6.680 -0.2833 -0.3733 -0.2041
  252MOL0     C33927  11.896   5.107   6.617  0.6215 -0.6899  0.2796
  252MOL0     C33928  11.978   5.011   6.706  0.1263 -0.0424  0.1533
  252MOL0    Cl33929  12.087   4.915   6.602  0.1522  0.2912  0.1176
  252MOL0     C33930  11.078   4.808   6.484  0.5062 -0.6893 -0.5862
  252MOL0     C33931  10.946   4.766   6.494 -0.0679 -0.3791  0.1017
  252MOL0     O33932  10.752   4.688   6.832 -0.5127  0.5371  0.3896
  252MOL0     C33933  10.494   4.613   6.588 -0.8094  0.3174  0.0219
  252MOL0     C33934  10.371   4.542   6.577 -0.2064 -0.3662 -0.2442
  252MOL0     N33935   9.764   4.563   6.839 -0.1374 -0.4032 -0.2805
  252MOL0     N33936   9.654   4.625   6.819  0.7232  0.5645  0.2983
  252MOL0     C33937   9.309   5.084   5.901  0.5765  0.2005 -0.1982
  252MOL0     C33938   9.259   5.208   5.855 -0.9539  1.6346  0.3432
  252MOL0     C33939   9.004   5.589   5.867  0.1745  0.7131 -0.6319
  252MOL0     C33940   9.066   5.647   5.759  0.8259 -0.7423  0.8938
  252MOL0     C33941   9.028   5.783   5.719  0.2848 -0.1521 -0.3034
  252MOL0     C33942   8.937   5.857   5.794  0.5095  0.3437  0.2500
  252MOL0     O33943   8.880   5.977   5.770 -0.3876  0.5365  0.4966
  252MOL0     C33944   8.908   6.041   5.639  0.3432  0.5200  0.5984
  252MOL0     C33945   8.895   6.196   5.662  0.2923 -0.2760  0.1434
  252MOL0     C33946   8.910   6.258   5.519  0.1029 -0.0151  0.4604
  252MOL0     C33947   8.857   6.399   5.488  0.6171 -0.0433 -0.3960
  252MOL0     C33948   8.908   6.491   5.587  0.2041 -0.8562  0.2971
  252MOL0     C33949   8.948   6.564   5.679  0.2991  0.7371  0.3724
  252MOL0     C33950   8.869   5.792   5.898  0.3369 -0.0479 -0.4694
  252MOL0     C33951   8.904   5.662   5.936 -0.0968 -0.0658 -0.1915
  252MOL0     C33952   8.851   5.619   6.072  0.0397  0.2972  0.2305
  252MOL0     H33953   8.936   5.177   5.927 -0.7738  0.4810 -0.7340
  252MOL0     H33954   9.021   4.955   6.018  0.1605 -0.7531 -0.6614
  252MOL0     H33955   9.205   4.864   6.199  1.0622  0.4554  0.3120
  252MOL0     H33956   9.123   4.763   6.082 -0.2121 -1.6870  4.0672
  252MOL0     H33957   9.402   4.693   6.144  0.9933 -0.6393  0.6847
  252MOL0     H33958   9.265   4.601   6.075  0.5194  0.8482  0.3183
  252MOL0     H33959   9.228   4.519   6.268 -0.8226  0.2247  2.4304
  252MOL0     H33960   9.155   4.671   6.309 -0.7860  0.2347 -0.9164
  252MOL0     H33961   9.445   4.582   6.373  2.9400  2.3244 -0.2302
  252MOL0     H33962   9.400   4.745   6.399 -0.4683 -0.2774 -0.5671
  252MOL0     H33963   9.189   4.658   6.530  0.1290 -0.6454  0.1043
  252MOL0     H33964   9.267   4.498   6.514 -1.0515 -0.8268 -0.6879
  252MOL0     H33965   9.469   4.590   6.623 -0.2485  0.4230 -1.5149
  252MOL0     H33966   9.376   4.737   6.664 -1.0582 -0.9151  0.4449
  252MOL0     H33967   9.298   4.459   6.751 -2.2304  1.0085 -0.8535
  252MOL0     H33968   9.224   4.606   6.790 -0.2521 -0.9928  0.9023
  252MOL0     H33969   9.407   4.681   6.921 -0.6774  1.1452 -4.3296
  252MOL0     H33970   9.383   4.511   6.972  0.4501  1.5467  1.8856
  252MOL0     H33971   9.556   4.324   6.918  1.3275 -1.8150 -1.9528
  252MOL0     H33972   9.912   4.397   6.985  0.3112  0.5765 -0.9676
  252MOL0     H33973   9.780   4.274   7.005  0.0992  1.2760  1.1831
  252MOL0     H33974   9.960   4.177   6.878  0.9905 -0.0018 -0.3130
  252MOL0     H33975   9.821   4.200   6.776 -1.8738  1.9358  1.0522
  252MOL0     H33976   9.924   4.396   6.675  0.1227  3.8732  4.1452
  252MOL0     H33977  10.028   4.249   6.647 -1.0239  0.5041 -0.4693
  252MOL0     H33978  10.156   4.312   6.824 -0.6984 -1.0480 -2.0318
  252MOL0     H33979  10.076   4.477   6.837 -0.7734  1.0841 -1.0238
  252MOL0     H33980  10.330   4.468   6.917 -0.4293 -0.9438  0.9522
  252MOL0     H33981  10.541   4.576   6.926  3.4135  0.8252 -1.0975
  252MOL0     H33982  10.870   4.913   6.794 -1.7205 -2.3540  0.6553
  252MOL0     H33983  11.112   4.980   6.770 -0.4476 -2.0696  2.2731
  252MOL0     H33984  11.250   5.152   6.606  0.1670  0.0145 -0.3426
  252MOL0     H33985  11.324   5.028   6.726 -0.9641 -1.3530  0.0425
  252MOL0     H33986  11.499   4.994   6.573  0.2425  1.0233 -0.6561
  252MOL0     H33987  11.431   5.103   6.462 -3.8574  0.8291  0.1540
  252MOL0     H33988  11.489   5.266   6.691  1.1278 -0.0887  0.9288
  252MOL0     H33989  11.613   5.137   6.709  1.0571  2.3769  0.6322
  252MOL0     H33990  11.580   5.320   6.475  2.3070  0.4938 -1.1255
  252MOL0     H33991  11.649   5.166   6.461 -2.2116 -1.3235  0.2026
  252MOL0     H33992  11.715   5.402   6.642 -0.1035  1.2418 -1.4505
  252MOL0     H33993  11.816   5.343   6.502  0.3793 -1.9522 -0.5410
  252MOL0     H33994  11.947   5.305   6.693 -0.4588  0.2233 -1.6159
  252MOL0     H33995  11.823   5.228   6.782  0.9241  0.1618  0.3097
  252MOL0     H33996  11.956   5.126   6.527 -0.0313  3.8067  0.5811
  252MOL0     H33997  11.805   5.062   6.576  2.7087 -4.3574 -0.8038
  252MOL0     H33998  12.048   5.060   6.775  1.7409 -3.5754  1.2978
  252MOL0     H33999  11.902   4.957   6.765 -1.2180 -0.0885 -1.5490
  252MOL0     H34000  11.132   4.790   6.392  0.7728  1.0708 -0.8075
  252MOL0     H34001  10.910   4.708   6.409  2.7414  2.5018 -3.3785
  252MOL0     H34002  10.526   4.660   6.496  2.7885 -0.6846  0.5726
  252MOL0     H34003  10.312   4.535   6.486 -3.3698 -2.1683  1.7437
  252MOL0     H34004   9.412   5.055   5.883  1.1954  1.3103  1.2980
  252MOL0     H34005   9.339   5.274   5.821 -2.0126  1.5210 -2.6582
  252MOL0     H34006   9.139   5.589   5.703 -0.0992 -1.1192  0.0542
  252MOL0     H34007   9.083   5.825   5.635 -1.4455  1.2529 -0.7925
  252MOL0     H34008   8.841   6.006   5.561  0.4400  1.8602 -0.1243
  252MOL0     H34009   9.011   6.016   5.613 -0.1351 -0.2720 -0.5872
  252MOL0     H34010   8.967   6.243   5.730 -0.8579  2.0383 -0.1331
  252MOL0     H34011   8.794   6.205   5.703 -0.3679 -2.3170 -0.9360
  252MOL0     H34012   8.869   6.188   5.446 -0.5280  0.2846  0.5205
  252MOL0     H34013   9.019   6.259   5.506  0.0673 -1.1353 -0.0508
  252MOL0     H34014   8.879   6.423   5.383 -0.8213  1.8128 -0.3208
  252MOL0     H34015   8.748   6.403   5.479  0.7827  2.0693 -2.5307
  252MOL0     H34016   8.988   6.626   5.757  0.6766 -0.8153  1.4647
  252MOL0     H34017   8.790   5.847   5.949 -0.7210  1.7947 -3.7994
  252MOL0     H34018   8.917   5.661   6.148  3.3892 -3.5903 -0.1678
  252MOL0     H34019   8.760   5.673   6.098 -1.6604 -1.0747 -2.4107
  252MOL0     H34020   8.834   5.512   6.087 -0.5611  0.5254  1.2151
  253MOL0     O34021   4.550   3.453   7.835 -0.1463  0.8659  0.0842
  253MOL0     C34022   4.490   3.539   7.774 -0.0491  0.0673 -0.2241
  253MOL0     O34023   4.555   3.623   7.689  0.6786  0.2145  0.1906
  253MOL0     C34024   4.676   3.600   7.629  0.3621 -0.1629  0.6265
  253MOL0     C34025   4.793   3.622   7.701  0.7378  0.2838  0.2521
  253MOL0     C34026   4.913   3.623   7.636 -0.5555 -0.7640  0.9482
  253MOL0     C34027   4.927   3.615   7.494  0.7838  0.2787  0.5606
  253MOL0     O34028   5.040   3.626   7.421  0.8244  0.2541  1.2455
  253MOL0     C34029   5.159   3.660   7.485 -1.1459  0.3116 -0.5139
  253MOL0     C34030   5.159   3.811   7.516  0.0598 -0.7645 -0.3149
  253MOL0     C34031   5.271   3.849   7.619  0.0788 -0.1305  0.3062
  253MOL0     C34032   5.401   3.855   7.545 -0.1754  0.5503 -0.3757
  253MOL0     C34033   5.512   3.902   7.636 -0.8242 -0.8097  0.2955
  253MOL0     C34034   5.642   3.932   7.566  0.2062 -0.0455 -0.3819
  253MOL0     C34035   5.737   3.966   7.682  0.5795 -0.2131 -0.1610
  253MOL0     C34036   5.872   4.003   7.624  0.0722 -0.0195 -0.0558
  253MOL0     N34037   5.972   3.999   7.732 -0.3556  0.3133 -0.6522
  253MOL0     C34038   5.968   4.011   7.869 -0.4854  0.0666  0.5441
  253MOL0     C34039   6.099   4.030   7.907 -0.7369  0.5062  0.5514
  253MOL0     C34040   6.142   4.049   8.048  0.3275  0.5040 -0.3869
  253MOL0     C34041   6.200   3.917   8.105  1.5633  0.5652  0.0045
  253MOL0     C34042   6.339   3.877   8.046 -0.3377 -0.2996  0.0687
  253MOL0     C34043   6.442   3.997   8.015 -0.0262 -0.4283 -0.5506
  253MOL0     O34044   6.471   4.062   8.147 -0.1369  0.1993 -0.0543
  253MOL0     C34045   6.593   4.115   8.142 -0.5616  0.5193  0.2400
  253MOL0     C34046   6.609   4.253   8.113  0.7743 -0.1934 -0.5633
  253MOL0     C34047   6.734   4.311   8.096 -0.0596 -1.1160 -0.1823
  253MOL0     C34048   6.848   4.235   8.105 -0.2063 -0.3088 -0.3092
  253MOL0     C34049   6.986   4.294   8.109 -0.1443 -0.6959 -0.1833
  253MOL0     O34050   7.098   4.202   8.111  0.2247 -0.2687 -0.3803
  253MOL0     C34051   7.226   4.255   8.088  0.6881  0.0819 -0.4582
  253MOL0     C34052   7.260   4.346   7.984  0.3338  0.3223 -0.1866
  253MOL0     C34053   7.394   4.375   7.959  1.0039 -0.4834  0.3885
  253MOL0     C34054   7.495   4.322   8.041 -0.0730 -0.1127 -0.2511
  253MOL0     O34055   7.626   4.344   8.028  0.2599  0.2287  0.4388
  253MOL0     C34056   7.677   4.447   7.947 -0.1802 -0.3415  0.6010
  253MOL0     C34057   7.828   4.430   7.938  0.3643  0.6402  0.5910
  253MOL0     C34058   7.878   4.283   7.947 -0.6486 -0.1661 -0.9147
  253MOL0     C34059   8.029   4.265   7.926  0.7427  0.5730 -0.3212
  253MOL0     C34060   8.063   4.107   7.942 -0.6042 -0.7781  0.6628
  253MOL0     C34061   8.182   4.073   7.853  0.6141  0.1855  0.0497
  253MOL0     C34062   8.310   4.159   7.875  0.1822  0.4645 -0.9134
  253MOL0     C34063   8.407   4.146   7.763  0.3916 -0.0543  0.1928
  253MOL0    Cl34064   8.584   4.203   7.799  0.6335  0.2507 -0.3343
  253MOL0     C34065   7.457   4.224   8.135  0.5558  0.5730 -0.1001
  253MOL0     C34066   7.326   4.185   8.154 -0.4618 -0.3848  0.3443
  253MOL0     O34067   6.994   4.416   8.108  0.9939  0.5683 -0.3739
  253MOL0     C34068   6.835   4.104   8.138  1.5251  0.8051 -0.9725
  253MOL0     C34069   6.706   4.045   8.158  0.0438  0.0247 -0.1743
  253MOL0     N34070   6.182   4.016   7.797  0.3312  0.3646 -0.0542
  253MOL0     N34071   6.102   3.993   7.701  0.0681 -0.0944  0.6377
  253MOL0     C34072   4.813   3.593   7.418  0.5321 -1.3418  0.1263
  253MOL0     C34073   4.691   3.587   7.484  0.8964  0.1637 -0.2927
  253MOL0     C34074   4.344   3.544   7.816 -0.0085  0.6751  0.8154
  253MOL0     C34075   4.276   3.437   7.879 -0.3748  0.6898  0.8267
  253MOL0     C34076   4.141   3.442   7.909 -0.0185 -0.0708 -0.2247
  253MOL0     C34077   4.066   3.547   7.864 -0.3192  0.9030 -0.8431
  253MOL0     O34078   3.927   3.549   7.889  0.0910  0.5058  0.8243
  253MOL0     C34079   3.853   3.475   7.995 -0.1133  0.1177 -0.3719
  253MOL0     C34080   3.714   3.525   8.004 -0.4002  0.6675  0.0741
  253MOL0     C34081   3.644   3.488   8.132  0.0978 -0.0568  0.1838
  253MOL0     C34082   3.507   3.426   8.112 -0.7086  0.7660 -0.5386
  253MOL0     C34083   3.446   3.430   8.242  0.8909 -0.2297  0.8459
  253MOL0     C34084   3.391   3.453   8.347  0.8614  0.2968  0.4792
  253MOL0     C34085   4.135   3.658   7.818  0.3960  0.1293 -0.4098
  253MOL0     C34086   4.273   3.662   7.799 -1.2632  0.1107  0.5038
  253MOL0     C34087   4.331   3.793   7.750  1.2288 -0.2110  0.2461
  253MOL0     H34088   4.790   3.646   7.807  1.3634  0.3654  0.2519
  253MOL0     H34089   5.001   3.637   7.698  1.2164 -1.5377 -1.2444
  253MOL0     H34090   5.164   3.612   7.583 -1.4953 -1.0648 -1.1495
  253MOL0     H34091   5.247   3.632   7.427 -0.3533  2.8793 -0.6742
  253MOL0     H34092   5.063   3.848   7.553  0.2071 -1.2780  0.6220
  253MOL0     H34093   5.178   3.861   7.421 -0.8874 -0.3448 -0.2926
  253MOL0     H34094   5.275   3.782   7.705  0.6703 -1.6231 -0.8271
  253MOL0     H34095   5.247   3.952   7.647 -0.8428 -0.0957 -0.5322
  253MOL0     H34096   5.434   3.759   7.503  2.9184  1.5305 -0.4222
  253MOL0     H34097   5.388   3.923   7.460  0.7869 -0.2765 -1.2290
  253MOL0     H34098   5.481   3.999   7.677  1.3532  0.6728 -1.3097
  253MOL0     H34099   5.524   3.821   7.708 -2.2154 -1.9389 -0.6959
  253MOL0     H34100   5.682   3.841   7.518 -3.1698 -0.7656 -2.2005
  253MOL0     H34101   5.619   4.007   7.490 -0.9310  0.5820  0.5559
  253MOL0     H34102   5.751   3.874   7.739 -2.8458  0.0588  1.3721
  253MOL0     H34103   5.702   4.052   7.740  0.8778 -0.0577 -0.2088
  253MOL0     H34104   5.903   3.933   7.546 -0.7527  0.9239 -1.2506
  253MOL0     H34105   5.870   4.104   7.584 -4.0092  2.2689  4.7932
  253MOL0     H34106   5.882   4.000   7.933 -0.4014  0.3163  0.7002
  253MOL0     H34107   6.219   4.126   8.040 -0.5753  1.2483 -2.6134
  253MOL0     H34108   6.060   4.079   8.114  0.1203 -3.2212  1.3380
  253MOL0     H34109   6.207   3.932   8.213 -1.4147  1.1869  0.1993
  253MOL0     H34110   6.134   3.832   8.083  2.9877  0.2350 -3.6160
  253MOL0     H34111   6.314   3.831   7.950 -3.5128  3.2484 -1.0804
  253MOL0     H34112   6.390   3.801   8.106  0.0322  1.2311  1.7785
  253MOL0     H34113   6.399   4.076   7.954  0.8697  0.0535 -0.5826
  253MOL0     H34114   6.531   3.962   7.962 -0.8042 -4.0191  0.2428
  253MOL0     H34115   6.525   4.321   8.112  1.4211  0.6664  0.8478
  253MOL0     H34116   6.738   4.419   8.088 -1.5974 -0.8085  2.0977
  253MOL0     H34117   7.182   4.388   7.921  0.4030 -0.2598 -0.6645
  253MOL0     H34118   7.424   4.440   7.877  3.4034  0.1076  1.6463
  253MOL0     H34119   7.630   4.449   7.848  0.5260  4.3122  0.1280
  253MOL0     H34120   7.648   4.548   7.979  0.8586  0.2675 -0.3300
  253MOL0     H34121   7.872   4.474   7.848  0.9209  0.8774  0.9786
  253MOL0     H34122   7.868   4.478   8.028  0.6377  2.0652 -0.2517
  253MOL0     H34123   7.852   4.252   8.049 -0.2451  2.2719 -0.0076
  253MOL0     H34124   7.820   4.225   7.874 -3.3240 -1.2659  1.8626
  253MOL0     H34125   8.069   4.336   7.998 -1.7869  0.8708  0.9232
  253MOL0     H34126   8.054   4.307   7.828 -0.0904  2.4991  0.2515
  253MOL0     H34127   7.975   4.054   7.906 -0.0266 -0.4204 -1.4306
  253MOL0     H34128   8.088   4.085   8.046  1.9619  0.4834  0.4126
  253MOL0     H34129   8.210   3.970   7.876  1.8854  0.6734  0.7567
  253MOL0     H34130   8.148   4.078   7.749  0.3025 -0.6440  0.1019
  253MOL0     H34131   8.351   4.137   7.974 -0.4532  2.1033 -0.2406
  253MOL0     H34132   8.271   4.261   7.883  0.8731  0.7495 -1.0841
  253MOL0     H34133   8.400   4.048   7.714  1.9619 -0.4240  0.6577
  253MOL0     H34134   8.376   4.210   7.680  1.6430  0.9491  0.4794
  253MOL0     H34135   7.540   4.177   8.186  0.2155 -0.3296 -0.3639
  253MOL0     H34136   7.299   4.107   8.224  1.8227  1.7421  3.9583
  253MOL0     H34137   6.925   4.044   8.153  1.1856  0.4380 -0.3675
  253MOL0     H34138   6.704   3.944   8.197 -0.2991  0.3067  0.5475
  253MOL0     H34139   4.826   3.579   7.311  0.4279  1.4327 -0.3250
  253MOL0     H34140   4.614   3.560   7.413  2.5450 -2.9485 -1.0600
  253MOL0     H34141   4.341   3.355   7.908 -0.3891  0.4191  0.0874
  253MOL0     H34142   4.105   3.349   7.953  1.4559 -0.0370  1.1519
  253MOL0     H34143   3.905   3.471   8.091 -0.6948  1.7032  0.0502
  253MOL0     H34144   3.860   3.369   7.970  2.3273  0.4449 -1.3871
  253MOL0     H34145   3.659   3.481   7.920 -1.6355 -1.8477  2.0828
  253MOL0     H34146   3.728   3.632   7.985  0.4327  0.6466  0.4898
  253MOL0     H34147   3.626   3.577   8.192  0.0802 -0.0744  0.2048
  253MOL0     H34148   3.698   3.410   8.188 -0.3514 -0.9740 -0.6374
  253MOL0     H34149   3.440   3.481   8.046  0.6913  1.0365 -1.7885
  253MOL0     H34150   3.521   3.323   8.077  0.4849  0.3263  1.1090
  253MOL0     H34151   3.341   3.459   8.441  0.7753 -1.3516  0.5612
  253MOL0     H34152   4.090   3.750   7.782  2.4533  0.6385 -1.8960
  253MOL0     H34153   4.267   3.878   7.779  2.7854  0.2815  2.4794
  253MOL0     H34154   4.428   3.806   7.799  2.3583 -3.6382 -0.8462
  253MOL0     H34155   4.343   3.780   7.643 -0.0602  1.6701 -0.1857
  254MOL0     O34156   2.070   2.532  10.733  0.1652  0.5891 -0.4565
  254MOL0     C34157   2.021   2.485  10.630 -0.4647 -0.4222 -0.1898
  254MOL0     O34158   2.097   2.438  10.527 -0.8094 -0.1014 -0.4545
  254MOL0     C34159   2.234   2.435  10.549  0.0547  0.5873  0.9835
  254MOL0     C34160   2.300   2.308  10.562  0.2380 -0.2474  0.0220
  254MOL0     C34161   2.436   2.304  10.570 -0.3516 -0.0070 -0.2513
  254MOL0     C34162   2.511   2.418  10.577  0.4572 -0.5041 -0.2327
  254MOL0     O34163   2.643   2.425  10.589 -0.4004 -0.2494  0.2709
  254MOL0     C34164   2.710   2.355  10.689  0.3765 -0.6314  0.2917
  254MOL0     C34165   2.852   2.402  10.712 -0.1672 -0.4962 -0.2840
  254MOL0     C34166   2.936   2.393  10.587  0.3023 -0.3439 -0.6663
  254MOL0     C34167   3.084   2.419  10.603 -0.0766 -0.2479 -0.5183
  254MOL0     C34168   3.150   2.452  10.463  0.4502  0.3639  0.3838
  254MOL0     C34169   3.297   2.480  10.469  0.1802 -0.0447  0.4447
  254MOL0     C34170   3.372   2.351  10.506  0.3505  0.4173 -0.3552
  254MOL0     C34171   3.530   2.356  10.490  0.7121 -0.1829  0.4883
  254MOL0     N34172   3.578   2.221  10.501  0.0997 -0.1128 -0.3167
  254MOL0     C34173   3.589   2.144  10.614 -0.1800  0.2356  0.6181
  254MOL0     C34174   3.632   2.022  10.582  0.1023 -1.0898 -0.0979
  254MOL0     C34175   3.667   1.909  10.674  0.2246  0.1815  0.4551
  254MOL0     C34176   3.616   1.774  10.617  0.3361  0.5301  0.3761
  254MOL0     C34177   3.633   1.659  10.719 -0.3514 -0.1122  0.2701
  254MOL0     C34178   3.772   1.620  10.750 -0.0648  0.0864  0.3350
  254MOL0     O34179   3.845   1.594  10.629 -0.3332 -0.9408  0.0010
  254MOL0     C34180   3.982   1.580  10.647 -0.2666  0.1952  0.7356
  254MOL0     C34181   4.056   1.552  10.532  0.3145 -0.5853 -0.3609
  254MOL0     C34182   4.191   1.521  10.537 -0.3789 -0.9416  0.0773
  254MOL0     C34183   4.262   1.524  10.656  0.0031  0.1714  0.1518
  254MOL0     C34184   4.403   1.486  10.661 -0.5330 -0.4315  0.1929
  254MOL0     O34185   4.464   1.459  10.783  0.3157  0.0772  0.0299
  254MOL0     C34186   4.593   1.423  10.784 -0.3322 -0.4665 -0.7255
  254MOL0     C34187   4.691   1.522  10.768  0.2589  0.3380  0.0664
  254MOL0     C34188   4.835   1.492  10.770  1.3053 -0.7101  0.1541
  254MOL0     C34189   4.875   1.363  10.780  0.4398 -0.4992  0.4207
  254MOL0     O34190   5.008   1.329  10.754 -0.5279 -0.3487  0.0171
  254MOL0     C34191   5.036   1.221  10.664  0.2553 -0.1145  0.1967
  254MOL0     C34192   5.074   1.092  10.749 -0.6966  0.4239  0.2857
  254MOL0     C34193   5.215   1.108  10.802  0.0994  0.3368 -0.2495
  254MOL0     C34194   5.261   0.996  10.899  0.4522 -0.4992  0.1559
  254MOL0     C34195   5.388   1.042  10.965  1.0635 -0.2005  0.5387
  254MOL0     C34196   5.414   0.964  11.089 -0.5627 -0.2049 -0.6635
  254MOL0     C34197   5.490   0.836  11.059 -0.2370 -0.2629 -0.2076
  254MOL0     C34198   5.464   0.743  11.180 -0.0804 -0.4426  0.3268
  254MOL0    Cl34199   5.588   0.780  11.303  0.2182  0.1853 -0.2450
  254MOL0     C34200   4.774   1.261  10.799  0.3218 -0.1109  0.0630
  254MOL0     C34201   4.639   1.290  10.799 -0.2703 -0.3243 -0.3301
  254MOL0     O34202   4.471   1.493  10.553  0.2338 -0.1731 -0.1869
  254MOL0     C34203   4.195   1.546  10.773  0.6396 -0.7663  0.3408
  254MOL0     C34204   4.052   1.577  10.767 -0.4387  0.0185 -0.3852
  254MOL0     N34205   3.660   2.030  10.443 -0.2810 -0.7421 -0.7413
  254MOL0     N34206   3.617   2.148  10.395 -0.2797 -0.1309 -0.2799
  254MOL0     C34207   2.445   2.544  10.552 -0.3992  0.4934 -0.7766
  254MOL0     C34208   2.312   2.548  10.534  0.1366 -0.8398 -0.1946
  254MOL0     C34209   1.873   2.456  10.617 -0.3383 -0.4314  0.4410
  254MOL0     C34210   1.827   2.349  10.534 -0.5351  0.9296 -0.4589
  254MOL0     C34211   1.691   2.322  10.522  0.1525  0.6009 -0.8054
  254MOL0     C34212   1.596   2.393  10.598 -0.4804  1.0326 -0.4306
  254MOL0     O34213   1.456   2.371  10.585  0.0348 -1.1222  0.8932
  254MOL0     C34214   1.405   2.288  10.479 -0.0643 -0.3712  0.5894
  254MOL0     C34215   1.253   2.327  10.446 -0.6145 -1.2724 -0.0215
  254MOL0     C34216   1.190   2.265  10.308 -0.9222 -0.7042 -0.5501
  254MOL0     C34217   1.171   2.113  10.316  0.4208  0.3196 -0.9024
  254MOL0     C34218   1.053   2.069  10.392 -0.2384 -0.3648  0.5838
  254MOL0     C34219   0.954   2.044  10.456  0.7665 -0.3741  0.2040
  254MOL0     C34220   1.636   2.494  10.681 -0.4957  0.1247  0.0546
  254MOL0     C34221   1.770   2.521  10.688  1.0020  0.0761 -0.3662
  254MOL0     C34222   1.793   2.631  10.780 -0.1156  0.6750  0.2827
  254MOL0     H34223   2.239   2.218  10.565  0.9968 -0.8385 -1.3031
  254MOL0     H34224   2.486   2.208  10.558  2.3020  0.7282  3.1964
  254MOL0     H34225   2.666   2.362  10.789  2.1853  1.5255  1.0238
  254MOL0     H34226   2.715   2.254  10.647  1.8908  0.6089 -2.8564
  254MOL0     H34227   2.898   2.351  10.797 -0.1768 -0.0488 -0.0075
  254MOL0     H34228   2.858   2.507  10.742  2.4482 -0.7998  0.5407
  254MOL0     H34229   2.908   2.472  10.517  0.6015 -0.8184 -1.3371
  254MOL0     H34230   2.911   2.293  10.550 -0.2985 -0.1264 -0.8533
  254MOL0     H34231   3.100   2.512  10.659 -0.6178  1.0241 -2.3659
  254MOL0     H34232   3.136   2.337  10.653  2.0166  1.0393 -0.4693
  254MOL0     H34233   3.139   2.364  10.399  0.4189  1.1317 -0.6906
  254MOL0     H34234   3.101   2.536  10.412  2.5644  0.4434 -1.7519
  254MOL0     H34235   3.338   2.516  10.374 -0.8739  2.2972  0.8288
  254MOL0     H34236   3.313   2.564  10.536 -0.3996  0.9133 -0.5932
  254MOL0     H34237   3.338   2.266  10.447 -1.1198  0.7994 -0.0941
  254MOL0     H34238   3.354   2.326  10.611 -1.1707 -3.3830 -1.3556
  254MOL0     H34239   3.555   2.389  10.389 -0.5467  0.4689  0.3741
  254MOL0     H34240   3.579   2.424  10.560  0.4765  1.2925 -0.7330
  254MOL0     H34241   3.560   2.182  10.712 -0.2659  0.5458  0.4737
  254MOL0     H34242   3.774   1.924  10.687  0.2500 -1.5111  2.8517
  254MOL0     H34243   3.612   1.924  10.768 -0.0981 -2.2090  0.7137
  254MOL0     H34244   3.513   1.788  10.584 -0.7744 -2.5202  2.1616
  254MOL0     H34245   3.669   1.747  10.525 -0.0394 -2.4554  0.9177
  254MOL0     H34246   3.577   1.572  10.684  1.2336 -0.5709 -1.2097
  254MOL0     H34247   3.578   1.697  10.806 -3.4247 -1.9143 -0.7084
  254MOL0     H34248   3.770   1.528  10.809 -3.5959 -1.0123 -1.1889
  254MOL0     H34249   3.811   1.709  10.800  2.5563 -1.2738  0.8863
  254MOL0     H34250   4.014   1.552  10.432 -0.1534  0.1582 -0.1769
  254MOL0     H34251   4.250   1.493  10.450 -0.4687 -2.6819  0.5359
  254MOL0     H34252   4.654   1.620  10.741 -0.1188  0.1104 -0.2517
  254MOL0     H34253   4.904   1.575  10.762 -1.2265  1.7244  1.5679
  254MOL0     H34254   4.958   1.205  10.589  0.3714  3.5104 -0.8747
  254MOL0     H34255   5.120   1.256  10.604 -1.6518  1.7150 -1.5667
  254MOL0     H34256   5.003   1.061  10.826  0.5120  0.8300  1.6192
  254MOL0     H34257   5.081   1.011  10.675 -0.1943  0.2441  0.5220
  254MOL0     H34258   5.294   1.108  10.727  1.9692  0.6988  1.6215
  254MOL0     H34259   5.213   1.205  10.853  1.9161 -0.9347  2.4917
  254MOL0     H34260   5.283   0.903  10.845 -3.8555 -1.3632 -0.4491
  254MOL0     H34261   5.181   0.972  10.969 -2.0854  0.5301 -2.2082
  254MOL0     H34262   5.387   1.150  10.979  2.5605  0.3934 -2.9483
  254MOL0     H34263   5.469   1.028  10.894 -1.6761 -0.1464 -2.8720
  254MOL0     H34264   5.475   1.031  11.152  0.1267 -2.1170  0.7866
  254MOL0     H34265   5.318   0.942  11.136 -0.6981 -0.3567 -1.0086
  254MOL0     H34266   5.598   0.845  11.044  0.1813 -0.4955  2.2665
  254MOL0     H34267   5.443   0.798  10.969 -2.5412 -1.0184  1.2370
  254MOL0     H34268   5.362   0.733  11.220 -0.0271  1.5033  1.0469
  254MOL0     H34269   5.478   0.640  11.147 -5.0026 -0.8009 -1.5703
  254MOL0     H34270   4.808   1.158  10.801 -0.5994 -0.5117 -1.8233
  254MOL0     H34271   4.556   1.220  10.807 -1.8853  1.6137  0.6338
  254MOL0     H34272   4.249   1.547  10.867  2.0742 -1.8529 -0.4264
  254MOL0     H34273   4.005   1.587  10.864  2.1922  1.9621  0.8136
  254MOL0     H34274   2.496   2.640  10.558 -1.0882  0.8613 -0.7812
  254MOL0     H34275   2.261   2.642  10.515  1.6152 -0.3534 -2.0693
  254MOL0     H34276   1.906   2.287  10.492 -0.8148  0.6102 -0.5090
  254MOL0     H34277   1.666   2.235  10.461  2.8872 -2.6678  2.2734
  254MOL0     H34278   1.418   2.184  10.508 -2.1715 -1.2128 -1.1842
  254MOL0     H34279   1.461   2.309  10.387 -2.4041  4.2047 -0.1555
  254MOL0     H34280   1.246   2.434  10.425  1.8825 -1.0758 -0.1597
  254MOL0     H34281   1.181   2.305  10.526  2.2740 -1.3084  2.7752
  254MOL0     H34282   1.260   2.288  10.227  1.1418  0.0679  1.3458
  254MOL0     H34283   1.094   2.312  10.283  0.1096  1.2469 -0.9748
  254MOL0     H34284   1.178   2.068  10.216 -0.2267 -0.2221 -0.7127
  254MOL0     H34285   1.263   2.072  10.360  1.5678  2.7161 -0.9207
  254MOL0     H34286   0.871   2.024  10.521  0.7667 -0.6802  0.1120
  254MOL0     H34287   1.558   2.546  10.736  0.8570  0.2784  1.9029
  254MOL0     H34288   1.703   2.685  10.808  0.2338  1.3014  0.2143
  254MOL0     H34289   1.829   2.597  10.878  1.0876  2.2075  0.4053
  254MOL0     H34290   1.865   2.705  10.745  1.2668  0.5329  2.5792
  255MOL0     O34291   8.350   8.606   3.647  0.4106  0.6096  0.2319
  255MOL0     C34292   8.360   8.677   3.552  0.1978  0.6232  0.2647
  255MOL0     O34293   8.330   8.812   3.557  0.4951 -0.4196 -0.0421
  255MOL0     C34294   8.427   8.906   3.553 -0.6205  0.8747  0.4233
  255MOL0     C34295   8.565   8.879   3.515  0.7672  0.5301  0.4706
  255MOL0     C34296   8.657   8.983   3.524 -0.3877 -0.9244 -0.6290
  255MOL0     C34297   8.612   9.107   3.573 -0.4913  0.5951 -0.6252
  255MOL0     O34298   8.702   9.203   3.615 -0.2504  0.2905  0.2985
  255MOL0     C34299   8.727   9.296   3.511  0.3239 -0.5926 -0.4232
  255MOL0     C34300   8.877   9.311   3.506  0.3533 -0.3525  0.5746
  255MOL0     C34301   8.957   9.185   3.464  0.2704  0.0513  0.1313
  255MOL0     C34302   8.914   9.144   3.322  0.3761 -0.7480  0.4577
  255MOL0     C34303   8.979   9.006   3.306  0.1846 -0.1549 -0.3143
  255MOL0     C34304   8.963   8.962   3.162  0.3195 -0.6556 -0.0432
  255MOL0     C34305   9.069   8.852   3.115 -0.2672  0.7859 -0.6118
  255MOL0     C34306   9.118   8.753   3.223  0.6472 -0.0967  0.5943
  255MOL0     N34307   9.023   8.650   3.246 -0.3046 -0.5595 -0.3529
  255MOL0     C34308   9.026   8.519   3.182 -0.4256 -0.8792 -0.1836
  255MOL0     C34309   8.925   8.448   3.235 -0.8711 -0.8325  0.5592
  255MOL0     C34310   8.884   8.308   3.202 -0.3594 -0.6893 -0.5325
  255MOL0     C34311   8.797   8.299   3.083 -0.6582  0.2188 -0.9812
  255MOL0     C34312   8.773   8.145   3.052 -0.3306  0.0294 -0.4329
  255MOL0     C34313   8.680   8.077   3.161 -0.4701  1.3257 -0.5924
  255MOL0     O34314   8.661   7.940   3.123  0.1545 -0.3423 -0.6051
  255MOL0     C34315   8.543   7.876   3.151  1.9441  0.0634  0.0077
  255MOL0     C34316   8.434   7.930   3.231 -0.4107  0.3737 -0.2902
  255MOL0     C34317   8.326   7.846   3.247  0.0720  0.4863 -0.3995
  255MOL0     C34318   8.310   7.715   3.187 -0.4813  0.7215 -0.4084
  255MOL0     C34319   8.191   7.626   3.208 -0.1031  0.0341  0.1245
  255MOL0     O34320   8.099   7.662   3.299 -0.1363 -0.2157  0.3136
  255MOL0     C34321   8.002   7.580   3.356  0.8499  0.1472  0.4489
  255MOL0     C34322   7.895   7.651   3.420  0.5973  0.1360  0.9013
  255MOL0     C34323   7.782   7.590   3.469 -0.5742  0.3042 -0.4378
  255MOL0     C34324   7.777   7.449   3.466  0.0374  0.6587 -0.3385
  255MOL0     O34325   7.665   7.395   3.534 -0.0313  1.3709 -0.0114
  255MOL0     C34326   7.640   7.253   3.524 -0.0938  0.1848  0.0096
  255MOL0     C34327   7.497   7.222   3.567  0.3799  0.2783  0.0601
  255MOL0     C34328   7.400   7.320   3.500  0.2450 -0.1177 -0.2346
  255MOL0     C34329   7.259   7.336   3.571 -0.3836 -0.5898 -0.5102
  255MOL0     C34330   7.195   7.466   3.528 -0.3714 -0.3619 -0.4834
  255MOL0     C34331   7.065   7.498   3.603 -0.7669 -0.1041 -0.0485
  255MOL0     C34332   6.987   7.628   3.566  0.4362 -0.5270  0.0342
  255MOL0     C34333   6.859   7.635   3.638  0.2536  0.9326 -0.6600
  255MOL0    Cl34334   6.759   7.482   3.615  0.1078 -0.5663  0.1497
  255MOL0     C34335   7.886   7.377   3.404  0.4762 -0.3479  0.4049
  255MOL0     C34336   7.999   7.441   3.357 -0.4599 -0.2884  0.8900
  255MOL0     O34337   8.198   7.528   3.130  0.6711 -0.4239 -0.3228
  255MOL0     C34338   8.418   7.670   3.093  0.7593  0.8657 -0.4307
  255MOL0     C34339   8.524   7.759   3.083 -0.8937 -0.2251 -0.2681
  255MOL0     N34340   8.856   8.543   3.313 -0.1624 -0.0856 -0.1060
  255MOL0     N34341   8.910   8.659   3.324  0.0760  0.9500  0.4462
  255MOL0     C34342   8.482   9.139   3.596 -0.0411 -0.3552 -0.4718
  255MOL0     C34343   8.392   9.036   3.588 -0.2992  0.3632 -0.5342
  255MOL0     C34344   8.377   8.619   3.419  0.7497 -0.8488 -0.1281
  255MOL0     C34345   8.332   8.689   3.298 -0.9382  0.3681 -0.9097
  255MOL0     C34346   8.356   8.644   3.174  0.2264  0.3581 -0.3987
  255MOL0     C34347   8.430   8.527   3.158  0.7235 -0.3879  0.7573
  255MOL0     O34348   8.461   8.482   3.030  0.1958  0.3665 -0.2636
  255MOL0     C34349   8.354   8.473   2.932  0.3493  0.2623 -1.0241
  255MOL0     C34350   8.418   8.431   2.802 -0.3715 -0.8620  0.5877
  255MOL0     C34351   8.296   8.375   2.719 -0.8359 -0.0407  0.1918
  255MOL0     C34352   8.348   8.337   2.576  0.4131  0.3477  0.1224
  255MOL0     C34353   8.343   8.450   2.488  0.3427  0.3151  0.5814
  255MOL0     C34354   8.363   8.537   2.408 -0.1486 -1.1757  0.2102
  255MOL0     C34355   8.471   8.458   3.271 -0.1437 -0.1008 -0.2836
  255MOL0     C34356   8.454   8.505   3.399  1.0257  0.4811  0.0455
  255MOL0     C34357   8.519   8.434   3.511 -0.1117 -0.1578  0.5943
  255MOL0     H34358   8.582   8.786   3.461 -3.0923  1.8777 -3.6554
  255MOL0     H34359   8.761   8.975   3.495  0.1573  1.2645  0.4554
  255MOL0     H34360   8.684   9.272   3.414  1.3511 -0.1329 -1.0163
  255MOL0     H34361   8.686   9.391   3.546  3.4798  0.4446  0.8050
  255MOL0     H34362   8.909   9.349   3.603  1.9917 -0.5358  0.1298
  255MOL0     H34363   8.896   9.384   3.427 -0.4589 -0.7972 -0.0470
  255MOL0     H34364   8.947   9.111   3.544 -2.7559  0.9846  0.7135
  255MOL0     H34365   9.065   9.202   3.476  0.7145 -2.2485 -0.1270
  255MOL0     H34366   8.807   9.148   3.302  0.0829 -1.3118  1.8120
  255MOL0     H34367   8.958   9.218   3.255  3.6588 -1.5685  1.5150
  255MOL0     H34368   9.083   9.017   3.339  0.1058 -0.8253  0.1896
  255MOL0     H34369   8.928   8.929   3.365  0.0841 -0.7709 -1.1741
  255MOL0     H34370   8.859   8.927   3.168 -0.8438  2.6102  1.4637
  255MOL0     H34371   8.960   9.046   3.093  0.8322  0.0252  0.7382
  255MOL0     H34372   9.161   8.894   3.073 -1.7986  3.6517 -1.3398
  255MOL0     H34373   9.025   8.793   3.034  4.0429 -3.0160 -0.6089
  255MOL0     H34374   9.208   8.714   3.175  1.1963 -0.7697  2.0907
  255MOL0     H34375   9.141   8.791   3.323 -0.9732  0.0024  0.9601
  255MOL0     H34376   9.101   8.502   3.106  2.3531  3.5510  1.2153
  255MOL0     H34377   8.972   8.246   3.183  0.6364  0.3783  0.4580
  255MOL0     H34378   8.828   8.268   3.287  0.3868 -0.8708 -0.1149
  255MOL0     H34379   8.702   8.349   3.103 -1.5037 -2.7533  4.4032
  255MOL0     H34380   8.843   8.356   3.002  0.3550  1.4434  0.3982
  255MOL0     H34381   8.867   8.090   3.050  0.2358  0.6337  3.0127
  255MOL0     H34382   8.726   8.134   2.954 -1.5683  0.4240  0.1018
  255MOL0     H34383   8.584   8.128   3.169 -2.7680 -2.7127  0.3329
  255MOL0     H34384   8.720   8.082   3.263 -1.8416  1.0710 -0.0217
  255MOL0     H34385   8.455   8.011   3.301  0.6517 -1.1318  1.2448
  255MOL0     H34386   8.246   7.874   3.314 -1.0328 -1.4729 -0.8147
  255MOL0     H34387   7.923   7.756   3.430 -0.4592  0.6275 -0.7594
  255MOL0     H34388   7.706   7.648   3.520  0.0516  1.3179 -0.6118
  255MOL0     H34389   7.658   7.228   3.419  2.0647  4.2267 -0.8186
  255MOL0     H34390   7.708   7.191   3.583 -0.2504  1.0468  1.1282
  255MOL0     H34391   7.456   7.122   3.550 -1.3083  0.7443  1.0675
  255MOL0     H34392   7.480   7.232   3.674 -5.0203  0.2082 -0.4929
  255MOL0     H34393   7.438   7.422   3.494 -0.3500  0.1326  0.0836
  255MOL0     H34394   7.382   7.284   3.399  0.4969 -0.1101 -0.2810
  255MOL0     H34395   7.276   7.336   3.679  1.4976 -0.3814 -0.7751
  255MOL0     H34396   7.197   7.249   3.547 -1.4707  0.6472 -2.4485
  255MOL0     H34397   7.175   7.472   3.421  0.8760  0.4425 -0.6931
  255MOL0     H34398   7.259   7.551   3.555  2.8011 -2.6615 -0.1513
  255MOL0     H34399   6.995   7.417   3.580 -0.9239  0.1786 -0.5800
  255MOL0     H34400   7.088   7.501   3.710 -0.2250  3.7528 -0.1601
  255MOL0     H34401   6.970   7.637   3.458  1.7953 -0.5310 -0.2003
  255MOL0     H34402   7.055   7.708   3.596  1.7391 -3.1051  5.0736
  255MOL0     H34403   6.871   7.635   3.747  2.1194  0.4555 -0.8399
  255MOL0     H34404   6.804   7.723   3.603  0.0216  0.7212 -0.8325
  255MOL0     H34405   7.873   7.270   3.393  1.5185 -0.5707  1.2226
  255MOL0     H34406   8.074   7.392   3.297 -0.7281 -0.3971  0.6374
  255MOL0     H34407   8.411   7.577   3.038 -2.9586 -0.2675  1.6336
  255MOL0     H34408   8.605   7.737   3.014  1.6115  3.8767  1.0205
  255MOL0     H34409   8.453   9.241   3.617 -3.3005 -1.6023  1.9635
  255MOL0     H34410   8.288   9.058   3.609 -0.9928 -0.4392 -2.8371
  255MOL0     H34411   8.277   8.782   3.296  1.1478  1.7597  1.1105
  255MOL0     H34412   8.332   8.710   3.092 -2.4221  1.2466  0.9583
  255MOL0     H34413   8.288   8.559   2.924 -2.0860 -1.6464 -2.9947
  255MOL0     H34414   8.287   8.395   2.970 -1.4791  3.4734  3.1835
  255MOL0     H34415   8.492   8.352   2.816  0.7021 -0.0374 -0.2981
  255MOL0     H34416   8.467   8.512   2.747 -1.8109  0.0183  0.5587
  255MOL0     H34417   8.215   8.447   2.708 -0.8191 -0.3170 -2.5053
  255MOL0     H34418   8.258   8.285   2.769 -0.8446 -0.5624 -0.7260
  255MOL0     H34419   8.451   8.305   2.594  1.0057  2.5009  0.8252
  255MOL0     H34420   8.288   8.253   2.538 -0.4797  0.8042  0.4859
  255MOL0     H34421   8.393   8.611   2.336  1.6271 -0.4126  1.6502
  255MOL0     H34422   8.534   8.370   3.259  1.0248  0.4701  1.2730
  255MOL0     H34423   8.582   8.499   3.572  2.2727  0.4293 -2.2659
  255MOL0     H34424   8.443   8.380   3.569 -1.3492  0.4787 -0.3865
  255MOL0     H34425   8.589   8.357   3.477  1.3967  1.8502 -1.0794
  256MOL0     O34426   3.226   2.916   8.659  0.1119  0.3321 -0.3857
  256MOL0     C34427   3.133   2.999   8.629 -0.2724 -0.4357  0.0528
  256MOL0     O34428   3.130   3.130   8.650 -0.5177  0.7055  0.4734
  256MOL0     C34429   3.239   3.201   8.666  0.7086 -0.6571  0.2844
  256MOL0     C34430   3.361   3.176   8.603  0.2876  0.0712  0.1363
  256MOL0     C34431   3.475   3.246   8.633 -0.1131 -1.1060  0.1418
  256MOL0     C34432   3.466   3.367   8.707  0.1748 -0.4716  0.0780
  256MOL0     O34433   3.562   3.466   8.735 -0.0548  0.6821  0.1981
  256MOL0     C34434   3.702   3.438   8.703  0.3098  0.8506 -0.4539
  256MOL0     C34435   3.740   3.457   8.561 -0.1618 -0.2706  0.2017
  256MOL0     C34436   3.889   3.417   8.542 -0.4256  0.1527  0.2770
  256MOL0     C34437   3.944   3.441   8.403  0.1481  0.4810  0.2110
  256MOL0     C34438   4.095   3.467   8.421 -0.1537  0.9433  0.4468
  256MOL0     C34439   4.165   3.488   8.291  0.8184 -0.4170  0.4937
  256MOL0     C34440   4.320   3.510   8.323  0.1521 -0.1302 -0.4002
  256MOL0     C34441   4.398   3.559   8.200  0.3435  0.6391 -0.2422
  256MOL0     N34442   4.542   3.580   8.216 -0.2211 -0.5310  0.4552
  256MOL0     C34443   4.637   3.528   8.138 -0.7512 -0.6808  0.5844
  256MOL0     C34444   4.751   3.599   8.161 -0.4263 -0.3788 -0.4453
  256MOL0     C34445   4.889   3.563   8.113  0.1258  0.9173  0.4140
  256MOL0     C34446   4.947   3.450   8.202  0.1594  0.0953  0.2355
  256MOL0     C34447   4.984   3.474   8.352  0.1413 -0.0436 -0.1061
  256MOL0     C34448   4.869   3.472   8.453 -0.8585 -0.0248  0.2354
  256MOL0     O34449   4.787   3.360   8.418 -0.2986  0.3535 -0.5805
  256MOL0     C34450   4.694   3.319   8.507 -0.6382  0.3585  1.4074
  256MOL0     C34451   4.648   3.394   8.616 -0.1910  0.2405  0.6673
  256MOL0     C34452   4.538   3.358   8.685 -0.3198  0.0863  0.0453
  256MOL0     C34453   4.460   3.246   8.653 -0.1143 -0.3677  0.5076
  256MOL0     C34454   4.328   3.226   8.726 -0.4334 -0.2700 -0.5781
  256MOL0     O34455   4.235   3.134   8.679  0.5893 -0.0172  0.5667
  256MOL0     C34456   4.121   3.094   8.751 -0.2955 -0.0687 -0.3144
  256MOL0     C34457   4.031   3.186   8.802  1.2557  0.4112 -0.5224
  256MOL0     C34458   3.911   3.141   8.867  0.2267  0.2933  0.2138
  256MOL0     C34459   3.888   3.006   8.879 -0.2609  0.6913 -1.1555
  256MOL0     O34460   3.774   2.941   8.923 -0.2496 -0.6257  0.0067
  256MOL0     C34461   3.651   3.004   8.947 -0.1380 -0.1291  0.4065
  256MOL0     C34462   3.627   3.050   9.092  0.2063  0.4311 -0.0987
  256MOL0     C34463   3.491   3.109   9.099 -0.1918 -0.8306 -0.3090
  256MOL0     C34464   3.373   3.012   9.077 -0.3458  0.0664  0.3011
  256MOL0     C34465   3.249   3.080   9.106  0.6096  0.4209 -0.3965
  256MOL0     C34466   3.128   2.984   9.082 -0.2350 -0.2923 -0.1782
  256MOL0     C34467   2.999   3.049   9.117  0.0624  0.6337 -0.1303
  256MOL0     C34468   2.902   2.959   9.200  0.2366 -0.0396  0.1695
  256MOL0    Cl34469   2.955   2.912   9.358  0.0642  0.4989 -0.0692
  256MOL0     C34470   3.986   2.915   8.842  0.6560 -0.1276 -0.0732
  256MOL0     C34471   4.100   2.960   8.777 -0.0509  0.6394  0.7329
  256MOL0     O34472   4.310   3.301   8.819  0.0041  0.5130 -0.6526
  256MOL0     C34473   4.505   3.163   8.555  0.2490 -0.6025 -1.1232
  256MOL0     C34474   4.621   3.203   8.481 -0.2284 -1.0354  0.1731
  256MOL0     N34475   4.726   3.697   8.252 -0.1811  0.3090  0.4890
  256MOL0     N34476   4.607   3.674   8.289 -0.6215  0.2491 -0.4303
  256MOL0     C34477   3.338   3.407   8.747 -0.0059  0.2982 -0.0116
  256MOL0     C34478   3.231   3.322   8.739  0.1746 -0.4289  0.0862
  256MOL0     C34479   3.004   2.940   8.579  0.1494 -0.1481 -0.0740
  256MOL0     C34480   3.005   2.799   8.546 -0.0732  0.2264  0.0811
  256MOL0     C34481   2.899   2.733   8.494 -0.0632  0.5485 -0.5027
  256MOL0     C34482   2.776   2.807   8.472  0.0988 -0.1373  0.0756
  256MOL0     O34483   2.665   2.741   8.421  0.5162  0.0434 -0.0154
  256MOL0     C34484   2.657   2.597   8.392 -0.3136  0.8306 -0.4085
  256MOL0     C34485   2.540   2.555   8.314  0.3447 -0.1701 -0.2839
  256MOL0     C34486   2.410   2.601   8.394 -0.1320 -0.0234  0.2662
  256MOL0     C34487   2.286   2.577   8.298  0.3062  0.0102  0.5468
  256MOL0     C34488   2.157   2.593   8.379  0.1243 -0.5730  0.7132
  256MOL0     C34489   2.057   2.591   8.444 -0.1609 -0.2329 -0.4451
  256MOL0     C34490   2.768   2.942   8.505 -0.2895 -0.5131 -0.6235
  256MOL0     C34491   2.885   3.008   8.551 -0.2881  0.9736 -0.1425
  256MOL0     C34492   2.849   3.152   8.599 -0.4077  0.2896  0.1963
  256MOL0     H34493   3.369   3.093   8.534  1.4245  0.8387 -0.6881
  256MOL0     H34494   3.574   3.208   8.607 -0.6092 -3.0022  0.8253
  256MOL0     H34495   3.777   3.495   8.758  1.7941 -0.9659 -0.5140
  256MOL0     H34496   3.722   3.335   8.733 -0.6829  0.2843 -1.6221
  256MOL0     H34497   3.726   3.562   8.534 -1.5823  0.2442  2.6810
  256MOL0     H34498   3.683   3.391   8.495  1.0456 -2.3362  1.1526
  256MOL0     H34499   3.897   3.311   8.568  5.1789  0.2548  0.2222
  256MOL0     H34500   3.945   3.473   8.617 -2.6184  1.6056  0.9419
  256MOL0     H34501   3.922   3.350   8.347 -0.2568  2.2649 -2.7812
  256MOL0     H34502   3.901   3.528   8.352 -0.8038 -0.5657 -0.8358
  256MOL0     H34503   4.105   3.562   8.474  0.7376  1.7147 -1.0106
  256MOL0     H34504   4.138   3.382   8.474 -0.7911 -0.3048 -0.9671
  256MOL0     H34505   4.156   3.407   8.219  0.9759  0.2283 -0.2581
  256MOL0     H34506   4.122   3.582   8.256 -1.0180  0.2024  3.9359
  256MOL0     H34507   4.367   3.417   8.358 -1.0324  0.4560  3.1681
  256MOL0     H34508   4.333   3.590   8.396  0.1394  0.7462 -1.3271
  256MOL0     H34509   4.396   3.480   8.125 -0.3973 -0.0974  0.5349
  256MOL0     H34510   4.347   3.646   8.159 -0.0275 -0.3267 -1.8978
  256MOL0     H34511   4.620   3.450   8.065 -2.7512 -0.8036  1.1309
  256MOL0     H34512   4.884   3.532   8.008  0.2907  1.7194  0.1624
  256MOL0     H34513   4.950   3.654   8.116 -3.0001  3.2977 -1.7691
  256MOL0     H34514   4.874   3.370   8.188  1.5750 -0.9455 -1.7024
  256MOL0     H34515   5.041   3.413   8.160  0.5099 -0.3003  1.3189
  256MOL0     H34516   5.050   3.561   8.356  0.2560 -0.1403  0.1079
  256MOL0     H34517   5.043   3.387   8.382  0.9524  0.0521 -1.3763
  256MOL0     H34518   4.814   3.567   8.454  0.9844  1.1610 -1.7496
  256MOL0     H34519   4.923   3.456   8.547 -1.2329 -1.9668  0.1436
  256MOL0     H34520   4.703   3.480   8.653  1.0287 -0.4454  0.5252
  256MOL0     H34521   4.520   3.426   8.768 -0.8346  4.1647 -3.1352
  256MOL0     H34522   4.044   3.286   8.762  0.8997  0.0630 -1.5506
  256MOL0     H34523   3.838   3.216   8.896  1.0456  1.5694 -0.9083
  256MOL0     H34524   3.637   3.081   8.872  0.7799 -1.8508 -1.6491
  256MOL0     H34525   3.581   2.920   8.938  0.8668 -0.9413 -0.0668
  256MOL0     H34526   3.640   2.970   9.166 -0.5706  0.1164 -0.2985
  256MOL0     H34527   3.683   3.138   9.125 -1.3032  2.8879 -3.5345
  256MOL0     H34528   3.477   3.154   9.198  0.1464 -2.7143  0.6244
  256MOL0     H34529   3.499   3.196   9.033  1.0937 -2.4069 -2.3207
  256MOL0     H34530   3.386   2.929   9.146  1.5590  1.5377  1.8255
  256MOL0     H34531   3.368   2.968   8.977 -1.9925  1.4452 -0.2816
  256MOL0     H34532   3.239   3.176   9.055  1.1311  0.4750 -0.4013
  256MOL0     H34533   3.255   3.104   9.212  2.4013  1.3214 -0.6636
  256MOL0     H34534   3.124   2.962   8.975  0.1856 -2.7976  0.2391
  256MOL0     H34535   3.140   2.894   9.144  0.2225 -1.2694 -1.6371
  256MOL0     H34536   2.953   3.070   9.020  1.5876  1.3846 -0.7196
  256MOL0     H34537   3.019   3.143   9.170  1.3451  0.4360 -0.2283
  256MOL0     H34538   2.809   3.017   9.205  0.8594  1.0476 -0.3833
  256MOL0     H34539   2.880   2.868   9.144  1.3156  0.4898 -1.1918
  256MOL0     H34540   3.971   2.809   8.863  2.5276 -0.5643 -0.7693
  256MOL0     H34541   4.181   2.890   8.759  1.2534  1.6309  2.3903
  256MOL0     H34542   4.448   3.076   8.525  0.4735 -0.7830 -1.0344
  256MOL0     H34543   4.645   3.138   8.398 -2.2885 -3.3494  1.2416
  256MOL0     H34544   3.323   3.505   8.791 -0.6651 -0.6343  1.9982
  256MOL0     H34545   3.135   3.366   8.762 -1.8947 -3.7050 -1.4777
  256MOL0     H34546   3.097   2.744   8.566 -0.1708 -0.8080 -2.0135
  256MOL0     H34547   2.918   2.631   8.463  1.3316  0.6877 -0.1662
  256MOL0     H34548   2.639   2.553   8.490 -0.4165  0.8280 -0.4299
  256MOL0     H34549   2.748   2.548   8.355 -1.5921 -2.0635  0.0030
  256MOL0     H34550   2.536   2.447   8.296  2.9190 -0.3465 -0.1420
  256MOL0     H34551   2.539   2.605   8.216 -0.1273  1.3361  0.4695
  256MOL0     H34552   2.421   2.707   8.417  1.6970 -0.6199  2.4575
  256MOL0     H34553   2.401   2.544   8.487 -1.8527 -1.1785 -0.5505
  256MOL0     H34554   2.301   2.643   8.212 -2.5156 -0.3546 -0.3112
  256MOL0     H34555   2.283   2.476   8.255 -0.1275  1.3826 -3.0363
  256MOL0     H34556   1.961   2.595   8.491  0.8659  2.5205  1.6544
  256MOL0     H34557   2.678   2.998   8.481 -0.9741 -1.8534 -1.3027
  256MOL0     H34558   2.749   3.187   8.574 -1.6108 -2.4073  0.8789
  256MOL0     H34559   2.860   3.161   8.708  1.3625 -2.3485  0.3487
  256MOL0     H34560   2.919   3.220   8.550  1.4006 -1.0672  0.7826
  257MOL0     O34561  10.202   8.364   5.179 -0.1437  0.1067 -0.4826
  257MOL0     C34562  10.174   8.446   5.264  0.1379 -0.2059 -0.2184
  257MOL0     O34563  10.251   8.549   5.298  0.0556 -0.5867  0.0064
  257MOL0     C34564  10.388   8.553   5.294  0.2791  0.0238 -0.7248
  257MOL0     C34565  10.474   8.442   5.276 -0.2747 -0.3280  0.0421
  257MOL0     C34566  10.610   8.459   5.295 -0.0234 -0.5541  0.3766
  257MOL0     C34567  10.661   8.585   5.331 -0.1843 -0.1715 -0.6199
  257MOL0     O34568  10.797   8.617   5.343 -0.3359  0.1116 -0.3284
  257MOL0     C34569  10.888   8.510   5.317  0.0581  0.6905 -0.2646
  257MOL0     C34570  11.022   8.576   5.291  0.4458  0.0396  0.0249
  257MOL0     C34571  11.131   8.469   5.270  0.0233  0.4017  0.3875
  257MOL0     C34572  11.256   8.524   5.199 -0.1219  0.5791 -0.8523
  257MOL0     C34573  11.385   8.470   5.266 -0.4381  0.1309  0.6036
  257MOL0     C34574  11.515   8.482   5.192 -0.0534 -0.2289 -0.1671
  257MOL0     C34575  11.557   8.623   5.164  0.4684 -0.4853  0.9144
  257MOL0     C34576  11.626   8.685   5.285 -1.0577 -1.1096 -1.0585
  257MOL0     N34577  11.765   8.707   5.273 -0.0099  0.0593  0.0868
  257MOL0     C34578  11.872   8.639   5.331  0.0397 -0.5225  0.4338
  257MOL0     C34579  11.986   8.678   5.269 -0.4372 -0.5395  0.0325
  257MOL0     C34580  12.128   8.622   5.308  0.4012  0.2967  0.3272
  257MOL0     C34581  12.189   8.690   5.427  0.0681  0.2691  0.4886
  257MOL0     C34582  12.326   8.625   5.460  0.0576 -0.1683 -0.3187
  257MOL0     C34583  12.390   8.719   5.569 -0.5090  0.0242  0.0403
  257MOL0     O34584  12.486   8.805   5.495  0.3431 -0.5209  0.0029
  257MOL0     C34585  12.621   8.779   5.517  0.5170 -0.6087  0.7025
  257MOL0     C34586  12.675   8.789   5.651 -0.3335 -0.3998  0.1628
  257MOL0     C34587  12.817   8.783   5.669  0.5876 -0.1425 -0.1846
  257MOL0     C34588  12.901   8.742   5.568  0.1181 -0.6947  0.5845
  257MOL0     C34589  13.035   8.730   5.602  0.5022 -0.3720  0.4911
  257MOL0     O34590  13.065   8.701   5.730 -0.7526  0.0848 -0.3324
  257MOL0     C34591  13.177   8.629   5.761  0.4527 -0.2737  0.0454
  257MOL0     C34592  13.272   8.572   5.675  0.1374  0.6630 -0.1475
  257MOL0     C34593  13.398   8.537   5.729  0.1439  0.2074 -0.6344
  257MOL0     C34594  13.422   8.550   5.866 -0.6077  0.3058 -0.3819
  257MOL0     O34595  13.551   8.508   5.912  0.4934  0.4752  0.3191
  257MOL0     C34596  13.627   8.620   5.951 -0.1157 -0.0072 -0.6350
  257MOL0     C34597  13.750   8.579   6.032 -0.0382 -0.1326 -0.6208
  257MOL0     C34598  13.874   8.548   5.953  0.3979  0.0455 -0.7378
  257MOL0     C34599  13.999   8.580   6.028 -0.2930  0.3821 -0.0005
  257MOL0     C34600  14.118   8.584   5.931 -0.2994  0.1340  1.0958
  257MOL0     C34601  14.179   8.443   5.926 -0.4253 -0.0303  1.4994
  257MOL0     C34602  14.302   8.446   5.826  0.2618 -0.6438  0.6129
  257MOL0     C34603  14.355   8.310   5.784  0.5544 -0.3614 -1.0674
  257MOL0    Cl34604  14.495   8.327   5.677 -0.6859 -0.1836 -0.2090
  257MOL0     C34605  13.327   8.588   5.955 -0.4616 -0.5202 -0.4842
  257MOL0     C34606  13.206   8.628   5.898 -0.2536  0.2915 -0.6662
  257MOL0     O34607  13.106   8.726   5.503 -0.3085 -0.2724  0.2844
  257MOL0     C34608  12.850   8.739   5.436  0.5357  0.2424  0.2757
  257MOL0     C34609  12.709   8.750   5.412 -0.9268  0.5533 -0.5064
  257MOL0     N34610  11.952   8.771   5.172  0.5324 -0.0001 -0.6547
  257MOL0     N34611  11.827   8.788   5.177  0.7472  0.1179 -0.0277
  257MOL0     C34612  10.574   8.691   5.342 -0.5441  0.0474  0.7002
  257MOL0     C34613  10.439   8.678   5.339 -0.5103 -1.1488  1.0557
  257MOL0     C34614  10.031   8.440   5.302 -0.1221 -0.2381  0.5056
  257MOL0     C34615   9.966   8.318   5.317  0.2557  0.2320  0.0339
  257MOL0     C34616   9.832   8.305   5.355 -1.1857  0.0072 -0.4953
  257MOL0     C34617   9.758   8.421   5.387  1.6018  0.5218  0.4584
  257MOL0     O34618   9.632   8.411   5.433 -0.5130  0.3180  0.4795
  257MOL0     C34619   9.542   8.374   5.335  0.1359  0.3962  0.0222
  257MOL0     C34620   9.408   8.349   5.388  0.3557  0.1343 -0.2773
  257MOL0     C34621   9.305   8.314   5.280 -0.0525  0.4298  0.5388
  257MOL0     C34622   9.172   8.261   5.344 -0.8410  0.4344  0.2327
  257MOL0     C34623   9.073   8.212   5.252 -0.5027  0.4341 -0.5146
  257MOL0     C34624   8.985   8.174   5.178 -0.2294  0.4400  0.5810
  257MOL0     C34625   9.816   8.547   5.367 -0.4381  0.1848  0.3965
  257MOL0     C34626   9.951   8.550   5.318  0.3710  0.1107 -0.4965
  257MOL0     C34627   9.996   8.696   5.286  0.1529  0.3066  0.6671
  257MOL0     H34628  10.434   8.342   5.263 -1.6540  0.1708  0.2249
  257MOL0     H34629  10.671   8.369   5.286  0.3802 -0.1525 -1.0838
  257MOL0     H34630  10.897   8.443   5.403 -0.9787  0.3693 -0.3992
  257MOL0     H34631  10.868   8.453   5.226  0.5979  1.5539 -0.9346
  257MOL0     H34632  11.054   8.641   5.373  0.1438 -1.1368  1.1222
  257MOL0     H34633  11.011   8.644   5.206 -0.1483  2.5769  2.0105
  257MOL0     H34634  11.092   8.387   5.209 -0.1508  1.4082 -0.9044
  257MOL0     H34635  11.156   8.441   5.373 -2.3876  0.8215  1.1625
  257MOL0     H34636  11.261   8.503   5.092 -0.2660  0.7320 -0.8886
  257MOL0     H34637  11.254   8.631   5.220  0.2009  0.4422 -0.0745
  257MOL0     H34638  11.401   8.515   5.365 -0.2193 -3.1498  2.1907
  257MOL0     H34639  11.367   8.366   5.293  1.0886 -0.9942 -2.2937
  257MOL0     H34640  11.603   8.451   5.249  3.3358  4.0571 -2.4959
  257MOL0     H34641  11.513   8.432   5.095 -2.0229 -2.7185  1.0386
  257MOL0     H34642  11.468   8.680   5.136 -0.4202 -3.3870 -2.8499
  257MOL0     H34643  11.618   8.627   5.074 -0.3796 -3.9387  0.0606
  257MOL0     H34644  11.588   8.782   5.318  1.3188 -0.5403  0.2317
  257MOL0     H34645  11.615   8.621   5.373 -1.3142 -1.6384 -1.4682
  257MOL0     H34646  11.859   8.570   5.414 -0.7889 -1.1199 -0.1757
  257MOL0     H34647  12.119   8.513   5.319  2.0315  0.0672 -0.2586
  257MOL0     H34648  12.196   8.634   5.223  1.6844 -3.9209  0.5305
  257MOL0     H34649  12.205   8.796   5.405  1.5924 -0.5161 -2.7922
  257MOL0     H34650  12.126   8.678   5.516 -1.9018  2.3652 -0.5281
  257MOL0     H34651  12.389   8.617   5.371 -1.0516 -2.2155 -0.9750
  257MOL0     H34652  12.305   8.530   5.509  0.0360 -0.0619 -0.1175
  257MOL0     H34653  12.442   8.654   5.640 -2.0047  0.6358  1.7699
  257MOL0     H34654  12.319   8.774   5.631  0.9147  0.6082  1.1990
  257MOL0     H34655  12.607   8.811   5.733 -0.3754 -1.1728  0.3413
  257MOL0     H34656  12.842   8.806   5.772  0.0598  3.2794 -0.7307
  257MOL0     H34657  13.246   8.556   5.571 -2.8051  0.9954  0.4656
  257MOL0     H34658  13.474   8.493   5.664  0.1314  0.5882 -0.9114
  257MOL0     H34659  13.662   8.664   5.858  0.3914 -1.1201 -0.9922
  257MOL0     H34660  13.573   8.696   6.008 -1.5326  0.0503 -2.0065
  257MOL0     H34661  13.773   8.667   6.093  0.0845  0.8170 -1.9986
  257MOL0     H34662  13.741   8.494   6.101 -3.9900  1.2992  0.9355
  257MOL0     H34663  13.868   8.441   5.935  1.1806 -0.2113  0.4522
  257MOL0     H34664  13.865   8.604   5.859 -0.1932  1.9672  0.3911
  257MOL0     H34665  14.016   8.506   6.106 -1.1668  0.0762 -0.0961
  257MOL0     H34666  13.992   8.680   6.071  2.5240 -0.0846  1.8617
  257MOL0     H34667  14.179   8.665   5.971  0.9066 -0.2613  0.1582
  257MOL0     H34668  14.085   8.615   5.831  1.7704 -0.1630  0.2569
  257MOL0     H34669  14.210   8.416   6.027  2.3328  1.0455  1.0394
  257MOL0     H34670  14.108   8.365   5.895  0.0234  0.7249 -1.8068
  257MOL0     H34671  14.384   8.509   5.863  0.3571 -0.8916  0.8202
  257MOL0     H34672  14.268   8.493   5.733  0.9297 -0.0382  0.6589
  257MOL0     H34673  14.376   8.254   5.876  2.5726 -2.2289 -2.5571
  257MOL0     H34674  14.278   8.260   5.723 -0.9328  0.0640  0.3904
  257MOL0     H34675  13.345   8.582   6.062 -2.6451  2.7059  0.2212
  257MOL0     H34676  13.124   8.654   5.963  0.6882  2.1550 -0.1691
  257MOL0     H34677  12.910   8.724   5.346 -0.3789  1.4618 -0.5715
  257MOL0     H34678  12.689   8.735   5.306 -0.5058 -6.5098 -0.0396
  257MOL0     H34679  10.622   8.785   5.366 -2.7760  1.8514 -1.4246
  257MOL0     H34680  10.361   8.752   5.356 -0.2429 -0.8871  1.1526
  257MOL0     H34681  10.008   8.219   5.304  2.1683  0.8585  1.0840
  257MOL0     H34682   9.787   8.206   5.345  1.0725 -1.2790  1.0840
  257MOL0     H34683   9.585   8.284   5.290  1.1289  1.3499 -0.9964
  257MOL0     H34684   9.534   8.455   5.261 -1.1295 -1.2700 -1.7844
  257MOL0     H34685   9.367   8.427   5.453 -2.8056 -0.4083 -1.4513
  257MOL0     H34686   9.422   8.255   5.441  0.7003 -0.7448 -1.8614
  257MOL0     H34687   9.354   8.243   5.213  0.2928  1.2892 -0.1547
  257MOL0     H34688   9.286   8.399   5.214  1.1335  0.1459 -0.2044
  257MOL0     H34689   9.191   8.192   5.426 -1.3482  1.8238  1.5884
  257MOL0     H34690   9.130   8.350   5.393  0.0686  0.7627  0.4467
  257MOL0     H34691   8.899   8.139   5.126 -0.9468  2.1695  0.5373
  257MOL0     H34692   9.751   8.632   5.386 -2.1306 -1.0070  0.1800
  257MOL0     H34693  10.072   8.727   5.359  1.2212  0.3898 -0.4544
  257MOL0     H34694  10.046   8.695   5.189  0.8596 -2.3683  0.9818
  257MOL0     H34695   9.908   8.761   5.296 -1.2751 -1.6273  1.3537
  258MOL0     O34696   5.350   8.571   5.570  0.2704  0.7153  0.1376
  258MOL0     C34697   5.303   8.658   5.647 -0.9096  0.0987  0.6261
  258MOL0     O34698   5.376   8.760   5.704 -0.2148 -0.2636 -0.6757
  258MOL0     C34699   5.514   8.750   5.724  0.5558  0.8747 -0.6346
  258MOL0     C34700   5.571   8.628   5.767 -0.3554 -0.1615  0.7831
  258MOL0     C34701   5.707   8.610   5.789  0.3483 -0.4344 -0.7137
  258MOL0     C34702   5.790   8.726   5.784 -0.5269 -0.2916 -0.3460
  258MOL0     O34703   5.928   8.735   5.795  0.2807  0.1742 -0.4571
  258MOL0     C34704   6.007   8.620   5.783  0.1868 -0.6626 -0.4447
  258MOL0     C34705   6.150   8.654   5.737 -0.7090 -0.7938  0.5197
  258MOL0     C34706   6.214   8.741   5.845 -0.4836  0.3808 -0.2607
  258MOL0     C34707   6.360   8.770   5.800  0.2356  0.3460 -0.1864
  258MOL0     C34708   6.444   8.856   5.898 -0.4665  0.7664  0.2199
  258MOL0     C34709   6.465   8.815   6.043  0.0465  0.4249  0.1309
  258MOL0     C34710   6.470   8.940   6.136 -0.9667  0.9057  0.5802
  258MOL0     C34711   6.578   9.038   6.120  0.3132 -0.1591 -0.6147
  258MOL0     N34712   6.592   9.138   6.225  0.1843 -0.6413  1.1756
  258MOL0     C34713   6.491   9.188   6.301  0.7585 -0.4691 -0.4023
  258MOL0     C34714   6.546   9.278   6.383 -0.5028 -0.1483  0.4139
  258MOL0     C34715   6.474   9.342   6.503  1.0734  0.0635 -0.0616
  258MOL0     C34716   6.357   9.257   6.560 -1.1824 -0.5288 -0.2762
  258MOL0     C34717   6.218   9.289   6.516 -0.1939  0.2951 -0.0096
  258MOL0     C34718   6.122   9.203   6.609  0.2152 -0.0307  0.4932
  258MOL0     O34719   5.999   9.173   6.539  0.0462  0.0873 -0.1610
  258MOL0     C34720   5.897   9.111   6.603  0.1638  0.3831 -0.4833
  258MOL0     C34721   5.910   9.041   6.728 -0.1504  0.2730  0.1746
  258MOL0     C34722   5.803   8.981   6.785  0.0608  0.5879 -0.1748
  258MOL0     C34723   5.675   8.975   6.716  0.4112 -0.6770 -0.0786
  258MOL0     C34724   5.562   8.914   6.792  1.0726 -0.3685  1.3150
  258MOL0     O34725   5.435   8.943   6.740  0.2216 -0.1354 -0.3982
  258MOL0     C34726   5.322   8.901   6.809 -0.2564 -0.3671 -1.4186
  258MOL0     C34727   5.200   8.938   6.743  0.3123 -0.3951  0.4828
  258MOL0     C34728   5.079   8.909   6.796  0.0389  0.2907  0.2365
  258MOL0     C34729   5.075   8.844   6.922 -0.0180 -0.4033 -0.4251
  258MOL0     O34730   4.964   8.798   6.991 -0.5614  0.0200 -0.2728
  258MOL0     C34731   4.842   8.855   6.956  0.5319 -0.7965 -0.0956
  258MOL0     C34732   4.770   8.797   6.833 -0.4117  0.2060  0.3465
  258MOL0     C34733   4.713   8.654   6.859  0.2610  0.4364  1.1362
  258MOL0     C34734   4.633   8.576   6.744 -0.6124 -0.7166  0.0315
  258MOL0     C34735   4.547   8.460   6.796 -0.6348 -0.1276  0.1749
  258MOL0     C34736   4.628   8.370   6.888 -0.1176  0.6614 -0.8683
  258MOL0     C34737   4.548   8.265   6.974 -0.2006 -0.0358 -0.0813
  258MOL0     C34738   4.629   8.147   7.031  0.0339  0.5367 -0.7098
  258MOL0    Cl34739   4.508   8.043   7.093  0.2476 -0.3613 -0.1354
  258MOL0     C34740   5.193   8.814   6.991  0.2892  0.3281  0.5969
  258MOL0     C34741   5.317   8.846   6.940 -0.3896  1.3714  0.6540
  258MOL0     O34742   5.590   8.828   6.875  0.2474  0.5949  0.2047
  258MOL0     C34743   5.659   9.044   6.591  0.4866  0.1260 -1.2328
  258MOL0     C34744   5.768   9.103   6.540 -0.3967  0.4052 -0.6074
  258MOL0     N34745   6.677   9.287   6.350  0.4381  0.2928 -0.2565
  258MOL0     N34746   6.703   9.202   6.254 -0.5074 -0.4547 -0.1639
  258MOL0     C34747   5.732   8.848   5.751  0.6134 -0.1232 -0.0636
  258MOL0     C34748   5.598   8.864   5.723 -0.4694  0.1450 -0.1915
  258MOL0     C34749   5.161   8.664   5.679  1.0444 -0.2448  0.8489
  258MOL0     C34750   5.116   8.791   5.715 -0.0626 -0.7407 -0.2388
  258MOL0     C34751   4.987   8.805   5.753  0.2140 -0.4924 -0.5643
  258MOL0     C34752   4.894   8.704   5.749  0.1506  0.7594  0.3730
  258MOL0     O34753   4.769   8.739   5.788  0.2716  1.0539  0.0493
  258MOL0     C34754   4.661   8.639   5.797 -0.1016  0.5797 -0.1374
  258MOL0     C34755   4.534   8.705   5.841 -0.7215  0.0866 -0.1551
  258MOL0     C34756   4.430   8.599   5.861  0.4938  0.2068 -0.9072
  258MOL0     C34757   4.372   8.563   5.725  0.0472 -0.1063  0.3720
  258MOL0     C34758   4.272   8.456   5.759 -0.0590  0.0081 -0.3206
  258MOL0     C34759   4.196   8.371   5.799  0.5785  0.2637  0.1601
  258MOL0     C34760   4.936   8.570   5.707  0.0119 -0.0773  1.0640
  258MOL0     C34761   5.074   8.554   5.670  0.4821 -0.4815  0.2091
  258MOL0     C34762   5.118   8.413   5.639  0.4311  0.5100  0.2215
  258MOL0     H34763   5.503   8.544   5.776 -0.1764 -0.5252 -0.8743
  258MOL0     H34764   5.737   8.511   5.820  1.6154  0.3763  0.8310
  258MOL0     H34765   6.016   8.581   5.885 -4.1551 -2.1216 -0.3847
  258MOL0     H34766   5.956   8.545   5.722  0.2151 -0.3421 -0.8725
  258MOL0     H34767   6.156   8.700   5.638 -0.6899 -1.4523  0.2120
  258MOL0     H34768   6.216   8.566   5.734  1.6389  0.8829 -1.2061
  258MOL0     H34769   6.212   8.687   5.940  0.5858  2.7158  1.1823
  258MOL0     H34770   6.155   8.832   5.861 -1.0770 -0.0534  0.0430
  258MOL0     H34771   6.409   8.675   5.778 -1.5360 -0.6120 -0.1733
  258MOL0     H34772   6.367   8.827   5.707 -0.8422  1.3571  0.3094
  258MOL0     H34773   6.535   8.879   5.842 -1.3492 -0.5309 -1.8632
  258MOL0     H34774   6.387   8.949   5.900  1.9243  2.3540 -1.4513
  258MOL0     H34775   6.394   8.739   6.077 -0.8433  1.5793  0.9182
  258MOL0     H34776   6.566   8.771   6.043  0.6514  1.6682 -1.6589
  258MOL0     H34777   6.485   8.899   6.236  1.3087 -1.3257 -0.5639
  258MOL0     H34778   6.369   8.982   6.137 -1.9066 -0.9992 -1.9452
  258MOL0     H34779   6.671   8.983   6.109  0.2744 -0.3148 -0.1788
  258MOL0     H34780   6.557   9.086   6.024 -1.5281  0.1141 -0.1266
  258MOL0     H34781   6.386   9.159   6.306 -0.2927  2.9147 -0.7486
  258MOL0     H34782   6.552   9.349   6.578 -0.0266  1.1695  1.0286
  258MOL0     H34783   6.453   9.449   6.487 -0.5128 -0.0364  1.1071
  258MOL0     H34784   6.390   9.154   6.542  0.2785 -0.1205 -0.0366
  258MOL0     H34785   6.363   9.265   6.669  2.0882  1.9445 -0.4817
  258MOL0     H34786   6.208   9.263   6.410  1.5634  2.9767 -0.9447
  258MOL0     H34787   6.181   9.391   6.535  1.0056  0.6547  0.4484
  258MOL0     H34788   6.098   9.267   6.695  0.7110 -0.0118  0.6226
  258MOL0     H34789   6.169   9.108   6.638  1.0340  0.3409  0.4135
  258MOL0     H34790   6.000   9.046   6.788 -0.1431  0.0373  0.1823
  258MOL0     H34791   5.818   8.934   6.882 -1.0087 -1.5638 -0.9904
  258MOL0     H34792   5.199   8.994   6.650  0.8484 -0.9314  0.1518
  258MOL0     H34793   4.983   8.947   6.761 -0.1070 -0.1679  0.1400
  258MOL0     H34794   4.773   8.830   7.037 -0.2886  1.9670  0.1683
  258MOL0     H34795   4.850   8.964   6.960 -0.8150 -0.6636 -0.5088
  258MOL0     H34796   4.700   8.878   6.811  2.8113  3.2380  0.3177
  258MOL0     H34797   4.827   8.781   6.741 -1.2788  0.3695 -0.2330
  258MOL0     H34798   4.804   8.596   6.879 -0.0868  0.8106  4.2057
  258MOL0     H34799   4.660   8.656   6.954 -1.7548 -2.4294  0.1969
  258MOL0     H34800   4.713   8.546   6.675 -1.8452  0.3344 -1.9860
  258MOL0     H34801   4.565   8.649   6.698 -1.1565 -1.5269 -0.4682
  258MOL0     H34802   4.508   8.402   6.712  0.7045  0.9893 -1.3009
  258MOL0     H34803   4.470   8.512   6.853 -2.2721 -1.9692 -0.2814
  258MOL0     H34804   4.712   8.330   6.830 -0.1560 -0.2434 -0.3118
  258MOL0     H34805   4.677   8.421   6.971 -1.5113  0.5641  0.0488
  258MOL0     H34806   4.468   8.236   6.905 -1.6967  2.0789  0.6853
  258MOL0     H34807   4.503   8.314   7.060  3.9610  1.2925  1.6155
  258MOL0     H34808   4.670   8.088   6.948  0.6595 -1.0497  0.6683
  258MOL0     H34809   4.714   8.160   7.099 -1.2196 -3.7010  2.1146
  258MOL0     H34810   5.183   8.760   7.085 -2.9173  1.1809  0.8659
  258MOL0     H34811   5.399   8.826   7.008 -0.4200  0.5252  0.4509
  258MOL0     H34812   5.563   9.052   6.541  0.4370  0.0467 -1.1500
  258MOL0     H34813   5.762   9.150   6.443 -0.9172 -0.4862 -1.0164
  258MOL0     H34814   5.803   8.929   5.758  1.2766 -0.7732  1.0625
  258MOL0     H34815   5.547   8.959   5.712  1.2281  1.1963  0.5496
  258MOL0     H34816   5.166   8.886   5.732 -1.5387 -0.6249  5.9126
  258MOL0     H34817   4.945   8.899   5.786 -3.2819 -1.2520 -2.4170
  258MOL0     H34818   4.695   8.563   5.869  2.2974  1.8887  0.2104
  258MOL0     H34819   4.636   8.576   5.711 -1.1504 -0.5072  0.9146
  258MOL0     H34820   4.507   8.781   5.768 -1.3421 -0.2161 -0.2510
  258MOL0     H34821   4.554   8.757   5.936  1.1718  1.6759 -1.3561
  258MOL0     H34822   4.350   8.638   5.923  1.1515  2.9134 -1.6278
  258MOL0     H34823   4.475   8.509   5.905 -0.7758 -0.1256 -0.2509
  258MOL0     H34824   4.325   8.652   5.683  2.3542  0.9658 -0.1009
  258MOL0     H34825   4.450   8.525   5.658 -0.2943 -2.0069  0.9958
  258MOL0     H34826   4.117   8.314   5.843  1.2657  1.7356  3.6352
  258MOL0     H34827   4.857   8.497   5.694 -1.4412  1.4078  1.2223
  258MOL0     H34828   5.205   8.380   5.697  1.0807 -2.1762 -2.0746
  258MOL0     H34829   5.031   8.349   5.652  1.6412 -1.0616  1.0499
  258MOL0     H34830   5.145   8.404   5.533 -1.6078 -0.9856 -0.2389
  259MOL0     O34831   7.528   3.036   1.662 -0.3087  0.2523 -0.5118
  259MOL0     C34832   7.459   3.109   1.730 -0.4439 -0.3261  0.6458
  259MOL0     O34833   7.502   3.224   1.788 -0.7580 -0.3611 -0.0716
  259MOL0     C34834   7.630   3.276   1.758 -0.2279 -0.3443 -0.0448
  259MOL0     C34835   7.747   3.205   1.739  0.8572  0.5155 -0.3018
  259MOL0     C34836   7.861   3.273   1.700  0.2656 -0.6397 -0.7317
  259MOL0     C34837   7.854   3.407   1.675  0.1492 -0.5019  0.2546
  259MOL0     O34838   7.966   3.466   1.636  0.4769 -0.3530  0.1772
  259MOL0     C34839   7.951   3.601   1.586 -0.8632 -0.6209 -0.0951
  259MOL0     C34840   8.081   3.657   1.509  0.5353  0.7143 -0.4708
  259MOL0     C34841   8.213   3.613   1.572 -0.2698  0.2412  0.3144
  259MOL0     C34842   8.319   3.650   1.474 -0.0761  0.0683  0.6150
  259MOL0     C34843   8.335   3.806   1.456  0.3602  1.0255  0.2589
  259MOL0     C34844   8.468   3.849   1.391 -0.1151  0.2447  0.0754
  259MOL0     C34845   8.459   4.004   1.361  0.1234  1.2256 -0.4084
  259MOL0     C34846   8.587   4.054   1.297 -0.5414  0.7936  0.5988
  259MOL0     N34847   8.692   4.058   1.400 -0.5978  0.6403  0.4164
  259MOL0     C34848   8.784   3.965   1.404 -0.2922 -0.1881  0.1873
  259MOL0     C34849   8.872   4.000   1.503  0.3247 -0.2353  0.0157
  259MOL0     C34850   8.996   3.912   1.532 -0.5964  0.1237 -0.3089
  259MOL0     C34851   9.111   3.910   1.438  0.4418 -0.5699 -0.6883
  259MOL0     C34852   9.227   3.829   1.489  0.1216  0.4931 -0.1253
  259MOL0     C34853   9.331   3.798   1.384  0.6827  0.5169  0.2373
  259MOL0     O34854   9.372   3.902   1.300  0.5613 -0.7043 -0.0936
  259MOL0     C34855   9.500   3.962   1.316  0.6490 -0.3977  0.2115
  259MOL0     C34856   9.568   3.975   1.197 -0.1478  0.4566 -1.3048
  259MOL0     C34857   9.704   3.992   1.209  0.0333 -0.1995 -0.2126
  259MOL0     C34858   9.772   4.015   1.335  0.6181 -0.2084  0.8313
  259MOL0     C34859   9.919   4.038   1.342 -0.2906 -0.5491  0.7470
  259MOL0     O34860   9.982   4.052   1.461  0.2388 -0.6982  0.6012
  259MOL0     C34861  10.114   4.090   1.457  0.0358  0.7944 -0.7920
  259MOL0     C34862  10.156   4.212   1.394 -0.2584  0.4293 -0.1113
  259MOL0     C34863  10.281   4.259   1.402 -0.5350  0.0114  0.4372
  259MOL0     C34864  10.373   4.188   1.476 -0.3207 -0.5250  0.8009
  259MOL0     O34865  10.496   4.249   1.472 -0.0615 -0.7636 -0.1152
  259MOL0     C34866  10.621   4.179   1.497  0.5523  0.0576  0.3947
  259MOL0     C34867  10.698   4.289   1.556  0.5814  0.5235  0.0719
  259MOL0     C34868  10.847   4.250   1.550 -0.0286  1.2458 -0.2904
  259MOL0     C34869  10.939   4.342   1.635 -0.4322  0.6915  0.2594
  259MOL0     C34870  11.074   4.274   1.642  0.0689  0.2950 -0.4032
  259MOL0     C34871  11.186   4.357   1.713 -0.0237  0.7360 -0.1369
  259MOL0     C34872  11.326   4.288   1.732  0.1615 -0.4469  0.3669
  259MOL0     C34873  11.425   4.376   1.794  0.1504 -0.8510  0.6316
  259MOL0    Cl34874  11.572   4.297   1.840  0.0469  0.1850 -0.0066
  259MOL0     C34875  10.343   4.070   1.540  0.8847  0.2912 -0.3904
  259MOL0     C34876  10.208   4.022   1.533  0.8484  0.5488 -0.2350
  259MOL0     O34877   9.974   4.042   1.232  0.0737  0.1770 -0.5170
  259MOL0     C34878   9.694   4.014   1.455 -0.2695  0.7717  0.4829
  259MOL0     C34879   9.560   3.984   1.443  0.5348  0.3401 -0.2523
  259MOL0     N34880   8.811   4.109   1.563  0.6759 -0.6823 -0.6622
  259MOL0     N34881   8.711   4.149   1.493  0.2426 -0.5551 -0.0747
  259MOL0     C34882   7.741   3.479   1.706  0.6021 -0.5037 -0.0720
  259MOL0     C34883   7.627   3.412   1.750  0.2158 -0.0734 -0.7813
  259MOL0     C34884   7.324   3.071   1.783  0.2333 -0.9587 -0.6240
  259MOL0     C34885   7.277   3.137   1.896 -0.4586  1.0897 -0.1936
  259MOL0     C34886   7.140   3.128   1.936  0.1015 -0.1458  0.4195
  259MOL0     C34887   7.050   3.037   1.861  0.0857 -0.4230 -0.2079
  259MOL0     O34888   6.924   3.036   1.908 -0.2303 -0.0306 -0.2132
  259MOL0     C34889   6.826   2.947   1.856  0.2495 -0.1904  0.2064
  259MOL0     C34890   6.695   2.942   1.932 -0.0739 -0.5003 -0.3485
  259MOL0     C34891   6.641   3.088   1.969 -0.4148  0.7257 -0.4590
  259MOL0     C34892   6.625   3.186   1.846 -0.6370  0.2253  0.4675
  259MOL0     C34893   6.539   3.131   1.741  0.4417  0.9295 -0.5961
  259MOL0     C34894   6.470   3.096   1.650  0.3417 -0.0905  0.4091
  259MOL0     C34895   7.101   2.971   1.749 -0.6714 -0.5635 -0.0494
  259MOL0     C34896   7.238   2.980   1.719 -0.4008  0.3469  0.3259
  259MOL0     C34897   7.285   2.905   1.599 -0.7632 -0.0899 -0.1349
  259MOL0     H34898   7.757   3.100   1.766  3.6803  0.5958 -0.7571
  259MOL0     H34899   7.952   3.218   1.678 -0.5023 -2.3547  0.2086
  259MOL0     H34900   7.873   3.612   1.511 -2.4985 -0.6058  1.5282
  259MOL0     H34901   7.928   3.660   1.676 -1.0092 -1.3999  0.3842
  259MOL0     H34902   8.079   3.767   1.508  0.5553  0.7319  0.5321
  259MOL0     H34903   8.080   3.624   1.405  1.3116  1.4570 -0.7328
  259MOL0     H34904   8.212   3.504   1.579 -0.9243  0.3236  1.8949
  259MOL0     H34905   8.232   3.663   1.667  0.4760 -3.1867  2.1042
  259MOL0     H34906   8.416   3.622   1.516 -0.2770 -0.4217  0.7630
  259MOL0     H34907   8.299   3.596   1.381  1.3287 -0.2985  0.5036
  259MOL0     H34908   8.244   3.837   1.404 -0.1923 -0.2353  0.4347
  259MOL0     H34909   8.333   3.854   1.554  3.2189 -2.0019  2.0281
  259MOL0     H34910   8.555   3.835   1.456 -1.1332 -1.0019  1.2085
  259MOL0     H34911   8.477   3.795   1.296  0.4502 -3.1968  1.9422
  259MOL0     H34912   8.440   4.046   1.459  0.0796  0.5429 -0.1159
  259MOL0     H34913   8.371   4.018   1.297  0.4896 -2.2437 -1.9498
  259MOL0     H34914   8.614   3.990   1.212  0.4066 -0.9518  2.1338
  259MOL0     H34915   8.578   4.155   1.256  2.0584  0.2474 -1.6447
  259MOL0     H34916   8.793   3.872   1.348  0.2019 -0.9874  1.5551
  259MOL0     H34917   9.041   3.959   1.620  0.0736  2.0183 -1.5780
  259MOL0     H34918   8.969   3.807   1.538  1.9738 -0.6060 -0.2743
  259MOL0     H34919   9.088   3.862   1.342  0.0520  0.6111 -1.1949
  259MOL0     H34920   9.138   4.015   1.430 -0.8241  0.3131  3.8877
  259MOL0     H34921   9.192   3.734   1.531 -2.6450  1.7675  0.6847
  259MOL0     H34922   9.269   3.891   1.569 -1.9419  0.9779  0.6603
  259MOL0     H34923   9.274   3.729   1.321 -0.0174 -1.1850  2.5636
  259MOL0     H34924   9.414   3.739   1.424 -0.7796 -2.3886 -0.6924
  259MOL0     H34925   9.529   3.958   1.097  0.3943  2.1193 -1.8373
  259MOL0     H34926   9.759   3.984   1.116  1.5343 -1.6959  0.7479
  259MOL0     H34927  10.072   4.257   1.342  1.2127  0.7162 -2.4287
  259MOL0     H34928  10.316   4.352   1.359 -0.8332  0.1288  0.4481
  259MOL0     H34929  10.616   4.094   1.566 -1.3142 -1.1643 -1.1532
  259MOL0     H34930  10.656   4.148   1.398 -1.7160 -0.3648 -0.3320
  259MOL0     H34931  10.694   4.375   1.489  0.7696 -1.9444 -3.3388
  259MOL0     H34932  10.660   4.312   1.656 -0.0018 -2.3261  0.5958
  259MOL0     H34933  10.855   4.150   1.593 -1.4603  0.9392 -0.6713
  259MOL0     H34934  10.873   4.239   1.444 -0.9122 -4.1866 -0.2684
  259MOL0     H34935  10.902   4.342   1.738  2.5864  3.7220  1.5106
  259MOL0     H34936  10.946   4.442   1.590  0.4981 -0.0473 -1.3023
  259MOL0     H34937  11.116   4.257   1.543  2.0528 -4.2592  0.9558
  259MOL0     H34938  11.062   4.175   1.686  0.3842 -0.9584 -2.9891
  259MOL0     H34939  11.199   4.453   1.661 -0.2101  0.5084 -0.6172
  259MOL0     H34940  11.146   4.366   1.814  0.0475  0.2441 -0.0635
  259MOL0     H34941  11.365   4.262   1.633 -0.3377 -0.2088  0.1086
  259MOL0     H34942  11.321   4.197   1.792 -0.0881 -0.6006  0.1128
  259MOL0     H34943  11.445   4.453   1.718 -2.1978 -1.2370 -0.4904
  259MOL0     H34944  11.389   4.410   1.891  0.3679  0.1367  0.3819
  259MOL0     H34945  10.424   4.022   1.594  0.4890  0.2069  0.1285
  259MOL0     H34946  10.178   3.932   1.586  2.2831  0.8980  1.2471
  259MOL0     H34947   9.740   4.030   1.551  0.3390 -1.6308  0.6505
  259MOL0     H34948   9.503   3.973   1.534  0.6922  1.2449 -0.0394
  259MOL0     H34949   7.719   3.583   1.689 -2.6947 -0.9991  0.4622
  259MOL0     H34950   7.543   3.476   1.774 -2.7006 -4.0935  0.6409
  259MOL0     H34951   7.349   3.187   1.960 -0.1035 -0.5655  0.7593
  259MOL0     H34952   7.099   3.186   2.018 -0.2641  2.3937 -1.4349
  259MOL0     H34953   6.865   2.845   1.856 -1.1615 -0.8099 -1.6572
  259MOL0     H34954   6.811   2.983   1.753  1.0910  2.1835  0.8577
  259MOL0     H34955   6.714   2.897   2.030 -0.1804 -5.2592 -2.2737
  259MOL0     H34956   6.623   2.879   1.880  1.4338 -1.0916 -1.8040
  259MOL0     H34957   6.715   3.141   2.029  1.8631 -3.7544  1.2103
  259MOL0     H34958   6.560   3.076   2.042  0.1842  1.2736  0.3116
  259MOL0     H34959   6.575   3.279   1.875  0.4834  0.4007  1.9623
  259MOL0     H34960   6.721   3.211   1.800 -0.2050 -0.1214  1.1623
  259MOL0     H34961   6.408   3.053   1.574 -1.2675 -0.7528  2.0433
  259MOL0     H34962   7.033   2.905   1.697 -1.4310 -0.0995  0.3306
  259MOL0     H34963   7.200   2.867   1.541 -2.6178  4.7235 -1.0329
  259MOL0     H34964   7.335   2.976   1.533  2.3941 -1.7194  0.2876
  259MOL0     H34965   7.350   2.824   1.633  1.1416  2.1486  1.8333
  260MOL0     O34966   6.630   7.107   5.204  0.1099  0.5067 -0.3681
  260MOL0     C34967   6.529   7.160   5.175  0.2617 -0.2521  0.3954
  260MOL0     O34968   6.513   7.291   5.161  0.0583  0.1430 -0.1857
  260MOL0     C34969   6.616   7.370   5.193 -0.6549  0.1007 -0.0679
  260MOL0     C34970   6.720   7.383   5.106 -0.5280  0.0414  0.8443
  260MOL0     C34971   6.833   7.455   5.136  0.3112  0.3984 -0.0509
  260MOL0     C34972   6.849   7.509   5.264 -0.0990  0.6139 -0.2357
  260MOL0     O34973   6.958   7.577   5.315  0.2378 -0.8771  0.3433
  260MOL0     C34974   7.088   7.570   5.261 -0.0132 -0.3434 -0.4427
  260MOL0     C34975   7.189   7.643   5.363 -0.3499 -0.4559 -0.3209
  260MOL0     C34976   7.327   7.577   5.382 -0.5481  0.6116  0.1483
  260MOL0     C34977   7.421   7.602   5.265  0.0288  0.4546 -0.0682
  260MOL0     C34978   7.564   7.553   5.309 -0.0371 -0.6120 -0.8501
  260MOL0     C34979   7.644   7.534   5.181  0.5459 -0.0513 -0.7447
  260MOL0     C34980   7.791   7.494   5.211 -0.1993  0.1180  0.5374
  260MOL0     C34981   7.871   7.613   5.257 -0.4863 -0.2222  0.2573
  260MOL0     N34982   8.013   7.585   5.292 -0.2184  0.9464 -0.2564
  260MOL0     C34983   8.076   7.471   5.254  0.6746 -0.0808 -0.7984
  260MOL0     C34984   8.206   7.490   5.295 -0.7997 -0.2726 -1.0691
  260MOL0     C34985   8.314   7.391   5.277 -0.8823  0.5145  0.1516
  260MOL0     C34986   8.458   7.440   5.313  0.1377  0.2224  0.1503
  260MOL0     C34987   8.549   7.318   5.306  0.2138 -0.5563  0.0392
  260MOL0     C34988   8.681   7.361   5.360  0.3909 -0.3130 -0.5874
  260MOL0     O34989   8.777   7.259   5.353  0.1244  0.1071 -0.3932
  260MOL0     C34990   8.911   7.298   5.369 -0.5861 -0.2977 -0.7516
  260MOL0     C34991   9.000   7.221   5.307 -1.0217 -0.8669 -0.0887
  260MOL0     C34992   9.136   7.265   5.317 -0.6619 -0.3345  1.2295
  260MOL0     C34993   9.178   7.381   5.382 -0.2963 -0.6244 -0.9075
  260MOL0     C34994   9.325   7.412   5.402  0.0588  0.3609 -0.1466
  260MOL0     O34995   9.360   7.513   5.479 -1.0155 -0.7155  0.4313
  260MOL0     C34996   9.493   7.535   5.519  0.2168  0.1900 -0.6393
  260MOL0     C34997   9.504   7.588   5.653 -0.7076  0.0845  0.4707
  260MOL0     C34998   9.638   7.638   5.691 -0.1504 -0.4501 -0.4531
  260MOL0     C34999   9.741   7.630   5.596  1.1769 -0.5891  0.1520
  260MOL0     O35000   9.858   7.671   5.652 -0.4564  0.2267 -0.0329
  260MOL0     C35001   9.980   7.615   5.587  0.2547  1.7701 -0.0291
  260MOL0     C35002  10.105   7.636   5.681  0.1699  0.3185  0.0246
  260MOL0     C35003  10.233   7.574   5.635 -0.8517 -1.1171  0.2053
  260MOL0     C35004  10.360   7.608   5.715  0.8042  0.4791 -0.4388
  260MOL0     C35005  10.481   7.610   5.623 -0.5889  0.0056  0.0549
  260MOL0     C35006  10.617   7.629   5.700 -0.1452 -0.0957 -0.4136
  260MOL0     C35007  10.737   7.590   5.620 -0.0243  0.5629 -0.9356
  260MOL0     C35008  10.867   7.626   5.685  0.3202 -0.4654 -0.3676
  260MOL0    Cl35009  10.884   7.553   5.838 -0.3622 -0.7758  0.0761
  260MOL0     C35010   9.720   7.582   5.465  0.0751 -0.2546 -0.7728
  260MOL0     C35011   9.598   7.535   5.429  1.5273 -0.2379 -0.5326
  260MOL0     O35012   9.400   7.335   5.351  0.3766  0.6561 -0.7041
  260MOL0     C35013   9.079   7.453   5.449 -0.1753  0.0215  0.7521
  260MOL0     C35014   8.948   7.415   5.442  0.1364 -0.2462 -0.1657
  260MOL0     N35015   8.218   7.606   5.373  0.2772 -1.2151  0.9213
  260MOL0     N35016   8.104   7.664   5.356  0.0929 -0.7296 -0.6539
  260MOL0     C35017   6.738   7.499   5.347 -0.7134 -0.4454  0.0254
  260MOL0     C35018   6.618   7.439   5.320  0.4907 -0.7668  0.1886
  260MOL0     C35019   6.406   7.082   5.134 -0.7602 -0.3087 -0.3028
  260MOL0     C35020   6.296   7.154   5.086  0.3737  0.1564 -0.0481
  260MOL0     C35021   6.180   7.087   5.048  0.5221  0.7757 -0.0033
  260MOL0     C35022   6.161   6.947   5.057 -0.1312 -0.1710  0.8289
  260MOL0     O35023   6.042   6.890   5.024  0.1621  0.2239  0.1315
  260MOL0     C35024   6.005   6.764   5.088  0.3095 -1.0128 -0.2089
  260MOL0     C35025   5.866   6.704   5.042  0.6042 -0.0805 -0.6975
  260MOL0     C35026   5.750   6.801   5.069 -0.1066 -0.4311 -0.2694
  260MOL0     C35027   5.618   6.731   5.043  0.0051 -0.2522  0.8684
  260MOL0     C35028   5.506   6.791   5.111  0.9325  0.0288 -0.5746
  260MOL0     C35029   5.426   6.859   5.176 -0.1781 -0.6640  0.0735
  260MOL0     C35030   6.271   6.887   5.116 -0.1304 -0.0675  0.3937
  260MOL0     C35031   6.392   6.947   5.157 -0.5728  0.1378  0.7694
  260MOL0     C35032   6.492   6.859   5.215 -0.0144  0.0185  0.3813
  260MOL0     H35033   6.716   7.325   5.014  1.2934  0.8045  0.2549
  260MOL0     H35034   6.924   7.436   5.080 -0.2209 -1.3657 -0.4016
  260MOL0     H35035   7.131   7.469   5.262  3.6100  1.0027  1.9942
  260MOL0     H35036   7.092   7.619   5.163  1.3259 -0.2259 -0.3511
  260MOL0     H35037   7.143   7.636   5.462  3.8352  0.5330  1.9165
  260MOL0     H35038   7.201   7.749   5.337 -0.4787 -0.4459 -0.3413
  260MOL0     H35039   7.319   7.471   5.406  1.3343  0.6996  1.4042
  260MOL0     H35040   7.371   7.612   5.476 -0.3572 -1.6526  0.9611
  260MOL0     H35041   7.386   7.554   5.173 -0.6152 -1.2499  1.0160
  260MOL0     H35042   7.428   7.709   5.243 -1.7383  0.8931  1.3020
  260MOL0     H35043   7.606   7.625   5.380 -2.9155 -1.8760  2.4341
  260MOL0     H35044   7.551   7.451   5.346 -1.3598 -1.3316 -3.1157
  260MOL0     H35045   7.602   7.459   5.114 -0.2391  0.9501 -1.4043
  260MOL0     H35046   7.644   7.627   5.125 -0.0024  0.6719  0.4074
  260MOL0     H35047   7.828   7.455   5.115 -2.2300 -2.9999  0.8576
  260MOL0     H35048   7.805   7.410   5.280 -2.3521 -0.8680 -0.1384
  260MOL0     H35049   7.859   7.692   5.182 -2.0574 -0.9739 -0.3197
  260MOL0     H35050   7.820   7.665   5.339  0.1509 -1.1393  1.2689
  260MOL0     H35051   8.039   7.383   5.204 -0.4887 -0.0079 -0.1026
  260MOL0     H35052   8.294   7.298   5.332 -1.0353  0.9856  0.9048
  260MOL0     H35053   8.323   7.366   5.171  0.2602  0.8120  0.1616
  260MOL0     H35054   8.494   7.509   5.236 -2.1369 -1.0300 -2.1664
  260MOL0     H35055   8.460   7.492   5.410 -2.8763 -0.3074  0.5849
  260MOL0     H35056   8.559   7.284   5.203  0.6931 -2.6628  0.7381
  260MOL0     H35057   8.511   7.232   5.362  3.2452 -1.6487  0.6299
  260MOL0     H35058   8.670   7.397   5.462  0.0988 -1.6018 -0.1481
  260MOL0     H35059   8.719   7.441   5.295  3.5134 -0.9473  0.3004
  260MOL0     H35060   8.969   7.131   5.254 -1.7317 -2.6586  3.1198
  260MOL0     H35061   9.212   7.209   5.263 -1.1766 -1.3905  1.5714
  260MOL0     H35062   9.415   7.592   5.715 -2.3888  1.6344 -1.8546
  260MOL0     H35063   9.654   7.688   5.786 -4.3020  1.3831 -0.4905
  260MOL0     H35064   9.965   7.508   5.570 -0.0625  2.1157 -2.2236
  260MOL0     H35065   9.995   7.660   5.488 -4.3607  2.5200 -0.6192
  260MOL0     H35066  10.138   7.740   5.679 -0.5391  0.6086  1.4867
  260MOL0     H35067  10.079   7.606   5.783  0.9677 -1.7262 -0.3245
  260MOL0     H35068  10.222   7.466   5.641  0.8985 -1.2274  2.4626
  260MOL0     H35069  10.242   7.594   5.527 -1.9628 -0.7020  0.1720
  260MOL0     H35070  10.364   7.528   5.790 -3.1798  0.6277  0.1440
  260MOL0     H35071  10.346   7.691   5.784  2.4407 -1.6173  2.6575
  260MOL0     H35072  10.460   7.691   5.552 -1.2004  0.6448  0.9342
  260MOL0     H35073  10.470   7.515   5.570  0.1822 -0.2104  0.2729
  260MOL0     H35074  10.622   7.733   5.732 -1.5595  0.2806 -1.3316
  260MOL0     H35075  10.618   7.568   5.791 -0.7526  0.8333  0.2231
  260MOL0     H35076  10.729   7.649   5.528  0.6672  4.4442  1.2643
  260MOL0     H35077  10.734   7.482   5.603 -2.4302 -0.0318  2.1556
  260MOL0     H35078  10.944   7.584   5.619 -0.0967 -2.6102  0.4110
  260MOL0     H35079  10.875   7.734   5.676 -0.7135 -0.3659 -0.2254
  260MOL0     H35080   9.800   7.571   5.393 -0.5703  0.1595 -1.5610
  260MOL0     H35081   9.593   7.499   5.327 -1.9191 -0.1672 -0.5127
  260MOL0     H35082   9.104   7.542   5.508 -2.1008  0.2610  1.2670
  260MOL0     H35083   8.861   7.463   5.486 -0.4490 -2.2638  1.0241
  260MOL0     H35084   6.735   7.538   5.448 -4.0037 -1.9061  0.6232
  260MOL0     H35085   6.530   7.424   5.381  0.2037 -1.7643 -0.4461
  260MOL0     H35086   6.289   7.261   5.073 -2.5361  0.3782  2.3002
  260MOL0     H35087   6.093   7.143   5.014  0.2005  0.2357 -0.0966
  260MOL0     H35088   6.015   6.773   5.197  2.1988  0.9769 -0.4790
  260MOL0     H35089   6.066   6.677   5.065  1.2807 -0.5298  0.4629
  260MOL0     H35090   5.846   6.610   5.094  2.1380  0.5224  1.0827
  260MOL0     H35091   5.868   6.697   4.933  1.8649  0.2177 -0.7073
  260MOL0     H35092   5.748   6.894   5.012  1.4054  0.7663  1.5168
  260MOL0     H35093   5.746   6.827   5.175 -0.0426 -4.1303  0.7981
  260MOL0     H35094   5.596   6.724   4.936 -0.4084 -1.4732  1.0219
  260MOL0     H35095   5.621   6.630   5.085 -0.7074 -0.7194 -0.1831
  260MOL0     H35096   5.353   6.915   5.231  0.0395 -1.7125  1.4964
  260MOL0     H35097   6.268   6.779   5.132 -1.4975 -0.4567 -1.9426
  260MOL0     H35098   6.472   6.752   5.209  1.2339 -0.2937  1.3127
  260MOL0     H35099   6.586   6.870   5.160 -0.5880  3.9249 -0.0958
  260MOL0     H35100   6.500   6.890   5.319 -1.0159  1.3287  0.0860
  261MOL0     O35101   2.829  10.401   6.471  0.3544 -0.0436  0.3020
  261MOL0     C35102   2.824  10.330   6.576  0.1927  0.1849  0.7214
  261MOL0     O35103   2.920  10.332   6.674  0.0325  0.9549  1.0671
  261MOL0     C35104   3.047  10.371   6.640  0.3072  0.2348  0.2129
  261MOL0     C35105   3.121  10.294   6.544 -0.0636 -0.4190 -0.0219
  261MOL0     C35106   3.252  10.330   6.525 -0.1119 -0.7475  0.2444
  261MOL0     C35107   3.313  10.434   6.604 -0.1470 -0.2741  0.7108
  261MOL0     O35108   3.449  10.459   6.592 -0.0377 -0.5603  0.5675
  261MOL0     C35109   3.492  10.545   6.487  1.3153  0.1188 -0.1950
  261MOL0     C35110   3.642  10.514   6.462  0.4242 -0.3320  0.8597
  261MOL0     C35111   3.669  10.376   6.404  0.6808 -0.7095  0.2953
  261MOL0     C35112   3.813  10.373   6.329 -0.6582 -0.5319 -0.0345
  261MOL0     C35113   3.841  10.236   6.261  0.3232 -1.0105 -0.2558
  261MOL0     C35114   3.961  10.238   6.167 -0.9330 -0.2553  0.1304
  261MOL0     C35115   4.103  10.282   6.227  0.1826 -0.5689 -0.1038
  261MOL0     C35116   4.225  10.202   6.162  0.2626  0.0912 -0.3566
  261MOL0     N35117   4.338  10.208   6.249 -0.0776  0.3284  0.2848
  261MOL0     C35118   4.415  10.310   6.290  0.2873  0.1041 -0.0264
  261MOL0     C35119   4.517  10.256   6.359  0.9788  0.7067 -0.3761
  261MOL0     C35120   4.623  10.319   6.422  0.4452 -0.3573 -0.5547
  261MOL0     C35121   4.757  10.282   6.358 -0.7667  0.1981 -0.4327
  261MOL0     C35122   4.771  10.338   6.211  0.1250 -0.4892 -0.7635
  261MOL0     C35123   4.913  10.340   6.173 -0.4271 -1.0215  0.3519
  261MOL0     O35124   4.952  10.208   6.138  0.4574  0.1664 -0.8685
  261MOL0     C35125   5.071  10.185   6.075  0.4577  0.7728 -0.2153
  261MOL0     C35126   5.144  10.270   5.991 -1.2754 -0.3606 -0.2398
  261MOL0     C35127   5.265  10.228   5.922  0.1366  0.1755 -0.1183
  261MOL0     C35128   5.315  10.093   5.938 -0.2114 -0.0749  0.3994
  261MOL0     C35129   5.431  10.055   5.860  0.4566  0.6837 -0.1286
  261MOL0     O35130   5.453   9.924   5.849  0.0369 -0.4537  0.8308
  261MOL0     C35131   5.580   9.878   5.816 -0.4299 -0.1517  0.0087
  261MOL0     C35132   5.602   9.859   5.679  0.7661 -0.5169 -0.7765
  261MOL0     C35133   5.714   9.787   5.638  0.4671  0.2483 -0.6513
  261MOL0     C35134   5.809   9.734   5.736  0.6284 -0.6434 -0.4165
  261MOL0     O35135   5.927   9.669   5.705 -0.0721 -0.3641 -0.2992
  261MOL0     C35136   5.950   9.618   5.580 -0.4943  0.4681 -0.0708
  261MOL0     C35137   6.085   9.545   5.564 -0.3138  0.2218  0.8261
  261MOL0     C35138   6.205   9.640   5.547  0.3515  0.4398 -0.0431
  261MOL0     C35139   6.337   9.567   5.520  0.4238 -0.4326 -0.0380
  261MOL0     C35140   6.454   9.648   5.495  0.3723 -0.7205 -0.3187
  261MOL0     C35141   6.449   9.712   5.357  0.6255  0.5171 -0.0834
  261MOL0     C35142   6.576   9.802   5.321  0.7030  0.5105  1.0481
  261MOL0     C35143   6.685   9.717   5.242 -0.3493 -0.8591  0.6233
  261MOL0    Cl35144   6.753   9.581   5.334 -0.1231 -0.4751 -0.0142
  261MOL0     C35145   5.779   9.750   5.873 -0.1240  0.4217 -0.4360
  261MOL0     C35146   5.665   9.812   5.915  1.0778  0.1365  0.2244
  261MOL0     O35147   5.498  10.142   5.804  0.0866  0.3356  0.1455
  261MOL0     C35148   5.242  10.012   6.019  0.1052 -0.6338  0.7682
  261MOL0     C35149   5.126  10.061   6.087 -0.1488  0.6765 -0.2064
  261MOL0     N35150   4.504  10.115   6.344 -0.2461 -0.3476 -0.2763
  261MOL0     N35151   4.393  10.085   6.289 -0.0189 -0.5627 -0.4343
  261MOL0     C35152   3.235  10.510   6.691 -0.6588  0.2546 -0.2901
  261MOL0     C35153   3.107  10.479   6.709  0.5566 -0.2114  0.1633
  261MOL0     C35154   2.714  10.238   6.590 -0.2566 -0.0737 -0.6129
  261MOL0     C35155   2.659  10.189   6.468 -0.1836 -0.1777 -1.0776
  261MOL0     C35156   2.584  10.070   6.470 -0.6272  0.0325 -0.2373
  261MOL0     C35157   2.549  10.013   6.600 -0.6081  0.0136  0.3216
  261MOL0     O35158   2.464   9.904   6.610 -0.0385 -1.2227 -0.2029
  261MOL0     C35159   2.369   9.874   6.513  0.0265  0.1316 -0.5790
  261MOL0     C35160   2.233   9.897   6.576  0.1559 -1.2159 -0.1123
  261MOL0     C35161   2.128   9.907   6.465 -0.2235  0.2654 -0.2069
  261MOL0     C35162   1.993   9.969   6.513 -0.1267 -0.1091  0.7003
  261MOL0     C35163   1.887   9.898   6.440 -0.2600  1.5432  0.5919
  261MOL0     C35164   1.791   9.842   6.382  0.0127  0.0205  0.5999
  261MOL0     C35165   2.601  10.058   6.719 -0.2656  0.4613  0.6239
  261MOL0     C35166   2.684  10.167   6.712  0.0659 -1.1071  0.1785
  261MOL0     C35167   2.744  10.213   6.835  0.6196 -0.4577  0.0580
  261MOL0     H35168   3.074  10.212   6.491 -1.7091  1.8890 -2.4045
  261MOL0     H35169   3.306  10.281   6.444  0.2617 -0.2913  0.2192
  261MOL0     H35170   3.432  10.528   6.397 -0.6176  0.5716  0.9438
  261MOL0     H35171   3.483  10.650   6.513  0.0703 -0.4186  1.7360
  261MOL0     H35172   3.695  10.530   6.556 -0.3265  1.7680  0.9590
  261MOL0     H35173   3.673  10.592   6.392  1.6422 -1.0610  0.5609
  261MOL0     H35174   3.593  10.332   6.339  1.5126  0.0226 -1.2100
  261MOL0     H35175   3.673  10.317   6.497 -0.0778  0.1850  0.9134
  261MOL0     H35176   3.812  10.456   6.256  1.0317  0.8961  1.4767
  261MOL0     H35177   3.896  10.404   6.392 -0.4829  0.0285 -0.5281
  261MOL0     H35178   3.849  10.158   6.338 -0.2155 -1.0718 -0.2544
  261MOL0     H35179   3.754  10.213   6.198 -0.4702  0.3613  0.2791
  261MOL0     H35180   3.968  10.135   6.132 -0.4965  0.4448 -1.9927
  261MOL0     H35181   3.927  10.311   6.093 -1.8997  1.8273  2.4830
  261MOL0     H35182   4.093  10.251   6.331 -1.1547 -1.4231 -0.4562
  261MOL0     H35183   4.125  10.388   6.216  0.9541 -0.8477 -1.5288
  261MOL0     H35184   4.197  10.097   6.154  0.5485  0.1431 -2.5456
  261MOL0     H35185   4.263  10.240   6.067  0.3752 -2.8114 -1.5726
  261MOL0     H35186   4.405  10.417   6.281 -0.0782  0.2066  1.3607
  261MOL0     H35187   4.601  10.426   6.421  0.7210 -0.2917 -2.4325
  261MOL0     H35188   4.629  10.276   6.523 -1.5440 -0.3229 -0.3906
  261MOL0     H35189   4.839  10.314   6.423 -0.8065 -0.1476 -0.2108
  261MOL0     H35190   4.759  10.173   6.362 -0.5699  0.1596 -1.2848
  261MOL0     H35191   4.730  10.439   6.207  0.9718 -0.0928  0.1213
  261MOL0     H35192   4.706  10.278   6.147 -2.3379 -2.6434  3.3775
  261MOL0     H35193   4.980  10.380   6.250 -1.9971  3.2175 -0.2015
  261MOL0     H35194   4.928  10.405   6.086  0.6760  0.4460  1.5947
  261MOL0     H35195   5.096  10.366   5.974  0.8043  0.7728 -0.1205
  261MOL0     H35196   5.316  10.299   5.857  1.0180  2.0168  2.4186
  261MOL0     H35197   5.523   9.888   5.611  1.1622  1.4121 -0.4750
  261MOL0     H35198   5.733   9.753   5.536  2.3240 -1.1982  0.1069
  261MOL0     H35199   5.872   9.544   5.561 -1.3640  1.3418 -0.0123
  261MOL0     H35200   5.949   9.701   5.509  0.0442 -1.3161 -2.2620
  261MOL0     H35201   6.099   9.476   5.648 -1.4335 -2.7541 -1.2618
  261MOL0     H35202   6.078   9.472   5.483  1.3031 -1.5863  2.2050
  261MOL0     H35203   6.168   9.711   5.472 -0.6594 -0.1308 -0.1008
  261MOL0     H35204   6.226   9.697   5.638  0.2873  3.5688 -1.8571
  261MOL0     H35205   6.336   9.493   5.440  0.7873 -2.0064  1.3383
  261MOL0     H35206   6.359   9.499   5.603 -2.9234 -2.7270 -0.8312
  261MOL0     H35207   6.538   9.579   5.487  2.4566  1.2565  2.4370
  261MOL0     H35208   6.451   9.733   5.564  0.9871  0.5241 -1.7715
  261MOL0     H35209   6.445   9.623   5.294  2.1199 -0.1115  0.6622
  261MOL0     H35210   6.364   9.777   5.335  1.3760  1.2318 -0.9520
  261MOL0     H35211   6.623   9.836   5.414  1.4497 -2.3135  1.8015
  261MOL0     H35212   6.538   9.882   5.257 -0.4680 -2.1098 -1.8087
  261MOL0     H35213   6.649   9.681   5.145  0.0020 -0.4291  0.3312
  261MOL0     H35214   6.766   9.786   5.219 -1.4062  0.0094 -0.6508
  261MOL0     H35215   5.845   9.707   5.948 -1.1636  1.2516  0.9995
  261MOL0     H35216   5.644   9.815   6.021  1.3738  1.2658  0.2684
  261MOL0     H35217   5.273   9.908   6.014  1.6761 -0.1292 -1.7998
  261MOL0     H35218   5.079   9.981   6.145 -0.6032  1.3077  0.3232
  261MOL0     H35219   3.284  10.594   6.739 -2.4499 -0.2937  2.7107
  261MOL0     H35220   3.045  10.547   6.766  0.9288 -0.6498  1.1039
  261MOL0     H35221   2.688  10.237   6.375  1.0189  2.0398  0.3411
  261MOL0     H35222   2.542  10.021   6.382  0.3255 -3.6945  1.1622
  261MOL0     H35223   2.384   9.769   6.486  0.2440 -0.3743  1.3854
  261MOL0     H35224   2.378   9.927   6.418  2.2201 -1.4516 -1.3399
  261MOL0     H35225   2.238   9.996   6.621  0.6969 -0.7476 -1.1619
  261MOL0     H35226   2.220   9.823   6.655  1.7721 -0.1256  1.2407
  261MOL0     H35227   2.117   9.806   6.424  2.0594 -0.4001  0.6627
  261MOL0     H35228   2.169   9.969   6.385 -1.1979  1.6482  0.3201
  261MOL0     H35229   1.990   9.944   6.619  1.9937 -3.8429  0.0562
  261MOL0     H35230   1.996  10.077   6.498  2.0437 -0.3135 -0.7872
  261MOL0     H35231   1.726   9.796   6.310  0.8559  1.6573 -1.3197
  261MOL0     H35232   2.573  10.014   6.814  2.9714 -0.4443  1.2844
  261MOL0     H35233   2.851  10.190   6.831  1.1796  1.9607 -1.1475
  261MOL0     H35234   2.734  10.320   6.853  2.2190 -0.1807 -0.5679
  261MOL0     H35235   2.694  10.168   6.921 -0.8201 -0.3332 -0.6794
  262MOL0     O35236   7.523   6.047   0.863  0.1525 -0.5004  0.2239
  262MOL0     C35237   7.434   6.126   0.900  0.2756  0.0200 -0.0295
  262MOL0     O35238   7.456   6.234   0.996  0.7248  0.5354  0.0017
  262MOL0     C35239   7.578   6.244   1.045 -1.1232  0.9766  0.4778
  262MOL0     C35240   7.630   6.362   1.041 -0.1724  0.5341  0.2704
  262MOL0     C35241   7.751   6.392   1.111  0.4107  0.4069 -0.2003
  262MOL0     C35242   7.820   6.295   1.184 -0.1216  0.4671  0.2250
  262MOL0     O35243   7.938   6.327   1.251 -0.5963  0.2552  0.0816
  262MOL0     C35244   8.013   6.214   1.310  0.0682 -0.3352 -0.3439
  262MOL0     C35245   8.133   6.250   1.384 -0.4617 -0.2134 -0.0393
  262MOL0     C35246   8.244   6.323   1.299 -0.7336 -0.1119 -0.1237
  262MOL0     C35247   8.306   6.229   1.193  0.0014  0.1294 -0.1882
  262MOL0     C35248   8.448   6.290   1.149  0.3171 -0.1669  0.1757
  262MOL0     C35249   8.537   6.202   1.045 -0.1800  0.4513  0.6582
  262MOL0     C35250   8.687   6.235   1.043  0.3409  0.0325  0.0397
  262MOL0     C35251   8.753   6.142   0.945 -0.1342 -0.9004 -0.4677
  262MOL0     N35252   8.902   6.155   0.954  0.0594  0.3526  0.4589
  262MOL0     C35253   8.960   6.267   0.919 -0.3447 -0.6820 -0.1248
  262MOL0     C35254   9.089   6.233   0.912 -0.3730 -0.0211 -0.4430
  262MOL0     C35255   9.203   6.324   0.866  0.3460  0.9965 -0.0183
  262MOL0     C35256   9.273   6.259   0.741  0.1411  0.0653 -0.6228
  262MOL0     C35257   9.406   6.329   0.719  0.3403  0.3716  0.2034
  262MOL0     C35258   9.486   6.268   0.601  0.5465 -0.1575  0.3445
  262MOL0     O35259   9.596   6.357   0.599 -0.0905  0.4696 -0.1742
  262MOL0     C35260   9.691   6.337   0.501 -0.1823 -0.3641  1.1782
  262MOL0     C35261   9.706   6.218   0.428  0.3915  0.2869  0.5724
  262MOL0     C35262   9.817   6.205   0.343  0.4909  0.3779 -0.8338
  262MOL0     C35263   9.904   6.314   0.316 -0.8757 -0.2844 -0.1694
  262MOL0     C35264  10.021   6.312   0.225 -0.5158  0.2928  0.2394
  262MOL0     O35265  10.045   6.194   0.164  0.0851 -0.0138  0.7832
  262MOL0     C35266  10.175   6.185   0.116  0.6540  0.7088 -0.4312
  262MOL0     C35267  10.281   6.169   0.203 -0.6045 -0.5398 -0.0376
  262MOL0     C35268  10.412   6.155   0.154 -0.0587  0.3092 -0.8079
  262MOL0     C35269  10.436   6.160   0.021  0.5801  0.5531 -0.0829
  262MOL0     O35270  10.569   6.145  -0.011 -0.3002  0.3161 -0.1275
  262MOL0     C35271  10.612   6.171  -0.149  0.1378 -0.9284 -0.8975
  262MOL0     C35272  10.761   6.143  -0.159 -0.0623  0.0118  0.8389
  262MOL0     C35273  10.835   6.195  -0.281 -0.3624  0.8741  0.0953
  262MOL0     C35274  10.783   6.174  -0.428 -0.4581  0.5417  0.0630
  262MOL0     C35275  10.894   6.234  -0.523  0.8183  0.3970  0.1043
  262MOL0     C35276  10.831   6.268  -0.660 -0.1143 -1.4904 -0.4843
  262MOL0     C35277  10.938   6.313  -0.760  0.6631  0.4919 -0.3841
  262MOL0     C35278  10.921   6.455  -0.823 -0.2833  0.3527  0.4222
  262MOL0    Cl35279  11.082   6.502  -0.883  0.0366  0.0257 -0.1425
  262MOL0     C35280  10.326   6.155  -0.066  0.9616 -0.2580  0.2725
  262MOL0     C35281  10.201   6.170  -0.026  1.1527 -0.4843 -0.4685
  262MOL0     O35282  10.088   6.413   0.205 -0.2251 -0.3096 -0.1532
  262MOL0     C35283   9.877   6.436   0.387  0.5188 -0.0827 -0.3848
  262MOL0     C35284   9.777   6.444   0.483  0.0162  0.0361  0.4568
  262MOL0     N35285   9.098   6.096   0.926 -0.2743  0.1066 -0.3800
  262MOL0     N35286   8.984   6.045   0.950  0.5919  0.7480 -0.1761
  262MOL0     C35287   7.773   6.163   1.176  0.7398 -0.6967 -0.4637
  262MOL0     C35288   7.644   6.141   1.120  0.8185  0.2356  1.0135
  262MOL0     C35289   7.296   6.112   0.848 -0.2336 -0.2681  0.8020
  262MOL0     C35290   7.199   6.207   0.899 -0.1082  0.2264  0.0005
  262MOL0     C35291   7.072   6.200   0.855  0.7914 -0.2303  0.1440
  262MOL0     C35292   7.026   6.110   0.762 -0.4829 -0.3817 -0.0303
  262MOL0     O35293   6.898   6.103   0.712 -0.2656  0.0126  0.2751
  262MOL0     C35294   6.791   6.199   0.741 -0.5606 -0.2475 -0.2101
  262MOL0     C35295   6.672   6.191   0.650  0.6870  0.2550 -0.2910
  262MOL0     C35296   6.707   6.277   0.522 -0.5049 -0.5871 -0.6300
  262MOL0     C35297   6.633   6.209   0.400  0.6667 -0.0494  0.5566
  262MOL0     C35298   6.492   6.236   0.395  0.2291 -0.4356 -0.0415
  262MOL0     C35299   6.370   6.249   0.395 -0.0681 -0.4146 -1.1355
  262MOL0     C35300   7.121   6.019   0.715  0.2907 -0.3527  0.1026
  262MOL0     C35301   7.259   6.022   0.747  0.5255  0.2901 -0.5396
  262MOL0     C35302   7.347   5.925   0.667 -0.3978  0.4573 -0.2336
  262MOL0     H35303   7.580   6.438   0.982 -1.8200  0.9664  2.1467
  262MOL0     H35304   7.790   6.493   1.117  2.9662 -0.5778  3.6727
  262MOL0     H35305   7.959   6.153   1.383  3.5478 -2.3200  0.7978
  262MOL0     H35306   8.043   6.145   1.230  1.3069  0.2532 -0.4107
  262MOL0     H35307   8.190   6.167   1.427 -1.1875 -1.2263 -0.9755
  262MOL0     H35308   8.101   6.316   1.465 -0.6502 -0.0783 -0.2235
  262MOL0     H35309   8.327   6.351   1.364 -0.9325  1.9643 -0.6863
  262MOL0     H35310   8.203   6.409   1.245  0.4042 -0.3258 -1.3854
  262MOL0     H35311   8.321   6.122   1.213  1.4889  0.3951  0.2533
  262MOL0     H35312   8.239   6.225   1.107 -2.2414 -2.5221  1.5008
  262MOL0     H35313   8.429   6.385   1.098  2.2738 -1.0822 -2.4927
  262MOL0     H35314   8.505   6.303   1.242  2.2245  0.0574 -0.9658
  262MOL0     H35315   8.531   6.098   1.077 -0.9966  0.8700  1.9428
  262MOL0     H35316   8.482   6.213   0.951 -1.7827 -4.9126  0.6459
  262MOL0     H35317   8.732   6.221   1.142 -1.2052 -2.5820  0.4607
  262MOL0     H35318   8.711   6.334   1.004 -0.5096 -0.0222 -0.6433
  262MOL0     H35319   8.724   6.036   0.952  0.9846 -1.2556 -0.9929
  262MOL0     H35320   8.723   6.174   0.845  0.5451  1.3507 -0.0093
  262MOL0     H35321   8.916   6.365   0.901  2.1051  0.2341 -1.6487
  262MOL0     H35322   9.160   6.421   0.839 -2.2389 -0.6586 -2.5372
  262MOL0     H35323   9.262   6.344   0.955 -0.8538 -0.8385  1.2644
  262MOL0     H35324   9.290   6.152   0.758  1.2594  0.1578 -1.0310
  262MOL0     H35325   9.208   6.269   0.654 -2.7019  0.4854  1.4246
  262MOL0     H35326   9.477   6.322   0.802  0.8526 -1.0943 -0.3226
  262MOL0     H35327   9.392   6.437   0.705 -0.9162  0.1732 -0.2182
  262MOL0     H35328   9.430   6.260   0.508  2.1196  1.8677 -0.8524
  262MOL0     H35329   9.516   6.166   0.630  1.5913 -0.0832 -0.4154
  262MOL0     H35330   9.648   6.127   0.442 -0.9868  0.8442 -1.1611
  262MOL0     H35331   9.835   6.105   0.306 -4.1982 -1.1758  0.4030
  262MOL0     H35332  10.271   6.168   0.311  0.5766 -3.0888  0.1140
  262MOL0     H35333  10.494   6.169   0.224 -0.0958  2.0327 -1.0724
  262MOL0     H35334  10.550   6.104  -0.210  0.7896 -1.7810 -0.6528
  262MOL0     H35335  10.593   6.277  -0.164 -0.9466 -0.7057  1.5907
  262MOL0     H35336  10.801   6.192  -0.069  2.1470  2.3325 -1.2430
  262MOL0     H35337  10.771   6.034  -0.153 -2.7306 -0.3497  0.0680
  262MOL0     H35338  10.825   6.304  -0.278 -0.9090  0.8314 -0.1215
  262MOL0     H35339  10.941   6.165  -0.279 -0.1270  1.6703  0.0598
  262MOL0     H35340  10.693   6.235  -0.435 -0.1887  1.2183  1.9193
  262MOL0     H35341  10.778   6.065  -0.440  2.3027 -0.0045  2.6480
  262MOL0     H35342  10.980   6.167  -0.536  0.9231  0.8978 -2.3394
  262MOL0     H35343  10.930   6.328  -0.481 -2.2273  1.3285  0.8598
  262MOL0     H35344  10.782   6.183  -0.708 -0.0263 -1.5277 -0.5071
  262MOL0     H35345  10.749   6.339  -0.645  1.0276 -0.1777 -0.2127
  262MOL0     H35346  10.925   6.239  -0.840 -0.2524 -1.3047  1.3439
  262MOL0     H35347  11.039   6.299  -0.719 -0.4911  0.4031  2.6714
  262MOL0     H35348  10.847   6.462  -0.903  0.2727 -1.8838 -0.3721
  262MOL0     H35349  10.894   6.524  -0.743  3.3864  1.6078  0.7819
  262MOL0     H35350  10.332   6.154  -0.175 -3.8691  0.9519 -0.2438
  262MOL0     H35351  10.117   6.177  -0.095  2.6557 -0.9210 -2.4256
  262MOL0     H35352   9.930   6.530   0.387  0.3518  0.1054  2.5839
  262MOL0     H35353   9.758   6.536   0.537  2.5469  0.4655  0.7427
  262MOL0     H35354   7.800   6.071   1.227  1.5449  0.3511  1.0786
  262MOL0     H35355   7.593   6.046   1.132 -0.4366  1.0722  2.6311
  262MOL0     H35356   7.219   6.281   0.976 -1.0826 -1.5523  2.0723
  262MOL0     H35357   6.999   6.262   0.905  2.8694  1.7381  0.9238
  262MOL0     H35358   6.837   6.298   0.750  1.3688 -1.2689  2.1064
  262MOL0     H35359   6.749   6.175   0.839  0.9289 -0.7238  0.3449
  262MOL0     H35360   6.576   6.213   0.697 -0.3291 -1.6139 -1.3625
  262MOL0     H35361   6.671   6.085   0.621  2.5881 -0.0406  0.5010
  262MOL0     H35362   6.814   6.292   0.506 -0.7545  2.0049 -0.3005
  262MOL0     H35363   6.672   6.378   0.543  1.9298  0.0464  0.8155
  262MOL0     H35364   6.673   6.241   0.304 -2.1031 -1.3820 -1.1727
  262MOL0     H35365   6.657   6.103   0.391  1.4353  0.3002 -3.3658
  262MOL0     H35366   6.265   6.258   0.413 -0.4387 -2.1705 -2.1716
  262MOL0     H35367   7.081   5.944   0.647 -0.1648  0.0536 -0.0921
  262MOL0     H35368   7.387   5.969   0.575  1.0338 -3.0357 -1.4382
  262MOL0     H35369   7.426   5.874   0.721  0.9604  1.2752 -1.3788
  262MOL0     H35370   7.283   5.847   0.626 -1.3274  1.5524 -0.9520
  263MOL0     O35371   2.768   7.542   1.575  0.5302  0.0032 -0.1297
  263MOL0     C35372   2.797   7.442   1.646 -0.0967 -0.0150 -0.0616
  263MOL0     O35373   2.712   7.379   1.725 -0.1815 -0.2002 -0.3160
  263MOL0     C35374   2.580   7.410   1.716  0.7039 -0.3615 -0.8563
  263MOL0     C35375   2.528   7.514   1.791  0.1861  0.5847 -0.5913
  263MOL0     C35376   2.388   7.540   1.781  0.0701  0.2458 -0.5779
  263MOL0     C35377   2.303   7.472   1.693  0.1436  0.3552 -0.7533
  263MOL0     O35378   2.176   7.504   1.667 -0.3538  0.5704 -0.1319
  263MOL0     C35379   2.132   7.635   1.707 -0.1837 -0.4085 -0.2416
  263MOL0     C35380   2.005   7.676   1.630  0.1634  0.1052 -0.7580
  263MOL0     C35381   1.972   7.822   1.663 -0.3859  0.1132  0.3414
  263MOL0     C35382   1.923   7.903   1.534 -0.1196  0.2734  0.3967
  263MOL0     C35383   1.774   7.892   1.502 -0.1478 -0.3480 -1.1015
  263MOL0     C35384   1.695   7.995   1.583  0.8401 -0.5751  0.4871
  263MOL0     C35385   1.544   7.990   1.594  0.6587 -0.5075  0.5417
  263MOL0     C35386   1.485   8.013   1.457  0.3612  0.4261  0.5584
  263MOL0     N35387   1.524   8.141   1.396  0.2486 -0.3095 -0.3042
  263MOL0     C35388   1.622   8.168   1.304 -0.4207 -0.4155 -0.3280
  263MOL0     C35389   1.598   8.294   1.257  0.1884  0.1521  1.0578
  263MOL0     C35390   1.679   8.377   1.154  0.5438 -0.5481  0.3749
  263MOL0     C35391   1.657   8.321   1.013 -0.5377  0.9094  0.5495
  263MOL0     C35392   1.693   8.429   0.915 -0.3247 -0.2686  0.7163
  263MOL0     C35393   1.678   8.366   0.767 -0.7933  0.0949  0.6655
  263MOL0     O35394   1.704   8.464   0.664 -0.1393  0.2820  0.4431
  263MOL0     C35395   1.841   8.485   0.644  0.0631  1.3539 -0.1386
  263MOL0     C35396   1.954   8.430   0.718 -0.0043  0.3283  0.1809
  263MOL0     C35397   2.084   8.459   0.672 -0.5800  0.6253 -0.0143
  263MOL0     C35398   2.103   8.535   0.551 -1.4481  0.7927  0.5687
  263MOL0     C35399   2.237   8.576   0.492  0.2206 -0.6887 -0.7557
  263MOL0     O35400   2.338   8.556   0.575  0.2456  0.8744  0.1598
  263MOL0     C35401   2.469   8.574   0.538 -0.5963 -0.0810 -0.0199
  263MOL0     C35402   2.545   8.463   0.494  0.9514  0.1743 -0.0315
  263MOL0     C35403   2.682   8.475   0.469  0.1584  0.2971 -0.6243
  263MOL0     C35404   2.741   8.596   0.490  0.2902  0.0294  0.5826
  263MOL0     O35405   2.880   8.607   0.480 -0.3979 -0.5629  0.4463
  263MOL0     C35406   2.944   8.735   0.500  0.2200 -0.3178 -0.1811
  263MOL0     C35407   3.097   8.711   0.515 -0.3264 -0.3457  0.0814
  263MOL0     C35408   3.169   8.843   0.553  0.0351  0.3829  0.2520
  263MOL0     C35409   3.321   8.810   0.568  0.1160 -0.2771  0.1902
  263MOL0     C35410   3.391   8.943   0.592  0.4296  0.6039 -0.0209
  263MOL0     C35411   3.536   8.910   0.598  0.1335 -0.4730 -0.3597
  263MOL0     C35412   3.620   9.050   0.615 -0.1897 -1.2343  0.6168
  263MOL0     C35413   3.642   9.147   0.497  0.5547  0.5358 -0.1275
  263MOL0    Cl35414   3.484   9.221   0.440  0.0303  0.4077  0.3573
  263MOL0     C35415   2.666   8.711   0.503 -0.1856 -0.8981  0.4584
  263MOL0     C35416   2.526   8.696   0.534  0.0873 -0.4438 -0.2038
  263MOL0     O35417   2.244   8.609   0.379 -0.4423  0.0794 -0.1903
  263MOL0     C35418   1.989   8.582   0.481 -0.3633  0.4662 -0.0679
  263MOL0     C35419   1.863   8.562   0.532  0.5688 -0.1274 -0.5615
  263MOL0     N35420   1.485   8.339   1.321 -0.3314 -0.8743  0.2013
  263MOL0     N35421   1.438   8.247   1.394 -0.4647 -0.4284  0.4559
  263MOL0     C35422   2.355   7.364   1.616  0.3802 -0.6793 -0.5057
  263MOL0     C35423   2.489   7.338   1.627 -0.7342 -0.2779 -0.3063
  263MOL0     C35424   2.938   7.417   1.661  0.3066 -0.1198  0.5251
  263MOL0     C35425   3.031   7.518   1.675 -0.2088 -0.3428 -0.5038
  263MOL0     C35426   3.166   7.492   1.707  0.0634 -0.7694 -0.4356
  263MOL0     C35427   3.208   7.360   1.716  0.5557 -0.9024  0.1365
  263MOL0     O35428   3.343   7.343   1.746 -0.2686 -0.1669  0.2671
  263MOL0     C35429   3.379   7.204   1.752  0.1358  0.4913  0.5102
  263MOL0     C35430   3.536   7.189   1.768  0.0891 -0.2874  0.2304
  263MOL0     C35431   3.580   7.234   1.904 -0.2660 -0.1596  0.4140
  263MOL0     C35432   3.706   7.161   1.941 -0.1239 -0.3829  0.0608
  263MOL0     C35433   3.810   7.177   1.838 -0.3184  0.2075 -0.0317
  263MOL0     C35434   3.897   7.191   1.755 -0.4626 -0.5289  0.5092
  263MOL0     C35435   3.114   7.262   1.693 -0.8946 -0.0388  0.5063
  263MOL0     C35436   2.986   7.273   1.663 -1.1751 -0.0681 -0.1724
  263MOL0     C35437   2.889   7.158   1.636 -0.7432  0.5963  0.5426
  263MOL0     H35438   2.590   7.576   1.856 -1.1213  3.7365 -2.1100
  263MOL0     H35439   2.358   7.627   1.838 -1.1228 -0.5871  0.1084
  263MOL0     H35440   2.108   7.639   1.813 -2.3524 -0.7570 -0.6778
  263MOL0     H35441   2.205   7.715   1.691 -1.5041  1.0845  0.8675
  263MOL0     H35442   1.917   7.617   1.659 -1.0013  1.1840 -1.9663
  263MOL0     H35443   2.022   7.658   1.523 -1.8901 -4.3994 -0.5660
  263MOL0     H35444   2.064   7.872   1.696 -0.9334  1.5473 -0.1843
  263MOL0     H35445   1.905   7.833   1.749 -1.1857  0.0340 -0.2518
  263MOL0     H35446   1.944   8.010   1.538  3.0415  0.0423 -3.2847
  263MOL0     H35447   1.974   7.864   1.444 -0.6468  2.2401 -0.8080
  263MOL0     H35448   1.753   7.914   1.397 -2.3947  0.3381 -0.5615
  263MOL0     H35449   1.724   7.797   1.524 -1.9658  1.2401  2.6419
  263MOL0     H35450   1.715   7.974   1.689 -1.0133 -4.4785  0.2465
  263MOL0     H35451   1.735   8.095   1.565 -0.8145  0.8480  3.6881
  263MOL0     H35452   1.517   8.076   1.656  3.3226  2.3437 -1.8887
  263MOL0     H35453   1.516   7.892   1.634 -1.0566 -0.4100 -0.3074
  263MOL0     H35454   1.528   7.942   1.386 -0.0697  3.6911 -3.2640
  263MOL0     H35455   1.377   7.999   1.468  0.5668 -1.4043  0.6146
  263MOL0     H35456   1.692   8.091   1.274 -2.1582 -2.2971  0.2748
  263MOL0     H35457   1.649   8.482   1.155  3.9076  0.5120 -0.0685
  263MOL0     H35458   1.781   8.371   1.191  0.0374 -1.7905  1.6498
  263MOL0     H35459   1.699   8.222   0.995 -3.0549 -0.2134  0.3431
  263MOL0     H35460   1.550   8.314   0.990 -0.0542 -0.0294 -1.6815
  263MOL0     H35461   1.801   8.437   0.929  0.1937 -3.3438 -0.5709
  263MOL0     H35462   1.632   8.520   0.918 -0.4776 -0.0148 -3.5679
  263MOL0     H35463   1.578   8.329   0.742  0.3030 -2.3184 -0.5000
  263MOL0     H35464   1.752   8.286   0.759 -0.8312  0.0798  0.4695
  263MOL0     H35465   1.953   8.368   0.807  3.1047  1.4793  1.1216
  263MOL0     H35466   2.171   8.415   0.719  0.1863  0.7830 -1.2281
  263MOL0     H35467   2.487   8.371   0.490 -0.8588  1.2767 -0.0758
  263MOL0     H35468   2.745   8.392   0.439 -1.1826 -0.1463 -2.4160
  263MOL0     H35469   2.909   8.804   0.422 -0.7198 -2.5198 -1.8235
  263MOL0     H35470   2.920   8.771   0.601  1.8955  1.5464 -0.3983
  263MOL0     H35471   3.141   8.652   0.596  1.4583  1.5832  0.5798
  263MOL0     H35472   3.135   8.691   0.414 -1.7736  2.7779 -1.2006
  263MOL0     H35473   3.160   8.913   0.470  0.6753 -1.4383 -1.4196
  263MOL0     H35474   3.127   8.887   0.644  0.4232  1.2999  0.0022
  263MOL0     H35475   3.354   8.764   0.475  0.4626  1.7766 -0.7583
  263MOL0     H35476   3.341   8.738   0.648 -2.5385 -0.2914  0.9587
  263MOL0     H35477   3.351   8.991   0.682  0.4067  1.6768 -0.5930
  263MOL0     H35478   3.366   9.004   0.505 -0.8490 -0.8100 -0.6871
  263MOL0     H35479   3.556   8.841   0.681 -1.3766  0.0696  0.4835
  263MOL0     H35480   3.566   8.863   0.504 -0.7077  0.1195 -0.9259
  263MOL0     H35481   3.726   9.023   0.617  0.3611  0.8327  1.2224
  263MOL0     H35482   3.603   9.103   0.709  0.1772  1.2432 -0.6324
  263MOL0     H35483   3.707   9.225   0.539 -0.7658  0.8172  1.4816
  263MOL0     H35484   3.693   9.108   0.408  2.4204  1.1118  0.6417
  263MOL0     H35485   2.702   8.812   0.518 -3.0465  0.0959  1.4930
  263MOL0     H35486   2.475   8.785   0.567  0.5985 -0.3145  0.2546
  263MOL0     H35487   2.007   8.634   0.388 -0.5244 -1.2269 -1.0943
  263MOL0     H35488   1.775   8.604   0.486  0.9784  0.8601 -0.4549
  263MOL0     H35489   2.296   7.323   1.534 -1.4160  1.7844 -0.5851
  263MOL0     H35490   2.534   7.256   1.573 -0.4392 -1.2716  1.3877
  263MOL0     H35491   3.000   7.622   1.674 -0.2549 -0.3259 -2.8514
  263MOL0     H35492   3.241   7.567   1.728  1.1106 -1.6412 -0.9419
  263MOL0     H35493   3.349   7.155   1.659  2.0845  3.1813 -1.7178
  263MOL0     H35494   3.333   7.166   1.844 -0.2038  1.1055  0.6025
  263MOL0     H35495   3.578   7.252   1.688  0.2458 -0.8558 -0.1414
  263MOL0     H35496   3.570   7.087   1.750 -2.1303 -0.9781 -0.3800
  263MOL0     H35497   3.508   7.213   1.985 -0.0845 -0.4016  0.5135
  263MOL0     H35498   3.599   7.341   1.898 -1.3797  0.0383  0.1981
  263MOL0     H35499   3.749   7.196   2.034  2.5227 -1.1372 -0.8074
  263MOL0     H35500   3.692   7.054   1.956  0.0029 -0.4263 -0.1239
  263MOL0     H35501   3.961   7.214   1.673  0.2280  3.1804  1.9030
  263MOL0     H35502   3.136   7.159   1.721 -2.7130 -0.1741  1.5731
  263MOL0     H35503   2.824   7.133   1.720  0.1150 -3.6410  0.2013
  263MOL0     H35504   2.825   7.169   1.548 -1.8347  2.0078  1.4775
  263MOL0     H35505   2.955   7.076   1.605  0.1533  1.8303 -0.9771
  264MOL0     O35506   0.766   4.767   8.593 -0.2697 -0.3453 -0.4414
  264MOL0     C35507   0.774   4.651   8.572 -0.5215  0.5504 -0.0044
  264MOL0     O35508   0.891   4.578   8.550  0.1116  0.0102 -0.3374
  264MOL0     C35509   1.012   4.641   8.571 -0.3787  0.9019  0.2061
  264MOL0     C35510   1.044   4.727   8.685 -0.0682  0.2166 -0.6817
  264MOL0     C35511   1.171   4.772   8.706 -0.3735  0.6726 -0.0408
  264MOL0     C35512   1.278   4.733   8.619 -0.7364  1.1211  0.8247
  264MOL0     O35513   1.408   4.775   8.625 -0.1564 -0.6807  0.3341
  264MOL0     C35514   1.475   4.719   8.737 -0.1340 -0.7386 -0.1854
  264MOL0     C35515   1.604   4.664   8.681 -0.4065 -0.3061  0.4040
  264MOL0     C35516   1.685   4.617   8.793 -0.3248  0.5364 -0.2529
  264MOL0     C35517   1.833   4.586   8.756 -0.0671 -0.0409 -0.2958
  264MOL0     C35518   1.901   4.490   8.850  0.0451  0.9066 -0.6328
  264MOL0     C35519   2.036   4.449   8.800  0.4724 -0.7820 -0.1319
  264MOL0     C35520   2.095   4.365   8.910 -0.4659  0.1876  0.2342
  264MOL0     C35521   2.226   4.293   8.869 -0.4804  0.4750  0.1055
  264MOL0     N35522   2.343   4.389   8.872 -0.2756  0.4694  0.8567
  264MOL0     C35523   2.458   4.364   8.942  0.2729  0.5294  0.2245
  264MOL0     C35524   2.560   4.427   8.881 -0.3126 -1.2350  0.0192
  264MOL0     C35525   2.709   4.428   8.934  0.5846  0.0642 -0.1439
  264MOL0     C35526   2.805   4.503   8.833 -0.6236 -0.6246 -0.0747
  264MOL0     C35527   2.935   4.533   8.907  0.8476  0.4484 -0.6479
  264MOL0     C35528   3.028   4.582   8.807  0.0976 -0.9352 -0.0804
  264MOL0     O35529   3.077   4.467   8.727  0.3614 -0.3915  0.3277
  264MOL0     C35530   3.205   4.446   8.688 -0.3508  0.2006  0.5650
  264MOL0     C35531   3.296   4.548   8.676  0.4417  0.7378 -0.1652
  264MOL0     C35532   3.426   4.518   8.627 -0.5311  0.2528  0.1563
  264MOL0     C35533   3.467   4.386   8.600 -0.2507 -0.2168 -0.6172
  264MOL0     C35534   3.604   4.346   8.561  0.0282  0.2013  0.5149
  264MOL0     O35535   3.670   4.438   8.484 -0.0728 -0.6054  0.0436
  264MOL0     C35536   3.804   4.408   8.448 -0.1637 -0.5962 -0.3931
  264MOL0     C35537   3.828   4.346   8.323  0.2489 -0.0695 -0.0593
  264MOL0     C35538   3.958   4.303   8.295  0.2345  0.5296 -0.3520
  264MOL0     C35539   4.064   4.353   8.376  0.2853  0.1453  0.0647
  264MOL0     O35540   4.183   4.333   8.320  0.1886  0.4501  0.0569
  264MOL0     C35541   4.308   4.347   8.401  0.4457 -0.6007  1.2088
  264MOL0     C35542   4.371   4.490   8.391  0.2055  0.2742  0.3866
  264MOL0     C35543   4.458   4.502   8.266  0.2395 -0.9523  0.6350
  264MOL0     C35544   4.534   4.631   8.274  0.0970  0.2414 -0.0555
  264MOL0     C35545   4.643   4.622   8.162 -0.0450  0.2761 -0.1768
  264MOL0     C35546   4.729   4.742   8.163 -0.6019  0.2766  0.0082
  264MOL0     C35547   4.822   4.759   8.287  0.0630 -0.0956 -0.2338
  264MOL0     C35548   4.966   4.721   8.247  0.3564 -0.7929 -0.1875
  264MOL0    Cl35549   5.042   4.866   8.172  0.0598 -0.0530 -0.1291
  264MOL0     C35550   4.039   4.430   8.494 -1.1401 -0.1796  0.5270
  264MOL0     C35551   3.907   4.451   8.533 -0.4793  0.4506 -0.1806
  264MOL0     O35552   3.636   4.230   8.583 -0.0662  0.0432  0.1631
  264MOL0     C35553   3.368   4.288   8.604 -0.5363 -0.2547 -0.0445
  264MOL0     C35554   3.242   4.315   8.654 -0.6539  0.0958  0.0074
  264MOL0     N35555   2.502   4.495   8.769 -0.0443  0.1561 -0.2471
  264MOL0     N35556   2.376   4.478   8.773 -0.5390  0.5234 -0.6323
  264MOL0     C35557   1.239   4.680   8.497 -0.7711  0.0438  0.3509
  264MOL0     C35558   1.113   4.626   8.478  0.0770 -0.0275 -0.2353
  264MOL0     C35559   0.655   4.567   8.576  0.2857  0.0958 -0.5397
  264MOL0     C35560   0.669   4.431   8.554  0.3444 -0.0252 -0.2721
  264MOL0     C35561   0.558   4.344   8.549  0.1958 -0.2851  0.8530
  264MOL0     C35562   0.430   4.392   8.567 -0.0011  0.3599 -0.3053
  264MOL0     O35563   0.319   4.316   8.557 -0.2118  0.4024 -0.2674
  264MOL0     C35564   0.332   4.188   8.497 -0.1301  0.3233 -1.0094
  264MOL0     C35565   0.197   4.124   8.476 -0.4548 -0.0092  0.2717
  264MOL0     C35566   0.106   4.139   8.590  0.5047 -0.0101 -1.0230
  264MOL0     C35567  -0.007   4.036   8.572 -0.3369  0.2148 -0.6584
  264MOL0     C35568  -0.109   4.058   8.675  0.1822  0.3606  0.0181
  264MOL0     C35569  -0.215   4.075   8.748 -0.0923  0.0896  0.7003
  264MOL0     C35570   0.413   4.525   8.597  0.1173  0.5545 -0.1148
  264MOL0     C35571   0.523   4.608   8.600 -0.7962 -0.1658 -0.8152
  264MOL0     C35572   0.488   4.754   8.640 -0.0528  1.1790 -0.2723
  264MOL0     H35573   0.959   4.747   8.749 -0.7165 -0.9495 -1.1436
  264MOL0     H35574   1.197   4.842   8.784 -1.3068  1.3293 -0.3058
  264MOL0     H35575   1.495   4.802   8.805 -1.9388  0.9098 -1.5526
  264MOL0     H35576   1.423   4.637   8.788  0.2361 -2.1592 -2.0036
  264MOL0     H35577   1.656   4.737   8.618 -2.1643 -0.1575 -0.9637
  264MOL0     H35578   1.584   4.580   8.614 -0.0833 -1.0744  1.2441
  264MOL0     H35579   1.630   4.527   8.824  1.4881 -0.9692 -1.1881
  264MOL0     H35580   1.685   4.695   8.870  0.1310  1.9706 -1.6719
  264MOL0     H35581   1.850   4.563   8.651  1.1659 -1.6184  0.2121
  264MOL0     H35582   1.887   4.681   8.765 -0.5297  0.2057 -0.0938
  264MOL0     H35583   1.917   4.531   8.950 -1.4654  1.2153 -0.5009
  264MOL0     H35584   1.852   4.392   8.851  1.2128  0.2825  1.5522
  264MOL0     H35585   2.033   4.408   8.699 -2.3472  0.3044 -0.6001
  264MOL0     H35586   2.096   4.541   8.796  1.4530 -1.4668 -1.5830
  264MOL0     H35587   2.037   4.282   8.950  0.0357 -0.6493 -0.7261
  264MOL0     H35588   2.112   4.430   8.997  0.2388  0.0146  0.2342
  264MOL0     H35589   2.238   4.214   8.944  2.8992  2.1786  1.5330
  264MOL0     H35590   2.208   4.249   8.770 -1.7118  0.2002  0.4321
  264MOL0     H35591   2.470   4.304   9.032  0.6292  4.1849  2.8117
  264MOL0     H35592   2.718   4.477   9.031 -0.7498 -1.5556  0.8519
  264MOL0     H35593   2.751   4.328   8.945  2.0372  0.7758  0.9684
  264MOL0     H35594   2.823   4.442   8.744 -0.3198 -0.3483 -0.2059
  264MOL0     H35595   2.766   4.599   8.798 -1.6605 -0.2358  1.9630
  264MOL0     H35596   2.970   4.445   8.961  1.6572  0.9956 -0.2592
  264MOL0     H35597   2.916   4.605   8.986 -1.0760  0.8316 -1.4098
  264MOL0     H35598   3.108   4.638   8.856 -0.0520 -0.0816 -0.7962
  264MOL0     H35599   2.969   4.649   8.744 -2.6888 -2.2200  0.9710
  264MOL0     H35600   3.266   4.651   8.690 -0.0759  0.7304 -1.0961
  264MOL0     H35601   3.504   4.591   8.608  0.8032 -1.5132 -1.5043
  264MOL0     H35602   3.742   4.308   8.269 -0.2147  0.0641  0.5786
  264MOL0     H35603   3.975   4.237   8.211  0.3769  0.2531 -0.1071
  264MOL0     H35604   4.284   4.323   8.505  0.4862 -0.7830  1.1768
  264MOL0     H35605   4.379   4.270   8.371  1.1785  0.2726  0.6593
  264MOL0     H35606   4.287   4.559   8.384 -1.3479 -1.6826 -1.3409
  264MOL0     H35607   4.434   4.510   8.478  0.9301 -1.9657  0.4375
  264MOL0     H35608   4.536   4.428   8.247  3.5695  2.6428 -1.1073
  264MOL0     H35609   4.408   4.497   8.169  4.3850  0.1070 -1.7938
  264MOL0     H35610   4.578   4.637   8.374  1.9717  0.5633 -0.8550
  264MOL0     H35611   4.473   4.721   8.261  1.4329  1.3411  0.9085
  264MOL0     H35612   4.587   4.617   8.068 -2.7036  2.0062  1.1947
  264MOL0     H35613   4.701   4.530   8.175  1.2400  1.1546  0.5840
  264MOL0     H35614   4.790   4.726   8.073  1.2790  1.1602  1.0640
  264MOL0     H35615   4.668   4.832   8.154 -2.1956 -0.8800 -1.4044
  264MOL0     H35616   4.793   4.707   8.378 -1.9020  1.9747  0.4157
  264MOL0     H35617   4.825   4.861   8.326 -0.9184 -0.8315  1.9233
  264MOL0     H35618   5.026   4.697   8.335  0.9723 -0.9345 -0.6407
  264MOL0     H35619   4.971   4.639   8.176  3.2657 -0.1910 -0.8014
  264MOL0     H35620   4.122   4.484   8.540  2.1172 -1.4853 -3.2486
  264MOL0     H35621   3.887   4.516   8.617  0.5991  1.9961 -1.0766
  264MOL0     H35622   3.389   4.184   8.582 -0.0882  0.3646 -2.9289
  264MOL0     H35623   3.173   4.233   8.666  0.5001 -0.5583  3.0465
  264MOL0     H35624   1.317   4.661   8.424  0.2076  0.6545  1.2087
  264MOL0     H35625   1.096   4.579   8.381 -2.6224  0.9881 -0.3557
  264MOL0     H35626   0.764   4.378   8.546  0.3817 -0.3408  1.6957
  264MOL0     H35627   0.575   4.241   8.520 -1.6170 -0.7036  1.1239
  264MOL0     H35628   0.383   4.126   8.572 -1.3042  1.9190  1.2520
  264MOL0     H35629   0.391   4.188   8.405  0.6169  0.3559 -0.5375
  264MOL0     H35630   0.206   4.016   8.462  0.9097  0.3819 -2.4851
  264MOL0     H35631   0.151   4.162   8.384  0.1776 -0.0886 -0.0841
  264MOL0     H35632   0.057   4.236   8.596 -3.7586 -2.0202  0.1403
  264MOL0     H35633   0.155   4.121   8.687 -0.9369 -1.0886 -0.4648
  264MOL0     H35634  -0.045   4.040   8.469 -0.6850 -0.8854 -0.5914
  264MOL0     H35635   0.044   3.940   8.585  0.8550  1.0255  1.0734
  264MOL0     H35636  -0.304   4.102   8.803 -0.8762 -0.7039 -0.1448
  264MOL0     H35637   0.314   4.568   8.600 -1.2335 -2.3535  0.8579
  264MOL0     H35638   0.379   4.758   8.650 -0.6336 -2.5148 -2.9575
  264MOL0     H35639   0.545   4.777   8.730  0.3552  0.0406 -0.2205
  264MOL0     H35640   0.509   4.816   8.553 -1.7050  0.6923 -1.0683
  265MOL0     O35641   7.523   2.976   5.482  0.0644  0.4911 -0.0152
  265MOL0     C35642   7.505   3.073   5.408  0.6979 -0.6026 -0.4513
  265MOL0     O35643   7.612   3.146   5.346 -0.4910 -0.0101  0.3627
  265MOL0     C35644   7.744   3.113   5.393  0.1790  0.4723 -0.7748
  265MOL0     C35645   7.814   3.008   5.330  0.2345 -0.3415 -0.2728
  265MOL0     C35646   7.942   2.976   5.367 -0.0780  0.4781 -0.4024
  265MOL0     C35647   8.006   3.054   5.466  0.3079  0.3727 -0.0267
  265MOL0     O35648   8.143   3.042   5.498  0.1828 -0.1793 -0.4148
  265MOL0     C35649   8.178   2.923   5.572 -0.1590  1.0415 -0.1880
  265MOL0     C35650   8.304   2.957   5.658  0.4927  0.4613  0.4314
  265MOL0     C35651   8.343   2.857   5.760 -0.1870  0.4730 -0.7721
  265MOL0     C35652   8.477   2.899   5.817  0.2518  0.2772 -0.3598
  265MOL0     C35653   8.592   2.839   5.745 -0.1505  1.2895  0.3261
  265MOL0     C35654   8.719   2.912   5.785 -0.4560  0.1809  0.3287
  265MOL0     C35655   8.844   2.858   5.707  0.1550 -0.9569  0.3100
  265MOL0     C35656   8.946   2.968   5.663  0.4432 -0.4997  0.5776
  265MOL0     N35657   9.052   3.001   5.758 -0.5509  0.2764 -0.4140
  265MOL0     C35658   9.182   2.952   5.726  1.0043 -0.0681 -0.0188
  265MOL0     C35659   9.259   3.028   5.807 -0.3702  0.4594 -0.3376
  265MOL0     C35660   9.412   3.027   5.808 -0.0910  0.2206  0.2725
  265MOL0     C35661   9.474   2.949   5.931 -0.2126 -0.2863  0.3046
  265MOL0     C35662   9.624   2.950   5.926  0.1320  0.1195  0.0362
  265MOL0     C35663   9.684   2.854   6.020 -0.0056  0.6137 -0.1136
  265MOL0     O35664   9.678   2.724   5.968 -0.0626 -0.1485 -0.3145
  265MOL0     C35665   9.759   2.681   5.870  0.1934  1.0400  0.7308
  265MOL0     C35666   9.875   2.751   5.828  0.2170 -0.3834 -0.1821
  265MOL0     C35667   9.949   2.685   5.736  0.4428  0.3491 -0.3258
  265MOL0     C35668   9.912   2.569   5.673  0.2639 -0.6405 -0.9314
  265MOL0     C35669  10.001   2.505   5.570  0.6263 -0.0994  0.2373
  265MOL0     O35670  10.124   2.558   5.545 -0.1904 -0.0558 -0.4399
  265MOL0     C35671  10.211   2.520   5.445  0.4533  0.7340  0.3793
  265MOL0     C35672  10.194   2.421   5.346 -0.6232 -1.0356  0.3533
  265MOL0     C35673  10.298   2.402   5.256 -0.9701 -0.6539 -0.1718
  265MOL0     C35674  10.418   2.471   5.260  0.1709  0.1075 -0.4204
  265MOL0     O35675  10.518   2.436   5.168 -0.2662  0.2444  1.1429
  265MOL0     C35676  10.524   2.296   5.128  0.5467 -0.8071  0.4082
  265MOL0     C35677  10.657   2.278   5.060  0.4160  0.1023  0.0983
  265MOL0     C35678  10.653   2.332   4.913  0.4352 -0.2124 -1.6500
  265MOL0     C35679  10.777   2.303   4.833  0.6972 -0.5271  0.2637
  265MOL0     C35680  10.889   2.392   4.892  1.3935 -0.0685  0.1926
  265MOL0     C35681  11.016   2.363   4.812  0.1586 -0.2388  0.0056
  265MOL0     C35682  11.132   2.458   4.854 -0.1130 -0.3741  0.1594
  265MOL0     C35683  11.238   2.434   4.754 -0.7326 -0.0148  0.8562
  265MOL0    Cl35684  11.386   2.502   4.824  0.2806  0.2399  0.0872
  265MOL0     C35685  10.437   2.564   5.362  0.0944  0.5008  0.0996
  265MOL0     C35686  10.328   2.589   5.449  0.0922  0.3235  0.1629
  265MOL0     O35687   9.951   2.416   5.505  0.1596 -0.4408 -0.1964
  265MOL0     C35688   9.790   2.514   5.708 -0.2462 -0.4588  0.4104
  265MOL0     C35689   9.725   2.559   5.820  0.1464  0.3969  0.3908
  265MOL0     N35690   9.180   3.121   5.875 -0.4370 -0.6341  0.0917
  265MOL0     N35691   9.057   3.109   5.843 -0.3254  0.0092  0.7350
  265MOL0     C35692   7.934   3.147   5.533 -0.5253  0.5077  0.9492
  265MOL0     C35693   7.802   3.178   5.506  0.5141 -0.0544 -0.9583
  265MOL0     C35694   7.363   3.117   5.374 -0.4234  0.2412  0.4911
  265MOL0     C35695   7.264   3.054   5.440  0.1225 -0.4430 -1.5122
  265MOL0     C35696   7.128   3.099   5.440  0.1133  0.1142 -0.3413
  265MOL0     C35697   7.093   3.212   5.368  0.0306  0.0808  0.2565
  265MOL0     O35698   6.962   3.256   5.354 -0.0825  0.2396 -0.0020
  265MOL0     C35699   6.868   3.147   5.340 -0.1384  0.5197  0.6032
  265MOL0     C35700   6.725   3.198   5.305 -0.2962 -0.8212 -0.0869
  265MOL0     C35701   6.739   3.275   5.178 -0.8708 -0.2831 -0.5620
  265MOL0     C35702   6.604   3.305   5.116 -0.1479 -0.3507 -0.3525
  265MOL0     C35703   6.510   3.383   5.200 -0.3985  0.4172  0.7367
  265MOL0     C35704   6.438   3.457   5.256  0.1745 -0.6025  1.0084
  265MOL0     C35705   7.195   3.279   5.303 -1.0034 -0.4705 -0.0583
  265MOL0     C35706   7.324   3.230   5.300 -0.0286 -0.5415  0.2437
  265MOL0     C35707   7.422   3.313   5.219  0.1112  0.9236 -0.5013
  265MOL0     H35708   7.759   2.952   5.255  0.0605  0.2196 -0.5684
  265MOL0     H35709   8.006   2.903   5.320 -3.3600 -1.2234 -2.6356
  265MOL0     H35710   8.091   2.891   5.629  1.4496 -1.1503  1.2270
  265MOL0     H35711   8.191   2.838   5.503 -1.2183  1.3082 -0.7432
  265MOL0     H35712   8.287   3.054   5.705 -3.1693 -0.4013  1.1399
  265MOL0     H35713   8.384   2.974   5.585  0.8491 -1.7176  0.2448
  265MOL0     H35714   8.355   2.755   5.722  1.7738  0.1510  0.5308
  265MOL0     H35715   8.267   2.854   5.838 -0.1037  0.9516 -0.6717
  265MOL0     H35716   8.476   3.008   5.814 -0.1490  0.3642 -5.6108
  265MOL0     H35717   8.485   2.864   5.921 -4.8107 -1.4643 -0.2991
  265MOL0     H35718   8.593   2.734   5.776  1.6952  0.1400 -2.9984
  265MOL0     H35719   8.579   2.836   5.636 -0.2212 -0.2057  0.3503
  265MOL0     H35720   8.703   3.014   5.748  2.2278  0.8855  0.9456
  265MOL0     H35721   8.736   2.914   5.893  0.6900 -1.5562  0.2175
  265MOL0     H35722   8.817   2.797   5.621  0.4100 -0.0810 -0.4029
  265MOL0     H35723   8.898   2.801   5.784 -0.6690 -0.9351  0.9131
  265MOL0     H35724   8.983   2.937   5.565 -0.9384 -3.4133  0.8938
  265MOL0     H35725   8.886   3.059   5.656 -1.6210 -1.8606 -0.3873
  265MOL0     H35726   9.212   2.877   5.654  0.2260  1.1855 -1.7386
  265MOL0     H35727   9.449   2.981   5.716  0.3157  0.8590  0.1110
  265MOL0     H35728   9.437   3.133   5.806  2.3175 -0.3028  0.4059
  265MOL0     H35729   9.434   2.988   6.025 -1.3880 -1.5472  0.3669
  265MOL0     H35730   9.440   2.845   5.924 -0.0512 -0.3267  0.1305
  265MOL0     H35731   9.658   3.053   5.943 -0.8403  0.3107  0.9654
  265MOL0     H35732   9.662   2.929   5.826  0.9149  0.8878  0.1561
  265MOL0     H35733   9.640   2.851   6.121  0.8478  1.9639  0.3134
  265MOL0     H35734   9.786   2.887   6.037  0.5568 -1.1676  0.1334
  265MOL0     H35735   9.918   2.844   5.861  1.2013 -1.4523  1.7200
  265MOL0     H35736  10.040   2.736   5.708  0.6641  1.4010  2.0349
  265MOL0     H35737  10.101   2.371   5.325  0.6094 -3.2089 -0.2325
  265MOL0     H35738  10.284   2.324   5.181 -1.5087 -0.6077 -0.1223
  265MOL0     H35739  10.525   2.219   5.207 -2.7768  0.6200  2.0462
  265MOL0     H35740  10.443   2.266   5.061 -2.0091  0.7766  2.5544
  265MOL0     H35741  10.726   2.330   5.127 -1.7432  1.2631  1.5454
  265MOL0     H35742  10.675   2.171   5.056 -2.6986 -0.4886 -3.0139
  265MOL0     H35743  10.565   2.292   4.863 -0.7940  0.6706 -0.2872
  265MOL0     H35744  10.638   2.440   4.922  0.0055 -0.4460  2.0671
  265MOL0     H35745  10.766   2.320   4.725  1.4162 -1.9238 -0.0666
  265MOL0     H35746  10.801   2.196   4.841 -2.1043 -1.1522  1.3193
  265MOL0     H35747  10.893   2.376   5.000  1.1627 -3.9407 -0.2517
  265MOL0     H35748  10.862   2.495   4.866 -1.6093 -1.0240 -0.7992
  265MOL0     H35749  11.041   2.257   4.827  0.2960 -0.3769 -1.1392
  265MOL0     H35750  11.008   2.377   4.704  0.3380  1.9883  0.2390
  265MOL0     H35751  11.168   2.425   4.952 -0.5127 -1.8688 -0.1688
  265MOL0     H35752  11.093   2.558   4.875 -0.5760 -0.3518 -0.7419
  265MOL0     H35753  11.259   2.328   4.737  0.7509 -0.0716  2.7319
  265MOL0     H35754  11.216   2.488   4.661  1.6017  1.4947  1.1071
  265MOL0     H35755  10.530   2.619   5.355  0.8739 -1.0100 -2.9964
  265MOL0     H35756  10.321   2.657   5.533  0.9887  0.9477 -0.2502
  265MOL0     H35757   9.742   2.427   5.663  0.0004 -0.0202 -0.7297
  265MOL0     H35758   9.631   2.511   5.845 -0.7511  0.4741 -2.4552
  265MOL0     H35759   7.995   3.197   5.608 -0.2729 -0.7953  1.6518
  265MOL0     H35760   7.741   3.245   5.566  1.9324 -1.1118  1.7865
  265MOL0     H35761   7.286   2.979   5.515 -3.2471 -1.3949 -1.3422
  265MOL0     H35762   7.062   3.045   5.507 -0.8229  0.9544 -0.5790
  265MOL0     H35763   6.855   3.082   5.427  0.2339  2.1930  1.9519
  265MOL0     H35764   6.897   3.092   5.250  0.3667 -0.6411  1.4508
  265MOL0     H35765   6.699   3.265   5.387  0.4677 -0.7284  0.0836
  265MOL0     H35766   6.648   3.120   5.301 -0.3593 -0.7491 -0.3079
  265MOL0     H35767   6.806   3.219   5.113 -0.2790  0.4075 -0.5659
  265MOL0     H35768   6.787   3.369   5.206 -1.7647  0.9683 -2.9154
  265MOL0     H35769   6.626   3.362   5.025 -2.1268  1.0251 -0.0401
  265MOL0     H35770   6.546   3.218   5.085 -0.4978 -0.4123  0.4527
  265MOL0     H35771   6.366   3.509   5.315  2.1667  1.6811  1.5753
  265MOL0     H35772   7.164   3.366   5.245  1.6010 -0.2453 -1.2357
  265MOL0     H35773   7.383   3.409   5.184 -2.0357 -0.3300 -1.7798
  265MOL0     H35774   7.507   3.339   5.282  1.3744 -0.8802 -1.3888
  265MOL0     H35775   7.471   3.259   5.138  2.5337 -0.2513  1.6251
  266MOL0     O35776  10.620   8.853   8.629 -0.5667 -0.3315  0.2356
  266MOL0     C35777  10.574   8.818   8.742 -0.1502 -0.1955  0.1198
  266MOL0     O35778  10.643   8.806   8.860 -0.7586  0.1613  0.7811
  266MOL0     C35779  10.771   8.759   8.851 -0.7288  0.7602 -0.3030
  266MOL0     C35780  10.800   8.650   8.765  0.3462  0.1139  0.3013
  266MOL0     C35781  10.930   8.590   8.767 -0.1462 -0.7683  0.2709
  266MOL0     C35782  11.031   8.643   8.858 -0.0530  0.6468 -0.3152
  266MOL0     O35783  11.160   8.610   8.836 -0.1776  0.1853  0.3252
  266MOL0     C35784  11.233   8.688   8.744  0.3140 -0.0320  0.8551
  266MOL0     C35785  11.372   8.717   8.785 -1.2796  0.0334 -0.9622
  266MOL0     C35786  11.378   8.806   8.900 -0.4007  0.2086 -0.5656
  266MOL0     C35787  11.510   8.842   8.961 -1.0240 -0.4715 -0.0158
  266MOL0     C35788  11.620   8.873   8.860  0.4784  0.6031  0.1170
  266MOL0     C35789  11.577   9.001   8.782 -0.6788 -0.0500 -0.6956
  266MOL0     C35790  11.692   9.033   8.690  0.6489 -0.1680 -0.1658
  266MOL0     C35791  11.677   9.163   8.607  0.4805 -0.3123 -0.9212
  266MOL0     N35792  11.671   9.289   8.671  0.4076 -0.3680  0.9873
  266MOL0     C35793  11.784   9.353   8.722 -0.3476 -0.4252  0.1680
  266MOL0     C35794  11.743   9.480   8.749 -0.8307  0.2201 -0.0790
  266MOL0     C35795  11.819   9.586   8.809 -0.7193  0.3378  1.0969
  266MOL0     C35796  11.762   9.618   8.945 -0.2112  0.7940 -0.1297
  266MOL0     C35797  11.792   9.511   9.046  1.0325 -0.8244 -0.2089
  266MOL0     C35798  11.737   9.555   9.187  0.0026 -0.3400  0.1326
  266MOL0     O35799  11.808   9.665   9.245 -0.2172 -0.0064 -1.0202
  266MOL0     C35800  11.943   9.656   9.264 -0.9555 -0.4048  0.4083
  266MOL0     C35801  12.019   9.772   9.237 -0.5225 -0.7415 -0.0941
  266MOL0     C35802  12.158   9.764   9.248 -0.1665  0.1810  1.3066
  266MOL0     C35803  12.229   9.643   9.277  0.8029 -0.4804 -0.7055
  266MOL0     C35804  12.374   9.643   9.276  0.8496  0.7137 -0.7372
  266MOL0     O35805  12.448   9.729   9.198 -0.2924  0.5022  0.2871
  266MOL0     C35806  12.584   9.688   9.176  0.5907 -0.1021  0.0805
  266MOL0     C35807  12.692   9.724   9.261 -0.3681 -0.6304 -0.6125
  266MOL0     C35808  12.822   9.689   9.222 -0.2982  0.3351  0.4050
  266MOL0     C35809  12.849   9.634   9.094  0.2480 -0.7258  0.0984
  266MOL0     O35810  12.968   9.596   9.036  0.0667  0.1964 -0.3376
  266MOL0     C35811  13.091   9.665   9.079  0.0262  0.0213 -0.4872
  266MOL0     C35812  13.212   9.608   8.995  0.3836 -0.4249 -0.0821
  266MOL0     C35813  13.344   9.677   9.023  0.1108  0.0574 -0.8645
  266MOL0     C35814  13.448   9.597   8.938  0.8037  0.0870 -0.3086
  266MOL0     C35815  13.593   9.652   8.928  0.1720  0.2258 -0.3356
  266MOL0     C35816  13.599   9.775   8.842 -0.1520 -0.1370  0.8230
  266MOL0     C35817  13.748   9.801   8.823 -0.0155 -0.3498 -0.7266
  266MOL0     C35818  13.765   9.924   8.732  0.7138  0.1559  0.4880
  266MOL0    Cl35819  13.684  10.065   8.800  0.1093  0.2722 -0.1230
  266MOL0     C35820  12.747   9.606   9.006 -0.5099  0.1497 -0.0313
  266MOL0     C35821  12.620   9.626   9.051  0.5356  0.1411 -0.1391
  266MOL0     O35822  12.426   9.545   9.341  0.2769 -0.6410  0.2323
  266MOL0     C35823  12.147   9.525   9.313 -0.4913 -0.1573  0.3196
  266MOL0     C35824  12.004   9.538   9.312  0.1255  0.7244 -0.3420
  266MOL0     N35825  11.609   9.490   8.713 -0.2039  0.3023 -0.3498
  266MOL0     N35826  11.574   9.382   8.650  0.9097  0.2796 -1.2034
  266MOL0     C35827  11.004   8.743   8.948 -0.0483 -1.1828  0.0675
  266MOL0     C35828  10.872   8.795   8.946 -0.3165 -0.0650  0.1453
  266MOL0     C35829  10.420   8.797   8.758 -0.3311  0.0871 -0.5077
  266MOL0     C35830  10.370   8.791   8.889 -0.0973  0.2086  0.1484
  266MOL0     C35831  10.237   8.763   8.914 -0.1613 -0.1935  0.1040
  266MOL0     C35832  10.145   8.744   8.804  0.1463 -0.2359  0.6952
  266MOL0     O35833  10.015   8.731   8.848 -0.1498  0.8100 -0.1794
  266MOL0     C35834   9.918   8.724   8.742  0.1037  0.1768 -0.1146
  266MOL0     C35835   9.775   8.711   8.804  0.7848 -0.2725  0.0797
  266MOL0     C35836   9.766   8.635   8.930  0.5263 -1.0723 -0.6848
  266MOL0     C35837   9.628   8.641   8.988  0.1692  0.7770  1.1332
  266MOL0     C35838   9.626   8.569   9.117  0.7124  0.3434  0.3908
  266MOL0     C35839   9.614   8.493   9.211  0.4580 -1.0117  0.4290
  266MOL0     C35840  10.198   8.752   8.671  0.1748 -0.1811 -0.2698
  266MOL0     C35841  10.341   8.774   8.648  0.6781 -1.1471 -0.9582
  266MOL0     C35842  10.387   8.770   8.504 -0.3500  0.2172 -0.1484
  266MOL0     H35843  10.722   8.609   8.702 -2.5752  0.2480  3.4969
  266MOL0     H35844  10.953   8.511   8.697  1.0292  1.2720 -1.7689
  266MOL0     H35845  11.238   8.627   8.653  0.0702 -2.2943  2.2931
  266MOL0     H35846  11.182   8.781   8.716 -2.3860 -1.3188  1.1626
  266MOL0     H35847  11.416   8.765   8.697  0.2339  0.5931  0.0676
  266MOL0     H35848  11.436   8.632   8.811  4.0183  3.7798 -0.1515
  266MOL0     H35849  11.325   8.758   8.984  2.9118 -2.4485  0.2378
  266MOL0     H35850  11.315   8.890   8.873  0.7625  1.0061 -0.8622
  266MOL0     H35851  11.488   8.927   9.027  2.4446 -2.0932  3.6813
  266MOL0     H35852  11.548   8.758   9.019  0.3961 -1.7376 -2.6323
  266MOL0     H35853  11.707   8.887   8.926  0.5078  0.7463  0.0474
  266MOL0     H35854  11.630   8.788   8.791 -1.5015 -0.5546  1.1851
  266MOL0     H35855  11.491   8.988   8.716 -0.9919 -0.7865 -0.1583
  266MOL0     H35856  11.561   9.084   8.850 -0.0649  0.6298 -1.3619
  266MOL0     H35857  11.708   8.948   8.623 -2.3701 -1.9224  1.1151
  266MOL0     H35858  11.784   9.048   8.747  0.9578  0.0713 -0.7137
  266MOL0     H35859  11.762   9.173   8.538  0.6904 -0.6002 -0.7076
  266MOL0     H35860  11.581   9.157   8.554 -0.5633  3.8465  0.1603
  266MOL0     H35861  11.884   9.310   8.729 -1.2146 -2.2899  2.2660
  266MOL0     H35862  11.923   9.552   8.818 -0.5089  1.0196  1.3235
  266MOL0     H35863  11.835   9.677   8.750  3.0150 -1.0320 -0.3125
  266MOL0     H35864  11.816   9.706   8.983  0.5430 -0.6220  2.3471
  266MOL0     H35865  11.654   9.633   8.948 -0.4320 -0.7330  2.3764
  266MOL0     H35866  11.900   9.495   9.049  0.8447 -2.1081  0.0683
  266MOL0     H35867  11.739   9.421   9.014  0.4406 -0.4963 -0.1597
  266MOL0     H35868  11.737   9.463   9.246  2.4683 -1.7663 -1.8565
  266MOL0     H35869  11.636   9.595   9.180 -0.4439 -1.7128 -2.2988
  266MOL0     H35870  11.985   9.868   9.201  2.3767 -0.4736 -2.6382
  266MOL0     H35871  12.213   9.855   9.225 -1.1770 -0.0358 -2.7179
  266MOL0     H35872  12.664   9.768   9.356 -0.8343 -1.2862 -0.4334
  266MOL0     H35873  12.904   9.697   9.292 -2.0523  2.2663  2.3894
  266MOL0     H35874  13.080   9.774   9.072  1.3428  0.1801 -0.3035
  266MOL0     H35875  13.111   9.636   9.182 -2.4164  0.6757  0.2406
  266MOL0     H35876  13.218   9.502   9.023 -2.5211 -1.3879 -2.5985
  266MOL0     H35877  13.189   9.611   8.888 -0.6928  0.9428  0.1640
  266MOL0     H35878  13.331   9.775   8.975 -2.6016 -1.4323 -3.5550
  266MOL0     H35879  13.363   9.692   9.129 -2.9146  1.5207 -0.4101
  266MOL0     H35880  13.417   9.583   8.834 -0.7252  3.5726 -0.4485
  266MOL0     H35881  13.454   9.493   8.972 -1.8860  0.1348  0.5793
  266MOL0     H35882  13.650   9.567   8.888 -0.7440 -0.5240 -0.0956
  266MOL0     H35883  13.631   9.682   9.026  0.9750  2.6425 -1.3088
  266MOL0     H35884  13.548   9.758   8.747 -2.1464  1.7426  1.4547
  266MOL0     H35885  13.546   9.855   8.896 -0.1612  0.3768  0.0645
  266MOL0     H35886  13.809   9.719   8.783  0.4713 -0.9607  1.1370
  266MOL0     H35887  13.796   9.812   8.921 -1.3170  1.2571 -0.2465
  266MOL0     H35888  13.871   9.948   8.729  1.4456 -2.5665  1.4102
  266MOL0     H35889  13.729   9.905   8.631 -0.5685  1.4815  0.6550
  266MOL0     H35890  12.764   9.574   8.904 -2.0023 -0.1999 -0.1988
  266MOL0     H35891  12.547   9.617   8.971  1.5220  0.5379 -1.1089
  266MOL0     H35892  12.182   9.424   9.332  1.1894  0.1869 -0.6656
  266MOL0     H35893  11.935   9.461   9.346  0.6985 -0.2564 -1.3483
  266MOL0     H35894  11.084   8.759   9.020  0.3816 -0.0531 -0.6390
  266MOL0     H35895  10.859   8.862   9.031  0.1643  1.7196 -1.1338
  266MOL0     H35896  10.438   8.802   8.973  0.3674  0.4965 -0.2633
  266MOL0     H35897  10.207   8.769   9.019 -2.4186  2.5911 -0.5727
  266MOL0     H35898   9.937   8.637   8.678  2.0689  1.4354 -1.3697
  266MOL0     H35899   9.937   8.810   8.676  0.5083 -0.2791 -0.5991
  266MOL0     H35900   9.710   8.671   8.725  1.3655 -0.5077 -0.2909
  266MOL0     H35901   9.740   8.813   8.826  0.7506  0.2828 -2.2332
  266MOL0     H35902   9.827   8.686   9.005 -1.3978 -0.2253  0.3817
  266MOL0     H35903   9.805   8.534   8.920  1.3681 -1.0061  1.3466
  266MOL0     H35904   9.587   8.741   8.999  0.0396  0.8712 -0.0762
  266MOL0     H35905   9.549   8.593   8.929  2.3797 -0.5060 -0.9536
  266MOL0     H35906   9.609   8.414   9.283 -1.4763 -1.3233  0.0063
  266MOL0     H35907  10.146   8.728   8.579 -1.1644  0.8484  0.1880
  266MOL0     H35908  10.305   8.734   8.441 -2.3468  1.4850  1.5896
  266MOL0     H35909  10.422   8.869   8.474 -1.8156  0.0679 -2.5842
  266MOL0     H35910  10.464   8.693   8.494  1.4161  1.9040 -0.1265
  267MOL0     O35911   6.239   6.763   9.263  0.0916 -0.5465 -0.0431
  267MOL0     C35912   6.179   6.865   9.274  0.3049 -0.8034 -0.0307
  267MOL0     O35913   6.236   6.990   9.280 -0.0656 -0.3048  0.1560
  267MOL0     C35914   6.373   7.008   9.298 -0.6660 -0.5336  0.3613
  267MOL0     C35915   6.401   7.144   9.337  0.6335  0.3470 -0.1804
  267MOL0     C35916   6.525   7.188   9.355 -0.3621  0.2714  0.5967
  267MOL0     C35917   6.639   7.103   9.348  0.4511  0.3416 -0.5103
  267MOL0     O35918   6.755   7.158   9.387 -0.0266  0.4858 -0.2809
  267MOL0     C35919   6.873   7.081   9.392  0.4914  0.8340 -0.9028
  267MOL0     C35920   6.978   7.184   9.441  0.0969  0.8378 -0.5938
  267MOL0     C35921   7.111   7.121   9.459 -0.3003  0.0197 -0.0968
  267MOL0     C35922   7.206   7.232   9.508  0.5413  0.0196  0.9167
  267MOL0     C35923   7.344   7.173   9.507 -0.3447 -0.5259  0.1015
  267MOL0     C35924   7.448   7.262   9.556 -0.0984  0.3277 -0.5768
  267MOL0     C35925   7.578   7.187   9.570 -0.6081 -0.3478  0.0449
  267MOL0     C35926   7.689   7.267   9.632 -0.2837 -0.0993 -0.5853
  267MOL0     N35927   7.747   7.368   9.545 -0.4571  0.4979  0.6249
  267MOL0     C35928   7.810   7.354   9.427 -0.8306 -0.3011  0.0387
  267MOL0     C35929   7.849   7.475   9.385 -0.1744 -0.4139  0.3329
  267MOL0     C35930   7.913   7.528   9.259 -0.1070  0.2655 -0.5076
  267MOL0     C35931   8.060   7.575   9.289  0.8904  0.3471  0.0676
  267MOL0     C35932   8.122   7.676   9.191  0.0057  0.5374  0.4019
  267MOL0     C35933   8.183   7.626   9.064 -0.3679 -0.3867 -0.5606
  267MOL0     O35934   8.122   7.511   9.007  0.1826 -0.1646 -0.1728
  267MOL0     C35935   8.012   7.532   8.930 -0.5793 -0.1643  0.0156
  267MOL0     C35936   7.949   7.657   8.912 -0.0892 -0.0571  0.2266
  267MOL0     C35937   7.820   7.663   8.862  0.0046  0.4461 -0.2482
  267MOL0     C35938   7.759   7.538   8.815  0.5723 -0.3503  0.0827
  267MOL0     C35939   7.621   7.543   8.761 -0.7228 -0.3313 -0.3239
  267MOL0     O35940   7.540   7.435   8.743  0.0350 -0.1665  0.4184
  267MOL0     C35941   7.405   7.467   8.724 -0.0775  0.4873 -0.2534
  267MOL0     C35942   7.341   7.547   8.813  0.6693  0.6897  0.2370
  267MOL0     C35943   7.210   7.583   8.798 -0.2916 -0.6160 -0.6252
  267MOL0     C35944   7.128   7.521   8.698  0.5363 -0.0383  0.2983
  267MOL0     O35945   6.992   7.541   8.702 -0.8080  0.0811 -0.3955
  267MOL0     C35946   6.906   7.470   8.606  0.5600  0.1947  0.3805
  267MOL0     C35947   6.758   7.497   8.653 -0.1448  0.3627 -0.6318
  267MOL0     C35948   6.667   7.491   8.530  0.7896  0.3463  0.3376
  267MOL0     C35949   6.518   7.518   8.552 -0.2476  0.6489  0.0753
  267MOL0     C35950   6.447   7.491   8.423 -0.5952 -0.1831 -0.2649
  267MOL0     C35951   6.295   7.509   8.442 -0.0285 -0.2822  0.7322
  267MOL0     C35952   6.208   7.502   8.315 -0.4918 -0.0685  0.7563
  267MOL0     C35953   6.064   7.539   8.341 -0.7048 -1.0427 -0.0181
  267MOL0    Cl35954   5.993   7.456   8.487 -0.1599  0.0284  0.5789
  267MOL0     C35955   7.191   7.418   8.622 -0.2217 -0.5716  0.7362
  267MOL0     C35956   7.324   7.400   8.626  0.4316 -1.1435  0.0695
  267MOL0     O35957   7.596   7.651   8.712 -0.1432  0.4925 -0.8662
  267MOL0     C35958   7.822   7.412   8.822 -0.4812  0.7014  0.1639
  267MOL0     C35959   7.952   7.416   8.884  0.1196  0.0876  0.2215
  267MOL0     N35960   7.806   7.562   9.479 -0.1369  0.7117 -0.4493
  267MOL0     N35961   7.752   7.496   9.579 -0.6020  0.0988 -0.2007
  267MOL0     C35962   6.614   6.966   9.309 -0.1627 -0.1269 -0.2555
  267MOL0     C35963   6.484   6.920   9.280 -0.1014  0.2915  0.0850
  267MOL0     C35964   6.030   6.861   9.284  0.3872 -0.4594  0.1074
  267MOL0     C35965   5.969   6.990   9.290  1.1326 -1.0398 -0.0019
  267MOL0     C35966   5.825   6.994   9.302 -0.1107  0.0239 -0.3637
  267MOL0     C35967   5.742   6.889   9.315  1.4674  0.6681 -0.7340
  267MOL0     O35968   5.603   6.889   9.322 -0.1493 -0.4658 -0.2417
  267MOL0     C35969   5.549   6.971   9.425  0.1729 -0.6008  0.0474
  267MOL0     C35970   5.439   6.910   9.510  0.6390  0.5789  0.3391
  267MOL0     C35971   5.308   6.902   9.438 -0.3326 -0.4181 -0.3733
  267MOL0     C35972   5.190   6.834   9.516 -0.3771 -0.1995 -0.0902
  267MOL0     C35973   5.065   6.833   9.443 -0.0029  0.4184  0.1274
  267MOL0     C35974   4.971   6.799   9.372  0.4502  0.2817 -0.5661
  267MOL0     C35975   5.808   6.764   9.308 -0.0309  1.2640 -0.1999
  267MOL0     C35976   5.946   6.745   9.292 -0.1462 -0.1399 -0.6988
  267MOL0     C35977   6.007   6.602   9.296 -0.0337  1.1002  0.6864
  267MOL0     H35978   6.313   7.208   9.340 -0.3376 -0.9421 -0.2227
  267MOL0     H35979   6.545   7.293   9.375 -1.7671  0.5367  0.7019
  267MOL0     H35980   6.862   7.004   9.468  1.5092  3.7099  2.4256
  267MOL0     H35981   6.904   7.036   9.297  1.0618  0.4169 -0.5219
  267MOL0     H35982   6.940   7.200   9.542  0.9039 -1.4346  0.1330
  267MOL0     H35983   6.989   7.273   9.379 -0.4800 -0.9355 -3.4275
  267MOL0     H35984   7.140   7.092   9.357 -1.8482  0.1385 -0.5992
  267MOL0     H35985   7.097   7.037   9.528 -0.8621  0.4686  0.3436
  267MOL0     H35986   7.207   7.310   9.432 -1.0200 -1.0661 -0.2752
  267MOL0     H35987   7.171   7.271   9.604  2.9994  0.9892  1.5016
  267MOL0     H35988   7.351   7.086   9.573  2.3039 -0.8411 -0.4633
  267MOL0     H35989   7.370   7.140   9.405  2.2931  1.0967  0.1575
  267MOL0     H35990   7.468   7.342   9.484 -1.2069 -0.1093 -1.3929
  267MOL0     H35991   7.426   7.304   9.654  1.1298 -2.8281  1.1847
  267MOL0     H35992   7.615   7.159   9.471  3.8215 -1.6470  1.7929
  267MOL0     H35993   7.563   7.091   9.621 -0.8231  0.3158  1.2657
  267MOL0     H35994   7.654   7.310   9.727  0.2351 -1.4852  0.2693
  267MOL0     H35995   7.768   7.197   9.660 -1.8510 -1.5046  0.5537
  267MOL0     H35996   7.831   7.259   9.378  1.1301 -0.9404  1.9531
  267MOL0     H35997   7.914   7.452   9.180  0.6770  0.4122 -0.6464
  267MOL0     H35998   7.860   7.616   9.219  2.1808  1.8912 -0.1566
  267MOL0     H35999   8.053   7.619   9.388  0.3894  0.3359  0.0437
  267MOL0     H36000   8.137   7.497   9.294  3.2250  2.3566 -1.8509
  267MOL0     H36001   8.198   7.730   9.248 -1.8242  1.9878  1.5649
  267MOL0     H36002   8.046   7.747   9.157  0.9264 -0.2386 -3.8333
  267MOL0     H36003   8.287   7.604   9.091  0.5709  4.0041  0.2208
  267MOL0     H36004   8.191   7.708   8.992  2.3190  0.7173  0.8262
  267MOL0     H36005   7.995   7.747   8.951 -1.1443 -0.0006  1.4426
  267MOL0     H36006   7.783   7.764   8.863 -0.3653  0.3474  2.1751
  267MOL0     H36007   7.392   7.595   8.895  0.1807  0.3060  0.7765
  267MOL0     H36008   7.172   7.656   8.869 -0.4970 -2.5014  1.3025
  267MOL0     H36009   6.911   7.508   8.503 -1.8052  0.0222  0.1431
  267MOL0     H36010   6.921   7.362   8.606  1.4782  0.2826 -1.2231
  267MOL0     H36011   6.726   7.429   8.732 -1.4471  0.8554 -0.7014
  267MOL0     H36012   6.742   7.598   8.692 -1.3827  0.2777 -0.8719
  267MOL0     H36013   6.697   7.553   8.445 -1.0030 -0.6407 -1.1348
  267MOL0     H36014   6.677   7.390   8.487  0.7450  0.4801  0.0099
  267MOL0     H36015   6.500   7.622   8.579  1.0731  0.4075  2.1012
  267MOL0     H36016   6.487   7.449   8.631 -0.7708 -0.2957 -0.9152
  267MOL0     H36017   6.457   7.384   8.401  0.5799 -0.5491  1.7864
  267MOL0     H36018   6.483   7.555   8.342 -1.6001  0.4247 -0.2540
  267MOL0     H36019   6.265   7.436   8.517  2.2755  0.9215  2.9769
  267MOL0     H36020   6.272   7.608   8.484 -1.3510 -1.0339  1.8453
  267MOL0     H36021   6.223   7.404   8.268  1.8323 -0.3069  1.8336
  267MOL0     H36022   6.250   7.575   8.244  0.1486  0.3821  1.5867
  267MOL0     H36023   6.051   7.644   8.367  0.5694 -1.7035  3.9690
  267MOL0     H36024   6.001   7.521   8.253  1.0259  0.4635 -1.6728
  267MOL0     H36025   7.143   7.367   8.539 -0.9783  0.6787  0.3841
  267MOL0     H36026   7.345   7.314   8.562 -3.4706 -2.4764  0.3523
  267MOL0     H36027   7.771   7.326   8.778 -0.6677  0.5946  0.5751
  267MOL0     H36028   8.003   7.323   8.907  2.0285  0.0739 -3.3934
  267MOL0     H36029   6.697   6.895   9.307 -0.8522 -1.1154  1.8706
  267MOL0     H36030   6.472   6.817   9.251  0.9799 -0.2037  1.2821
  267MOL0     H36031   6.020   7.086   9.288 -3.3716  1.5861 -0.2225
  267MOL0     H36032   5.775   7.090   9.301  1.9758  1.2318  1.5464
  267MOL0     H36033   5.532   7.068   9.379 -0.0513  0.1798  1.7189
  267MOL0     H36034   5.624   6.997   9.500  1.8449 -1.5226 -1.2352
  267MOL0     H36035   5.438   6.964   9.606  4.7378  0.1256  0.7996
  267MOL0     H36036   5.471   6.809   9.534  1.0126  0.2076 -1.5697
  267MOL0     H36037   5.322   6.845   9.345 -0.6882  1.0812 -1.3764
  267MOL0     H36038   5.290   7.000   9.392 -1.7674 -1.1185 -1.4097
  267MOL0     H36039   5.226   6.733   9.534 -0.5552 -0.3098 -0.3323
  267MOL0     H36040   5.164   6.884   9.610 -3.4410  0.1520 -1.0224
  267MOL0     H36041   4.887   6.752   9.324  0.0619 -1.7142  1.8451
  267MOL0     H36042   5.748   6.674   9.319  0.8543  0.4432 -1.6738
  267MOL0     H36043   6.087   6.593   9.370 -0.5223  0.8988  1.1963
  267MOL0     H36044   5.932   6.524   9.313  1.9884 -1.3956 -0.9834
  267MOL0     H36045   6.053   6.578   9.199  0.6612  1.7483  0.8466
  268MOL0     O36046   0.908   4.141   9.975  0.3024  0.1546  0.7268
  268MOL0     C36047   0.967   4.250   9.977  0.0978  0.5183 -0.0049
  268MOL0     O36048   0.915   4.369   9.970 -0.1915 -0.0334 -0.2381
  268MOL0     C36049   0.778   4.379   9.986  0.4968  0.5885 -0.3351
  268MOL0     C36050   0.686   4.393   9.878 -0.2648  0.2937 -0.0670
  268MOL0     C36051   0.558   4.436   9.902  0.1373  0.0654  0.1946
  268MOL0     C36052   0.510   4.456  10.029  0.2692  0.0804  0.0956
  268MOL0     O36053   0.380   4.495  10.043  0.6317  0.1883 -0.9991
  268MOL0     C36054   0.294   4.383  10.036 -0.0061 -0.9693 -0.1931
  268MOL0     C36055   0.157   4.437  10.075 -0.2874 -0.4894  0.3099
  268MOL0     C36056   0.051   4.332  10.039  0.1686 -0.7499 -1.0211
  268MOL0     C36057  -0.075   4.332  10.132 -0.4765 -0.1860 -0.0966
  268MOL0     C36058  -0.175   4.222  10.095  0.2879  0.1173  0.3539
  268MOL0     C36059  -0.295   4.240  10.179 -0.0831  0.6363 -0.0632
  268MOL0     C36060  -0.384   4.359  10.144  0.1909  0.2392 -0.1239
  268MOL0     C36061  -0.518   4.348  10.207  0.5849  0.4203 -0.9688
  268MOL0     N36062  -0.512   4.362  10.356 -1.4830 -0.6644  0.2524
  268MOL0     C36063  -0.435   4.454  10.426 -0.0436 -0.3557  0.4182
  268MOL0     C36064  -0.451   4.416  10.560  0.3800 -0.4184 -0.2668
  268MOL0     C36065  -0.408   4.493  10.688  0.0764  0.1515 -0.2249
  268MOL0     C36066  -0.493   4.623  10.717 -0.6719  0.3409 -1.0261
  268MOL0     C36067  -0.500   4.733  10.616 -0.0476  0.0405 -0.3011
  268MOL0     C36068  -0.531   4.875  10.678 -0.6915 -0.6131 -0.8876
  268MOL0     O36069  -0.433   4.915  10.776  1.0329  0.2765  0.0903
  268MOL0     C36070  -0.311   4.948  10.745 -0.8931 -0.9847  0.6958
  268MOL0     C36071  -0.218   4.971  10.850  0.1363  0.7115 -0.0846
  268MOL0     C36072  -0.080   5.004  10.830  0.6726 -0.1528 -0.7686
  268MOL0     C36073  -0.031   5.021  10.704  1.3163  0.0813  0.0185
  268MOL0     C36074   0.105   5.062  10.670  0.2881 -0.9265 -0.2930
  268MOL0     O36075   0.176   5.118  10.777  0.4672 -0.2839 -0.5874
  268MOL0     C36076   0.305   5.163  10.776  0.9199  0.2769  0.6225
  268MOL0     C36077   0.341   5.222  10.895 -1.1807  0.1676 -0.2939
  268MOL0     C36078   0.470   5.283  10.909 -0.1331  0.0982  0.3256
  268MOL0     C36079   0.549   5.294  10.798  0.1017  0.0725  0.6904
  268MOL0     O36080   0.666   5.360  10.821 -0.3734 -0.6941  0.0353
  268MOL0     C36081   0.702   5.452  10.712 -0.5186  0.6341  0.1034
  268MOL0     C36082   0.838   5.405  10.665  0.0677  0.5649 -0.6569
  268MOL0     C36083   0.880   5.487  10.544  0.6695  0.2028 -0.4448
  268MOL0     C36084   1.006   5.435  10.474  0.2131  0.0273 -0.4219
  268MOL0     C36085   1.054   5.531  10.364 -0.2879  0.7601 -0.3360
  268MOL0     C36086   1.207   5.510  10.329 -0.5296 -0.7093  0.2519
  268MOL0     C36087   1.236   5.609  10.212 -0.7697  0.5962  0.0774
  268MOL0     C36088   1.392   5.613  10.185  0.2776 -1.3505  0.0999
  268MOL0    Cl36089   1.456   5.708  10.340  0.0722  0.7679  0.1246
  268MOL0     C36090   0.516   5.229  10.674 -1.1523  0.0352 -0.0806
  268MOL0     C36091   0.396   5.159  10.670  0.2675  0.0111 -0.0371
  268MOL0     O36092   0.144   5.028  10.564 -0.7580 -0.0847  0.0008
  268MOL0     C36093  -0.126   5.008  10.598  0.9203 -0.6115  0.9604
  268MOL0     C36094  -0.260   4.962  10.617  0.1827  0.0062 -0.2630
  268MOL0     N36095  -0.543   4.310  10.566 -0.1128  0.1198  0.2210
  268MOL0     N36096  -0.575   4.277  10.443  0.2593 -0.7232 -0.6949
  268MOL0     C36097   0.588   4.419  10.140  0.0507  0.4895  0.4446
  268MOL0     C36098   0.718   4.380  10.118  0.4174  0.6168 -0.5298
  268MOL0     C36099   1.112   4.249  10.004  0.0686  0.1981 -0.0080
  268MOL0     C36100   1.157   4.182  10.122  0.5679  1.1231  0.4326
  268MOL0     C36101   1.287   4.198  10.159 -0.2612  0.1681  0.6313
  268MOL0     C36102   1.384   4.260  10.083  0.0000 -0.2181  1.2538
  268MOL0     O36103   1.515   4.256  10.123  0.3930  0.6241 -0.8684
  268MOL0     C36104   1.624   4.302  10.045 -1.1884 -0.4448  0.6949
  268MOL0     C36105   1.748   4.263  10.107  0.0337 -0.1575 -0.3069
  268MOL0     C36106   1.860   4.302  10.011 -0.3759  0.1352 -0.4080
  268MOL0     C36107   1.988   4.231  10.057 -0.2908 -0.8421  0.4238
  268MOL0     C36108   2.101   4.311  10.005 -0.3525 -0.5962 -0.1894
  268MOL0     C36109   2.192   4.381   9.970 -0.0937 -0.3020 -0.0256
  268MOL0     C36110   1.344   4.329   9.963  0.2438 -0.1748  0.4459
  268MOL0     C36111   1.207   4.320   9.922  0.6390  0.0539  0.2756
  268MOL0     C36112   1.159   4.395   9.793 -0.3340 -0.8881 -0.4951
  268MOL0     H36113   0.722   4.391   9.775 -1.2931  0.8310 -0.4494
  268MOL0     H36114   0.481   4.458   9.828 -1.9023  2.0054  2.7164
  268MOL0     H36115   0.294   4.324   9.944 -2.0246 -1.0363 -0.1847
  268MOL0     H36116   0.329   4.315  10.114 -0.2183 -1.4428 -0.5120
  268MOL0     H36117   0.123   4.532  10.033 -1.1886  0.3536  2.7171
  268MOL0     H36118   0.167   4.465  10.181 -1.4671 -2.8064  1.1056
  268MOL0     H36119   0.088   4.229  10.046 -2.7715 -1.7825  3.2624
  268MOL0     H36120   0.010   4.336   9.938  0.1953 -3.0705 -1.1988
  268MOL0     H36121  -0.044   4.329  10.237 -0.3097 -1.8935 -0.1667
  268MOL0     H36122  -0.119   4.430  10.112 -0.3655 -0.2992 -0.9369
  268MOL0     H36123  -0.199   4.220   9.988 -2.3176  5.4410  0.5573
  268MOL0     H36124  -0.136   4.122  10.118  0.1564 -0.2855 -1.0813
  268MOL0     H36125  -0.353   4.147  10.173 -1.4850  1.4214  0.6185
  268MOL0     H36126  -0.269   4.252  10.285 -2.4148  1.0645  0.5224
  268MOL0     H36127  -0.394   4.361  10.035 -1.6029  3.2461 -0.0151
  268MOL0     H36128  -0.326   4.447  10.173  1.2272 -0.6590  0.6215
  268MOL0     H36129  -0.584   4.427  10.171 -0.1263 -0.4586 -1.6477
  268MOL0     H36130  -0.560   4.249  10.185 -2.4751  1.4118 -0.0315
  268MOL0     H36131  -0.390   4.550  10.400  0.7403 -1.1022 -1.1037
  268MOL0     H36132  -0.426   4.425  10.772  0.3684 -0.3873 -0.5892
  268MOL0     H36133  -0.301   4.517  10.677  0.9130 -0.7988  3.9904
  268MOL0     H36134  -0.598   4.601  10.740 -1.8742  4.4772 -1.7333
  268MOL0     H36135  -0.447   4.658  10.810  0.6137 -0.6759 -1.2590
  268MOL0     H36136  -0.572   4.695  10.544  0.7049 -2.0009 -0.0387
  268MOL0     H36137  -0.399   4.743  10.576  2.8666  1.6845  6.1326
  268MOL0     H36138  -0.626   4.886  10.731 -0.8818 -1.5664 -1.0238
  268MOL0     H36139  -0.533   4.950  10.598  1.8865 -0.6583 -1.0699
  268MOL0     H36140  -0.253   4.959  10.952 -0.2317 -1.0105 -0.3880
  268MOL0     H36141  -0.018   5.014  10.918  1.9133  1.4550 -1.7843
  268MOL0     H36142   0.279   5.233  10.983 -2.2164  0.3904 -1.0363
  268MOL0     H36143   0.488   5.333  11.003  0.1432 -1.0904  0.9268
  268MOL0     H36144   0.626   5.469  10.635 -2.4048 -2.8405  0.9544
  268MOL0     H36145   0.702   5.551  10.757  3.2776  0.2426  1.3185
  268MOL0     H36146   0.912   5.425  10.744  0.9673  0.6013 -1.4812
  268MOL0     H36147   0.832   5.300  10.635 -0.6231 -0.0374  1.4117
  268MOL0     H36148   0.801   5.504  10.470 -0.4872  1.8160  1.0720
  268MOL0     H36149   0.904   5.589  10.577 -1.4871  1.2171 -1.7799
  268MOL0     H36150   0.973   5.343  10.425 -2.3554 -0.2420  1.6040
  268MOL0     H36151   1.078   5.408  10.552 -1.3901 -2.0526  0.4451
  268MOL0     H36152   1.040   5.633  10.400  2.0917  0.4505  1.6852
  268MOL0     H36153   1.004   5.522  10.267 -1.1339 -2.6383  0.2976
  268MOL0     H36154   1.251   5.529  10.428 -0.7778 -1.3026  0.4779
  268MOL0     H36155   1.238   5.407  10.312  0.7076 -0.5816  1.4958
  268MOL0     H36156   1.198   5.709  10.235  0.0093  0.9101  0.0302
  268MOL0     H36157   1.198   5.573  10.116  2.7486  2.0203 -2.0237
  268MOL0     H36158   1.439   5.515  10.175  1.5259 -0.7616 -0.0830
  268MOL0     H36159   1.418   5.669  10.094 -1.4030  0.5400  0.7043
  268MOL0     H36160   0.583   5.228  10.589 -2.3997  0.2807 -1.1054
  268MOL0     H36161   0.368   5.104  10.582  0.9943  1.3523 -1.1514
  268MOL0     H36162  -0.109   5.030  10.493  1.7575 -1.0325  0.9980
  268MOL0     H36163  -0.321   4.946  10.529  0.7467  1.0396 -0.8603
  268MOL0     H36164   0.548   4.419  10.241  0.3536 -1.0972  0.5916
  268MOL0     H36165   0.782   4.377  10.206 -1.0590 -0.1036  0.5566
  268MOL0     H36166   1.090   4.134  10.193  2.3138 -1.1943  0.6329
  268MOL0     H36167   1.311   4.147  10.252  0.5156 -0.2901  0.1949
  268MOL0     H36168   1.619   4.411  10.031  3.6704 -0.1917 -0.9864
  268MOL0     H36169   1.616   4.261   9.944 -1.4962  1.8690 -0.3001
  268MOL0     H36170   1.748   4.154  10.117 -0.4140 -0.5382 -3.3291
  268MOL0     H36171   1.761   4.312  10.204 -1.0411  0.4235 -0.4471
  268MOL0     H36172   1.882   4.409  10.003  1.8543 -0.3588 -1.6164
  268MOL0     H36173   1.824   4.273   9.912 -1.8300  1.2519 -0.2433
  268MOL0     H36174   2.004   4.244  10.165  1.1589 -1.2493  0.2739
  268MOL0     H36175   1.999   4.126  10.032  0.9889 -0.8434  0.8895
  268MOL0     H36176   2.265   4.446   9.924 -2.3301  0.9315 -2.0576
  268MOL0     H36177   1.416   4.378   9.898 -3.9719  0.5521 -4.3062
  268MOL0     H36178   1.092   4.479   9.817 -2.6652 -2.4736 -1.0630
  268MOL0     H36179   1.244   4.435   9.737  0.9726  1.0978  2.6655
  268MOL0     H36180   1.100   4.330   9.728  0.4523 -1.7751 -0.3493
  269MOL0     O36181   5.082   8.511   8.451 -0.3781  1.2987 -0.1063
  269MOL0     C36182   5.115   8.489   8.339 -0.1749  0.3527 -0.0637
  269MOL0     O36183   5.253   8.507   8.299  0.1357 -0.2649 -0.2895
  269MOL0     C36184   5.354   8.554   8.386  0.4045 -0.2184 -0.7658
  269MOL0     C36185   5.445   8.642   8.348  0.5594 -0.8711  0.1335
  269MOL0     C36186   5.550   8.691   8.432 -0.3696  0.1263  0.2214
  269MOL0     C36187   5.576   8.630   8.555 -0.6569  0.1392  0.2695
  269MOL0     O36188   5.687   8.663   8.623  0.2781  0.7092 -0.3777
  269MOL0     C36189   5.765   8.556   8.679  0.7278 -0.7602  0.1380
  269MOL0     C36190   5.889   8.616   8.740  0.6198 -0.2072 -0.0244
  269MOL0     C36191   5.983   8.692   8.630 -0.8064  0.1332 -0.0857
  269MOL0     C36192   6.105   8.764   8.695 -0.1555  0.3753 -0.1487
  269MOL0     C36193   6.146   8.877   8.611  0.4906  0.3156  0.3219
  269MOL0     C36194   6.048   8.989   8.575  0.0769 -1.1085  0.5243
  269MOL0     C36195   6.004   9.069   8.704 -0.1860 -0.1664  0.0456
  269MOL0     C36196   5.930   9.197   8.657 -0.9728  0.7096 -0.3730
  269MOL0     N36197   5.827   9.175   8.552  0.2558  0.0867 -0.2567
  269MOL0     C36198   5.713   9.100   8.579 -1.0430 -0.3553 -0.0391
  269MOL0     C36199   5.623   9.130   8.483 -0.2576 -0.5853 -0.3855
  269MOL0     C36200   5.473   9.101   8.478  0.2102  0.0396  0.3645
  269MOL0     C36201   5.383   9.123   8.355 -0.2506  0.1986 -0.4857
  269MOL0     C36202   5.391   9.002   8.247  0.0407  0.0620  0.3203
  269MOL0     C36203   5.529   9.012   8.181  0.0761  0.3300 -0.2063
  269MOL0     O36204   5.529   8.907   8.081  0.0425  0.4188 -0.7032
  269MOL0     C36205   5.642   8.895   8.001 -0.5413 -0.1314 -0.4162
  269MOL0     C36206   5.745   8.989   7.981 -0.9041 -0.5591 -0.3447
  269MOL0     C36207   5.858   8.943   7.911 -0.0694 -0.4511  0.3018
  269MOL0     C36208   5.870   8.822   7.846  0.2645 -0.2215  0.2518
  269MOL0     C36209   5.994   8.791   7.754  0.2610 -0.4440 -0.3507
  269MOL0     O36210   6.088   8.893   7.730 -0.0211 -0.8116 -0.1383
  269MOL0     C36211   6.185   8.872   7.635  0.3204 -0.1704  1.0639
  269MOL0     C36212   6.174   8.789   7.522 -0.5722  0.0498 -0.4943
  269MOL0     C36213   6.283   8.775   7.437  1.4593  0.2147  0.5011
  269MOL0     C36214   6.406   8.829   7.463 -0.2722 -0.2769  0.1268
  269MOL0     O36215   6.508   8.808   7.378 -0.3847 -0.5174  0.1696
  269MOL0     C36216   6.500   8.893   7.259 -0.4368  0.1489 -1.2613
  269MOL0     C36217   6.530   9.040   7.291 -0.7164  0.4443  0.3007
  269MOL0     C36218   6.553   9.132   7.172 -0.7327  0.8819 -0.1743
  269MOL0     C36219   6.695   9.114   7.114 -0.4581  0.0264 -1.4277
  269MOL0     C36220   6.723   9.188   6.981  0.3358 -0.1991  0.1159
  269MOL0     C36221   6.866   9.178   6.925 -0.0180  0.6313  0.7043
  269MOL0     C36222   6.899   9.032   6.905  0.1323 -0.0634  0.2325
  269MOL0     C36223   7.021   9.015   6.819 -0.8309  0.1957 -0.7826
  269MOL0    Cl36224   7.064   8.832   6.839  0.5008 -0.2215 -0.5101
  269MOL0     C36225   6.420   8.911   7.570  0.1491 -0.5383 -0.5075
  269MOL0     C36226   6.310   8.934   7.659  0.5956 -0.4173  0.5763
  269MOL0     O36227   5.996   8.677   7.711  0.0182 -0.3058 -0.6045
  269MOL0     C36228   5.773   8.726   7.882 -1.4598  0.7808  0.4080
  269MOL0     C36229   5.660   8.764   7.957 -0.3203  0.2939  1.3654
  269MOL0     N36230   5.689   9.216   8.393 -0.9932 -0.5361  0.7355
  269MOL0     N36231   5.808   9.248   8.437  0.1422  0.5141 -0.1522
  269MOL0     C36232   5.492   8.524   8.590 -0.0768  0.5191  1.2210
  269MOL0     C36233   5.380   8.493   8.509  0.3910  0.2149 -0.5564
  269MOL0     C36234   5.021   8.434   8.244  0.2939 -0.1548  1.0789
  269MOL0     C36235   5.076   8.377   8.124  0.4042 -0.0703 -0.1553
  269MOL0     C36236   4.989   8.311   8.030  0.2698  0.4592  0.9072
  269MOL0     C36237   4.850   8.314   8.037 -0.3800  0.1697 -0.5569
  269MOL0     O36238   4.780   8.261   7.935 -0.0230 -0.0844  0.1939
  269MOL0     C36239   4.639   8.252   7.940  0.5434  1.0598 -0.3406
  269MOL0     C36240   4.576   8.384   7.887 -0.1103  0.0210  0.5276
  269MOL0     C36241   4.428   8.406   7.921  0.4858 -0.5416  0.0389
  269MOL0     C36242   4.388   8.409   8.068 -0.1035 -0.0474 -1.2746
  269MOL0     C36243   4.453   8.532   8.123 -0.6140  0.2982 -0.4545
  269MOL0     C36244   4.515   8.633   8.149 -0.2091 -0.0301 -0.2033
  269MOL0     C36245   4.798   8.361   8.160 -1.0359  0.5861 -0.6930
  269MOL0     C36246   4.879   8.436   8.250 -0.3421 -0.4056  0.8675
  269MOL0     C36247   4.798   8.497   8.363 -0.5256 -0.3942 -0.5466
  269MOL0     H36248   5.434   8.688   8.250 -1.0916 -1.5008  0.0074
  269MOL0     H36249   5.614   8.771   8.395 -0.0119  0.3362  1.2567
  269MOL0     H36250   5.707   8.502   8.755  2.1636 -1.6259  0.6604
  269MOL0     H36251   5.793   8.490   8.595 -1.5605  1.6989 -2.7942
  269MOL0     H36252   5.946   8.531   8.778  0.9312 -1.9470 -3.9027
  269MOL0     H36253   5.861   8.688   8.817  0.3855 -0.2051 -0.1091
  269MOL0     H36254   5.911   8.752   8.572  0.7781 -0.0532 -2.3805
  269MOL0     H36255   6.034   8.616   8.570  2.5434  0.0641  2.5379
  269MOL0     H36256   6.076   8.785   8.798  2.0064 -0.8566  0.7613
  269MOL0     H36257   6.196   8.704   8.700 -0.0390  0.1673 -3.0571
  269MOL0     H36258   6.233   8.933   8.647  0.3222 -0.2706  1.7224
  269MOL0     H36259   6.169   8.826   8.516  0.8321  0.3439  0.3884
  269MOL0     H36260   6.094   9.050   8.497  0.0792 -5.4039 -3.2688
  269MOL0     H36261   5.960   8.952   8.522  1.1644 -1.8863 -0.7965
  269MOL0     H36262   6.089   9.098   8.766 -2.7291 -0.6097  4.0753
  269MOL0     H36263   5.940   9.004   8.764  1.6325 -0.8848  1.2901
  269MOL0     H36264   5.884   9.239   8.748 -0.0069 -1.8581  1.4305
  269MOL0     H36265   6.013   9.257   8.620 -1.4954 -0.7616 -4.4612
  269MOL0     H36266   5.676   9.061   8.673 -1.3507 -0.4243 -0.1847
  269MOL0     H36267   5.456   8.999   8.513 -1.1277  0.1237  0.0141
  269MOL0     H36268   5.433   9.166   8.556 -0.5938 -0.0549  0.0411
  269MOL0     H36269   5.282   9.139   8.394  0.1752  1.0271  0.3119
  269MOL0     H36270   5.411   9.214   8.301 -1.2350  0.4463 -0.5992
  269MOL0     H36271   5.317   9.024   8.170 -0.1273  0.5545  0.6143
  269MOL0     H36272   5.375   8.900   8.282 -0.5142 -0.0145 -0.1471
  269MOL0     H36273   5.605   8.985   8.256 -2.4741 -2.0733  1.7568
  269MOL0     H36274   5.540   9.114   8.144  0.0925  0.8395  1.1627
  269MOL0     H36275   5.730   9.090   8.020 -3.5547 -1.5960  1.6149
  269MOL0     H36276   5.929   9.024   7.893 -0.5568 -0.2922 -1.0588
  269MOL0     H36277   6.081   8.736   7.503  0.3575 -1.3877 -1.1884
  269MOL0     H36278   6.259   8.723   7.345  1.1734  1.3327 -0.0686
  269MOL0     H36279   6.570   8.847   7.188 -1.6015 -0.9129 -1.7555
  269MOL0     H36280   6.404   8.876   7.210 -0.3129 -4.7256 -0.3586
  269MOL0     H36281   6.450   9.081   7.354  0.6209  1.2101  1.5520
  269MOL0     H36282   6.608   9.048   7.367  1.9157 -0.4892 -2.1306
  269MOL0     H36283   6.481   9.106   7.094 -1.0938  3.0686 -0.6262
  269MOL0     H36284   6.524   9.234   7.195  0.2489  0.6392  2.4595
  269MOL0     H36285   6.716   9.008   7.098 -0.3365 -0.6253  2.2187
  269MOL0     H36286   6.764   9.153   7.189 -0.0766  0.7825 -2.1417
  269MOL0     H36287   6.694   9.291   7.000 -1.4962 -0.2122 -2.1360
  269MOL0     H36288   6.648   9.162   6.905 -0.1737  1.3556  0.0455
  269MOL0     H36289   6.875   9.222   6.825 -2.1169 -1.9853 -0.7527
  269MOL0     H36290   6.941   9.222   6.991  0.3062 -1.1278  1.5838
  269MOL0     H36291   6.815   8.982   6.856  0.3801 -1.2517  0.9744
  269MOL0     H36292   6.927   8.992   7.002 -0.3260 -2.7772 -0.6662
  269MOL0     H36293   7.015   9.043   6.714 -2.7900  0.6907 -0.5697
  269MOL0     H36294   7.102   9.069   6.868  0.3076  0.1426 -2.5088
  269MOL0     H36295   6.519   8.952   7.586  0.2387 -0.3646 -1.4795
  269MOL0     H36296   6.320   8.992   7.750 -1.8345  1.3597 -0.1674
  269MOL0     H36297   5.778   8.622   7.848  0.8151  1.3423 -1.2406
  269MOL0     H36298   5.580   8.695   7.981 -0.5850 -1.0043 -2.5146
  269MOL0     H36299   5.510   8.482   8.688 -0.0228  1.4053  1.5973
  269MOL0     H36300   5.311   8.417   8.543 -0.3733  0.3071 -1.8295
  269MOL0     H36301   5.182   8.356   8.125  0.2168 -1.2606 -1.7107
  269MOL0     H36302   5.034   8.276   7.937 -2.5499  3.2852 -1.7877
  269MOL0     H36303   4.617   8.228   8.044  1.0635 -5.1606 -1.2832
  269MOL0     H36304   4.616   8.169   7.872 -0.5339 -0.1557  1.4426
  269MOL0     H36305   4.592   8.385   7.779 -1.5095  0.5081  0.2976
  269MOL0     H36306   4.641   8.464   7.924  0.1714 -0.7262  1.6786
  269MOL0     H36307   4.362   8.330   7.879 -0.8004  1.3585 -1.6013
  269MOL0     H36308   4.392   8.498   7.874 -0.5318 -1.8427 -1.8842
  269MOL0     H36309   4.280   8.419   8.081  0.0451 -1.1820  1.3582
  269MOL0     H36310   4.424   8.321   8.123  1.8913  1.8961  0.7078
  269MOL0     H36311   4.558   8.720   8.195  0.1535 -0.7761  0.8884
  269MOL0     H36312   4.692   8.380   8.171 -0.7770  1.8379 -0.0892
  269MOL0     H36313   4.775   8.422   8.440 -0.1558 -1.1950 -1.2057
  269MOL0     H36314   4.850   8.582   8.408 -1.0769 -0.8762  1.0904
  269MOL0     H36315   4.703   8.533   8.324 -1.7749 -0.6385  2.0179
  270MOL0     O36316   3.007  10.828   7.347  0.1464 -0.3565  0.4130
  270MOL0     C36317   2.974  10.821   7.227  0.6924  0.1452 -0.5737
  270MOL0     O36318   3.052  10.778   7.120  0.0960  0.1390 -0.5197
  270MOL0     C36319   3.183  10.752   7.120 -0.6111  0.0325  1.1307
  270MOL0     C36320   3.240  10.745   6.989 -0.4497  0.0814 -0.1598
  270MOL0     C36321   3.374  10.722   6.967 -0.4819  0.4041  0.5285
  270MOL0     C36322   3.459  10.709   7.068  0.1192  0.3947 -0.6919
  270MOL0     O36323   3.591  10.687   7.027  0.3252  0.0506 -0.7221
  270MOL0     C36324   3.686  10.721   7.124  0.1787 -0.3219  0.0710
  270MOL0     C36325   3.810  10.739   7.043 -0.0836 -0.1198  0.9231
  270MOL0     C36326   3.866  10.599   7.002  0.5009 -0.0434  0.2567
  270MOL0     C36327   3.917  10.592   6.861  0.2164  0.4282 -0.2362
  270MOL0     C36328   4.007  10.483   6.828  0.4865  0.8692 -0.4645
  270MOL0     C36329   4.075  10.489   6.686  0.0470  0.1491  0.0960
  270MOL0     C36330   4.143  10.362   6.647  0.4286  0.2813  0.1715
  270MOL0     C36331   4.273  10.340   6.723 -0.8050  0.0634 -0.1348
  270MOL0     N36332   4.310  10.205   6.764  0.0788  0.6089 -0.6992
  270MOL0     C36333   4.335  10.106   6.671  0.5425  0.0934  0.1981
  270MOL0     C36334   4.350  10.001   6.747  0.4117  0.2310 -0.1959
  270MOL0     C36335   4.391   9.856   6.695 -0.4035 -0.1363  0.0672
  270MOL0     C36336   4.541   9.843   6.723 -0.2418  0.0798 -0.1894
  270MOL0     C36337   4.628   9.941   6.639  0.8843 -0.0753  0.1927
  270MOL0     C36338   4.773   9.911   6.650 -0.2107  0.6026  0.7638
  270MOL0     O36339   4.848  10.015   6.582  0.4938 -0.0741 -0.2490
  270MOL0     C36340   4.980  10.007   6.579 -1.3175 -0.2993 -0.0198
  270MOL0     C36341   5.056  10.072   6.478 -0.2414 -0.0900 -0.3799
  270MOL0     C36342   5.199  10.080   6.484  0.5152 -0.2923 -0.3703
  270MOL0     C36343   5.273  10.011   6.576  0.3247  1.0625 -0.1349
  270MOL0     C36344   5.419  10.016   6.582 -0.1593 -0.6769 -0.2588
  270MOL0     O36345   5.485   9.950   6.691  0.3424  0.6434 -0.1324
  270MOL0     C36346   5.621   9.933   6.688  0.8584  0.5093  0.0776
  270MOL0     C36347   5.716  10.034   6.685  0.2535  0.2942  0.1654
  270MOL0     C36348   5.856  10.015   6.674 -0.3949  0.9679 -0.5982
  270MOL0     C36349   5.911   9.886   6.687  0.0501 -0.2349  0.7988
  270MOL0     O36350   6.047   9.867   6.694 -0.2555 -0.4939 -0.2394
  270MOL0     C36351   6.089   9.731   6.666  0.4138  0.9128  0.2979
  270MOL0     C36352   6.239   9.728   6.696 -0.0684 -0.0319  0.2577
  270MOL0     C36353   6.315   9.813   6.595  1.4079 -0.7787 -0.5920
  270MOL0     C36354   6.326   9.730   6.469 -0.6507 -0.1131  0.0513
  270MOL0     C36355   6.354   9.809   6.345 -0.5521 -0.4991  0.9710
  270MOL0     C36356   6.242   9.910   6.321 -0.4550 -0.1991  0.0119
  270MOL0     C36357   6.254   9.983   6.188  0.7105  0.0985  0.2350
  270MOL0     C36358   6.200   9.902   6.073  0.8397  0.4989 -0.5196
  270MOL0    Cl36359   6.022   9.880   6.070  0.2488 -0.0722  0.0965
  270MOL0     C36360   5.814   9.779   6.694 -0.1992 -0.6050 -0.7949
  270MOL0     C36361   5.678   9.805   6.689  0.4148 -0.2622 -0.6435
  270MOL0     O36362   5.481  10.071   6.487  0.6321 -0.4348 -0.5400
  270MOL0     C36363   5.198   9.942   6.675  0.1881 -0.1869 -0.2539
  270MOL0     C36364   5.057   9.942   6.673  0.7485  0.3139 -0.4043
  270MOL0     N36365   4.336  10.024   6.883 -0.7283  0.3082  0.5160
  270MOL0     N36366   4.311  10.154   6.886  0.4538  0.4798  0.1844
  270MOL0     C36367   3.414  10.700   7.203 -0.4815 -0.4978  0.2536
  270MOL0     C36368   3.280  10.741   7.227  0.4998 -0.2872 -0.2493
  270MOL0     C36369   2.836  10.866   7.191  0.4771 -0.2355  0.0750
  270MOL0     C36370   2.806  10.920   7.062  0.0253 -0.2992 -0.3935
  270MOL0     C36371   2.676  10.969   7.026 -0.6070  0.0814 -0.3619
  270MOL0     C36372   2.573  10.957   7.119 -0.7035  0.4198  0.5210
  270MOL0     O36373   2.451  10.997   7.081 -0.3016 -0.0808  0.1463
  270MOL0     C36374   2.337  10.957   7.159  1.1129  0.0489 -0.6611
  270MOL0     C36375   2.223  10.978   7.065 -0.9856 -0.0686 -0.3668
  270MOL0     C36376   2.199  11.121   7.021 -0.3727  0.4563  0.5110
  270MOL0     C36377   2.175  11.221   7.130 -0.3321  0.1204  0.7073
  270MOL0     C36378   2.056  11.189   7.210 -0.6649 -0.3643 -0.6668
  270MOL0     C36379   1.956  11.173   7.269 -0.4699  0.9378 -0.2500
  270MOL0     C36380   2.597  10.907   7.244 -0.1549 -0.1222  0.3667
  270MOL0     C36381   2.717  10.862   7.280 -0.8958  0.0698  0.0866
  270MOL0     C36382   2.729  10.802   7.417  0.5739 -0.3915 -0.3984
  270MOL0     H36383   3.182  10.774   6.902 -3.3034  1.5508  2.0493
  270MOL0     H36384   3.412  10.715   6.866  1.7747 -2.7358  1.4488
  270MOL0     H36385   3.667  10.812   7.181 -0.3596 -0.6054  0.3586
  270MOL0     H36386   3.699  10.636   7.192 -2.3813 -1.1042 -0.2924
  270MOL0     H36387   3.881  10.786   7.111 -1.3684 -1.4888  3.3255
  270MOL0     H36388   3.791  10.809   6.961  1.2766 -0.1015  0.6023
  270MOL0     H36389   3.788  10.525   7.025  0.0255 -0.8251 -3.3332
  270MOL0     H36390   3.943  10.576   7.076 -1.8813 -1.8338  2.3735
  270MOL0     H36391   3.826  10.580   6.801 -1.7780  1.0465  2.4681
  270MOL0     H36392   3.972  10.685   6.845 -1.1104  1.1395 -0.8701
  270MOL0     H36393   4.081  10.475   6.908 -0.4090 -0.7847  0.2696
  270MOL0     H36394   3.958  10.385   6.830  2.0175  0.0387 -1.6699
  270MOL0     H36395   3.993  10.508   6.617  0.1874 -4.4604 -1.7220
  270MOL0     H36396   4.146  10.572   6.689 -0.2592  0.4438 -0.6014
  270MOL0     H36397   4.161  10.380   6.541  0.3177  0.4314  0.1779
  270MOL0     H36398   4.079  10.273   6.655  1.6573 -0.9336 -2.2122
  270MOL0     H36399   4.361  10.382   6.672 -2.1591  3.4762  0.0496
  270MOL0     H36400   4.265  10.400   6.814  0.0919 -0.3013  0.1878
  270MOL0     H36401   4.341  10.109   6.563  0.0094 -0.3953  0.1555
  270MOL0     H36402   4.328   9.790   6.754 -0.8826  1.8844  1.9479
  270MOL0     H36403   4.370   9.829   6.591  2.5048 -1.7703 -0.2188
  270MOL0     H36404   4.557   9.851   6.831  1.3129 -2.8778 -0.0884
  270MOL0     H36405   4.565   9.741   6.691 -1.4454 -1.1111  2.4370
  270MOL0     H36406   4.614  10.041   6.681 -1.4899 -0.6659  0.9604
  270MOL0     H36407   4.601   9.948   6.533  1.0487 -1.8030  0.0004
  270MOL0     H36408   4.793   9.818   6.595  0.1781  1.4084 -0.5037
  270MOL0     H36409   4.791   9.903   6.757 -2.9028  1.9877  1.3898
  270MOL0     H36410   5.001  10.116   6.396 -0.4005 -0.7366 -0.6250
  270MOL0     H36411   5.245  10.154   6.419 -2.1031  0.7801 -1.1393
  270MOL0     H36412   5.676  10.135   6.684 -1.6970 -0.4133  1.8905
  270MOL0     H36413   5.919  10.101   6.654  1.7043 -0.4703 -0.4616
  270MOL0     H36414   6.045   9.664   6.740  1.8436 -0.1081  0.2715
  270MOL0     H36415   6.056   9.707   6.565  1.7078 -0.2762  0.1416
  270MOL0     H36416   6.264   9.768   6.795  1.0404 -1.1081  0.4433
  270MOL0     H36417   6.273   9.624   6.696 -1.8207 -0.6287 -0.6734
  270MOL0     H36418   6.256   9.904   6.584  3.0004  0.1594 -1.8816
  270MOL0     H36419   6.416   9.834   6.629  0.3964  2.8036  0.5982
  270MOL0     H36420   6.243   9.662   6.444  1.4250 -1.5697 -3.8373
  270MOL0     H36421   6.404   9.655   6.487 -1.1177 -0.5208  0.4030
  270MOL0     H36422   6.367   9.737   6.264 -0.5733 -0.3835  0.8646
  270MOL0     H36423   6.452   9.857   6.351 -0.2375 -1.0530  0.4239
  270MOL0     H36424   6.145   9.861   6.334 -1.1329  1.3103  1.1069
  270MOL0     H36425   6.265   9.990   6.393  0.6418 -0.1113 -0.4301
  270MOL0     H36426   6.351  10.031   6.169  0.0567  2.2484  1.9389
  270MOL0     H36427   6.200  10.076   6.207  0.2230 -0.1979  0.3004
  270MOL0     H36428   6.240   9.944   5.980 -1.0866  0.9522 -1.1725
  270MOL0     H36429   6.240   9.800   6.078  0.5571  0.3702 -0.8288
  270MOL0     H36430   5.832   9.672   6.705 -4.2239 -1.2759  1.6718
  270MOL0     H36431   5.601   9.728   6.683  1.2643 -1.3146  1.0778
  270MOL0     H36432   5.245   9.886   6.755 -0.2473 -1.5972 -0.9687
  270MOL0     H36433   5.003   9.905   6.759  1.3423  1.4516  0.4740
  270MOL0     H36434   3.488  10.684   7.281  0.5624  2.0225 -0.1085
  270MOL0     H36435   3.248  10.753   7.330 -0.8547 -0.6845 -0.6064
  270MOL0     H36436   2.887  10.948   6.995  1.5211 -2.5050  0.3811
  270MOL0     H36437   2.654  11.016   6.931  1.3745  0.9750 -0.4467
  270MOL0     H36438   2.331  11.028   7.241  0.0025  1.4719 -1.9044
  270MOL0     H36439   2.343  10.856   7.200  1.8533  0.3739  0.0438
  270MOL0     H36440   2.139  10.941   7.125  0.3231  0.7818  2.1212
  270MOL0     H36441   2.234  10.912   6.979  2.1521 -2.0826  1.4043
  270MOL0     H36442   2.121  11.134   6.945  1.3387 -2.3963 -1.9464
  270MOL0     H36443   2.289  11.161   6.972  2.4046 -2.4762  2.7737
  270MOL0     H36444   2.265  11.223   7.192  0.7934  0.5677 -0.8739
  270MOL0     H36445   2.162  11.321   7.089  0.1388 -0.2605 -0.4114
  270MOL0     H36446   1.863  11.156   7.318 -0.2426  3.9183  1.3982
  270MOL0     H36447   2.517  10.912   7.317 -2.6827 -0.1872 -2.2194
  270MOL0     H36448   2.800  10.852   7.483  1.0918 -0.4632 -0.8911
  270MOL0     H36449   2.632  10.789   7.466 -0.2597  3.9457 -0.5620
  270MOL0     H36450   2.766  10.699   7.408  0.4518 -0.9144  3.4369
  271MOL0     O36451   6.252   7.652   6.747 -0.3931 -0.5114 -0.2195
  271MOL0     C36452   6.210   7.537   6.764  0.9551 -0.1644 -0.3419
  271MOL0     O36453   6.287   7.432   6.803  0.9033 -0.8809 -0.1784
  271MOL0     C36454   6.420   7.452   6.812 -0.1216  0.6994  0.1872
  271MOL0     C36455   6.488   7.379   6.914  0.1815 -0.5082  0.0494
  271MOL0     C36456   6.626   7.359   6.905  0.2088 -0.4173 -0.0280
  271MOL0     C36457   6.700   7.420   6.802  0.3051  0.1038  0.1083
  271MOL0     O36458   6.833   7.409   6.801  0.0327 -0.2499 -0.3239
  271MOL0     C36459   6.894   7.320   6.707 -1.0307 -0.2248  0.5953
  271MOL0     C36460   6.890   7.176   6.756 -0.0275  0.6212  0.4863
  271MOL0     C36461   6.966   7.173   6.894  0.5037  0.1923  0.4168
  271MOL0     C36462   7.120   7.185   6.872 -0.2117  0.4376 -0.3362
  271MOL0     C36463   7.211   7.135   6.986  0.4341 -0.2812 -0.4237
  271MOL0     C36464   7.364   7.171   6.968 -0.7270 -0.2153  0.7723
  271MOL0     C36465   7.430   7.120   7.095  0.9838 -0.0327  0.1111
  271MOL0     C36466   7.578   7.118   7.094  0.2373  0.0693  0.2309
  271MOL0     N36467   7.636   7.244   7.064  0.2445  0.1225 -0.0109
  271MOL0     C36468   7.671   7.290   6.936 -0.2541  0.7663 -0.5758
  271MOL0     C36469   7.728   7.414   6.945 -0.1039 -0.1690 -0.3348
  271MOL0     C36470   7.775   7.501   6.836 -0.1573  0.3886  0.6112
  271MOL0     C36471   7.927   7.494   6.833 -0.0217  0.3582 -0.3410
  271MOL0     C36472   7.995   7.612   6.782 -0.4266 -0.2719  0.7712
  271MOL0     C36473   8.145   7.594   6.786 -0.8665  0.1236  0.7076
  271MOL0     O36474   8.186   7.574   6.924  0.4539  0.1310 -0.4754
  271MOL0     C36475   8.318   7.544   6.969  0.3424  0.3004  0.2478
  271MOL0     C36476   8.422   7.513   6.880 -0.5390 -0.3484 -0.5116
  271MOL0     C36477   8.546   7.484   6.940 -0.0910 -0.1158 -1.1853
  271MOL0     C36478   8.571   7.494   7.079  0.7554  0.5595 -0.0429
  271MOL0     C36479   8.704   7.487   7.117 -0.3413 -0.1850  0.0344
  271MOL0     O36480   8.805   7.533   7.027  0.2446 -0.4654 -0.6547
  271MOL0     C36481   8.939   7.526   7.058  0.7897  0.7120 -1.5557
  271MOL0     C36482   9.019   7.591   6.967  0.5549 -0.1376 -0.4396
  271MOL0     C36483   9.161   7.590   6.979  0.5306  0.1186  0.2546
  271MOL0     C36484   9.219   7.520   7.083  0.2723 -0.2026 -0.2136
  271MOL0     O36485   9.354   7.524   7.122  0.1361  0.2426 -0.3967
  271MOL0     C36486   9.455   7.565   7.025  0.0290  0.9716 -0.5066
  271MOL0     C36487   9.601   7.535   7.059 -0.1932  0.4767 -0.7890
  271MOL0     C36488   9.648   7.577   7.197  0.4144  0.4818  0.0014
  271MOL0     C36489   9.770   7.506   7.244  0.3087  0.0143  0.0888
  271MOL0     C36490   9.848   7.563   7.356 -1.1092  0.3875 -1.0445
  271MOL0     C36491   9.908   7.707   7.332  1.7937  0.7737 -0.3801
  271MOL0     C36492  10.039   7.730   7.263 -0.2304  0.1050 -0.0742
  271MOL0     C36493  10.160   7.667   7.332 -0.4702 -1.5424 -0.5038
  271MOL0    Cl36494  10.302   7.676   7.223 -0.0937 -0.7177 -0.1146
  271MOL0     C36495   9.135   7.466   7.185 -0.0678 -0.1519 -0.2226
  271MOL0     C36496   9.001   7.466   7.166 -0.6114 -0.1328 -0.5464
  271MOL0     O36497   8.717   7.462   7.235  0.4432 -0.5543  0.6925
  271MOL0     C36498   8.463   7.520   7.162 -0.5393 -0.6095  0.4333
  271MOL0     C36499   8.337   7.551   7.107  0.6017  0.3242 -0.8174
  271MOL0     N36500   7.730   7.438   7.082  0.1367  0.1861 -0.5793
  271MOL0     N36501   7.668   7.345   7.158 -0.7164  0.3655  0.4565
  271MOL0     C36502   6.633   7.500   6.705 -0.1696 -0.3327  0.3017
  271MOL0     C36503   6.495   7.504   6.705 -0.1672  0.0669  0.0157
  271MOL0     C36504   6.059   7.504   6.734 -0.1339 -0.2285 -0.7363
  271MOL0     C36505   6.017   7.375   6.764 -0.0798  0.1921  0.1881
  271MOL0     C36506   5.886   7.338   6.747  0.3769 -1.0929  0.2263
  271MOL0     C36507   5.786   7.433   6.711  0.0985 -1.0270 -0.6033
  271MOL0     O36508   5.653   7.396   6.700  0.2626 -0.1510 -0.3140
  271MOL0     C36509   5.554   7.495   6.686  0.3026  0.1147  0.0383
  271MOL0     C36510   5.421   7.426   6.717  0.3702 -0.6270 -0.5088
  271MOL0     C36511   5.322   7.534   6.759 -0.0408  0.0460  0.8755
  271MOL0     C36512   5.188   7.484   6.808 -0.4119  0.2275  0.6984
  271MOL0     C36513   5.207   7.420   6.940  0.5692 -0.8449 -0.5014
  271MOL0     C36514   5.192   7.379   7.058 -0.4733  0.0089  0.0486
  271MOL0     C36515   5.830   7.560   6.679 -0.6353  0.4110  0.6103
  271MOL0     C36516   5.967   7.599   6.689 -0.1289  0.5274  1.2144
  271MOL0     C36517   5.992   7.739   6.650 -0.5972  0.6337  0.2182
  271MOL0     H36518   6.433   7.316   6.983 -4.0251  2.3338 -0.3678
  271MOL0     H36519   6.684   7.296   6.972  2.2733  0.1909 -1.1522
  271MOL0     H36520   6.842   7.326   6.611 -2.7604 -2.6309  1.2792
  271MOL0     H36521   6.997   7.357   6.700 -1.1120  0.0568  0.8663
  271MOL0     H36522   6.920   7.098   6.685 -1.9803  0.2298  0.0404
  271MOL0     H36523   6.787   7.144   6.777 -0.0435  0.2841 -0.0643
  271MOL0     H36524   6.947   7.077   6.943 -0.3750  0.9322  1.5696
  271MOL0     H36525   6.926   7.245   6.966  2.5799  1.4587  0.3818
  271MOL0     H36526   7.156   7.134   6.782  1.1205 -3.1185  1.9802
  271MOL0     H36527   7.150   7.289   6.852  0.1306  0.6388  1.1357
  271MOL0     H36528   7.179   7.183   7.079  2.3018  2.3864 -1.0286
  271MOL0     H36529   7.194   7.027   6.992 -3.0809  0.0828 -1.4058
  271MOL0     H36530   7.405   7.114   6.884 -0.2273  0.9887  0.1706
  271MOL0     H36531   7.377   7.279   6.961 -2.1606  0.0319  1.4426
  271MOL0     H36532   7.384   7.022   7.115 -0.9100  0.2628 -2.3267
  271MOL0     H36533   7.409   7.182   7.183  1.3621  0.3994 -0.0999
  271MOL0     H36534   7.612   7.086   7.193  2.3037  2.0623  0.2339
  271MOL0     H36535   7.622   7.042   7.029  1.1493 -1.4283  2.4867
  271MOL0     H36536   7.664   7.243   6.838 -2.4733  1.7575 -0.9774
  271MOL0     H36537   7.730   7.468   6.742 -1.3572 -0.1450  1.3535
  271MOL0     H36538   7.737   7.603   6.847  2.0131  1.2282  0.8414
  271MOL0     H36539   7.955   7.491   6.938 -2.3780  0.9909  0.3692
  271MOL0     H36540   7.963   7.403   6.784  1.8719  1.0148 -0.2438
  271MOL0     H36541   7.984   7.697   6.850  4.3877  1.5332 -0.3541
  271MOL0     H36542   7.949   7.645   6.689  0.1746  1.0957  0.9340
  271MOL0     H36543   8.196   7.680   6.741 -1.0695 -0.4181 -0.6051
  271MOL0     H36544   8.177   7.502   6.735  0.2571  0.0821  1.4622
  271MOL0     H36545   8.421   7.504   6.772 -1.1311 -3.0924 -0.3515
  271MOL0     H36546   8.630   7.475   6.871  0.9809  1.9708 -0.2461
  271MOL0     H36547   8.975   7.633   6.878 -1.0228 -0.6098  0.0773
  271MOL0     H36548   9.230   7.632   6.907  1.1099 -3.4529 -1.5262
  271MOL0     H36549   9.424   7.505   6.939  1.6370 -1.4096  0.4739
  271MOL0     H36550   9.452   7.670   6.996 -0.3606  0.6542 -1.6750
  271MOL0     H36551   9.617   7.427   7.069  0.1000  0.6057  0.2409
  271MOL0     H36552   9.664   7.576   6.980 -0.7766 -0.4493 -1.7567
  271MOL0     H36553   9.662   7.685   7.189 -2.3132  1.1485  2.5038
  271MOL0     H36554   9.582   7.573   7.284  1.7364  0.1920  1.0333
  271MOL0     H36555   9.836   7.513   7.157 -0.3717  2.6681 -0.2934
  271MOL0     H36556   9.758   7.401   7.270  1.0771 -1.0054 -3.1686
  271MOL0     H36557   9.929   7.496   7.386 -1.9270  0.2829  1.1169
  271MOL0     H36558   9.788   7.569   7.447  1.5795  0.0227  0.8909
  271MOL0     H36559   9.837   7.766   7.274  1.6346  0.5548 -0.4115
  271MOL0     H36560   9.921   7.753   7.430 -0.0813  1.3229 -0.3432
  271MOL0     H36561  10.050   7.839   7.261 -3.5393  0.6318  2.3121
  271MOL0     H36562  10.035   7.697   7.159  0.3735 -0.1984 -0.0020
  271MOL0     H36563  10.188   7.733   7.415 -1.2683 -1.3164 -0.4061
  271MOL0     H36564  10.142   7.566   7.369 -3.2832 -0.4468  1.5065
  271MOL0     H36565   9.172   7.435   7.282  1.3170  3.6410  0.6294
  271MOL0     H36566   8.941   7.430   7.249  0.7839  1.3059  1.1724
  271MOL0     H36567   8.475   7.543   7.268 -3.3082  0.2721  0.6298
  271MOL0     H36568   8.254   7.578   7.172 -1.6677  0.4663 -3.5790
  271MOL0     H36569   6.702   7.545   6.634 -0.1296 -0.1424  0.4597
  271MOL0     H36570   6.457   7.561   6.620  0.7687  1.7458  0.6693
  271MOL0     H36571   6.088   7.301   6.800  0.2018  0.6198  0.5266
  271MOL0     H36572   5.844   7.248   6.792 -0.2017 -0.9313  0.0128
  271MOL0     H36573   5.554   7.529   6.582  2.2145 -2.1916 -0.8154
  271MOL0     H36574   5.567   7.574   6.761  2.4618 -0.5650  0.4545
  271MOL0     H36575   5.443   7.358   6.800 -1.3195 -3.0003 -1.8770
  271MOL0     H36576   5.378   7.368   6.636 -0.8439 -0.4831  0.0079
  271MOL0     H36577   5.309   7.588   6.665 -0.6010 -1.4383  0.0659
  271MOL0     H36578   5.362   7.597   6.839 -0.6666 -1.2608  2.2620
  271MOL0     H36579   5.138   7.579   6.825  1.7061  1.5700 -0.1591
  271MOL0     H36580   5.134   7.426   6.732  1.2186  2.3739 -2.2739
  271MOL0     H36581   5.181   7.342   7.158 -1.0049  2.2584  0.8880
  271MOL0     H36582   5.757   7.633   6.646  0.5471  1.8152  1.0120
  271MOL0     H36583   5.912   7.770   6.582  0.1483  2.0379 -0.0533
  271MOL0     H36584   5.995   7.808   6.735 -0.4056 -0.0955  0.8178
  271MOL0     H36585   6.080   7.734   6.586  0.5962 -1.1434  1.8581
  272MOL0     O36586   1.496   2.948   7.844  0.8210 -0.1391  0.1625
  272MOL0     C36587   1.494   2.958   7.719 -0.4017  0.1403 -0.7474
  272MOL0     O36588   1.595   2.916   7.641 -0.5461 -0.5548 -0.4918
  272MOL0     C36589   1.717   2.890   7.698  0.3724  0.1486 -1.0318
  272MOL0     C36590   1.807   2.993   7.733 -0.6842 -0.2304 -0.3219
  272MOL0     C36591   1.935   2.965   7.790  0.6702 -0.2510 -0.3082
  272MOL0     C36592   1.970   2.836   7.828 -0.2909  0.7379  0.2615
  272MOL0     O36593   2.091   2.806   7.886  0.0249 -0.2433  0.1263
  272MOL0     C36594   2.134   2.678   7.857 -0.5450  0.0927 -0.3340
  272MOL0     C36595   2.161   2.649   7.709  0.0613 -0.0743  0.6744
  272MOL0     C36596   2.214   2.508   7.680 -0.1594 -0.2283  0.0169
  272MOL0     C36597   2.297   2.502   7.551 -0.6221  0.2761 -0.4671
  272MOL0     C36598   2.429   2.581   7.551  0.3724 -0.4382  0.3759
  272MOL0     C36599   2.525   2.535   7.449  0.1107 -0.3383 -0.3281
  272MOL0     C36600   2.571   2.395   7.483  0.5522 -0.2750  0.8773
  272MOL0     C36601   2.711   2.369   7.435 -0.1303  0.0196 -0.1417
  272MOL0     N36602   2.813   2.417   7.533  0.4244 -0.3865 -0.2057
  272MOL0     C36603   2.868   2.544   7.532  0.6407  0.5359  0.5360
  272MOL0     C36604   2.935   2.540   7.645  0.0333 -0.6535 -0.1337
  272MOL0     C36605   3.014   2.659   7.702 -0.3578 -0.4850  0.0290
  272MOL0     C36606   3.157   2.620   7.755 -0.7732  0.8846 -0.3664
  272MOL0     C36607   3.257   2.741   7.779 -0.5116 -1.5538 -0.1292
  272MOL0     C36608   3.310   2.824   7.658 -1.2002  1.2305 -0.0729
  272MOL0     O36609   3.370   2.730   7.564  0.3630  0.3458 -0.2076
  272MOL0     C36610   3.490   2.670   7.591  0.7927  1.1109  0.1207
  272MOL0     C36611   3.598   2.752   7.607 -0.3880 -1.5436 -0.1225
  272MOL0     C36612   3.727   2.702   7.642  0.3591 -0.2258  0.0606
  272MOL0     C36613   3.754   2.570   7.636  1.3643  0.2535 -0.5740
  272MOL0     C36614   3.886   2.516   7.659 -1.7295  0.9873 -0.4194
  272MOL0     O36615   3.984   2.609   7.689 -0.8260 -0.2468  0.0263
  272MOL0     C36616   4.122   2.599   7.678  0.4976  0.1047 -0.3447
  272MOL0     C36617   4.177   2.499   7.605 -0.5713 -0.4733 -0.9783
  272MOL0     C36618   4.315   2.486   7.594  0.8430 -0.9570  0.0531
  272MOL0     C36619   4.398   2.584   7.654  0.7588  0.8301 -0.7596
  272MOL0     O36620   4.532   2.563   7.646 -0.1510 -0.2680  0.0939
  272MOL0     C36621   4.630   2.670   7.657 -0.4227 -0.4271  0.0112
  272MOL0     C36622   4.779   2.637   7.615  0.1575 -0.6095  0.1377
  272MOL0     C36623   4.851   2.767   7.652  0.3463  0.0231  0.4526
  272MOL0     C36624   5.001   2.750   7.632 -0.2973  0.3682  0.0425
  272MOL0     C36625   5.069   2.833   7.734 -0.8126 -0.4153  0.8499
  272MOL0     C36626   5.219   2.836   7.705 -0.4698  0.1615  0.8069
  272MOL0     C36627   5.289   2.911   7.815  0.3812 -0.4169  0.5708
  272MOL0     C36628   5.440   2.918   7.790  0.0754 -0.4961  0.7961
  272MOL0    Cl36629   5.480   2.960   7.618  0.0160 -0.0687  0.3226
  272MOL0     C36630   4.345   2.690   7.726 -0.4890 -0.1951  0.1876
  272MOL0     C36631   4.206   2.695   7.736 -0.0647 -0.6810 -0.3129
  272MOL0     O36632   3.899   2.398   7.655  0.7402  0.5218 -0.1283
  272MOL0     C36633   3.639   2.488   7.636 -0.0092  1.3780  0.0743
  272MOL0     C36634   3.509   2.534   7.604 -0.2029  0.6769 -0.1250
  272MOL0     N36635   2.931   2.420   7.711  0.0663 -0.7398  0.0823
  272MOL0     N36636   2.853   2.351   7.646  0.3388  0.2281  0.1893
  272MOL0     C36637   1.868   2.736   7.809  0.3396 -0.2112 -0.1114
  272MOL0     C36638   1.748   2.755   7.739  0.3144 -0.9114 -0.6311
  272MOL0     C36639   1.371   2.997   7.649 -0.6046  1.3177 -0.4181
  272MOL0     C36640   1.320   2.911   7.547 -0.1226 -0.1226 -0.2123
  272MOL0     C36641   1.195   2.929   7.486  0.3718 -0.2769  0.4517
  272MOL0     C36642   1.112   3.034   7.530  0.7143 -0.0055  1.3736
  272MOL0     O36643   1.001   3.060   7.458  0.4126  0.2303 -0.1544
  272MOL0     C36644   0.926   3.178   7.465 -0.1631  0.2695 -0.5824
  272MOL0     C36645   0.791   3.177   7.398 -0.1206  0.5548  0.6899
  272MOL0     C36646   0.785   3.173   7.246  0.0924 -0.7676  0.1792
  272MOL0     C36647   0.643   3.175   7.203  0.7509  0.2931 -0.2137
  272MOL0     C36648   0.636   3.175   7.051  0.2999 -0.3662 -0.1786
  272MOL0     C36649   0.643   3.174   6.929  0.6679  0.0681 -0.2488
  272MOL0     C36650   1.158   3.122   7.629  0.2634  1.0302 -0.7476
  272MOL0     C36651   1.282   3.103   7.690  0.5017  0.7528  0.1002
  272MOL0     C36652   1.319   3.211   7.783 -0.1288 -0.1498  0.0299
  272MOL0     H36653   1.787   3.095   7.704 -0.3895  0.3713  1.4770
  272MOL0     H36654   2.006   3.043   7.816  1.0178 -0.6799  0.0480
  272MOL0     H36655   2.227   2.657   7.912 -1.4852  0.4404  1.4660
  272MOL0     H36656   2.065   2.601   7.892 -0.2637 -0.4357 -0.9143
  272MOL0     H36657   2.241   2.717   7.679  1.2698 -1.6715  0.1395
  272MOL0     H36658   2.082   2.667   7.636  1.7067  0.8215 -0.9756
  272MOL0     H36659   2.124   2.446   7.678 -0.5684  0.3685 -0.1290
  272MOL0     H36660   2.272   2.463   7.762  0.9411  1.5937  0.3010
  272MOL0     H36661   2.314   2.396   7.530 -3.3882  0.2928 -3.7038
  272MOL0     H36662   2.240   2.546   7.468 -1.0190 -0.3556 -0.5332
  272MOL0     H36663   2.401   2.680   7.512 -1.3289 -0.6431  0.9746
  272MOL0     H36664   2.479   2.579   7.647  0.7982  0.9886  0.2022
  272MOL0     H36665   2.495   2.530   7.344  0.9068  0.9786 -0.6417
  272MOL0     H36666   2.610   2.604   7.455 -0.9232  0.9199  0.2528
  272MOL0     H36667   2.511   2.321   7.430  1.8008  1.7046 -3.8421
  272MOL0     H36668   2.564   2.379   7.591 -0.8631 -2.1239  0.5692
  272MOL0     H36669   2.726   2.260   7.442  0.8132  0.2049  0.9562
  272MOL0     H36670   2.747   2.405   7.338  2.2481 -2.9094 -0.5268
  272MOL0     H36671   2.840   2.622   7.461 -2.4655 -0.4820  0.4807
  272MOL0     H36672   3.026   2.734   7.623 -0.8725 -2.1445 -1.6937
  272MOL0     H36673   2.956   2.703   7.784  1.1821  0.5274  0.6289
  272MOL0     H36674   3.161   2.565   7.849 -1.3936  2.1818  0.4533
  272MOL0     H36675   3.210   2.561   7.680  0.7147  1.2626  0.3440
  272MOL0     H36676   3.348   2.708   7.830 -0.3776 -1.7108 -0.4640
  272MOL0     H36677   3.214   2.810   7.852  1.0861  0.2903 -0.8403
  272MOL0     H36678   3.375   2.896   7.709 -0.2819 -0.2696  0.9725
  272MOL0     H36679   3.230   2.874   7.604 -2.0263 -1.4001 -1.4862
  272MOL0     H36680   3.583   2.859   7.608 -0.2180 -1.5113 -0.8915
  272MOL0     H36681   3.820   2.758   7.646  0.6377 -0.7604  1.9781
  272MOL0     H36682   4.112   2.425   7.559 -2.7350  2.3465 -2.7570
  272MOL0     H36683   4.355   2.401   7.540 -1.8813 -0.2965 -3.3478
  272MOL0     H36684   4.602   2.755   7.594 -2.7681 -0.5031  0.8651
  272MOL0     H36685   4.634   2.705   7.761  0.9957 -2.9675  0.9037
  272MOL0     H36686   4.819   2.546   7.662  0.7590 -1.1965 -1.4599
  272MOL0     H36687   4.780   2.618   7.507  3.0735  0.5621 -0.1210
  272MOL0     H36688   4.817   2.855   7.598  0.5513  1.1859  2.1385
  272MOL0     H36689   4.832   2.790   7.758  1.1097  1.5455  0.2932
  272MOL0     H36690   5.037   2.784   7.535  1.6866 -0.7059  0.3479
  272MOL0     H36691   5.024   2.643   7.635 -2.2100 -0.1837 -2.2998
  272MOL0     H36692   5.069   2.793   7.836  1.8369  1.3015  1.6291
  272MOL0     H36693   5.038   2.938   7.727 -0.1399 -0.2530  0.1567
  272MOL0     H36694   5.263   2.737   7.691  0.4361  0.2112  2.9014
  272MOL0     H36695   5.236   2.882   7.607 -2.7879  0.4672  0.5012
  272MOL0     H36696   5.260   2.875   7.915 -0.0640 -0.7350  0.3307
  272MOL0     H36697   5.257   3.016   7.820  0.4582 -0.1536 -2.7530
  272MOL0     H36698   5.489   2.989   7.856  2.4220 -2.5113  1.3760
  272MOL0     H36699   5.489   2.823   7.812  0.1347 -0.6199  0.1577
  272MOL0     H36700   4.408   2.746   7.794 -0.1929  0.0971 -0.3283
  272MOL0     H36701   4.161   2.775   7.793 -2.4787 -1.0573 -1.5610
  272MOL0     H36702   3.646   2.380   7.646 -2.0385  0.8028 -3.1616
  272MOL0     H36703   3.427   2.465   7.588 -0.7579  0.2988  3.4995
  272MOL0     H36704   1.886   2.631   7.828  0.7696 -0.0085  0.6169
  272MOL0     H36705   1.687   2.669   7.714 -0.8166 -0.4854  0.5278
  272MOL0     H36706   1.373   2.823   7.509 -0.1974 -0.7852  1.1766
  272MOL0     H36707   1.159   2.860   7.411 -0.2870  0.6411 -0.0983
  272MOL0     H36708   0.984   3.263   7.428  2.2074 -1.1644 -0.3310
  272MOL0     H36709   0.910   3.178   7.573  3.5605 -3.5699  0.2510
  272MOL0     H36710   0.734   3.264   7.432 -1.9128  0.0953 -0.9537
  272MOL0     H36711   0.740   3.084   7.425  0.0886  0.5898  1.2075
  272MOL0     H36712   0.832   3.078   7.218  0.8992 -0.1533 -0.6367
  272MOL0     H36713   0.839   3.257   7.201 -0.7565  0.9854  2.2802
  272MOL0     H36714   0.591   3.096   7.259 -1.0922  2.4726  1.3689
  272MOL0     H36715   0.598   3.269   7.235  1.6832  0.1358  1.7019
  272MOL0     H36716   0.641   3.172   6.822 -2.1659 -2.2993 -0.3084
  272MOL0     H36717   1.093   3.202   7.663 -1.2308 -0.3523 -0.2313
  272MOL0     H36718   1.252   3.297   7.788 -1.3337 -1.1050  1.2185
  272MOL0     H36719   1.336   3.171   7.883  1.8369 -1.5095 -0.7932
  272MOL0     H36720   1.417   3.249   7.754  0.8753 -2.1731  0.5695
  273MOL0     O36721   0.762   5.063   2.303 -0.1082  0.9501  0.1123
  273MOL0     C36722   0.836   4.969   2.309  0.3563  0.4747  0.1929
  273MOL0     O36723   0.964   4.975   2.356 -0.4540  0.6699 -0.4439
  273MOL0     C36724   1.018   5.095   2.387 -0.4466 -0.5631  0.9327
  273MOL0     C36725   1.086   5.170   2.286  0.9487 -0.9345 -0.1564
  273MOL0     C36726   1.153   5.288   2.315 -0.4121  0.4086  0.0041
  273MOL0     C36727   1.154   5.339   2.443 -0.3384 -0.7074 -0.3265
  273MOL0     O36728   1.241   5.442   2.476  0.1434 -0.0936 -0.1799
  273MOL0     C36729   1.208   5.513   2.596 -0.8639 -0.1360  0.2919
  273MOL0     C36730   1.263   5.659   2.586 -0.5542  0.2793  0.9857
  273MOL0     C36731   1.408   5.650   2.544  0.0177 -0.6858  0.7216
  273MOL0     C36732   1.475   5.786   2.581 -0.5518  0.1573 -0.1116
  273MOL0     C36733   1.429   5.917   2.510 -0.0208 -0.1616 -0.3052
  273MOL0     C36734   1.533   6.030   2.538  0.1160  0.9766 -0.3976
  273MOL0     C36735   1.483   6.174   2.486  0.5663  0.5964 -0.5458
  273MOL0     C36736   1.588   6.279   2.497 -0.3535 -0.1899 -0.7087
  273MOL0     N36737   1.637   6.291   2.637 -0.2269  0.4330  0.2944
  273MOL0     C36738   1.578   6.354   2.747 -1.1870 -0.2448  0.7581
  273MOL0     C36739   1.673   6.347   2.843  0.1475 -0.1787 -0.2097
  273MOL0     C36740   1.649   6.427   2.964 -0.5854  0.6799  0.6101
  273MOL0     C36741   1.685   6.574   2.947  0.5344 -0.0145  0.0711
  273MOL0     C36742   1.833   6.591   2.952 -0.3813  0.3204 -0.4114
  273MOL0     C36743   1.865   6.740   2.966 -0.3135 -1.1968 -0.3202
  273MOL0     O36744   2.008   6.739   2.948  0.9530 -0.4006  0.1210
  273MOL0     C36745   2.076   6.852   2.958 -0.0987 -0.2894 -0.1220
  273MOL0     C36746   2.216   6.831   2.974  0.9094  0.1919  0.7563
  273MOL0     C36747   2.308   6.943   2.985  1.0394  0.7028 -0.6697
  273MOL0     C36748   2.257   7.077   2.973  0.4358  0.2802  0.0403
  273MOL0     C36749   2.352   7.183   3.004 -1.0944 -0.2247  0.8649
  273MOL0     O36750   2.316   7.313   2.984 -0.1442 -0.8760  0.2310
  273MOL0     C36751   2.405   7.415   2.984  0.0014 -0.9318 -0.1231
  273MOL0     C36752   2.505   7.428   2.884  0.3423  0.0522 -0.0565
  273MOL0     C36753   2.599   7.525   2.905 -1.2252  0.0935 -0.0422
  273MOL0     C36754   2.602   7.620   3.017  0.0846  0.3220  0.5649
  273MOL0     O36755   2.686   7.720   3.039 -0.6657 -1.1750 -0.1256
  273MOL0     C36756   2.782   7.745   2.933 -0.3495  0.2636  0.4189
  273MOL0     C36757   2.881   7.865   2.948 -0.4396 -0.2245  0.0623
  273MOL0     C36758   2.962   7.887   2.820 -0.0309 -0.7899  1.0100
  273MOL0     C36759   3.030   8.018   2.822 -0.3007 -0.6911  0.1771
  273MOL0     C36760   3.158   8.024   2.896  0.3407 -0.1499 -0.1775
  273MOL0     C36761   3.252   8.131   2.848 -0.8552 -0.0313 -0.8627
  273MOL0     C36762   3.393   8.114   2.917  0.1703  0.1334 -0.3719
  273MOL0     C36763   3.451   8.249   2.976 -0.4639  0.5309 -0.0054
  273MOL0    Cl36764   3.595   8.235   3.067  0.1895  0.4420 -0.2234
  273MOL0     C36765   2.504   7.595   3.110  0.2651 -0.1680  0.5194
  273MOL0     C36766   2.402   7.503   3.093  0.6717 -0.4933  0.4992
  273MOL0     O36767   2.465   7.150   3.044  0.1251 -0.6492 -0.2391
  273MOL0     C36768   2.125   7.097   2.940  0.2074  0.3360 -0.5499
  273MOL0     C36769   2.035   6.983   2.945  0.3280  0.4481 -0.3699
  273MOL0     N36770   1.778   6.266   2.805 -0.2697  0.2485 -0.4817
  273MOL0     N36771   1.757   6.234   2.675 -0.0876 -0.3375  0.0327
  273MOL0     C36772   1.074   5.265   2.543  0.2516 -0.1294 -0.0692
  273MOL0     C36773   1.012   5.145   2.513  0.8829  0.2419  0.7148
  273MOL0     C36774   0.777   4.835   2.266  0.2556 -0.4388 -0.1695
  273MOL0     C36775   0.858   4.723   2.272 -0.2148 -0.2524  0.5454
  273MOL0     C36776   0.809   4.593   2.247  0.0284 -0.0513  0.2540
  273MOL0     C36777   0.675   4.574   2.223  0.6058  1.2738  0.3183
  273MOL0     O36778   0.631   4.439   2.235  0.6709  0.0377  0.0032
  273MOL0     C36779   0.494   4.413   2.218 -0.1204 -0.7316 -0.1387
  273MOL0     C36780   0.486   4.265   2.247 -0.6087  0.0592  0.3035
  273MOL0     C36781   0.359   4.194   2.211  0.4001 -0.9495 -0.1463
  273MOL0     C36782   0.374   4.047   2.179  0.2182 -0.1347  0.1225
  273MOL0     C36783   0.241   3.982   2.174 -0.5756  0.9604 -0.7914
  273MOL0     C36784   0.134   3.927   2.177 -0.2611 -0.4008 -0.1430
  273MOL0     C36785   0.585   4.684   2.228 -0.1488  0.1769  0.3502
  273MOL0     C36786   0.635   4.811   2.235 -0.5102 -0.4869 -0.4285
  273MOL0     C36787   0.541   4.928   2.202 -0.5334  0.4598  0.7127
  273MOL0     H36788   1.088   5.138   2.182 -0.2248 -0.7767 -0.2426
  273MOL0     H36789   1.213   5.337   2.239 -0.1384  1.4865  0.8980
  273MOL0     H36790   1.100   5.524   2.610 -0.9948  1.0661 -1.2674
  273MOL0     H36791   1.257   5.463   2.679  0.4831  0.2957 -0.2254
  273MOL0     H36792   1.243   5.718   2.676 -0.8425 -0.2448  1.2665
  273MOL0     H36793   1.201   5.707   2.509 -3.6571 -2.0192  1.8500
  273MOL0     H36794   1.418   5.634   2.436 -0.1333  2.2787  0.1763
  273MOL0     H36795   1.463   5.569   2.592 -0.5200 -0.8434  1.0778
  273MOL0     H36796   1.461   5.806   2.688  2.0086  1.5138  0.0400
  273MOL0     H36797   1.583   5.782   2.567 -0.4383 -1.0448  0.9554
  273MOL0     H36798   1.400   5.904   2.405 -0.9535  1.3357 -0.2752
  273MOL0     H36799   1.334   5.938   2.560 -0.7432  2.3386 -2.4670
  273MOL0     H36800   1.560   6.034   2.644 -0.0024  0.0684 -0.3261
  273MOL0     H36801   1.621   6.006   2.477  0.5571  0.7923  0.2976
  273MOL0     H36802   1.387   6.209   2.523  0.9761 -0.9770  2.2506
  273MOL0     H36803   1.463   6.168   2.378 -2.2116  0.7787 -0.1222
  273MOL0     H36804   1.671   6.261   2.429 -0.7612  1.0268 -1.5738
  273MOL0     H36805   1.546   6.376   2.467  0.3292 -0.3634 -2.3513
  273MOL0     H36806   1.482   6.404   2.748 -1.9239 -1.5374 -0.8191
  273MOL0     H36807   1.545   6.413   2.994 -0.0214 -2.4147  1.4767
  273MOL0     H36808   1.708   6.373   3.040  0.8727  0.7625 -0.4213
  273MOL0     H36809   1.647   6.619   2.855  1.8458  1.6445  0.3012
  273MOL0     H36810   1.637   6.623   3.033 -2.4644 -2.6033  0.0837
  273MOL0     H36811   1.895   6.553   2.870  0.1975 -0.6028  0.4465
  273MOL0     H36812   1.853   6.542   3.047 -1.3989  4.2054  2.0694
  273MOL0     H36813   1.854   6.782   3.066  0.6287  0.0998 -0.7347
  273MOL0     H36814   1.814   6.804   2.894  0.9202  1.2332  0.8529
  273MOL0     H36815   2.246   6.727   2.978 -0.7766 -0.3161  1.1141
  273MOL0     H36816   2.414   6.927   3.001  0.9060  0.5089  0.0556
  273MOL0     H36817   2.512   7.352   2.806  2.2584 -0.3393  0.4495
  273MOL0     H36818   2.676   7.538   2.829 -1.2503  2.6612  0.2851
  273MOL0     H36819   2.846   7.657   2.921  0.6719  1.1146 -0.6510
  273MOL0     H36820   2.723   7.771   2.844 -0.2490  1.6780  0.7308
  273MOL0     H36821   2.809   7.945   2.967 -0.1631  0.3384 -1.1597
  273MOL0     H36822   2.945   7.866   3.036 -0.4841 -0.3234  0.0962
  273MOL0     H36823   3.037   7.810   2.801  0.3180 -0.2801  0.2425
  273MOL0     H36824   2.894   7.886   2.734  1.3297 -2.0534 -0.1063
  273MOL0     H36825   2.965   8.098   2.861  0.5006 -1.2400  2.8507
  273MOL0     H36826   3.049   8.037   2.716  1.5550  0.4523  0.6613
  273MOL0     H36827   3.206   7.927   2.879  0.0888 -0.0628 -1.4758
  273MOL0     H36828   3.142   8.050   3.001 -0.8907 -1.0201 -0.1249
  273MOL0     H36829   3.266   8.120   2.740  0.3953 -0.3467 -0.6855
  273MOL0     H36830   3.208   8.225   2.882  1.9533  0.2426  2.7177
  273MOL0     H36831   3.465   8.070   2.847 -1.9365  1.4195 -3.5557
  273MOL0     H36832   3.388   8.046   3.002 -0.3113  0.0511 -0.4639
  273MOL0     H36833   3.453   8.315   2.889 -2.7187 -1.5451 -1.7906
  273MOL0     H36834   3.375   8.290   3.044 -1.9198  1.6312 -2.1885
  273MOL0     H36835   2.493   7.665   3.192 -0.7030 -0.4116  0.6169
  273MOL0     H36836   2.333   7.492   3.176 -1.5117  2.9282 -0.6562
  273MOL0     H36837   2.081   7.194   2.921 -1.2451 -0.8440 -4.2177
  273MOL0     H36838   1.931   7.013   2.938 -0.0418  0.3260  2.9625
  273MOL0     H36839   1.056   5.308   2.641  0.3667  0.2672 -0.2205
  273MOL0     H36840   0.962   5.077   2.582 -0.7259  0.2743 -0.3661
  273MOL0     H36841   0.963   4.742   2.292 -0.8373  1.6466  2.3058
  273MOL0     H36842   0.883   4.514   2.254 -1.4726 -1.7249 -1.5258
  273MOL0     H36843   0.456   4.434   2.118 -1.1485  0.6343  0.5140
  273MOL0     H36844   0.431   4.473   2.284  0.3520  1.0397 -1.2583
  273MOL0     H36845   0.525   4.239   2.346  2.1088  0.3994 -0.5978
  273MOL0     H36846   0.561   4.235   2.173  0.8806 -0.1181  1.8178
  273MOL0     H36847   0.310   4.241   2.126 -0.3325 -1.6192 -0.1149
  273MOL0     H36848   0.289   4.203   2.295  1.9611  1.5707  0.9863
  273MOL0     H36849   0.415   4.046   2.077 -0.0991  1.0626 -0.0296
  273MOL0     H36850   0.444   4.000   2.249  3.5274  0.4170 -2.5340
  273MOL0     H36851   0.052   3.863   2.151  2.7798 -4.6652 -0.3123
  273MOL0     H36852   0.481   4.673   2.197 -0.1463  2.9474 -0.9124
  273MOL0     H36853   0.515   4.993   2.286 -0.6748  3.6070 -1.5798
  273MOL0     H36854   0.587   4.984   2.120  0.4721 -0.9176  0.2847
  273MOL0     H36855   0.446   4.903   2.154  1.0148 -0.0014 -2.4324
  274MOL0     O36856   4.492   8.708   2.120 -0.0230  0.3873  0.6404
  274MOL0     C36857   4.424   8.621   2.059  0.1231 -0.0536 -0.6137
  274MOL0     O36858   4.479   8.510   2.010  0.2456  0.0491  0.2138
  274MOL0     C36859   4.614   8.503   1.994 -0.9502 -1.2024 -0.6231
  274MOL0     C36860   4.685   8.395   2.054 -0.2499 -0.3535 -0.3058
  274MOL0     C36861   4.823   8.365   2.017  0.5774 -1.1840 -0.6909
  274MOL0     C36862   4.886   8.450   1.925  0.4115  0.6524  0.0316
  274MOL0     O36863   5.015   8.439   1.914 -0.9350 -0.9620 -0.3833
  274MOL0     C36864   5.057   8.366   1.794 -0.3723  0.8221 -0.1835
  274MOL0     C36865   5.205   8.391   1.778  0.2805  0.5079  0.3561
  274MOL0     C36866   5.303   8.288   1.845  1.0378 -0.3513  0.6655
  274MOL0     C36867   5.451   8.339   1.833  0.0964  0.2865  0.1492
  274MOL0     C36868   5.535   8.220   1.853 -0.8375 -0.5051 -1.8005
  274MOL0     C36869   5.691   8.256   1.877  0.9288 -0.3793  0.4155
  274MOL0     C36870   5.775   8.118   1.875  0.4562 -0.8014 -0.0308
  274MOL0     C36871   5.895   8.128   1.781 -0.6587 -0.6798  0.3034
  274MOL0     N36872   5.991   8.235   1.818  0.3537  0.6846 -0.3564
  274MOL0     C36873   6.052   8.262   1.939  0.3510  0.2834  0.7162
  274MOL0     C36874   6.102   8.377   1.928  0.1147  0.0456  0.0299
  274MOL0     C36875   6.167   8.457   2.025  0.1880 -0.3960 -0.6462
  274MOL0     C36876   6.315   8.438   2.027  0.4814 -0.1270  0.0297
  274MOL0     C36877   6.365   8.533   2.134 -0.7616 -0.3901 -0.0772
  274MOL0     C36878   6.522   8.547   2.116 -0.3014 -0.6337  0.1233
  274MOL0     O36879   6.562   8.554   2.249 -0.7581  0.4075 -0.4599
  274MOL0     C36880   6.692   8.580   2.287 -0.6409 -0.1218  0.1673
  274MOL0     C36881   6.787   8.597   2.191  0.9012  0.0497 -0.4849
  274MOL0     C36882   6.915   8.633   2.219 -0.5444  0.2707 -0.3215
  274MOL0     C36883   6.960   8.644   2.354 -0.6978  0.6598  0.5309
  274MOL0     C36884   7.104   8.670   2.380  0.5354 -0.3726 -0.7952
  274MOL0     O36885   7.152   8.681   2.512  0.4257  0.6168 -0.3234
  274MOL0     C36886   7.279   8.654   2.535 -0.0684 -0.8099  0.4614
  274MOL0     C36887   7.360   8.751   2.603  0.8300  0.2638  0.3173
  274MOL0     C36888   7.491   8.718   2.633 -0.7157  0.9122 -0.1838
  274MOL0     C36889   7.549   8.595   2.605  0.0219 -0.8116  0.4775
  274MOL0     O36890   7.669   8.553   2.642 -0.1206 -0.1939  0.1406
  274MOL0     C36891   7.766   8.652   2.680 -0.5766  0.3385  0.1932
  274MOL0     C36892   7.889   8.578   2.741  0.0396  0.5450  0.1190
  274MOL0     C36893   7.853   8.503   2.866 -0.5488  0.2163 -0.7248
  274MOL0     C36894   7.971   8.476   2.961 -0.3192  0.2187  0.8790
  274MOL0     C36895   8.007   8.599   3.049 -0.6244 -0.2741  0.8653
  274MOL0     C36896   7.887   8.629   3.143  0.5104 -0.1312 -0.5164
  274MOL0     C36897   7.931   8.731   3.245  0.0994 -0.0250 -0.7538
  274MOL0     C36898   7.817   8.784   3.345 -0.8293 -0.3479 -0.0514
  274MOL0    Cl36899   7.887   8.858   3.489 -0.0006  0.4092  0.4462
  274MOL0     C36900   7.469   8.501   2.543 -0.1702  0.3504 -0.2561
  274MOL0     C36901   7.341   8.532   2.504 -0.0008 -0.1029 -0.0831
  274MOL0     O36902   7.179   8.659   2.280 -0.4377  0.5799  0.3695
  274MOL0     C36903   6.864   8.626   2.452 -0.5037  0.7872  1.1841
  274MOL0     C36904   6.737   8.582   2.418  0.1440 -0.1775  0.0651
  274MOL0     N36905   6.087   8.426   1.799 -0.1444  0.0500  0.6528
  274MOL0     N36906   6.012   8.340   1.736 -0.0959 -0.3688 -0.2407
  274MOL0     C36907   4.820   8.552   1.859 -0.4199 -0.1712  0.2792
  274MOL0     C36908   4.681   8.578   1.894  0.2828 -0.0964  0.0162
  274MOL0     C36909   4.277   8.624   2.057  0.6766 -0.2614  0.3929
  274MOL0     C36910   4.202   8.514   2.073 -0.3087  0.5381 -0.4473
  274MOL0     C36911   4.057   8.520   2.079 -0.1670 -0.4912 -0.1492
  274MOL0     C36912   3.992   8.637   2.069  0.3644 -0.2780 -0.0623
  274MOL0     O36913   3.855   8.635   2.104  0.1993 -0.0587 -0.4483
  274MOL0     C36914   3.780   8.754   2.090 -0.4177 -0.0132 -0.8775
  274MOL0     C36915   3.639   8.734   2.147 -0.3596  0.0856  0.7450
  274MOL0     C36916   3.638   8.717   2.298 -0.6073 -0.2959 -0.2504
  274MOL0     C36917   3.667   8.843   2.366  0.8686 -1.4979 -0.1231
  274MOL0     C36918   3.560   8.946   2.349 -0.2692 -0.2630 -0.7760
  274MOL0     C36919   3.472   9.034   2.337  0.9117  0.1360  0.4707
  274MOL0     C36920   4.068   8.752   2.044 -0.6702  0.3367 -0.3827
  274MOL0     C36921   4.216   8.749   2.037  0.7083  0.1513 -0.2399
  274MOL0     C36922   4.286   8.874   1.992  0.4249  0.4123  0.7979
  274MOL0     H36923   4.637   8.325   2.122 -1.3580  0.8460  0.1858
  274MOL0     H36924   4.879   8.280   2.054 -0.3277 -0.6694  2.1066
  274MOL0     H36925   5.032   8.260   1.783 -1.0616  1.0536 -0.9208
  274MOL0     H36926   5.012   8.407   1.703 -0.8695 -0.3585 -0.4947
  274MOL0     H36927   5.224   8.489   1.822 -0.7341  1.3023 -0.9150
  274MOL0     H36928   5.232   8.389   1.672  4.5989 -0.1849  1.2800
  274MOL0     H36929   5.287   8.189   1.802  0.6218  0.7123 -1.7846
  274MOL0     H36930   5.277   8.289   1.951 -2.1338 -0.0862 -0.0224
  274MOL0     H36931   5.483   8.376   1.735 -0.8964  2.4489  0.5748
  274MOL0     H36932   5.459   8.420   1.906 -0.4594  0.5552 -0.0774
  274MOL0     H36933   5.500   8.168   1.943  0.1727  1.4897 -0.1563
  274MOL0     H36934   5.524   8.144   1.775 -0.5327 -1.1144 -1.2710
  274MOL0     H36935   5.723   8.328   1.801  1.4310 -0.3734  0.6262
  274MOL0     H36936   5.691   8.304   1.974 -0.4869  0.0585  0.2210
  274MOL0     H36937   5.714   8.038   1.833 -0.6065 -0.2318  0.4001
  274MOL0     H36938   5.796   8.089   1.978  0.9554  0.4392  0.2340
  274MOL0     H36939   5.947   8.032   1.784 -3.7026 -2.4289  1.5129
  274MOL0     H36940   5.853   8.138   1.681 -4.9003  1.6063  2.0686
  274MOL0     H36941   6.053   8.205   2.031  4.4049 -0.0484  0.6204
  274MOL0     H36942   6.146   8.561   1.997 -1.6355 -0.3731  0.6389
  274MOL0     H36943   6.126   8.449   2.126 -2.2239 -0.5155 -1.5719
  274MOL0     H36944   6.343   8.334   2.044 -2.6595 -1.3332 -1.4842
  274MOL0     H36945   6.348   8.468   1.927 -0.6622  1.5014  0.1101
  274MOL0     H36946   6.349   8.487   2.232 -0.8988  1.5073  0.8325
  274MOL0     H36947   6.320   8.633   2.135  0.9778  0.4407  0.8426
  274MOL0     H36948   6.556   8.626   2.049 -2.4750 -0.0365 -0.3625
  274MOL0     H36949   6.565   8.464   2.058 -1.8146 -0.0130 -2.0334
  274MOL0     H36950   6.772   8.584   2.084 -0.0640  0.7843 -0.4532
  274MOL0     H36951   6.974   8.650   2.129 -1.6771  2.2406 -0.7732
  274MOL0     H36952   7.304   8.837   2.637 -0.1928  0.2005 -1.1076
  274MOL0     H36953   7.543   8.800   2.682  0.3238  0.9233 -1.2782
  274MOL0     H36954   7.804   8.711   2.596 -2.1450 -2.1187 -2.4061
  274MOL0     H36955   7.721   8.713   2.759  2.4182  0.0961  2.2309
  274MOL0     H36956   7.940   8.509   2.673  4.0950 -0.6882  3.9360
  274MOL0     H36957   7.965   8.654   2.757 -1.0391  1.7776 -0.3596
  274MOL0     H36958   7.780   8.561   2.923  1.7331  1.3047  1.2546
  274MOL0     H36959   7.809   8.407   2.837 -1.5429  0.6944 -0.8493
  274MOL0     H36960   8.065   8.462   2.907 -0.8322 -0.8509  0.2543
  274MOL0     H36961   7.951   8.396   3.032 -0.1378  1.7321  2.7344
  274MOL0     H36962   8.021   8.689   2.989  1.1037 -0.0723  1.5113
  274MOL0     H36963   8.099   8.576   3.104  0.2626 -1.9420 -1.1401
  274MOL0     H36964   7.788   8.650   3.101 -0.9095 -3.5583  0.6886
  274MOL0     H36965   7.868   8.536   3.197  1.4342  1.0211  1.9281
  274MOL0     H36966   7.967   8.822   3.195 -0.0337 -0.0591 -0.9130
  274MOL0     H36967   8.013   8.696   3.307 -0.1621  0.9527  0.1820
  274MOL0     H36968   7.751   8.857   3.298 -1.7042 -0.5426  0.8318
  274MOL0     H36969   7.756   8.702   3.385 -3.4463  0.8490 -1.3776
  274MOL0     H36970   7.517   8.405   2.527 -2.2948 -0.7188 -0.5468
  274MOL0     H36971   7.276   8.452   2.469  0.5079 -1.3866  1.7234
  274MOL0     H36972   6.897   8.651   2.553 -3.0390  2.3783  1.7150
  274MOL0     H36973   6.666   8.567   2.499 -0.2235 -1.7216 -0.5059
  274MOL0     H36974   4.867   8.601   1.774  0.0057 -0.9449  0.0570
  274MOL0     H36975   4.625   8.655   1.843  0.3959 -0.1986 -0.2630
  274MOL0     H36976   4.255   8.423   2.101 -0.7879 -0.0408 -1.3458
  274MOL0     H36977   4.007   8.428   2.107 -0.5035  0.1607  1.4929
  274MOL0     H36978   3.769   8.793   1.989 -1.1444 -1.6669 -1.4662
  274MOL0     H36979   3.838   8.831   2.142 -0.0107 -0.3460 -0.8313
  274MOL0     H36980   3.609   8.640   2.101  0.0663 -0.7328  2.0846
  274MOL0     H36981   3.575   8.815   2.111  1.4630  1.2550  0.0005
  274MOL0     H36982   3.711   8.641   2.328 -1.7083 -1.5407 -0.6928
  274MOL0     H36983   3.539   8.680   2.325 -0.8970 -0.4611 -1.4825
  274MOL0     H36984   3.670   8.825   2.474  0.8094  0.9641  0.3420
  274MOL0     H36985   3.759   8.889   2.328  0.6680 -1.4651 -0.5829
  274MOL0     H36986   3.397   9.110   2.327  0.0603 -0.8265 -0.7850
  274MOL0     H36987   4.012   8.843   2.029 -2.6997 -1.0103 -1.3871
  274MOL0     H36988   4.356   8.851   1.912  1.1740 -1.0094  1.8101
  274MOL0     H36989   4.209   8.946   1.962 -1.0887 -0.1298  3.0529
  274MOL0     H36990   4.339   8.922   2.075  1.9602 -1.1377  0.7730
  275MOL0     O36991   8.126   5.129   3.228  0.7051  0.9248  0.1873
  275MOL0     C36992   8.114   5.017   3.284 -0.9068 -0.1132  1.0864
  275MOL0     O36993   8.181   4.987   3.404 -0.0489 -0.3334  0.2677
  275MOL0     C36994   8.296   5.058   3.434 -0.4237  0.1845  0.1571
  275MOL0     C36995   8.379   5.136   3.347 -0.3439 -0.0021  0.5881
  275MOL0     C36996   8.492   5.195   3.403 -0.3694  0.2569  0.5586
  275MOL0     C36997   8.526   5.187   3.529  0.1923  0.5987  0.2361
  275MOL0     O36998   8.650   5.238   3.566  0.8616 -0.1406 -0.1201
  275MOL0     C36999   8.659   5.253   3.712  0.4058  0.2310 -0.7718
  275MOL0     C37000   8.769   5.345   3.750  0.3944  0.1544  0.1782
  275MOL0     C37001   8.760   5.371   3.905 -0.4774 -0.3919 -0.5272
  275MOL0     C37002   8.875   5.461   3.945  0.5629  0.6759 -0.3434
  275MOL0     C37003   8.944   5.408   4.065 -0.4896 -0.2855 -0.2047
  275MOL0     C37004   8.836   5.394   4.180  0.2375  0.1399  0.0371
  275MOL0     C37005   8.910   5.384   4.309 -0.4211  0.0501 -0.5603
  275MOL0     C37006   8.824   5.356   4.435 -0.3887  0.5119  0.0042
  275MOL0     N37007   8.787   5.210   4.447 -0.5634  0.4737 -1.0672
  275MOL0     C37008   8.666   5.173   4.415  1.0013  0.6799 -0.2363
  275MOL0     C37009   8.653   5.039   4.446 -0.3844  0.6601  0.2168
  275MOL0     C37010   8.537   4.938   4.416  0.6739 -0.6474 -0.6731
  275MOL0     C37011   8.601   4.828   4.334 -0.2112  0.0773  0.0279
  275MOL0     C37012   8.493   4.755   4.252 -0.4071 -0.6495 -0.2718
  275MOL0     C37013   8.549   4.639   4.172  0.0816  0.9518  1.0471
  275MOL0     O37014   8.598   4.529   4.256  0.0478 -0.2786 -0.4579
  275MOL0     C37015   8.632   4.414   4.192 -0.8042  0.5907 -0.9155
  275MOL0     C37016   8.704   4.410   4.074 -0.3457 -1.0083  0.5425
  275MOL0     C37017   8.734   4.292   4.010 -0.1419 -0.1688 -0.4360
  275MOL0     C37018   8.688   4.170   4.065 -0.6647 -0.2304 -0.3498
  275MOL0     C37019   8.719   4.042   3.998  0.1325 -0.6011  0.0011
  275MOL0     O37020   8.790   4.046   3.883  0.1792 -0.2835 -0.0309
  275MOL0     C37021   8.791   3.947   3.797 -0.6119 -0.3344 -0.7570
  275MOL0     C37022   8.828   3.982   3.667 -0.6234 -0.1717 -0.4659
  275MOL0     C37023   8.848   3.892   3.568  0.6097  0.4915 -0.2384
  275MOL0     C37024   8.821   3.750   3.582 -0.3330 -0.0181 -0.3203
  275MOL0     O37025   8.846   3.659   3.485 -0.4490  1.2352  0.2879
  275MOL0     C37026   8.954   3.681   3.390 -0.0766  0.6897  0.0083
  275MOL0     C37027   9.005   3.550   3.321 -0.6118 -0.0817  0.6893
  275MOL0     C37028   8.908   3.466   3.240 -0.3912 -0.2548  0.2428
  275MOL0     C37029   8.963   3.323   3.215 -0.2996  0.6519  0.2113
  275MOL0     C37030   8.922   3.277   3.073  1.0033 -0.1605  0.1133
  275MOL0     C37031   9.003   3.338   2.952  0.0064  0.3250 -0.0790
  275MOL0     C37032   8.927   3.307   2.821  0.3459 -0.4202 -0.3440
  275MOL0     C37033   9.019   3.286   2.698 -0.0817 -0.8432 -0.2236
  275MOL0    Cl37034   8.909   3.224   2.580 -0.0802  0.3228  0.2875
  275MOL0     C37035   8.786   3.711   3.712  0.3107  0.1077 -0.8682
  275MOL0     C37036   8.767   3.809   3.819 -0.5959 -0.3665  0.0353
  275MOL0     O37037   8.670   3.939   4.044  0.1352  0.3983 -0.2933
  275MOL0     C37038   8.624   4.167   4.188  0.4519  0.2243 -0.3831
  275MOL0     C37039   8.586   4.295   4.250 -0.4786  0.9404  0.0796
  275MOL0     N37040   8.774   5.006   4.509 -0.2121 -0.3885  0.2758
  275MOL0     N37041   8.855   5.106   4.506  0.5724 -0.1404 -0.6586
  275MOL0     C37042   8.455   5.099   3.613  1.3789  0.7769 -0.3206
  275MOL0     C37043   8.337   5.045   3.562 -0.3485  0.7434 -0.5925
  275MOL0     C37044   8.001   4.934   3.249  0.5708 -0.1950 -1.1694
  275MOL0     C37045   7.911   4.975   3.148 -0.9731  0.1807 -0.0323
  275MOL0     C37046   7.793   4.903   3.115 -1.0575  0.1256 -0.1866
  275MOL0     C37047   7.755   4.787   3.181  0.3264  0.5526 -0.2641
  275MOL0     O37048   7.645   4.707   3.153 -1.1899 -0.3042 -0.5742
  275MOL0     C37049   7.527   4.777   3.133  1.0359  0.7820  0.4104
  275MOL0     C37050   7.410   4.677   3.111  0.1002 -0.0119  0.3902
  275MOL0     C37051   7.422   4.572   3.001  0.7458 -0.5473  0.1588
  275MOL0     C37052   7.291   4.499   2.960 -0.2752 -0.0420  0.0383
  275MOL0     C37053   7.238   4.441   3.078  0.5965  0.7278 -0.7531
  275MOL0     C37054   7.157   4.403   3.170  0.6454 -0.0887  0.4021
  275MOL0     C37055   7.839   4.748   3.289  0.1771  1.0172 -0.2093
  275MOL0     C37056   7.964   4.815   3.317 -0.5206 -0.0925  1.1368
  275MOL0     C37057   8.038   4.755   3.431  1.0860  0.6325 -0.4971
  275MOL0     H37058   8.375   5.142   3.239  0.1025 -2.7403  0.3381
  275MOL0     H37059   8.562   5.244   3.337  0.2549 -0.5969  0.5710
  275MOL0     H37060   8.560   5.281   3.747  1.3145  0.2555  2.0233
  275MOL0     H37061   8.694   5.160   3.759  1.1610 -0.2855 -2.2565
  275MOL0     H37062   8.776   5.442   3.700  0.9961  0.5234  0.9489
  275MOL0     H37063   8.861   5.291   3.726  0.0935 -1.2714  2.0123
  275MOL0     H37064   8.773   5.276   3.958  1.2334 -1.0741 -2.0566
  275MOL0     H37065   8.662   5.415   3.923 -1.0466 -1.1362 -1.6857
  275MOL0     H37066   8.942   5.470   3.859 -0.8901 -0.4435 -1.6525
  275MOL0     H37067   8.845   5.567   3.946  1.5092  0.9663 -1.1576
  275MOL0     H37068   9.009   5.324   4.039 -0.5434 -0.5163  0.3974
  275MOL0     H37069   9.016   5.487   4.089  1.1043 -2.2116  1.7694
  275MOL0     H37070   8.771   5.482   4.180 -0.2184 -0.0385  4.2050
  275MOL0     H37071   8.776   5.306   4.156  4.2889 -2.9277  0.0739
  275MOL0     H37072   8.959   5.480   4.328 -0.6450  0.5313 -2.2575
  275MOL0     H37073   8.985   5.304   4.310 -1.1231 -0.7533  3.3055
  275MOL0     H37074   8.889   5.375   4.521 -0.9142 -0.1881  0.5706
  275MOL0     H37075   8.737   5.421   4.445 -1.2925 -0.8111  0.9617
  275MOL0     H37076   8.588   5.235   4.372  0.2837  2.0809  2.8581
  275MOL0     H37077   8.513   4.880   4.506 -3.4801 -0.1303 -1.2773
  275MOL0     H37078   8.451   4.990   4.374  0.8239  0.7115  0.6063
  275MOL0     H37079   8.678   4.870   4.269 -1.5541  5.0233  1.1833
  275MOL0     H37080   8.638   4.756   4.407 -0.2172 -0.7314 -0.7535
  275MOL0     H37081   8.441   4.827   4.189 -0.3429 -2.4697 -2.5174
  275MOL0     H37082   8.410   4.720   4.314 -0.1878  2.7877  2.3079
  275MOL0     H37083   8.637   4.683   4.124  0.1518 -0.4108 -0.1403
  275MOL0     H37084   8.483   4.600   4.094 -0.5966  0.3339  1.9109
  275MOL0     H37085   8.755   4.501   4.046 -1.5640 -0.0354  1.3666
  275MOL0     H37086   8.780   4.299   3.912 -0.3831  0.0767 -0.5311
  275MOL0     H37087   8.849   4.088   3.657 -2.1382  0.2539  0.5322
  275MOL0     H37088   8.864   3.940   3.472  3.4902  2.4440  1.1073
  275MOL0     H37089   8.926   3.764   3.324 -0.3272  1.5358  1.1592
  275MOL0     H37090   9.042   3.723   3.439  1.0081 -0.9426 -0.4368
  275MOL0     H37091   9.087   3.571   3.251 -1.6168  2.8859  0.2680
  275MOL0     H37092   9.053   3.485   3.394 -0.7477 -2.3472 -1.1246
  275MOL0     H37093   8.806   3.471   3.280 -0.4363 -1.9301  0.3888
  275MOL0     H37094   8.901   3.515   3.142 -0.9882  0.5030  0.6483
  275MOL0     H37095   8.921   3.255   3.290 -2.2470  2.0429  0.4295
  275MOL0     H37096   9.071   3.321   3.233 -0.5869 -0.3513  2.0990
  275MOL0     H37097   8.816   3.302   3.063  1.2773  0.8536 -0.4009
  275MOL0     H37098   8.934   3.169   3.062 -0.1018 -0.3727  0.8457
  275MOL0     H37099   9.026   3.443   2.968  3.1421 -0.4042  0.9239
  275MOL0     H37100   9.103   3.293   2.955  1.1444  2.6232 -1.4342
  275MOL0     H37101   8.843   3.374   2.798 -0.9173 -1.4133  1.1063
  275MOL0     H37102   8.869   3.215   2.837 -1.4889  0.5407 -1.1410
  275MOL0     H37103   9.061   3.384   2.677  0.3666 -1.1634 -0.8628
  275MOL0     H37104   9.095   3.212   2.725 -0.4902 -0.3476  2.5418
  275MOL0     H37105   8.775   3.606   3.737  1.8482  0.1685  0.2036
  275MOL0     H37106   8.745   3.763   3.914  0.3994  2.6124  1.8551
  275MOL0     H37107   8.591   4.076   4.237  2.2038 -1.2000 -1.6958
  275MOL0     H37108   8.532   4.299   4.343  1.8412  0.9875  1.4987
  275MOL0     H37109   8.474   5.081   3.718 -0.1270  0.0570 -0.1417
  275MOL0     H37110   8.276   4.982   3.626 -2.6889  1.4261 -2.0534
  275MOL0     H37111   7.942   5.060   3.087  6.2719  0.8670  3.4684
  275MOL0     H37112   7.741   4.938   3.027 -1.1986  1.6786  0.4840
  275MOL0     H37113   7.529   4.848   3.050 -1.8042  2.1592  1.3911
  275MOL0     H37114   7.508   4.839   3.222  1.3071  4.5085 -1.9023
  275MOL0     H37115   7.320   4.738   3.097  2.0673  2.6118 -1.8681
  275MOL0     H37116   7.406   4.627   3.208  2.1010  0.9362  1.0110
  275MOL0     H37117   7.500   4.505   3.038  0.7675 -0.9575 -0.6229
  275MOL0     H37118   7.457   4.624   2.912 -3.4359 -0.0101 -1.4268
  275MOL0     H37119   7.226   4.571   2.909  1.0654 -0.4905 -2.4958
  275MOL0     H37120   7.310   4.426   2.880 -0.3991  2.0430 -2.0263
  275MOL0     H37121   7.083   4.375   3.242 -0.1430 -3.6763 -1.5891
  275MOL0     H37122   7.814   4.659   3.345  1.7330  0.3821 -0.4850
  275MOL0     H37123   8.025   4.647   3.445  1.0962  0.7097  0.1355
  275MOL0     H37124   8.148   4.758   3.427  1.1306 -0.8831 -2.9574
  275MOL0     H37125   8.003   4.816   3.514  1.8784  1.6469 -0.8886
  276MOL0     O37126   4.335   7.371   3.803  0.4375 -0.1858 -0.0922
  276MOL0     C37127   4.309   7.252   3.768 -0.2066  0.5170 -0.8256
  276MOL0     O37128   4.374   7.183   3.673 -0.2181  0.0696  0.7539
  276MOL0     C37129   4.496   7.221   3.624  0.6634 -0.7203 -0.1779
  276MOL0     C37130   4.506   7.289   3.504  0.5267 -1.5424  0.7386
  276MOL0     C37131   4.628   7.340   3.454 -0.2716 -0.7213  0.4243
  276MOL0     C37132   4.741   7.329   3.526  0.3811 -0.0344  0.1212
  276MOL0     O37133   4.872   7.371   3.485  0.4965  0.2121 -0.3443
  276MOL0     C37134   4.881   7.436   3.356  0.2385 -0.2313  0.8689
  276MOL0     C37135   5.016   7.497   3.341  0.3298  0.0940 -0.0469
  276MOL0     C37136   5.028   7.556   3.199  0.1752  0.1979 -0.3025
  276MOL0     C37137   5.174   7.590   3.166 -0.0395 -0.2037 -0.2508
  276MOL0     C37138   5.185   7.659   3.029 -0.2147 -0.4243  0.0913
  276MOL0     C37139   5.324   7.737   3.029 -1.4799  0.8756 -0.1392
  276MOL0     C37140   5.441   7.646   2.994  0.8963  0.4346 -0.6907
  276MOL0     C37141   5.578   7.681   3.045  0.4030 -0.0732 -0.3402
  276MOL0     N37142   5.624   7.810   2.989  0.6687 -0.1323 -0.3904
  276MOL0     C37143   5.726   7.820   2.904 -0.4266 -0.0803 -0.0687
  276MOL0     C37144   5.744   7.955   2.885  0.2908 -0.7075 -0.2259
  276MOL0     C37145   5.831   8.030   2.792  0.3503  0.8171  0.3769
  276MOL0     C37146   5.969   8.081   2.852  0.1485  0.1736 -0.3164
  276MOL0     C37147   5.945   8.172   2.976  0.9973 -0.1164 -0.5285
  276MOL0     C37148   6.058   8.268   3.015 -0.6156  0.0581  0.0687
  276MOL0     O37149   6.173   8.186   3.038 -0.1821  0.5650 -0.6320
  276MOL0     C37150   6.297   8.231   3.076 -0.6946 -0.2844 -0.3763
  276MOL0     C37151   6.408   8.139   3.065 -0.0233 -0.8533 -0.3354
  276MOL0     C37152   6.539   8.176   3.095  0.0817  0.0982 -0.3183
  276MOL0     C37153   6.560   8.300   3.147  0.5231  0.1690 -0.0644
  276MOL0     C37154   6.701   8.348   3.182  0.1349 -0.1909 -0.0986
  276MOL0     O37155   6.793   8.245   3.198  0.9604 -0.2506 -0.1061
  276MOL0     C37156   6.919   8.286   3.215  0.3499  0.1941  0.8263
  276MOL0     C37157   6.963   8.380   3.310  0.1333 -0.4011 -0.6446
  276MOL0     C37158   7.098   8.409   3.335 -0.0925  0.0961 -0.6300
  276MOL0     C37159   7.199   8.341   3.266 -0.7454  0.7944 -0.4837
  276MOL0     O37160   7.336   8.373   3.265 -0.6752  0.3820  0.7796
  276MOL0     C37161   7.385   8.470   3.355  0.3082 -0.5231  1.5724
  276MOL0     C37162   7.535   8.494   3.338  0.7273 -0.3779 -0.4456
  276MOL0     C37163   7.612   8.367   3.321  0.4538  0.1077  0.4838
  276MOL0     C37164   7.736   8.374   3.416  0.7733 -0.3516 -0.1611
  276MOL0     C37165   7.793   8.237   3.442  0.8480  0.3916  0.8421
  276MOL0     C37166   7.923   8.249   3.510 -0.1412  0.2743 -0.1587
  276MOL0     C37167   7.993   8.118   3.547 -0.2715  0.0129  0.8870
  276MOL0     C37168   8.134   8.145   3.577  0.2704  0.4326  0.4235
  276MOL0    Cl37169   8.213   8.186   3.421 -0.2463  0.1133  0.2993
  276MOL0     C37170   7.154   8.253   3.170 -0.2621  0.9436 -0.0907
  276MOL0     C37171   7.023   8.225   3.141 -0.5242  0.4443  0.2236
  276MOL0     O37172   6.725   8.469   3.175 -0.8191 -0.4078 -0.2088
  276MOL0     C37173   6.453   8.396   3.151 -0.0326  0.7536 -0.2379
  276MOL0     C37174   6.323   8.358   3.121 -1.6837 -0.7087 -0.2465
  276MOL0     N37175   5.644   8.019   2.959 -0.3585  0.8916  0.0268
  276MOL0     N37176   5.582   7.931   3.025  0.6273  0.1276  0.1953
  276MOL0     C37177   4.729   7.285   3.657  1.4044  0.6924  0.2003
  276MOL0     C37178   4.605   7.233   3.707 -0.1933 -0.4365 -0.1564
  276MOL0     C37179   4.186   7.193   3.816 -0.4435  0.2170 -1.1393
  276MOL0     C37180   4.134   7.081   3.747 -0.8181  0.4953  0.7822
  276MOL0     C37181   4.026   7.002   3.798  0.7752  0.0183  0.4494
  276MOL0     C37182   3.948   7.063   3.898 -0.0174 -0.3994  0.1311
  276MOL0     O37183   3.832   7.002   3.937 -0.0965 -0.2827 -0.3726
  276MOL0     C37184   3.716   7.073   3.994 -0.2819  0.1191  0.1173
  276MOL0     C37185   3.698   7.083   4.148 -1.1086  0.7800  0.6485
  276MOL0     C37186   3.578   7.169   4.198 -0.3168 -0.5991  0.7886
  276MOL0     C37187   3.444   7.126   4.136  0.1018  0.3018  0.2082
  276MOL0     C37188   3.344   7.222   4.175 -0.2053  0.0151  0.4412
  276MOL0     C37189   3.251   7.302   4.176 -0.1861  0.5554  0.2337
  276MOL0     C37190   4.002   7.177   3.964 -0.0162 -0.7335  0.2869
  276MOL0     C37191   4.118   7.244   3.928  0.1441  0.1439 -0.4255
  276MOL0     C37192   4.166   7.353   4.015 -0.7187  0.4088 -0.2070
  276MOL0     H37193   4.416   7.300   3.444  0.5859 -1.7494  0.6131
  276MOL0     H37194   4.628   7.392   3.359 -3.7365 -3.1402 -1.0619
  276MOL0     H37195   4.871   7.362   3.276 -2.1138 -0.1153  0.9783
  276MOL0     H37196   4.806   7.515   3.349 -0.1894 -0.7784 -1.4241
  276MOL0     H37197   5.091   7.422   3.366 -1.7257 -1.5699  1.4365
  276MOL0     H37198   5.033   7.573   3.418  3.1843 -0.6635  0.1852
  276MOL0     H37199   4.959   7.639   3.182 -0.9832 -0.7049 -0.1622
  276MOL0     H37200   4.999   7.479   3.127 -0.4954  0.2377 -0.0845
  276MOL0     H37201   5.216   7.652   3.245 -1.6483  0.9700 -0.2763
  276MOL0     H37202   5.231   7.496   3.161 -1.9134 -1.3739 -0.7925
  276MOL0     H37203   5.199   7.585   2.950 -0.3184  0.8563 -1.1810
  276MOL0     H37204   5.098   7.721   3.006 -0.2145 -0.7419 -0.7871
  276MOL0     H37205   5.321   7.813   2.950  0.8231  1.9005  0.6923
  276MOL0     H37206   5.355   7.777   3.126 -2.0858 -2.4208  1.5341
  276MOL0     H37207   5.441   7.631   2.886 -0.1649 -3.1586 -0.3231
  276MOL0     H37208   5.421   7.546   3.031 -0.9639  0.2987 -1.9104
  276MOL0     H37209   5.579   7.680   3.154 -0.0774  0.4237 -0.3260
  276MOL0     H37210   5.650   7.606   3.011  3.8740  1.4066  3.0525
  276MOL0     H37211   5.787   7.739   2.866  1.6096  0.7600  1.2275
  276MOL0     H37212   5.851   7.959   2.711 -2.4205 -2.5839  2.3911
  276MOL0     H37213   5.774   8.114   2.752  1.5404  0.9324 -1.1723
  276MOL0     H37214   6.028   7.993   2.880  0.8917  0.7039 -0.1836
  276MOL0     H37215   6.031   8.137   2.781  2.8454 -1.2071  0.8254
  276MOL0     H37216   5.928   8.120   3.071  1.5136 -0.9045 -0.8537
  276MOL0     H37217   5.856   8.230   2.949 -0.4460 -1.2474  1.4995
  276MOL0     H37218   6.041   8.317   3.112  2.7900  0.3985  0.5903
  276MOL0     H37219   6.076   8.342   2.937 -1.6699  0.1199 -0.1354
  276MOL0     H37220   6.381   8.040   3.030  0.2103 -1.1856  0.4029
  276MOL0     H37221   6.626   8.111   3.088 -1.1119 -1.7112  0.9404
  276MOL0     H37222   6.874   8.424   3.355 -0.3518 -1.9392 -0.0129
  276MOL0     H37223   7.128   8.491   3.400  0.3524  0.5416 -1.3817
  276MOL0     H37224   7.339   8.569   3.349  1.0843 -0.1314  1.9859
  276MOL0     H37225   7.366   8.428   3.454  1.0496 -0.7565  1.6202
  276MOL0     H37226   7.544   8.547   3.243 -0.6135 -0.3991 -0.6047
  276MOL0     H37227   7.567   8.570   3.410  1.2966  1.3828 -2.4537
  276MOL0     H37228   7.559   8.275   3.346 -0.3897  0.5797  0.4981
  276MOL0     H37229   7.646   8.364   3.217  0.4964  1.4390  0.4312
  276MOL0     H37230   7.709   8.419   3.512 -0.1654 -0.2183 -0.4808
  276MOL0     H37231   7.807   8.435   3.358  0.3910 -1.2729 -1.6758
  276MOL0     H37232   7.809   8.189   3.345 -0.2155 -3.6234  2.4235
  276MOL0     H37233   7.716   8.176   3.490 -1.4574 -1.1986 -4.2214
  276MOL0     H37234   7.996   8.309   3.455  1.0431 -2.2501 -1.5143
  276MOL0     H37235   7.905   8.305   3.603  0.2870 -0.2312  0.2309
  276MOL0     H37236   7.985   8.054   3.459 -1.4956  1.6203 -0.2277
  276MOL0     H37237   7.940   8.074   3.632 -1.5674 -0.6159 -0.2161
  276MOL0     H37238   8.144   8.228   3.647  1.3265 -1.1451  2.2611
  276MOL0     H37239   8.173   8.051   3.618 -2.6402 -0.6837  0.9355
  276MOL0     H37240   7.227   8.214   3.100 -1.4925 -1.3384 -0.2263
  276MOL0     H37241   6.993   8.158   3.061 -0.5962  1.7149 -0.8406
  276MOL0     H37242   6.468   8.492   3.199 -0.9398  0.3021  1.0007
  276MOL0     H37243   6.244   8.431   3.137 -1.0620 -0.4424  2.0753
  276MOL0     H37244   4.819   7.277   3.717  0.1309 -1.9169  1.9920
  276MOL0     H37245   4.600   7.206   3.812 -2.5283  0.7834  0.1060
  276MOL0     H37246   4.181   7.039   3.658 -1.3586 -0.1111  0.7796
  276MOL0     H37247   3.986   6.911   3.753  2.8913 -0.3251 -0.8441
  276MOL0     H37248   3.638   7.003   3.962  2.1317 -2.7010 -0.0886
  276MOL0     H37249   3.690   7.170   3.951 -0.9069  0.5527  1.4351
  276MOL0     H37250   3.794   7.110   4.195 -1.1942  0.2421  1.1529
  276MOL0     H37251   3.682   6.983   4.189  1.1146  0.3360  0.5946
  276MOL0     H37252   3.597   7.273   4.172 -0.3508 -0.3933  1.5655
  276MOL0     H37253   3.596   7.160   4.305  3.8111 -1.8562  0.1801
  276MOL0     H37254   3.443   7.122   4.027  1.2540 -0.7372  0.2109
  276MOL0     H37255   3.423   7.027   4.176  1.4315 -0.0325  0.1465
  276MOL0     H37256   3.170   7.370   4.191 -1.3478 -0.9673  1.2221
  276MOL0     H37257   3.945   7.214   4.049  2.5803  0.3143  1.6793
  276MOL0     H37258   4.270   7.336   4.044 -1.6953 -1.2281  2.6919
  276MOL0     H37259   4.154   7.448   3.961  0.2308 -0.5936 -2.3087
  276MOL0     H37260   4.126   7.355   4.117  4.2255 -0.1202  2.0279
  277MOL0     O37261   4.227   5.012   6.597 -0.0552  0.2693  0.3042
  277MOL0     C37262   4.204   5.107   6.533  0.5926  0.4812 -0.7938
  277MOL0     O37263   4.292   5.206   6.515 -0.1991  0.5174 -0.0462
  277MOL0     C37264   4.420   5.219   6.577  0.8873 -1.0583 -0.0516
  277MOL0     C37265   4.481   5.121   6.656 -0.4677 -0.0173 -0.0319
  277MOL0     C37266   4.601   5.152   6.716  0.3330 -0.6982  0.3452
  277MOL0     C37267   4.670   5.276   6.697  1.4642  1.5928  0.2035
  277MOL0     O37268   4.795   5.299   6.749  0.9756 -0.2271  0.1054
  277MOL0     C37269   4.891   5.385   6.676  0.5217  0.3476 -1.0556
  277MOL0     C37270   5.043   5.342   6.689 -0.3415  0.2799  0.3586
  277MOL0     C37271   5.128   5.463   6.648 -0.4838 -0.0831  0.0774
  277MOL0     C37272   5.270   5.417   6.650 -0.5763 -0.3481  0.1527
  277MOL0     C37273   5.372   5.533   6.634  0.0197  0.0153  0.7481
  277MOL0     C37274   5.505   5.466   6.599  0.8842 -0.2483  0.0336
  277MOL0     C37275   5.620   5.560   6.630 -0.5697 -0.8696  0.4240
  277MOL0     C37276   5.637   5.667   6.517  0.4323 -0.0571 -0.1142
  277MOL0     N37277   5.778   5.714   6.509 -0.8286  0.2136 -0.3035
  277MOL0     C37278   5.873   5.652   6.441  0.0985 -0.3778 -0.0971
  277MOL0     C37279   5.984   5.701   6.497 -0.4471 -0.1232  0.8663
  277MOL0     C37280   6.135   5.683   6.462  1.4799 -0.1098 -0.0110
  277MOL0     C37281   6.161   5.732   6.321 -0.4981  0.5517 -0.2418
  277MOL0     C37282   6.139   5.883   6.304  0.3069 -0.3016  0.4875
  277MOL0     C37283   6.177   5.934   6.161  0.0259 -0.5877 -0.2061
  277MOL0     O37284   6.313   5.923   6.125 -0.5646 -0.3631  0.0401
  277MOL0     C37285   6.399   6.010   6.197 -0.4981 -0.4792 -0.4542
  277MOL0     C37286   6.362   6.132   6.262 -0.9168 -0.4239 -0.7231
  277MOL0     C37287   6.476   6.214   6.306 -0.3136 -0.0997  0.2010
  277MOL0     C37288   6.610   6.175   6.290  0.6299 -0.1317 -0.5579
  277MOL0     C37289   6.722   6.268   6.319 -0.0188  0.1439  0.0549
  277MOL0     O37290   6.843   6.222   6.294 -0.3546 -0.1292  0.0809
  277MOL0     C37291   6.956   6.286   6.329 -0.7695  0.0259  0.1941
  277MOL0     C37292   7.071   6.265   6.244  0.4672  1.1137  0.4033
  277MOL0     C37293   7.195   6.320   6.277  0.2340 -1.0451  0.2050
  277MOL0     C37294   7.219   6.404   6.385  0.0463 -0.2989 -0.1466
  277MOL0     O37295   7.352   6.435   6.417  0.1844 -0.5602  0.5646
  277MOL0     C37296   7.381   6.436   6.559  0.3262  0.2948  0.0591
  277MOL0     C37297   7.516   6.492   6.562  0.2958  0.1436 -0.2275
  277MOL0     C37298   7.523   6.644   6.542 -0.3624  0.1130 -0.5659
  277MOL0     C37299   7.650   6.687   6.491  0.1713  0.3398  0.3849
  277MOL0     C37300   7.766   6.661   6.585 -0.0041 -0.2353  0.9138
  277MOL0     C37301   7.909   6.688   6.514  0.5492  0.0299  0.9032
  277MOL0     C37302   7.934   6.831   6.463  0.9587  0.1469 -0.0098
  277MOL0     C37303   8.052   6.835   6.371 -0.0681  0.0852  0.5664
  277MOL0    Cl37304   8.110   7.008   6.331  0.3256  0.1799 -0.0227
  277MOL0     C37305   7.107   6.427   6.469  0.2037  0.9380  0.3324
  277MOL0     C37306   6.983   6.371   6.439  0.8369 -0.1553 -0.0860
  277MOL0     O37307   6.696   6.375   6.369  0.0420 -0.4321  0.2811
  277MOL0     C37308   6.642   6.050   6.242  0.5448  0.4029  0.6475
  277MOL0     C37309   6.531   5.973   6.188 -0.3718 -0.0334 -0.3856
  277MOL0     N37310   5.951   5.783   6.609 -0.6583 -0.4228 -0.4834
  277MOL0     N37311   5.826   5.793   6.605 -0.3461 -0.3640 -1.5873
  277MOL0     C37312   4.612   5.366   6.607 -0.1479 -0.0525 -0.0995
  277MOL0     C37313   4.486   5.343   6.548 -0.9550  0.1702 -0.0198
  277MOL0     C37314   4.074   5.128   6.458  1.2949 -0.4471 -0.2452
  277MOL0     C37315   4.025   5.256   6.433 -1.0128 -0.6514 -1.1247
  277MOL0     C37316   3.899   5.278   6.380  0.6248  1.1066  0.4822
  277MOL0     C37317   3.813   5.172   6.356  0.6092 -0.6711 -0.1993
  277MOL0     O37318   3.687   5.186   6.311 -0.2880  0.8599  0.2177
  277MOL0     C37319   3.649   5.296   6.226  0.3074 -0.2694 -0.4032
  277MOL0     C37320   3.525   5.266   6.140  1.0460 -0.6619 -0.7848
  277MOL0     C37321   3.397   5.282   6.230 -0.4237  0.3685  0.9346
  277MOL0     C37322   3.268   5.286   6.142  0.5607 -0.3779  0.2581
  277MOL0     C37323   3.236   5.424   6.104  0.1175  0.3648  0.2594
  277MOL0     C37324   3.195   5.535   6.081  0.0353  0.4660  0.0415
  277MOL0     C37325   3.862   5.044   6.378 -0.0563 -0.1168 -0.1351
  277MOL0     C37326   3.992   5.026   6.424  0.4047  0.1040  0.2336
  277MOL0     C37327   4.037   4.881   6.439 -0.5129  0.3467  0.1727
  277MOL0     H37328   4.447   5.018   6.659  2.0309 -0.8938  1.0922
  277MOL0     H37329   4.648   5.079   6.781  2.2161 -1.6600 -1.9485
  277MOL0     H37330   4.869   5.391   6.569  0.5184 -2.3986 -1.2878
  277MOL0     H37331   4.889   5.478   6.732 -0.3882 -2.2808  3.8388
  277MOL0     H37332   5.056   5.250   6.631 -0.3088 -0.3172  1.2835
  277MOL0     H37333   5.072   5.310   6.789 -3.4661  0.1086  1.3395
  277MOL0     H37334   5.118   5.540   6.726  2.8139  0.8880 -0.2917
  277MOL0     H37335   5.103   5.504   6.550 -1.6100 -1.9034 -0.4434
  277MOL0     H37336   5.282   5.361   6.743  0.6405 -2.0314 -0.9572
  277MOL0     H37337   5.274   5.355   6.560 -2.8408 -0.4820  0.0825
  277MOL0     H37338   5.338   5.599   6.554 -2.4066 -0.0803  1.6311
  277MOL0     H37339   5.372   5.592   6.726  1.2793 -1.0929  1.4979
  277MOL0     H37340   5.508   5.373   6.657 -0.6233 -0.1144  0.3794
  277MOL0     H37341   5.510   5.445   6.492  0.4701  1.2579 -0.3094
  277MOL0     H37342   5.712   5.502   6.635  0.0564  0.1239  0.6363
  277MOL0     H37343   5.615   5.608   6.728  3.3046  0.3703  0.1738
  277MOL0     H37344   5.599   5.633   6.421  0.0954  1.9188 -0.7328
  277MOL0     H37345   5.572   5.752   6.540  1.7098  0.6221  1.1817
  277MOL0     H37346   5.872   5.584   6.356 -2.6820 -0.8391  0.2287
  277MOL0     H37347   6.195   5.728   6.542 -1.9561 -2.3143  4.1967
  277MOL0     H37348   6.147   5.575   6.464 -1.3885 -0.5025  1.9735
  277MOL0     H37349   6.264   5.701   6.301 -0.5136 -1.0321  1.8174
  277MOL0     H37350   6.102   5.676   6.249  0.0651 -0.0372 -0.2539
  277MOL0     H37351   6.200   5.946   6.369 -0.8521  1.8274 -0.3910
  277MOL0     H37352   6.035   5.912   6.323  0.1813  2.5481 -3.4966
  277MOL0     H37353   6.145   6.037   6.144  1.7982 -0.2611 -1.9651
  277MOL0     H37354   6.119   5.863   6.101 -3.0725 -1.7216  3.6977
  277MOL0     H37355   6.265   6.174   6.285 -1.2319 -1.5193  0.0565
  277MOL0     H37356   6.454   6.310   6.352  0.7736 -0.1381  0.8319
  277MOL0     H37357   7.064   6.202   6.156 -0.8722  3.0121 -0.9157
  277MOL0     H37358   7.277   6.296   6.210 -1.8146 -0.6714 -2.5975
  277MOL0     H37359   7.308   6.478   6.628  0.6557 -0.6357  1.0004
  277MOL0     H37360   7.395   6.331   6.588 -0.3517  0.0604 -0.4244
  277MOL0     H37361   7.556   6.458   6.659 -1.0366 -0.1015  0.2582
  277MOL0     H37362   7.576   6.438   6.489 -0.4575 -0.1736 -0.6203
  277MOL0     H37363   7.459   6.676   6.460 -0.9337 -1.5910 -0.8216
  277MOL0     H37364   7.496   6.702   6.631  4.0411  0.7172  0.5865
  277MOL0     H37365   7.642   6.793   6.465  1.5272  0.6450  1.1160
  277MOL0     H37366   7.674   6.639   6.397 -0.9067  2.6809 -1.1890
  277MOL0     H37367   7.768   6.554   6.609  0.3454  0.1238  2.5695
  277MOL0     H37368   7.759   6.722   6.675  0.5074 -1.0431  1.5160
  277MOL0     H37369   7.990   6.658   6.581  1.9599  3.0379  0.6988
  277MOL0     H37370   7.914   6.622   6.427  2.3015  0.5477  0.5709
  277MOL0     H37371   7.953   6.891   6.553 -1.3250  0.4232  0.3446
  277MOL0     H37372   7.844   6.868   6.412  0.0173 -2.4490 -0.3557
  277MOL0     H37373   8.134   6.788   6.426  0.7222 -0.4952 -1.0368
  277MOL0     H37374   8.030   6.778   6.280  1.7894  2.4415 -1.5043
  277MOL0     H37375   7.109   6.481   6.563  0.1891  1.7165 -0.1018
  277MOL0     H37376   6.907   6.411   6.505  0.8392 -1.4000  0.7087
  277MOL0     H37377   6.741   6.006   6.238  0.1910 -0.3622  0.1785
  277MOL0     H37378   6.542   5.872   6.150 -0.4252 -1.2912  2.6227
  277MOL0     H37379   4.654   5.465   6.597  0.9988 -0.6741 -2.2638
  277MOL0     H37380   4.437   5.419   6.489 -0.2405  0.7210  0.0899
  277MOL0     H37381   4.087   5.344   6.448  0.0110 -1.5757  0.3283
  277MOL0     H37382   3.867   5.380   6.360  2.1907  2.0222  2.3300
  277MOL0     H37383   3.721   5.303   6.145  0.0094  0.4475 -0.6158
  277MOL0     H37384   3.657   5.391   6.279  0.6382  0.1700 -1.2319
  277MOL0     H37385   3.533   5.165   6.099  0.3871  0.0190 -2.7325
  277MOL0     H37386   3.514   5.342   6.062  0.7717  0.6603  0.5191
  277MOL0     H37387   3.416   5.373   6.288 -2.9308  2.3463 -1.0908
  277MOL0     H37388   3.397   5.192   6.293 -1.3859 -0.8159 -0.6773
  277MOL0     H37389   3.284   5.216   6.060  0.9119  0.7101 -0.6295
  277MOL0     H37390   3.186   5.253   6.207 -0.6537 -0.0443 -1.0666
  277MOL0     H37391   3.153   5.631   6.058 -0.8475 -0.0441 -0.5402
  277MOL0     H37392   3.791   4.967   6.350 -2.9070  2.7900 -1.6126
  277MOL0     H37393   3.962   4.813   6.398 -2.4733  1.6121  1.5144
  277MOL0     H37394   4.121   4.868   6.369 -1.1742 -1.1045 -0.3855
  277MOL0     H37395   4.039   4.855   6.545 -1.1564  0.4116  0.2032
  278MOL0     O37396  11.188   2.304   0.608  0.3107  0.2391 -0.2598
  278MOL0     C37397  11.122   2.398   0.565 -0.0683 -1.0808 -0.4297
  278MOL0     O37398  11.173   2.516   0.527  0.4204 -0.3191 -0.0365
  278MOL0     C37399  11.303   2.545   0.535 -0.1811  0.5364 -0.1796
  278MOL0     C37400  11.387   2.505   0.641  0.3977 -0.0443  0.0841
  278MOL0     C37401  11.517   2.548   0.661 -0.3389  0.8223 -0.2483
  278MOL0     C37402  11.575   2.633   0.571  0.2248 -1.1410 -0.4521
  278MOL0     O37403  11.695   2.696   0.584 -0.0527  0.3386 -0.2553
  278MOL0     C37404  11.809   2.631   0.650  0.0448 -1.0849  0.5868
  278MOL0     C37405  11.908   2.743   0.680 -0.0778  0.7003  0.2660
  278MOL0     C37406  11.951   2.824   0.557 -0.2347  0.3254 -0.7891
  278MOL0     C37407  11.935   2.974   0.584 -0.1652 -0.3271  0.4853
  278MOL0     C37408  12.067   3.050   0.621  0.0685  0.4297 -0.6427
  278MOL0     C37409  12.191   3.026   0.528  0.0829  0.1496 -0.0168
  278MOL0     C37410  12.298   3.126   0.569  0.2042 -0.2687 -0.3008
  278MOL0     C37411  12.410   3.138   0.475  0.9893  0.0955  0.2908
  278MOL0     N37412  12.394   3.247   0.379 -0.1839  0.1310  0.1947
  278MOL0     C37413  12.394   3.377   0.422 -0.3302  0.3933  0.3296
  278MOL0     C37414  12.382   3.445   0.309 -0.1107 -0.4056 -0.8828
  278MOL0     C37415  12.379   3.593   0.322 -0.3100  0.0069 -0.0466
  278MOL0     C37416  12.514   3.672   0.303  0.7776 -0.4117  0.1935
  278MOL0     C37417  12.606   3.688   0.429 -0.5596 -0.8363  0.3297
  278MOL0     C37418  12.743   3.744   0.382  0.1213 -1.1480  0.1658
  278MOL0     O37419  12.818   3.757   0.501  0.0867  0.4945  0.3830
  278MOL0     C37420  12.941   3.818   0.515 -1.0920  0.0783 -0.3164
  278MOL0     C37421  13.012   3.873   0.403  0.5016 -0.4886 -0.7291
  278MOL0     C37422  13.134   3.929   0.433  0.1122 -0.9128 -0.4345
  278MOL0     C37423  13.195   3.930   0.563  0.9051 -0.5838 -0.5690
  278MOL0     C37424  13.324   4.003   0.589  0.5796  0.6578 -0.8313
  278MOL0     O37425  13.338   4.062   0.712 -0.0023 -0.2871 -0.2642
  278MOL0     C37426  13.426   4.168   0.722  0.0028 -0.0140 -0.5461
  278MOL0     C37427  13.530   4.175   0.821  1.2194 -0.7863  0.2223
  278MOL0     C37428  13.636   4.268   0.808 -0.6280 -0.8084  0.1931
  278MOL0     C37429  13.621   4.374   0.713 -0.2843  0.0509 -0.4208
  278MOL0     O37430  13.717   4.469   0.684 -0.1048 -0.3521 -0.9259
  278MOL0     C37431  13.812   4.489   0.787  0.5143 -0.0351 -0.3608
  278MOL0     C37432  13.883   4.623   0.773 -0.0784  0.0242  0.3470
  278MOL0     C37433  13.987   4.638   0.881 -0.3771 -0.2525 -0.0751
  278MOL0     C37434  13.965   4.771   0.960  0.3484  0.4711 -0.1459
  278MOL0     C37435  14.072   4.799   1.068 -0.2661 -0.1659 -0.0496
  278MOL0     C37436  14.056   4.954   1.100  0.0252  0.3558 -1.0061
  278MOL0     C37437  14.189   5.010   1.156 -0.4243  0.0306 -0.8056
  278MOL0     C37438  14.177   5.167   1.183 -0.2775  0.9068 -0.7718
  278MOL0    Cl37439  14.320   5.217   1.265 -0.1940 -0.0753 -0.0348
  278MOL0     C37440  13.515   4.365   0.621 -0.0225  0.0915  0.6050
  278MOL0     C37441  13.429   4.266   0.629  0.6194  0.6285 -0.2387
  278MOL0     O37442  13.403   4.007   0.492 -1.0524 -0.5059  0.0990
  278MOL0     C37443  13.118   3.874   0.673  0.5042  0.4506  0.9339
  278MOL0     C37444  13.000   3.807   0.645 -0.1845 -0.2011  0.0159
  278MOL0     N37445  12.349   3.361   0.206 -0.2125  0.1372 -0.1255
  278MOL0     N37446  12.363   3.237   0.248 -0.2241  0.3812  0.5310
  278MOL0     C37447  11.501   2.662   0.446  0.2475  0.1062 -0.7385
  278MOL0     C37448  11.364   2.614   0.434 -1.0345  0.1245  0.6056
  278MOL0     C37449  10.977   2.372   0.572  0.5887  0.1441 -0.6240
  278MOL0     C37450  10.910   2.331   0.460  0.0980  0.1521  0.1693
  278MOL0     C37451  10.775   2.313   0.456 -0.4509 -0.4313 -0.0256
  278MOL0     C37452  10.691   2.341   0.560 -0.3222  0.6570 -0.1934
  278MOL0     O37453  10.561   2.317   0.553 -0.2784  0.6012  0.0265
  278MOL0     C37454  10.475   2.373   0.653  1.0661  0.1101 -0.3343
  278MOL0     C37455  10.327   2.377   0.610 -0.1901 -0.6153  0.4648
  278MOL0     C37456  10.304   2.510   0.542 -0.4470  0.3528 -0.0416
  278MOL0     C37457  10.154   2.544   0.533  0.0257 -0.5919 -0.0409
  278MOL0     C37458  10.081   2.473   0.432 -0.2550 -0.8505  1.0502
  278MOL0     C37459  10.043   2.409   0.335  0.1758  0.1750  0.0710
  278MOL0     C37460  10.758   2.386   0.684 -0.7365 -0.0282  0.2179
  278MOL0     C37461  10.896   2.411   0.684  0.6957  0.2219  0.2673
  278MOL0     C37462  10.955   2.469   0.812  1.4158  0.0091  0.5609
  278MOL0     H37463  11.354   2.448   0.727  1.2586  1.0564  1.1613
  278MOL0     H37464  11.563   2.540   0.759  0.8058  1.6963 -0.6865
  278MOL0     H37465  11.774   2.590   0.745  0.4682 -0.5800  0.9638
  278MOL0     H37466  11.859   2.565   0.579 -1.9787  1.2082 -3.3625
  278MOL0     H37467  11.995   2.701   0.731 -1.3795 -1.8915  0.5138
  278MOL0     H37468  11.850   2.804   0.750 -0.9930  0.6186 -0.4094
  278MOL0     H37469  11.895   2.792   0.469 -0.5913 -1.3394 -0.0026
  278MOL0     H37470  12.056   2.796   0.544 -0.4753 -0.9907 -0.0567
  278MOL0     H37471  11.904   3.013   0.487 -2.7153 -0.2050  1.2947
  278MOL0     H37472  11.850   2.984   0.651 -1.4956 -2.7777 -0.6843
  278MOL0     H37473  12.051   3.157   0.636  0.4669  0.1918  2.0642
  278MOL0     H37474  12.094   3.020   0.723 -0.1557  2.8045  0.1809
  278MOL0     H37475  12.234   2.926   0.537 -1.7249 -0.9289 -2.3672
  278MOL0     H37476  12.170   3.055   0.425  2.3469  1.3483 -0.2048
  278MOL0     H37477  12.329   3.077   0.661  2.3251 -1.1181 -1.3971
  278MOL0     H37478  12.263   3.229   0.583  0.5253  0.0157 -1.4815
  278MOL0     H37479  12.503   3.156   0.531  0.4311  0.0894  1.2454
  278MOL0     H37480  12.426   3.045   0.420  0.0174 -0.3376  0.7204
  278MOL0     H37481  12.426   3.408   0.521 -1.3913 -3.4165  2.0308
  278MOL0     H37482  12.298   3.628   0.257 -1.3476 -1.4514  0.4021
  278MOL0     H37483  12.340   3.625   0.419 -2.7499 -1.3279 -0.4944
  278MOL0     H37484  12.571   3.628   0.220  0.0597 -1.3501  0.1816
  278MOL0     H37485  12.477   3.773   0.283  2.7778  0.1756 -0.8303
  278MOL0     H37486  12.636   3.591   0.471 -0.4504 -0.6566  0.6689
  278MOL0     H37487  12.559   3.752   0.504  0.3919  1.5690 -1.0387
  278MOL0     H37488  12.733   3.837   0.324 -0.7567 -1.5857 -0.4054
  278MOL0     H37489  12.793   3.677   0.312  0.7775  1.1014 -1.6573
  278MOL0     H37490  12.984   3.873   0.298  1.6695 -3.8897 -1.1912
  278MOL0     H37491  13.186   3.981   0.353  0.0761  0.6084  0.4914
  278MOL0     H37492  13.544   4.093   0.892 -1.0488 -2.1815 -0.8336
  278MOL0     H37493  13.725   4.250   0.868 -0.4537 -0.7408 -0.0447
  278MOL0     H37494  13.767   4.491   0.886 -0.0782  3.1078 -0.6012
  278MOL0     H37495  13.894   4.416   0.781 -1.4527 -2.3712 -0.5059
  278MOL0     H37496  13.923   4.623   0.672 -0.7630  0.1124  0.0661
  278MOL0     H37497  13.805   4.700   0.773 -1.7187 -1.5005 -1.7485
  278MOL0     H37498  13.985   4.551   0.947 -1.2442 -0.2047 -0.0284
  278MOL0     H37499  14.081   4.646   0.826 -2.0817  0.4595 -3.1856
  278MOL0     H37500  13.866   4.760   1.005  0.2719  0.3172 -0.3498
  278MOL0     H37501  13.951   4.858   0.895 -1.5405 -0.5520 -1.1966
  278MOL0     H37502  14.173   4.779   1.029  1.3498  3.3689  1.8072
  278MOL0     H37503  14.064   4.730   1.153  0.1303 -1.1733 -0.8088
  278MOL0     H37504  14.020   5.015   1.017 -2.2371  0.2121 -0.1825
  278MOL0     H37505  13.992   4.964   1.188  3.8260  3.1233  1.7838
  278MOL0     H37506  14.273   4.993   1.088 -0.6644 -0.8237 -0.8971
  278MOL0     H37507  14.211   4.968   1.254 -0.6038  2.4164  0.3285
  278MOL0     H37508  14.153   5.229   1.096  0.1342  1.5102 -0.4604
  278MOL0     H37509  14.094   5.180   1.253 -0.8442 -0.6158 -1.1047
  278MOL0     H37510  13.512   4.430   0.535  0.2607  0.3277  0.7729
  278MOL0     H37511  13.354   4.260   0.552 -1.4118 -0.8850  1.7162
  278MOL0     H37512  13.171   3.868   0.768  1.2221 -0.2266  0.5083
  278MOL0     H37513  12.949   3.766   0.732 -1.9145  2.3489  0.3058
  278MOL0     H37514  11.555   2.727   0.378  3.1533 -0.1001  1.1960
  278MOL0     H37515  11.306   2.635   0.344 -0.1392  2.0771  0.4286
  278MOL0     H37516  10.958   2.304   0.366  0.3243  0.5425  0.1700
  278MOL0     H37517  10.733   2.278   0.362  0.5133 -2.6131  0.2869
  278MOL0     H37518  10.498   2.476   0.681 -1.6273  0.3506  1.3598
  278MOL0     H37519  10.485   2.316   0.746 -2.7778 -1.0045 -0.4003
  278MOL0     H37520  10.258   2.372   0.694 -1.1514 -3.9763 -0.3827
  278MOL0     H37521  10.299   2.302   0.536  1.1231  1.8400 -2.7801
  278MOL0     H37522  10.362   2.517   0.449  2.1054  2.3625  1.5609
  278MOL0     H37523  10.352   2.589   0.601  3.7624 -2.9835  1.4712
  278MOL0     H37524  10.093   2.547   0.624 -2.2088  1.1470 -1.4825
  278MOL0     H37525  10.151   2.647   0.496 -0.3936  0.2580  2.1726
  278MOL0     H37526  10.023   2.355   0.244 -1.1471  0.3873  0.2123
  278MOL0     H37527  10.695   2.407   0.770 -1.3431 -0.8377 -0.0141
  278MOL0     H37528  11.063   2.474   0.826  1.2466 -0.6704  2.5032
  278MOL0     H37529  10.923   2.574   0.811 -0.1406 -0.4260 -0.8407
  278MOL0     H37530  10.911   2.407   0.891  1.4556 -0.1865  0.4318
  279MOL0     O37531   3.773   8.061   0.779  0.8147 -0.2533  0.7330
  279MOL0     C37532   3.702   7.988   0.714 -0.8931  0.3243 -0.2446
  279MOL0     O37533   3.737   7.952   0.583  0.0135  0.9001 -0.4367
  279MOL0     C37534   3.870   7.965   0.535 -0.1249 -0.0418 -0.2265
  279MOL0     C37535   3.884   7.983   0.396 -0.3909 -0.0469  0.9992
  279MOL0     C37536   4.009   8.000   0.330  0.0205  0.4699 -0.5005
  279MOL0     C37537   4.121   7.982   0.414  0.3074 -0.5405  0.6102
  279MOL0     O37538   4.240   8.012   0.357 -0.0656  0.9414  0.0043
  279MOL0     C37539   4.355   7.980   0.441 -0.1341  0.3026 -0.7333
  279MOL0     C37540   4.483   8.016   0.372  0.0108  0.2663  0.7945
  279MOL0     C37541   4.606   8.017   0.465  0.3090  0.5134  0.5538
  279MOL0     C37542   4.732   8.006   0.374 -0.3147  0.7114  0.3176
  279MOL0     C37543   4.781   8.136   0.326 -0.7337 -0.7387  0.2057
  279MOL0     C37544   4.908   8.105   0.235 -0.3910  0.3146 -0.2367
  279MOL0     C37545   5.046   8.088   0.312  0.5482  0.5233  0.7680
  279MOL0     C37546   5.090   8.226   0.364 -0.0834  0.0171  0.6360
  279MOL0     N37547   5.219   8.202   0.433 -0.0628  0.1454 -0.3188
  279MOL0     C37548   5.343   8.204   0.366  0.2919 -0.0961 -0.6060
  279MOL0     C37549   5.432   8.184   0.470 -0.3393 -0.8756  0.5469
  279MOL0     C37550   5.584   8.156   0.451  0.4721  0.1451 -0.3157
  279MOL0     C37551   5.611   8.041   0.359 -0.0236 -0.1661 -0.2432
  279MOL0     C37552   5.578   7.908   0.433  0.2853 -0.6863  0.5037
  279MOL0     C37553   5.654   7.794   0.370 -0.2357 -0.5860 -1.0502
  279MOL0     O37554   5.794   7.821   0.380 -0.8517  0.5241  0.8434
  279MOL0     C37555   5.882   7.713   0.354 -0.1912 -0.3992 -0.2041
  279MOL0     C37556   5.853   7.581   0.322 -0.2206 -0.4905 -0.2315
  279MOL0     C37557   5.952   7.491   0.294  0.5321 -0.9269 -0.4048
  279MOL0     C37558   6.088   7.523   0.310 -0.3258  0.0641 -0.3198
  279MOL0     C37559   6.193   7.420   0.283 -0.7166  0.1897  0.2776
  279MOL0     O37560   6.321   7.466   0.299  0.2927 -0.1056  0.1772
  279MOL0     C37561   6.429   7.382   0.325 -0.5288  0.9298 -0.0776
  279MOL0     C37562   6.419   7.277   0.417  0.8344  0.0125  0.5225
  279MOL0     C37563   6.532   7.197   0.440  0.4955  0.4480 -0.7709
  279MOL0     C37564   6.654   7.225   0.376  0.0419 -0.5347 -1.3378
  279MOL0     O37565   6.758   7.146   0.417  0.1047  0.7818  0.2082
  279MOL0     C37566   6.895   7.164   0.369 -0.6561  0.5189  0.5575
  279MOL0     C37567   6.973   7.042   0.421 -0.3434 -0.2051 -0.3984
  279MOL0     C37568   7.126   7.064   0.422  0.7615  0.2670  0.1885
  279MOL0     C37569   7.208   6.937   0.439  0.2312 -0.7327 -0.1192
  279MOL0     C37570   7.359   6.966   0.431 -0.3912  0.0160  0.4062
  279MOL0     C37571   7.429   7.044   0.535  0.0724  0.0121  0.3264
  279MOL0     C37572   7.576   7.046   0.521 -0.7061  0.0024 -0.1366
  279MOL0     C37573   7.652   7.155   0.606 -0.4493  0.0134  0.2139
  279MOL0    Cl37574   7.826   7.129   0.599  0.0848  0.4574  0.0775
  279MOL0     C37575   6.662   7.329   0.279  0.4496 -0.3360 -0.4019
  279MOL0     C37576   6.548   7.396   0.248 -0.1452 -0.3444  0.4639
  279MOL0     O37577   6.160   7.305   0.253  0.1234 -0.0932 -0.6372
  279MOL0     C37578   6.126   7.653   0.342  0.6579  0.1772 -0.2935
  279MOL0     C37579   6.023   7.743   0.360  0.4292 -0.3809  0.1419
  279MOL0     N37580   5.368   8.191   0.587  0.8611 -0.1005 -0.2808
  279MOL0     N37581   5.240   8.189   0.567  0.2537 -0.3661  0.8653
  279MOL0     C37582   4.108   7.968   0.553  0.2411  0.2896  0.2501
  279MOL0     C37583   3.983   7.952   0.614  0.0548 -0.2869  0.7827
  279MOL0     C37584   3.581   7.944   0.778 -0.0457  0.2968 -0.7933
  279MOL0     C37585   3.466   7.987   0.721 -0.8373  0.1520 -0.0197
  279MOL0     C37586   3.344   7.958   0.775 -0.0914  0.1735  0.2988
  279MOL0     C37587   3.330   7.881   0.893  0.1408  0.0140  1.0375
  279MOL0     O37588   3.216   7.852   0.953  0.0311  0.3148  0.0064
  279MOL0     C37589   3.101   7.841   0.863 -0.1656  0.1044 -0.2494
  279MOL0     C37590   2.974   7.775   0.918  0.0858  0.6105 -0.0309
  279MOL0     C37591   2.923   7.855   1.045  0.8375  0.5393 -0.0645
  279MOL0     C37592   2.810   7.781   1.127 -0.5699  0.5029  0.7519
  279MOL0     C37593   2.675   7.814   1.079 -0.8641 -0.0098 -0.7912
  279MOL0     C37594   2.562   7.829   1.055 -0.1778 -0.3340  0.7207
  279MOL0     C37595   3.450   7.826   0.942 -0.1611 -0.4575 -0.2239
  279MOL0     C37596   3.575   7.870   0.894  0.2669  0.6508 -0.0483
  279MOL0     C37597   3.696   7.832   0.974 -0.5835  0.7283 -0.3292
  279MOL0     H37598   3.789   7.998   0.345 -0.4912  1.6620  1.6318
  279MOL0     H37599   4.010   8.023   0.225  1.2309 -1.4511 -0.9591
  279MOL0     H37600   4.352   8.048   0.527 -1.0484 -0.1698 -0.3783
  279MOL0     H37601   4.353   7.876   0.475 -1.4555  0.0167 -1.6334
  279MOL0     H37602   4.483   8.116   0.326  0.7460  0.7493  1.8148
  279MOL0     H37603   4.490   7.949   0.285 -0.1244  0.7568  0.4007
  279MOL0     H37604   4.618   7.937   0.539  1.5163  0.4393  0.3066
  279MOL0     H37605   4.620   8.104   0.530  2.0976 -1.0848  2.4655
  279MOL0     H37606   4.817   7.960   0.426  0.4121 -0.2076 -1.5936
  279MOL0     H37607   4.707   7.940   0.290  1.1685  0.1530  0.2947
  279MOL0     H37608   4.706   8.192   0.269 -0.0734  0.7827  0.7481
  279MOL0     H37609   4.810   8.208   0.404 -0.4517 -1.3558  0.6789
  279MOL0     H37610   4.890   8.019   0.170  2.7137 -0.5317 -0.1159
  279MOL0     H37611   4.926   8.184   0.162  0.7433 -0.7522 -1.1583
  279MOL0     H37612   5.117   8.027   0.256  0.3069  0.0675  0.9447
  279MOL0     H37613   5.018   8.035   0.404 -1.1210 -0.1815 -0.0898
  279MOL0     H37614   5.107   8.303   0.288 -1.1695  1.0006  1.3502
  279MOL0     H37615   5.018   8.271   0.433 -0.0167  0.7971  0.2063
  279MOL0     H37616   5.368   8.206   0.260  1.9900 -0.4463 -0.2381
  279MOL0     H37617   5.628   8.245   0.405  0.6560  0.7207  0.9192
  279MOL0     H37618   5.640   8.150   0.545  0.0205  1.8517  0.0956
  279MOL0     H37619   5.560   8.042   0.263  1.1719  0.7925 -0.8893
  279MOL0     H37620   5.717   8.048   0.333 -0.2779  0.4991 -1.1189
  279MOL0     H37621   5.472   7.885   0.451 -0.1431  0.5662 -0.2769
  279MOL0     H37622   5.628   7.916   0.530  3.2472  0.5298 -1.0090
  279MOL0     H37623   5.624   7.778   0.266 -0.9735  0.4582 -1.0140
  279MOL0     H37624   5.633   7.705   0.430  0.1168 -1.0326 -1.5682
  279MOL0     H37625   5.752   7.546   0.305  0.1939 -2.3689  0.9160
  279MOL0     H37626   5.925   7.389   0.267 -3.7605 -0.6960  2.0269
  279MOL0     H37627   6.327   7.266   0.474  1.5816 -0.7027  1.6122
  279MOL0     H37628   6.543   7.117   0.513  2.2087  1.1176 -0.2463
  279MOL0     H37629   6.907   7.168   0.260 -0.7112  0.2425  0.5408
  279MOL0     H37630   6.935   7.258   0.407  0.5171 -0.3527  1.5420
  279MOL0     H37631   6.957   7.009   0.524  0.2101 -1.3669 -0.6695
  279MOL0     H37632   6.942   6.958   0.358  0.9443  0.0028 -1.3447
  279MOL0     H37633   7.154   7.103   0.324  2.3316 -1.4767 -0.1097
  279MOL0     H37634   7.152   7.134   0.503 -4.3527  2.6877  0.1222
  279MOL0     H37635   7.177   6.868   0.360  0.0155  3.7342 -4.4465
  279MOL0     H37636   7.186   6.899   0.539 -0.3293  1.0067  0.4599
  279MOL0     H37637   7.389   7.009   0.335  3.2202 -1.5621  0.6791
  279MOL0     H37638   7.406   6.868   0.424 -0.3150 -0.0568  1.6898
  279MOL0     H37639   7.397   7.147   0.523  2.6028  1.1525  2.3066
  279MOL0     H37640   7.407   7.016   0.639  3.3180 -1.9936  0.6329
  279MOL0     H37641   7.602   7.053   0.415 -1.4616 -0.9221 -0.3928
  279MOL0     H37642   7.616   6.950   0.554  0.2227 -0.5976 -2.7778
  279MOL0     H37643   7.614   7.255   0.582 -2.6754 -0.6832  0.6297
  279MOL0     H37644   7.615   7.139   0.708 -1.2625 -0.7636 -0.1789
  279MOL0     H37645   6.761   7.340   0.237  0.6819  0.9499  0.4073
  279MOL0     H37646   6.562   7.471   0.171  0.0131 -0.6610  0.1882
  279MOL0     H37647   6.226   7.695   0.343 -0.3543  2.9317  2.7148
  279MOL0     H37648   6.050   7.848   0.370 -0.6572  0.2253 -2.3932
  279MOL0     H37649   4.192   7.949   0.619 -0.8904 -2.0065  1.1483
  279MOL0     H37650   3.985   7.936   0.722  0.0525 -1.2630  0.6522
  279MOL0     H37651   3.461   8.051   0.634 -1.4438  2.6543  1.7204
  279MOL0     H37652   3.257   7.991   0.720 -1.1467  0.4246  2.0359
  279MOL0     H37653   3.122   7.778   0.776 -2.3563  2.5420 -2.7423
  279MOL0     H37654   3.088   7.944   0.829  1.8535  0.4368 -0.1221
  279MOL0     H37655   3.008   7.676   0.948  1.4701  0.8038 -0.8871
  279MOL0     H37656   2.895   7.763   0.843 -0.0599  0.3530  0.1635
  279MOL0     H37657   2.894   7.955   1.011  2.6222  0.1905 -3.0190
  279MOL0     H37658   3.008   7.865   1.114  2.2105  0.3951 -1.6697
  279MOL0     H37659   2.828   7.674   1.126 -2.4029  0.1423  1.2832
  279MOL0     H37660   2.814   7.808   1.233 -0.4235  2.1329  0.3668
  279MOL0     H37661   2.461   7.864   1.043 -0.1830 -0.8290 -0.8660
  279MOL0     H37662   3.442   7.769   1.033 -1.3792  1.2204  0.7888
  279MOL0     H37663   3.692   7.732   1.018  0.2064  1.0914  0.5994
  279MOL0     H37664   3.790   7.846   0.919  0.7169 -2.3263  0.8686
  279MOL0     H37665   3.698   7.894   1.064 -0.6800  1.6122 -0.9245
  280MOL0     O37666   5.601   4.198   0.126  0.2602 -0.0667 -0.0454
  280MOL0     C37667   5.513   4.121   0.173 -0.7979 -0.0788  0.3992
  280MOL0     O37668   5.515   4.066   0.295  0.8053  0.3884 -0.3684
  280MOL0     C37669   5.615   4.099   0.381 -0.4997 -0.3113 -0.2484
  280MOL0     C37670   5.614   4.221   0.453  1.2250  0.2193 -0.5045
  280MOL0     C37671   5.731   4.241   0.531  0.5836  0.0340  0.4252
  280MOL0     C37672   5.836   4.148   0.552 -0.2327 -0.1692  0.4902
  280MOL0     O37673   5.934   4.192   0.637  0.2404 -0.3110 -0.5513
  280MOL0     C37674   6.039   4.092   0.665 -0.2401  0.3932  0.5173
  280MOL0     C37675   6.145   4.160   0.752 -0.1350  0.8558 -0.2767
  280MOL0     C37676   6.252   4.063   0.788  0.0924  0.1265 -0.7501
  280MOL0     C37677   6.364   4.073   0.692  0.0899 -0.5361 -0.1927
  280MOL0     C37678   6.472   3.965   0.733  0.1570 -0.5285  0.4006
  280MOL0     C37679   6.555   4.021   0.850  0.2402 -0.0261 -0.7011
  280MOL0     C37680   6.650   3.912   0.896 -0.9171  1.2466  0.4875
  280MOL0     C37681   6.765   3.896   0.788  0.8976 -0.7508 -0.6414
  280MOL0     N37682   6.863   3.803   0.846 -0.6453 -0.0224 -0.4392
  280MOL0     C37683   7.002   3.812   0.838 -0.5518 -0.5121  0.2592
  280MOL0     C37684   7.046   3.698   0.899 -0.1313  0.1329  0.2552
  280MOL0     C37685   7.193   3.660   0.916  0.4788  0.2103 -0.3401
  280MOL0     C37686   7.238   3.572   0.804 -0.1689  0.3026 -0.1793
  280MOL0     C37687   7.370   3.503   0.847 -0.0409  0.1823 -0.3812
  280MOL0     C37688   7.484   3.601   0.834 -0.3748  0.4455  0.5073
  280MOL0     O37689   7.608   3.515   0.831 -0.1322 -0.2884  0.5913
  280MOL0     C37690   7.723   3.570   0.770  1.4274  0.6476  1.2020
  280MOL0     C37691   7.836   3.484   0.769  1.2981  0.6062  0.4678
  280MOL0     C37692   7.953   3.528   0.702 -0.5104 -0.3078 -0.2892
  280MOL0     C37693   7.965   3.662   0.649  0.3980  0.0479  0.3728
  280MOL0     C37694   8.094   3.712   0.598  1.5554 -0.2099  1.0340
  280MOL0     O37695   8.100   3.838   0.546 -0.0883 -0.1370  0.2848
  280MOL0     C37696   8.222   3.872   0.490  0.0732 -0.0720  0.3185
  280MOL0     C37697   8.266   3.817   0.371  0.4734  0.8485 -0.9508
  280MOL0     C37698   8.386   3.858   0.317 -0.6114  0.7575 -0.4811
  280MOL0     C37699   8.460   3.972   0.368 -0.1000  0.8133 -0.6051
  280MOL0     O37700   8.583   3.999   0.310  0.5282 -0.2308 -0.0978
  280MOL0     C37701   8.584   4.061   0.181  0.4245  0.3320  0.1109
  280MOL0     C37702   8.734   4.097   0.156  0.1936 -0.5627 -0.8749
  280MOL0     C37703   8.808   3.966   0.135 -0.9572  0.2031 -1.3137
  280MOL0     C37704   8.947   3.991   0.072  0.0021 -0.9054  0.6382
  280MOL0     C37705   9.029   3.868   0.055  0.3434 -0.2935 -1.1553
  280MOL0     C37706   9.163   3.909  -0.002 -0.0622 -0.5916 -0.6338
  280MOL0     C37707   9.256   3.796  -0.032  0.0581 -0.0707 -0.3785
  280MOL0     C37708   9.224   3.693  -0.146 -0.3062  0.2911 -0.3534
  280MOL0    Cl37709   9.360   3.575  -0.147  0.1967  0.0972  0.2407
  280MOL0     C37710   8.411   4.022   0.485 -0.4199 -0.1108 -0.8991
  280MOL0     C37711   8.296   3.981   0.543 -0.2147  0.4271 -0.8820
  280MOL0     O37712   8.189   3.631   0.603  0.6365  0.4171  0.0240
  280MOL0     C37713   7.849   3.747   0.665  0.1823  0.5649  0.4874
  280MOL0     C37714   7.729   3.694   0.715  0.4300 -0.6651  0.6461
  280MOL0     N37715   6.940   3.630   0.951  0.3529 -0.6589 -0.0217
  280MOL0     N37716   6.830   3.701   0.926 -0.3457  0.1010 -0.1717
  280MOL0     C37717   5.824   4.020   0.488 -0.5215 -0.3654  0.6379
  280MOL0     C37718   5.715   4.001   0.398 -1.3836  0.5785 -0.7686
  280MOL0     C37719   5.392   4.092   0.086  0.5551 -1.7706  0.2125
  280MOL0     C37720   5.272   4.146   0.139 -0.1366 -0.5670  0.2978
  280MOL0     C37721   5.150   4.123   0.079 -0.2002  0.2645 -0.0327
  280MOL0     C37722   5.147   4.044  -0.038  0.9444  0.6730  0.0637
  280MOL0     O37723   5.032   4.000  -0.102 -0.4589  0.4106 -0.0825
  280MOL0     C37724   4.906   4.037  -0.045 -0.9280  0.4726 -0.2974
  280MOL0     C37725   4.800   3.983  -0.143 -0.3880  0.5958 -0.1923
  280MOL0     C37726   4.666   4.055  -0.136  1.0116 -0.2225  0.5898
  280MOL0     C37727   4.606   4.081   0.001 -0.0408  0.0087  0.0141
  280MOL0     C37728   4.566   3.961   0.065 -0.2335  0.6332 -0.6271
  280MOL0     C37729   4.524   3.870   0.142  0.1098 -0.1059  0.3158
  280MOL0     C37730   5.268   3.989  -0.087 -0.3025 -0.4635 -0.5216
  280MOL0     C37731   5.386   4.017  -0.031 -0.2250 -0.3192 -0.1682
  280MOL0     C37732   5.504   3.936  -0.072 -0.1334 -0.9113  0.3417
  280MOL0     H37733   5.541   4.299   0.433  1.1402  0.4568  0.6669
  280MOL0     H37734   5.741   4.332   0.590  0.9961 -0.0585  0.4956
  280MOL0     H37735   5.998   4.004   0.715 -0.1097 -1.1960 -2.0086
  280MOL0     H37736   6.081   4.048   0.575 -1.3000 -1.6990  0.9715
  280MOL0     H37737   6.094   4.192   0.843  0.5071 -0.7652  0.6898
  280MOL0     H37738   6.186   4.258   0.724  0.4228  1.3269  2.0229
  280MOL0     H37739   6.207   3.964   0.795  0.0254  0.2006 -0.0747
  280MOL0     H37740   6.291   4.089   0.887  2.2160  0.8505 -1.7162
  280MOL0     H37741   6.327   4.055   0.591 -0.3432 -1.3432  0.1059
  280MOL0     H37742   6.411   4.172   0.691 -0.5323 -0.1827  1.6287
  280MOL0     H37743   6.429   3.870   0.766  0.5881 -0.3573  1.4957
  280MOL0     H37744   6.541   3.945   0.651 -0.0274 -2.2270  0.6236
  280MOL0     H37745   6.608   4.113   0.824 -1.4101  2.1139  2.8159
  280MOL0     H37746   6.493   4.044   0.937 -1.9887 -2.4157 -1.4988
  280MOL0     H37747   6.604   3.814   0.909 -1.5350  1.3590 -0.6739
  280MOL0     H37748   6.682   3.948   0.994 -0.5280 -0.2813  0.9560
  280MOL0     H37749   6.728   3.855   0.693 -1.3885 -1.4727  0.4916
  280MOL0     H37750   6.803   3.994   0.759  3.6178 -1.6647 -0.4113
  280MOL0     H37751   7.062   3.893   0.796 -0.9019 -1.6821 -2.7791
  280MOL0     H37752   7.256   3.747   0.935 -0.4071  0.4501  1.7612
  280MOL0     H37753   7.202   3.612   1.014  0.2014  0.2193 -0.3096
  280MOL0     H37754   7.162   3.493   0.793  0.6031 -0.8029  1.8899
  280MOL0     H37755   7.237   3.629   0.711 -1.8791 -1.5946 -1.3992
  280MOL0     H37756   7.387   3.432   0.766 -2.4399  2.5687 -3.2413
  280MOL0     H37757   7.358   3.449   0.942  1.7320  3.6902  2.0639
  280MOL0     H37758   7.482   3.662   0.925 -1.3783  1.1902  0.0020
  280MOL0     H37759   7.458   3.653   0.741 -2.3517  0.3946  0.9777
  280MOL0     H37760   7.834   3.386   0.816  2.8176 -1.5404 -3.4487
  280MOL0     H37761   8.045   3.470   0.695 -0.8449 -0.8627 -0.1312
  280MOL0     H37762   8.203   3.734   0.341  2.4072 -1.2945  0.5428
  280MOL0     H37763   8.421   3.803   0.230  0.5331  0.0760  0.3742
  280MOL0     H37764   8.547   4.004   0.095  2.3018  3.1027 -2.7799
  280MOL0     H37765   8.534   4.158   0.189  0.2961  0.2154  0.7878
  280MOL0     H37766   8.745   4.161   0.067 -0.3614 -3.1521 -2.9369
  280MOL0     H37767   8.781   4.149   0.240 -1.4663 -1.9612  1.0099
  280MOL0     H37768   8.826   3.910   0.227  1.2211  1.5605 -0.8459
  280MOL0     H37769   8.745   3.901   0.074 -0.6801  0.9214 -2.3922
  280MOL0     H37770   8.997   4.067   0.133  0.5595  0.7738 -1.7627
  280MOL0     H37771   8.935   4.037  -0.027  0.6963 -0.1421  0.8992
  280MOL0     H37772   8.988   3.778   0.010  0.9009 -1.8524  1.2699
  280MOL0     H37773   9.042   3.833   0.158  0.2448 -0.1309 -1.0860
  280MOL0     H37774   9.147   3.958  -0.099  1.2626  0.9324 -0.1202
  280MOL0     H37775   9.215   3.978   0.065  0.0402 -1.2308 -0.0418
  280MOL0     H37776   9.259   3.736   0.060 -1.4362 -0.1200 -0.3426
  280MOL0     H37777   9.357   3.832  -0.054 -0.2323  0.8356 -0.2848
  280MOL0     H37778   9.122   3.656  -0.145 -1.5865  3.1326 -4.2052
  280MOL0     H37779   9.238   3.742  -0.243  0.5387  0.7051 -0.0356
  280MOL0     H37780   8.455   4.107   0.536  0.6874  0.3682 -2.5735
  280MOL0     H37781   8.269   4.011   0.644  1.3322 -0.9564  0.0045
  280MOL0     H37782   7.856   3.849   0.631 -3.2332  0.5394 -0.6502
  280MOL0     H37783   7.650   3.768   0.713 -0.3741 -1.4155  2.3997
  280MOL0     H37784   5.894   3.939   0.503  0.1822  0.0895 -0.0967
  280MOL0     H37785   5.693   3.907   0.348  0.8913 -0.5890  0.2582
  280MOL0     H37786   5.280   4.210   0.227  0.7275 -0.4397  0.1369
  280MOL0     H37787   5.058   4.161   0.122 -1.8096 -1.3318 -1.8454
  280MOL0     H37788   4.895   4.146  -0.043 -2.0661  0.3659  1.3424
  280MOL0     H37789   4.902   4.005   0.059  3.3585  0.6512  0.0670
  280MOL0     H37790   4.784   3.875  -0.130 -1.6290  0.3454 -3.1061
  280MOL0     H37791   4.839   4.005  -0.242  0.9486 -0.7719 -0.0080
  280MOL0     H37792   4.600   4.001  -0.204  0.2336  0.2709  0.9427
  280MOL0     H37793   4.686   4.147  -0.191  1.0158 -1.3389 -1.4037
  280MOL0     H37794   4.667   4.132   0.076 -0.0297 -3.5095  2.6593
  280MOL0     H37795   4.514   4.139  -0.014  0.0704  0.4316  0.8881
  280MOL0     H37796   4.500   3.797   0.216 -3.4846  1.2775  0.6923
  280MOL0     H37797   5.253   3.932  -0.178 -1.6681  0.1600 -0.7198
  280MOL0     H37798   5.583   3.994  -0.120 -1.6537  0.8724 -0.1156
  280MOL0     H37799   5.559   3.894   0.012 -2.0696 -1.2534  1.5100
  280MOL0     H37800   5.462   3.854  -0.132  2.1055 -0.8083 -1.5097
  281MOL0     O37801   3.544   7.855  11.198 -0.7745 -0.6622  1.4523
  281MOL0     C37802   3.566   7.859  11.322 -0.4453  0.4936  0.1156
  281MOL0     O37803   3.676   7.904  11.385  0.6356  0.1229  0.0645
  281MOL0     C37804   3.789   7.939  11.317 -0.0688 -0.0613 -0.3886
  281MOL0     C37805   3.800   8.072  11.264 -0.2697 -0.6306 -0.8614
  281MOL0     C37806   3.913   8.123  11.203 -0.1020  0.1975 -0.2879
  281MOL0     C37807   4.020   8.039  11.188 -0.6207  0.6586 -0.2349
  281MOL0     O37808   4.133   8.095  11.135  0.2303 -0.2335 -0.0468
  281MOL0     C37809   4.258   8.041  11.155 -0.5700  0.0195 -0.3137
  281MOL0     C37810   4.360   8.135  11.095 -0.7367  0.6063 -0.5318
  281MOL0     C37811   4.502   8.079  11.098  0.7132 -0.7444 -0.7913
  281MOL0     C37812   4.599   8.181  11.030 -0.3309 -0.3376  0.9747
  281MOL0     C37813   4.748   8.145  11.065 -0.0260  0.3493 -0.3651
  281MOL0     C37814   4.849   8.267  11.049 -0.8358 -0.2579  0.0697
  281MOL0     C37815   4.988   8.235  11.098  0.9536 -0.1117  0.2145
  281MOL0     C37816   4.991   8.225  11.254 -1.0822  0.2445  0.7811
  281MOL0     N37817   5.139   8.219  11.282 -0.0018  0.0860 -0.7416
  281MOL0     C37818   5.225   8.328  11.271 -0.5792 -0.4902  0.3268
  281MOL0     C37819   5.349   8.275  11.307  0.9199 -0.3152 -0.4547
  281MOL0     C37820   5.490   8.342  11.307 -0.0499 -0.9079 -0.9103
  281MOL0     C37821   5.495   8.448  11.411  0.2972 -0.6314  0.0970
  281MOL0     C37822   5.632   8.514  11.426  0.0801 -0.7759  0.1021
  281MOL0     C37823   5.741   8.414  11.446 -0.4468 -0.6968  0.5948
  281MOL0     O37824   5.852   8.488  11.500 -0.2778 -0.4834 -0.4903
  281MOL0     C37825   5.942   8.555  11.418 -0.0598  0.3610 -0.5507
  281MOL0     C37826   5.936   8.576  11.275 -0.3670  0.6551 -0.0366
  281MOL0     C37827   6.043   8.631  11.210 -0.8570  0.3364 -0.3166
  281MOL0     C37828   6.157   8.680  11.277 -0.7814 -0.6718  0.7880
  281MOL0     C37829   6.273   8.745  11.199  0.0781  0.2847  0.3828
  281MOL0     O37830   6.237   8.781  11.072  0.3058  0.0543  0.0894
  281MOL0     C37831   6.324   8.841  10.983 -1.1769 -0.3527 -0.4342
  281MOL0     C37832   6.277   8.948  10.911 -0.2545 -0.2999  0.3700
  281MOL0     C37833   6.363   9.029  10.834  0.2051 -0.3843  0.0070
  281MOL0     C37834   6.500   8.991  10.826  0.7301  0.1842 -0.1144
  281MOL0     O37835   6.576   9.066  10.743 -0.2125 -0.8041  0.5866
  281MOL0     C37836   6.556   9.205  10.734  0.5441 -0.4188 -0.3761
  281MOL0     C37837   6.654   9.271  10.628  0.6914 -0.2780 -0.9278
  281MOL0     C37838   6.800   9.225  10.650  0.0871  0.5616  1.0502
  281MOL0     C37839   6.879   9.276  10.532 -0.8671  0.6532 -0.1513
  281MOL0     C37840   7.019   9.196  10.517 -0.4766  1.0718  0.3179
  281MOL0     C37841   7.111   9.207  10.633 -0.0333 -0.1515  0.8296
  281MOL0     C37842   7.235   9.124  10.612 -0.1737  1.2749  0.6106
  281MOL0     C37843   7.339   9.144  10.716 -0.2758  0.1277  0.4644
  281MOL0    Cl37844   7.486   9.036  10.667  0.1910 -0.1846  0.3699
  281MOL0     C37845   6.554   8.892  10.900  0.1624  0.5448 -0.3054
  281MOL0     C37846   6.468   8.814  10.980 -0.3535  0.2884  0.7567
  281MOL0     O37847   6.380   8.767  11.252 -0.7323  0.0387 -0.5991
  281MOL0     C37848   6.159   8.679  11.420 -0.1852 -0.5357  0.5694
  281MOL0     C37849   6.058   8.616  11.486 -0.4818  0.4912 -0.4605
  281MOL0     N37850   5.340   8.136  11.312  0.6286 -0.5555 -0.7336
  281MOL0     N37851   5.218   8.105  11.295  0.3563 -0.0426  0.4371
  281MOL0     C37852   4.012   7.902  11.233  0.6410 -0.0781 -0.3650
  281MOL0     C37853   3.897   7.856  11.292 -0.4055  0.5163  0.6036
  281MOL0     C37854   3.460   7.812  11.411 -1.0928 -1.0229 -0.4102
  281MOL0     C37855   3.496   7.800  11.555 -0.0498  0.1702  0.1646
  281MOL0     C37856   3.402   7.788  11.654  0.0392 -0.1581  0.5099
  281MOL0     C37857   3.268   7.770  11.620 -0.4840 -0.3138 -0.1523
  281MOL0     O37858   3.175   7.781  11.717 -0.5807  0.0061 -0.4932
  281MOL0     C37859   3.098   7.656  11.728 -0.2037 -0.7695 -0.3370
  281MOL0     C37860   2.976   7.689  11.812  0.4285  0.3934 -0.2924
  281MOL0     C37861   2.880   7.771  11.726  0.0454 -0.3053 -0.2147
  281MOL0     C37862   2.740   7.773  11.780 -1.2549 -0.2141 -0.2062
  281MOL0     C37863   2.729   7.833  11.914  0.4939 -0.9058 -0.6128
  281MOL0     C37864   2.717   7.900  12.012 -0.1380  0.4204  0.2769
  281MOL0     C37865   3.229   7.774  11.483 -0.3506 -1.0515 -0.4237
  281MOL0     C37866   3.323   7.801  11.381 -0.2040 -0.0904  0.4884
  281MOL0     C37867   3.253   7.788  11.242 -0.0962 -0.0494 -0.5527
  281MOL0     H37868   3.713   8.133  11.288 -0.4156 -1.1511 -0.0513
  281MOL0     H37869   3.932   8.224  11.168  3.6736 -0.7406 -1.3704
  281MOL0     H37870   4.266   8.027  11.263  0.5537 -0.3680 -0.4283
  281MOL0     H37871   4.266   7.944  11.105 -1.2314  0.0629 -0.5228
  281MOL0     H37872   4.356   8.230  11.149  2.3612  1.5514 -1.7278
  281MOL0     H37873   4.347   8.162  10.990  4.4670  3.6495 -0.7345
  281MOL0     H37874   4.515   7.985  11.043 -2.5586 -0.6430 -1.9269
  281MOL0     H37875   4.539   8.055  11.199 -0.7714 -0.7734 -0.2324
  281MOL0     H37876   4.585   8.183  10.921  0.1110  0.7617  0.9196
  281MOL0     H37877   4.581   8.286  11.057  1.2062  0.6203 -1.3648
  281MOL0     H37878   4.750   8.128  11.173  0.6143  1.6116 -0.1487
  281MOL0     H37879   4.787   8.052  11.024 -2.4557 -2.0672  2.3964
  281MOL0     H37880   4.854   8.294  10.943  1.1308  0.6144  0.3395
  281MOL0     H37881   4.808   8.356  11.098 -2.5230 -0.9391 -0.0248
  281MOL0     H37882   5.050   8.323  11.078  2.8352 -1.6782 -1.3878
  281MOL0     H37883   5.035   8.144  11.058  2.6545 -0.3608  2.5752
  281MOL0     H37884   4.951   8.315  11.302 -3.1271 -0.0221 -0.2810
  281MOL0     H37885   4.939   8.134  11.286 -0.8940 -1.1037 -2.4177
  281MOL0     H37886   5.194   8.430  11.248 -0.5997 -0.3328  1.0494
  281MOL0     H37887   5.568   8.266  11.321  0.3782 -0.2827  0.2781
  281MOL0     H37888   5.518   8.386  11.211  2.9684  1.8966  1.0443
  281MOL0     H37889   5.429   8.536  11.406 -0.6041 -1.1479  2.0651
  281MOL0     H37890   5.472   8.400  11.506 -2.1181 -1.3396 -0.7580
  281MOL0     H37891   5.625   8.585  11.509  0.4316 -0.2197 -0.3383
  281MOL0     H37892   5.647   8.585  11.344 -2.3404  0.7325  0.8439
  281MOL0     H37893   5.764   8.351  11.360  0.0512 -3.1122  2.3890
  281MOL0     H37894   5.709   8.336  11.515  0.1805 -1.7650 -0.2929
  281MOL0     H37895   5.863   8.523  11.216 -2.2734  2.7040  0.3665
  281MOL0     H37896   6.054   8.628  11.102  1.4870  0.6260 -0.1317
  281MOL0     H37897   6.171   8.972  10.898 -0.1157  1.0652  1.4854
  281MOL0     H37898   6.316   9.112  10.783 -0.3271  0.7496  2.2328
  281MOL0     H37899   6.456   9.231  10.701  0.6710  2.2826  1.1354
  281MOL0     H37900   6.591   9.255  10.825  2.1756 -1.7271 -0.2234
  281MOL0     H37901   6.608   9.225  10.540  0.8223  1.2331 -1.8257
  281MOL0     H37902   6.637   9.378  10.612  1.3028 -0.3272 -1.9514
  281MOL0     H37903   6.837   9.272  10.741  1.3091  0.5733  0.5756
  281MOL0     H37904   6.809   9.116  10.648 -3.7170  0.0410 -2.7813
  281MOL0     H37905   6.901   9.382  10.545  0.8691  0.4000 -0.7938
  281MOL0     H37906   6.844   9.260  10.429  2.3807 -3.7386 -0.8770
  281MOL0     H37907   7.080   9.225  10.431  2.7930 -0.1414  2.0113
  281MOL0     H37908   7.003   9.088  10.505  2.4925  0.4224  1.1670
  281MOL0     H37909   7.145   9.311  10.635 -1.3503  0.3449 -0.7765
  281MOL0     H37910   7.053   9.170  10.718  1.4214 -4.3955  0.2267
  281MOL0     H37911   7.273   9.151  10.513 -2.5204 -2.7927 -1.6794
  281MOL0     H37912   7.216   9.016  10.608  2.3772  0.7130  1.7419
  281MOL0     H37913   7.358   9.247  10.745 -1.4696  0.4050  0.3049
  281MOL0     H37914   7.302   9.099  10.809  0.3576  1.3538  1.3280
  281MOL0     H37915   6.660   8.875  10.884 -0.1724  1.1753 -4.3848
  281MOL0     H37916   6.514   8.741  11.045  0.3776  0.0089 -0.0586
  281MOL0     H37917   6.245   8.719  11.473  0.2007  4.7730 -3.2496
  281MOL0     H37918   6.065   8.611  11.594  3.2773 -0.2370 -0.5843
  281MOL0     H37919   4.104   7.848  11.214  0.5862  0.1829 -1.4136
  281MOL0     H37920   3.904   7.756  11.335 -0.2068  0.3638  0.2232
  281MOL0     H37921   3.599   7.821  11.580 -0.0681 -0.2367  0.5805
  281MOL0     H37922   3.426   7.799  11.760  2.4400 -2.0173  0.2505
  281MOL0     H37923   3.162   7.595  11.793  2.2977  3.2023  1.3648
  281MOL0     H37924   3.058   7.617  11.635 -0.1016  1.6083 -1.4646
  281MOL0     H37925   3.004   7.750  11.898  0.0989 -0.2708  0.2932
  281MOL0     H37926   2.930   7.604  11.862  0.9696  0.4955  0.3871
  281MOL0     H37927   2.876   7.729  11.625 -0.2436 -1.3966  0.2392
  281MOL0     H37928   2.925   7.870  11.728  1.5119 -0.9541  1.9586
  281MOL0     H37929   2.671   7.819  11.709 -2.2683 -1.8460 -0.3265
  281MOL0     H37930   2.714   7.667  11.787  0.1157 -0.5096  0.7429
  281MOL0     H37931   2.720   7.977  12.086  1.5063 -0.8969  1.6709
  281MOL0     H37932   3.122   7.774  11.464 -0.4885  0.1330  0.2533
  281MOL0     H37933   3.294   7.701  11.190  1.2642 -0.4881  1.1793
  281MOL0     H37934   3.144   7.784  11.237 -0.1088  0.6846 -1.0312
  281MOL0     H37935   3.274   7.882  11.190 -0.4394 -0.0569 -0.7132
  282MOL0     O37936   3.568  11.054   9.796 -0.8948  0.2075  0.0014
  282MOL0     C37937   3.482  10.983   9.836 -1.1049  0.7298  0.7126
  282MOL0     O37938   3.506  10.852   9.871 -0.2438  0.1625  0.3421
  282MOL0     C37939   3.629  10.820   9.920 -0.4170  1.7703 -0.7234
  282MOL0     C37940   3.644  10.834  10.063 -0.3943  1.4979  1.1792
  282MOL0     C37941   3.775  10.825  10.118 -0.6273  0.8638  0.0316
  282MOL0     C37942   3.889  10.803  10.035  0.2750  0.1328  0.0997
  282MOL0     O37943   4.018  10.798  10.077  0.2094  0.2897  1.2037
  282MOL0     C37944   4.034  10.750  10.218 -1.0278 -0.2305  0.1915
  282MOL0     C37945   4.168  10.714  10.267 -0.2887 -0.1961  0.1266
  282MOL0     C37946   4.263  10.637  10.174  0.2801 -0.2045  0.4795
  282MOL0     C37947   4.417  10.640  10.228 -0.2436  0.6383 -0.4598
  282MOL0     C37948   4.500  10.543  10.147 -0.7723  0.0498 -1.3741
  282MOL0     C37949   4.506  10.571   9.999 -0.0341 -0.0579 -0.3445
  282MOL0     C37950   4.533  10.716   9.945  0.7618 -0.3922 -0.1699
  282MOL0     C37951   4.672  10.765   9.980  0.1576  1.2575  0.3940
  282MOL0     N37952   4.771  10.699   9.886  0.1906 -0.2153  0.3080
  282MOL0     C37953   4.860  10.593   9.912  0.6342 -0.3518  0.5389
  282MOL0     C37954   4.895  10.543   9.785  0.4104 -0.7587  0.0343
  282MOL0     C37955   4.979  10.424   9.742  0.7811  0.4517 -0.1869
  282MOL0     C37956   5.122  10.470   9.697 -0.6244 -0.1846  0.2012
  282MOL0     C37957   5.203  10.508   9.819 -0.3608 -0.3801 -0.7102
  282MOL0     C37958   5.340  10.545   9.778  0.8094 -0.6358 -0.2265
  282MOL0     O37959   5.415  10.574   9.900  0.5152  0.0165 -0.1456
  282MOL0     C37960   5.543  10.607   9.880  0.6651 -0.3054  0.6577
  282MOL0     C37961   5.621  10.623   9.993 -0.1554 -0.1859 -0.3568
  282MOL0     C37962   5.744  10.673   9.979  0.2825 -0.7279 -1.2882
  282MOL0     C37963   5.808  10.701   9.862  0.0625  0.3788  0.3246
  282MOL0     C37964   5.945  10.761   9.864 -0.3278  0.4556  0.7905
  282MOL0     O37965   6.013  10.757   9.747 -0.2304 -0.5023 -0.2414
  282MOL0     C37966   6.145  10.799   9.749 -0.2833  0.4051  0.0562
  282MOL0     C37967   6.172  10.932   9.717 -0.5483  0.1117 -0.6112
  282MOL0     C37968   6.311  10.976   9.719  0.3240  0.6355  0.4465
  282MOL0     C37969   6.413  10.880   9.750  0.5589  0.2140  0.2625
  282MOL0     O37970   6.539  10.927   9.752  0.0273  0.2613  0.1968
  282MOL0     C37971   6.637  10.841   9.699  0.5835 -0.3945 -0.2423
  282MOL0     C37972   6.772  10.907   9.724  0.2892 -0.4343  0.0888
  282MOL0     C37973   6.868  10.814   9.648 -0.4987  0.3053  0.5210
  282MOL0     C37974   7.006  10.879   9.643  0.5152 -0.2648  0.1616
  282MOL0     C37975   7.101  10.811   9.536  0.1020 -0.2276  0.0398
  282MOL0     C37976   7.240  10.861   9.563 -0.6674  0.3371 -0.3688
  282MOL0     C37977   7.334  10.794   9.468  0.3049  0.4942  0.7551
  282MOL0     C37978   7.482  10.830   9.486  1.0918  0.1231 -0.1931
  282MOL0    Cl37979   7.576  10.760   9.351 -0.2198 -0.8747 -0.1368
  282MOL0     C37980   6.384  10.743   9.766 -0.5702 -0.0894 -0.2360
  282MOL0     C37981   6.251  10.704   9.772 -0.6581 -0.0620  0.0682
  282MOL0     O37982   5.987  10.811   9.973 -0.4748  0.0211 -0.2276
  282MOL0     C37983   5.732  10.685   9.747  0.5530  0.3847  0.8234
  282MOL0     C37984   5.603  10.633   9.751  0.2814  0.2462 -0.6885
  282MOL0     N37985   4.846  10.637   9.694  0.2819 -0.2530 -0.0021
  282MOL0     N37986   4.776  10.727   9.753  0.4054 -0.2039  0.1473
  282MOL0     C37987   3.871  10.785   9.894  0.2615  0.0368 -0.2480
  282MOL0     C37988   3.744  10.796   9.836  0.3693 -0.5412 -0.2959
  282MOL0     C37989   3.347  11.039   9.830 -0.3994  0.4674 -0.4903
  282MOL0     C37990   3.236  10.948   9.827 -0.2409  0.8518 -0.5160
  282MOL0     C37991   3.102  10.999   9.822 -0.0266 -0.5038 -0.5648
  282MOL0     C37992   3.076  11.138   9.844 -0.4141  0.3370 -0.5779
  282MOL0     O37993   2.952  11.197   9.853 -0.1001  0.0620 -0.8377
  282MOL0     C37994   2.839  11.130   9.804  0.2265 -0.1464 -0.0571
  282MOL0     C37995   2.724  11.175   9.882  0.9827 -0.1069 -0.6375
  282MOL0     C37996   2.584  11.157   9.811 -0.3626  0.2812  1.2898
  282MOL0     C37997   2.469  11.149   9.915 -0.3038  0.4655 -0.5833
  282MOL0     C37998   2.346  11.102   9.851 -0.1293  0.3348  0.3210
  282MOL0     C37999   2.240  11.063   9.801  0.3416  0.4540 -0.3941
  282MOL0     C38000   3.185  11.220   9.846 -1.2022  0.3405 -0.8352
  282MOL0     C38001   3.315  11.176   9.836 -0.2379 -0.7908  0.1817
  282MOL0     C38002   3.411  11.294   9.843 -0.7118 -0.5300 -0.4394
  282MOL0     H38003   3.558  10.865  10.122  1.3443  1.8846  3.7119
  282MOL0     H38004   3.792  10.847  10.223 -1.4570  1.2624  0.0908
  282MOL0     H38005   3.999  10.818  10.296 -0.1445  1.9002 -1.1655
  282MOL0     H38006   3.983  10.653  10.223 -0.7371 -0.3443  1.1124
  282MOL0     H38007   4.159  10.648  10.353  2.5070 -0.6381  0.1873
  282MOL0     H38008   4.211  10.812  10.291 -1.0332 -0.0320  0.8470
  282MOL0     H38009   4.249  10.686  10.077 -0.6041  1.4708  1.3958
  282MOL0     H38010   4.228  10.535  10.160  3.8880 -1.8529  2.1547
  282MOL0     H38011   4.476  10.733  10.226  1.4785 -0.3875 -3.2766
  282MOL0     H38012   4.423  10.618  10.335 -2.3234  2.0611  0.0191
  282MOL0     H38013   4.597  10.519  10.192 -0.7246  0.8773 -1.0188
  282MOL0     H38014   4.447  10.447  10.153  1.8596 -1.4161  1.7240
  282MOL0     H38015   4.576  10.504   9.948  0.0046  0.4333 -0.9536
  282MOL0     H38016   4.406  10.554   9.958  0.8676 -0.7156 -2.4542
  282MOL0     H38017   4.460  10.785   9.988  1.3765 -0.9190  1.8619
  282MOL0     H38018   4.509  10.721   9.838 -1.3948 -1.8842  0.1729
  282MOL0     H38019   4.671  10.873   9.963  0.2001  1.0384 -1.1247
  282MOL0     H38020   4.699  10.752  10.085 -0.8973  0.3185  0.5699
  282MOL0     H38021   4.884  10.556  10.011  2.7634 -0.5722 -0.0067
  282MOL0     H38022   4.996  10.358   9.827  1.0460 -2.7535 -2.5388
  282MOL0     H38023   4.929  10.375   9.658  1.8128  0.0624 -0.5940
  282MOL0     H38024   5.168  10.391   9.636 -0.3573 -1.4659  1.9788
  282MOL0     H38025   5.099  10.558   9.636 -2.8280 -0.0128  1.1926
  282MOL0     H38026   5.211  10.422   9.887  3.3489  1.7645  1.9633
  282MOL0     H38027   5.149  10.588   9.868  0.6787  1.7769 -2.8755
  282MOL0     H38028   5.326  10.631   9.711 -2.1602 -0.1349  0.8996
  282MOL0     H38029   5.389  10.458   9.733  2.0002  0.8320 -1.9247
  282MOL0     H38030   5.582  10.609  10.093 -0.4754  2.0963 -0.0941
  282MOL0     H38031   5.798  10.689  10.071 -2.8219 -0.1637  0.5992
  282MOL0     H38032   6.095  11.007   9.702 -0.0685  0.8770  0.6352
  282MOL0     H38033   6.337  11.080   9.706  1.0743  0.5895  1.4022
  282MOL0     H38034   6.634  10.740   9.742  0.2516 -0.0370  0.6015
  282MOL0     H38035   6.624  10.830   9.591 -3.0912 -0.7004  0.1056
  282MOL0     H38036   6.771  11.009   9.685  1.8113 -1.3207 -2.5365
  282MOL0     H38037   6.793  10.902   9.831 -2.3232  0.0190  0.6985
  282MOL0     H38038   6.869  10.715   9.693  0.4685  0.4743  0.8988
  282MOL0     H38039   6.834  10.804   9.544  1.2050 -1.3594  0.0805
  282MOL0     H38040   7.050  10.843   9.737 -0.6495 -0.7407  0.5398
  282MOL0     H38041   7.005  10.986   9.622 -1.0559 -0.6292 -1.9622
  282MOL0     H38042   7.071  10.840   9.435  0.6044  0.1848  0.0087
  282MOL0     H38043   7.097  10.702   9.538 -0.2621 -0.2156  0.0206
  282MOL0     H38044   7.249  10.969   9.553 -0.9496  0.5281  1.1186
  282MOL0     H38045   7.269  10.842   9.667  0.5781 -0.7136 -0.8883
  282MOL0     H38046   7.300  10.817   9.367  1.6787 -1.1904 -0.1337
  282MOL0     H38047   7.319  10.686   9.476 -0.7524  0.5948  0.3042
  282MOL0     H38048   7.485  10.940   9.485 -1.2665  0.2370 -1.0927
  282MOL0     H38049   7.522  10.793   9.580 -0.3792 -1.7977 -0.2845
  282MOL0     H38050   6.457  10.673   9.806 -0.7419  0.1934  0.5746
  282MOL0     H38051   6.213  10.603   9.785  0.2580 -0.6654 -1.5751
  282MOL0     H38052   5.763  10.716   9.648 -2.3141  0.1634 -0.2151
  282MOL0     H38053   5.544  10.634   9.661  1.0120 -0.3112 -1.1896
  282MOL0     H38054   3.958  10.779   9.830  0.2055 -1.5610 -0.2280
  282MOL0     H38055   3.733  10.796   9.728 -2.7208 -1.3949 -0.0793
  282MOL0     H38056   3.246  10.840   9.823  0.7949  0.9358 -0.4199
  282MOL0     H38057   3.019  10.930   9.824 -1.5783  1.0986  3.6973
  282MOL0     H38058   2.843  11.023   9.822  0.6643 -0.5194 -2.1077
  282MOL0     H38059   2.825  11.148   9.697 -0.0573  3.2296  0.4322
  282MOL0     H38060   2.725  11.282   9.903 -0.2599 -0.0928 -0.6018
  282MOL0     H38061   2.735  11.119   9.975  2.3694 -0.5123 -1.0214
  282MOL0     H38062   2.583  11.063   9.755 -1.2984  0.2368  1.3699
  282MOL0     H38063   2.567  11.239   9.741  0.0769 -1.8617 -1.5346
  282MOL0     H38064   2.491  11.098  10.009 -0.0899  3.6005  1.2069
  282MOL0     H38065   2.438  11.248   9.949 -1.8347 -0.5080  1.0051
  282MOL0     H38066   2.159  11.011   9.754 -1.8158  3.7741 -0.6945
  282MOL0     H38067   3.162  11.325   9.860 -3.3859 -0.2205  0.2594
  282MOL0     H38068   3.450  11.321   9.743 -2.5165 -0.9300 -1.2841
  282MOL0     H38069   3.387  11.386   9.897 -0.0370 -0.8608  0.4321
  282MOL0     H38070   3.498  11.261   9.900 -1.1565 -2.1851 -0.6737
  283MOL0     O38071   3.621   6.709   1.304  0.6814 -0.4360 -0.1256
  283MOL0     C38072   3.512   6.683   1.348  0.0108 -0.3238  1.2559
  283MOL0     O38073   3.493   6.641   1.476 -0.1747  0.3820 -0.6308
  283MOL0     C38074   3.610   6.618   1.548  0.1202  0.2382 -0.0148
  283MOL0     C38075   3.683   6.727   1.594  0.6090  0.6461 -0.3037
  283MOL0     C38076   3.797   6.703   1.678  1.0225 -0.1274  0.5233
  283MOL0     C38077   3.837   6.570   1.699 -0.2028  0.0219 -0.9183
  283MOL0     O38078   3.948   6.552   1.774 -0.8566  0.2814 -0.1662
  283MOL0     C38079   3.986   6.416   1.820 -0.0023  0.2278 -0.7273
  283MOL0     C38080   4.079   6.440   1.937  0.3619 -0.3400 -0.6549
  283MOL0     C38081   4.121   6.329   2.039  0.5766  0.2486 -0.8298
  283MOL0     C38082   4.237   6.374   2.119 -0.4033  0.0237 -0.5285
  283MOL0     C38083   4.213   6.488   2.217  0.1417 -0.5774 -0.3810
  283MOL0     C38084   4.103   6.454   2.317  0.3773  0.1428 -0.8094
  283MOL0     C38085   4.123   6.539   2.442  0.7298 -0.1990 -0.7034
  283MOL0     C38086   4.037   6.498   2.554 -0.5642  0.8765 -0.3016
  283MOL0     N38087   4.073   6.369   2.620 -0.3100  0.4081 -0.1755
  283MOL0     C38088   4.142   6.372   2.738 -0.4610 -0.1334  0.5808
  283MOL0     C38089   4.120   6.249   2.787 -0.7136  0.6315 -0.3017
  283MOL0     C38090   4.168   6.206   2.921  0.2919 -0.1718  0.0431
  283MOL0     C38091   4.276   6.102   2.930 -0.2261  0.5068 -0.3454
  283MOL0     C38092   4.415   6.162   2.915 -0.3490  0.3669  0.2154
  283MOL0     C38093   4.519   6.052   2.909  0.1369 -0.6081 -0.5644
  283MOL0     O38094   4.621   6.097   2.813 -0.2480 -0.1076  0.0445
  283MOL0     C38095   4.725   6.161   2.863 -0.1923  0.0434  0.3028
  283MOL0     C38096   4.757   6.185   3.001  0.3511  0.4902  0.4222
  283MOL0     C38097   4.876   6.248   3.032 -0.3382  1.1517 -0.5487
  283MOL0     C38098   4.977   6.282   2.933  1.3442  0.1739  0.4872
  283MOL0     C38099   5.111   6.328   2.964 -0.4391  0.3590 -1.1050
  283MOL0     O38100   5.180   6.403   2.876 -0.4262 -0.2894  0.1863
  283MOL0     C38101   5.318   6.418   2.884  0.0443 -0.1905  0.0825
  283MOL0     C38102   5.413   6.336   2.952  0.0061 -0.0932  0.1479
  283MOL0     C38103   5.554   6.369   2.965 -0.0803 -1.0171  0.2309
  283MOL0     C38104   5.596   6.474   2.887 -0.1884 -0.3854  0.2910
  283MOL0     O38105   5.723   6.530   2.885 -0.3594  0.4863 -0.2873
  283MOL0     C38106   5.832   6.443   2.923 -0.1971  0.5193  0.4149
  283MOL0     C38107   5.954   6.543   2.899  0.2771 -0.4291  0.7528
  283MOL0     C38108   6.091   6.479   2.944 -0.6437  0.1975  0.3424
  283MOL0     C38109   6.214   6.555   2.904 -0.8408  0.2903 -0.2206
  283MOL0     C38110   6.345   6.486   2.943  0.2545  0.3237  0.0490
  283MOL0     C38111   6.476   6.575   2.921 -0.1097 -0.2445  0.1915
  283MOL0     C38112   6.589   6.518   3.010 -0.1845 -0.1436 -0.9802
  283MOL0     C38113   6.701   6.618   3.032 -1.1486 -0.0642  0.4886
  283MOL0    Cl38114   6.836   6.527   3.108 -0.1057  0.1909  0.6323
  283MOL0     C38115   5.513   6.545   2.804  0.0861 -0.3815 -1.1839
  283MOL0     C38116   5.375   6.523   2.806  0.0378  0.3725  0.0132
  283MOL0     O38117   5.165   6.283   3.067  0.7153  1.1058 -0.2252
  283MOL0     C38118   4.941   6.260   2.803 -0.2620  0.1097  0.3191
  283MOL0     C38119   4.813   6.212   2.770 -1.0295  1.0061 -0.3049
  283MOL0     N38120   4.048   6.177   2.696 -0.5238 -0.6640 -0.2230
  283MOL0     N38121   4.016   6.250   2.595 -0.7188  0.4220 -0.0361
  283MOL0     C38122   3.765   6.456   1.644  0.2504 -0.0447 -0.0120
  283MOL0     C38123   3.651   6.487   1.574 -0.8763 -0.2607 -0.0961
  283MOL0     C38124   3.399   6.706   1.255 -0.4104  0.2518 -1.1897
  283MOL0     C38125   3.394   6.819   1.166 -0.4181 -0.6243 -0.8688
  283MOL0     C38126   3.284   6.850   1.088  0.2742 -1.3077 -0.4127
  283MOL0     C38127   3.173   6.766   1.091 -0.2038 -1.1301 -0.8543
  283MOL0     O38128   3.060   6.799   1.023  0.4784  0.8869  1.0072
  283MOL0     C38129   3.058   6.896   0.916  0.0620 -0.6608  0.2652
  283MOL0     C38130   2.919   6.898   0.845  0.6861  0.4032  0.0925
  283MOL0     C38131   2.941   6.984   0.723  0.0147  0.4479 -0.6182
  283MOL0     C38132   2.848   6.952   0.599  0.0829  0.0048  0.3966
  283MOL0     C38133   2.706   6.965   0.644  0.5840 -0.7116 -0.3213
  283MOL0     C38134   2.601   6.972   0.689  0.0826  0.2270  0.5893
  283MOL0     C38135   3.175   6.654   1.176  0.7814  0.7617  0.1918
  283MOL0     C38136   3.285   6.626   1.259  0.4506  0.3162 -0.2473
  283MOL0     C38137   3.273   6.507   1.351 -0.3765  0.0089 -0.1371
  283MOL0     H38138   3.651   6.825   1.559 -0.4965 -0.3083 -2.0762
  283MOL0     H38139   3.853   6.785   1.723 -1.5402  1.5881  0.7775
  283MOL0     H38140   3.896   6.371   1.862  0.2114 -0.6312 -1.1733
  283MOL0     H38141   4.036   6.359   1.742  1.5542  0.7719 -0.1617
  283MOL0     H38142   4.034   6.515   2.002 -0.3967 -2.1361  0.9830
  283MOL0     H38143   4.167   6.488   1.894 -0.5950  4.6249  2.1940
  283MOL0     H38144   4.157   6.236   1.995 -0.2686 -0.8671  0.7357
  283MOL0     H38145   4.039   6.310   2.109 -1.4100  2.9269 -2.2574
  283MOL0     H38146   4.272   6.288   2.176  2.2806 -0.0704 -2.1497
  283MOL0     H38147   4.320   6.395   2.051 -0.7994  0.4365 -0.8898
  283MOL0     H38148   4.309   6.504   2.268  0.3010  0.4369 -0.9859
  283MOL0     H38149   4.191   6.578   2.160 -1.8039 -0.4526  0.4762
  283MOL0     H38150   4.007   6.484   2.275  0.4985  1.4454 -0.1979
  283MOL0     H38151   4.098   6.348   2.344  1.9513  0.6568  1.9810
  283MOL0     H38152   4.094   6.642   2.420 -2.5901 -0.6282  0.9031
  283MOL0     H38153   4.227   6.534   2.474  1.4188  3.2683 -1.9937
  283MOL0     H38154   4.035   6.572   2.635  4.0255  0.5177  0.4082
  283MOL0     H38155   3.934   6.498   2.517 -1.0395  2.7938  0.8901
  283MOL0     H38156   4.189   6.458   2.785 -1.4903  1.7466 -1.6283
  283MOL0     H38157   4.181   6.298   2.979 -0.2751 -0.0846  0.0451
  283MOL0     H38158   4.081   6.147   2.952  0.7007 -1.4120 -1.0571
  283MOL0     H38159   4.266   6.045   3.023  1.6656 -0.7594 -0.8643
  283MOL0     H38160   4.269   6.029   2.849 -0.4695  1.3069 -1.0602
  283MOL0     H38161   4.449   6.229   2.994  4.2424 -1.6138  0.2712
  283MOL0     H38162   4.412   6.214   2.819 -1.4310 -1.8815 -1.0494
  283MOL0     H38163   4.469   5.965   2.866 -0.4517  0.1599 -1.4641
  283MOL0     H38164   4.563   6.032   3.008 -2.2294  0.8036  0.8655
  283MOL0     H38165   4.687   6.160   3.080 -1.0695  0.7714 -0.6945
  283MOL0     H38166   4.903   6.267   3.136 -2.2246 -0.7115  0.3695
  283MOL0     H38167   5.385   6.239   2.993  1.4097  0.9585  3.9763
  283MOL0     H38168   5.611   6.301   3.027 -1.4129 -1.1797  1.3452
  283MOL0     H38169   5.831   6.427   3.031  2.6318  2.3535  0.8282
  283MOL0     H38170   5.843   6.356   2.858  3.6853  2.5463 -2.0691
  283MOL0     H38171   5.946   6.590   2.800 -3.6777  2.2112  2.0859
  283MOL0     H38172   5.937   6.627   2.967 -0.3919 -0.4739  0.6487
  283MOL0     H38173   6.071   6.469   3.052 -0.8174 -1.2378  0.1987
  283MOL0     H38174   6.095   6.378   2.902 -2.2615 -0.4207  1.5244
  283MOL0     H38175   6.196   6.651   2.954  0.8969  0.2540  0.5209
  283MOL0     H38176   6.224   6.565   2.796  1.3649  2.5051  0.0987
  283MOL0     H38177   6.351   6.400   2.876 -1.6920  0.4824 -0.3911
  283MOL0     H38178   6.337   6.453   3.047  2.9766  1.3966  0.6823
  283MOL0     H38179   6.503   6.568   2.815 -0.6113  0.7972 -0.0196
  283MOL0     H38180   6.453   6.677   2.954  0.7523 -0.2136  0.7303
  283MOL0     H38181   6.617   6.431   2.950  1.7887  0.1080 -0.4809
  283MOL0     H38182   6.545   6.489   3.106  0.3214  0.9752 -0.3932
  283MOL0     H38183   6.732   6.667   2.939 -2.3140 -2.0502 -1.0310
  283MOL0     H38184   6.680   6.696   3.105  0.4907  1.6317 -0.7385
  283MOL0     H38185   5.554   6.630   2.751 -0.4378  1.1016  0.6641
  283MOL0     H38186   5.309   6.587   2.749 -2.5318  0.3102  2.6333
  283MOL0     H38187   5.008   6.285   2.721 -0.0434 -2.2116 -0.2615
  283MOL0     H38188   4.792   6.220   2.664 -0.7708 -1.0667 -0.5710
  283MOL0     H38189   3.800   6.353   1.645 -1.5570 -0.8355  4.3780
  283MOL0     H38190   3.592   6.400   1.545  0.0931 -1.2415  0.7648
  283MOL0     H38191   3.477   6.888   1.171 -0.6040 -0.4919  0.7841
  283MOL0     H38192   3.296   6.939   1.026 -0.6373 -0.7514  0.1745
  283MOL0     H38193   3.136   6.877   0.842 -0.3437  2.7009 -1.2217
  283MOL0     H38194   3.077   7.000   0.944 -2.9213  0.2926 -0.8620
  283MOL0     H38195   2.838   6.928   0.911 -0.6596 -0.6842 -0.9979
  283MOL0     H38196   2.903   6.797   0.806  0.9561 -0.0941  1.2161
  283MOL0     H38197   3.035   6.960   0.671  0.1812 -0.7158  0.1923
  283MOL0     H38198   2.938   7.089   0.753 -0.8333 -0.2250  1.8363
  283MOL0     H38199   2.879   7.029   0.528  2.3657 -0.3131  0.9556
  283MOL0     H38200   2.861   6.851   0.559 -3.6011 -0.0768 -0.9955
  283MOL0     H38201   2.498   6.992   0.712 -0.0271  0.3552  0.0096
  283MOL0     H38202   3.087   6.590   1.171  2.4228 -1.9264  2.4743
  283MOL0     H38203   3.367   6.453   1.342 -0.5045 -0.0771 -1.1093
  283MOL0     H38204   3.273   6.540   1.455  1.2765  1.0302 -0.4351
  283MOL0     H38205   3.186   6.441   1.341 -2.6451  1.9001  4.1934
  284MOL0     O38206   8.611   5.925   4.474  0.0829 -0.2913  0.2203
  284MOL0     C38207   8.544   5.838   4.423 -0.3679  0.7418 -0.4864
  284MOL0     O38208   8.577   5.766   4.307 -0.5840  0.0467  0.0695
  284MOL0     C38209   8.701   5.772   4.257 -0.0109 -0.4512  1.1857
  284MOL0     C38210   8.711   5.785   4.124 -0.1400 -1.2217 -0.2937
  284MOL0     C38211   8.839   5.798   4.055 -0.0102  0.2974 -0.9337
  284MOL0     C38212   8.963   5.797   4.129  0.6937 -0.2855 -0.1478
  284MOL0     O38213   9.089   5.808   4.071 -0.0982 -0.2947  0.1131
  284MOL0     C38214   9.113   5.943   4.017  0.8985  0.2588 -0.2877
  284MOL0     C38215   9.257   5.950   3.997 -0.1515 -1.5998 -0.2045
  284MOL0     C38216   9.282   6.091   3.930 -0.3272 -0.0787  0.2730
  284MOL0     C38217   9.430   6.122   3.891  0.4426 -0.2488  0.7832
  284MOL0     C38218   9.459   6.270   3.851  1.0488 -0.7364 -0.4260
  284MOL0     C38219   9.572   6.289   3.746 -0.5677  0.1101 -0.0364
  284MOL0     C38220   9.705   6.206   3.757  0.4884 -0.0637  0.1170
  284MOL0     C38221   9.776   6.225   3.890 -0.4359 -0.5595 -0.4287
  284MOL0     N38222   9.925   6.196   3.887 -0.9256 -0.5387  0.4124
  284MOL0     C38223   9.985   6.077   3.855 -0.3417 -0.2609  0.2013
  284MOL0     C38224  10.118   6.107   3.846  0.2140  0.4057  0.6369
  284MOL0     C38225  10.232   6.013   3.809  0.0448  0.3832 -0.0383
  284MOL0     C38226  10.356   6.051   3.887  0.3512 -0.1031 -0.0868
  284MOL0     C38227  10.468   5.942   3.847 -0.0218 -0.6469  0.9383
  284MOL0     C38228  10.615   5.976   3.887 -0.5101  0.1967 -0.3596
  284MOL0     O38229  10.711   5.888   3.814 -0.8043 -0.1736 -0.4583
  284MOL0     C38230  10.842   5.920   3.820 -0.7555 -0.5954 -0.3596
  284MOL0     C38231  10.905   6.026   3.895  0.9418  1.0273 -0.7707
  284MOL0     C38232  11.046   6.029   3.889 -0.0690 -0.1320  0.3592
  284MOL0     C38233  11.124   5.942   3.825 -0.5382 -0.4960  0.4391
  284MOL0     C38234  11.271   5.954   3.819 -1.0619 -0.3451 -0.3941
  284MOL0     O38235  11.342   5.859   3.753  0.0357 -0.3238 -0.1402
  284MOL0     C38236  11.471   5.876   3.705 -0.6274  0.3796 -0.2315
  284MOL0     C38237  11.517   5.985   3.631  0.3135  0.3700 -0.5958
  284MOL0     C38238  11.653   6.010   3.603  0.0095  0.3681  1.1630
  284MOL0     C38239  11.745   5.912   3.643 -1.0769 -0.3070 -0.4072
  284MOL0     O38240  11.878   5.947   3.624  0.1735 -0.2621  0.2723
  284MOL0     C38241  11.970   5.840   3.649 -0.4159  0.7303  0.1314
  284MOL0     C38242  12.102   5.885   3.584 -0.6651 -0.6301  0.3612
  284MOL0     C38243  12.088   5.870   3.432  0.5416 -0.9583  0.4279
  284MOL0     C38244  12.228   5.898   3.367  0.1672 -0.0575 -0.2071
  284MOL0     C38245  12.202   5.969   3.235 -0.4986  0.8472 -0.1563
  284MOL0     C38246  12.342   5.975   3.157  0.4290  0.2223 -0.0031
  284MOL0     C38247  12.423   6.101   3.199  0.2887 -0.6711  0.4014
  284MOL0     C38248  12.571   6.072   3.217 -0.0719  0.0355 -0.0178
  284MOL0    Cl38249  12.650   5.995   3.072  0.2979  0.1366 -0.2940
  284MOL0     C38250  11.700   5.806   3.718  0.4701 -0.7663 -1.2805
  284MOL0     C38251  11.562   5.779   3.745 -0.2831 -0.3083 -0.1910
  284MOL0     O38252  11.327   6.050   3.865  0.6225 -0.4820 -0.5096
  284MOL0     C38253  11.060   5.834   3.760  0.6314  0.1441 -0.5614
  284MOL0     C38254  10.922   5.828   3.763  0.2233 -0.5555  0.4419
  284MOL0     N38255  10.142   6.243   3.869  0.3912 -0.9752  0.4820
  284MOL0     N38256  10.022   6.294   3.900 -0.4175 -0.2054  0.1927
  284MOL0     C38257   8.947   5.789   4.269  0.1437 -0.6815 -0.4730
  284MOL0     C38258   8.815   5.776   4.331  0.3712  0.0597 -0.4916
  284MOL0     C38259   8.417   5.799   4.481 -0.1446  0.5227 -0.1480
  284MOL0     C38260   8.407   5.817   4.624 -0.0431  0.3790  0.3571
  284MOL0     C38261   8.287   5.780   4.694  0.2983  0.1037 -0.1022
  284MOL0     C38262   8.181   5.710   4.629 -0.2580 -0.7321  0.3229
  284MOL0     O38263   8.093   5.651   4.706 -0.4966  0.5867 -0.3954
  284MOL0     C38264   7.998   5.568   4.643 -0.0013  0.4737 -0.1628
  284MOL0     C38265   8.045   5.429   4.618 -0.8239 -0.2462 -0.9125
  284MOL0     C38266   7.933   5.341   4.564  0.1107  0.8991  0.0994
  284MOL0     C38267   7.985   5.219   4.487 -0.2161 -0.1013 -0.6336
  284MOL0     C38268   7.979   5.236   4.339  0.7749 -0.2843 -0.7038
  284MOL0     C38269   7.984   5.262   4.219  0.2141  0.6111  0.2121
  284MOL0     C38270   8.192   5.706   4.489 -0.1354  0.3893 -0.4459
  284MOL0     C38271   8.308   5.745   4.413  0.0388 -0.0196  0.4273
  284MOL0     C38272   8.292   5.722   4.265 -0.4091 -0.1782 -0.0620
  284MOL0     H38273   8.623   5.784   4.061 -0.4358  0.6869  0.0521
  284MOL0     H38274   8.841   5.804   3.946  2.3122 -0.1182 -0.9505
  284MOL0     H38275   9.063   5.948   3.920  2.0270 -0.6422 -0.9443
  284MOL0     H38276   9.073   6.013   4.090 -2.2296 -2.1984  0.5821
  284MOL0     H38277   9.303   5.870   3.940 -0.3249 -1.6780 -0.2356
  284MOL0     H38278   9.306   5.952   4.095  0.8374 -2.2737 -0.6718
  284MOL0     H38279   9.251   6.168   4.001 -1.0579  0.2141 -0.3423
  284MOL0     H38280   9.216   6.101   3.844  0.6518 -0.5446 -0.5499
  284MOL0     H38281   9.484   6.095   3.983 -0.6094 -2.5244  0.8006
  284MOL0     H38282   9.449   6.051   3.810  3.3131  2.2810 -0.9643
  284MOL0     H38283   9.375   6.318   3.800 -0.1106 -2.1157  0.0917
  284MOL0     H38284   9.475   6.330   3.940  0.5798  0.6835 -1.2733
  284MOL0     H38285   9.533   6.255   3.650 -0.7657  2.7214 -0.9630
  284MOL0     H38286   9.584   6.398   3.736 -0.5095 -0.0642 -2.4466
  284MOL0     H38287   9.769   6.235   3.674  0.9460 -1.2897  0.0289
  284MOL0     H38288   9.674   6.104   3.733 -1.0053  0.8384 -2.0764
  284MOL0     H38289   9.773   6.331   3.917 -0.8431  0.7159 -4.6723
  284MOL0     H38290   9.734   6.161   3.968 -1.8834  0.0793 -0.6677
  284MOL0     H38291   9.935   5.984   3.829 -0.2485  0.0401 -1.1567
  284MOL0     H38292  10.211   5.906   3.821  0.1056  0.5313  1.6446
  284MOL0     H38293  10.245   6.016   3.701 -1.3436 -1.2575 -0.2959
  284MOL0     H38294  10.394   6.151   3.864  1.5427 -0.4303  0.3574
  284MOL0     H38295  10.333   6.037   3.993 -1.2112 -1.3586 -0.5666
  284MOL0     H38296  10.460   5.926   3.739  0.1233 -0.4475  0.8982
  284MOL0     H38297  10.445   5.844   3.890  0.2256 -0.6850  0.9846
  284MOL0     H38298  10.619   5.963   3.995  2.4636  1.1701 -0.2669
  284MOL0     H38299  10.650   6.079   3.875  0.5067  0.1173  1.5993
  284MOL0     H38300  10.848   6.100   3.950 -1.8054  0.0653 -2.1427
  284MOL0     H38301  11.100   6.102   3.949 -0.4582  0.3413  0.1384
  284MOL0     H38302  11.437   6.052   3.600  1.7790  1.5086 -2.1513
  284MOL0     H38303  11.687   6.100   3.553 -1.1916  0.4678  0.4881
  284MOL0     H38304  11.979   5.824   3.757  2.2285  1.7478  0.1370
  284MOL0     H38305  11.941   5.746   3.602 -0.9037  0.6557  0.5813
  284MOL0     H38306  12.118   5.985   3.625 -1.4312 -0.4620  0.2612
  284MOL0     H38307  12.178   5.816   3.621 -0.3302  1.1309  3.1515
  284MOL0     H38308  12.051   5.772   3.398  0.1626 -0.9965  0.9466
  284MOL0     H38309  12.019   5.946   3.395  1.7852  0.5488  1.0936
  284MOL0     H38310  12.298   5.814   3.356 -1.2208 -0.9759 -3.0291
  284MOL0     H38311  12.291   5.965   3.427 -0.5640 -0.4673  1.0529
  284MOL0     H38312  12.161   6.068   3.257 -0.1887  1.2481 -1.2961
  284MOL0     H38313  12.126   5.907   3.187  0.2003  0.4200 -0.7327
  284MOL0     H38314  12.404   5.886   3.172  2.1227  0.3462 -4.7552
  284MOL0     H38315  12.325   5.979   3.049  2.8757  0.3151 -0.4606
  284MOL0     H38316  12.391   6.144   3.295 -0.1081 -0.9419  0.3909
  284MOL0     H38317  12.403   6.174   3.120 -0.2749 -2.2829 -1.0050
  284MOL0     H38318  12.628   6.164   3.235 -3.6312  2.3528  0.2447
  284MOL0     H38319  12.580   6.012   3.308  1.9697  2.1959  1.2982
  284MOL0     H38320  11.772   5.740   3.766  1.6800  0.8575 -0.7772
  284MOL0     H38321  11.532   5.693   3.804  0.0620 -0.9918 -0.9945
  284MOL0     H38322  11.113   5.752   3.713  0.2744  1.8366 -4.3033
  284MOL0     H38323  10.874   5.741   3.719 -0.5750  0.8808 -1.7173
  284MOL0     H38324   9.026   5.798   4.343  1.3267 -1.3603 -1.6144
  284MOL0     H38325   8.805   5.754   4.437  2.7420  0.5499 -0.0945
  284MOL0     H38326   8.483   5.861   4.688  2.0091 -1.2582 -0.8562
  284MOL0     H38327   8.265   5.807   4.797 -2.5223 -0.9528 -0.3409
  284MOL0     H38328   7.954   5.604   4.549  2.0872  1.2937 -0.8948
  284MOL0     H38329   7.917   5.555   4.715 -0.8592  2.1290 -0.7806
  284MOL0     H38330   8.081   5.389   4.713 -0.6308 -0.0277 -0.8915
  284MOL0     H38331   8.126   5.428   4.545 -0.0021 -0.9561 -0.0124
  284MOL0     H38332   7.858   5.403   4.514 -1.8452  0.4277  2.2790
  284MOL0     H38333   7.880   5.299   4.650  0.4789 -1.2862 -0.6932
  284MOL0     H38334   8.085   5.204   4.529 -0.2269  3.6719  1.1192
  284MOL0     H38335   7.916   5.137   4.510 -0.7131  0.7031  0.9234
  284MOL0     H38336   7.994   5.290   4.117  1.5847 -2.0769 -0.4975
  284MOL0     H38337   8.115   5.655   4.433 -1.0422 -1.2260  2.0805
  284MOL0     H38338   8.260   5.814   4.215 -0.4634 -0.7134 -1.0392
  284MOL0     H38339   8.383   5.685   4.217 -0.7022  1.4814 -2.0538
  284MOL0     H38340   8.217   5.643   4.253 -0.9431  0.4305 -0.8451
  285MOL0     O38341   7.008   9.712   9.688 -0.1733 -0.7099  0.0552
  285MOL0     C38342   6.982   9.687   9.806  0.6709  0.3929  0.5872
  285MOL0     O38343   7.079   9.678   9.911  0.4715  0.0779  0.0083
  285MOL0     C38344   7.212   9.659   9.885 -0.5902  0.7724 -0.1343
  285MOL0     C38345   7.275   9.743   9.789  0.6309  0.2588  0.3936
  285MOL0     C38346   7.404   9.717   9.760  0.9431 -0.1243  0.7035
  285MOL0     C38347   7.479   9.625   9.839  0.4746 -0.0014  0.0582
  285MOL0     O38348   7.616   9.601   9.826  0.4896  0.4342 -0.5655
  285MOL0     C38349   7.694   9.706   9.774  0.6299  0.5830 -0.3041
  285MOL0     C38350   7.838   9.662   9.775 -1.4278 -0.8087  0.2138
  285MOL0     C38351   7.937   9.767   9.735 -0.3428  0.5490  1.0729
  285MOL0     C38352   7.978   9.871   9.840 -0.2624 -0.1395 -0.0619
  285MOL0     C38353   8.094   9.959   9.785 -0.1714 -0.3925 -0.0150
  285MOL0     C38354   8.146  10.059   9.892 -1.1314  0.3513  0.2100
  285MOL0     C38355   8.302  10.094   9.879  0.0341  0.1611 -0.2662
  285MOL0     C38356   8.335  10.144   9.734 -0.3365 -0.2786 -0.6844
  285MOL0     N38357   8.471  10.192   9.717  0.1092 -0.0610 -0.1164
  285MOL0     C38358   8.581  10.131   9.653  0.2178 -0.0868  0.6137
  285MOL0     C38359   8.682  10.217   9.675 -0.3736 -0.0322 -0.1117
  285MOL0     C38360   8.828  10.204   9.633  0.2192 -0.2380 -0.1119
  285MOL0     C38361   8.908  10.137   9.750  0.4526  0.2439 -0.7741
  285MOL0     C38362   8.927  10.238   9.861  0.0238 -0.1744 -0.1107
  285MOL0     C38363   8.991  10.170   9.983 -0.3023 -0.8853  0.0145
  285MOL0     O38364   9.001  10.254  10.098 -0.4681 -0.8770 -0.7460
  285MOL0     C38365   9.099  10.357  10.104  0.1462  0.2829 -0.4206
  285MOL0     C38366   9.201  10.359  10.015  0.0518  0.1756  0.9403
  285MOL0     C38367   9.308  10.448  10.028  0.3703 -0.0472  0.5139
  285MOL0     C38368   9.305  10.545  10.136 -0.3227 -0.0133 -0.1525
  285MOL0     C38369   9.417  10.639  10.133  0.0058 -0.4614 -0.6087
  285MOL0     O38370   9.407  10.734  10.234  0.3811 -0.6460  0.0749
  285MOL0     C38371   9.508  10.830  10.244  0.3469  0.7846  0.0758
  285MOL0     C38372   9.500  10.954  10.191 -1.5971  0.5026  1.1176
  285MOL0     C38373   9.606  11.044  10.197  0.4191  0.5880  1.0557
  285MOL0     C38374   9.722  11.014  10.263  0.1009 -0.1721 -0.0057
  285MOL0     O38375   9.814  11.112  10.279 -0.5828 -0.2723  0.0991
  285MOL0     C38376   9.908  11.086  10.382  0.2252  0.1805 -0.2519
  285MOL0     C38377   9.989  11.204  10.425 -1.3285 -0.8906  0.1389
  285MOL0     C38378  10.072  11.184  10.555  0.6454 -0.1534 -0.4673
  285MOL0     C38379  10.161  11.297  10.589 -0.8095  0.4571 -0.4062
  285MOL0     C38380  10.175  11.331  10.737 -0.3296 -0.0066 -0.7389
  285MOL0     C38381  10.239  11.218  10.823  0.1450 -0.3825 -0.2733
  285MOL0     C38382  10.390  11.214  10.832 -0.4849 -0.0722  0.4072
  285MOL0     C38383  10.429  11.071  10.866 -0.6901  0.5547 -0.1196
  285MOL0    Cl38384  10.591  11.074  10.931  0.0649 -0.0162 -0.1708
  285MOL0     C38385   9.738  10.881  10.319  0.8037  0.1165 -0.8364
  285MOL0     C38386   9.632  10.787  10.307  0.5756  0.1465  0.6361
  285MOL0     O38387   9.506  10.635  10.054  0.0323  0.2544 -0.3232
  285MOL0     C38388   9.209  10.522  10.244  0.3648  0.2812  0.8363
  285MOL0     C38389   9.109  10.425  10.232 -0.5153 -0.0975 -0.0247
  285MOL0     N38390   8.635  10.333   9.731  0.3877  0.2695  0.4746
  285MOL0     N38391   8.511  10.307   9.763  0.4343 -0.0374  0.7258
  285MOL0     C38392   7.426   9.553   9.943 -0.1286 -0.5099 -0.8401
  285MOL0     C38393   7.287   9.570   9.971  1.1538 -1.0070  0.5024
  285MOL0     C38394   6.852   9.669   9.842  0.2669  0.1211  0.5631
  285MOL0     C38395   6.816   9.708   9.976 -0.0129  0.3114 -0.1549
  285MOL0     C38396   6.688   9.671  10.019 -0.3477  0.0238 -0.1247
  285MOL0     C38397   6.590   9.625   9.937  0.0977  0.7142 -0.9081
  285MOL0     O38398   6.466   9.605   9.994  0.2144 -0.1504 -0.0065
  285MOL0     C38399   6.356   9.548   9.921  0.1521  0.7966 -0.9700
  285MOL0     C38400   6.269   9.651   9.842 -0.0199  0.5226 -1.4642
  285MOL0     C38401   6.191   9.738   9.951 -0.1247  0.0809  0.0986
  285MOL0     C38402   6.083   9.831   9.887  0.6282 -0.2678  0.1246
  285MOL0     C38403   6.152   9.937   9.814  0.8138 -0.2467 -1.1186
  285MOL0     C38404   6.198  10.028   9.755  0.4268 -0.4445 -0.1153
  285MOL0     C38405   6.627   9.585   9.806  0.6902  0.2007 -0.1001
  285MOL0     C38406   6.752   9.607   9.756  0.0002 -0.2896  0.6390
  285MOL0     C38407   6.777   9.578   9.609  0.6316 -0.2726  0.5176
  285MOL0     H38408   7.231   9.817   9.723  0.2637 -0.5890 -0.3355
  285MOL0     H38409   7.448   9.782   9.685 -3.1574 -0.5294 -2.4334
  285MOL0     H38410   7.667   9.712   9.668  0.5861 -2.9640 -0.6070
  285MOL0     H38411   7.682   9.801   9.827  1.1094 -0.2096  1.2941
  285MOL0     H38412   7.851   9.577   9.707  3.3515 -1.4008  1.5236
  285MOL0     H38413   7.866   9.625   9.874  1.1520  1.4026  0.3906
  285MOL0     H38414   7.901   9.836   9.658 -1.6737  0.6058  1.7127
  285MOL0     H38415   8.028   9.719   9.699 -1.0148  1.0887 -1.5319
  285MOL0     H38416   7.889   9.928   9.865 -0.2202  0.4497 -1.2071
  285MOL0     H38417   8.010   9.809   9.924 -1.2264 -3.4303 -1.9450
  285MOL0     H38418   8.170   9.883   9.762  1.2779  1.5395 -1.9006
  285MOL0     H38419   8.065  10.015   9.696  1.4733  0.1283 -0.2642
  285MOL0     H38420   8.082  10.147   9.879 -1.5683  0.1013  0.6763
  285MOL0     H38421   8.130  10.025   9.994 -0.7489  0.8651  0.4454
  285MOL0     H38422   8.351   9.997   9.893  1.2943  0.4913 -2.0368
  285MOL0     H38423   8.332  10.157   9.964 -1.2787 -0.1880  0.4872
  285MOL0     H38424   8.303  10.067   9.663 -2.2204 -1.2190  1.0877
  285MOL0     H38425   8.273  10.231   9.714 -1.8805 -1.5306 -1.5466
  285MOL0     H38426   8.579  10.037   9.598 -1.2267 -0.1398  0.7256
  285MOL0     H38427   8.833  10.136   9.548  2.1071  0.5571 -0.7022
  285MOL0     H38428   8.866  10.300   9.597  0.5142 -1.1417 -2.3446
  285MOL0     H38429   8.845  10.057   9.790  0.8333  0.4206  0.2054
  285MOL0     H38430   9.007  10.101   9.720 -0.3735 -2.1223 -0.9077
  285MOL0     H38431   8.830  10.285   9.878  0.3034  0.2788  0.2836
  285MOL0     H38432   8.990  10.315   9.814 -2.0721  2.2642  0.8726
  285MOL0     H38433   9.083  10.118   9.955 -1.8609 -2.8304 -1.8436
  285MOL0     H38434   8.922  10.092  10.017  0.3662 -0.4155  2.6689
  285MOL0     H38435   9.203  10.301   9.923 -1.9871  1.8739 -0.2605
  285MOL0     H38436   9.378  10.437   9.947 -1.0559  0.3458 -0.8275
  285MOL0     H38437   9.405  10.990  10.153 -0.6693  1.7643 -0.1368
  285MOL0     H38438   9.584  11.139  10.151  0.1979 -0.9433 -2.3406
  285MOL0     H38439   9.856  11.057  10.473  2.8022 -2.1399  0.6222
  285MOL0     H38440   9.965  10.998  10.351  0.6400 -0.0826  1.1694
  285MOL0     H38441  10.069  11.221  10.353 -1.1040  1.9709  0.9181
  285MOL0     H38442   9.940  11.301  10.434  2.7538  1.4434 -0.0968
  285MOL0     H38443  10.004  11.165  10.639  0.8508  1.6213  0.1522
  285MOL0     H38444  10.136  11.096  10.544  0.9092  0.0978 -0.9614
  285MOL0     H38445  10.126  11.386  10.535 -2.1246 -0.2943 -0.8186
  285MOL0     H38446  10.261  11.283  10.547  0.7250 -0.2552  3.0901
  285MOL0     H38447  10.086  11.371  10.786 -0.0611 -0.0115 -0.2410
  285MOL0     H38448  10.235  11.423  10.745 -0.1166 -0.1404 -0.7959
  285MOL0     H38449  10.192  11.231  10.921 -2.0015  2.3302 -1.5216
  285MOL0     H38450  10.199  11.127  10.778 -0.5423  1.2864 -3.3417
  285MOL0     H38451  10.427  11.289  10.902  0.5520 -0.9261  0.8188
  285MOL0     H38452  10.430  11.235  10.732  0.0934  0.0289  0.6554
  285MOL0     H38453  10.361  11.028  10.940 -1.6448  1.2087 -0.5875
  285MOL0     H38454  10.425  11.005  10.779 -1.0313 -1.6424  1.4783
  285MOL0     H38455   9.825  10.848  10.375  0.5258 -2.3503 -1.7252
  285MOL0     H38456   9.638  10.691  10.357  2.0042 -0.5488 -0.7831
  285MOL0     H38457   9.210  10.591  10.328  3.8449  0.5948  0.6729
  285MOL0     H38458   9.032  10.412  10.308  1.2777 -0.6676  1.7536
  285MOL0     H38459   7.482   9.475   9.993 -1.1769 -1.8799 -1.7412
  285MOL0     H38460   7.232   9.514  10.046  0.6336  0.0079  0.9056
  285MOL0     H38461   6.878   9.751  10.054 -2.0722  3.0658  0.1454
  285MOL0     H38462   6.666   9.685  10.124  0.8487  1.1003  0.0034
  285MOL0     H38463   6.287   9.509   9.997 -2.0789  0.0175 -3.2448
  285MOL0     H38464   6.377   9.468   9.850  0.9549 -0.7743  0.9366
  285MOL0     H38465   6.197   9.591   9.785 -0.0797 -0.4571 -0.4068
  285MOL0     H38466   6.331   9.708   9.773  1.0179  1.8074  0.4268
  285MOL0     H38467   6.264   9.800  10.005  0.5024  1.0152 -1.7503
  285MOL0     H38468   6.133   9.679  10.023 -0.3142 -0.4761 -0.5072
  285MOL0     H38469   6.010   9.782   9.822 -1.8933  0.9473  1.8662
  285MOL0     H38470   6.024   9.869   9.971 -0.3147  0.3188 -0.7846
  285MOL0     H38471   6.250  10.100   9.695  0.6260 -3.3780 -3.7805
  285MOL0     H38472   6.550   9.543   9.742  1.5106 -0.1012 -0.9041
  285MOL0     H38473   6.689   9.525   9.572 -0.0093  0.7321  0.5810
  285MOL0     H38474   6.765   9.668   9.548 -2.2285 -2.8404 -3.1268
  285MOL0     H38475   6.868   9.520   9.589  2.2363  1.9384  0.9215
  286MOL0     O38476   2.550   7.531   9.733 -0.3123  1.0230  1.0496
  286MOL0     C38477   2.502   7.626   9.671 -1.1235 -0.9333 -0.2913
  286MOL0     O38478   2.577   7.721   9.597 -0.3038  0.0503 -0.4092
  286MOL0     C38479   2.711   7.704   9.566  0.2094 -0.2187  0.0911
  286MOL0     C38480   2.778   7.582   9.547 -1.6955  0.0109  0.4604
  286MOL0     C38481   2.912   7.586   9.507 -0.4477 -0.7843  0.4228
  286MOL0     C38482   2.978   7.707   9.474 -0.9323  1.0313  0.2831
  286MOL0     O38483   3.109   7.709   9.435 -0.3771  0.2255 -0.6895
  286MOL0     C38484   3.207   7.669   9.542  1.0129  0.1854  0.3337
  286MOL0     C38485   3.345   7.717   9.491  0.1383  0.1753  0.4962
  286MOL0     C38486   3.453   7.622   9.466  0.7190 -0.4028 -0.2971
  286MOL0     C38487   3.407   7.520   9.364 -1.3135 -0.2927  0.6885
  286MOL0     C38488   3.493   7.396   9.364  0.6186  0.6654  0.2136
  286MOL0     C38489   3.449   7.316   9.242  0.7705 -0.2577 -1.1435
  286MOL0     C38490   3.473   7.167   9.252  0.3639 -0.1038 -0.5019
  286MOL0     C38491   3.470   7.091   9.121 -0.2142  0.5073  0.3022
  286MOL0     N38492   3.589   7.094   9.034  0.1401  0.0920 -1.0949
  286MOL0     C38493   3.618   7.188   8.936  0.1477 -0.3993 -0.1600
  286MOL0     C38494   3.744   7.155   8.893  0.1738  0.1919  0.3183
  286MOL0     C38495   3.822   7.231   8.793 -0.6658  0.6268 -0.6857
  286MOL0     C38496   3.910   7.136   8.713  0.3192  0.4169 -0.5013
  286MOL0     C38497   4.015   7.202   8.624 -0.1370  0.7075 -0.6175
  286MOL0     C38498   4.107   7.299   8.695 -0.0472 -0.3101 -0.6828
  286MOL0     O38499   4.240   7.283   8.647  1.3610  0.0766  0.2600
  286MOL0     C38500   4.345   7.361   8.681 -0.3733  0.1414 -0.4487
  286MOL0     C38501   4.335   7.483   8.747  0.3540  0.8460 -0.4677
  286MOL0     C38502   4.452   7.562   8.779 -0.5848  0.4144 -0.2844
  286MOL0     C38503   4.582   7.522   8.742  0.1567  0.2989  0.2950
  286MOL0     C38504   4.696   7.619   8.757  0.2580 -0.6087  0.0767
  286MOL0     O38505   4.708   7.697   8.863 -0.2640 -0.9655 -1.0996
  286MOL0     C38506   4.824   7.783   8.884  0.4457  0.2096  0.4867
  286MOL0     C38507   4.948   7.760   8.823  0.4992 -0.5971  0.2951
  286MOL0     C38508   5.055   7.847   8.850  0.6416  0.6183  0.7796
  286MOL0     C38509   5.045   7.954   8.949  0.6464 -0.4445  0.0941
  286MOL0     O38510   5.150   8.029   9.005  0.1925 -0.1568  0.1555
  286MOL0     C38511   5.276   8.041   8.941 -0.4516  0.4724  0.0276
  286MOL0     C38512   5.363   8.163   8.978  0.2200  0.4250  0.0150
  286MOL0     C38513   5.494   8.172   8.887 -0.1573 -0.4311 -0.1785
  286MOL0     C38514   5.585   8.299   8.928  0.1937  0.2588 -0.5936
  286MOL0     C38515   5.636   8.281   9.072  0.2039  0.4363 -0.8649
  286MOL0     C38516   5.742   8.390   9.121 -0.4885  0.5885  0.5004
  286MOL0     C38517   5.871   8.395   9.039 -0.7206  0.6329  0.0788
  286MOL0     C38518   5.967   8.501   9.094  0.1189  0.2643  0.0511
  286MOL0    Cl38519   6.142   8.453   9.054 -0.3563 -0.1328 -0.2897
  286MOL0     C38520   4.912   7.978   9.001  0.0158 -0.3879 -0.2469
  286MOL0     C38521   4.808   7.894   8.972 -0.2248  0.5674 -0.0991
  286MOL0     O38522   4.773   7.611   8.663  0.1442 -0.1751 -0.7439
  286MOL0     C38523   4.589   7.400   8.688 -0.4875  0.9417  0.6450
  286MOL0     C38524   4.476   7.320   8.658  0.5306  0.5295  0.2537
  286MOL0     N38525   3.787   7.050   8.971  0.1996  0.1186 -0.1098
  286MOL0     N38526   3.697   7.014   9.050  0.5229  0.6732  0.5429
  286MOL0     C38527   2.910   7.820   9.490 -0.0629 -0.6744 -0.4542
  286MOL0     C38528   2.781   7.821   9.542  0.0490  0.4868  0.9677
  286MOL0     C38529   2.359   7.653   9.706 -0.7398  0.3450 -0.1951
  286MOL0     C38530   2.263   7.547   9.708 -0.0998 -0.1532 -0.4253
  286MOL0     C38531   2.125   7.568   9.734 -0.9012 -0.0611 -0.2544
  286MOL0     C38532   2.086   7.694   9.769  0.0227 -0.4402  0.1561
  286MOL0     O38533   1.958   7.729   9.811 -0.1185  0.2718 -0.2468
  286MOL0     C38534   1.851   7.637   9.801 -0.1685  0.5096  0.2225
  286MOL0     C38535   1.735   7.709   9.874  0.7604  1.0409 -0.1096
  286MOL0     C38536   1.614   7.638   9.814  0.0148  1.2164  0.1091
  286MOL0     C38537   1.482   7.686   9.874  0.3103 -0.1578  0.9912
  286MOL0     C38538   1.461   7.823   9.838 -0.5618 -0.2197 -0.2176
  286MOL0     C38539   1.434   7.938   9.808 -0.6663 -0.4298 -0.5579
  286MOL0     C38540   2.174   7.807   9.784  0.1348  0.1276 -0.0632
  286MOL0     C38541   2.314   7.781   9.750  0.3786  0.0494  0.0984
  286MOL0     C38542   2.415   7.894   9.770 -0.1203  0.1809 -0.4315
  286MOL0     H38543   2.721   7.491   9.563 -0.2466 -0.6984  1.8673
  286MOL0     H38544   2.973   7.499   9.486 -0.5905 -0.2441 -2.7260
  286MOL0     H38545   3.182   7.707   9.641 -0.0382 -1.2396  0.6508
  286MOL0     H38546   3.194   7.561   9.559  0.4150 -0.3687 -2.9109
  286MOL0     H38547   3.381   7.770   9.580 -0.7070  0.6530  0.5636
  286MOL0     H38548   3.332   7.793   9.413  0.3815 -1.5036 -1.2493
  286MOL0     H38549   3.484   7.568   9.556 -0.0566 -0.5539 -0.1152
  286MOL0     H38550   3.536   7.684   9.431 -1.1847  3.0494  0.8605
  286MOL0     H38551   3.310   7.473   9.381  0.1510 -4.0854 -0.3104
  286MOL0     H38552   3.404   7.566   9.265 -0.5824 -1.2344  0.2006
  286MOL0     H38553   3.601   7.416   9.363  1.3819 -2.8063 -0.4250
  286MOL0     H38554   3.469   7.342   9.456 -0.7235 -2.1953 -1.6757
  286MOL0     H38555   3.343   7.336   9.222  0.6807  1.9304  0.9752
  286MOL0     H38556   3.511   7.355   9.161  0.1537 -0.6958 -1.8405
  286MOL0     H38557   3.392   7.121   9.309 -0.8757  1.8723 -0.5905
  286MOL0     H38558   3.570   7.148   9.299  0.7218 -1.2186 -1.6255
  286MOL0     H38559   3.445   6.988   9.145 -1.0118  0.8970  1.2161
  286MOL0     H38560   3.382   7.134   9.073 -1.3469 -0.1812  1.6909
  286MOL0     H38561   3.560   7.272   8.898  1.7862  2.1224  2.4914
  286MOL0     H38562   3.774   7.304   8.727  1.7527  0.7979 -2.3886
  286MOL0     H38563   3.888   7.294   8.853  0.6829  1.5231 -2.9814
  286MOL0     H38564   3.968   7.077   8.785 -2.1962 -0.6828  0.7528
  286MOL0     H38565   3.851   7.071   8.648 -1.2854  1.2323  0.0650
  286MOL0     H38566   3.960   7.249   8.542 -0.5816 -0.8080 -1.2209
  286MOL0     H38567   4.079   7.123   8.581 -2.2594 -0.5622 -1.5926
  286MOL0     H38568   4.100   7.297   8.805 -1.3611  3.3433 -0.5620
  286MOL0     H38569   4.070   7.398   8.669  1.0767  2.0208  5.0902
  286MOL0     H38570   4.233   7.516   8.767 -0.4776 -1.9875  0.4765
  286MOL0     H38571   4.441   7.663   8.817 -1.2431 -0.0317  0.7538
  286MOL0     H38572   4.974   7.673   8.764  1.6834  1.1083 -1.8631
  286MOL0     H38573   5.155   7.828   8.812  0.0837  0.8043 -0.8301
  286MOL0     H38574   5.339   7.952   8.951 -1.5886 -0.2478  0.9620
  286MOL0     H38575   5.244   8.052   8.837 -1.7667  1.6940  0.5256
  286MOL0     H38576   5.320   8.263   8.966  0.5377  0.5196 -0.3595
  286MOL0     H38577   5.398   8.141   9.080  0.5373  4.5731  0.9760
  286MOL0     H38578   5.550   8.079   8.904 -0.9439 -0.4464  3.0109
  286MOL0     H38579   5.472   8.175   8.780  3.5325  0.4466 -1.0311
  286MOL0     H38580   5.534   8.395   8.920  1.4788  1.1394  1.0389
  286MOL0     H38581   5.677   8.291   8.869  0.8230  0.2339  0.3644
  286MOL0     H38582   5.674   8.183   9.101 -2.1558 -0.0400  0.9551
  286MOL0     H38583   5.549   8.284   9.139  0.6929  1.9307 -0.2530
  286MOL0     H38584   5.705   8.492   9.122  0.5407  1.0078 -1.0006
  286MOL0     H38585   5.760   8.364   9.226 -1.6793  0.4989  0.6869
  286MOL0     H38586   5.854   8.405   8.931  1.3730  1.6280 -0.2040
  286MOL0     H38587   5.914   8.297   9.062  0.5982  1.9579  4.0548
  286MOL0     H38588   5.939   8.605   9.073 -0.0664  0.5084  1.4006
  286MOL0     H38589   5.950   8.504   9.202 -1.2798 -0.3732 -0.1252
  286MOL0     H38590   4.899   8.064   9.066  1.0257 -0.6140  0.2591
  286MOL0     H38591   4.718   7.911   9.030  0.4931  1.2853  0.8332
  286MOL0     H38592   4.686   7.357   8.664 -0.2425 -0.1696  3.3381
  286MOL0     H38593   4.509   7.222   8.625  0.2079  0.0757  1.2493
  286MOL0     H38594   2.956   7.915   9.464 -2.2695  0.1504 -1.6918
  286MOL0     H38595   2.745   7.923   9.554 -1.9604  0.1591 -1.4109
  286MOL0     H38596   2.288   7.443   9.688  1.1486 -0.2627  1.4399
  286MOL0     H38597   2.052   7.488   9.726  0.0506 -0.9884  0.0431
  286MOL0     H38598   1.862   7.537   9.845 -0.9337 -0.5180 -1.7856
  286MOL0     H38599   1.831   7.613   9.697  1.1325 -1.4051  0.3646
  286MOL0     H38600   1.736   7.817   9.863  2.9556  1.2223  1.1635
  286MOL0     H38601   1.745   7.678   9.979  0.8209 -0.1885 -0.4610
  286MOL0     H38602   1.620   7.531   9.836  0.6116  1.6721  2.4003
  286MOL0     H38603   1.608   7.647   9.705 -0.4017 -0.4321 -0.0276
  286MOL0     H38604   1.401   7.629   9.829  0.7028 -0.5020  0.7079
  286MOL0     H38605   1.474   7.676   9.982 -0.5474 -1.6311  0.8129
  286MOL0     H38606   1.397   8.035   9.783 -1.1972 -1.0658 -2.3674
  286MOL0     H38607   2.138   7.900   9.825  0.9212  0.3211  0.2150
  286MOL0     H38608   2.409   7.968   9.690  2.0626  0.5205 -0.3491
  286MOL0     H38609   2.396   7.947   9.864  1.8507  0.4699 -0.1665
  286MOL0     H38610   2.519   7.869   9.792 -0.9543 -3.0211  0.3738
  287MOL0     O38611   4.912   0.140   0.152 -0.0862  0.4379  0.6238
  287MOL0     C38612   4.887   0.106   0.032 -0.4265 -0.0938 -0.1959
  287MOL0     O38613   4.971   0.042  -0.056  0.3378  0.3081  0.0880
  287MOL0     C38614   5.103  -0.002  -0.019  0.9222 -0.2131 -0.9934
  287MOL0     C38615   5.153  -0.123  -0.059  0.8900 -0.2489 -0.2246
  287MOL0     C38616   5.285  -0.159  -0.048  0.3824  0.3008  0.1891
  287MOL0     C38617   5.375  -0.074   0.007 -0.8756 -1.3778 -0.0935
  287MOL0     O38618   5.509  -0.106  -0.010 -0.4999  0.1772 -0.7202
  287MOL0     C38619   5.605  -0.027   0.057 -0.4262  0.1476 -0.6351
  287MOL0     C38620   5.749  -0.091   0.048 -0.4509  0.4938 -0.0818
  287MOL0     C38621   5.846   0.002   0.120  0.3533  0.6333  0.3988
  287MOL0     C38622   5.978  -0.054   0.171  0.5927  0.2409  0.3535
  287MOL0     C38623   6.028   0.020   0.300  0.6067  0.7988  0.7001
  287MOL0     C38624   6.150  -0.043   0.360  0.5420  0.6131 -0.7437
  287MOL0     C38625   6.149  -0.192   0.401  0.4842 -0.3242  0.1523
  287MOL0     C38626   6.262  -0.232   0.487 -0.2944  0.3724  0.1276
  287MOL0     N38627   6.388  -0.233   0.410 -0.1193  0.1985  0.4153
  287MOL0     C38628   6.405  -0.304   0.292 -0.2784 -0.2815  0.2918
  287MOL0     C38629   6.536  -0.301   0.270  0.0120 -0.0167 -1.1096
  287MOL0     C38630   6.602  -0.369   0.164  0.0366 -0.0182 -0.1260
  287MOL0     C38631   6.672  -0.490   0.222 -0.2285  1.7767 -0.1471
  287MOL0     C38632   6.755  -0.566   0.114  1.4643  0.4981  0.2680
  287MOL0     C38633   6.847  -0.673   0.180 -0.8387  0.2153  0.4011
  287MOL0     O38634   6.924  -0.749   0.085 -0.6295  0.1838 -0.7392
  287MOL0     C38635   7.021  -0.839   0.127  0.6626  0.2000 -0.4905
  287MOL0     C38636   7.100  -0.886   0.017  0.0514  0.8083 -0.6592
  287MOL0     C38637   7.211  -0.966   0.053 -1.5708  0.4154  0.4981
  287MOL0     C38638   7.236  -1.017   0.181  0.6996  0.4393  1.3341
  287MOL0     C38639   7.348  -1.105   0.213  1.3241  0.6945  0.1736
  287MOL0     O38640   7.343  -1.156   0.340 -0.0549  0.5104  0.0575
  287MOL0     C38641   7.459  -1.204   0.387 -0.2526 -0.5951 -0.0585
  287MOL0     C38642   7.490  -1.336   0.367 -0.5031  0.2198  0.0841
  287MOL0     C38643   7.606  -1.389   0.422 -0.1661  0.2447 -0.3364
  287MOL0     C38644   7.693  -1.322   0.506  0.2965 -0.2048  0.5393
  287MOL0     O38645   7.805  -1.385   0.554  0.3631  0.0134 -0.4391
  287MOL0     C38646   7.888  -1.319   0.659 -0.5230 -0.4330 -0.1515
  287MOL0     C38647   8.004  -1.404   0.703 -0.1265 -0.0801  0.4043
  287MOL0     C38648   8.101  -1.328   0.796 -0.3204  0.1951  0.5439
  287MOL0     C38649   8.216  -1.425   0.844  0.0269  0.2723 -0.4324
  287MOL0     C38650   8.318  -1.342   0.920 -0.4474 -0.1420 -0.4337
  287MOL0     C38651   8.253  -1.313   1.055  0.0597  0.1933 -0.5759
  287MOL0     C38652   8.306  -1.184   1.108 -0.2054  0.0647 -0.4461
  287MOL0     C38653   8.462  -1.195   1.123 -0.9166 -0.1009  0.0320
  287MOL0    Cl38654   8.533  -1.029   1.158  0.2349 -0.6465 -0.1963
  287MOL0     C38655   7.656  -1.184   0.526  0.3365  0.4308  0.6171
  287MOL0     C38656   7.544  -1.121   0.460 -0.4359 -0.6191 -0.2497
  287MOL0     O38657   7.442  -1.104   0.136 -0.1016  0.5882 -0.1683
  287MOL0     C38658   7.157  -0.956   0.280  0.4060  0.9577 -0.1887
  287MOL0     C38659   7.044  -0.878   0.262 -0.1910  0.5133  0.2997
  287MOL0     N38660   6.602  -0.227   0.378  0.3586 -0.1680  0.4295
  287MOL0     N38661   6.509  -0.198   0.462 -0.5913  0.1516 -0.5542
  287MOL0     C38662   5.329   0.050   0.058 -0.0172  0.4236 -0.0171
  287MOL0     C38663   5.186   0.080   0.059 -0.5816 -0.4824  0.4104
  287MOL0     C38664   4.760   0.156  -0.036  0.3655  0.4867  0.1015
  287MOL0     C38665   4.723   0.103  -0.161  0.4915  0.3306  0.1919
  287MOL0     C38666   4.602   0.125  -0.221  0.1096  0.6018  0.7040
  287MOL0     C38667   4.498   0.194  -0.160  0.2924  0.4260 -0.3895
  287MOL0     O38668   4.368   0.199  -0.214 -0.0360  0.1053 -0.7350
  287MOL0     C38669   4.285   0.313  -0.193 -0.1150  0.5406 -0.7041
  287MOL0     C38670   4.150   0.263  -0.134  0.2065  0.2385 -0.3314
  287MOL0     C38671   4.065   0.155  -0.203 -0.3447 -0.3545 -0.0414
  287MOL0     C38672   3.943   0.218  -0.281  0.3017  0.0379 -0.6580
  287MOL0     C38673   3.875   0.110  -0.350  0.3887 -0.7425  0.3531
  287MOL0     C38674   3.814   0.050  -0.435  0.2607 -0.0446  0.6524
  287MOL0     C38675   4.529   0.239  -0.028  0.4439 -0.1686 -0.2406
  287MOL0     C38676   4.654   0.230   0.025 -0.0934 -0.3027  0.1149
  287MOL0     C38677   4.654   0.278   0.168  0.4265  0.1742 -0.4886
  287MOL0     H38678   5.094  -0.202  -0.105 -0.4123 -1.2088  2.8249
  287MOL0     H38679   5.319  -0.253  -0.090 -1.2243  0.5191 -1.7717
  287MOL0     H38680   5.609   0.069   0.005  2.4520 -1.3922 -3.6786
  287MOL0     H38681   5.589  -0.021   0.165  1.1446 -3.5145 -0.0539
  287MOL0     H38682   5.782  -0.108  -0.055  0.3506  0.0092  0.2395
  287MOL0     H38683   5.733  -0.186   0.101 -1.5894  0.6362 -0.1527
  287MOL0     H38684   5.795   0.050   0.204 -1.2358 -0.0673 -0.1221
  287MOL0     H38685   5.866   0.089   0.056  1.8658  1.5219  1.9971
  287MOL0     H38686   5.967  -0.154   0.213  2.9444  0.1662  0.9054
  287MOL0     H38687   6.053  -0.062   0.092  2.2615  0.9287  1.8087
  287MOL0     H38688   6.059   0.124   0.285  1.7368  0.6660  1.9224
  287MOL0     H38689   5.949   0.021   0.377  1.5552 -2.6329  1.8851
  287MOL0     H38690   6.242  -0.020   0.307 -0.5290  2.1016 -2.0362
  287MOL0     H38691   6.166   0.007   0.456  1.9130 -0.9354 -0.1094
  287MOL0     H38692   6.146  -0.251   0.309  0.1017 -1.2086  0.7196
  287MOL0     H38693   6.055  -0.203   0.457  1.2238  2.6412  2.2757
  287MOL0     H38694   6.277  -0.171   0.577  2.7991  2.1970 -1.4550
  287MOL0     H38695   6.248  -0.334   0.522  0.1372  0.8746  1.8711
  287MOL0     H38696   6.324  -0.358   0.245  0.1539 -0.2663 -0.4985
  287MOL0     H38697   6.534  -0.409   0.089  0.2338  0.6130 -0.6519
  287MOL0     H38698   6.671  -0.296   0.119 -1.1123  1.0891 -0.1392
  287MOL0     H38699   6.739  -0.452   0.299 -0.8390  1.1868  0.6845
  287MOL0     H38700   6.606  -0.560   0.273 -0.6766 -0.3508 -3.3247
  287MOL0     H38701   6.825  -0.497   0.066  1.2759 -1.0602 -2.4151
  287MOL0     H38702   6.686  -0.616   0.046 -1.6019 -1.1583  4.2089
  287MOL0     H38703   6.794  -0.739   0.249  0.6285 -0.0344  1.3388
  287MOL0     H38704   6.921  -0.622   0.244  0.0961 -0.1678 -0.3477
  287MOL0     H38705   7.098  -0.828  -0.074  0.3966  2.1268  0.1490
  287MOL0     H38706   7.279  -1.006  -0.021  0.0902  1.6600  1.2762
  287MOL0     H38707   7.428  -1.406   0.312  1.8647 -0.0447 -2.5141
  287MOL0     H38708   7.625  -1.495   0.410  1.8309  0.5955 -0.6377
  287MOL0     H38709   7.936  -1.231   0.615 -2.3097 -0.3027 -1.9592
  287MOL0     H38710   7.827  -1.279   0.740  3.9003  3.2199  1.8139
  287MOL0     H38711   7.977  -1.499   0.748 -0.9878 -1.3661 -2.5528
  287MOL0     H38712   8.058  -1.437   0.613  0.2897 -2.1702  1.3772
  287MOL0     H38713   8.145  -1.240   0.749 -1.3402 -0.1015 -1.0421
  287MOL0     H38714   8.047  -1.281   0.878 -0.2244  1.2797 -0.0039
  287MOL0     H38715   8.259  -1.479   0.760  0.2123 -0.0385 -0.1418
  287MOL0     H38716   8.161  -1.496   0.908 -0.4982 -0.8447 -2.0619
  287MOL0     H38717   8.326  -1.248   0.864  1.9505 -2.2926 -4.1521
  287MOL0     H38718   8.415  -1.390   0.933  0.2594  1.4896  0.6304
  287MOL0     H38719   8.144  -1.309   1.046  0.2850  2.2037 -3.8238
  287MOL0     H38720   8.263  -1.386   1.137 -0.0264  0.4280 -0.3531
  287MOL0     H38721   8.260  -1.164   1.205  1.8106 -0.3183  0.6251
  287MOL0     H38722   8.278  -1.109   1.032  0.4841 -2.6010 -3.5660
  287MOL0     H38723   8.485  -1.261   1.208 -0.0181 -0.2176 -0.2899
  287MOL0     H38724   8.507  -1.239   1.034 -0.9506  1.1739 -0.6448
  287MOL0     H38725   7.719  -1.121   0.588  0.2611  0.2970  0.8306
  287MOL0     H38726   7.520  -1.017   0.481 -2.7891 -1.3850  1.2710
  287MOL0     H38727   7.189  -0.981   0.381 -0.1653 -2.1090 -0.6681
  287MOL0     H38728   6.993  -0.840   0.350  2.0434 -1.3977  2.5629
  287MOL0     H38729   5.381   0.131   0.108  0.1571 -0.0499  0.5848
  287MOL0     H38730   5.151   0.179   0.088  0.6111 -0.3948  1.6522
  287MOL0     H38731   4.790   0.032  -0.208  0.6678  0.0981  0.7863
  287MOL0     H38732   4.575   0.076  -0.314  1.7441  0.0029  0.5194
  287MOL0     H38733   4.274   0.361  -0.291 -0.6464  1.7428 -0.0814
  287MOL0     H38734   4.332   0.387  -0.126  4.6995 -1.0600 -1.8917
  287MOL0     H38735   4.091   0.354  -0.132 -1.2132 -0.4062 -4.1746
  287MOL0     H38736   4.164   0.245  -0.027 -0.6507  1.8110  0.0674
  287MOL0     H38737   4.023   0.077  -0.139 -1.5346  0.9397  0.8201
  287MOL0     H38738   4.134   0.107  -0.273  1.7984  1.9881  0.3377
  287MOL0     H38739   3.872   0.264  -0.211  0.2613 -0.6245 -0.2600
  287MOL0     H38740   3.964   0.299  -0.352 -0.2886 -0.4135 -1.3641
  287MOL0     H38741   3.743  -0.008  -0.490  1.4939 -1.2160  0.2287
  287MOL0     H38742   4.450   0.276   0.036 -0.6616 -1.0465 -1.0711
  287MOL0     H38743   4.638   0.192   0.233  2.3169 -1.0619 -1.5636
  287MOL0     H38744   4.753   0.319   0.192 -1.1959  2.6331  2.7865
  287MOL0     H38745   4.575   0.347   0.200 -0.1617 -0.3647 -0.7638
  288MOL0     O38746   2.260   0.703   3.936  0.8091  0.1008 -0.4750
  288MOL0     C38747   2.187   0.618   3.896 -0.0528  0.4140  0.8700
  288MOL0     O38748   2.222   0.480   3.886  0.1695  0.4944  0.0600
  288MOL0     C38749   2.355   0.445   3.901 -0.7000 -0.2145 -0.2169
  288MOL0     C38750   2.422   0.462   4.024 -0.1176  0.8732  0.4759
  288MOL0     C38751   2.551   0.416   4.058  0.5024 -0.2501  0.4837
  288MOL0     C38752   2.627   0.369   3.950  0.0363  0.2354  0.0442
  288MOL0     O38753   2.764   0.338   3.965  0.3091  0.0127 -0.2710
  288MOL0     C38754   2.846   0.425   4.048 -0.1915  0.2991  1.8030
  288MOL0     C38755   2.988   0.394   4.008 -0.0854 -0.5064 -0.0214
  288MOL0     C38756   3.014   0.254   4.060  0.7237  0.8668 -0.0305
  288MOL0     C38757   3.160   0.217   4.042 -0.4968  0.0734  0.4135
  288MOL0     C38758   3.180   0.067   4.058 -0.1567  0.3310 -0.0825
  288MOL0     C38759   3.327   0.026   4.053  0.9531 -0.1212  0.8941
  288MOL0     C38760   3.365  -0.126   4.037 -0.1321 -0.5523  0.5793
  288MOL0     C38761   3.290  -0.209   4.147 -0.5244 -0.2526 -0.1144
  288MOL0     N38762   3.332  -0.350   4.135  0.0017  0.0627 -0.8226
  288MOL0     C38763   3.259  -0.458   4.090 -0.5992 -0.5444  0.0609
  288MOL0     C38764   3.345  -0.561   4.081  0.7921  0.2416  0.2852
  288MOL0     C38765   3.319  -0.702   4.044 -0.1120  0.4362  0.0513
  288MOL0     C38766   3.300  -0.804   4.165  0.2796  1.0833 -0.2369
  288MOL0     C38767   3.148  -0.805   4.213 -0.0840  0.1803  0.1094
  288MOL0     C38768   3.048  -0.849   4.101 -0.4520  0.4482 -0.0912
  288MOL0     O38769   2.952  -0.937   4.159  0.0223 -0.0602 -0.4112
  288MOL0     C38770   2.828  -0.942   4.108  0.9282 -0.3286  0.6683
  288MOL0     C38771   2.813  -0.990   3.971 -0.3137 -0.7427 -0.1815
  288MOL0     C38772   2.683  -0.999   3.910  0.3721  0.6255 -0.5808
  288MOL0     C38773   2.569  -0.958   3.980 -0.3648  0.1446 -0.4530
  288MOL0     C38774   2.441  -0.957   3.912  0.5423  0.4176 -1.2966
  288MOL0     O38775   2.431  -1.030   3.794 -0.0630  0.1119  0.6654
  288MOL0     C38776   2.312  -1.051   3.731 -0.7160  0.2184 -0.2448
  288MOL0     C38777   2.305  -1.028   3.593  0.2891  0.3041  0.5484
  288MOL0     C38778   2.185  -1.051   3.520  0.1523 -0.8457 -0.6257
  288MOL0     C38779   2.067  -1.094   3.588 -0.3205  0.0753  0.2309
  288MOL0     O38780   1.952  -1.101   3.514 -0.3095 -0.1956 -0.4268
  288MOL0     C38781   1.820  -1.106   3.581 -0.3374  0.0591  0.5540
  288MOL0     C38782   1.717  -1.110   3.470 -0.1146  0.0778 -0.6818
  288MOL0     C38783   1.717  -1.245   3.403 -0.8637 -0.4127 -0.1506
  288MOL0     C38784   1.619  -1.243   3.281 -0.2113 -0.0878 -0.2010
  288MOL0     C38785   1.632  -1.377   3.208  0.1019  0.0474  0.2447
  288MOL0     C38786   1.525  -1.412   3.095  0.2444 -0.3842  0.5969
  288MOL0     C38787   1.524  -1.320   2.975  0.4372 -0.8572 -0.4545
  288MOL0     C38788   1.401  -1.239   2.973  0.3711 -0.3571  0.7841
  288MOL0    Cl38789   1.277  -1.351   2.907 -0.1642 -0.5006 -0.2724
  288MOL0     C38790   2.076  -1.133   3.719  0.5628 -0.8856 -0.2524
  288MOL0     C38791   2.201  -1.114   3.788  0.5178 -0.8630 -1.1572
  288MOL0     O38792   2.351  -0.898   3.972 -0.1136 -0.4706 -0.4229
  288MOL0     C38793   2.583  -0.914   4.116 -0.4379  0.6841 -0.5582
  288MOL0     C38794   2.709  -0.907   4.178  0.0920 -1.0399 -0.5537
  288MOL0     N38795   3.468  -0.515   4.107 -0.0347 -0.2049 -0.9149
  288MOL0     N38796   3.467  -0.387   4.139  0.3912  0.1260 -0.1973
  288MOL0     C38797   2.568   0.350   3.822  1.4910 -0.0178 -0.1596
  288MOL0     C38798   2.430   0.378   3.805  0.7116 -0.3307  0.9005
  288MOL0     C38799   2.055   0.653   3.854  0.8103  0.1730 -0.8837
  288MOL0     C38800   1.973   0.552   3.802 -0.6669 -0.6947 -0.7802
  288MOL0     C38801   1.842   0.575   3.780  0.7842  0.2643  0.2688
  288MOL0     C38802   1.776   0.696   3.814 -0.5571 -1.0027  0.0660
  288MOL0     O38803   1.637   0.704   3.786  0.1063  0.3366 -0.8747
  288MOL0     C38804   1.578   0.829   3.829  0.3463  0.6732 -0.4638
  288MOL0     C38805   1.434   0.827   3.785  0.1627 -0.1415 -0.6374
  288MOL0     C38806   1.350   0.719   3.864 -0.2979 -0.0064  0.5016
  288MOL0     C38807   1.209   0.696   3.819  0.7353  0.2962  0.1688
  288MOL0     C38808   1.133   0.814   3.804 -0.2845  1.2582 -0.7845
  288MOL0     C38809   1.080   0.917   3.798  0.0621  0.1362  0.0207
  288MOL0     C38810   1.854   0.790   3.886  0.8475 -0.1328  0.3600
  288MOL0     C38811   1.991   0.776   3.901 -0.1820 -0.2451  0.7640
  288MOL0     C38812   2.058   0.897   3.961  0.9851 -0.3306 -0.5030
  288MOL0     H38813   2.366   0.503   4.108 -2.3476 -1.8967  0.4818
  288MOL0     H38814   2.597   0.417   4.156  1.0861 -0.9648  0.2276
  288MOL0     H38815   2.826   0.532   4.033  0.0004  0.1008 -0.1579
  288MOL0     H38816   2.829   0.399   4.152 -0.6304  1.5180  2.0579
  288MOL0     H38817   3.046   0.469   4.064  2.1545 -1.4215 -1.0120
  288MOL0     H38818   3.007   0.413   3.902 -0.8428  0.4448 -0.0105
  288MOL0     H38819   2.945   0.178   4.021  4.0325 -1.0945 -2.5568
  288MOL0     H38820   2.991   0.253   4.167 -1.7758  2.8913 -0.4396
  288MOL0     H38821   3.183   0.245   3.939  0.0419  0.8699  0.7445
  288MOL0     H38822   3.223   0.276   4.110  0.4466 -1.3372  0.7890
  288MOL0     H38823   3.135   0.030   4.150 -0.9544 -1.8563 -1.2874
  288MOL0     H38824   3.135   0.018   3.971 -0.0963  0.5205 -0.2206
  288MOL0     H38825   3.372   0.073   3.965  1.2602  0.0641  1.1454
  288MOL0     H38826   3.371   0.058   4.149  0.8675 -0.1781  0.9526
  288MOL0     H38827   3.474  -0.132   4.036 -0.1224 -0.7916  1.8219
  288MOL0     H38828   3.318  -0.160   3.944 -1.1122  1.8348  0.1068
  288MOL0     H38829   3.326  -0.177   4.245 -0.3399  0.1122 -0.2971
  288MOL0     H38830   3.182  -0.197   4.133 -0.6992  0.0921  1.3774
  288MOL0     H38831   3.158  -0.465   4.049 -0.1601 -0.9028 -0.9884
  288MOL0     H38832   3.236  -0.703   3.972  0.2131  1.7312 -0.3789
  288MOL0     H38833   3.411  -0.731   3.992  0.0464  1.0422 -0.0124
  288MOL0     H38834   3.326  -0.904   4.130 -0.5028 -0.6395  3.5928
  288MOL0     H38835   3.367  -0.794   4.251 -1.7789  0.7025  1.5033
  288MOL0     H38836   3.124  -0.705   4.250 -0.4232  0.0864  0.1499
  288MOL0     H38837   3.134  -0.865   4.303 -2.2055  0.1551 -0.1738
  288MOL0     H38838   3.096  -0.909   4.023 -1.1028 -0.1650 -0.0271
  288MOL0     H38839   3.002  -0.758   4.061 -0.2014  1.1231  1.1262
  288MOL0     H38840   2.905  -1.028   3.927 -0.7925 -1.1300 -0.8708
  288MOL0     H38841   2.678  -1.039   3.810  0.9866 -2.5474  0.5448
  288MOL0     H38842   2.398  -0.987   3.554 -0.2608 -0.3957 -1.6243
  288MOL0     H38843   2.175  -1.014   3.418  2.2928 -2.6820 -1.5941
  288MOL0     H38844   1.799  -1.189   3.650 -3.8674 -0.2347 -0.6619
  288MOL0     H38845   1.805  -1.014   3.638  3.2916  1.6879 -0.8458
  288MOL0     H38846   1.620  -1.092   3.517  0.5215  4.3702 -0.6176
  288MOL0     H38847   1.725  -1.026   3.400  1.2047  0.0966 -0.5160
  288MOL0     H38848   1.818  -1.267   3.366 -1.0772 -1.5779 -0.0871
  288MOL0     H38849   1.696  -1.323   3.477 -2.8049 -1.0073 -1.2672
  288MOL0     H38850   1.649  -1.158   3.220 -0.5660 -0.1698 -0.4952
  288MOL0     H38851   1.520  -1.231   3.326  0.3587 -3.6398  2.4798
  288MOL0     H38852   1.620  -1.460   3.278  2.1939 -0.9734 -0.5271
  288MOL0     H38853   1.737  -1.383   3.177 -0.7598  1.8168 -3.5558
  288MOL0     H38854   1.558  -1.510   3.059  0.0710 -1.4271  3.0531
  288MOL0     H38855   1.424  -1.426   3.136 -1.2748 -0.5687 -2.9131
  288MOL0     H38856   1.524  -1.380   2.884 -0.7099 -0.9562 -0.4081
  288MOL0     H38857   1.604  -1.246   2.982 -0.1905 -0.3562  2.7602
  288MOL0     H38858   1.376  -1.187   3.066 -0.5465 -1.1152  0.9713
  288MOL0     H38859   1.412  -1.165   2.893  0.6279  0.4373  1.5344
  288MOL0     H38860   1.991  -1.162   3.779 -0.0929 -2.1665 -1.7330
  288MOL0     H38861   2.200  -1.131   3.895 -0.6938 -1.3455 -1.2300
  288MOL0     H38862   2.497  -0.883   4.174  0.8041 -1.1503  2.5354
  288MOL0     H38863   2.709  -0.875   4.282  0.6920 -1.3530 -0.4490
  288MOL0     H38864   2.619   0.312   3.734  1.0635  0.1099 -0.4613
  288MOL0     H38865   2.385   0.363   3.707  4.3313 -0.6236 -0.8646
  288MOL0     H38866   2.018   0.464   3.756 -0.6026 -3.0876  3.3866
  288MOL0     H38867   1.782   0.503   3.726 -2.1990  2.4832  0.3402
  288MOL0     H38868   1.630   0.913   3.781  1.4584 -0.8535 -2.0203
  288MOL0     H38869   1.591   0.840   3.937  0.7513 -1.3001 -0.2848
  288MOL0     H38870   1.433   0.796   3.680  0.2585  0.3192 -0.7786
  288MOL0     H38871   1.389   0.925   3.802  0.6439  0.6185 -3.2005
  288MOL0     H38872   1.352   0.740   3.972 -0.7709 -4.9076  1.7210
  288MOL0     H38873   1.395   0.620   3.850 -2.5319 -0.9025 -0.7788
  288MOL0     H38874   1.231   0.657   3.719  1.5578 -1.6814  1.0415
  288MOL0     H38875   1.155   0.626   3.884  0.7599  0.4238  0.3276
  288MOL0     H38876   1.039   1.016   3.787 -0.3251  0.1057  1.0983
  288MOL0     H38877   1.807   0.879   3.927  1.0293  0.3481 -0.4539
  288MOL0     H38878   1.986   0.979   3.962  1.2051 -0.0269 -2.9754
  288MOL0     H38879   2.093   0.877   4.063  2.4978  1.1510 -0.6715
  288MOL0     H38880   2.135   0.943   3.898 -0.2812  0.1026 -1.7868
  289MOL0     O38881   5.643   8.360   3.891  0.0934 -0.7357  0.2480
  289MOL0     C38882   5.602   8.418   3.785 -0.0136  0.7826  1.0855
  289MOL0     O38883   5.686   8.478   3.692 -0.3580 -0.1667  0.5382
  289MOL0     C38884   5.818   8.497   3.728 -0.5822  0.5856 -0.1938
  289MOL0     C38885   5.907   8.387   3.750 -0.0648 -0.1860 -0.1791
  289MOL0     C38886   6.043   8.406   3.772  0.5216  0.0454  0.1775
  289MOL0     C38887   6.093   8.544   3.764  0.7381  1.0894  0.1059
  289MOL0     O38888   6.224   8.571   3.788 -0.1004 -0.7307  0.0481
  289MOL0     C38889   6.304   8.480   3.865 -0.1994  0.4093 -0.8300
  289MOL0     C38890   6.434   8.551   3.899 -0.8499 -0.3269  0.6477
  289MOL0     C38891   6.500   8.476   4.010  0.2676  0.7963  0.4944
  289MOL0     C38892   6.639   8.536   4.048 -0.7631 -0.2668  0.3733
  289MOL0     C38893   6.741   8.425   4.094  1.0399 -0.4595  0.2714
  289MOL0     C38894   6.879   8.478   4.119  0.4517 -0.3699  0.6936
  289MOL0     C38895   6.994   8.381   4.113  1.1057 -0.2855  0.3219
  289MOL0     C38896   7.132   8.442   4.084  0.0592  0.4806  0.5091
  289MOL0     N38897   7.176   8.535   4.183 -0.3115 -0.1308 -0.2171
  289MOL0     C38898   7.277   8.508   4.272 -0.1734 -0.1163 -0.1278
  289MOL0     C38899   7.296   8.628   4.328 -0.1399 -0.0401 -0.2161
  289MOL0     C38900   7.405   8.648   4.428  0.6302  0.0637  0.6491
  289MOL0     C38901   7.542   8.684   4.349  0.2430  0.3103 -0.3802
  289MOL0     C38902   7.596   8.558   4.267  0.6514  0.1748 -0.1240
  289MOL0     C38903   7.746   8.562   4.246  0.7461  0.2204  0.6891
  289MOL0     O38904   7.807   8.532   4.375  0.1392  0.1667 -0.0566
  289MOL0     C38905   7.937   8.492   4.389  0.0620  0.3625  0.1949
  289MOL0     C38906   8.021   8.483   4.278  0.0375  0.2135  0.1359
  289MOL0     C38907   8.143   8.424   4.302 -0.3020  0.6304 -0.6981
  289MOL0     C38908   8.196   8.379   4.427  1.2191  0.0688  0.6145
  289MOL0     C38909   8.322   8.316   4.437 -0.4690  0.0226 -0.8612
  289MOL0     O38910   8.409   8.335   4.332 -0.0789  0.0943 -0.4134
  289MOL0     C38911   8.533   8.272   4.312  0.0809 -0.4031  0.1196
  289MOL0     C38912   8.627   8.341   4.231  0.6993  0.3524  0.1118
  289MOL0     C38913   8.754   8.296   4.209 -0.2259  0.7719 -0.8082
  289MOL0     C38914   8.800   8.172   4.253  0.0202 -0.1886 -0.4657
  289MOL0     O38915   8.928   8.129   4.220  0.5365  0.3015 -0.3001
  289MOL0     C38916   8.992   8.023   4.290 -0.4079 -0.8113 -0.0800
  289MOL0     C38917   9.137   8.013   4.251  0.3876  0.0065 -0.5291
  289MOL0     C38918   9.194   7.873   4.270  0.5970 -0.3066 -0.5867
  289MOL0     C38919   9.176   7.836   4.418  0.2732  0.3916  0.4091
  289MOL0     C38920   9.258   7.711   4.434 -0.6369 -0.5261 -0.2575
  289MOL0     C38921   9.267   7.663   4.576  0.1401 -0.7251 -0.1247
  289MOL0     C38922   9.351   7.539   4.598 -0.2427 -0.2181  0.5164
  289MOL0     C38923   9.282   7.422   4.530  0.3578 -0.1316  0.1987
  289MOL0    Cl38924   9.119   7.395   4.587 -0.2337  0.2295 -0.2178
  289MOL0     C38925   8.703   8.098   4.321 -0.9004 -0.2088 -0.1356
  289MOL0     C38926   8.578   8.148   4.362  1.0659  0.1121  0.2276
  289MOL0     O38927   8.347   8.254   4.540  0.5951  0.6094 -0.4210
  289MOL0     C38928   8.105   8.398   4.531 -0.5611 -0.7134 -0.6057
  289MOL0     C38929   7.981   8.461   4.515 -0.2263  0.3457  0.4856
  289MOL0     N38930   7.220   8.724   4.267  0.1731 -0.4948  0.2744
  289MOL0     N38931   7.136   8.665   4.187  0.1041  0.2750  0.1081
  289MOL0     C38932   6.004   8.648   3.734 -0.5713  0.6982 -0.2223
  289MOL0     C38933   5.873   8.622   3.712  0.5049 -1.3063  0.7027
  289MOL0     C38934   5.461   8.384   3.746 -0.2347  0.8131 -0.9670
  289MOL0     C38935   5.421   8.435   3.615 -0.8395 -1.0474  0.5496
  289MOL0     C38936   5.302   8.406   3.565  0.6942  1.3976  0.4186
  289MOL0     C38937   5.218   8.327   3.632  0.7100  0.0409 -0.1744
  289MOL0     O38938   5.088   8.328   3.600  0.0393  0.2171  0.9521
  289MOL0     C38939   4.985   8.237   3.650  0.0374 -0.5320 -0.3996
  289MOL0     C38940   4.859   8.245   3.557 -0.5631  0.1160  0.5165
  289MOL0     C38941   4.732   8.200   3.623  0.3817  0.0326  0.9710
  289MOL0     C38942   4.743   8.053   3.654 -1.2056 -0.0575  0.5645
  289MOL0     C38943   4.765   7.959   3.543 -0.2338 -0.1289  0.8175
  289MOL0     C38944   4.793   7.880   3.452 -0.5310  0.2054  0.1978
  289MOL0     C38945   5.248   8.279   3.761 -0.9197 -0.0251  0.1410
  289MOL0     C38946   5.378   8.302   3.817  0.5438  1.0978  0.3022
  289MOL0     C38947   5.403   8.240   3.960  0.0284 -0.2359  0.7192
  289MOL0     H38948   5.863   8.289   3.742 -1.3592  0.3910 -0.3509
  289MOL0     H38949   6.103   8.318   3.794  0.1742  0.1019  1.4227
  289MOL0     H38950   6.258   8.463   3.963  1.1075  0.8928 -0.1029
  289MOL0     H38951   6.327   8.380   3.827  0.7160 -0.1477  1.0923
  289MOL0     H38952   6.411   8.652   3.934  1.3401  1.0296 -1.5169
  289MOL0     H38953   6.497   8.564   3.811 -1.7229  0.5853  0.1333
  289MOL0     H38954   6.516   8.375   3.971  0.4552  1.0711 -0.1526
  289MOL0     H38955   6.440   8.465   4.102  1.1647  1.2632  1.1518
  289MOL0     H38956   6.675   8.582   3.956 -2.2077 -0.2394 -0.2088
  289MOL0     H38957   6.638   8.615   4.123  2.7027  0.2852  0.0032
  289MOL0     H38958   6.711   8.367   4.182  0.9485 -0.6655  0.1032
  289MOL0     H38959   6.737   8.355   4.010  3.0529  1.3977 -1.4990
  289MOL0     H38960   6.891   8.558   4.046  2.0102 -0.9880  0.2199
  289MOL0     H38961   6.871   8.516   4.221  1.4108 -0.0316  0.6549
  289MOL0     H38962   6.978   8.307   4.034  0.0913 -0.8073  0.9852
  289MOL0     H38963   6.991   8.321   4.204 -0.2655 -3.6094 -1.7250
  289MOL0     H38964   7.214   8.372   4.063 -0.2158  0.2161  0.3083
  289MOL0     H38965   7.110   8.496   3.992 -2.9219  0.9726  1.4183
  289MOL0     H38966   7.332   8.417   4.296  2.1279  0.3514 -3.1386
  289MOL0     H38967   7.368   8.736   4.480 -0.4820  2.2519 -3.4341
  289MOL0     H38968   7.402   8.566   4.501  1.8388 -0.0548  0.5887
  289MOL0     H38969   7.520   8.757   4.271 -1.3152 -0.2417 -0.4967
  289MOL0     H38970   7.621   8.723   4.413  0.5858  0.0763 -0.6534
  289MOL0     H38971   7.549   8.548   4.169 -1.6488 -0.3738  0.9596
  289MOL0     H38972   7.571   8.468   4.324  0.1616 -0.0798 -0.7389
  289MOL0     H38973   7.793   8.653   4.209  0.3789 -0.1718 -0.8152
  289MOL0     H38974   7.768   8.478   4.179 -1.8927 -0.7985  0.9829
  289MOL0     H38975   7.990   8.496   4.175  1.6861  1.5092 -0.2426
  289MOL0     H38976   8.215   8.412   4.222  1.3102 -0.6620  0.8642
  289MOL0     H38977   8.585   8.430   4.184 -0.3696 -0.2579 -0.1120
  289MOL0     H38978   8.835   8.347   4.158  1.4195 -0.6997  0.2438
  289MOL0     H38979   8.982   8.042   4.397  0.6570  0.2229 -0.1484
  289MOL0     H38980   8.934   7.933   4.265 -2.6737  1.3144 -3.3963
  289MOL0     H38981   9.138   8.033   4.143 -0.1030 -2.0287 -0.9548
  289MOL0     H38982   9.191   8.090   4.307 -0.2989 -0.9305  1.5261
  289MOL0     H38983   9.139   7.801   4.208 -0.6844  0.0458  0.0993
  289MOL0     H38984   9.299   7.869   4.242  0.9169 -0.4174  0.5912
  289MOL0     H38985   9.070   7.816   4.438  0.6518 -1.0588  1.1382
  289MOL0     H38986   9.218   7.916   4.480  0.2911  0.7185 -0.0167
  289MOL0     H38987   9.359   7.722   4.393 -0.1420 -2.1304  0.4643
  289MOL0     H38988   9.207   7.637   4.372  1.0076 -0.4184 -1.8199
  289MOL0     H38989   9.321   7.730   4.644 -0.2200 -1.0736  0.5167
  289MOL0     H38990   9.166   7.651   4.616  0.3307 -1.4959  0.1584
  289MOL0     H38991   9.355   7.526   4.706  1.0824  1.6502  0.7570
  289MOL0     H38992   9.455   7.546   4.564 -0.5589 -0.5887 -0.5951
  289MOL0     H38993   9.272   7.448   4.424  0.6295  1.1381  0.4649
  289MOL0     H38994   9.332   7.326   4.544  1.0670  0.1804 -0.1069
  289MOL0     H38995   8.737   8.005   4.366 -3.1513 -0.4409  1.1978
  289MOL0     H38996   8.515   8.091   4.429 -1.2138  3.2764  0.9918
  289MOL0     H38997   8.150   8.383   4.629 -0.6235  0.3140 -0.4086
  289MOL0     H38998   7.921   8.462   4.605  0.0689 -0.3551  0.7029
  289MOL0     H38999   6.052   8.741   3.707 -1.7881  0.5695 -3.1851
  289MOL0     H39000   5.809   8.703   3.679 -0.3361 -0.8003  3.3602
  289MOL0     H39001   5.475   8.500   3.547  0.8378 -0.3392  2.4644
  289MOL0     H39002   5.251   8.442   3.476  0.7803  0.4232 -0.0413
  289MOL0     H39003   4.960   8.257   3.754 -2.1965  1.5641 -1.2236
  289MOL0     H39004   5.016   8.133   3.644 -3.6397 -1.7637 -0.5514
  289MOL0     H39005   4.877   8.184   3.468 -0.8084  2.6339 -1.3603
  289MOL0     H39006   4.837   8.340   3.509 -0.6548  0.0764  0.4793
  289MOL0     H39007   4.644   8.206   3.559  0.1785 -4.8233  0.3933
  289MOL0     H39008   4.715   8.253   3.717  0.6565  0.5438  0.7374
  289MOL0     H39009   4.808   8.033   3.739 -3.5471  0.2249  2.5504
  289MOL0     H39010   4.648   8.013   3.692 -0.7339  1.0395  3.1265
  289MOL0     H39011   4.835   7.822   3.372  3.5185  0.7734  1.6996
  289MOL0     H39012   5.174   8.226   3.820 -1.4401  1.4360  0.8545
  289MOL0     H39013   5.304   8.211   3.995 -1.6838  2.2014 -1.7168
  289MOL0     H39014   5.462   8.149   3.943  0.4301  0.6282 -3.5769
  289MOL0     H39015   5.447   8.315   4.027 -2.5949  2.4407 -0.3690
  290MOL0     O39016   1.668   3.779   8.838 -0.5607  0.7067 -0.3493
  290MOL0     C39017   1.617   3.729   8.742 -0.3722 -0.4311  0.4030
  290MOL0     O39018   1.690   3.670   8.644  0.1246 -0.4829 -0.0904
  290MOL0     C39019   1.822   3.646   8.669 -0.2570 -0.1426 -0.2390
  290MOL0     C39020   1.924   3.689   8.587  0.3143 -0.1489  0.0143
  290MOL0     C39021   2.056   3.655   8.622  0.1179 -0.1675  0.5842
  290MOL0     C39022   2.087   3.558   8.723  0.0975  0.2736 -0.2858
  290MOL0     O39023   2.207   3.508   8.756  0.2047 -0.5041  0.2045
  290MOL0     C39024   2.316   3.539   8.672  0.2739 -0.5830 -0.3201
  290MOL0     C39025   2.454   3.493   8.702  0.4770 -0.7263  0.1649
  290MOL0     C39026   2.462   3.359   8.770  0.1670  0.5447 -1.0730
  290MOL0     C39027   2.402   3.248   8.675 -0.0081 -0.2514  0.4213
  290MOL0     C39028   2.422   3.113   8.745 -0.5396 -0.5532 -0.0032
  290MOL0     C39029   2.377   3.003   8.648 -0.2162  1.2099  0.1774
  290MOL0     C39030   2.361   2.862   8.716  0.5428 -0.8442  1.2415
  290MOL0     C39031   2.477   2.806   8.782 -0.5760  0.4846  0.1250
  290MOL0     N39032   2.451   2.671   8.846  0.2349 -0.4099  0.0923
  290MOL0     C39033   2.395   2.658   8.974 -0.5565  0.6428 -1.0839
  290MOL0     C39034   2.377   2.529   8.988 -0.8815 -0.0824  0.3516
  290MOL0     C39035   2.322   2.470   9.119  0.2246  0.3566  0.1601
  290MOL0     C39036   2.345   2.314   9.108  0.0517 -0.3095  0.0406
  290MOL0     C39037   2.274   2.242   9.227  0.6531  0.3028 -0.2452
  290MOL0     C39038   2.127   2.218   9.208 -0.3464 -0.7547 -0.0983
  290MOL0     O39039   2.078   2.126   9.306  0.1468  0.0658 -0.0906
  290MOL0     C39040   1.944   2.085   9.300 -0.8144 -0.2910  0.3698
  290MOL0     C39041   1.906   2.013   9.414 -0.2154 -1.1158  0.3711
  290MOL0     C39042   1.781   1.950   9.411 -0.0661 -0.2369 -0.0508
  290MOL0     C39043   1.698   1.953   9.295  0.1388 -0.3314 -0.0816
  290MOL0     C39044   1.565   1.888   9.301  0.8075 -0.4598 -0.6895
  290MOL0     O39045   1.468   1.943   9.230 -0.0019  0.2604  1.2329
  290MOL0     C39046   1.344   1.887   9.202  0.2263 -0.4824 -0.0207
  290MOL0     C39047   1.259   1.974   9.134  0.7748 -0.7516 -0.6239
  290MOL0     C39048   1.132   1.926   9.103  0.3564  0.6395 -0.3292
  290MOL0     C39049   1.094   1.798   9.128  0.8622  0.5005 -0.2788
  290MOL0     O39050   0.971   1.738   9.091  0.8775 -0.3239  0.3472
  290MOL0     C39051   0.873   1.821   9.022  0.6924 -0.6878  0.0220
  290MOL0     C39052   0.754   1.736   8.972  0.2854 -0.7815 -0.8189
  290MOL0     C39053   0.651   1.787   8.886 -0.7504 -0.3930  0.6108
  290MOL0     C39054   0.538   1.693   8.868  0.2238 -0.2688  0.6695
  290MOL0     C39055   0.432   1.763   8.778 -0.0690  0.0950 -0.3001
  290MOL0     C39056   0.316   1.658   8.748  0.4924 -0.2323  0.2867
  290MOL0     C39057   0.194   1.733   8.694 -0.0642 -0.3351  0.1451
  290MOL0     C39058   0.074   1.649   8.650  0.5665  0.3109  0.1177
  290MOL0    Cl39059  -0.085   1.739   8.680  0.2538  0.0800  0.4805
  290MOL0     C39060   1.170   1.713   9.203 -0.1018 -0.1191  0.0211
  290MOL0     C39061   1.297   1.758   9.240  0.4295  0.2790  0.8281
  290MOL0     O39062   1.549   1.801   9.392  0.5031 -0.7348  0.6497
  290MOL0     C39063   1.746   2.026   9.185  0.7351 -0.0471 -0.0944
  290MOL0     C39064   1.864   2.092   9.186  0.6739  0.1135 -0.2790
  290MOL0     N39065   2.420   2.459   8.877 -0.4745  0.4956  0.1569
  290MOL0     N39066   2.454   2.548   8.780  0.3193  0.2974  0.0477
  290MOL0     C39067   1.980   3.511   8.796  0.3525 -0.3077 -0.2179
  290MOL0     C39068   1.848   3.551   8.772 -0.0995 -0.8047 -0.0168
  290MOL0     C39069   1.472   3.766   8.714  0.3441 -0.5284  0.6469
  290MOL0     C39070   1.431   3.750   8.577 -0.2867 -1.0648 -0.7309
  290MOL0     C39071   1.303   3.798   8.534 -0.4129  0.8071  0.9689
  290MOL0     C39072   1.216   3.854   8.616 -0.1975  0.1946 -1.1042
  290MOL0     O39073   1.094   3.870   8.550 -0.6398 -0.7555  0.0508
  290MOL0     C39074   0.987   3.913   8.636 -0.3587 -0.4912  0.9175
  290MOL0     C39075   0.858   3.893   8.561 -0.4982  0.0208  0.9182
  290MOL0     C39076   0.748   3.905   8.664  0.3881 -0.4713 -0.0713
  290MOL0     C39077   0.603   3.875   8.597  0.0651 -0.1781  0.2338
  290MOL0     C39078   0.488   3.876   8.696 -0.4577  0.7734 -0.8235
  290MOL0     C39079   0.399   3.886   8.771  0.5059 -0.9587  0.1084
  290MOL0     C39080   1.250   3.865   8.754 -0.6272 -0.1719 -0.0286
  290MOL0     C39081   1.378   3.837   8.799  0.7330 -0.7871 -0.1162
  290MOL0     C39082   1.409   3.883   8.942 -0.7279  0.3405  0.5295
  290MOL0     H39083   1.905   3.752   8.501 -1.1277 -1.6487 -0.8352
  290MOL0     H39084   2.136   3.707   8.571  1.0735 -0.8538  1.3509
  290MOL0     H39085   2.293   3.503   8.571 -1.8631  2.1055 -0.8965
  290MOL0     H39086   2.327   3.647   8.679 -1.2204 -0.3665 -0.9684
  290MOL0     H39087   2.490   3.568   8.773 -2.8427 -0.2806  1.5696
  290MOL0     H39088   2.516   3.502   8.613 -1.4931 -1.3328 -1.3425
  290MOL0     H39089   2.416   3.353   8.870  0.7745  0.6801 -0.7786
  290MOL0     H39090   2.568   3.337   8.787  0.3035  1.0649 -1.2408
  290MOL0     H39091   2.294   3.262   8.664  0.0400  2.4533  2.2652
  290MOL0     H39092   2.461   3.256   8.583  1.8089 -2.0480  1.3704
  290MOL0     H39093   2.520   3.088   8.786 -0.9670 -1.1375  0.6983
  290MOL0     H39094   2.358   3.120   8.834  0.1371  1.1553  0.3820
  290MOL0     H39095   2.275   3.016   8.612 -0.1627 -0.7411 -0.8353
  290MOL0     H39096   2.438   2.994   8.557 -0.3472 -3.5763  0.3024
  290MOL0     H39097   2.328   2.798   8.634  3.3474  0.2979 -0.9390
  290MOL0     H39098   2.274   2.864   8.783 -2.7014 -0.2203 -2.6340
  290MOL0     H39099   2.553   2.793   8.705 -2.1019  1.6300 -1.6358
  290MOL0     H39100   2.519   2.869   8.862  1.5027 -1.3539  0.5937
  290MOL0     H39101   2.363   2.735   9.043 -0.3550  0.7061 -1.0601
  290MOL0     H39102   2.381   2.511   9.202  0.5698 -0.2186  0.2023
  290MOL0     H39103   2.217   2.497   9.124  0.3178  0.7832 -0.1655
  290MOL0     H39104   2.304   2.269   9.017 -0.1686 -0.4463  0.2066
  290MOL0     H39105   2.451   2.290   9.120  0.3991  0.7191 -0.8472
  290MOL0     H39106   2.280   2.291   9.325 -0.8966 -1.5804  0.8610
  290MOL0     H39107   2.313   2.140   9.236 -1.5141 -0.7104 -1.4689
  290MOL0     H39108   2.110   2.173   9.109 -2.2883  2.2811 -1.2758
  290MOL0     H39109   2.078   2.316   9.212  2.8096  1.0044 -0.4749
  290MOL0     H39110   1.980   2.003   9.492  2.3973  0.1261 -1.7658
  290MOL0     H39111   1.760   1.900   9.504  3.7031  0.1435  1.1924
  290MOL0     H39112   1.279   2.080   9.118 -0.7846 -0.2885  0.3089
  290MOL0     H39113   1.056   1.992   9.063 -0.0510  1.2921  1.4228
  290MOL0     H39114   0.846   1.907   9.085  3.5721 -0.1254  0.6394
  290MOL0     H39115   0.919   1.870   8.936  1.7959  1.0374  1.5279
  290MOL0     H39116   0.798   1.647   8.927 -0.5333 -1.2513 -0.7160
  290MOL0     H39117   0.703   1.708   9.065  0.7241  0.4469 -0.1814
  290MOL0     H39118   0.615   1.885   8.921 -0.5523 -0.3529  0.7064
  290MOL0     H39119   0.694   1.806   8.787 -1.2535 -1.4151  0.1925
  290MOL0     H39120   0.489   1.658   8.959 -0.8714 -0.2039  0.1316
  290MOL0     H39121   0.567   1.608   8.806 -1.0376  0.6296 -1.2745
  290MOL0     H39122   0.476   1.793   8.683 -0.3653 -1.8725 -1.1166
  290MOL0     H39123   0.387   1.848   8.830  0.4083 -1.3539  2.7486
  290MOL0     H39124   0.349   1.597   8.663  0.9159  1.3960 -0.7831
  290MOL0     H39125   0.288   1.601   8.837  1.1696  1.0794  1.3765
  290MOL0     H39126   0.226   1.799   8.613  1.0741 -0.7051  0.2877
  290MOL0     H39127   0.168   1.793   8.782 -0.2252  1.2347 -0.9319
  290MOL0     H39128   0.085   1.607   8.550 -1.8320 -2.7847  1.0094
  290MOL0     H39129   0.058   1.559   8.709 -1.6743 -0.0350 -0.8961
  290MOL0     H39130   1.149   1.607   9.214 -2.0961  0.1849 -0.5634
  290MOL0     H39131   1.368   1.694   9.292  2.7682  2.9973  1.2401
  290MOL0     H39132   1.683   2.032   9.097  3.0582 -2.2043 -2.0388
  290MOL0     H39133   1.903   2.135   9.094  3.1907 -1.6926 -0.1786
  290MOL0     H39134   2.005   3.443   8.876 -1.0360  0.6192  1.0636
  290MOL0     H39135   1.769   3.515   8.838 -0.4862  1.1267  0.6210
  290MOL0     H39136   1.504   3.715   8.504 -1.0030 -1.2423 -1.3753
  290MOL0     H39137   1.276   3.777   8.431  2.7616 -4.0348  0.7913
  290MOL0     H39138   1.007   4.018   8.661  1.7652 -1.0205  1.6139
  290MOL0     H39139   0.980   3.864   8.733 -1.1900 -1.4403  0.3938
  290MOL0     H39140   0.854   3.794   8.515  0.7391 -0.1424  1.1151
  290MOL0     H39141   0.848   3.953   8.470  1.3318 -2.7156 -1.2565
  290MOL0     H39142   0.742   4.010   8.691  2.5397 -0.1594 -0.6892
  290MOL0     H39143   0.757   3.837   8.750  0.3576  1.6787  1.7146
  290MOL0     H39144   0.587   3.952   8.521 -0.7798 -0.4625  0.1203
  290MOL0     H39145   0.607   3.776   8.551  1.3989  0.2501 -0.6481
  290MOL0     H39146   0.321   3.887   8.846  2.1842  3.3880  2.1343
  290MOL0     H39147   1.176   3.896   8.827 -1.0030  0.4352 -0.6508
  290MOL0     H39148   1.313   3.883   8.995 -1.0838  0.7991 -0.0996
  290MOL0     H39149   1.463   3.803   8.993 -0.6701 -0.5054 -0.8173
  290MOL0     H39150   1.471   3.973   8.949 -1.9390  1.1551  1.1661
  291MOL0     O39151   3.062   7.053   4.996 -0.0805 -1.0244 -0.1090
  291MOL0     C39152   3.051   7.107   4.881  0.4980 -0.1065 -0.2111
  291MOL0     O39153   3.147   7.085   4.786  0.0332 -0.0455  0.5880
  291MOL0     C39154   3.254   7.013   4.815  0.2194  0.4647 -0.1225
  291MOL0     C39155   3.372   7.070   4.861 -0.3442 -0.1415  0.6342
  291MOL0     C39156   3.484   6.990   4.902 -0.3487  0.4664 -0.1907
  291MOL0     C39157   3.488   6.845   4.871  0.6266  0.2150 -0.1044
  291MOL0     O39158   3.584   6.754   4.917  0.1942 -0.1082 -0.6372
  291MOL0     C39159   3.620   6.641   4.836 -0.5914  0.1344  0.0028
  291MOL0     C39160   3.745   6.576   4.898  1.0385  0.2247  0.3677
  291MOL0     C39161   3.711   6.507   5.037 -0.2130 -0.1447  0.2100
  291MOL0     C39162   3.816   6.394   5.069 -0.1831  0.3665 -0.8744
  291MOL0     C39163   3.942   6.452   5.134  0.1954  0.0462  0.1923
  291MOL0     C39164   3.911   6.458   5.289 -0.3680 -0.2962 -0.2926
  291MOL0     C39165   4.037   6.494   5.376 -0.0248  0.0671  0.9216
  291MOL0     C39166   4.133   6.369   5.373 -0.4956 -0.8048  0.5692
  291MOL0     N39167   4.262   6.406   5.444 -0.5118 -0.3325 -0.2422
  291MOL0     C39168   4.262   6.460   5.575  0.5185 -0.4209  0.6239
  291MOL0     C39169   4.384   6.515   5.591 -0.0278  0.0033  0.1050
  291MOL0     C39170   4.446   6.576   5.719  0.3679  0.7852  0.7028
  291MOL0     C39171   4.587   6.631   5.685  0.2636 -0.1183 -0.2414
  291MOL0     C39172   4.657   6.678   5.809 -0.1076  0.1587  0.4325
  291MOL0     C39173   4.806   6.717   5.781 -0.5560  0.7493 -0.2484
  291MOL0     O39174   4.883   6.600   5.747 -0.0372 -0.5395 -0.4427
  291MOL0     C39175   5.019   6.603   5.773 -0.1446  0.5420  0.3111
  291MOL0     C39176   5.090   6.712   5.787  1.3534 -0.4462 -0.1615
  291MOL0     C39177   5.226   6.712   5.823 -0.3954 -0.4914  0.6549
  291MOL0     C39178   5.296   6.593   5.821 -0.1689  0.2886 -0.0721
  291MOL0     C39179   5.448   6.592   5.848 -0.2549 -0.5658 -0.6287
  291MOL0     O39180   5.504   6.722   5.879 -0.3842 -0.8166 -0.2932
  291MOL0     C39181   5.638   6.740   5.920  0.4252  0.2437 -0.2187
  291MOL0     C39182   5.748   6.650   5.906  0.8187  0.1949 -0.2287
  291MOL0     C39183   5.881   6.694   5.911  0.0923  0.3801 -0.3000
  291MOL0     C39184   5.908   6.824   5.943  0.5608 -0.3685 -0.0083
  291MOL0     O39185   6.031   6.880   5.946 -0.5931  0.3689  0.1375
  291MOL0     C39186   6.139   6.805   6.007 -0.1850 -0.1608  0.6804
  291MOL0     C39187   6.257   6.891   6.047 -0.7138  1.0417  0.3523
  291MOL0     C39188   6.375   6.815   6.120 -0.7799  1.1136  0.1440
  291MOL0     C39189   6.489   6.905   6.158  0.5267  0.0675 -0.2955
  291MOL0     C39190   6.577   6.863   6.274 -0.0094 -0.9525  0.2515
  291MOL0     C39191   6.648   6.731   6.256  0.2691 -0.1559  0.6628
  291MOL0     C39192   6.724   6.710   6.125  0.7148  0.0633  0.0801
  291MOL0     C39193   6.835   6.603   6.119 -0.1331 -0.4527 -0.3165
  291MOL0    Cl39194   6.938   6.625   6.259 -0.5133  0.0065 -0.1083
  291MOL0     C39195   5.801   6.914   5.969 -0.2738  0.0526 -0.4316
  291MOL0     C39196   5.674   6.877   5.952  0.3223  0.0915  1.0282
  291MOL0     O39197   5.510   6.479   5.851 -0.9856 -0.0195  0.4078
  291MOL0     C39198   5.219   6.478   5.798  0.6682  0.1784  0.4836
  291MOL0     C39199   5.080   6.483   5.779  0.2783 -0.9443 -0.6463
  291MOL0     N39200   4.461   6.477   5.481 -0.2332 -0.0094  0.5249
  291MOL0     N39201   4.382   6.441   5.383 -0.0491  0.3262  0.0025
  291MOL0     C39202   3.367   6.798   4.812 -0.5207 -0.8967  0.2904
  291MOL0     C39203   3.259   6.880   4.783  0.5128 -0.5716 -0.9966
  291MOL0     C39204   2.953   7.211   4.852 -0.1493 -0.0099  0.0387
  291MOL0     C39205   2.998   7.339   4.820 -0.9049  0.2474  1.0137
  291MOL0     C39206   2.909   7.439   4.793 -0.0203 -1.0681  0.3722
  291MOL0     C39207   2.774   7.415   4.790 -0.7720  0.5594 -0.7141
  291MOL0     O39208   2.686   7.521   4.773 -0.2132 -0.2969  0.7536
  291MOL0     C39209   2.550   7.507   4.805  1.3773  0.1436  1.0742
  291MOL0     C39210   2.459   7.628   4.801  0.4806 -0.1019 -0.7984
  291MOL0     C39211   2.516   7.750   4.881  0.0636 -0.5600 -0.0866
  291MOL0     C39212   2.417   7.863   4.901  0.4583  1.0739  0.2975
  291MOL0     C39213   2.309   7.819   4.997  0.8542 -1.2513 -0.6098
  291MOL0     C39214   2.218   7.773   5.059  0.3300  0.0124 -0.2773
  291MOL0     C39215   2.727   7.285   4.838  0.0211 -0.2489  0.0873
  291MOL0     C39216   2.823   7.184   4.869 -0.0770 -0.6123 -0.0476
  291MOL0     C39217   2.767   7.045   4.910  0.3000  0.5538 -0.2433
  291MOL0     H39218   3.390   7.175   4.879 -0.2279  0.0607 -0.5793
  291MOL0     H39219   3.576   7.038   4.935  0.1573 -0.7270  0.2105
  291MOL0     H39220   3.547   6.560   4.829  1.0108 -1.4165  0.4219
  291MOL0     H39221   3.639   6.679   4.735  1.6892  0.9981  0.6867
  291MOL0     H39222   3.823   6.651   4.912 -0.6409  2.0117  0.6571
  291MOL0     H39223   3.790   6.505   4.829  0.5812  2.3894 -2.3446
  291MOL0     H39224   3.615   6.455   5.039 -1.5264  1.7889 -3.1605
  291MOL0     H39225   3.709   6.587   5.112  0.0529 -1.6477  1.8547
  291MOL0     H39226   3.780   6.321   5.142  3.1406 -2.6759 -2.0306
  291MOL0     H39227   3.844   6.341   4.978 -0.2845  0.6641 -1.0822
  291MOL0     H39228   4.031   6.389   5.121 -1.0152 -1.3601 -1.7883
  291MOL0     H39229   3.960   6.551   5.093 -1.5730  0.3807  0.1410
  291MOL0     H39230   3.842   6.541   5.310 -0.7392 -0.5741 -0.3994
  291MOL0     H39231   3.866   6.367   5.329 -1.7498  0.0955 -0.8898
  291MOL0     H39232   4.001   6.508   5.478 -0.0724  0.5593  0.8388
  291MOL0     H39233   4.088   6.585   5.344  0.9309 -0.3872  1.1230
  291MOL0     H39234   4.099   6.281   5.428 -2.0276 -0.0561  0.8800
  291MOL0     H39235   4.159   6.335   5.273 -0.0224  1.1560 -0.0302
  291MOL0     H39236   4.182   6.453   5.648 -0.2720  0.8138 -0.0833
  291MOL0     H39237   4.381   6.658   5.752 -1.5381  0.4905 -1.9912
  291MOL0     H39238   4.452   6.503   5.800 -0.0213 -0.1133 -0.0622
  291MOL0     H39239   4.651   6.557   5.635  1.6699 -0.7852  2.3544
  291MOL0     H39240   4.573   6.719   5.622 -0.3266 -1.7050 -2.4503
  291MOL0     H39241   4.655   6.594   5.880  1.3023 -0.6031 -0.3670
  291MOL0     H39242   4.605   6.764   5.850 -0.6182  0.2470 -0.3763
  291MOL0     H39243   4.837   6.760   5.876  2.5734  0.5750 -1.1002
  291MOL0     H39244   4.811   6.786   5.696 -0.9380 -1.0901 -1.8458
  291MOL0     H39245   5.037   6.807   5.777 -1.5184 -1.6018  2.4021
  291MOL0     H39246   5.271   6.808   5.843 -2.4292  0.4979  0.6661
  291MOL0     H39247   5.728   6.552   5.863 -1.1597  0.2922  0.3427
  291MOL0     H39248   5.959   6.628   5.877  0.2586 -0.4169  1.4901
  291MOL0     H39249   6.122   6.751   6.100  0.4206 -0.2245  0.7602
  291MOL0     H39250   6.177   6.729   5.938  1.2424  1.5684 -0.5445
  291MOL0     H39251   6.312   6.935   5.964 -0.2334 -4.0494 -2.4396
  291MOL0     H39252   6.212   6.969   6.109 -0.2389  1.1078  0.6231
  291MOL0     H39253   6.330   6.773   6.211  0.2619  2.4309  1.3085
  291MOL0     H39254   6.411   6.732   6.059 -1.3054  3.4785 -3.6919
  291MOL0     H39255   6.445   6.999   6.192  1.1169  0.9774 -1.9400
  291MOL0     H39256   6.549   6.933   6.071  0.7556 -1.5064 -0.6695
  291MOL0     H39257   6.511   6.842   6.359 -0.9395 -0.8171 -0.4267
  291MOL0     H39258   6.649   6.943   6.295 -0.6319 -0.1003 -0.7822
  291MOL0     H39259   6.721   6.718   6.337  0.7399  0.2711  0.3145
  291MOL0     H39260   6.570   6.655   6.264  1.3431 -1.5795 -1.4118
  291MOL0     H39261   6.762   6.810   6.103 -2.0854  1.1105 -0.2951
  291MOL0     H39262   6.648   6.690   6.050  2.3763 -0.4827 -1.5483
  291MOL0     H39263   6.792   6.503   6.113 -0.0469 -0.5192  0.1190
  291MOL0     H39264   6.896   6.633   6.033  0.7309  3.8797  1.5102
  291MOL0     H39265   5.835   7.014   5.994  1.1425 -0.5820  0.2609
  291MOL0     H39266   5.597   6.953   5.958 -0.1943 -0.2715 -0.5647
  291MOL0     H39267   5.261   6.377   5.796 -0.6260 -0.3680 -0.9250
  291MOL0     H39268   5.026   6.390   5.765  0.0211 -1.5109  3.0287
  291MOL0     H39269   3.353   6.692   4.789 -0.3390 -1.1673  1.3566
  291MOL0     H39270   3.184   6.832   4.722  2.5006 -1.4648 -2.9030
  291MOL0     H39271   3.106   7.349   4.819 -0.5474 -2.3977 -1.4913
  291MOL0     H39272   2.941   7.540   4.770 -0.5034 -1.0760 -0.3518
  291MOL0     H39273   2.543   7.460   4.904  2.7423  1.8107  1.9992
  291MOL0     H39274   2.516   7.441   4.725  1.8696  1.4592 -0.2586
  291MOL0     H39275   2.368   7.586   4.845  2.5072 -1.6660  2.2608
  291MOL0     H39276   2.442   7.652   4.696  0.7151  0.4345 -0.7150
  291MOL0     H39277   2.607   7.766   4.824  0.0619 -1.9720 -0.5107
  291MOL0     H39278   2.555   7.726   4.980 -0.2325 -1.9056 -0.2752
  291MOL0     H39279   2.470   7.943   4.954 -1.6539 -0.3138  5.0176
  291MOL0     H39280   2.376   7.885   4.802  0.8174  3.0170  0.5378
  291MOL0     H39281   2.136   7.725   5.108 -1.6574  1.1269 -2.3276
  291MOL0     H39282   2.622   7.261   4.829  0.2349 -1.5715  0.8623
  291MOL0     H39283   2.678   7.011   4.856  1.3246 -3.0053  0.0491
  291MOL0     H39284   2.840   6.963   4.903  1.6393  1.8524 -2.5109
  291MOL0     H39285   2.738   7.064   5.014 -3.5648  1.8895 -1.3604
  292MOL0     O39286   4.513   1.366   8.176  1.0780  0.5228 -0.3064
  292MOL0     C39287   4.436   1.357   8.080 -0.6046 -0.2650  0.2268
  292MOL0     O39288   4.478   1.319   7.962  0.1368 -0.6204 -0.0692
  292MOL0     C39289   4.603   1.261   7.937  0.9219 -0.3474 -0.1776
  292MOL0     C39290   4.723   1.312   7.988  0.3091  0.6730  0.6496
  292MOL0     C39291   4.845   1.243   7.968  0.1949 -0.5449  0.3698
  292MOL0     C39292   4.840   1.120   7.903 -0.2227 -0.2605 -0.7901
  292MOL0     O39293   4.968   1.062   7.885  0.3682  0.0163  0.5061
  292MOL0     C39294   4.983   0.981   7.769  0.4501  0.1069 -0.2352
  292MOL0     C39295   5.136   0.967   7.755  0.1870  1.2444 -0.3608
  292MOL0     C39296   5.188   0.844   7.826  0.1945  0.4706 -0.7600
  292MOL0     C39297   5.334   0.815   7.810  0.1333  0.2606  0.0588
  292MOL0     C39298   5.376   0.692   7.896  0.1295 -0.9274 -0.9911
  292MOL0     C39299   5.517   0.654   7.841  0.1500 -0.2173  0.2270
  292MOL0     C39300   5.590   0.543   7.915  0.6176 -0.2689  0.4438
  292MOL0     C39301   5.672   0.605   8.019  0.1974 -0.3282 -1.0415
  292MOL0     N39302   5.751   0.507   8.088  0.3907 -0.3480 -0.1648
  292MOL0     C39303   5.871   0.458   8.050  0.2045 -0.2187  0.2960
  292MOL0     C39304   5.909   0.381   8.151 -0.3441  0.6692  0.2518
  292MOL0     C39305   6.060   0.331   8.170 -0.2332  0.3790 -0.5529
  292MOL0     C39306   6.152   0.435   8.226  0.0070 -0.7873 -0.2495
  292MOL0     C39307   6.291   0.421   8.174 -0.1838 -0.1828 -0.1510
  292MOL0     C39308   6.368   0.539   8.235 -0.0840 -0.1075  0.9849
  292MOL0     O39309   6.490   0.557   8.157  0.1068 -0.5960  0.4369
  292MOL0     C39310   6.573   0.664   8.202 -0.4822  0.3862 -0.1526
  292MOL0     C39311   6.590   0.702   8.334 -0.2218 -0.6461 -1.0823
  292MOL0     C39312   6.657   0.823   8.367  0.6808  0.6742 -1.1118
  292MOL0     C39313   6.739   0.886   8.270  0.3291  0.2234 -0.6260
  292MOL0     C39314   6.832   1.000   8.322 -0.3373 -0.5352  0.1115
  292MOL0     O39315   6.910   1.057   8.229  0.8514 -0.7161  0.5107
  292MOL0     C39316   7.001   1.153   8.262  0.5027  0.6605 -0.2451
  292MOL0     C39317   7.130   1.126   8.224 -0.8305 -0.7785  0.3371
  292MOL0     C39318   7.239   1.211   8.257 -0.1710  0.0829 -0.6676
  292MOL0     C39319   7.209   1.337   8.312  0.1679 -0.9544 -0.9817
  292MOL0     O39320   7.298   1.436   8.359  0.0226  0.4880 -0.0828
  292MOL0     C39321   7.414   1.380   8.419  0.0710 -0.0138 -0.1271
  292MOL0     C39322   7.373   1.310   8.549 -0.0627 -0.3641 -1.2914
  292MOL0     C39323   7.494   1.291   8.649 -0.4356  0.4883  0.1861
  292MOL0     C39324   7.622   1.247   8.576  0.4198 -0.4926  0.8635
  292MOL0     C39325   7.733   1.351   8.597  0.5556 -0.8795  0.2125
  292MOL0     C39326   7.869   1.318   8.536 -0.5897  0.7050  0.1501
  292MOL0     C39327   7.930   1.183   8.590 -0.6459 -0.3576  0.6588
  292MOL0     C39328   8.086   1.175   8.564  0.2326 -1.0559  0.4049
  292MOL0    Cl39329   8.117   1.195   8.386  0.0064 -0.5389  0.2413
  292MOL0     C39330   7.073   1.370   8.341 -0.4570 -0.4692  0.1730
  292MOL0     C39331   6.969   1.278   8.324  0.2091 -0.0919 -0.7222
  292MOL0     O39332   6.834   1.028   8.438 -0.5177 -0.6840  0.1100
  292MOL0     C39333   6.742   0.833   8.142  0.1672 -0.3209 -0.3051
  292MOL0     C39334   6.660   0.726   8.105 -0.0098  0.5397 -0.4796
  292MOL0     N39335   5.806   0.373   8.247 -1.2534 -0.6794 -0.6666
  292MOL0     N39336   5.709   0.445   8.203 -0.0278  0.1360 -0.4925
  292MOL0     C39337   4.716   1.060   7.862 -0.4409 -0.2503 -0.4023
  292MOL0     C39338   4.599   1.132   7.881 -0.2317  0.2587 -0.2904
  292MOL0     C39339   4.295   1.394   8.113  0.6490  0.2444  1.3074
  292MOL0     C39340   4.269   1.509   8.188  0.5067  0.7207 -0.1524
  292MOL0     C39341   4.128   1.544   8.211  0.1411  0.0915 -0.8978
  292MOL0     C39342   4.026   1.470   8.158  0.2127 -0.0388  0.7117
  292MOL0     O39343   3.896   1.496   8.174  0.4786  0.1710  0.2284
  292MOL0     C39344   3.853   1.538   8.304  1.0413 -0.5767  0.3807
  292MOL0     C39345   3.809   1.688   8.296  0.7430  0.0623  0.4777
  292MOL0     C39346   3.710   1.721   8.185 -0.4086 -0.7763  0.3128
  292MOL0     C39347   3.589   1.629   8.174 -0.5361 -0.7244  0.3329
  292MOL0     C39348   3.498   1.667   8.282  0.0987 -0.1732  0.1459
  292MOL0     C39349   3.436   1.696   8.379  0.0572 -0.1509 -0.3829
  292MOL0     C39350   4.060   1.357   8.076  0.4383  0.1926 -0.3855
  292MOL0     C39351   4.192   1.320   8.045 -1.2194 -0.3005 -0.0487
  292MOL0     C39352   4.217   1.196   7.949  0.6272 -0.1211  1.1593
  292MOL0     H39353   4.743   1.408   8.035  3.4404  0.0085  0.8418
  292MOL0     H39354   4.942   1.289   7.985  1.4908 -1.0742 -4.2493
  292MOL0     H39355   4.932   0.888   7.795  0.2730  0.7690  2.0118
  292MOL0     H39356   4.939   1.027   7.680  1.8764  0.1546 -0.9406
  292MOL0     H39357   5.191   1.056   7.787  0.9802  1.4347 -2.1123
  292MOL0     H39358   5.163   0.959   7.649 -0.8382  0.0723 -0.5595
  292MOL0     H39359   5.131   0.758   7.790 -2.2143  2.1540 -1.2151
  292MOL0     H39360   5.160   0.845   7.932 -1.1648  1.6359 -1.0979
  292MOL0     H39361   5.354   0.796   7.704 -1.2404  1.9206 -0.5469
  292MOL0     H39362   5.390   0.899   7.851  1.0045 -1.6509  3.1073
  292MOL0     H39363   5.381   0.703   8.004 -3.5772 -0.6692 -0.7139
  292MOL0     H39364   5.306   0.609   7.879  2.3287 -3.2228  0.3687
  292MOL0     H39365   5.495   0.618   7.740 -0.9031 -0.9990  0.7232
  292MOL0     H39366   5.576   0.746   7.835  2.9308 -1.9609 -1.5714
  292MOL0     H39367   5.656   0.487   7.849  2.3620 -0.2111  2.0811
  292MOL0     H39368   5.516   0.469   7.947  2.7462 -2.0923  1.3724
  292MOL0     H39369   5.733   0.691   7.992  0.1810  0.1333  0.2991
  292MOL0     H39370   5.603   0.640   8.096  0.3477 -3.2902  0.5950
  292MOL0     H39371   5.923   0.494   7.961 -1.6964  1.3991 -0.2337
  292MOL0     H39372   6.055   0.244   8.237  0.6522  1.2460  0.6955
  292MOL0     H39373   6.102   0.297   8.075  0.1653  1.7850 -0.9108
  292MOL0     H39374   6.113   0.531   8.192 -0.1042  0.1595  2.3599
  292MOL0     H39375   6.167   0.427   8.334 -0.5278  0.6111 -0.0492
  292MOL0     H39376   6.293   0.429   8.065 -1.5256 -2.3950 -0.4084
  292MOL0     H39377   6.342   0.329   8.203 -1.2938 -1.3273 -1.6515
  292MOL0     H39378   6.388   0.524   8.342  0.4818 -0.3287  0.8485
  292MOL0     H39379   6.309   0.631   8.230 -0.5275 -0.4432 -0.0913
  292MOL0     H39380   6.525   0.658   8.409  0.2041 -1.1747 -1.0224
  292MOL0     H39381   6.644   0.854   8.470 -2.3525 -0.6407 -0.9866
  292MOL0     H39382   7.163   1.035   8.175 -0.5057 -0.3164 -0.3198
  292MOL0     H39383   7.343   1.193   8.234  1.1979  2.3308  2.9663
  292MOL0     H39384   7.471   1.322   8.345  0.4549 -1.1940  1.0472
  292MOL0     H39385   7.480   1.467   8.431 -0.0393 -0.1531  1.7627
  292MOL0     H39386   7.286   1.361   8.590  0.9748 -0.0327  0.6163
  292MOL0     H39387   7.334   1.214   8.515 -0.3754  0.7622 -4.4809
  292MOL0     H39388   7.514   1.381   8.708 -1.6766 -0.0878  1.5402
  292MOL0     H39389   7.464   1.209   8.715  1.5979  0.1229  0.7105
  292MOL0     H39390   7.602   1.228   8.470  1.0048  0.5939  0.5541
  292MOL0     H39391   7.656   1.153   8.622 -0.6233 -1.3848 -0.1093
  292MOL0     H39392   7.743   1.375   8.703 -1.3987  0.0137  0.2282
  292MOL0     H39393   7.691   1.437   8.546  0.8448  1.1361  3.1315
  292MOL0     H39394   7.842   1.314   8.430  0.4070  1.5065 -0.1469
  292MOL0     H39395   7.939   1.401   8.549 -0.6838  0.8398 -0.1946
  292MOL0     H39396   7.880   1.099   8.542 -1.0089  0.8816 -1.1951
  292MOL0     H39397   7.914   1.175   8.698 -2.8946 -2.6950  0.2666
  292MOL0     H39398   8.144   1.251   8.617  1.3207 -0.7612 -1.1370
  292MOL0     H39399   8.118   1.078   8.605 -0.2915 -0.6159  1.8957
  292MOL0     H39400   7.046   1.464   8.388 -0.0560 -0.7375  0.9574
  292MOL0     H39401   6.869   1.296   8.361  0.7116  1.0144  0.1766
  292MOL0     H39402   6.812   0.882   8.075 -0.5766  0.4761 -0.5145
  292MOL0     H39403   6.675   0.697   8.001  3.2326  0.9450 -0.2241
  292MOL0     H39404   4.719   0.966   7.808  2.3431  0.2281 -1.2312
  292MOL0     H39405   4.511   1.077   7.851 -0.3264  0.1181  0.2434
  292MOL0     H39406   4.347   1.561   8.244  2.7159 -2.1905 -0.2458
  292MOL0     H39407   4.101   1.623   8.280 -1.6289 -0.5929 -0.7436
  292MOL0     H39408   3.922   1.523   8.388  0.5160  1.1653  1.1623
  292MOL0     H39409   3.772   1.471   8.336  0.6916  0.0526  0.8294
  292MOL0     H39410   3.903   1.743   8.285  1.5469 -1.4432 -0.4354
  292MOL0     H39411   3.756   1.723   8.385 -2.9441 -0.6282 -1.2603
  292MOL0     H39412   3.755   1.723   8.085 -1.7376 -0.4938 -0.3051
  292MOL0     H39413   3.681   1.825   8.205  2.9790  0.0549  1.6257
  292MOL0     H39414   3.539   1.643   8.078  0.3530  2.8953  0.2538
  292MOL0     H39415   3.626   1.527   8.183  0.8859 -0.2968 -0.3354
  292MOL0     H39416   3.395   1.724   8.474 -0.8663  0.9100 -1.0598
  292MOL0     H39417   3.979   1.298   8.035  0.2646  0.1406  0.0354
  292MOL0     H39418   4.259   1.113   8.007  2.1635 -0.6575 -0.6109
  292MOL0     H39419   4.123   1.166   7.901  0.9841 -1.6595  1.3746
  292MOL0     H39420   4.286   1.224   7.869 -1.0947 -1.7802 -1.0582
  293MOL0     O39421   9.904   8.520   8.468 -1.0312 -0.1560 -0.1410
  293MOL0     C39422   9.822   8.548   8.381 -0.5625 -0.3474  0.3117
  293MOL0     O39423   9.846   8.651   8.297  0.2506 -0.3517 -0.1109
  293MOL0     C39424   9.966   8.677   8.266 -0.3571 -0.6574  0.8353
  293MOL0     C39425  10.054   8.588   8.202 -1.0105 -0.4220  0.2581
  293MOL0     C39426  10.182   8.620   8.152  0.1136 -0.3612  1.0071
  293MOL0     C39427  10.235   8.747   8.186  0.0402 -0.0657 -0.2071
  293MOL0     O39428  10.360   8.781   8.157 -0.0013 -0.0400 -0.4354
  293MOL0     C39429  10.448   8.702   8.078 -0.3954  0.1422 -0.4119
  293MOL0     C39430  10.594   8.739   8.089 -0.3578  0.0985  0.8185
  293MOL0     C39431  10.672   8.687   7.965  0.3795  0.3467 -0.4500
  293MOL0     C39432  10.817   8.750   7.963  0.6728  0.5197 -0.7178
  293MOL0     C39433  10.910   8.703   7.855  0.2587 -0.1988  0.2283
  293MOL0     C39434  11.060   8.762   7.855 -1.2948 -0.0873 -0.2056
  293MOL0     C39435  11.124   8.770   7.721 -0.0764  0.8954  0.2958
  293MOL0     C39436  11.156   8.635   7.653 -0.3701  0.0983  0.0354
  293MOL0     N39437  11.245   8.670   7.539  0.1719  0.0108 -0.2690
  293MOL0     C39438  11.198   8.692   7.413  0.0983 -0.8186  1.2331
  293MOL0     C39439  11.302   8.712   7.334  0.0195  0.7074  0.9230
  293MOL0     C39440  11.298   8.743   7.187 -0.2062 -0.7486  0.0575
  293MOL0     C39441  11.353   8.626   7.105  1.0344  0.2875 -0.2248
  293MOL0     C39442  11.327   8.657   6.955 -0.4167 -0.4095  0.2764
  293MOL0     C39443  11.397   8.554   6.875 -0.1582  0.3469 -0.9124
  293MOL0     O39444  11.523   8.599   6.853  0.2022 -0.5253  0.2843
  293MOL0     C39445  11.611   8.534   6.775  0.4484 -0.8225 -0.0844
  293MOL0     C39446  11.590   8.396   6.724 -0.6556 -0.8152  0.1020
  293MOL0     C39447  11.702   8.334   6.673  0.5646 -0.4435 -0.2903
  293MOL0     C39448  11.823   8.399   6.646  0.3393 -0.8649  0.2085
  293MOL0     C39449  11.938   8.328   6.585 -0.7117  0.1925  0.6553
  293MOL0     O39450  11.922   8.192   6.593 -0.0039  0.2580  0.8805
  293MOL0     C39451  12.022   8.103   6.602  0.0951  0.0947  0.5640
  293MOL0     C39452  12.156   8.121   6.635  0.0750 -0.1990 -0.4561
  293MOL0     C39453  12.243   8.012   6.651  0.5269 -0.4432  0.8141
  293MOL0     C39454  12.207   7.881   6.632  0.3479  0.5021  0.0094
  293MOL0     O39455  12.284   7.770   6.632 -0.0485  0.0245  0.7999
  293MOL0     C39456  12.396   7.762   6.547 -0.2689 -0.2667 -0.1907
  293MOL0     C39457  12.484   7.636   6.554 -0.0884 -0.5973  0.7281
  293MOL0     C39458  12.549   7.618   6.692  0.4639 -0.6262  0.3042
  293MOL0     C39459  12.602   7.474   6.692  0.6676 -1.0800 -0.3461
  293MOL0     C39460  12.710   7.450   6.797  0.0090 -0.0487 -0.4652
  293MOL0     C39461  12.757   7.302   6.822  0.1585  0.3581  0.1454
  293MOL0     C39462  12.895   7.286   6.769 -0.0935  0.1170 -0.2474
  293MOL0     C39463  12.990   7.315   6.880  0.5178 -0.2143 -0.8699
  293MOL0    Cl39464  13.152   7.336   6.817  0.3305 -0.0071 -0.1763
  293MOL0     C39465  12.075   7.867   6.585  1.4248 -0.0449 -0.0125
  293MOL0     C39466  11.978   7.971   6.573  0.2601 -0.0189  0.1644
  293MOL0     O39467  12.024   8.388   6.514 -0.0478  0.2226  0.3591
  293MOL0     C39468  11.836   8.534   6.685 -0.0392  0.1871  0.1722
  293MOL0     C39469  11.736   8.595   6.763  0.9599  0.0356  0.3972
  293MOL0     N39470  11.414   8.699   7.415 -0.3960  0.0685  0.2428
  293MOL0     N39471  11.377   8.672   7.534 -0.7044  0.0792  0.0837
  293MOL0     C39472  10.146   8.836   8.259  0.4014 -0.3920 -0.5228
  293MOL0     C39473  10.016   8.803   8.289 -0.9202 -0.4208  0.0653
  293MOL0     C39474   9.682   8.485   8.365 -0.7044  0.9767 -0.8724
  293MOL0     C39475   9.606   8.515   8.252  0.3603 -0.6406 -0.1137
  293MOL0     C39476   9.472   8.470   8.238  0.0609 -1.0253  0.5892
  293MOL0     C39477   9.429   8.377   8.329  0.0106 -0.7609 -1.1568
  293MOL0     O39478   9.299   8.332   8.339  0.4759 -0.4046 -0.4989
  293MOL0     C39479   9.198   8.430   8.310 -0.6866  0.5665 -0.5497
  293MOL0     C39480   9.071   8.388   8.389 -0.3433 -0.1759  0.1187
  293MOL0     C39481   8.954   8.485   8.347 -0.1035  0.1854 -0.9172
  293MOL0     C39482   8.915   8.450   8.200 -0.4962 -0.0199 -0.3644
  293MOL0     C39483   8.779   8.507   8.174 -0.2690 -1.0769 -0.8097
  293MOL0     C39484   8.673   8.554   8.150  0.0649  0.5030 -0.3011
  293MOL0     C39485   9.502   8.356   8.440 -0.3838  0.3224  0.0764
  293MOL0     C39486   9.631   8.399   8.459  0.3884  0.9070  0.0406
  293MOL0     C39487   9.683   8.366   8.593  0.0369  0.1271  1.0218
  293MOL0     H39488  10.027   8.487   8.175  1.2599 -1.1812  0.6533
  293MOL0     H39489  10.244   8.552   8.095  0.5021 -2.3302  3.5748
  293MOL0     H39490  10.440   8.598   8.114  6.5245 -0.7517 -0.0842
  293MOL0     H39491  10.411   8.708   7.976  2.2527 -2.3305 -1.6756
  293MOL0     H39492  10.636   8.696   8.180 -1.8605  0.3021  1.6317
  293MOL0     H39493  10.592   8.848   8.084  1.0926  0.0862 -2.6193
  293MOL0     H39494  10.618   8.717   7.874 -0.2472 -0.1601 -0.2502
  293MOL0     H39495  10.675   8.578   7.974 -2.0819  0.3041  0.6170
  293MOL0     H39496  10.790   8.855   7.949 -1.1070  0.1601 -0.1444
  293MOL0     H39497  10.860   8.730   8.062  2.1426 -0.1522 -1.4507
  293MOL0     H39498  10.921   8.594   7.853  3.2725  0.0356 -0.8217
  293MOL0     H39499  10.865   8.738   7.761 -1.9172  2.3735  2.0526
  293MOL0     H39500  11.046   8.865   7.889 -2.5692 -1.1224  2.7062
  293MOL0     H39501  11.119   8.714   7.933 -0.9845  1.3912  0.4975
  293MOL0     H39502  11.211   8.835   7.721 -0.2698  1.2317  2.7606
  293MOL0     H39503  11.048   8.811   7.654 -2.2306 -2.1062  0.6778
  293MOL0     H39504  11.194   8.556   7.719  1.8348 -0.1423 -1.3923
  293MOL0     H39505  11.061   8.591   7.625 -0.7905 -0.9091  2.7574
  293MOL0     H39506  11.097   8.694   7.375  1.3744 -1.5183 -2.6714
  293MOL0     H39507  11.197   8.762   7.152  0.8281  0.8994 -2.3150
  293MOL0     H39508  11.354   8.836   7.173 -1.6885  0.4139  1.4751
  293MOL0     H39509  11.460   8.618   7.126  1.4176  0.9976 -1.7757
  293MOL0     H39510  11.303   8.535   7.140  3.9493 -1.1847  0.3625
  293MOL0     H39511  11.357   8.755   6.916 -0.0485 -0.5526  0.1959
  293MOL0     H39512  11.218   8.646   6.948 -0.8808  2.4253  1.5056
  293MOL0     H39513  11.350   8.540   6.777  0.6846  2.9046 -1.7616
  293MOL0     H39514  11.396   8.458   6.927  1.5265  1.5708  1.5717
  293MOL0     H39515  11.497   8.343   6.742 -0.6834 -1.0269 -0.6199
  293MOL0     H39516  11.689   8.230   6.646 -0.8818  0.3177 -2.9120
  293MOL0     H39517  12.182   8.225   6.654 -2.0898  0.3137 -0.0127
  293MOL0     H39518  12.345   8.034   6.680  1.5343 -1.3006 -1.8095
  293MOL0     H39519  12.362   7.784   6.446  1.0834  3.8323  0.0666
  293MOL0     H39520  12.452   7.846   6.589 -2.5728  0.3766  1.8350
  293MOL0     H39521  12.413   7.554   6.540  0.6923 -1.1006 -0.3073
  293MOL0     H39522  12.560   7.650   6.477  3.3197  0.1408  3.9278
  293MOL0     H39523  12.627   7.696   6.699 -1.6481  1.6161  0.2403
  293MOL0     H39524  12.474   7.632   6.770  1.3602  0.3128  1.0298
  293MOL0     H39525  12.639   7.449   6.592  1.4612  2.3726 -1.0591
  293MOL0     H39526  12.520   7.408   6.719 -0.6225 -0.2010 -1.9257
  293MOL0     H39527  12.662   7.484   6.889  1.4375 -0.2018  0.3649
  293MOL0     H39528  12.798   7.515   6.788  0.3302 -0.7052 -2.8320
  293MOL0     H39529  12.760   7.271   6.927  0.8672 -1.0762 -0.2700
  293MOL0     H39530  12.688   7.233   6.772  0.4714 -3.3515  4.2147
  293MOL0     H39531  12.904   7.352   6.683  1.3621  1.5283  0.9063
  293MOL0     H39532  12.915   7.184   6.734 -0.5056  0.5841 -1.9035
  293MOL0     H39533  12.955   7.401   6.938  0.6035 -0.2373 -0.7830
  293MOL0     H39534  12.991   7.236   6.956 -2.1912 -0.1435 -0.6748
  293MOL0     H39535  12.039   7.772   6.547  0.1812  0.6680 -0.6515
  293MOL0     H39536  11.872   7.957   6.555  0.0828 -1.5468  2.0579
  293MOL0     H39537  11.915   8.598   6.647 -0.4031  1.4138  1.4127
  293MOL0     H39538  11.751   8.700   6.786  1.3147 -0.3646  2.1366
  293MOL0     H39539  10.169   8.940   8.278 -3.3432  0.9073 -2.1177
  293MOL0     H39540   9.961   8.879   8.344  2.6406  1.8434  0.8360
  293MOL0     H39541   9.642   8.576   8.169 -0.1301  0.2599  0.3156
  293MOL0     H39542   9.416   8.493   8.148  0.1968 -1.5097  0.3790
  293MOL0     H39543   9.172   8.425   8.203 -0.8688  3.0808 -0.6803
  293MOL0     H39544   9.226   8.533   8.336 -0.0717 -0.1882  1.9575
  293MOL0     H39545   9.091   8.399   8.496  2.7475 -0.0491 -0.3990
  293MOL0     H39546   9.052   8.282   8.372  2.3483 -1.0743  2.1997
  293MOL0     H39547   8.982   8.590   8.357  0.3921  0.1505 -1.8665
  293MOL0     H39548   8.869   8.479   8.416 -1.8758  1.9145 -2.7910
  293MOL0     H39549   8.988   8.487   8.127  0.9017  0.9104  1.4059
  293MOL0     H39550   8.907   8.341   8.199  2.2905 -0.3036 -0.6973
  293MOL0     H39551   8.593   8.616   8.115  1.9841  2.4762 -1.4078
  293MOL0     H39552   9.461   8.282   8.508  1.2338 -0.0676  0.6617
  293MOL0     H39553   9.600   8.358   8.664 -1.7921  2.1885 -0.7842
  293MOL0     H39554   9.737   8.271   8.591  0.2492  0.2614  0.3203
  293MOL0     H39555   9.740   8.451   8.632  1.3334 -0.9190  1.4880
  294MOL0     O39556   5.497   3.248   6.251 -0.2706 -0.2186  0.2983
  294MOL0     C39557   5.410   3.332   6.250  0.5560  0.2861 -0.3368
  294MOL0     O39558   5.420   3.457   6.192 -0.1529  0.3828 -0.2276
  294MOL0     C39559   5.545   3.499   6.148  0.7391  0.6069 -0.2513
  294MOL0     C39560   5.552   3.536   6.017  0.2305 -0.7080 -0.1541
  294MOL0     C39561   5.673   3.577   5.962 -0.8129  0.1205  0.8849
  294MOL0     C39562   5.793   3.566   6.033  0.7542  0.3302  0.1405
  294MOL0     O39563   5.925   3.575   5.985  0.0599 -0.3572  0.5811
  294MOL0     C39564   5.947   3.630   5.853 -0.0625 -0.3353 -1.2413
  294MOL0     C39565   6.097   3.654   5.836  0.0553  0.5045 -0.2688
  294MOL0     C39566   6.118   3.694   5.693 -1.0757  0.2040 -0.2479
  294MOL0     C39567   6.247   3.629   5.626  0.0685 -0.3038  0.1550
  294MOL0     C39568   6.376   3.687   5.682  0.1276 -0.7125  0.0693
  294MOL0     C39569   6.498   3.643   5.602 -0.4165  0.3203  0.7388
  294MOL0     C39570   6.634   3.676   5.677  1.0139  1.2408 -0.4712
  294MOL0     C39571   6.756   3.644   5.594  0.3779 -0.4750  0.1287
  294MOL0     N39572   6.769   3.711   5.461  0.4430  0.2579 -0.6910
  294MOL0     C39573   6.710   3.666   5.351 -0.1944 -0.5266  0.1703
  294MOL0     C39574   6.767   3.745   5.249  0.0786  0.9941 -0.2587
  294MOL0     C39575   6.746   3.747   5.099 -0.0115  0.1410 -0.1425
  294MOL0     C39576   6.642   3.846   5.049 -0.4321 -0.1889  1.0837
  294MOL0     C39577   6.690   3.988   5.047 -0.4471  0.2845 -0.0977
  294MOL0     C39578   6.814   4.021   4.977  0.3788  1.0166 -0.7542
  294MOL0     O39579   6.831   3.942   4.861 -1.2566 -0.0077  0.2273
  294MOL0     C39580   6.965   3.910   4.823 -1.0366  0.2919  0.1418
  294MOL0     C39581   6.981   3.789   4.764 -0.3114  0.0555  0.2757
  294MOL0     C39582   7.111   3.746   4.721  0.5061  0.2461 -0.0530
  294MOL0     C39583   7.218   3.819   4.742 -1.0907 -0.2869  0.5287
  294MOL0     C39584   7.353   3.773   4.701 -0.2347  0.5282 -0.1722
  294MOL0     O39585   7.453   3.861   4.721  0.8639 -0.4421  0.2673
  294MOL0     C39586   7.584   3.828   4.690 -0.2555 -0.5978 -0.3581
  294MOL0     C39587   7.613   3.748   4.579 -0.5205 -0.2006  0.5713
  294MOL0     C39588   7.745   3.713   4.552 -0.0648  0.6500  0.4107
  294MOL0     C39589   7.848   3.757   4.635 -0.2603 -0.3094  0.2938
  294MOL0     O39590   7.980   3.727   4.620 -0.6741  0.5516 -0.4518
  294MOL0     C39591   8.030   3.634   4.521  0.1636  0.1337 -0.1450
  294MOL0     C39592   8.175   3.619   4.530  0.3528  0.6416 -0.3505
  294MOL0     C39593   8.244   3.507   4.444  0.1903 -0.4574  0.5500
  294MOL0     C39594   8.391   3.489   4.491 -0.3780  0.7090  0.3494
  294MOL0     C39595   8.461   3.389   4.398 -0.0234 -0.1051 -0.1250
  294MOL0     C39596   8.623   3.403   4.397  1.3602 -0.0140 -0.3399
  294MOL0     C39597   8.680   3.347   4.531 -0.3529 -0.4617 -0.4243
  294MOL0     C39598   8.819   3.275   4.517  1.2303 -0.2218  0.4602
  294MOL0    Cl39599   8.939   3.410   4.504  0.2730 -0.8029  0.6227
  294MOL0     C39600   7.824   3.851   4.731 -0.0127  0.6735 -0.5275
  294MOL0     C39601   7.695   3.884   4.767  0.9024  0.7618 -0.3433
  294MOL0     O39602   7.366   3.656   4.670  0.3571 -0.0977  0.0132
  294MOL0     C39603   7.198   3.942   4.812  0.0158  0.0296  0.0278
  294MOL0     C39604   7.075   3.981   4.855 -0.5815  0.0464  0.2844
  294MOL0     N39605   6.872   3.819   5.307  0.3394 -0.6974  0.3188
  294MOL0     N39606   6.872   3.790   5.429 -0.2742 -0.3775  0.6336
  294MOL0     C39607   5.788   3.526   6.167 -0.6438  0.7674  0.5644
  294MOL0     C39608   5.661   3.495   6.223  0.5569 -0.4127  0.0407
  294MOL0     C39609   5.280   3.308   6.327  0.5097  0.0064  0.5805
  294MOL0     C39610   5.188   3.411   6.326  0.8311  0.2297  0.4066
  294MOL0     C39611   5.060   3.393   6.367  0.5105  0.5842 -1.0213
  294MOL0     C39612   5.016   3.274   6.397  0.4537  0.8443 -0.6200
  294MOL0     O39613   4.876   3.266   6.413 -0.3981  0.8598  0.1977
  294MOL0     C39614   4.811   3.143   6.461  0.1113  0.0650 -0.6983
  294MOL0     C39615   4.824   3.113   6.612  0.1509  0.2837  0.6835
  294MOL0     C39616   4.762   3.220   6.696  0.1471  0.1514 -0.6915
  294MOL0     C39617   4.769   3.179   6.846 -0.1945  0.1293  0.2325
  294MOL0     C39618   4.804   3.302   6.922  0.1781  0.3910 -0.3264
  294MOL0     C39619   4.825   3.405   6.990  0.2855  0.1976  0.1643
  294MOL0     C39620   5.106   3.166   6.421  1.1273 -0.5663 -0.1909
  294MOL0     C39621   5.238   3.179   6.384 -0.4605 -0.2563  0.7442
  294MOL0     C39622   5.337   3.063   6.398  0.6240 -0.1085 -0.1649
  294MOL0     H39623   5.467   3.538   5.950 -0.2028  2.3655  0.3418
  294MOL0     H39624   5.690   3.584   5.855  1.5296 -0.3249  1.1687
  294MOL0     H39625   5.904   3.558   5.783  0.0485 -3.9548  2.0751
  294MOL0     H39626   5.889   3.722   5.842  1.8035  0.6978 -2.9523
  294MOL0     H39627   6.150   3.560   5.850  1.1589  1.3735  1.9047
  294MOL0     H39628   6.137   3.733   5.900  0.4688  1.7582 -1.9910
  294MOL0     H39629   6.124   3.803   5.696  0.8697  0.1369 -0.0144
  294MOL0     H39630   6.040   3.663   5.624  1.2633 -0.2903 -2.8527
  294MOL0     H39631   6.233   3.521   5.633 -0.9346 -0.2670 -0.8588
  294MOL0     H39632   6.244   3.646   5.518  1.7264  1.7319  0.3771
  294MOL0     H39633   6.362   3.796   5.679 -2.1713 -0.9560 -2.6222
  294MOL0     H39634   6.406   3.656   5.782  3.3710 -2.8872 -1.4088
  294MOL0     H39635   6.501   3.535   5.591  2.0187  0.1478  2.4266
  294MOL0     H39636   6.500   3.705   5.511 -1.8323 -0.3055  0.2472
  294MOL0     H39637   6.639   3.609   5.763  0.9650 -1.7422 -2.6206
  294MOL0     H39638   6.638   3.781   5.710  0.4774  1.7174 -1.8390
  294MOL0     H39639   6.845   3.657   5.655  0.8984 -0.4779 -0.6275
  294MOL0     H39640   6.764   3.537   5.573  5.3618 -0.9158  2.7600
  294MOL0     H39641   6.634   3.589   5.343  1.5068 -2.0868 -2.3972
  294MOL0     H39642   6.841   3.747   5.045 -0.4097 -1.8145 -0.9285
  294MOL0     H39643   6.715   3.648   5.062  3.7127 -0.9737 -0.7213
  294MOL0     H39644   6.604   3.824   4.950 -1.5037 -0.4515  1.5405
  294MOL0     H39645   6.554   3.843   5.114 -2.5988 -1.6711 -1.7401
  294MOL0     H39646   6.692   4.035   5.146 -1.8106  2.0916 -0.8580
  294MOL0     H39647   6.612   4.041   4.992 -1.4567  0.7819  1.7157
  294MOL0     H39648   6.896   3.988   5.041 -0.6762 -1.8668 -0.7138
  294MOL0     H39649   6.816   4.124   4.940  0.4851  1.4974  0.5471
  294MOL0     H39650   6.895   3.729   4.740  1.0083 -1.4112 -0.9842
  294MOL0     H39651   7.128   3.652   4.669 -1.4752  0.0985 -0.4962
  294MOL0     H39652   7.536   3.721   4.508  0.4347  1.7993 -1.3478
  294MOL0     H39653   7.767   3.660   4.460 -4.2410 -0.0787 -0.3661
  294MOL0     H39654   7.984   3.538   4.545 -1.7961  1.5019  2.0003
  294MOL0     H39655   8.001   3.669   4.421  0.1061  0.7462  0.0826
  294MOL0     H39656   8.225   3.709   4.494  1.3760 -0.2742 -1.3276
  294MOL0     H39657   8.206   3.601   4.633  0.1241  1.4537 -0.1398
  294MOL0     H39658   8.176   3.424   4.465 -1.3617  1.1033  2.0733
  294MOL0     H39659   8.238   3.521   4.336  2.2710 -2.1248  0.1645
  294MOL0     H39660   8.397   3.457   4.595 -2.0591  0.4023  0.3799
  294MOL0     H39661   8.440   3.587   4.480 -1.0041  0.8538 -1.5873
  294MOL0     H39662   8.440   3.413   4.294  0.5298  1.8278  0.1765
  294MOL0     H39663   8.424   3.287   4.413 -0.1237 -0.5451 -2.9119
  294MOL0     H39664   8.662   3.340   4.317  1.3652  1.3611 -1.4510
  294MOL0     H39665   8.658   3.503   4.370  0.3986  0.1660 -0.9503
  294MOL0     H39666   8.604   3.282   4.574  0.3508 -0.0712  1.5142
  294MOL0     H39667   8.698   3.436   4.592 -1.6767 -1.5479  1.6278
  294MOL0     H39668   8.838   3.220   4.609 -1.4593 -0.0505  1.1910
  294MOL0     H39669   8.815   3.206   4.431 -0.0912 -1.1733  1.2542
  294MOL0     H39670   7.907   3.897   4.785  1.5540  0.9656 -3.0498
  294MOL0     H39671   7.664   3.947   4.850 -1.1547  0.1361 -0.5851
  294MOL0     H39672   7.285   3.999   4.843 -1.7939  1.5921  2.7592
  294MOL0     H39673   7.070   4.076   4.908  1.5887 -0.0718  0.7829
  294MOL0     H39674   5.878   3.537   6.227 -2.3916  1.5960  3.2058
  294MOL0     H39675   5.651   3.480   6.330  1.0450 -0.8772  0.0266
  294MOL0     H39676   5.196   3.513   6.288 -3.6433  0.4195 -0.6147
  294MOL0     H39677   4.978   3.462   6.351 -0.4925 -0.8188 -2.1675
  294MOL0     H39678   4.862   3.060   6.411  2.6322  0.7792  0.4976
  294MOL0     H39679   4.703   3.137   6.443 -0.3651  2.6568  0.7630
  294MOL0     H39680   4.928   3.113   6.644  0.3784  0.3784 -0.0399
  294MOL0     H39681   4.785   3.013   6.634 -0.8433  0.0183 -1.8347
  294MOL0     H39682   4.658   3.229   6.663  0.1246 -0.1180 -0.6911
  294MOL0     H39683   4.806   3.320   6.685 -0.1649  0.4801  0.8073
  294MOL0     H39684   4.678   3.126   6.874 -0.9177  1.6787  0.9787
  294MOL0     H39685   4.851   3.108   6.854 -0.1535 -0.2047 -2.2707
  294MOL0     H39686   4.850   3.485   7.057  2.2071  0.3540 -0.6721
  294MOL0     H39687   5.059   3.075   6.458 -1.2913  1.4574  2.1285
  294MOL0     H39688   5.292   2.978   6.450 -0.8187  0.5127 -0.3608
  294MOL0     H39689   5.374   3.024   6.302  1.5635  0.5203 -0.0763
  294MOL0     H39690   5.415   3.086   6.471  0.8688 -0.8104 -0.1942
  295MOL0     O39691   9.812   1.596   8.948 -0.4174 -0.9052 -0.2786
  295MOL0     C39692   9.696   1.619   8.917 -0.6070 -0.4741 -0.0282
  295MOL0     O39693   9.649   1.736   8.864 -0.5102  0.5816  1.3786
  295MOL0     C39694   9.714   1.860   8.868 -0.1871 -0.2655  0.7448
  295MOL0     C39695   9.677   1.959   8.780 -0.1359 -0.7681  0.2111
  295MOL0     C39696   9.747   2.087   8.785  0.0983  0.3281  0.4091
  295MOL0     C39697   9.840   2.115   8.883 -0.5906 -0.1891  0.2774
  295MOL0     O39698   9.897   2.238   8.875 -0.5668 -0.4798 -0.6050
  295MOL0     C39699  10.035   2.263   8.902 -0.3449 -0.4622 -0.0578
  295MOL0     C39700  10.079   2.410   8.892  0.4678  0.2917 -0.6073
  295MOL0     C39701  10.224   2.419   8.835 -0.3235 -0.2323 -0.4144
  295MOL0     C39702  10.259   2.563   8.822 -0.3304 -0.0416 -0.2362
  295MOL0     C39703  10.396   2.573   8.757 -0.2004 -0.4453 -0.5199
  295MOL0     C39704  10.487   2.691   8.804  0.4956 -0.0534 -0.3685
  295MOL0     C39705  10.602   2.718   8.707  0.1981 -0.1163 -0.2334
  295MOL0     C39706  10.643   2.869   8.700 -0.3729  0.2665  0.6338
  295MOL0     N39707  10.761   2.901   8.610  0.6199  0.2863  0.3288
  295MOL0     C39708  10.882   2.840   8.624 -0.4405  0.0340  0.4535
  295MOL0     C39709  10.951   2.887   8.524 -0.4272  0.5371 -0.1194
  295MOL0     C39710  11.096   2.853   8.497  0.0336 -0.4497  1.0218
  295MOL0     C39711  11.195   2.937   8.570  0.0286  0.1882 -0.0552
  295MOL0     C39712  11.343   2.906   8.517 -0.6099 -1.0399  0.8981
  295MOL0     C39713  11.452   2.958   8.606  0.0400 -1.1137 -0.1669
  295MOL0     O39714  11.577   2.969   8.535 -0.1358  0.1647 -0.0753
  295MOL0     C39715  11.691   3.009   8.595  0.1919  0.5340  0.0996
  295MOL0     C39716  11.695   3.062   8.720  0.4048  0.0896 -0.4947
  295MOL0     C39717  11.818   3.096   8.789  0.0816 -0.2244 -0.4447
  295MOL0     C39718  11.937   3.068   8.721  0.2584  0.0262  0.5147
  295MOL0     C39719  12.069   3.108   8.786  0.7566  0.6867  0.1640
  295MOL0     O39720  12.180   3.070   8.730  0.3233  0.1678  1.0498
  295MOL0     C39721  12.293   3.111   8.793  0.2808 -0.2262  1.0013
  295MOL0     C39722  12.337   3.062   8.912  0.4359 -0.1953  0.7663
  295MOL0     C39723  12.459   3.102   8.964 -0.3148  0.3745  0.1599
  295MOL0     C39724  12.542   3.185   8.889 -0.4168  0.2685  0.3637
  295MOL0     O39725  12.670   3.212   8.913  0.4063  0.5172 -0.3076
  295MOL0     C39726  12.719   3.193   9.050 -0.0334  0.8337  0.1239
  295MOL0     C39727  12.860   3.263   9.056  0.6486 -0.6259 -0.8631
  295MOL0     C39728  12.975   3.177   9.000  0.3431  0.1882  0.6331
  295MOL0     C39729  13.107   3.241   9.038 -0.8401  0.1553 -0.5323
  295MOL0     C39730  13.228   3.148   9.009  0.0693  0.8824  0.3288
  295MOL0     C39731  13.347   3.201   9.093  0.8533 -0.2871 -0.4325
  295MOL0     C39732  13.459   3.101   9.088 -0.4578  0.4341 -0.0899
  295MOL0     C39733  13.578   3.167   9.160  0.9116  0.0819 -0.1151
  295MOL0    Cl39734  13.711   3.052   9.177  0.3016  0.2285 -0.4530
  295MOL0     C39735  12.500   3.231   8.769 -0.4130 -0.1852  0.8480
  295MOL0     C39736  12.379   3.189   8.724 -0.1862 -0.2646  0.5307
  295MOL0     O39737  12.066   3.169   8.894  0.5903  0.1052  0.3096
  295MOL0     C39738  11.934   3.006   8.601  0.4405 -0.1625 -0.5400
  295MOL0     C39739  11.817   2.970   8.535  0.2793 -0.2730 -0.4862
  295MOL0     N39740  10.871   2.966   8.450  0.4822 -0.0351  0.2890
  295MOL0     N39741  10.759   2.990   8.507  0.3276  0.2421  0.3678
  295MOL0     C39742   9.866   2.021   8.984  0.3411  0.5936 -0.0867
  295MOL0     C39743   9.807   1.891   8.966 -0.4533  0.0398 -0.0593
  295MOL0     C39744   9.599   1.496   8.918 -0.2207 -0.2616  0.0189
  295MOL0     C39745   9.484   1.504   8.833 -1.3907 -0.3275 -0.0055
  295MOL0     C39746   9.398   1.394   8.825 -0.0189 -0.0142 -0.5990
  295MOL0     C39747   9.403   1.288   8.914 -0.0860 -0.9000  0.6437
  295MOL0     O39748   9.316   1.180   8.912  0.8593 -0.4457 -0.5449
  295MOL0     C39749   9.180   1.201   8.859 -0.2254  0.1361 -0.3892
  295MOL0     C39750   9.105   1.305   8.940 -0.4674  0.7068 -0.3532
  295MOL0     C39751   9.115   1.284   9.087 -0.4780  0.1881  0.6622
  295MOL0     C39752   9.006   1.180   9.114  0.1803 -0.1799 -0.3745
  295MOL0     C39753   9.003   1.133   9.254 -0.0460 -0.2640 -0.6666
  295MOL0     C39754   8.978   1.096   9.371 -0.2044 -0.1047  1.0344
  295MOL0     C39755   9.512   1.281   9.003 -0.5327  0.5500 -0.1542
  295MOL0     C39756   9.611   1.387   9.007 -0.0340  0.3879 -0.0071
  295MOL0     C39757   9.712   1.381   9.116 -0.0536 -0.1334 -0.3020
  295MOL0     H39758   9.612   1.937   8.696  2.4032 -0.9355 -1.8385
  295MOL0     H39759   9.739   2.163   8.708  1.5181  2.1866  2.0148
  295MOL0     H39760  10.060   2.236   9.005 -1.5667  2.3362  1.0774
  295MOL0     H39761  10.082   2.213   8.816  0.3874  1.7823 -1.0453
  295MOL0     H39762  10.064   2.452   8.991 -1.1955  0.6198 -0.9747
  295MOL0     H39763  10.019   2.462   8.818 -0.2611 -0.7212 -0.7478
  295MOL0     H39764  10.231   2.368   8.738  3.0484 -2.2415  0.6954
  295MOL0     H39765  10.302   2.369   8.893 -1.4647 -0.8976  0.5858
  295MOL0     H39766  10.186   2.626   8.771  0.6914  1.6137  0.2833
  295MOL0     H39767  10.269   2.615   8.917  1.8173  1.5527 -1.2583
  295MOL0     H39768  10.461   2.489   8.784 -0.1733 -0.0666  0.6457
  295MOL0     H39769  10.388   2.575   8.648 -0.2583  2.1867 -0.5247
  295MOL0     H39770  10.428   2.783   8.814  0.0231 -0.3124 -0.7913
  295MOL0     H39771  10.532   2.666   8.900  2.5676  1.8143 -0.7611
  295MOL0     H39772  10.576   2.680   8.608  3.7340  0.6185 -1.5816
  295MOL0     H39773  10.683   2.649   8.732  0.3698  0.0002 -0.4645
  295MOL0     H39774  10.562   2.939   8.680  1.2257  1.5825 -1.6477
  295MOL0     H39775  10.681   2.886   8.801 -1.3537  1.5131  0.8150
  295MOL0     H39776  10.916   2.768   8.698  4.4391  3.9570  2.5964
  295MOL0     H39777  11.102   2.747   8.521 -1.1593 -1.6631 -3.1717
  295MOL0     H39778  11.122   2.857   8.391 -2.8444 -1.4863  0.1586
  295MOL0     H39779  11.169   3.042   8.553  0.0881  0.4584  1.3971
  295MOL0     H39780  11.190   2.901   8.673 -1.0788 -1.6480 -0.7066
  295MOL0     H39781  11.351   2.945   8.414 -0.5327 -1.4931  0.7327
  295MOL0     H39782  11.357   2.798   8.509  0.6737 -0.8033 -0.6754
  295MOL0     H39783  11.480   2.890   8.686  1.1266 -0.0617  0.3692
  295MOL0     H39784  11.429   3.060   8.637 -0.4598 -1.3443  0.2444
  295MOL0     H39785  11.602   3.087   8.771 -0.2936 -1.9433 -0.6895
  295MOL0     H39786  11.812   3.139   8.888 -2.4608 -1.1462 -0.1029
  295MOL0     H39787  12.269   2.989   8.955  0.9101  0.2544  2.3691
  295MOL0     H39788  12.487   3.061   9.060 -1.9357 -1.7956 -0.2242
  295MOL0     H39789  12.653   3.241   9.122  0.3724  0.6090  0.6506
  295MOL0     H39790  12.737   3.088   9.075  1.6272  0.6152 -1.7030
  295MOL0     H39791  12.839   3.350   8.993  1.3748 -1.1138 -1.7966
  295MOL0     H39792  12.895   3.292   9.155 -0.7499  0.6949 -0.7029
  295MOL0     H39793  12.968   3.075   9.037  1.9706 -0.6342 -1.1811
  295MOL0     H39794  12.975   3.169   8.891  2.7644 -3.4527  0.7225
  295MOL0     H39795  13.114   3.261   9.145  1.0295  1.3194 -0.8363
  295MOL0     H39796  13.126   3.338   8.992  3.1134  0.8992  2.2067
  295MOL0     H39797  13.256   3.148   8.903  3.0408 -1.2614  0.9757
  295MOL0     H39798  13.210   3.043   9.033  0.9478  0.6053 -0.1470
  295MOL0     H39799  13.378   3.299   9.055 -0.5789  0.8583  1.2142
  295MOL0     H39800  13.319   3.222   9.196 -0.7263  2.6152 -1.3318
  295MOL0     H39801  13.496   3.084   8.986 -0.7680  3.9107 -0.8922
  295MOL0     H39802  13.429   3.004   9.128 -3.5138  0.5980 -1.7376
  295MOL0     H39803  13.613   3.255   9.106  4.1187 -2.6507 -2.9305
  295MOL0     H39804  13.552   3.199   9.262  2.8066  0.1973  0.3637
  295MOL0     H39805  12.571   3.290   8.712 -1.8246 -0.1695 -0.9952
  295MOL0     H39806  12.344   3.227   8.628 -1.0043  1.2968  1.4024
  295MOL0     H39807  12.024   2.983   8.544  1.7461 -2.2377  2.1341
  295MOL0     H39808  11.822   2.901   8.451  2.0449 -1.8738  0.8229
  295MOL0     H39809   9.931   2.038   9.070 -0.9305  0.4987  0.9248
  295MOL0     H39810   9.849   1.816   9.031 -1.3273 -0.7593 -0.3986
  295MOL0     H39811   9.460   1.592   8.774  1.3123  0.6994  0.3056
  295MOL0     H39812   9.314   1.398   8.757 -0.8568  0.5568  0.4200
  295MOL0     H39813   9.137   1.101   8.858  2.3517 -1.0521 -1.1493
  295MOL0     H39814   9.191   1.231   8.754  2.3656 -3.6737 -1.4465
  295MOL0     H39815   9.003   1.323   8.907 -0.6433  0.1951 -0.0893
  295MOL0     H39816   9.151   1.404   8.925 -2.5748  1.8360  0.3268
  295MOL0     H39817   9.087   1.381   9.128  2.2517  1.5699 -0.4662
  295MOL0     H39818   9.218   1.256   9.112 -0.0849  1.1729  0.1971
  295MOL0     H39819   8.907   1.223   9.092 -0.0048 -0.4625 -0.1036
  295MOL0     H39820   9.021   1.098   9.043 -1.5705 -0.6450 -0.2520
  295MOL0     H39821   8.964   1.060   9.471  1.0960 -2.6535  0.3872
  295MOL0     H39822   9.523   1.189   9.061  0.2801  1.1702  0.7009
  295MOL0     H39823   9.803   1.441   9.114 -0.3576  0.5939  2.7511
  295MOL0     H39824   9.657   1.412   9.205 -0.2303 -1.6717  0.1610
  295MOL0     H39825   9.738   1.275   9.123  1.1668  0.2497  2.2395
  296MOL0     O39826   5.579   9.301  11.196  0.4027  0.5973 -0.0910
  296MOL0     C39827   5.572   9.307  11.322 -0.4747  0.3086  0.2827
  296MOL0     O39828   5.667   9.368  11.397  0.7207  0.5668  0.6030
  296MOL0     C39829   5.769   9.431  11.336  0.9158  0.8994  0.0249
  296MOL0     C39830   5.776   9.568  11.353  0.1679  0.2091 -0.1854
  296MOL0     C39831   5.892   9.625  11.327 -0.1617 -0.6979  0.5128
  296MOL0     C39832   6.005   9.565  11.275 -0.1855  0.6866 -0.6154
  296MOL0     O39833   6.121   9.635  11.259 -0.1420  0.5478  0.3355
  296MOL0     C39834   6.152   9.731  11.361  0.4306 -0.2820 -0.0483
  296MOL0     C39835   6.283   9.794  11.314  0.0478  0.5713  0.7610
  296MOL0     C39836   6.409   9.702  11.332  0.1736  0.1656 -0.4922
  296MOL0     C39837   6.549   9.782  11.300  0.0261  0.4040 -0.3511
  296MOL0     C39838   6.579   9.881  11.404  0.7503 -0.0100 -0.3005
  296MOL0     C39839   6.724   9.942  11.394 -0.5139 -0.3618  0.1535
  296MOL0     C39840   6.753  10.046  11.505  0.0619 -0.3767  0.0303
  296MOL0     C39841   6.890  10.120  11.492 -0.2169 -0.4462  0.5076
  296MOL0     N39842   7.013  10.028  11.481  0.3487  0.5987 -0.2156
  296MOL0     C39843   7.096  10.016  11.374  0.6147  0.0620  0.3106
  296MOL0     C39844   7.195   9.927  11.410  0.6385  0.0297 -0.0979
  296MOL0     C39845   7.321   9.894  11.344 -0.2220 -0.3253  0.0282
  296MOL0     C39846   7.325   9.775  11.255  0.0778 -0.5206  0.3559
  296MOL0     C39847   7.427   9.774  11.143  0.0628  0.1916  1.1770
  296MOL0     C39848   7.569   9.739  11.200 -0.1935  0.0204  0.4320
  296MOL0     O39849   7.613   9.830  11.299  0.4139 -0.0034  0.1811
  296MOL0     C39850   7.745   9.829  11.337 -0.5900  0.4169 -0.0461
  296MOL0     C39851   7.772   9.918  11.436 -0.5232  0.0024 -0.1958
  296MOL0     C39852   7.901   9.933  11.496 -0.3571  0.2701  0.7419
  296MOL0     C39853   8.005   9.857  11.453  0.3648  0.1273 -0.0887
  296MOL0     C39854   8.149   9.887  11.488 -0.9161  0.6881  0.0735
  296MOL0     O39855   8.237   9.823  11.411  0.4892 -0.2814  0.1476
  296MOL0     C39856   8.366   9.828  11.428 -0.3556 -0.3324  0.1473
  296MOL0     C39857   8.448   9.842  11.313  0.8045 -0.0860  0.0086
  296MOL0     C39858   8.585   9.844  11.323  0.3191  0.4647  0.3185
  296MOL0     C39859   8.643   9.839  11.449  0.8239  0.2840  0.2256
  296MOL0     O39860   8.775   9.845  11.466  0.1954 -0.2178  0.0725
  296MOL0     C39861   8.823   9.963  11.532  0.0408 -0.1447  0.1481
  296MOL0     C39862   8.982   9.951  11.554  0.0945  0.1622  0.2540
  296MOL0     C39863   9.031  10.093  11.584 -0.2729 -1.3306  0.6951
  296MOL0     C39864   9.174  10.121  11.527  0.3852  0.0107  0.2360
  296MOL0     C39865   9.222  10.259  11.579  0.0648 -0.2232  0.0888
  296MOL0     C39866   9.346  10.321  11.522 -0.4327 -0.0046  0.3785
  296MOL0     C39867   9.380  10.448  11.599 -0.1219 -0.5267  0.8701
  296MOL0     C39868   9.498  10.513  11.530 -0.3404 -0.6253  0.1686
  296MOL0    Cl39869   9.481  10.678  11.479  0.2750  0.0608 -0.3058
  296MOL0     C39870   8.561   9.826  11.565  0.5038 -0.2708 -0.2379
  296MOL0     C39871   8.418   9.826  11.549 -1.3241  1.1615 -0.3673
  296MOL0     O39872   8.179   9.971  11.576  0.5200 -0.1111  0.6106
  296MOL0     C39873   7.975   9.759  11.356 -0.3326  0.2419 -0.1948
  296MOL0     C39874   7.849   9.751  11.291  0.1544 -0.7413 -0.5707
  296MOL0     N39875   7.158   9.888  11.544 -0.3559  0.8814 -0.4935
  296MOL0     N39876   7.066   9.960  11.584 -0.1971 -0.4783  0.2370
  296MOL0     C39877   5.997   9.432  11.249  0.2587  0.3785  0.6297
  296MOL0     C39878   5.879   9.361  11.274  1.0139 -0.1488  0.0529
  296MOL0     C39879   5.453   9.241  11.378  0.2155  0.1073 -1.4582
  296MOL0     C39880   5.408   9.123  11.327 -0.2305 -0.1882 -0.2749
  296MOL0     C39881   5.300   9.057  11.387  0.4128 -0.3493 -0.0751
  296MOL0     C39882   5.235   9.108  11.497  0.0632 -0.1883 -0.5635
  296MOL0     O39883   5.138   9.029  11.547  0.5477  0.3218 -0.0207
  296MOL0     C39884   5.053   9.069  11.656  0.8939  0.1458 -0.3159
  296MOL0     C39885   4.917   9.128  11.607 -1.1964 -0.7606 -0.0142
  296MOL0     C39886   4.799   9.058  11.671 -0.0360 -0.4053 -0.2202
  296MOL0     C39887   4.670   9.117  11.619  0.2134 -0.5098  0.1832
  296MOL0     C39888   4.653   9.108  11.474  0.5700  0.3977  0.8672
  296MOL0     C39889   4.641   9.107  11.348 -0.7060 -0.5643  0.1632
  296MOL0     C39890   5.280   9.230  11.548  0.2205  0.4328  0.1689
  296MOL0     C39891   5.393   9.302  11.495  1.0976  0.1011 -0.0803
  296MOL0     C39892   5.448   9.417  11.577 -0.5422 -0.4547 -0.2250
  296MOL0     H39893   5.695   9.632  11.387 -0.2686 -1.5153  2.2758
  296MOL0     H39894   5.882   9.732  11.347  0.5126 -0.5282 -0.0362
  296MOL0     H39895   6.081   9.813  11.365  0.8422  0.0452  0.8482
  296MOL0     H39896   6.177   9.681  11.456 -0.9161 -4.2664 -1.5523
  296MOL0     H39897   6.300   9.884  11.374  2.8498  0.7934 -0.1873
  296MOL0     H39898   6.272   9.814  11.207 -0.6821 -1.2717  0.4436
  296MOL0     H39899   6.413   9.612  11.270  3.5842  0.6670 -1.1905
  296MOL0     H39900   6.414   9.678  11.438  2.6955 -0.9456 -0.7998
  296MOL0     H39901   6.625   9.704  11.301 -0.8198 -0.4632 -1.3365
  296MOL0     H39902   6.540   9.829  11.202 -1.7970  0.9753  0.0512
  296MOL0     H39903   6.506   9.962  11.400  1.0903  0.5179  2.3786
  296MOL0     H39904   6.567   9.827  11.498 -1.3601 -1.1563 -1.1623
  296MOL0     H39905   6.797   9.861  11.405 -1.7171 -1.3976  0.7090
  296MOL0     H39906   6.739   9.985  11.294 -0.6401 -0.9204 -0.1151
  296MOL0     H39907   6.744   9.993  11.600  0.8964  1.4865  1.2287
  296MOL0     H39908   6.676  10.124  11.507  0.9601  0.5625 -0.3600
  296MOL0     H39909   6.887  10.187  11.405  2.1859 -2.1713 -1.0233
  296MOL0     H39910   6.909  10.188  11.575  3.2678 -1.1565  0.4337
  296MOL0     H39911   7.080  10.078  11.286 -2.6664 -2.8637 -1.3910
  296MOL0     H39912   7.343   9.983  11.285 -1.5364 -1.0430 -1.6121
  296MOL0     H39913   7.394   9.872  11.423  1.1681 -1.3404 -1.4885
  296MOL0     H39914   7.333   9.675  11.298 -2.6864 -1.4830 -1.0536
  296MOL0     H39915   7.222   9.772  11.216  0.4583 -0.1230 -0.7122
  296MOL0     H39916   7.424   9.867  11.085 -1.6431  0.0206  0.9371
  296MOL0     H39917   7.394   9.693  11.076  0.5642 -0.0383  1.2067
  296MOL0     H39918   7.642   9.757  11.120 -1.0794  3.2856  0.2464
  296MOL0     H39919   7.570   9.638  11.241  0.2485  0.4758  1.5753
  296MOL0     H39920   7.701   9.990  11.478  1.6197  1.0100  1.9073
  296MOL0     H39921   7.913  10.010  11.572 -0.3266  0.8994  0.1208
  296MOL0     H39922   8.409   9.841  11.212  1.9162 -2.0053 -0.4474
  296MOL0     H39923   8.653   9.871  11.242 -1.2184 -0.1205 -1.2381
  296MOL0     H39924   8.791  10.050  11.474 -1.8948 -2.5559 -2.6698
  296MOL0     H39925   8.780   9.966  11.633  0.8975 -1.9872  0.6014
  296MOL0     H39926   9.008   9.879  11.632 -2.4304 -2.5859 -1.2390
  296MOL0     H39927   9.043   9.909  11.473  1.5108 -0.6675  1.6908
  296MOL0     H39928   8.967  10.166  11.533  2.9533 -0.1525 -2.0608
  296MOL0     H39929   9.032  10.121  11.690  0.2144  2.7965 -0.2255
  296MOL0     H39930   9.173  10.130  11.418 -0.9966 -1.1030  0.1206
  296MOL0     H39931   9.245  10.044  11.557 -0.2569 -0.9300 -0.6016
  296MOL0     H39932   9.231  10.241  11.687 -4.0031  0.3957  0.6872
  296MOL0     H39933   9.143  10.332  11.562  2.3432  1.8702 -2.2780
  296MOL0     H39934   9.436  10.259  11.531 -0.1534  0.5741  1.7682
  296MOL0     H39935   9.330  10.349  11.418 -0.4497 -1.7409 -0.1206
  296MOL0     H39936   9.395  10.431  11.706  1.0259 -0.8667  0.6770
  296MOL0     H39937   9.297  10.517  11.589 -2.1496 -2.6477  2.1356
  296MOL0     H39938   9.586  10.503  11.594 -0.6326 -0.0692  0.6646
  296MOL0     H39939   9.517  10.464  11.434  1.4662 -0.6993  0.5288
  296MOL0     H39940   8.599   9.818  11.666  2.1809 -0.6996 -0.8772
  296MOL0     H39941   8.352   9.822  11.636 -2.9068 -0.9222 -1.5714
  296MOL0     H39942   8.044   9.680  11.331 -0.5376 -0.4798  1.3621
  296MOL0     H39943   7.830   9.670  11.222 -1.7364 -0.0727 -0.9020
  296MOL0     H39944   6.080   9.386  11.197  0.6844  0.1598  1.4871
  296MOL0     H39945   5.869   9.255  11.250  1.8964  0.0470 -1.3031
  296MOL0     H39946   5.453   9.094  11.233 -0.9139 -0.5579 -0.4936
  296MOL0     H39947   5.265   8.962  11.348  1.0571 -1.3966  1.7766
  296MOL0     H39948   5.095   9.145  11.723  0.0639  1.9070 -1.7046
  296MOL0     H39949   5.035   8.985  11.724  1.0137 -0.1505 -0.6504
  296MOL0     H39950   4.914   9.130  11.497 -1.6622 -1.6564 -0.0273
  296MOL0     H39951   4.908   9.230  11.645 -1.0546 -0.3319 -1.0942
  296MOL0     H39952   4.794   9.063  11.780 -1.3975 -2.5877 -0.1052
  296MOL0     H39953   4.808   8.953  11.639 -1.2761 -0.2822 -1.0517
  296MOL0     H39954   4.590   9.065  11.674 -0.7876  0.9781  0.2109
  296MOL0     H39955   4.662   9.218  11.661 -1.1712 -0.2609 -0.6168
  296MOL0     H39956   4.630   9.100  11.241  0.2297  0.2259  0.0011
  296MOL0     H39957   5.231   9.274  11.635  0.8126  1.4148  0.0259
  296MOL0     H39958   5.463   9.506  11.516 -2.4475  0.3342  0.3531
  296MOL0     H39959   5.374   9.444  11.653 -0.2215  2.1691 -0.7600
  296MOL0     H39960   5.543   9.400  11.628 -1.2530 -0.5114  1.1546
  297MOL0     O39961   6.287   5.628   6.963 -0.3815 -0.2236  0.4386
  297MOL0     C39962   6.232   5.649   7.068  0.0790  0.4548  0.7591
  297MOL0     O39963   6.289   5.702   7.178 -0.1051 -1.0618  0.0357
  297MOL0     C39964   6.413   5.759   7.157  0.2278  0.3530  0.0863
  297MOL0     C39965   6.428   5.882   7.098 -0.5573 -0.9253 -0.3555
  297MOL0     C39966   6.563   5.942   7.089  0.2988 -0.0288  1.1704
  297MOL0     C39967   6.672   5.873   7.141 -0.3489  0.1491  0.1590
  297MOL0     O39968   6.803   5.927   7.141  0.3570  0.0347 -0.3381
  297MOL0     C39969   6.811   6.068   7.135  0.6838  0.0673 -0.2524
  297MOL0     C39970   6.905   6.126   7.249  0.8438 -0.4011  0.0197
  297MOL0     C39971   7.049   6.067   7.237  1.0033  0.0039  0.0076
  297MOL0     C39972   7.128   6.116   7.356 -0.2852  0.2526 -0.5502
  297MOL0     C39973   7.278   6.085   7.353  0.0432 -0.2271 -0.4480
  297MOL0     C39974   7.347   6.152   7.472  0.4411  0.4110  0.1003
  297MOL0     C39975   7.496   6.150   7.444 -0.1425 -0.0323 -0.3862
  297MOL0     C39976   7.577   6.214   7.561 -0.2996 -0.6401 -0.1427
  297MOL0     N39977   7.718   6.191   7.554 -0.1728  0.3808  0.9842
  297MOL0     C39978   7.780   6.078   7.598  0.0691 -1.0292 -0.5251
  297MOL0     C39979   7.912   6.083   7.570 -0.6160 -0.2650  0.6692
  297MOL0     C39980   8.002   5.966   7.594 -0.3740 -0.5248 -0.4917
  297MOL0     C39981   8.139   6.003   7.640  0.2135  0.3560  0.1294
  297MOL0     C39982   8.234   5.886   7.669  1.1444  0.1612 -0.0078
  297MOL0     C39983   8.257   5.787   7.548 -0.1371  0.1746 -0.5329
  297MOL0     O39984   8.284   5.848   7.428 -0.0467 -0.2895  0.9627
  297MOL0     C39985   8.398   5.919   7.402  0.5783 -0.8343  0.4934
  297MOL0     C39986   8.511   5.928   7.480 -0.3392  0.5648 -0.0072
  297MOL0     C39987   8.621   6.015   7.444  0.4196 -0.0176  0.6394
  297MOL0     C39988   8.621   6.081   7.317 -0.9980  0.2620 -0.4042
  297MOL0     C39989   8.752   6.151   7.276 -0.0782 -0.9051  0.1146
  297MOL0     O39990   8.860   6.122   7.353  0.3484 -0.4172  0.6919
  297MOL0     C39991   8.975   6.187   7.330  0.4132  0.1179 -0.1674
  297MOL0     C39992   8.985   6.329   7.330  0.2743 -0.2256  0.4490
  297MOL0     C39993   9.109   6.382   7.293 -0.3216  0.0417  0.9886
  297MOL0     C39994   9.218   6.301   7.270 -0.3298 -0.4409  0.1630
  297MOL0     O39995   9.333   6.360   7.236  0.5026  0.0226  0.3539
  297MOL0     C39996   9.435   6.297   7.157 -0.0001  1.2971  0.1254
  297MOL0     C39997   9.553   6.396   7.146 -0.2541  0.8337  0.1585
  297MOL0     C39998   9.673   6.328   7.070  0.6338  0.0568  0.1496
  297MOL0     C39999   9.813   6.385   7.100  1.2294 -0.1788 -0.4967
  297MOL0     C40000   9.897   6.396   6.970  0.8996  0.2527  0.5665
  297MOL0     C40001  10.027   6.460   6.991  0.2914  0.3544 -0.7594
  297MOL0     C40002  10.104   6.490   6.852  0.7249  0.1301 -0.9183
  297MOL0     C40003  10.225   6.578   6.874  0.5156 -0.0808  0.5246
  297MOL0    Cl40004  10.347   6.506   6.967  0.6821 -0.1252 -0.1983
  297MOL0     C40005   9.208   6.163   7.285  1.2157  1.1025  0.4636
  297MOL0     C40006   9.085   6.108   7.322 -0.9429  0.0449  0.3473
  297MOL0     O40007   8.749   6.221   7.179  1.0218  0.0489  0.0908
  297MOL0     C40008   8.508   6.065   7.239  0.7695  0.1345 -0.2909
  297MOL0     C40009   8.395   5.990   7.284 -0.7835 -0.1474  0.3850
  297MOL0     N40010   7.928   6.207   7.513  0.5722  0.4130 -0.7925
  297MOL0     N40011   7.813   6.273   7.502  0.2921  0.0615  1.1313
  297MOL0     C40012   6.653   5.748   7.192 -1.2560  0.2251 -0.2488
  297MOL0     C40013   6.524   5.686   7.196 -0.6116 -1.0470  0.1158
  297MOL0     C40014   6.081   5.612   7.086  0.2297 -1.4729 -1.1272
  297MOL0     C40015   6.027   5.613   7.215 -1.1996  0.0951  1.0874
  297MOL0     C40016   5.894   5.568   7.244 -0.4161 -0.6843  0.2112
  297MOL0     C40017   5.803   5.534   7.139 -0.3760  0.0508 -0.3310
  297MOL0     O40018   5.675   5.481   7.153  0.8693 -0.2127  0.2531
  297MOL0     C40019   5.608   5.479   7.278  0.0019 -0.6237 -0.9451
  297MOL0     C40020   5.477   5.412   7.254  0.5126  0.1762 -0.1274
  297MOL0     C40021   5.371   5.519   7.214  0.5176  0.4183  0.6007
  297MOL0     C40022   5.229   5.468   7.208  0.1854 -0.1566 -0.3219
  297MOL0     C40023   5.127   5.566   7.173  0.9586 -0.3069  0.4034
  297MOL0     C40024   5.033   5.648   7.165  0.0247  0.3807  0.6524
  297MOL0     C40025   5.860   5.527   7.014 -0.6348 -0.4726 -0.0148
  297MOL0     C40026   5.993   5.567   6.982  0.2608  0.5594  0.1745
  297MOL0     C40027   6.029   5.550   6.840 -0.7227 -1.1586  0.2797
  297MOL0     H40028   6.335   5.921   7.057  0.4532  0.4447 -1.4356
  297MOL0     H40029   6.564   6.040   7.043  2.1978 -0.2494  0.6689
  297MOL0     H40030   6.838   6.105   7.036  0.2942  0.3514 -0.2542
  297MOL0     H40031   6.715   6.112   7.164  1.4543  1.4662  0.2582
  297MOL0     H40032   6.863   6.090   7.344 -1.7569 -1.1192 -1.3153
  297MOL0     H40033   6.908   6.235   7.255  4.1484 -0.3319 -0.8075
  297MOL0     H40034   7.088   6.107   7.143 -0.3922  2.0253  0.2144
  297MOL0     H40035   7.058   5.958   7.230  0.1212  0.0510 -3.7912
  297MOL0     H40036   7.118   6.225   7.356  1.6500  0.4675 -1.4619
  297MOL0     H40037   7.095   6.068   7.448 -2.0820 -0.1954 -1.3840
  297MOL0     H40038   7.301   5.978   7.355 -0.3166 -0.2976  1.2956
  297MOL0     H40039   7.331   6.123   7.265  1.6141 -0.8994  0.1593
  297MOL0     H40040   7.319   6.257   7.473 -5.3736 -0.7585 -1.7284
  297MOL0     H40041   7.318   6.105   7.567  1.3916  1.5228  0.9638
  297MOL0     H40042   7.520   6.200   7.350  0.3071  1.5180  0.5011
  297MOL0     H40043   7.530   6.047   7.438 -0.8605 -0.3121  0.2177
  297MOL0     H40044   7.564   6.322   7.556  2.6316 -0.2834 -2.6798
  297MOL0     H40045   7.531   6.187   7.657 -0.2809  0.1154  0.0876
  297MOL0     H40046   7.731   5.991   7.642 -1.2856  0.0250  0.1020
  297MOL0     H40047   7.950   5.920   7.678 -2.4631  2.0222 -0.2647
  297MOL0     H40048   8.002   5.906   7.502  0.6410 -0.4541 -0.5574
  297MOL0     H40049   8.190   6.065   7.566 -0.1682 -1.1008 -1.4207
  297MOL0     H40050   8.137   6.068   7.728  0.5093 -0.9289  1.1279
  297MOL0     H40051   8.198   5.823   7.751  0.9227  1.2004  0.7134
  297MOL0     H40052   8.330   5.926   7.702  1.5041 -0.9733  0.3963
  297MOL0     H40053   8.174   5.717   7.535 -0.5526  0.3866  0.8240
  297MOL0     H40054   8.338   5.718   7.572 -2.4376 -2.4619  0.2100
  297MOL0     H40055   8.523   5.897   7.583 -0.3115  0.9316  0.1018
  297MOL0     H40056   8.704   6.042   7.509  1.5177  0.0735 -0.7438
  297MOL0     H40057   8.898   6.393   7.339  0.8024  0.2772  2.4687
  297MOL0     H40058   9.120   6.489   7.284  0.0928  0.2594  3.2951
  297MOL0     H40059   9.474   6.210   7.211 -1.2775  1.8746  2.0935
  297MOL0     H40060   9.395   6.268   7.059  0.5874 -1.3423  0.5885
  297MOL0     H40061   9.503   6.477   7.092 -1.9908 -0.1913  0.1494
  297MOL0     H40062   9.587   6.422   7.247  4.6742 -1.5188 -0.6036
  297MOL0     H40063   9.677   6.225   7.106 -1.1121  0.9695  3.4078
  297MOL0     H40064   9.659   6.323   6.962  1.3704 -4.1752  0.0777
  297MOL0     H40065   9.864   6.318   7.171  0.8621 -0.1585 -0.2125
  297MOL0     H40066   9.809   6.485   7.143 -2.6303 -1.2458  2.1674
  297MOL0     H40067   9.844   6.463   6.901  1.3196  1.3516  1.2810
  297MOL0     H40068   9.913   6.295   6.932 -3.3929  0.1646 -1.6165
  297MOL0     H40069  10.015   6.552   7.048 -0.8097 -0.1247 -0.2017
  297MOL0     H40070  10.099   6.393   7.040 -0.9190 -1.6653 -1.5995
  297MOL0     H40071  10.042   6.543   6.779  2.7344  0.4358 -2.4896
  297MOL0     H40072  10.144   6.397   6.811  1.7435 -1.4253  3.1038
  297MOL0     H40073  10.264   6.584   6.772  0.8755  0.5565  0.6927
  297MOL0     H40074  10.207   6.678   6.914  0.7575  0.1501  0.0660
  297MOL0     H40075   9.288   6.091   7.271 -0.7063 -0.9318 -0.5439
  297MOL0     H40076   9.072   6.002   7.339 -2.8485  0.3262  0.8818
  297MOL0     H40077   8.494   6.106   7.139 -2.7482  1.5789  0.6419
  297MOL0     H40078   8.312   5.960   7.221 -0.1158 -1.9901  0.3191
  297MOL0     H40079   6.742   5.696   7.226 -0.8249  1.2169  0.2104
  297MOL0     H40080   6.522   5.589   7.244  1.2537 -1.5245 -0.6748
  297MOL0     H40081   6.098   5.617   7.298  0.9909 -1.2626 -0.6030
  297MOL0     H40082   5.867   5.560   7.349 -1.6154 -1.0218 -0.1134
  297MOL0     H40083   5.614   5.584   7.309  0.6094 -0.7203 -0.7261
  297MOL0     H40084   5.677   5.415   7.335  1.9318  2.5309  0.5711
  297MOL0     H40085   5.448   5.343   7.334  0.7616 -4.1662 -3.3984
  297MOL0     H40086   5.492   5.345   7.169 -2.0619 -1.5691  0.6674
  297MOL0     H40087   5.395   5.547   7.111  1.9599 -1.7439  0.2751
  297MOL0     H40088   5.382   5.611   7.273 -0.7357  2.4908 -2.1489
  297MOL0     H40089   5.230   5.394   7.128  1.9645 -1.6361  0.9874
  297MOL0     H40090   5.214   5.419   7.304  0.4229 -0.2743 -0.3436
  297MOL0     H40091   4.953   5.713   7.137 -2.1924 -1.4325  2.4484
  297MOL0     H40092   5.792   5.506   6.932 -1.5765  1.7177  0.1165
  297MOL0     H40093   6.103   5.471   6.826  1.8259  0.7003  2.1873
  297MOL0     H40094   5.948   5.504   6.784  0.3535  0.2530 -2.6712
  297MOL0     H40095   6.067   5.648   6.808 -1.8376  0.4047  3.3579
  298MOL0     O40096   9.649   0.733   3.159  0.0431  0.1777  0.3657
  298MOL0     C40097   9.696   0.645   3.094  1.0973 -0.6898 -0.4133
  298MOL0     O40098   9.640   0.517   3.089  0.1221 -0.1699 -0.3419
  298MOL0     C40099   9.520   0.493   3.150  0.1222  0.1856 -0.4043
  298MOL0     C40100   9.506   0.500   3.289  0.3797 -0.0774  0.1590
  298MOL0     C40101   9.386   0.469   3.344  1.0300 -0.6786 -0.1646
  298MOL0     C40102   9.276   0.419   3.270  0.3766  0.0918 -0.0174
  298MOL0     O40103   9.156   0.375   3.331  0.0142  0.4628  0.0023
  298MOL0     C40104   9.178   0.291   3.450  0.7114  0.3431 -0.2912
  298MOL0     C40105   9.048   0.271   3.528  0.2609  0.4736 -0.2856
  298MOL0     C40106   8.998   0.392   3.588  1.1666 -0.1821  0.2121
  298MOL0     C40107   9.055   0.417   3.727 -0.4562 -0.1995  0.3887
  298MOL0     C40108   9.004   0.536   3.795 -0.4329 -0.6644  0.2331
  298MOL0     C40109   9.083   0.661   3.764  0.5175  0.1997  0.4461
  298MOL0     C40110   9.077   0.768   3.871 -0.0591 -0.6625  0.6389
  298MOL0     C40111   9.130   0.738   4.018 -0.2193  0.0859  0.6144
  298MOL0     N40112   9.264   0.681   4.029 -0.3364 -0.8680  0.7468
  298MOL0     C40113   9.378   0.746   4.069 -1.2074  1.0700 -0.3601
  298MOL0     C40114   9.476   0.654   4.061  0.0703  0.0596  0.1511
  298MOL0     C40115   9.619   0.679   4.096  0.0111  0.8247  0.1728
  298MOL0     C40116   9.714   0.651   3.973  0.3529  0.1424  0.0707
  298MOL0     C40117   9.859   0.632   4.017  0.4749 -0.4796 -0.1372
  298MOL0     C40118   9.939   0.612   3.892  0.9147 -0.1575  0.5405
  298MOL0     O40119  10.068   0.562   3.940  0.1710 -0.4414 -1.2864
  298MOL0     C40120  10.170   0.546   3.855  0.0680 -0.0372  0.0180
  298MOL0     C40121  10.292   0.504   3.898 -0.8250  0.4736 -0.0930
  298MOL0     C40122  10.407   0.480   3.818  0.0174  0.1670 -0.3505
  298MOL0     C40123  10.386   0.509   3.680  0.6472  1.1218  0.0552
  298MOL0     C40124  10.505   0.490   3.594 -0.5685 -0.0174 -0.4745
  298MOL0     O40125  10.614   0.407   3.638 -0.2227 -0.5288 -0.1237
  298MOL0     C40126  10.718   0.393   3.550  0.7341 -0.0911 -0.1968
  298MOL0     C40127  10.838   0.459   3.576  0.2728 -0.1113 -0.1638
  298MOL0     C40128  10.939   0.457   3.482 -0.1244  1.2649 -0.2302
  298MOL0     C40129  10.920   0.381   3.361 -0.5855 -0.0029 -1.3958
  298MOL0     O40130  11.029   0.354   3.268  0.2339 -0.0337 -0.2210
  298MOL0     C40131  11.144   0.436   3.266  0.5547 -0.7123 -0.1026
  298MOL0     C40132  11.237   0.367   3.167 -0.9598 -0.0146  0.0533
  298MOL0     C40133  11.350   0.454   3.129 -0.9156 -0.3217  0.5431
  298MOL0     C40134  11.416   0.410   3.000 -1.1269  0.0533 -0.1455
  298MOL0     C40135  11.488   0.533   2.945 -0.3394  0.1003 -0.2435
  298MOL0     C40136  11.618   0.551   3.022  0.3688 -1.0226  0.3538
  298MOL0     C40137  11.692   0.681   2.965 -0.1746  0.5821 -0.4053
  298MOL0     C40138  11.839   0.710   3.021 -0.1981 -0.2891  0.1607
  298MOL0    Cl40139  11.953   0.605   2.926 -0.0507 -0.2252 -0.3047
  298MOL0     C40140  10.803   0.317   3.333  0.9444 -0.0179 -0.0115
  298MOL0     C40141  10.703   0.322   3.430  0.1362 -0.3516  1.0012
  298MOL0     O40142  10.500   0.546   3.480 -1.0825  0.6549  0.2459
  298MOL0     C40143  10.261   0.559   3.630 -0.6798  0.5791 -1.1400
  298MOL0     C40144  10.157   0.576   3.720  0.2362 -1.0568  0.6507
  298MOL0     N40145   9.419   0.527   4.023 -0.3967 -0.4116  0.6016
  298MOL0     N40146   9.296   0.546   4.014  0.0561 -0.4446  0.6235
  298MOL0     C40147   9.280   0.413   3.133 -0.8372 -0.5639 -0.3675
  298MOL0     C40148   9.399   0.458   3.075 -0.3068  0.0243 -0.3874
  298MOL0     C40149   9.825   0.668   3.026 -0.4897 -0.0011  0.0875
  298MOL0     C40150   9.903   0.559   2.994 -0.1433  0.0084 -0.6934
  298MOL0     C40151  10.034   0.578   2.955  0.5175  0.3260 -0.2461
  298MOL0     C40152  10.090   0.705   2.940 -0.6197  0.4049 -0.2915
  298MOL0     O40153  10.218   0.720   2.905 -0.8144  0.1656 -0.4671
  298MOL0     C40154  10.270   0.641   2.792 -0.4072  0.1137 -0.4072
  298MOL0     C40155  10.290   0.743   2.676 -0.7038  0.8007  0.1441
  298MOL0     C40156  10.360   0.877   2.703 -0.0728  0.6534 -0.2277
  298MOL0     C40157  10.492   0.862   2.779 -0.2916 -0.8023 -0.1178
  298MOL0     C40158  10.587   0.795   2.691 -1.1673  0.3205 -0.2574
  298MOL0     C40159  10.666   0.741   2.616  0.2639 -0.1497  0.0106
  298MOL0     C40160  10.008   0.814   2.954 -0.4667 -0.9404 -0.6947
  298MOL0     C40161   9.874   0.796   2.989  0.5211  0.0541 -0.3009
  298MOL0     C40162   9.790   0.919   2.981  0.7246 -0.8936 -0.5931
  298MOL0     H40163   9.592   0.545   3.338 -0.5057  0.9118  0.8384
  298MOL0     H40164   9.380   0.469   3.452 -2.4227 -2.0879 -0.2037
  298MOL0     H40165   9.227   0.198   3.420  1.0101 -0.4429  2.3745
  298MOL0     H40166   9.248   0.333   3.523  2.0797  1.6301 -2.2274
  298MOL0     H40167   9.071   0.198   3.606 -0.3571  0.5344 -0.0462
  298MOL0     H40168   8.966   0.236   3.465  1.0797 -0.3399 -0.9377
  298MOL0     H40169   8.890   0.381   3.602  1.3455 -0.5991  1.3618
  298MOL0     H40170   9.020   0.482   3.529  0.3487 -0.2316 -0.1862
  298MOL0     H40171   9.027   0.332   3.791 -0.2947 -0.1901  0.4704
  298MOL0     H40172   9.163   0.428   3.723 -0.6497  1.5995 -0.7256
  298MOL0     H40173   8.903   0.556   3.759  0.4473  2.4659 -0.8123
  298MOL0     H40174   9.004   0.515   3.902  1.4522 -0.9435  0.2202
  298MOL0     H40175   9.189   0.637   3.753  1.0009  1.4063  2.1529
  298MOL0     H40176   9.053   0.694   3.664  1.8610  0.4350  0.1075
  298MOL0     H40177   8.973   0.787   3.898  0.3935  0.0237  1.9934
  298MOL0     H40178   9.121   0.861   3.831 -3.0974  1.5988  2.1316
  298MOL0     H40179   9.141   0.831   4.074  0.2141 -1.4544  3.2383
  298MOL0     H40180   9.063   0.668   4.068  0.7634 -1.7226 -0.4611
  298MOL0     H40181   9.390   0.848   4.103 -0.2098  1.1050 -0.7629
  298MOL0     H40182   9.630   0.778   4.142 -0.0269  0.3556  1.2146
  298MOL0     H40183   9.642   0.610   4.177  0.3683 -1.8772 -2.0787
  298MOL0     H40184   9.668   0.568   3.917  0.7522  0.9654 -1.5300
  298MOL0     H40185   9.702   0.735   3.904  1.2160  1.4459  1.4520
  298MOL0     H40186   9.863   0.550   4.090 -3.2118 -1.7763 -1.1702
  298MOL0     H40187   9.888   0.722   4.073  0.2409 -0.0817 -0.6466
  298MOL0     H40188   9.953   0.701   3.831  0.4796  0.1874  0.9330
  298MOL0     H40189   9.889   0.538   3.829 -1.7337  1.5445  0.5030
  298MOL0     H40190  10.302   0.472   4.002 -0.2671 -1.4671 -0.7112
  298MOL0     H40191  10.499   0.444   3.863  0.6082  2.5459  0.5085
  298MOL0     H40192  10.855   0.495   3.677 -0.7240  2.8413 -0.9286
  298MOL0     H40193  11.039   0.491   3.505  1.2295 -3.2378  1.6901
  298MOL0     H40194  11.119   0.538   3.235 -1.1848 -1.3804 -1.0564
  298MOL0     H40195  11.203   0.437   3.358  0.9045  0.0982 -0.3278
  298MOL0     H40196  11.279   0.280   3.218  0.4513  0.2467 -0.5997
  298MOL0     H40197  11.191   0.337   3.073 -0.3651  0.3733 -0.3734
  298MOL0     H40198  11.299   0.550   3.115  2.1092  1.2060 -1.1191
  298MOL0     H40199  11.426   0.465   3.208 -0.3214  0.5145 -0.1214
  298MOL0     H40200  11.336   0.380   2.933 -2.4084  2.8033  0.0132
  298MOL0     H40201  11.485   0.326   3.013 -0.1525  0.8916  0.2119
  298MOL0     H40202  11.417   0.616   2.938 -0.5504 -0.1997 -2.6222
  298MOL0     H40203  11.524   0.515   2.843  2.1440 -0.2815  0.6169
  298MOL0     H40204  11.595   0.556   3.129  0.0077 -0.3149  0.2487
  298MOL0     H40205  11.674   0.462   2.992 -0.9104 -1.1179 -2.0930
  298MOL0     H40206  11.623   0.761   2.992 -0.7242 -0.9405  3.3644
  298MOL0     H40207  11.704   0.692   2.857  3.2813  1.9907 -0.0054
  298MOL0     H40208  11.859   0.817   3.020 -0.3497 -0.2549 -1.0417
  298MOL0     H40209  11.843   0.677   3.125 -1.5933  0.3719  0.4444
  298MOL0     H40210  10.781   0.267   3.239 -3.5010  0.7739  0.3606
  298MOL0     H40211  10.604   0.282   3.410 -0.9843  3.3870 -2.3177
  298MOL0     H40212  10.245   0.589   3.527 -0.7989 -0.4498 -1.4263
  298MOL0     H40213  10.065   0.616   3.677  0.6227  1.4761  1.9656
  298MOL0     H40214   9.208   0.370   3.064  0.7375 -4.1792  0.0006
  298MOL0     H40215   9.414   0.458   2.968 -1.0330  0.2525 -0.4915
  298MOL0     H40216   9.863   0.460   3.010 -2.3796  0.9695  0.1211
  298MOL0     H40217  10.092   0.487   2.942 -1.5477 -1.3455  1.5945
  298MOL0     H40218  10.206   0.556   2.769 -1.3930 -0.2108  3.0287
  298MOL0     H40219  10.367   0.597   2.815  0.2442  1.4234 -0.5090
  298MOL0     H40220  10.187   0.755   2.643 -0.8028 -0.1079  0.0913
  298MOL0     H40221  10.340   0.698   2.589 -2.3671 -0.3971 -0.2486
  298MOL0     H40222  10.291   0.942   2.758 -2.4919 -1.2848 -0.7393
  298MOL0     H40223  10.373   0.927   2.607 -0.4479  1.0767 -0.0588
  298MOL0     H40224  10.544   0.957   2.795 -2.1337  0.2011  0.2322
  298MOL0     H40225  10.470   0.808   2.871 -0.5871 -2.8157 -1.3174
  298MOL0     H40226  10.740   0.704   2.549  1.5640  1.6004  0.3827
  298MOL0     H40227  10.037   0.916   2.931 -2.2721  0.0309  1.0723
  298MOL0     H40228   9.778   0.962   3.081 -0.4309  0.4529 -1.2852
  298MOL0     H40229   9.833   0.996   2.917  4.3132 -1.6796  0.6701
  298MOL0     H40230   9.691   0.902   2.937 -0.0674  0.0219  0.7283
  299MOL0     O40231   8.856   7.177   1.487 -0.9133 -0.0704 -0.3324
  299MOL0     C40232   8.793   7.083   1.534 -0.6495  0.2951 -0.4756
  299MOL0     O40233   8.854   6.968   1.577  0.3839  0.2138 -0.5906
  299MOL0     C40234   8.981   6.948   1.545  0.2083 -0.4768  0.7949
  299MOL0     C40235   9.090   7.038   1.565 -0.3600  0.1056  0.3971
  299MOL0     C40236   9.216   7.008   1.513  0.1620  0.5303 -0.2176
  299MOL0     C40237   9.231   6.894   1.436  0.6779  0.1716 -0.5996
  299MOL0     O40238   9.355   6.878   1.377 -0.0529 -0.3051 -0.5229
  299MOL0     C40239   9.387   6.758   1.313 -0.1937 -0.0995 -0.0395
  299MOL0     C40240   9.533   6.751   1.260 -0.1259 -0.8291  0.2243
  299MOL0     C40241   9.554   6.623   1.170  0.4403  0.5093 -0.4049
  299MOL0     C40242   9.674   6.628   1.073  0.1112 -0.6591  0.0916
  299MOL0     C40243   9.670   6.523   0.965  0.5390 -0.2914 -0.2359
  299MOL0     C40244   9.798   6.510   0.886  0.0777 -0.4247 -0.5238
  299MOL0     C40245   9.823   6.639   0.807  0.2791  0.2314 -0.4452
  299MOL0     C40246   9.967   6.635   0.746 -0.0938  0.3408  0.0609
  299MOL0     N40247  10.008   6.758   0.684  0.5295  0.2906  0.2813
  299MOL0     C40248  10.109   6.840   0.727  0.4383 -0.1635  1.0270
  299MOL0     C40249  10.123   6.931   0.621 -0.4636 -0.2074  0.1154
  299MOL0     C40250  10.222   7.040   0.591 -0.6479 -1.0913 -1.0799
  299MOL0     C40251  10.365   6.996   0.614  0.1662  0.5268  0.3852
  299MOL0     C40252  10.405   6.871   0.537  0.4820 -0.2512  0.5735
  299MOL0     C40253  10.554   6.873   0.495 -0.2209 -0.6241 -0.2408
  299MOL0     O40254  10.623   6.906   0.621  0.5829  1.0393  0.0514
  299MOL0     C40255  10.750   6.879   0.641 -0.8296  0.4520  0.1586
  299MOL0     C40256  10.841   6.845   0.540 -0.7868  0.2084 -0.0893
  299MOL0     C40257  10.973   6.817   0.582  0.5430  0.3839 -0.0128
  299MOL0     C40258  11.020   6.829   0.712 -0.0856 -0.0125  0.3780
  299MOL0     C40259  11.155   6.818   0.751 -0.9344  1.1024 -0.8317
  299MOL0     O40260  11.195   6.871   0.877  1.0725 -0.3157  0.0650
  299MOL0     C40261  11.328   6.866   0.899 -0.2703 -0.3593  0.5667
  299MOL0     C40262  11.418   6.963   0.838  0.1987  0.5739  0.1970
  299MOL0     C40263  11.546   6.967   0.872  0.0648  0.1680 -0.3487
  299MOL0     C40264  11.595   6.876   0.968  0.1982  0.2098  0.6252
  299MOL0     O40265  11.722   6.906   0.999  0.5237 -0.1009 -0.7691
  299MOL0     C40266  11.825   6.801   0.983 -0.1591  0.9594  0.7671
  299MOL0     C40267  11.944   6.876   1.035 -0.5137 -0.3695 -0.7784
  299MOL0     C40268  12.071   6.788   1.009  0.8510  0.5865 -0.2428
  299MOL0     C40269  12.199   6.855   1.093 -0.1170 -0.1539 -0.2000
  299MOL0     C40270  12.336   6.807   1.033 -0.1682 -0.1789  0.4784
  299MOL0     C40271  12.434   6.765   1.139 -0.1119 -0.8392  0.0404
  299MOL0     C40272  12.474   6.885   1.225 -0.8048 -0.1017 -0.1578
  299MOL0     C40273  12.588   6.841   1.328  0.6394  0.5876  0.4933
  299MOL0    Cl40274  12.737   6.825   1.243 -0.1178 -0.2113 -0.1368
  299MOL0     C40275  11.515   6.783   1.028 -0.4635 -0.1140 -0.4272
  299MOL0     C40276  11.374   6.774   0.998 -0.4861  0.0546 -0.1362
  299MOL0     O40277  11.234   6.771   0.673  0.1076  0.2882  0.6558
  299MOL0     C40278  10.927   6.871   0.808 -0.2583 -0.3921 -0.1175
  299MOL0     C40279  10.792   6.886   0.772 -0.4136  0.3837  0.2295
  299MOL0     N40280  10.024   6.902   0.528 -0.1080  0.2244 -0.0957
  299MOL0     N40281   9.968   6.787   0.554  0.1259 -0.9857  0.6270
  299MOL0     C40282   9.129   6.795   1.421  0.0168  0.1211 -0.8678
  299MOL0     C40283   9.006   6.824   1.480  0.1420  0.1943  0.0047
  299MOL0     C40284   8.652   7.085   1.563  0.3785 -0.2585 -0.0422
  299MOL0     C40285   8.593   6.974   1.641  0.4501  0.8873  0.7718
  299MOL0     C40286   8.467   6.989   1.692 -0.5683  0.1697 -0.4551
  299MOL0     C40287   8.380   7.097   1.657  0.0294  0.1345  0.4506
  299MOL0     O40288   8.238   7.087   1.688 -0.5658  0.5520  0.2948
  299MOL0     C40289   8.151   7.195   1.656 -0.6468  0.3087 -0.9286
  299MOL0     C40290   8.169   7.313   1.759  0.3235 -1.0720  0.2144
  299MOL0     C40291   8.037   7.383   1.796  0.7150  0.2252  0.3347
  299MOL0     C40292   7.969   7.440   1.672 -0.3882  0.7100 -0.1242
  299MOL0     C40293   7.878   7.546   1.709  0.2376  0.3021 -1.0216
  299MOL0     C40294   7.793   7.627   1.745 -0.1852  0.0593  0.0197
  299MOL0     C40295   8.432   7.199   1.575 -0.6771 -0.1733  0.7026
  299MOL0     C40296   8.569   7.197   1.534  0.4108 -0.4543 -0.4478
  299MOL0     C40297   8.605   7.302   1.432 -0.1839  0.8757 -0.0063
  299MOL0     H40298   9.064   7.120   1.632  1.3304  0.0584  1.1694
  299MOL0     H40299   9.302   7.073   1.526 -0.1203  0.6595  1.1740
  299MOL0     H40300   9.368   6.675   1.382 -1.3307 -0.4992 -0.7999
  299MOL0     H40301   9.318   6.750   1.228  0.3619 -0.0360 -0.5032
  299MOL0     H40302   9.594   6.736   1.350  1.6982 -1.2848 -1.0515
  299MOL0     H40303   9.570   6.842   1.211  2.8758 -1.3977  1.2165
  299MOL0     H40304   9.460   6.603   1.119  0.1855 -3.9272  1.3261
  299MOL0     H40305   9.556   6.533   1.234 -3.3289  0.5917  0.0512
  299MOL0     H40306   9.674   6.734   1.044  0.4134 -0.8421 -0.5745
  299MOL0     H40307   9.758   6.602   1.138  1.3011  1.6816 -0.3814
  299MOL0     H40308   9.643   6.427   1.010 -1.9956  0.7423  0.5868
  299MOL0     H40309   9.597   6.545   0.887 -0.6462  0.7087  1.0961
  299MOL0     H40310   9.873   6.491   0.963 -0.2969 -1.6377 -0.4410
  299MOL0     H40311   9.796   6.421   0.822  3.9765 -1.8551  1.0630
  299MOL0     H40312   9.826   6.725   0.875  0.3791  1.1327 -1.5591
  299MOL0     H40313   9.742   6.654   0.736  0.6855  1.2737 -0.7093
  299MOL0     H40314  10.046   6.617   0.820  0.8178  3.1199 -0.1346
  299MOL0     H40315   9.969   6.554   0.673 -1.5677  1.3100 -1.0989
  299MOL0     H40316  10.152   6.837   0.827  0.7169 -1.8837  0.8938
  299MOL0     H40317  10.205   7.069   0.487 -0.7029 -0.5331 -0.9191
  299MOL0     H40318  10.201   7.127   0.656  3.6378 -0.9999  0.4612
  299MOL0     H40319  10.430   7.081   0.594 -1.5962  2.0787  1.0263
  299MOL0     H40320  10.373   6.973   0.720 -1.1354  0.8957  0.5792
  299MOL0     H40321  10.340   6.867   0.449 -0.5608  2.7975  1.0980
  299MOL0     H40322  10.374   6.785   0.598  2.2917  0.6451  2.8855
  299MOL0     H40323  10.577   6.944   0.416 -1.3685  1.4506  1.1917
  299MOL0     H40324  10.587   6.771   0.472 -0.7785 -1.6636  3.0129
  299MOL0     H40325  10.825   6.851   0.433  0.4607  0.3759 -0.2826
  299MOL0     H40326  11.055   6.792   0.516 -0.0914 -0.5284 -0.4826
  299MOL0     H40327  11.377   7.043   0.777 -0.0910  0.2119 -0.0839
  299MOL0     H40328  11.606   7.044   0.824 -1.2602 -0.0820 -2.5275
  299MOL0     H40329  11.813   6.713   1.046  2.4287  2.4431  3.6060
  299MOL0     H40330  11.833   6.765   0.880  4.9049 -0.8522  1.5080
  299MOL0     H40331  11.943   6.974   0.987 -1.1178  0.0503  0.0676
  299MOL0     H40332  11.926   6.893   1.141 -2.8019 -0.0686 -1.1708
  299MOL0     H40333  12.051   6.684   1.036 -0.8266  1.1080  0.6509
  299MOL0     H40334  12.098   6.796   0.904 -2.8240  3.5035 -1.1452
  299MOL0     H40335  12.193   6.810   1.192  2.0930 -1.1982 -0.4730
  299MOL0     H40336  12.186   6.962   1.106 -0.6659  0.1371 -2.6402
  299MOL0     H40337  12.384   6.883   0.971  1.3908 -2.7052 -1.6290
  299MOL0     H40338  12.307   6.718   0.976  1.2058 -1.0461  1.0819
  299MOL0     H40339  12.381   6.697   1.207 -1.2605  2.2356  2.4526
  299MOL0     H40340  12.516   6.711   1.091 -0.1272 -0.0985 -0.8363
  299MOL0     H40341  12.399   6.938   1.285  0.5043 -0.0811  1.5710
  299MOL0     H40342  12.526   6.964   1.170  2.8546 -0.7344  2.0436
  299MOL0     H40343  12.596   6.932   1.389 -2.4236 -0.3554  2.5687
  299MOL0     H40344  12.566   6.754   1.390 -0.8987 -3.3184 -4.8538
  299MOL0     H40345  11.539   6.724   1.116 -1.3745  0.2530  0.0809
  299MOL0     H40346  11.317   6.701   1.053  1.1279 -1.1026  0.0578
  299MOL0     H40347  10.950   6.878   0.914 -0.2342 -0.6514 -0.1045
  299MOL0     H40348  10.721   6.917   0.849 -0.2444  2.0854 -0.2598
  299MOL0     H40349   9.136   6.694   1.380  0.7935 -0.5907  0.9265
  299MOL0     H40350   8.921   6.757   1.493 -1.3637  2.3185  2.1743
  299MOL0     H40351   8.642   6.886   1.681  0.2042 -1.0047 -2.6662
  299MOL0     H40352   8.435   6.900   1.746 -0.2609 -0.2575 -0.9653
  299MOL0     H40353   8.047   7.161   1.668  0.2098 -1.5807  2.0858
  299MOL0     H40354   8.159   7.232   1.554 -1.9485 -0.5261 -1.3635
  299MOL0     H40355   8.234   7.394   1.723 -1.3236  1.1334  1.9103
  299MOL0     H40356   8.213   7.276   1.852  1.1726  1.6267  0.9940
  299MOL0     H40357   8.059   7.465   1.865  0.0065 -0.2776  1.1760
  299MOL0     H40358   7.966   7.316   1.845  0.3268 -0.5744 -1.2554
  299MOL0     H40359   8.043   7.480   1.602  0.1157 -0.2782 -0.1707
  299MOL0     H40360   7.912   7.367   1.614  2.3752  0.1307 -2.2931
  299MOL0     H40361   7.733   7.716   1.752 -0.9483 -0.5324  1.5562
  299MOL0     H40362   8.368   7.278   1.537  0.8310  0.3646 -0.8810
  299MOL0     H40363   8.624   7.254   1.335  0.9546  0.6718  0.3109
  299MOL0     H40364   8.536   7.386   1.414  0.6425  1.6207  0.2295
  299MOL0     H40365   8.697   7.352   1.463  2.9348 -3.0141 -2.0448
  300MOL0     O40366   7.860  10.291   9.404  0.3863  1.1766 -0.2332
  300MOL0     C40367   7.888  10.277   9.525  0.3472 -0.2923 -0.6129
  300MOL0     O40368   8.009  10.239   9.576  0.0313 -0.1502  0.1274
  300MOL0     C40369   8.110  10.228   9.477  0.8991  0.7115  0.6896
  300MOL0     C40370   8.104  10.109   9.403  0.2916  0.6116 -0.7276
  300MOL0     C40371   8.198  10.073   9.307 -0.2341 -0.7032  0.1505
  300MOL0     C40372   8.315  10.165   9.288  0.9787  1.1113  0.0905
  300MOL0     O40373   8.391  10.135   9.177  0.0555  1.3691  0.0298
  300MOL0     C40374   8.449  10.241   9.101  0.6094  0.2447 -0.7267
  300MOL0     C40375   8.534  10.192   8.986  0.3731  0.0972  0.3881
  300MOL0     C40376   8.658  10.113   9.034  0.9723 -1.1288  0.8006
  300MOL0     C40377   8.753  10.073   8.920  0.1301 -0.3030 -0.1160
  300MOL0     C40378   8.842   9.953   8.973  0.0860 -0.0251  0.3481
  300MOL0     C40379   8.930   9.896   8.859 -0.1662  0.2457 -0.4686
  300MOL0     C40380   9.021   9.785   8.930 -0.8087  0.0506  0.7049
  300MOL0     C40381   9.141   9.735   8.843 -0.6142  0.6042  0.9461
  300MOL0     N40382   9.212   9.635   8.929  0.0207 -0.3425  0.8306
  300MOL0     C40383   9.286   9.670   9.038 -0.1196 -0.4720  0.4162
  300MOL0     C40384   9.326   9.551   9.087  0.1349  0.4019 -0.2150
  300MOL0     C40385   9.389   9.537   9.220 -0.6301 -0.5201  0.4055
  300MOL0     C40386   9.536   9.545   9.200 -0.9672 -0.3463  0.5972
  300MOL0     C40387   9.599   9.427   9.129  0.3866  0.0824 -0.0371
  300MOL0     C40388   9.746   9.450   9.104  0.1373  0.1615 -0.0160
  300MOL0     O40389   9.813   9.435   9.231  0.4252  0.4384 -0.2254
  300MOL0     C40390   9.948   9.427   9.237 -0.2601 -0.7273 -0.2409
  300MOL0     C40391  10.034   9.462   9.137 -0.0390  0.4661 -0.9401
  300MOL0     C40392  10.175   9.456   9.157 -0.0058 -0.2941  0.0619
  300MOL0     C40393  10.231   9.425   9.283 -0.2703 -0.9311 -0.6065
  300MOL0     C40394  10.381   9.409   9.295  0.1042  0.7298 -1.2061
  300MOL0     O40395  10.465   9.467   9.206 -0.5162  0.0318  0.3335
  300MOL0     C40396  10.598   9.463   9.232 -0.4247 -1.1060 -0.6288
  300MOL0     C40397  10.672   9.353   9.198 -0.8729  0.5897  0.8572
  300MOL0     C40398  10.817   9.353   9.204 -0.6223 -0.9118 -0.3742
  300MOL0     C40399  10.880   9.478   9.239 -0.9587 -0.2529 -0.3602
  300MOL0     O40400  11.016   9.474   9.257 -0.3097 -0.1323 -0.1349
  300MOL0     C40401  11.091   9.592   9.285 -0.8057 -0.4204 -0.1528
  300MOL0     C40402  11.239   9.557   9.310 -0.4898  0.6701  0.6442
  300MOL0     C40403  11.303   9.466   9.204 -0.6177 -0.3255  0.3170
  300MOL0     C40404  11.272   9.508   9.054  0.0898  0.3002 -0.2073
  300MOL0     C40405  11.380   9.447   8.957 -0.2807 -0.1131 -0.1139
  300MOL0     C40406  11.382   9.292   8.948  0.5090  0.1915  0.5904
  300MOL0     C40407  11.288   9.234   8.840 -1.2537 -0.1471  0.7231
  300MOL0     C40408  11.137   9.232   8.864 -0.0046  0.2572  0.3799
  300MOL0    Cl40409  11.109   9.082   8.972 -0.1964 -0.3922 -0.1932
  300MOL0     C40410  10.802   9.588   9.283 -0.0760  0.2105  0.5244
  300MOL0     C40411  10.667   9.579   9.274  0.0545  0.3664 -0.4830
  300MOL0     O40412  10.425   9.352   9.389  0.1606  0.7338 -0.5543
  300MOL0     C40413  10.144   9.412   9.392 -0.2773 -0.0387  0.3333
  300MOL0     C40414  10.003   9.409   9.364 -0.4412 -0.3439  0.2039
  300MOL0     N40415   9.266   9.442   9.016 -0.7462 -0.2243  0.4283
  300MOL0     N40416   9.195   9.495   8.920  0.1810 -0.3177 -0.4746
  300MOL0     C40417   8.317  10.283   9.363 -0.3729 -0.9322 -0.1887
  300MOL0     C40418   8.211  10.318   9.456 -0.8656  0.2036 -0.6812
  300MOL0     C40419   7.776  10.282   9.621 -0.7130  0.5478 -0.2257
  300MOL0     C40420   7.752  10.172   9.697  0.1400  1.1717 -0.3234
  300MOL0     C40421   7.638  10.159   9.788 -0.2097 -0.5369  0.0456
  300MOL0     C40422   7.549  10.265   9.798 -0.0463 -0.8319  0.4409
  300MOL0     O40423   7.440  10.270   9.871  0.2185  0.5271 -0.3943
  300MOL0     C40424   7.390  10.171   9.958  0.3097 -1.0330  0.1953
  300MOL0     C40425   7.251  10.224  10.004  0.4165  0.1479 -0.5505
  300MOL0     C40426   7.152  10.113  10.029  0.5934 -0.0047 -0.8203
  300MOL0     C40427   7.003  10.148  10.013 -0.0601 -0.4944  0.7458
  300MOL0     C40428   6.959  10.167   9.870 -0.0023  0.4507  0.5965
  300MOL0     C40429   6.945  10.178   9.750  0.0988 -0.7663 -0.3345
  300MOL0     C40430   7.577  10.384   9.730 -0.0652 -0.0517 -0.3835
  300MOL0     C40431   7.683  10.391   9.636 -0.3004 -1.1033  0.3556
  300MOL0     C40432   7.689  10.531   9.570 -0.3457 -0.2169  0.0980
  300MOL0     H40433   8.026  10.035   9.417  0.1817  0.5197 -1.7459
  300MOL0     H40434   8.186   9.979   9.253  0.9081 -0.5070 -0.4638
  300MOL0     H40435   8.373  10.314   9.072 -0.0141 -0.5528 -1.1324
  300MOL0     H40436   8.504  10.303   9.173 -1.0230  1.9127 -0.8380
  300MOL0     H40437   8.578  10.275   8.930  3.2562  0.2641  2.6569
  300MOL0     H40438   8.468  10.126   8.929  0.3692  1.3710 -1.1617
  300MOL0     H40439   8.614  10.027   9.085 -1.0633 -0.8268 -0.3618
  300MOL0     H40440   8.706  10.187   9.099 -4.0102  1.7581  1.6583
  300MOL0     H40441   8.699  10.033   8.834  2.9596 -0.0110 -2.1842
  300MOL0     H40442   8.810  10.159   8.883 -0.7051 -0.4724 -1.9098
  300MOL0     H40443   8.898   9.980   9.062  0.8330 -0.5247  0.0356
  300MOL0     H40444   8.770   9.877   9.006 -1.3037  0.3839 -1.5567
  300MOL0     H40445   8.863   9.841   8.793 -1.7626 -1.1243  2.1368
  300MOL0     H40446   8.990   9.979   8.821 -1.9449  1.6526 -0.3756
  300MOL0     H40447   8.963   9.695   8.953 -0.6960 -0.4389 -0.8299
  300MOL0     H40448   9.068   9.831   9.018  1.3615 -0.1823 -0.2594
  300MOL0     H40449   9.099   9.691   8.753 -0.0034  3.0297 -0.6033
  300MOL0     H40450   9.199   9.823   8.812 -0.3650  2.6423  6.0845
  300MOL0     H40451   9.303   9.775   9.061 -0.6145 -0.1212 -0.7558
  300MOL0     H40452   9.356   9.618   9.285  0.8804 -0.1305  0.7229
  300MOL0     H40453   9.361   9.446   9.274  0.8513 -1.0546  0.3250
  300MOL0     H40454   9.550   9.633   9.137 -2.9277 -1.2169 -1.1959
  300MOL0     H40455   9.583   9.566   9.296  0.5899 -0.5718 -0.0891
  300MOL0     H40456   9.551   9.415   9.032 -0.0982  2.1222 -0.0781
  300MOL0     H40457   9.597   9.337   9.192 -1.6960  0.3369  0.3084
  300MOL0     H40458   9.770   9.547   9.061  0.5639 -0.0416 -0.2507
  300MOL0     H40459   9.783   9.380   9.028 -0.8123  2.6079 -2.9204
  300MOL0     H40460   9.996   9.485   9.038  1.4255 -1.5011 -2.0288
  300MOL0     H40461  10.242   9.483   9.076 -0.9890  1.0850 -0.3458
  300MOL0     H40462  10.622   9.268   9.153  0.8196 -0.0100  0.0245
  300MOL0     H40463  10.878   9.269   9.172 -0.0628 -1.1727  1.2889
  300MOL0     H40464  11.093   9.662   9.201  1.9618  1.0963  1.0395
  300MOL0     H40465  11.056   9.647   9.373 -0.9036 -2.2200  0.9884
  300MOL0     H40466  11.299   9.649   9.306 -0.5803  0.7838  1.6172
  300MOL0     H40467  11.262   9.516   9.409  3.9627  0.7263 -0.1829
  300MOL0     H40468  11.412   9.471   9.217 -0.3356 -2.1824 -1.0171
  300MOL0     H40469  11.267   9.367   9.232 -0.0771 -0.8062 -0.6306
  300MOL0     H40470  11.277   9.617   9.046 -0.0582  0.3993  0.8247
  300MOL0     H40471  11.171   9.495   9.016  0.1549 -0.2752 -0.1910
  300MOL0     H40472  11.483   9.473   8.986  0.6820 -2.3688 -1.2322
  300MOL0     H40473  11.354   9.486   8.859 -1.0436 -1.8882 -0.6550
  300MOL0     H40474  11.482   9.253   8.926  0.0790 -0.3113 -0.6022
  300MOL0     H40475  11.355   9.251   9.045 -1.0703 -2.9064 -0.9914
  300MOL0     H40476  11.322   9.132   8.816  1.0480  1.1202 -1.9703
  300MOL0     H40477  11.298   9.291   8.747  1.6678 -2.6992 -0.7331
  300MOL0     H40478  11.097   9.323   8.909  0.0148  1.1023 -1.2253
  300MOL0     H40479  11.083   9.221   8.769 -0.8624  2.0152  0.6163
  300MOL0     H40480  10.839   9.684   9.318  2.8559 -0.9633  0.9961
  300MOL0     H40481  10.601   9.661   9.299 -4.4892 -2.5670 -1.5540
  300MOL0     H40482  10.188   9.404   9.491  1.4118 -3.4255 -0.5616
  300MOL0     H40483   9.935   9.382   9.444 -0.4373 -0.6579  0.1039
  300MOL0     H40484   8.385  10.366   9.345 -1.4664  0.1226  0.3514
  300MOL0     H40485   8.218  10.413   9.508 -2.4708  1.8651 -3.3156
  300MOL0     H40486   7.816  10.085   9.695 -1.9287 -0.5236  1.5131
  300MOL0     H40487   7.620  10.071   9.849  1.1322 -1.8952 -1.3949
  300MOL0     H40488   7.461  10.158  10.041  2.2387 -0.4920 -1.2968
  300MOL0     H40489   7.383  10.084   9.893 -0.6145  0.6018 -2.0270
  300MOL0     H40490   7.209  10.288   9.926  0.3420  1.0491  0.2225
  300MOL0     H40491   7.266  10.265  10.104  0.4184 -0.5281 -0.2707
  300MOL0     H40492   7.160  10.093  10.136  0.5238  2.1310 -0.3705
  300MOL0     H40493   7.168  10.027   9.962 -0.9478  0.2551 -1.5601
  300MOL0     H40494   6.928  10.077  10.049 -1.4446  0.0705 -0.9075
  300MOL0     H40495   6.981  10.237  10.073 -2.0906 -1.2100  1.1178
  300MOL0     H40496   6.931  10.198   9.645 -1.1642  3.6120  0.4643
  300MOL0     H40497   7.502  10.462   9.742  0.7998  1.1350 -2.2120
  300MOL0     H40498   7.609  10.541   9.496  0.8596 -1.5036 -1.4373
  300MOL0     H40499   7.676  10.614   9.640 -0.4252  2.2180 -2.6113
  300MOL0     H40500   7.786  10.538   9.520 -0.2915 -2.3309 -0.1707
  301MOL0     O40501   4.851   2.411  10.430  0.5596 -0.7735 -0.6652
  301MOL0     C40502   4.761   2.473  10.385  0.2615  0.0645  0.2897
  301MOL0     O40503   4.763   2.556  10.280  0.0583  0.1445  0.4432
  301MOL0     C40504   4.882   2.575  10.211 -0.2467 -0.1006 -0.5779
  301MOL0     C40505   4.977   2.669  10.248  1.0098  1.2116 -0.6796
  301MOL0     C40506   5.083   2.700  10.165  0.0241  0.3660  0.2234
  301MOL0     C40507   5.103   2.625  10.047 -0.3469 -0.3184 -0.1744
  301MOL0     O40508   5.202   2.676   9.961  0.0774 -0.3106 -0.5778
  301MOL0     C40509   5.220   2.623   9.834 -0.7959  0.2915 -0.3596
  301MOL0     C40510   5.329   2.698   9.752 -0.4751  0.2079  0.1797
  301MOL0     C40511   5.465   2.716   9.817  0.2278 -0.2275  1.5567
  301MOL0     C40512   5.571   2.775   9.715  0.0612  0.5416 -0.3040
  301MOL0     C40513   5.705   2.790   9.786 -0.2904 -0.3974  0.0040
  301MOL0     C40514   5.796   2.879   9.708 -0.5077 -0.7065  0.5718
  301MOL0     C40515   5.933   2.916   9.767 -0.0131 -0.5924  0.6242
  301MOL0     C40516   6.033   2.819   9.717 -0.6341 -0.0185  0.1435
  301MOL0     N40517   6.168   2.880   9.707  0.3574  0.4063  1.1110
  301MOL0     C40518   6.278   2.832   9.626  0.5425  0.1793  0.3048
  301MOL0     C40519   6.372   2.928   9.649  0.4400 -0.2369 -0.4536
  301MOL0     C40520   6.494   2.960   9.579 -0.8512  0.0541 -0.0290
  301MOL0     C40521   6.624   2.899   9.628 -0.3894 -0.6144  0.0030
  301MOL0     C40522   6.692   3.002   9.723 -0.0757  1.1829  0.4613
  301MOL0     C40523   6.815   2.936   9.781 -0.0638 -0.0081  0.2984
  301MOL0     O40524   6.913   2.924   9.680 -0.3106  0.0039 -0.2195
  301MOL0     C40525   7.024   2.841   9.711 -0.4009 -0.3625 -0.1562
  301MOL0     C40526   7.129   2.841   9.618 -0.0797 -0.1051 -0.1038
  301MOL0     C40527   7.245   2.762   9.639 -0.2220  1.0271  0.4464
  301MOL0     C40528   7.263   2.695   9.760  0.2618  0.2693 -1.0048
  301MOL0     C40529   7.388   2.621   9.783  0.5074  0.0703  0.4637
  301MOL0     O40530   7.500   2.657   9.709  0.5278  0.0020 -0.0176
  301MOL0     C40531   7.604   2.573   9.688 -0.6079  0.9774 -0.4239
  301MOL0     C40532   7.618   2.433   9.721  0.0531  1.3082  1.0688
  301MOL0     C40533   7.728   2.354   9.694  0.7285  0.2886 -0.3412
  301MOL0     C40534   7.840   2.416   9.645 -0.4620 -0.1219  0.6198
  301MOL0     O40535   7.947   2.344   9.604 -0.2522  0.0454  0.4145
  301MOL0     C40536   7.980   2.218   9.666 -0.4063 -0.0784 -0.4666
  301MOL0     C40537   8.119   2.190   9.615  0.0135 -0.1030  0.1939
  301MOL0     C40538   8.102   2.164   9.467 -0.6094 -0.2075 -0.5820
  301MOL0     C40539   8.235   2.120   9.406  0.0984 -0.6414 -0.4311
  301MOL0     C40540   8.204   2.039   9.286 -0.1200 -0.2566  0.1223
  301MOL0     C40541   8.322   1.963   9.233 -0.2428 -0.4210 -0.6484
  301MOL0     C40542   8.413   2.068   9.154 -0.0644  0.3295  0.1320
  301MOL0     C40543   8.515   2.002   9.068 -0.1590  0.0108 -0.4228
  301MOL0    Cl40544   8.667   1.973   9.176 -0.0629 -0.0973  0.0403
  301MOL0     C40545   7.835   2.552   9.608  0.5081  0.7836 -0.5288
  301MOL0     C40546   7.721   2.631   9.636  0.3838  0.2241 -0.2703
  301MOL0     O40547   7.387   2.530   9.868  0.0596  0.2022  0.4737
  301MOL0     C40548   7.152   2.692   9.864  0.4111  0.3825  0.9750
  301MOL0     C40549   7.045   2.777   9.837 -0.1245  0.3703  0.2678
  301MOL0     N40550   6.324   3.018   9.751  0.2003 -0.7043 -0.0763
  301MOL0     N40551   6.213   2.974   9.789 -0.0547  0.6442 -0.5077
  301MOL0     C40552   5.016   2.521  10.013  0.6716 -0.1232 -0.5645
  301MOL0     C40553   4.913   2.494  10.096  0.8978 -0.0652 -0.5878
  301MOL0     C40554   4.624   2.462  10.445 -0.2136  0.0592 -0.3103
  301MOL0     C40555   4.606   2.395  10.575 -0.7213  0.1838  0.0661
  301MOL0     C40556   4.485   2.394  10.639 -0.6053  0.1661 -0.8092
  301MOL0     C40557   4.368   2.451  10.579  0.8707  0.8091 -0.0011
  301MOL0     O40558   4.248   2.476  10.641 -0.0172 -0.9470  0.3640
  301MOL0     C40559   4.222   2.403  10.764  0.2288  0.1319 -0.8159
  301MOL0     C40560   4.073   2.408  10.813 -0.6701 -0.1245  0.2898
  301MOL0     C40561   3.979   2.346  10.701  0.0056 -0.7767 -0.3881
  301MOL0     C40562   3.840   2.414  10.703  0.6086 -0.9283  0.0168
  301MOL0     C40563   3.775   2.358  10.824 -0.3340  0.7987 -0.7294
  301MOL0     C40564   3.742   2.308  10.933 -0.1142 -0.1633 -0.2574
  301MOL0     C40565   4.384   2.512  10.457  0.5427 -0.6968  0.4403
  301MOL0     C40566   4.506   2.517  10.385 -0.8705  0.0688 -1.0855
  301MOL0     C40567   4.493   2.582  10.247 -0.6442  0.4332  0.2991
  301MOL0     H40568   4.958   2.736  10.332  2.1136  1.3130 -0.4966
  301MOL0     H40569   5.156   2.775  10.195  0.3058  0.6671 -1.1569
  301MOL0     H40570   5.252   2.519   9.825  3.9420  1.4694  0.1621
  301MOL0     H40571   5.121   2.637   9.790 -2.0160  2.5628  2.7545
  301MOL0     H40572   5.291   2.789   9.706 -1.3360 -1.3420 -2.4078
  301MOL0     H40573   5.353   2.632   9.668  2.3940  0.4117  0.7527
  301MOL0     H40574   5.499   2.614   9.838  0.7122 -0.7729 -1.4494
  301MOL0     H40575   5.448   2.782   9.902 -1.1637  0.5939  0.6867
  301MOL0     H40576   5.587   2.701   9.637  0.9970 -2.2522  2.3242
  301MOL0     H40577   5.526   2.863   9.669  0.5285  0.6800 -0.4967
  301MOL0     H40578   5.690   2.851   9.876  1.8590  0.6956 -0.3116
  301MOL0     H40579   5.754   2.698   9.818 -0.5779 -0.7265 -0.4842
  301MOL0     H40580   5.810   2.821   9.616  1.6960  0.0229  0.3764
  301MOL0     H40581   5.745   2.974   9.693  1.3983  0.5036  1.3635
  301MOL0     H40582   5.930   2.921   9.876 -1.3216  0.0992  0.5648
  301MOL0     H40583   5.962   3.017   9.739  4.0518 -1.5722  0.6212
  301MOL0     H40584   6.037   2.732   9.784  0.7087 -1.4493 -1.6780
  301MOL0     H40585   6.010   2.782   9.617  0.4742 -0.5706  0.0841
  301MOL0     H40586   6.277   2.760   9.545  0.0824  1.9036 -1.2937
  301MOL0     H40587   6.485   2.937   9.472  1.3445  1.9039 -0.7221
  301MOL0     H40588   6.504   3.069   9.567  0.7145 -0.0724 -0.1861
  301MOL0     H40589   6.598   2.805   9.676 -1.8488 -1.3380 -2.0460
  301MOL0     H40590   6.680   2.892   9.534  3.7645  1.1522  2.0829
  301MOL0     H40591   6.622   3.032   9.801  0.3455  1.8500  0.5914
  301MOL0     H40592   6.715   3.090   9.663 -1.8065  1.9735  0.9085
  301MOL0     H40593   6.783   2.838   9.818 -1.1496 -0.8297 -2.5958
  301MOL0     H40594   6.851   2.998   9.864  0.9577  1.8663 -1.4705
  301MOL0     H40595   7.121   2.890   9.521 -1.4319  0.6693  0.3781
  301MOL0     H40596   7.324   2.763   9.565 -0.3648  2.0960  0.2885
  301MOL0     H40597   7.543   2.376   9.774 -0.9290  1.9869  0.4663
  301MOL0     H40598   7.737   2.247   9.710 -2.7427 -0.1305 -0.5137
  301MOL0     H40599   7.997   2.204   9.773  2.2751 -1.2612 -0.9440
  301MOL0     H40600   7.911   2.142   9.629  1.2701 -0.8544 -2.1872
  301MOL0     H40601   8.176   2.280   9.638 -0.6940  0.8160 -1.4624
  301MOL0     H40602   8.152   2.096   9.660  1.5637  0.5289  0.4103
  301MOL0     H40603   8.027   2.084   9.468 -0.7970 -0.0373  0.9950
  301MOL0     H40604   8.061   2.244   9.405  0.3921  0.6289 -0.1860
  301MOL0     H40605   8.287   2.053   9.475  0.2305 -0.6700 -0.5556
  301MOL0     H40606   8.293   2.202   9.362  1.1786 -1.1822 -0.0552
  301MOL0     H40607   8.161   2.106   9.211 -1.9032 -0.5543  0.8053
  301MOL0     H40608   8.134   1.958   9.310 -2.1299  1.0700 -0.9978
  301MOL0     H40609   8.382   1.915   9.310 -2.1141 -1.4110  0.2658
  301MOL0     H40610   8.287   1.889   9.161  1.0630 -1.8943  0.1762
  301MOL0     H40611   8.468   2.122   9.232  0.2849 -0.6752  0.6117
  301MOL0     H40612   8.351   2.138   9.099  1.1798 -0.5300 -2.5099
  301MOL0     H40613   8.476   1.904   9.041  0.1773  0.1040 -1.2763
  301MOL0     H40614   8.537   2.061   8.979  0.4070  1.3811  0.5801
  301MOL0     H40615   7.922   2.602   9.566  1.4629  0.4637  1.0191
  301MOL0     H40616   7.728   2.738   9.626  0.2832  0.4672  1.8173
  301MOL0     H40617   7.162   2.670   9.970 -0.9459  2.9094  1.7251
  301MOL0     H40618   6.965   2.784   9.910 -0.6162 -1.6502 -0.0246
  301MOL0     H40619   5.041   2.464   9.924  1.5509  0.8887 -0.9917
  301MOL0     H40620   4.833   2.423  10.080 -1.5019  1.7718  2.1821
  301MOL0     H40621   4.694   2.359  10.626  0.8435  1.4644 -1.6013
  301MOL0     H40622   4.476   2.354  10.739 -2.1732 -2.2472 -1.8312
  301MOL0     H40623   4.295   2.446  10.833  2.4035 -1.1420 -2.1974
  301MOL0     H40624   4.243   2.297  10.746 -1.0364 -0.6389  1.8467
  301MOL0     H40625   4.039   2.509  10.835  1.5897  0.0426  3.5871
  301MOL0     H40626   4.066   2.353  10.907  0.6901 -2.5647 -0.9389
  301MOL0     H40627   3.971   2.238  10.716 -0.8179 -0.6631  0.0198
  301MOL0     H40628   4.023   2.376  10.605 -0.1400  1.2993  0.1545
  301MOL0     H40629   3.838   2.523  10.714  0.9825 -0.7429 -1.5396
  301MOL0     H40630   3.789   2.393  10.608  1.5824 -1.0888 -0.4786
  301MOL0     H40631   3.710   2.252  11.018  0.4838 -0.5057 -0.2534
  301MOL0     H40632   4.297   2.552  10.404 -1.7701 -1.8842  3.0864
  301MOL0     H40633   4.544   2.679  10.247 -0.0035  0.1068  0.8102
  301MOL0     H40634   4.538   2.517  10.171 -3.8471 -1.2103 -0.3393
  301MOL0     H40635   4.392   2.600  10.209 -1.3546  0.7014  2.2031
  302MOL0     O40636   5.024   5.126   9.573  0.2807 -0.5173 -0.3891
  302MOL0     C40637   5.000   5.236   9.625 -0.4070  1.1769  0.1778
  302MOL0     O40638   5.084   5.344   9.617  0.1756  0.0007 -0.3589
  302MOL0     C40639   5.219   5.342   9.606  0.3155  0.1715  0.2239
  302MOL0     C40640   5.306   5.231   9.623  0.1080 -0.2491 -0.2724
  302MOL0     C40641   5.444   5.243   9.629 -0.1810  0.4010  0.1350
  302MOL0     C40642   5.499   5.367   9.601 -0.1058  0.5952 -0.5384
  302MOL0     O40643   5.635   5.393   9.580 -0.4413 -0.0426  0.0599
  302MOL0     C40644   5.714   5.279   9.545 -0.8085 -0.1176 -0.1471
  302MOL0     C40645   5.833   5.317   9.445  1.1176  0.0285 -0.9672
  302MOL0     C40646   5.943   5.212   9.445 -0.6781 -0.0489  0.4134
  302MOL0     C40647   6.086   5.262   9.431 -0.5698 -0.6045 -0.3076
  302MOL0     C40648   6.179   5.149   9.416  0.2719  0.4421  0.9984
  302MOL0     C40649   6.323   5.180   9.368  0.3997 -0.4071  1.2936
  302MOL0     C40650   6.385   5.283   9.461  0.4242 -0.2472  0.1586
  302MOL0     C40651   6.514   5.345   9.397  0.8039  0.1107  0.0150
  302MOL0     N40652   6.575   5.437   9.494 -0.5174  0.3206 -0.1381
  302MOL0     C40653   6.583   5.570   9.481 -0.1563  0.4286 -0.1263
  302MOL0     C40654   6.664   5.603   9.584  0.0714  0.3703  0.2506
  302MOL0     C40655   6.684   5.749   9.625  0.9716 -0.2529 -0.4536
  302MOL0     C40656   6.815   5.762   9.711  0.4687  0.0460 -0.6230
  302MOL0     C40657   6.859   5.900   9.738  0.9355 -0.3646 -0.6249
  302MOL0     C40658   6.973   5.898   9.828  0.4867 -0.3713  0.0017
  302MOL0     O40659   6.906   5.866   9.956 -0.1259 -0.4348 -0.4062
  302MOL0     C40660   6.982   5.909  10.069  0.6330  0.3674 -0.0973
  302MOL0     C40661   6.907   5.906  10.189 -0.5605 -0.7690 -0.1825
  302MOL0     C40662   6.964   5.970  10.303 -0.4997 -0.0710  0.4619
  302MOL0     C40663   7.099   6.027  10.306  0.5530  1.2446  0.2350
  302MOL0     C40664   7.161   6.081  10.422  0.8824 -0.2923 -0.1486
  302MOL0     O40665   7.089   6.117  10.533 -0.6820 -0.0671  0.0778
  302MOL0     C40666   7.171   6.142  10.644 -0.2802  0.1651 -0.5395
  302MOL0     C40667   7.204   6.043  10.744  0.0462  0.2199  0.0943
  302MOL0     C40668   7.278   6.084  10.867 -0.5347 -0.1082  0.7715
  302MOL0     C40669   7.317   6.214  10.892  0.5964 -0.1030  0.3486
  302MOL0     O40670   7.386   6.257  11.002  0.2019 -0.4418  0.0809
  302MOL0     C40671   7.488   6.354  10.979  0.1749  0.6425  0.3498
  302MOL0     C40672   7.565   6.377  11.113  0.8541 -1.0136 -0.5319
  302MOL0     C40673   7.719   6.360  11.100 -0.5055  0.1870 -1.1756
  302MOL0     C40674   7.776   6.490  11.042 -0.1544  0.1653  0.0765
  302MOL0     C40675   7.920   6.489  10.981  0.3600  0.2752 -0.3141
  302MOL0     C40676   8.004   6.419  11.082 -0.4128  0.1532  0.7547
  302MOL0     C40677   8.150   6.407  11.023  0.0070  0.1311 -0.3221
  302MOL0     C40678   8.246   6.349  11.122 -0.6442 -0.0861 -0.6560
  302MOL0    Cl40679   8.415   6.350  11.072 -0.1861  0.0776  0.3206
  302MOL0     C40680   7.274   6.308  10.791 -0.2274 -0.2742 -0.2747
  302MOL0     C40681   7.210   6.275  10.668  0.1192  0.8103 -1.2280
  302MOL0     O40682   7.281   6.114  10.404  0.0544  0.5216  0.6551
  302MOL0     C40683   7.164   6.028  10.179 -0.2068  0.4803 -0.2207
  302MOL0     C40684   7.104   5.972  10.064 -0.5792 -0.0400  0.8163
  302MOL0     N40685   6.690   5.498   9.661 -0.3543  0.5213  0.0218
  302MOL0     N40686   6.640   5.389   9.604 -0.6883 -0.5250  0.2960
  302MOL0     C40687   5.421   5.476   9.570 -1.5808  0.2857  0.0932
  302MOL0     C40688   5.281   5.470   9.575  0.6225 -0.0287 -0.4327
  302MOL0     C40689   4.867   5.261   9.682  0.5165  0.9837  0.9427
  302MOL0     C40690   4.847   5.379   9.754  0.9361  0.0857 -0.6434
  302MOL0     C40691   4.725   5.409   9.801 -0.2153 -0.1153 -0.5292
  302MOL0     C40692   4.610   5.322   9.791  0.3802 -0.7291  0.7236
  302MOL0     O40693   4.487   5.358   9.829 -0.6987 -0.0684  0.3571
  302MOL0     C40694   4.455   5.492   9.843  0.2794 -0.5645  0.1730
  302MOL0     C40695   4.304   5.501   9.861 -0.3589 -0.4308  1.1184
  302MOL0     C40696   4.229   5.627   9.889 -0.2735 -0.5313  0.6114
  302MOL0     C40697   4.313   5.740   9.952  0.8041  0.4268  0.0296
  302MOL0     C40698   4.341   5.702  10.089 -0.0750  0.0452  0.4256
  302MOL0     C40699   4.360   5.678  10.205  0.1490 -0.5229 -0.4546
  302MOL0     C40700   4.630   5.206   9.725  0.2043  0.3808  0.8624
  302MOL0     C40701   4.756   5.172   9.661 -0.0121  0.1586 -0.5814
  302MOL0     C40702   4.762   5.041   9.581 -1.0588  0.1553  0.0167
  302MOL0     H40703   5.275   5.128   9.638  3.5063 -1.3056  0.2652
  302MOL0     H40704   5.510   5.161   9.654  1.9362  0.6452 -3.8965
  302MOL0     H40705   5.758   5.234   9.634 -2.8820 -1.6584  0.1824
  302MOL0     H40706   5.654   5.200   9.499  0.4016 -1.2116  0.1010
  302MOL0     H40707   5.876   5.411   9.480  1.0425  0.2335 -1.4146
  302MOL0     H40708   5.798   5.331   9.342 -3.0815 -0.8828  0.1752
  302MOL0     H40709   5.926   5.133   9.371  2.0611  0.8738 -1.3389
  302MOL0     H40710   5.944   5.170   9.546 -1.3005  3.8924  2.2487
  302MOL0     H40711   6.105   5.340   9.356 -0.2131 -1.2751 -0.9311
  302MOL0     H40712   6.120   5.312   9.522  3.0354 -0.7295 -1.3977
  302MOL0     H40713   6.197   5.086   9.504 -0.7978 -0.1087  0.8428
  302MOL0     H40714   6.132   5.091   9.336 -0.0429  2.1003 -0.0733
  302MOL0     H40715   6.384   5.089   9.365 -1.2235 -1.8017  4.8396
  302MOL0     H40716   6.309   5.219   9.267 -1.4951 -3.6942  0.1497
  302MOL0     H40717   6.429   5.229   9.546  1.5494  0.0486 -0.2165
  302MOL0     H40718   6.318   5.358   9.503  2.2210 -0.3934  3.7007
  302MOL0     H40719   6.587   5.263   9.387 -1.9660 -3.3750  4.4112
  302MOL0     H40720   6.506   5.396   9.301 -0.0084  0.3643  0.2091
  302MOL0     H40721   6.537   5.629   9.402  0.5370  1.4252  0.1930
  302MOL0     H40722   6.695   5.806   9.532 -0.6954 -2.0143 -1.8120
  302MOL0     H40723   6.597   5.788   9.679  0.4882  1.4835 -2.3514
  302MOL0     H40724   6.809   5.704   9.804  3.0068 -0.7924 -0.9197
  302MOL0     H40725   6.894   5.712   9.654  2.0032 -1.6698  2.6988
  302MOL0     H40726   6.780   5.959   9.787  0.4607  0.1509 -1.9458
  302MOL0     H40727   6.888   5.949   9.644  3.1937  1.5903  0.9777
  302MOL0     H40728   7.023   5.995   9.827 -0.9548  0.3954 -0.4808
  302MOL0     H40729   7.043   5.824   9.788  0.3941 -0.4308 -0.0495
  302MOL0     H40730   6.804   5.871  10.192 -0.6948 -0.3854 -0.2451
  302MOL0     H40731   6.904   5.986  10.392 -0.0870  1.9409  0.4133
  302MOL0     H40732   7.163   5.945  10.722 -3.1556  1.1286  1.4192
  302MOL0     H40733   7.287   6.015  10.951 -0.4952  0.1907  1.0185
  302MOL0     H40734   7.558   6.309  10.908 -2.0090 -1.6217 -0.5239
  302MOL0     H40735   7.455   6.449  10.936  0.3210 -0.2521 -1.8837
  302MOL0     H40736   7.526   6.468  11.161  0.0353 -0.6474 -1.8549
  302MOL0     H40737   7.528   6.302  11.183  1.8777 -0.8136  0.2497
  302MOL0     H40738   7.761   6.341  11.199 -4.0653  0.0089  0.4385
  302MOL0     H40739   7.734   6.268  11.043  0.9755 -0.5804  0.3840
  302MOL0     H40740   7.778   6.570  11.116 -2.1464 -0.2600  0.6417
  302MOL0     H40741   7.720   6.523  10.954  0.9299 -0.9080 -1.0626
  302MOL0     H40742   7.957   6.589  10.958  1.7408 -0.6313 -2.3491
  302MOL0     H40743   7.935   6.428  10.891 -0.4875 -2.7962  1.5013
  302MOL0     H40744   7.999   6.463  11.182 -1.1261 -1.9441  1.6896
  302MOL0     H40745   7.970   6.316  11.093 -1.7820  0.3796 -0.9439
  302MOL0     H40746   8.191   6.505  10.998  0.6443  0.0346  0.3364
  302MOL0     H40747   8.143   6.341  10.936  1.8168 -1.2002  0.4955
  302MOL0     H40748   8.231   6.401  11.216  0.3786  0.1018 -0.5859
  302MOL0     H40749   8.209   6.247  11.139 -1.5623 -0.0776 -2.3447
  302MOL0     H40750   7.289   6.414  10.803  1.1151  0.4121 -5.5178
  302MOL0     H40751   7.177   6.358  10.607  2.0065  0.8088 -2.3164
  302MOL0     H40752   7.264   6.070  10.180  0.5798 -1.2684  0.6262
  302MOL0     H40753   7.168   5.983   9.977 -2.3585 -0.4635 -0.6009
  302MOL0     H40754   5.472   5.572   9.558 -1.0322  0.0316  0.3651
  302MOL0     H40755   5.224   5.563   9.574 -0.6896 -0.7120  1.9265
  302MOL0     H40756   4.918   5.457   9.782 -0.6018  1.2058  0.2730
  302MOL0     H40757   4.712   5.502   9.855 -1.1124  0.3630 -1.5274
  302MOL0     H40758   4.483   5.551   9.755  1.4205 -1.0088  0.2218
  302MOL0     H40759   4.501   5.552   9.921 -0.0119 -0.1636  0.0385
  302MOL0     H40760   4.278   5.440   9.948  2.7159 -0.4593  2.1653
  302MOL0     H40761   4.257   5.458   9.772  2.1348  1.0318 -1.0593
  302MOL0     H40762   4.133   5.615   9.941 -0.9176  0.6020 -0.2780
  302MOL0     H40763   4.192   5.666   9.794  1.1294 -0.7802 -0.0588
  302MOL0     H40764   4.407   5.749   9.897 -0.4828  1.3727 -2.1264
  302MOL0     H40765   4.264   5.837   9.958  0.0956  0.1609 -1.1792
  302MOL0     H40766   4.363   5.650  10.308 -0.6295 -0.8947 -0.5269
  302MOL0     H40767   4.549   5.137   9.700  1.3857 -0.4043 -1.0025
  302MOL0     H40768   4.665   4.992   9.566  0.8797 -4.2749  0.3663
  302MOL0     H40769   4.800   5.051   9.479 -0.8218  2.4176  0.2710
  302MOL0     H40770   4.821   4.968   9.638  0.3950  3.7384  3.5707
  303MOL0     O40771   9.248   5.258  10.693 -0.0694 -0.2768  0.3413
  303MOL0     C40772   9.167   5.176  10.719  0.0344  0.8281 -0.6566
  303MOL0     O40773   9.204   5.050  10.772  0.4500 -0.5574  0.4335
  303MOL0     C40774   9.339   5.025  10.782 -0.0458 -0.6275  0.2631
  303MOL0     C40775   9.388   4.920  10.709  0.0426 -0.3395  0.6392
  303MOL0     C40776   9.522   4.888  10.726  0.3584 -0.1015  0.0844
  303MOL0     C40777   9.605   4.953  10.810 -0.0910 -0.9892  0.3469
  303MOL0     O40778   9.730   4.901  10.823  0.9435 -0.3101  0.4218
  303MOL0     C40779   9.822   4.943  10.928  0.1016  0.0800 -0.2398
  303MOL0     C40780   9.964   4.888  10.896 -0.0353 -0.1075  0.5998
  303MOL0     C40781  10.066   4.946  10.992  0.3995 -0.1064  0.0633
  303MOL0     C40782  10.210   4.907  10.960 -0.7639  0.6556 -0.5583
  303MOL0     C40783  10.310   4.984  11.054  0.3765  0.1587 -0.6404
  303MOL0     C40784  10.456   4.973  11.008 -0.2587 -0.0281 -0.8802
  303MOL0     C40785  10.545   5.070  11.081  0.3231 -0.2929 -0.1029
  303MOL0     C40786  10.693   5.033  11.048  0.0418 -0.0648 -0.6933
  303MOL0     N40787  10.779   5.118  11.137 -0.3245  0.2544  0.0998
  303MOL0     C40788  10.805   5.250  11.118  0.1805 -0.5599 -0.6735
  303MOL0     C40789  10.880   5.280  11.226  0.1689 -0.2214 -0.5860
  303MOL0     C40790  10.912   5.421  11.262  0.1777  0.0417 -0.0840
  303MOL0     C40791  11.010   5.429  11.378  0.7484  0.3559 -0.1305
  303MOL0     C40792  11.057   5.573  11.400 -0.0632  0.1853  0.5646
  303MOL0     C40793  11.125   5.598  11.531 -0.5224  0.8590 -0.1593
  303MOL0     O40794  11.234   5.500  11.534  0.4822 -0.1350  0.0657
  303MOL0     C40795  11.353   5.519  11.614  0.0753 -0.3246  0.4693
  303MOL0     C40796  11.344   5.612  11.716  0.2746  0.8111  0.1174
  303MOL0     C40797  11.459   5.646  11.785 -0.5516 -0.5590  0.6751
  303MOL0     C40798  11.574   5.568  11.776 -0.4515  0.0938 -0.0357
  303MOL0     C40799  11.704   5.592  11.849  0.2704 -0.3284  0.4144
  303MOL0     O40800  11.796   5.484  11.845 -0.0242 -0.4355  0.0040
  303MOL0     C40801  11.924   5.495  11.899  0.8236 -0.1844 -0.2468
  303MOL0     C40802  11.991   5.619  11.938  0.3442 -0.1021  0.0690
  303MOL0     C40803  12.116   5.612  11.982 -0.3332 -0.0084 -0.2726
  303MOL0     C40804  12.188   5.486  11.989 -0.0547 -0.6948  0.2944
  303MOL0     O40805  12.313   5.483  12.038  0.0144  0.5729  0.3710
  303MOL0     C40806  12.310   5.423  12.173 -0.5488  0.3703  0.1878
  303MOL0     C40807  12.451   5.413  12.246 -0.5773 -0.1568  0.6438
  303MOL0     C40808  12.582   5.392  12.165 -0.5526 -0.1263 -0.1944
  303MOL0     C40809  12.712   5.409  12.234  1.3039  0.5441  0.0298
  303MOL0     C40810  12.816   5.491  12.166 -0.2244 -0.2974 -0.1181
  303MOL0     C40811  12.957   5.486  12.240  0.0453  0.4331  0.5239
  303MOL0     C40812  13.056   5.591  12.193 -0.1390  0.1354  0.4693
  303MOL0     C40813  13.175   5.585  12.287 -0.2960 -0.6960 -0.2021
  303MOL0    Cl40814  13.238   5.419  12.302 -0.3107 -0.2473  0.0336
  303MOL0     C40815  12.117   5.369  11.956 -0.2971 -0.1623 -0.0896
  303MOL0     C40816  11.987   5.373  11.909 -0.4012  0.3350 -0.2918
  303MOL0     O40817  11.700   5.680  11.940  0.3664  0.0530 -0.0692
  303MOL0     C40818  11.569   5.465  11.679  0.1441  0.5305  0.5308
  303MOL0     C40819  11.461   5.442  11.593  0.1841  0.0505 -0.2466
  303MOL0     N40820  10.906   5.168  11.295  0.0843 -0.0644 -0.1252
  303MOL0     N40821  10.838   5.069  11.248  0.1710  0.3045  0.9968
  303MOL0     C40822   9.550   5.051  10.897 -0.3114 -0.7695  0.0490
  303MOL0     C40823   9.416   5.086  10.878 -0.9408  0.0473  0.7060
  303MOL0     C40824   9.021   5.215  10.708 -0.0212 -0.6919 -0.4064
  303MOL0     C40825   8.932   5.114  10.745 -0.0257 -0.5159  0.5925
  303MOL0     C40826   8.801   5.145  10.743  0.1254 -0.1073 -0.2839
  303MOL0     C40827   8.748   5.265  10.703  0.2505 -0.1807 -0.0035
  303MOL0     O40828   8.611   5.287  10.705  0.2715 -0.4476  0.4446
  303MOL0     C40829   8.552   5.324  10.833 -0.1732  0.3060 -0.0332
  303MOL0     C40830   8.476   5.462  10.804  1.0435 -0.1072 -0.9258
  303MOL0     C40831   8.546   5.576  10.730 -0.2219  0.9027 -0.4979
  303MOL0     C40832   8.472   5.710  10.740 -0.1688 -0.5347  0.4905
  303MOL0     C40833   8.463   5.778  10.611  0.3894  0.7964 -0.5523
  303MOL0     C40834   8.429   5.829  10.514  0.5976  0.3592 -0.3703
  303MOL0     C40835   8.837   5.359  10.662  0.2607 -0.7380 -0.2007
  303MOL0     C40836   8.972   5.345  10.667 -0.7458 -0.0813  0.4605
  303MOL0     C40837   9.057   5.455  10.615  0.1150  0.6041  0.4862
  303MOL0     H40838   9.319   4.861  10.648  0.2800  0.7751 -0.7519
  303MOL0     H40839   9.565   4.807  10.667  0.4207  0.5917 -0.8343
  303MOL0     H40840   9.824   5.052  10.933 -0.7889  0.4677 -4.4661
  303MOL0     H40841   9.792   4.903  11.025  1.0213 -0.4146 -0.1473
  303MOL0     H40842   9.990   4.926  10.797 -0.6486  2.0593  1.2232
  303MOL0     H40843   9.969   4.779  10.892 -1.4083 -0.2139  1.1795
  303MOL0     H40844  10.046   4.906  11.092  0.5834 -1.6908 -0.5079
  303MOL0     H40845  10.075   5.055  10.995  0.5596 -0.1193  0.0694
  303MOL0     H40846  10.212   4.803  10.992  0.1367  0.9273  0.3616
  303MOL0     H40847  10.235   4.917  10.854 -0.1445 -0.9390 -0.5849
  303MOL0     H40848  10.286   5.090  11.055  0.2988  0.2137  2.5442
  303MOL0     H40849  10.309   4.957  11.160  1.4902 -2.1234 -1.1333
  303MOL0     H40850  10.494   4.871  11.019  1.7843  0.7920  0.2319
  303MOL0     H40851  10.452   4.993  10.901 -2.2179 -0.3518 -0.9040
  303MOL0     H40852  10.531   5.048  11.187  1.9996  3.0470  0.9195
  303MOL0     H40853  10.521   5.175  11.064  0.2646 -0.0576  1.3232
  303MOL0     H40854  10.708   4.927  11.070 -0.1326 -0.2411 -1.3996
  303MOL0     H40855  10.725   5.050  10.944  0.8134  1.5371 -0.2364
  303MOL0     H40856  10.765   5.322  11.048 -0.3560  2.8139  2.7641
  303MOL0     H40857  10.940   5.470  11.169 -0.8782  2.0635  0.6112
  303MOL0     H40858  10.821   5.461  11.308  1.3047  1.7154  0.8192
  303MOL0     H40859  10.941   5.396  11.457  0.4567 -0.0913 -0.5749
  303MOL0     H40860  11.092   5.358  11.370  1.1797  1.0172 -2.2237
  303MOL0     H40861  10.975   5.645  11.396  1.2857  1.7346  0.1767
  303MOL0     H40862  11.132   5.589  11.323 -2.2384 -0.4131 -1.8021
  303MOL0     H40863  11.053   5.600  11.613 -0.6670  0.8922 -0.2838
  303MOL0     H40864  11.161   5.702  11.537  1.6660  0.0662  4.5678
  303MOL0     H40865  11.248   5.656  11.741  0.8766  2.4642 -0.3493
  303MOL0     H40866  11.451   5.715  11.868 -0.4549  1.0212 -0.5728
  303MOL0     H40867  11.939   5.714  11.939 -0.8500 -0.6323 -2.6112
  303MOL0     H40868  12.163   5.702  12.020 -0.1867 -0.0233 -0.4202
  303MOL0     H40869  12.241   5.476  12.240  0.1008  0.3651  0.8870
  303MOL0     H40870  12.278   5.320  12.157 -0.6911  0.2884  0.9351
  303MOL0     H40871  12.470   5.506  12.301  2.7020 -2.1147  3.1949
  303MOL0     H40872  12.436   5.328  12.313  1.1009 -1.6162 -0.7412
  303MOL0     H40873  12.588   5.291  12.124  1.0086  0.1930 -0.8263
  303MOL0     H40874  12.574   5.465  12.083 -3.2971 -0.8562 -0.6756
  303MOL0     H40875  12.757   5.311  12.253 -0.7821 -0.9206 -2.0280
  303MOL0     H40876  12.692   5.470  12.323 -0.2453  1.4044 -0.8576
  303MOL0     H40877  12.786   5.596  12.154  1.2125 -0.2090 -4.5860
  303MOL0     H40878  12.834   5.463  12.062 -1.8586  2.0605 -1.1257
  303MOL0     H40879  12.951   5.504  12.348  0.3674 -0.4603  0.6998
  303MOL0     H40880  12.998   5.385  12.230  1.1798  0.8704  0.6224
  303MOL0     H40881  13.021   5.695  12.193  4.2656  1.8479 -0.2523
  303MOL0     H40882  13.085   5.582  12.088 -1.9657 -1.2015  0.0154
  303MOL0     H40883  13.258   5.647  12.252 -0.9714  0.3295 -0.0496
  303MOL0     H40884  13.136   5.623  12.382  1.3211  3.5199 -0.9937
  303MOL0     H40885  12.167   5.272  11.956 -1.8793 -1.0284  0.9900
  303MOL0     H40886  11.951   5.278  11.871  0.0583 -0.7219  1.7793
  303MOL0     H40887  11.662   5.412  11.660 -0.0728 -0.3396  1.8212
  303MOL0     H40888  11.464   5.363  11.519  0.2394 -0.1278 -0.0544
  303MOL0     H40889   9.612   5.103  10.968 -0.2085  2.1844 -1.9887
  303MOL0     H40890   9.360   5.161  10.932  1.0173  0.6616  1.9963
  303MOL0     H40891   8.969   5.025  10.794  2.6887 -2.0141 -3.6831
  303MOL0     H40892   8.724   5.086  10.792  0.5192  0.2434  0.7932
  303MOL0     H40893   8.631   5.344  10.906 -1.5716  1.3288  1.2512
  303MOL0     H40894   8.495   5.242  10.876  0.4087 -1.8596 -3.0637
  303MOL0     H40895   8.430   5.505  10.893 -2.2691 -0.3873 -2.3421
  303MOL0     H40896   8.391   5.444  10.737  0.7614 -1.6539 -0.1932
  303MOL0     H40897   8.541   5.548  10.625  0.9699  0.8529 -0.5536
  303MOL0     H40898   8.651   5.591  10.756  0.3992  1.4818 -3.0674
  303MOL0     H40899   8.367   5.704  10.772  0.6069  0.2473  3.5045
  303MOL0     H40900   8.529   5.773  10.809  0.7050  0.7208 -1.3142
  303MOL0     H40901   8.410   5.874  10.419 -0.8556  0.6025  0.0137
  303MOL0     H40902   8.799   5.454  10.626  1.2368  0.2666  1.3044
  303MOL0     H40903   9.128   5.490  10.691  2.4273  1.4752 -1.8839
  303MOL0     H40904   9.121   5.427  10.530 -0.7250 -0.7444  0.2622
  303MOL0     H40905   9.008   5.549  10.588  0.4997  0.9970  1.1396
  304MOL0     O40906  10.447   4.436   7.915  0.3775 -0.1334  0.6148
  304MOL0     C40907  10.449   4.342   7.993 -0.4085 -0.3005 -0.7304
  304MOL0     O40908  10.567   4.292   8.051  0.3266 -0.0923 -0.0575
  304MOL0     C40909  10.689   4.353   8.027 -0.3835 -0.3413  0.2613
  304MOL0     C40910  10.697   4.490   8.018  0.9182 -0.9844 -0.8158
  304MOL0     C40911  10.822   4.552   7.986  0.0106  0.8164 -0.3455
  304MOL0     C40912  10.945   4.468   7.967 -0.6687 -0.6566 -0.5075
  304MOL0     O40913  11.064   4.534   7.942 -0.2409  0.5879 -0.1117
  304MOL0     C40914  11.156   4.469   7.857  0.6547 -0.0179 -0.1451
  304MOL0     C40915  11.261   4.568   7.808  0.6712 -0.1439  0.0686
  304MOL0     C40916  11.389   4.493   7.776 -1.2584  0.2324 -0.2399
  304MOL0     C40917  11.503   4.601   7.788  0.6568  0.3604  0.2532
  304MOL0     C40918  11.639   4.562   7.737 -0.0044 -0.0023  0.0315
  304MOL0     C40919  11.696   4.439   7.793  0.3674  0.5289 -0.5125
  304MOL0     C40920  11.853   4.437   7.771  0.8025  0.1816  0.3752
  304MOL0     C40921  11.933   4.527   7.864  0.5402  0.8001 -0.2319
  304MOL0     N40922  12.077   4.505   7.843  0.4320  0.7392 -0.2836
  304MOL0     C40923  12.139   4.396   7.899  0.1262  0.4910 -0.5969
  304MOL0     C40924  12.267   4.416   7.847 -0.0421  0.2322 -0.7860
  304MOL0     C40925  12.390   4.322   7.886  0.1161  1.0004 -0.2751
  304MOL0     C40926  12.472   4.398   7.988  0.5693 -0.5221  1.1136
  304MOL0     C40927  12.575   4.315   8.067 -0.3617  0.4592  0.0047
  304MOL0     C40928  12.666   4.396   8.158  0.1361  0.6381  0.2315
  304MOL0     O40929  12.792   4.329   8.182 -0.0144 -0.0254  0.0841
  304MOL0     C40930  12.900   4.415   8.218  0.3265  0.8505 -0.9419
  304MOL0     C40931  13.023   4.352   8.192  0.1267  0.0705  0.1860
  304MOL0     C40932  13.149   4.417   8.232  0.4787  0.2169  0.3634
  304MOL0     C40933  13.150   4.548   8.282  0.7190  0.4133 -0.0305
  304MOL0     C40934  13.267   4.617   8.329 -0.6132 -0.1785 -0.1130
  304MOL0     O40935  13.382   4.547   8.315 -0.1195 -0.2580  0.0556
  304MOL0     C40936  13.490   4.613   8.350 -0.0093 -0.0165 -0.7109
  304MOL0     C40937  13.565   4.686   8.257  0.0908 -0.0604  0.3550
  304MOL0     C40938  13.675   4.760   8.292  0.1955 -0.0183  0.4257
  304MOL0     C40939  13.717   4.759   8.421  0.5181 -0.0525  0.2007
  304MOL0     O40940  13.824   4.836   8.459  0.7333  0.1498 -0.7259
  304MOL0     C40941  13.885   4.808   8.585  0.1909  0.1557  0.0101
  304MOL0     C40942  14.035   4.842   8.581 -0.8578 -0.3951 -0.0335
  304MOL0     C40943  14.128   4.751   8.498  0.4510 -0.6833 -0.5368
  304MOL0     C40944  14.276   4.804   8.516  0.6005  0.4105 -0.6935
  304MOL0     C40945  14.329   4.895   8.406  0.0204 -0.5453  0.0717
  304MOL0     C40946  14.442   4.992   8.459  0.0097 -0.0046 -0.4288
  304MOL0     C40947  14.480   5.094   8.349  0.6842 -0.4093  0.6667
  304MOL0     C40948  14.580   5.189   8.399 -0.2881  0.9634 -0.1253
  304MOL0    Cl40949  14.596   5.316   8.280 -0.3727 -0.5294  0.1485
  304MOL0     C40950  13.640   4.699   8.522 -0.4224 -0.1038  0.0822
  304MOL0     C40951  13.536   4.615   8.483 -0.7316  0.1990 -0.4370
  304MOL0     O40952  13.254   4.733   8.367  0.3891  0.0544  0.3228
  304MOL0     C40953  13.017   4.610   8.295 -0.3494  0.4403 -0.4035
  304MOL0     C40954  12.897   4.539   8.275 -0.4681 -0.1159  0.0143
  304MOL0     N40955  12.279   4.530   7.775 -0.0564 -0.0181  0.1669
  304MOL0     N40956  12.165   4.581   7.776  0.2792  0.1888  0.1371
  304MOL0     C40957  10.920   4.331   7.960 -0.7114  0.2704 -0.4725
  304MOL0     C40958  10.802   4.274   8.002  0.2448 -0.4881 -0.7290
  304MOL0     C40959  10.326   4.286   8.026  0.7289 -0.3885  0.0585
  304MOL0     C40960  10.319   4.142   8.040 -0.3680 -0.5240  0.0039
  304MOL0     C40961  10.207   4.079   8.076  0.5023 -0.4770 -0.2294
  304MOL0     C40962  10.091   4.148   8.079  0.2355  0.1755 -1.6720
  304MOL0     O40963   9.970   4.087   8.108  0.2478  0.2829 -0.7030
  304MOL0     C40964   9.919   4.038   7.984 -0.4878 -0.4045 -0.4969
  304MOL0     C40965   9.814   3.931   8.022  0.4951  0.0131  1.4216
  304MOL0     C40966   9.741   3.870   7.901  0.2282 -0.9180  0.2840
  304MOL0     C40967   9.601   3.806   7.937  0.1291 -0.5203  0.9611
  304MOL0     C40968   9.623   3.685   8.021  0.1466  0.6002  0.0394
  304MOL0     C40969   9.631   3.584   8.091 -0.3380  0.2138  0.3130
  304MOL0     C40970  10.083   4.285   8.055 -0.0668  0.7179 -0.2895
  304MOL0     C40971  10.204   4.357   8.030 -0.0397  0.0262 -0.7634
  304MOL0     C40972  10.187   4.508   8.019  0.4621 -0.8119 -0.1628
  304MOL0     H40973  10.614   4.551   8.055  0.8349 -1.5087 -0.1134
  304MOL0     H40974  10.827   4.660   7.977 -3.1562  1.0773 -0.1331
  304MOL0     H40975  11.208   4.398   7.922 -1.3849 -1.5347 -0.0707
  304MOL0     H40976  11.115   4.410   7.774  0.1070 -3.1441  2.1871
  304MOL0     H40977  11.280   4.641   7.887 -1.9290 -0.5602  1.1772
  304MOL0     H40978  11.220   4.623   7.723 -0.6424  0.7273  1.2223
  304MOL0     H40979  11.383   4.459   7.672  0.1128 -0.7584 -0.0282
  304MOL0     H40980  11.402   4.416   7.853 -2.2656 -0.4068 -0.6944
  304MOL0     H40981  11.473   4.683   7.722 -2.5269 -0.7476  0.1379
  304MOL0     H40982  11.502   4.637   7.892 -1.4141  2.3025 -0.3467
  304MOL0     H40983  11.640   4.559   7.627  1.2344  2.5226 -0.0888
  304MOL0     H40984  11.718   4.635   7.755  1.0252 -0.9794 -0.4238
  304MOL0     H40985  11.677   4.436   7.900  1.7329 -0.0178 -0.2686
  304MOL0     H40986  11.648   4.353   7.746  1.2982  0.4193 -1.3045
  304MOL0     H40987  11.873   4.461   7.666  2.1125 -3.3710 -0.3316
  304MOL0     H40988  11.888   4.335   7.789  0.2819 -0.8882 -3.7390
  304MOL0     H40989  11.923   4.634   7.845  0.7271  1.5128  3.1789
  304MOL0     H40990  11.901   4.509   7.967  0.3945  2.4591  0.0381
  304MOL0     H40991  12.098   4.307   7.945  0.9589 -0.8995 -2.4247
  304MOL0     H40992  12.344   4.231   7.926  2.5924 -1.1464 -1.9983
  304MOL0     H40993  12.438   4.291   7.793 -0.8941 -2.3037  0.1694
  304MOL0     H40994  12.519   4.475   7.926  0.5251 -2.5108 -1.5987
  304MOL0     H40995  12.402   4.446   8.057 -0.8122 -0.1884 -0.4630
  304MOL0     H40996  12.628   4.255   7.993 -2.0748 -0.7445 -0.3197
  304MOL0     H40997  12.522   4.247   8.135  0.2874 -2.2777 -2.0350
  304MOL0     H40998  12.620   4.421   8.254  0.6456 -2.9637  1.5644
  304MOL0     H40999  12.682   4.498   8.120  1.9032  1.2334  2.3399
  304MOL0     H41000  13.023   4.247   8.164 -0.8260  0.8971 -3.5523
  304MOL0     H41001  13.240   4.360   8.226 -0.5211 -1.6476  2.0134
  304MOL0     H41002  13.546   4.684   8.150  2.3864  1.6389 -0.1709
  304MOL0     H41003  13.726   4.821   8.218 -2.0879 -0.0439 -1.2725
  304MOL0     H41004  13.831   4.856   8.667 -0.9894  0.7814 -1.1004
  304MOL0     H41005  13.877   4.700   8.599 -0.2589 -0.2270 -2.6255
  304MOL0     H41006  14.049   4.946   8.548  0.6040 -1.0148 -1.5065
  304MOL0     H41007  14.070   4.837   8.684  2.3547  1.1557 -0.9185
  304MOL0     H41008  14.111   4.658   8.553  0.2450  0.6215  1.7443
  304MOL0     H41009  14.088   4.738   8.397  1.1470 -3.6763 -0.5401
  304MOL0     H41010  14.349   4.723   8.522  1.0460  0.5160 -3.4258
  304MOL0     H41011  14.297   4.855   8.610  0.1548  1.9515 -1.3880
  304MOL0     H41012  14.262   4.968   8.359  2.7424  2.3771  0.4033
  304MOL0     H41013  14.371   4.831   8.329  0.0307 -0.5828  0.1081
  304MOL0     H41014  14.413   5.043   8.551  0.1083 -1.7770  0.6278
  304MOL0     H41015  14.535   4.940   8.485 -0.2238 -0.3956 -0.3728
  304MOL0     H41016  14.389   5.149   8.321  0.9736 -0.5547 -0.5781
  304MOL0     H41017  14.526   5.045   8.263  0.6494  2.3842 -1.0500
  304MOL0     H41018  14.556   5.240   8.493  2.1874 -0.1577  1.2004
  304MOL0     H41019  14.674   5.136   8.418  0.1188  1.4257 -0.8037
  304MOL0     H41020  13.665   4.701   8.628  2.4810 -0.4537 -0.5045
  304MOL0     H41021  13.488   4.561   8.564  2.6823 -2.3245  0.1177
  304MOL0     H41022  13.004   4.709   8.335 -1.2540  0.4386 -0.6658
  304MOL0     H41023  12.800   4.577   8.304 -1.3899 -1.8122 -0.6857
  304MOL0     H41024  11.004   4.264   7.945 -0.6781  0.2841 -0.3490
  304MOL0     H41025  10.789   4.166   8.009 -0.7490 -0.3027  0.8215
  304MOL0     H41026  10.404   4.077   8.026 -1.4915 -1.6858 -1.7927
  304MOL0     H41027  10.198   3.973   8.097 -1.4891 -1.2464 -3.9430
  304MOL0     H41028   9.997   3.989   7.926  0.0073 -1.4868  1.0520
  304MOL0     H41029   9.887   4.115   7.913  1.3915 -0.4357 -1.4314
  304MOL0     H41030   9.741   3.971   8.092 -0.0206 -2.2212  2.2521
  304MOL0     H41031   9.867   3.852   8.076 -1.6380 -1.1246  1.9704
  304MOL0     H41032   9.802   3.790   7.860  1.6770  1.2543 -2.0714
  304MOL0     H41033   9.728   3.948   7.825  0.0402  0.3648  1.5677
  304MOL0     H41034   9.538   3.883   7.983 -0.9234 -0.0263 -1.2161
  304MOL0     H41035   9.553   3.769   7.846 -0.4392 -0.2550  1.1469
  304MOL0     H41036   9.624   3.493   8.147 -1.0706  0.0652 -0.0033
  304MOL0     H41037   9.988   4.338   8.051 -0.4716 -0.0087 -0.4633
  304MOL0     H41038  10.267   4.566   8.066 -0.8994  1.4566 -0.4659
  304MOL0     H41039  10.192   4.530   7.912  1.4382 -1.6198 -0.2908
  304MOL0     H41040  10.097   4.547   8.069 -0.4932  2.0517 -3.6924
  305MOL0     O41041   2.248   1.374   0.798 -0.0671  0.4333 -0.6892
  305MOL0     C41042   2.168   1.457   0.760  0.0309 -0.9125 -0.5978
  305MOL0     O41043   2.194   1.596   0.744 -0.7782 -0.1741 -0.4289
  305MOL0     C41044   2.306   1.629   0.799  0.0219  0.5224 -0.3248
  305MOL0     C41045   2.319   1.643   0.940 -1.1208  0.6227 -0.7627
  305MOL0     C41046   2.450   1.698   0.986  0.4762 -0.3315 -0.2305
  305MOL0     C41047   2.554   1.732   0.900 -0.1934  0.4978  0.2728
  305MOL0     O41048   2.671   1.775   0.954 -0.0376 -0.2212  0.1444
  305MOL0     C41049   2.771   1.840   0.876  0.2888 -0.1117 -0.4791
  305MOL0     C41050   2.868   1.902   0.970 -0.4056  0.5320 -0.5826
  305MOL0     C41051   2.997   1.939   0.898  0.7078  0.1999  0.1050
  305MOL0     C41052   3.094   2.007   1.001  0.0739  0.5389  0.1004
  305MOL0     C41053   3.174   2.128   0.935  0.5208  0.7307  0.1803
  305MOL0     C41054   3.285   2.072   0.852  0.4590 -1.0726 -0.0509
  305MOL0     C41055   3.415   2.054   0.927 -0.2263 -0.7664  0.2084
  305MOL0     C41056   3.520   2.001   0.836  0.2544 -0.2293 -0.1412
  305MOL0     N41057   3.640   1.953   0.913 -0.4793 -0.7009 -0.2933
  305MOL0     C41058   3.752   2.039   0.951  0.6012 -0.6725  0.4304
  305MOL0     C41059   3.828   1.964   1.029  0.3719 -0.0814 -0.3920
  305MOL0     C41060   3.949   2.012   1.114  1.3156  0.0819 -0.0861
  305MOL0     C41061   4.075   2.019   1.031  0.1781 -0.3793  0.2130
  305MOL0     C41062   4.195   2.045   1.128  0.1438  0.4887 -1.1295
  305MOL0     C41063   4.326   2.042   1.052  0.3143 -0.3575  0.3944
  305MOL0     O41064   4.320   2.123   0.937  0.4043 -0.0692  0.6128
  305MOL0     C41065   4.434   2.178   0.885 -0.7220  0.1385 -0.2270
  305MOL0     C41066   4.559   2.119   0.906  0.4480 -0.4391  0.4717
  305MOL0     C41067   4.671   2.184   0.875 -0.0983 -0.1656  0.7150
  305MOL0     C41068   4.675   2.306   0.810  0.6501  0.6840  0.0029
  305MOL0     C41069   4.800   2.375   0.780  0.3543  0.6344 -0.5290
  305MOL0     O41070   4.916   2.320   0.821  0.2901 -0.3514  0.6204
  305MOL0     C41071   5.021   2.408   0.820 -0.1587  0.8535  0.3600
  305MOL0     C41072   5.102   2.403   0.706  0.1103 -0.8152 -0.1587
  305MOL0     C41073   5.213   2.483   0.696 -0.8371 -0.3910  0.2869
  305MOL0     C41074   5.252   2.569   0.799  0.1762  1.2709  0.5732
  305MOL0     O41075   5.357   2.653   0.790  0.0223 -0.0854  0.0488
  305MOL0     C41076   5.467   2.602   0.728 -0.1815  0.2301  0.1590
  305MOL0     C41077   5.563   2.724   0.720  0.2651  0.4183  0.1934
  305MOL0     C41078   5.695   2.693   0.650 -0.2007  1.0615 -0.1038
  305MOL0     C41079   5.688   2.664   0.504 -0.1447 -0.6160  0.3445
  305MOL0     C41080   5.823   2.647   0.431 -0.1835  0.0488 -0.3773
  305MOL0     C41081   5.873   2.779   0.375 -0.6142 -0.3714 -0.6981
  305MOL0     C41082   5.975   2.768   0.258  0.6825  0.0833  0.0701
  305MOL0     C41083   5.995   2.909   0.196  0.9621 -0.5420 -0.3434
  305MOL0    Cl41084   5.862   2.985   0.097  0.2004  0.1339  0.0199
  305MOL0     C41085   5.173   2.572   0.910  0.6532 -0.2435 -0.4832
  305MOL0     C41086   5.059   2.490   0.922 -0.6129  0.2312 -0.5063
  305MOL0     O41087   4.779   2.483   0.725 -0.4061  0.7806  0.0868
  305MOL0     C41088   4.553   2.362   0.776 -0.6548  0.6277 -0.0276
  305MOL0     C41089   4.431   2.299   0.815 -0.3742 -0.4140 -0.4767
  305MOL0     N41090   3.768   1.840   1.046  0.4421 -0.0399  0.0736
  305MOL0     N41091   3.658   1.830   0.983  0.8280 -0.3253  0.3378
  305MOL0     C41092   2.527   1.713   0.765 -0.6253  0.1623  0.1687
  305MOL0     C41093   2.405   1.685   0.719 -0.3520  0.1229  0.1619
  305MOL0     C41094   2.031   1.422   0.739 -0.6081 -0.2712  0.4675
  305MOL0     C41095   1.929   1.511   0.782 -0.1267 -0.3624  0.1435
  305MOL0     C41096   1.796   1.483   0.779 -0.0243 -0.5594 -0.3224
  305MOL0     C41097   1.753   1.367   0.725  0.1034 -0.9882  0.4431
  305MOL0     O41098   1.616   1.366   0.714 -0.2773  0.5106  0.2243
  305MOL0     C41099   1.546   1.264   0.642 -0.3085  0.3291 -0.4482
  305MOL0     C41100   1.533   1.147   0.731  0.6976 -0.0670  0.1482
  305MOL0     C41101   1.454   1.039   0.651  0.3850  0.8527 -0.2016
  305MOL0     C41102   1.430   0.916   0.722 -0.3959  0.1301  0.0162
  305MOL0     C41103   1.338   0.832   0.647  0.9245  0.8059  0.0700
  305MOL0     C41104   1.236   0.779   0.607 -0.2156 -0.4614  0.3964
  305MOL0     C41105   1.841   1.274   0.687 -0.1358 -0.2736  0.3598
  305MOL0     C41106   1.982   1.291   0.690 -0.3507 -0.7075 -0.0598
  305MOL0     C41107   2.085   1.196   0.632 -0.2688  0.1179 -0.2800
  305MOL0     H41108   2.242   1.633   1.016  2.1130 -1.4649  2.5999
  305MOL0     H41109   2.470   1.715   1.091  2.1966  1.1429 -0.7555
  305MOL0     H41110   2.818   1.768   0.809  0.0689 -0.4409 -0.2806
  305MOL0     H41111   2.716   1.917   0.820 -0.3350  0.0720  0.3623
  305MOL0     H41112   2.896   1.818   1.035  5.0537  2.0073 -0.5298
  305MOL0     H41113   2.820   1.970   1.041 -1.9926 -1.5381  0.4284
  305MOL0     H41114   2.976   2.008   0.816 -0.9623  1.5782  1.6097
  305MOL0     H41115   3.048   1.850   0.861  3.0679 -0.0460  3.5423
  305MOL0     H41116   3.033   2.047   1.082  1.9067  3.0375  0.3888
  305MOL0     H41117   3.154   1.927   1.045  0.4642 -0.0612 -1.4619
  305MOL0     H41118   3.112   2.179   0.861  2.0233  0.8828 -1.0140
  305MOL0     H41119   3.216   2.188   1.016  1.1405  0.1014  0.3388
  305MOL0     H41120   3.247   1.980   0.806 -1.0332 -0.2305 -0.5667
  305MOL0     H41121   3.300   2.148   0.775  1.2330 -0.8727  0.2800
  305MOL0     H41122   3.394   1.982   1.007 -1.2834  1.1277  1.7281
  305MOL0     H41123   3.435   2.151   0.975 -4.4833  0.1510  0.5200
  305MOL0     H41124   3.480   1.922   0.772  1.2167  0.0357 -1.0989
  305MOL0     H41125   3.545   2.079   0.763 -0.5358  2.6232  2.4110
  305MOL0     H41126   3.750   2.145   0.925 -6.3171 -0.7443 -1.2595
  305MOL0     H41127   3.925   2.104   1.168 -1.2501 -0.2180 -0.6113
  305MOL0     H41128   3.969   1.941   1.195 -0.2106  0.0401  0.2888
  305MOL0     H41129   4.070   1.925   0.974 -4.5491 -0.6806  0.7373
  305MOL0     H41130   4.071   2.094   0.951  0.4175 -2.1505 -1.5380
  305MOL0     H41131   4.205   1.975   1.212  1.5533  1.2350 -0.6455
  305MOL0     H41132   4.184   2.138   1.184  1.0358 -0.3292  0.4826
  305MOL0     H41133   4.332   1.936   1.026  0.3816 -0.1971 -0.2774
  305MOL0     H41134   4.412   2.063   1.116  1.9635  0.6082 -1.9532
  305MOL0     H41135   4.565   2.019   0.950  0.2454 -0.1078  1.2762
  305MOL0     H41136   4.767   2.142   0.904  0.6552  1.5585  0.8122
  305MOL0     H41137   5.073   2.335   0.627 -0.1968 -2.3108  1.1978
  305MOL0     H41138   5.253   2.475   0.595 -0.8117 -2.4325  0.4099
  305MOL0     H41139   5.517   2.520   0.780  1.2088  0.4689 -0.7575
  305MOL0     H41140   5.445   2.563   0.628  0.4634  3.7908 -1.5177
  305MOL0     H41141   5.520   2.815   0.676  1.8427  1.4271  0.6773
  305MOL0     H41142   5.590   2.748   0.823 -0.0029 -3.9257  1.4431
  305MOL0     H41143   5.760   2.779   0.669 -0.1658  1.1838 -0.7425
  305MOL0     H41144   5.756   2.624   0.708 -0.3541  1.5748  0.6907
  305MOL0     H41145   5.630   2.743   0.457  2.8259  1.9096  0.5810
  305MOL0     H41146   5.627   2.573   0.500  1.3553 -1.8582  3.0217
  305MOL0     H41147   5.806   2.584   0.343  2.5549 -2.1004  0.4962
  305MOL0     H41148   5.896   2.594   0.493  0.0359 -0.4406 -1.0381
  305MOL0     H41149   5.786   2.837   0.343 -1.3352 -0.6120  0.7363
  305MOL0     H41150   5.919   2.834   0.458  0.3913 -1.8563 -0.2316
  305MOL0     H41151   5.941   2.699   0.180  2.3721  2.6558 -3.2266
  305MOL0     H41152   6.070   2.723   0.288  0.4420 -1.3595 -1.2161
  305MOL0     H41153   6.022   2.977   0.278  0.9126  2.5923 -2.7242
  305MOL0     H41154   6.075   2.904   0.122 -0.2382 -0.2198 -1.7025
  305MOL0     H41155   5.195   2.662   0.968 -0.2123  0.8059 -1.7343
  305MOL0     H41156   4.983   2.495   0.999 -0.4119  0.8169 -0.3376
  305MOL0     H41157   4.552   2.461   0.731  1.5189  0.4892 -0.4940
  305MOL0     H41158   4.333   2.331   0.780 -0.2169 -0.7720 -1.2586
  305MOL0     H41159   2.598   1.755   0.695 -0.9099 -0.7575 -0.6951
  305MOL0     H41160   2.398   1.685   0.611 -0.7149 -0.0843  0.1856
  305MOL0     H41161   1.944   1.607   0.830 -1.3825  0.6574 -1.4125
  305MOL0     H41162   1.720   1.552   0.815  0.8211 -1.1839  3.0173
  305MOL0     H41163   1.604   1.241   0.552 -0.7927  1.1390 -0.9803
  305MOL0     H41164   1.452   1.300   0.600  0.8194  1.8932 -1.7904
  305MOL0     H41165   1.473   1.179   0.817 -3.6412  1.2780 -3.0223
  305MOL0     H41166   1.628   1.106   0.766  1.9081  1.8519 -0.6967
  305MOL0     H41167   1.522   1.008   0.571 -0.8701 -0.1256 -0.9279
  305MOL0     H41168   1.367   1.083   0.601  2.5902  3.0103 -2.4944
  305MOL0     H41169   1.519   0.852   0.719 -1.7354 -1.8193 -0.4163
  305MOL0     H41170   1.405   0.923   0.828  1.8074  0.9235  0.5517
  305MOL0     H41171   1.143   0.737   0.572  0.2060  0.4698 -2.0066
  305MOL0     H41172   1.808   1.180   0.644 -1.4591  0.6489 -0.7529
  305MOL0     H41173   2.123   1.131   0.711 -1.2415 -0.5126 -0.3020
  305MOL0     H41174   2.038   1.135   0.554  2.1875  0.1349 -1.8645
  305MOL0     H41175   2.169   1.239   0.577  0.4966  1.2595  1.6879
  306MOL0     O41176   2.100   3.176   3.874  0.4064  0.9044  0.3504
  306MOL0     C41177   2.127   3.272   3.804 -0.1687  0.4278 -0.0618
  306MOL0     O41178   2.254   3.325   3.797  0.2888 -0.1623  0.6399
  306MOL0     C41179   2.361   3.255   3.845  0.3884 -0.0353  0.1204
  306MOL0     C41180   2.448   3.209   3.744  0.3133 -0.3905 -0.1519
  306MOL0     C41181   2.562   3.136   3.776  0.1545  0.7954 -0.4043
  306MOL0     C41182   2.601   3.107   3.908 -0.3760 -0.0774  0.2602
  306MOL0     O41183   2.715   3.041   3.957  0.4025 -0.2066  0.4763
  306MOL0     C41184   2.822   3.022   3.867  0.6172  0.2442  0.5720
  306MOL0     C41185   2.826   2.896   3.782  0.4298  0.1725 -0.5189
  306MOL0     C41186   2.965   2.893   3.717  0.2239 -0.4721 -0.1352
  306MOL0     C41187   3.052   2.784   3.779 -0.1156 -0.2793  0.5020
  306MOL0     C41188   3.199   2.786   3.716  0.1618  0.1954 -0.1439
  306MOL0     C41189   3.243   2.693   3.606  0.2075  0.1617 -0.3596
  306MOL0     C41190   3.389   2.705   3.564 -0.8008  0.2601 -0.1600
  306MOL0     C41191   3.446   2.857   3.575  0.2105 -0.4876 -0.5397
  306MOL0     N41192   3.577   2.881   3.522 -0.0360 -0.0507 -0.4476
  306MOL0     C41193   3.626   2.846   3.398  0.2563 -0.2567 -0.2114
  306MOL0     C41194   3.755   2.876   3.399  0.2137  0.0654  0.9069
  306MOL0     C41195   3.857   2.861   3.286  0.3676 -0.5782 -0.7478
  306MOL0     C41196   3.873   2.981   3.192 -0.5492 -0.4471 -1.1428
  306MOL0     C41197   3.936   3.100   3.258 -0.0008 -0.2912  0.0549
  306MOL0     C41198   3.934   3.223   3.153  1.3138  0.0754  0.0214
  306MOL0     O41199   4.014   3.174   3.039  0.4060  0.4649 -0.7359
  306MOL0     C41200   4.147   3.180   3.057  0.2417 -0.0246 -1.4765
  306MOL0     C41201   4.220   3.059   3.052 -0.2581 -0.3182  0.0281
  306MOL0     C41202   4.361   3.061   3.060 -0.5016 -0.1528 -0.6070
  306MOL0     C41203   4.432   3.182   3.078 -0.4805 -0.9395 -0.9571
  306MOL0     C41204   4.579   3.172   3.092 -0.0870 -0.6615  0.1184
  306MOL0     O41205   4.633   3.288   3.110  0.7259 -0.7441  0.0313
  306MOL0     C41206   4.776   3.297   3.124 -0.0489 -0.2097  0.5864
  306MOL0     C41207   4.868   3.246   3.025 -0.1322 -0.9602  0.1150
  306MOL0     C41208   5.003   3.261   3.035 -0.3238  0.0720  0.1354
  306MOL0     C41209   5.060   3.328   3.148  1.1083 -0.4766  0.3608
  306MOL0     O41210   5.195   3.353   3.146 -0.0916 -0.3033 -0.1979
  306MOL0     C41211   5.256   3.416   3.259 -0.0218  0.5342 -0.4883
  306MOL0     C41212   5.406   3.404   3.251 -1.2967 -0.4906  0.1652
  306MOL0     C41213   5.470   3.541   3.220  0.1056  0.5790 -0.5815
  306MOL0     C41214   5.439   3.589   3.083  0.4013  0.3298 -0.0435
  306MOL0     C41215   5.481   3.732   3.064  1.0483  0.5451  0.1027
  306MOL0     C41216   5.465   3.799   2.928  0.1842  0.2191  0.4892
  306MOL0     C41217   5.541   3.731   2.822 -0.3934  0.4092 -0.2982
  306MOL0     C41218   5.526   3.799   2.682  0.0720  0.7787  0.0828
  306MOL0    Cl41219   5.655   3.736   2.571 -0.2181  0.0577 -0.6385
  306MOL0     C41220   4.975   3.380   3.249 -0.1275 -0.1006  0.4655
  306MOL0     C41221   4.836   3.367   3.230  0.4233  0.3308 -0.4611
  306MOL0     O41222   4.639   3.063   3.097 -0.5940 -0.3559 -0.2152
  306MOL0     C41223   4.352   3.308   3.092  0.6374  0.5040  0.6081
  306MOL0     C41224   4.212   3.297   3.078 -0.6007 -0.1338 -0.4168
  306MOL0     N41225   3.785   2.934   3.518 -0.6684  0.0819 -0.6837
  306MOL0     N41226   3.680   2.936   3.593 -0.1342  0.6521  0.7970
  306MOL0     C41227   2.510   3.158   4.002 -0.8206 -0.2826 -0.1215
  306MOL0     C41228   2.394   3.231   3.976  0.0295 -0.7182 -0.0973
  306MOL0     C41229   2.015   3.310   3.708 -0.3545 -0.2865  0.1821
  306MOL0     C41230   2.045   3.405   3.615  0.2580  0.3947  0.5299
  306MOL0     C41231   1.953   3.457   3.522 -0.8054 -0.2790  0.0804
  306MOL0     C41232   1.818   3.414   3.521 -0.0630 -0.6548  0.0152
  306MOL0     O41233   1.710   3.466   3.450 -0.3152 -0.0559  0.0183
  306MOL0     C41234   1.740   3.567   3.347 -0.1334 -0.5399 -0.3540
  306MOL0     C41235   1.608   3.609   3.282  0.2072 -0.3875 -0.2809
  306MOL0     C41236   1.508   3.663   3.378  0.4141  0.8875 -0.4806
  306MOL0     C41237   1.398   3.738   3.311 -0.6107  0.0783 -0.1754
  306MOL0     C41238   1.301   3.786   3.410  0.7881  0.5578 -0.4432
  306MOL0     C41239   1.224   3.797   3.502  0.2585 -0.4674  0.3006
  306MOL0     C41240   1.788   3.313   3.615 -0.4222 -0.5497 -0.3799
  306MOL0     C41241   1.882   3.263   3.707  0.3038  0.2984  0.8980
  306MOL0     C41242   1.822   3.151   3.794  0.2754 -0.3603  0.1253
  306MOL0     H41243   2.430   3.234   3.640 -0.9207  1.9191  0.5523
  306MOL0     H41244   2.637   3.121   3.698  0.2406  1.1590 -0.3937
  306MOL0     H41245   2.849   3.111   3.810 -1.0798  0.3410 -0.1405
  306MOL0     H41246   2.915   3.017   3.924  2.0059 -1.7871 -1.6872
  306MOL0     H41247   2.757   2.907   3.698  0.9847  4.3151 -0.6398
  306MOL0     H41248   2.790   2.810   3.840 -4.6873  1.5193 -1.1643
  306MOL0     H41249   3.011   2.992   3.721 -2.9282  1.0838  2.6225
  306MOL0     H41250   2.968   2.864   3.612  3.2395  2.4786 -1.0485
  306MOL0     H41251   3.070   2.796   3.886 -0.0734 -0.8645  0.5651
  306MOL0     H41252   3.000   2.690   3.758 -0.3639  0.4745 -2.9717
  306MOL0     H41253   3.225   2.889   3.687  0.6513  0.5726  1.5228
  306MOL0     H41254   3.269   2.758   3.795  0.8609  0.8974 -0.4970
  306MOL0     H41255   3.225   2.587   3.624 -2.0681  0.3058 -1.3940
  306MOL0     H41256   3.169   2.712   3.527 -2.0513 -2.1918  1.0275
  306MOL0     H41257   3.389   2.674   3.459 -2.0167 -0.9397  0.1612
  306MOL0     H41258   3.453   2.634   3.617  0.8644  1.0614 -1.0380
  306MOL0     H41259   3.389   2.934   3.522 -1.5721 -0.8944  0.7010
  306MOL0     H41260   3.446   2.883   3.682 -2.6946 -1.7490 -0.1479
  306MOL0     H41261   3.571   2.801   3.315 -1.7636 -1.3890  1.6404
  306MOL0     H41262   3.952   2.841   3.337 -1.0216  0.1556  2.4279
  306MOL0     H41263   3.835   2.772   3.227 -0.7187 -0.2747 -0.8205
  306MOL0     H41264   3.931   2.963   3.101  0.4353  0.1115 -0.6291
  306MOL0     H41265   3.775   3.006   3.149  0.3262 -1.3039 -3.8490
  306MOL0     H41266   4.035   3.061   3.285  1.1928  1.6840 -1.2433
  306MOL0     H41267   3.884   3.128   3.351  0.8213  1.0687  0.1424
  306MOL0     H41268   3.961   3.319   3.196 -1.5586 -0.0017  2.3239
  306MOL0     H41269   3.829   3.233   3.124  1.9344 -0.0753 -2.5345
  306MOL0     H41270   4.162   2.968   3.050 -1.7293  0.4925  2.1857
  306MOL0     H41271   4.419   2.970   3.053 -1.2003 -0.6583  0.0115
  306MOL0     H41272   4.824   3.210   2.933 -0.6968  0.1706 -0.0713
  306MOL0     H41273   5.063   3.229   2.950 -0.4423 -3.5915  1.2551
  306MOL0     H41274   5.229   3.522   3.271 -0.2497  0.2867  1.5134
  306MOL0     H41275   5.225   3.362   3.349  1.6391  0.7208  0.2508
  306MOL0     H41276   5.428   3.378   3.355 -1.2690  1.4574  0.6834
  306MOL0     H41277   5.436   3.330   3.176 -0.7894 -1.7031  1.5132
  306MOL0     H41278   5.429   3.611   3.294  0.5815  1.0750 -0.7840
  306MOL0     H41279   5.579   3.538   3.229  0.0677 -0.0326 -0.2778
  306MOL0     H41280   5.330   3.579   3.076  0.5836 -2.8110  0.0745
  306MOL0     H41281   5.484   3.533   3.000  0.8399  0.6122  0.0026
  306MOL0     H41282   5.586   3.741   3.092  1.3610  0.0172 -0.8514
  306MOL0     H41283   5.421   3.786   3.138  1.1265 -0.1662  0.6940
  306MOL0     H41284   5.357   3.799   2.908  0.4040 -0.7170 -0.7759
  306MOL0     H41285   5.507   3.899   2.947  1.9144 -0.6396  1.4346
  306MOL0     H41286   5.516   3.624   2.823 -1.5629  0.6582 -0.5321
  306MOL0     H41287   5.643   3.743   2.859 -0.6683  1.3968  0.1675
  306MOL0     H41288   5.427   3.774   2.643  0.4820  0.1171 -0.5687
  306MOL0     H41289   5.535   3.908   2.680  0.4873  0.7519  0.4477
  306MOL0     H41290   5.009   3.441   3.332  0.8570 -0.8796  0.6497
  306MOL0     H41291   4.771   3.400   3.310 -0.7461 -2.4382 -0.1339
  306MOL0     H41292   4.382   3.413   3.100 -2.3390  1.4123  0.8752
  306MOL0     H41293   4.163   3.394   3.076  1.1459  0.7860 -0.6234
  306MOL0     H41294   2.533   3.116   4.099  1.3289 -0.3627 -0.6178
  306MOL0     H41295   2.332   3.264   4.059  0.6261  2.3724 -0.7362
  306MOL0     H41296   2.149   3.437   3.611 -0.7047  4.0257  0.7377
  306MOL0     H41297   1.977   3.527   3.443 -2.8015 -0.2720 -0.5704
  306MOL0     H41298   1.800   3.522   3.268 -0.5663 -1.5387 -0.1366
  306MOL0     H41299   1.785   3.657   3.389  0.7532 -0.9314 -0.4402
  306MOL0     H41300   1.566   3.522   3.230  1.4925 -0.3785 -1.4065
  306MOL0     H41301   1.642   3.683   3.208  0.8186  0.9155  1.2349
  306MOL0     H41302   1.562   3.739   3.435  0.3367 -0.7094  1.8866
  306MOL0     H41303   1.469   3.588   3.448  0.3022  1.5841  0.2117
  306MOL0     H41304   1.422   3.814   3.236  1.4025 -1.3790 -1.0833
  306MOL0     H41305   1.345   3.663   3.251 -1.2642  0.4573 -0.0827
  306MOL0     H41306   1.139   3.791   3.567 -2.0157  1.1328 -2.2834
  306MOL0     H41307   1.685   3.279   3.620 -0.5252 -0.2930 -0.7350
  306MOL0     H41308   1.720   3.121   3.770  0.3311 -1.1694  0.8800
  306MOL0     H41309   1.884   3.063   3.772 -0.4622 -0.6297 -0.9407
  306MOL0     H41310   1.831   3.181   3.899 -0.3833  0.8482 -0.1442
  307MOL0     O41311   2.858   3.696  10.152 -0.5643 -0.0227  0.6139
  307MOL0     C41312   2.839   3.658  10.030  1.3369 -0.1563  0.4183
  307MOL0     O41313   2.926   3.660   9.925  0.0002 -0.4883  0.5104
  307MOL0     C41314   3.037   3.735   9.944 -0.0477  0.6757 -0.1734
  307MOL0     C41315   3.052   3.875   9.969  0.1675  0.0985 -0.0937
  307MOL0     C41316   3.184   3.933   9.969  0.3635  0.4780  0.4531
  307MOL0     C41317   3.300   3.861   9.946 -0.1911 -0.2444 -0.0958
  307MOL0     O41318   3.423   3.918   9.917  0.1507  0.1364 -0.7694
  307MOL0     C41319   3.544   3.845   9.939 -0.0165 -0.6045  0.0155
  307MOL0     C41320   3.665   3.927   9.895  0.1071  0.6363 -0.5046
  307MOL0     C41321   3.796   3.853   9.937 -0.3102 -0.2885 -0.7352
  307MOL0     C41322   3.904   3.950   9.981 -0.4685 -0.2342  0.4547
  307MOL0     C41323   4.039   3.878   9.973  0.3107  0.0324  0.3647
  307MOL0     C41324   4.155   3.966   9.999  1.0421 -0.1586 -1.3299
  307MOL0     C41325   4.283   3.893  10.010 -0.2356 -0.0092  0.2760
  307MOL0     C41326   4.387   4.008  10.023 -0.5908 -0.1660  0.1473
  307MOL0     N41327   4.520   3.949  10.042 -0.4210  0.1140  0.1185
  307MOL0     C41328   4.592   3.868   9.955  0.1913 -0.8095  0.1177
  307MOL0     C41329   4.707   3.844  10.022  0.3475 -0.1017 -0.0152
  307MOL0     C41330   4.818   3.768   9.963  0.5884  0.3193 -0.5328
  307MOL0     C41331   4.864   3.815   9.830 -0.0952  0.3406  0.4494
  307MOL0     C41332   4.887   3.971   9.811 -0.0839  0.4346  0.4341
  307MOL0     C41333   5.006   4.025   9.883  0.2515  0.4395 -0.8661
  307MOL0     O41334   5.122   3.941   9.859  0.6604  0.7783 -0.5678
  307MOL0     C41335   5.243   3.976   9.902  0.3327 -0.6524  0.6261
  307MOL0     C41336   5.263   4.033  10.026  0.0770 -0.0768  0.0166
  307MOL0     C41337   5.388   4.067  10.067  0.1439 -0.3160  0.0212
  307MOL0     C41338   5.502   4.052   9.983  0.2990  0.4678 -0.5724
  307MOL0     C41339   5.635   4.079  10.038  0.4452 -1.0556 -0.8208
  307MOL0     O41340   5.743   4.036   9.969  0.4929  0.2590 -0.0836
  307MOL0     C41341   5.873   4.067   9.997 -0.4541  0.2584 -0.8098
  307MOL0     C41342   5.935   4.062  10.118 -0.2488  0.3536  0.4819
  307MOL0     C41343   6.074   4.086  10.132  0.0010 -0.1044 -0.2372
  307MOL0     C41344   6.147   4.138  10.024  0.3563 -0.6056  0.3827
  307MOL0     O41345   6.284   4.173  10.036  1.1564  0.1325  0.0248
  307MOL0     C41346   6.348   4.099  10.136 -0.9242 -0.2330 -0.1709
  307MOL0     C41347   6.495   4.085  10.108 -0.8334  0.5492 -0.3723
  307MOL0     C41348   6.570   4.051  10.239  0.0762  0.6640  0.1630
  307MOL0     C41349   6.712   3.999  10.211 -0.6936  0.1991 -0.6101
  307MOL0     C41350   6.778   3.961  10.338  0.4971  0.6132 -0.0843
  307MOL0     C41351   6.911   3.901  10.330 -0.5764  0.0976 -0.1763
  307MOL0     C41352   6.958   3.859  10.473 -0.7555 -0.0005  0.5837
  307MOL0     C41353   7.052   3.735  10.473 -0.2071 -0.0314  0.3147
  307MOL0    Cl41354   7.213   3.802  10.437 -0.1800  0.2629 -0.3970
  307MOL0     C41355   6.083   4.147   9.902 -0.2274  0.1302  0.2743
  307MOL0     C41356   5.950   4.115   9.885 -0.5819 -0.1233  0.3778
  307MOL0     O41357   5.645   4.140  10.145 -0.4501 -0.0294  0.3921
  307MOL0     C41358   5.479   4.012   9.853 -0.2029  0.0722  0.0475
  307MOL0     C41359   5.349   3.973   9.807  0.1992  0.6988  0.2999
  307MOL0     N41360   4.697   3.906  10.145 -0.4469 -0.0042  0.1483
  307MOL0     N41361   4.591   3.971  10.157  0.2017 -0.9707 -0.6326
  307MOL0     C41362   3.283   3.721   9.931 -0.6387 -0.0109  0.6791
  307MOL0     C41363   3.158   3.662   9.926  0.5326 -0.2608 -0.4588
  307MOL0     C41364   2.704   3.610   9.995 -0.2446 -0.6933 -0.3550
  307MOL0     C41365   2.651   3.516  10.082 -1.0027 -0.8395 -0.0618
  307MOL0     C41366   2.525   3.473  10.080  0.9357 -0.0853 -0.5182
  307MOL0     C41367   2.439   3.509   9.976 -0.3933  0.0339 -0.1745
  307MOL0     O41368   2.310   3.464   9.963  0.1878  0.4152 -0.1546
  307MOL0     C41369   2.259   3.367  10.059  0.1476  0.5833 -0.6173
  307MOL0     C41370   2.121   3.327  10.012 -0.4987 -0.1453  0.3482
  307MOL0     C41371   2.109   3.201   9.932 -0.3986 -0.2395 -0.3004
  307MOL0     C41372   2.141   3.074  10.004  0.1115 -0.1882  0.6499
  307MOL0     C41373   2.106   2.963   9.923 -0.6244  0.4000  1.2417
  307MOL0     C41374   2.069   2.877   9.846  0.3701 -0.2246 -0.3271
  307MOL0     C41375   2.482   3.591   9.877 -0.3006 -0.5866 -0.2648
  307MOL0     C41376   2.618   3.646   9.885  0.0761  0.3618 -0.0125
  307MOL0     C41377   2.658   3.743   9.783 -0.6359  0.0736 -0.2062
  307MOL0     H41378   2.973   3.944   9.998  2.5189  1.7204  3.0959
  307MOL0     H41379   3.183   4.042   9.970 -2.1125  0.5781 -1.6400
  307MOL0     H41380   3.542   3.824  10.047 -0.0817 -0.8306 -0.0298
  307MOL0     H41381   3.538   3.758   9.872 -1.1105 -1.0684  0.6897
  307MOL0     H41382   3.654   4.030   9.931 -0.7791  0.8524 -1.3352
  307MOL0     H41383   3.660   3.944   9.787 -2.4088  0.1970 -0.5373
  307MOL0     H41384   3.835   3.794   9.854 -2.1223 -3.2662  0.3385
  307MOL0     H41385   3.781   3.773  10.011  0.1813  0.6009  0.3449
  307MOL0     H41386   3.916   4.039   9.920 -1.0985 -2.4532 -3.2369
  307MOL0     H41387   3.884   3.983  10.084 -0.2759 -1.8107  1.0308
  307MOL0     H41388   4.035   3.806  10.055 -1.1132  2.4602  2.5779
  307MOL0     H41389   4.043   3.832   9.874 -2.2879  1.3002 -0.4230
  307MOL0     H41390   4.163   4.039   9.918 -0.3027  2.2637  0.5698
  307MOL0     H41391   4.152   4.023  10.093  1.2869 -1.2227 -0.6691
  307MOL0     H41392   4.309   3.823   9.930  3.6274  0.7274  0.6818
  307MOL0     H41393   4.277   3.847  10.109  1.1350  2.9946  1.8827
  307MOL0     H41394   4.372   4.073   9.936  1.0827  0.8234  0.5458
  307MOL0     H41395   4.375   4.058  10.120  2.3315  0.0652  0.4878
  307MOL0     H41396   4.565   3.830   9.857 -1.6939  1.9014 -0.5268
  307MOL0     H41397   4.898   3.770  10.037 -1.3629 -2.6505  1.9354
  307MOL0     H41398   4.772   3.669   9.964  1.9877 -0.3743 -1.4683
  307MOL0     H41399   4.961   3.769   9.808  1.1538  3.3853 -0.9858
  307MOL0     H41400   4.787   3.788   9.756 -0.4162  1.4303  0.3728
  307MOL0     H41401   4.802   4.033   9.839 -1.4463 -0.3282 -1.7736
  307MOL0     H41402   4.916   3.991   9.707  1.5520 -0.2867  0.7073
  307MOL0     H41403   4.982   4.021   9.990 -0.6097 -1.7279 -1.0766
  307MOL0     H41404   5.027   4.126   9.846  2.8687 -0.6086 -2.6019
  307MOL0     H41405   5.185   4.044  10.100 -0.3377  0.0362 -0.4307
  307MOL0     H41406   5.387   4.080  10.174 -3.8778 -3.2813  0.5745
  307MOL0     H41407   5.877   4.019  10.199  0.5480  0.9167  1.3757
  307MOL0     H41408   6.127   4.068  10.224  1.6096 -0.4976 -1.1973
  307MOL0     H41409   6.337   4.159  10.227  0.0969  0.4045 -0.4522
  307MOL0     H41410   6.302   4.001  10.153 -0.1157 -1.2603 -3.3017
  307MOL0     H41411   6.509   4.017  10.024  1.3906  1.5535 -0.8987
  307MOL0     H41412   6.527   4.185  10.078  0.6081 -0.0682 -1.0207
  307MOL0     H41413   6.582   4.138  10.305  0.0283 -0.6408  1.9824
  307MOL0     H41414   6.513   3.966  10.278 -0.3051  0.7678 -0.1744
  307MOL0     H41415   6.769   4.074  10.156  0.7068 -0.6200 -0.3359
  307MOL0     H41416   6.708   3.908  10.151  1.1625  0.6243 -1.4575
  307MOL0     H41417   6.720   3.883  10.388 -0.1886  2.0604  1.4956
  307MOL0     H41418   6.780   4.054  10.395 -0.1872  2.2945 -2.6293
  307MOL0     H41419   6.903   3.812  10.267 -0.9890  1.0346 -1.4819
  307MOL0     H41420   6.987   3.969  10.291  1.0577 -2.1946 -1.2126
  307MOL0     H41421   6.868   3.835  10.531 -0.4419 -3.3983 -0.1646
  307MOL0     H41422   7.009   3.943  10.520 -1.6181  1.5146 -1.0490
  307MOL0     H41423   7.058   3.680  10.567  1.5685  0.9272  0.8080
  307MOL0     H41424   7.005   3.667  10.402 -0.9595  1.1511 -0.3564
  307MOL0     H41425   6.135   4.189   9.816  1.3571  1.0573  1.6325
  307MOL0     H41426   5.917   4.129   9.783 -1.9702  0.6478  0.9035
  307MOL0     H41427   5.565   4.007   9.788 -0.2139 -3.7452  0.0819
  307MOL0     H41428   5.336   3.937   9.705 -0.3976 -2.1480  1.2985
  307MOL0     H41429   3.370   3.660   9.910 -1.3649 -0.8869  0.1701
  307MOL0     H41430   3.149   3.557   9.898 -0.5125 -0.2703 -0.1498
  307MOL0     H41431   2.708   3.486  10.169 -0.4940 -2.4979 -0.9315
  307MOL0     H41432   2.489   3.403  10.154 -0.2474 -1.9319 -2.7250
  307MOL0     H41433   2.244   3.423  10.152  2.2273 -0.1350  0.2307
  307MOL0     H41434   2.314   3.276  10.088  1.8334  1.7401 -0.0217
  307MOL0     H41435   2.093   3.417   9.956  1.0261 -0.1096 -0.4048
  307MOL0     H41436   2.055   3.322  10.099 -2.7386 -0.2320 -1.2751
  307MOL0     H41437   2.166   3.207   9.839  2.3661 -0.1260  1.2832
  307MOL0     H41438   2.005   3.194   9.899  0.1062 -0.5840 -1.9125
  307MOL0     H41439   2.247   3.064  10.029 -0.0739 -1.2032  1.0865
  307MOL0     H41440   2.080   3.059  10.094  0.2780 -1.3687  0.5858
  307MOL0     H41441   2.039   2.812   9.765  1.7782 -0.3331 -0.7957
  307MOL0     H41442   2.417   3.627   9.798 -1.2384 -1.3196  0.1550
  307MOL0     H41443   2.723   3.813   9.837  0.4608 -0.9628 -0.1255
  307MOL0     H41444   2.717   3.691   9.707 -1.7019 -0.7125 -0.5220
  307MOL0     H41445   2.570   3.794   9.742 -1.6146 -1.0616  0.4185
  308MOL0     O41446   9.508   6.860   7.113 -0.3141  0.1407  0.1736
  308MOL0     C41447   9.466   6.784   7.029 -0.8017  0.0243  0.6428
  308MOL0     O41448   9.535   6.726   6.933 -0.1987 -0.3828 -0.3104
  308MOL0     C41449   9.668   6.755   6.899  0.4989  0.5190  0.0888
  308MOL0     C41450   9.679   6.805   6.773 -0.9144 -0.5807  0.2288
  308MOL0     C41451   9.804   6.851   6.727 -0.1870  0.0259  0.9888
  308MOL0     C41452   9.921   6.831   6.815  0.6088  0.4052 -0.3533
  308MOL0     O41453  10.050   6.864   6.784  0.5511  0.0475  0.0442
  308MOL0     C41454  10.073   6.934   6.659 -0.3019  1.2803 -0.1240
  308MOL0     C41455  10.223   6.967   6.652 -0.0716  0.2744 -0.0549
  308MOL0     C41456  10.246   7.100   6.728 -0.1719 -0.4871  0.7503
  308MOL0     C41457  10.396   7.125   6.754 -0.7575 -0.8462  0.5985
  308MOL0     C41458  10.464   7.167   6.613  0.3742  0.0314 -0.5540
  308MOL0     C41459  10.615   7.179   6.607  0.5988 -0.2183  0.3952
  308MOL0     C41460  10.669   7.271   6.717 -0.4882  0.1189  0.4912
  308MOL0     C41461  10.825   7.288   6.698 -0.2790 -0.7459  0.3586
  308MOL0     N41462  10.888   7.170   6.744 -0.3558 -0.3203 -0.8196
  308MOL0     C41463  10.944   7.076   6.668  0.4878  1.0342 -0.0567
  308MOL0     C41464  10.996   6.994   6.749  0.2748  0.4455  0.3183
  308MOL0     C41465  11.075   6.865   6.714  0.7954 -0.5367  0.0343
  308MOL0     C41466  11.202   6.864   6.800 -0.2173 -0.0162 -0.1507
  308MOL0     C41467  11.270   6.733   6.775  0.2884  0.0216 -0.1278
  308MOL0     C41468  11.396   6.701   6.856 -0.0592 -0.5568 -0.1563
  308MOL0     O41469  11.491   6.808   6.867 -0.3480  0.2785 -0.8312
  308MOL0     C41470  11.614   6.775   6.921 -0.1113  0.1447  0.1859
  308MOL0     C41471  11.658   6.663   6.981  0.0690 -0.4365  0.2946
  308MOL0     C41472  11.790   6.646   7.030 -0.4925  0.7967  0.1222
  308MOL0     C41473  11.890   6.746   7.018 -0.0917  0.7481  0.5065
  308MOL0     C41474  12.038   6.716   7.039  0.3044 -0.3995  0.8990
  308MOL0     O41475  12.124   6.817   7.015  0.8560  0.3429  0.2138
  308MOL0     C41476  12.262   6.803   7.006 -0.7096  0.4961  0.6319
  308MOL0     C41477  12.332   6.919   6.963 -0.2023 -0.3954  0.2418
  308MOL0     C41478  12.466   6.924   6.944 -0.2969 -0.4842 -0.3512
  308MOL0     C41479  12.546   6.818   6.975  0.3024  0.2027  0.2553
  308MOL0     O41480  12.680   6.846   6.985 -0.0331  0.7292 -0.9675
  308MOL0     C41481  12.785   6.750   6.964  0.0031  0.7613  0.8590
  308MOL0     C41482  12.866   6.793   6.844  1.0052  0.9052 -0.1167
  308MOL0     C41483  12.933   6.931   6.854 -0.0868  0.5356 -0.4551
  308MOL0     C41484  13.056   6.932   6.950  0.0432  0.2835  0.2168
  308MOL0     C41485  13.178   6.870   6.879  0.3804  0.8826  0.3497
  308MOL0     C41486  13.220   6.927   6.742 -0.6024  0.2329 -0.5839
  308MOL0     C41487  13.350   6.864   6.703  0.0074 -0.3908 -0.5561
  308MOL0     C41488  13.416   6.951   6.602  0.5005  0.2364 -0.0949
  308MOL0    Cl41489  13.564   6.860   6.546 -0.0424  0.4273  0.3070
  308MOL0     C41490  12.488   6.702   7.031  0.1643 -0.1968  0.1612
  308MOL0     C41491  12.344   6.689   7.041  0.1825  0.4774  0.0270
  308MOL0     O41492  12.074   6.603   7.067  0.3300  0.1934  0.2381
  308MOL0     C41493  11.836   6.870   6.966 -0.1043 -0.0595  0.3397
  308MOL0     C41494  11.711   6.876   6.910 -0.1943 -0.4751 -0.1248
  308MOL0     N41495  10.972   7.031   6.879  0.5125 -0.4616 -0.2117
  308MOL0     N41496  10.904   7.132   6.869  0.4040 -0.6057 -0.2204
  308MOL0     C41497   9.904   6.788   6.952  0.2466  0.1890  0.8976
  308MOL0     C41498   9.778   6.749   6.988  0.1420  0.0699  0.3701
  308MOL0     C41499   9.322   6.742   7.026 -0.4068  0.5625 -0.4667
  308MOL0     C41500   9.259   6.718   6.910  0.1575 -0.2080  0.2477
  308MOL0     C41501   9.129   6.673   6.895  0.6055  0.7525  0.3552
  308MOL0     C41502   9.043   6.675   7.009 -0.7220 -0.9050  1.0407
  308MOL0     O41503   8.914   6.644   6.986  0.3818  0.2130 -0.1889
  308MOL0     C41504   8.864   6.526   7.048  1.0539 -0.1434  0.0524
  308MOL0     C41505   8.761   6.556   7.156  0.4396 -0.6359  1.0516
  308MOL0     C41506   8.647   6.646   7.110 -0.5723  0.0656 -0.6161
  308MOL0     C41507   8.561   6.678   7.235 -0.1066 -0.2143 -0.0965
  308MOL0     C41508   8.422   6.701   7.196  0.0521  0.3063  0.5035
  308MOL0     C41509   8.305   6.714   7.162 -0.2038  0.9516 -0.6167
  308MOL0     C41510   9.103   6.697   7.137  0.0802 -0.7221  0.2013
  308MOL0     C41511   9.242   6.735   7.146 -0.8537 -0.0087 -0.4102
  308MOL0     C41512   9.292   6.755   7.290  0.1091 -0.7505 -0.1785
  308MOL0     H41513   9.595   6.811   6.705 -3.4068  2.6375  3.2678
  308MOL0     H41514   9.810   6.913   6.638 -2.0797 -0.2564  0.6100
  308MOL0     H41515  10.032   6.871   6.580 -3.6782  1.4058  1.3359
  308MOL0     H41516  10.017   7.028   6.666 -0.2389  1.3656 -0.7702
  308MOL0     H41517  10.235   6.975   6.544 -1.1262  0.5972 -0.1582
  308MOL0     H41518  10.282   6.884   6.693 -0.8367 -0.0594  0.4090
  308MOL0     H41519  10.195   7.103   6.825 -1.1811 -0.0967  0.2268
  308MOL0     H41520  10.197   7.183   6.677 -0.4254 -2.4407 -2.4618
  308MOL0     H41521  10.416   7.202   6.830 -0.6630 -0.2263 -0.0479
  308MOL0     H41522  10.443   7.038   6.802  1.0197  0.4523  1.3492
  308MOL0     H41523  10.431   7.098   6.535  0.9662 -0.3616 -0.4682
  308MOL0     H41524  10.419   7.261   6.583 -0.7306 -0.7699 -1.4628
  308MOL0     H41525  10.676   7.088   6.596 -0.1846 -0.4491 -3.6218
  308MOL0     H41526  10.618   7.234   6.512 -4.4681  3.0609  1.7666
  308MOL0     H41527  10.645   7.235   6.817 -0.6476 -2.0912 -0.3046
  308MOL0     H41528  10.629   7.371   6.698  0.4636  0.6898  1.4065
  308MOL0     H41529  10.865   7.333   6.607  1.8672 -1.0006  1.0957
  308MOL0     H41530  10.854   7.367   6.767 -2.1639 -0.2564  0.6281
  308MOL0     H41531  10.933   7.074   6.560  1.3873  2.9652 -0.2364
  308MOL0     H41532  11.003   6.794   6.756 -1.7700  3.0707  2.3277
  308MOL0     H41533  11.083   6.843   6.607 -3.8529  0.6597 -0.7686
  308MOL0     H41534  11.278   6.937   6.770  0.9679 -1.3231 -0.4484
  308MOL0     H41535  11.185   6.882   6.906 -0.4515 -0.0076 -0.1907
  308MOL0     H41536  11.291   6.733   6.668 -6.0077 -1.7405 -1.8103
  308MOL0     H41537  11.190   6.659   6.787  0.8404 -0.3632  1.3257
  308MOL0     H41538  11.441   6.614   6.809 -0.6207 -1.3121  0.6673
  308MOL0     H41539  11.363   6.677   6.958  1.0835  0.1312  0.3956
  308MOL0     H41540  11.587   6.584   7.003 -1.6379  1.0647  0.4838
  308MOL0     H41541  11.813   6.552   7.080  0.3781 -0.0869 -1.7992
  308MOL0     H41542  12.287   7.016   6.946  2.7264  1.0557  0.1104
  308MOL0     H41543  12.513   7.020   6.926  0.9983 -0.3543  2.9446
  308MOL0     H41544  12.849   6.728   7.050  1.2668 -4.2566 -1.0135
  308MOL0     H41545  12.736   6.655   6.940  0.7086  0.9288 -1.5409
  308MOL0     H41546  12.944   6.717   6.829 -0.0663 -0.2673  0.0039
  308MOL0     H41547  12.805   6.792   6.753 -0.1000  1.9470  0.5870
  308MOL0     H41548  12.970   6.968   6.758  0.8017 -4.1910 -2.2181
  308MOL0     H41549  12.862   7.001   6.898  2.7262  2.0950  1.9892
  308MOL0     H41550  13.030   6.876   7.040  2.3555  0.4445  1.0373
  308MOL0     H41551  13.090   7.031   6.984  1.2062 -0.9148  2.8352
  308MOL0     H41552  13.156   6.765   6.860  1.3451  0.9589 -1.4068
  308MOL0     H41553  13.263   6.859   6.946  1.1611 -0.5547 -0.8161
  308MOL0     H41554  13.147   6.905   6.664 -0.0371 -0.5560 -0.9021
  308MOL0     H41555  13.221   7.036   6.739  0.5583  0.2115 -1.7671
  308MOL0     H41556  13.343   6.757   6.681  4.5128 -1.0019 -0.0268
  308MOL0     H41557  13.417   6.868   6.790 -1.7761 -0.5301  0.8772
  308MOL0     H41558  13.347   6.977   6.521 -0.7916 -2.7655 -0.0683
  308MOL0     H41559  13.456   7.046   6.640 -0.9334  1.0584 -0.5489
  308MOL0     H41560  12.551   6.623   7.071  3.1406  2.1451  0.4554
  308MOL0     H41561  12.304   6.599   7.086 -0.6821  0.3028 -1.0519
  308MOL0     H41562  11.894   6.962   6.958  0.4192 -0.2243  1.7805
  308MOL0     H41563  11.687   6.965   6.853 -0.9539 -1.0774 -0.7748
  308MOL0     H41564   9.993   6.774   7.013  1.0251 -2.1731 -0.6377
  308MOL0     H41565   9.765   6.709   7.088 -1.5740  2.7577  1.3522
  308MOL0     H41566   9.311   6.754   6.822  0.3688  2.7829  1.4738
  308MOL0     H41567   9.086   6.651   6.798 -0.2149  3.4326  0.0329
  308MOL0     H41568   8.949   6.473   7.092  2.6831  2.1204 -0.2353
  308MOL0     H41569   8.814   6.463   6.973  1.4397 -2.0190  1.3000
  308MOL0     H41570   8.817   6.596   7.241  1.9086 -0.9111  0.2412
  308MOL0     H41571   8.708   6.464   7.183 -1.7219  0.3294  0.3898
  308MOL0     H41572   8.599   6.583   7.034  0.7584 -0.3948 -1.0989
  308MOL0     H41573   8.688   6.730   7.053  1.2953 -0.8923 -0.7712
  308MOL0     H41574   8.558   6.590   7.300 -0.1397  0.2684  0.5609
  308MOL0     H41575   8.604   6.764   7.286  0.3651  0.7387 -2.0155
  308MOL0     H41576   8.210   6.731   7.116 -0.2929  1.3821 -0.2780
  308MOL0     H41577   9.045   6.701   7.228 -0.4275 -1.8989 -0.0427
  308MOL0     H41578   9.225   6.690   7.348 -0.7985  0.4437  0.1697
  308MOL0     H41579   9.399   6.735   7.301  0.4040  1.0168  0.5078
  308MOL0     H41580   9.284   6.857   7.330  0.6716 -0.6470 -0.3254
  309MOL0     O41581   0.243  10.282  10.894  0.4132 -0.0474 -0.2376
  309MOL0     C41582   0.186  10.242  10.994 -0.2192  1.0701 -0.2147
  309MOL0     O41583   0.215  10.260  11.124  1.1714  0.8480  1.2133
  309MOL0     C41584   0.340  10.316  11.136  0.5255  0.3380 -0.9860
  309MOL0     C41585   0.353  10.421  11.229  0.0095  0.0075 -0.6527
  309MOL0     C41586   0.476  10.485  11.248 -0.1292 -0.2891  0.0601
  309MOL0     C41587   0.594  10.433  11.202  0.5376  0.7876 -0.1162
  309MOL0     O41588   0.714  10.494  11.235  0.3934  0.2647  0.0605
  309MOL0     C41589   0.734  10.530  11.369 -0.2646 -0.0007 -0.1287
  309MOL0     C41590   0.790  10.675  11.366 -0.7486 -0.3970  0.6040
  309MOL0     C41591   0.937  10.682  11.345 -0.3944  0.2088  0.2995
  309MOL0     C41592   1.009  10.716  11.470 -1.7604  0.4386 -0.1267
  309MOL0     C41593   1.155  10.737  11.447  0.0952  0.2193  0.3550
  309MOL0     C41594   1.240  10.683  11.559  0.1094 -0.6592  0.1317
  309MOL0     C41595   1.385  10.743  11.561  0.3114 -0.7275  0.4658
  309MOL0     C41596   1.456  10.689  11.436 -0.6157  0.5607 -0.9764
  309MOL0     N41597   1.605  10.718  11.446  0.1016  0.3914  0.5049
  309MOL0     C41598   1.680  10.637  11.365 -0.2670  0.2420  0.4064
  309MOL0     C41599   1.807  10.649  11.418  0.3730 -0.4607 -0.3925
  309MOL0     C41600   1.919  10.561  11.370 -0.5786 -0.3002 -0.3316
  309MOL0     C41601   2.024  10.524  11.481  0.1683 -0.1040 -0.6642
  309MOL0     C41602   1.975  10.418  11.576 -0.8869 -0.4734 -0.1838
  309MOL0     C41603   2.081  10.387  11.677  0.3928  0.3283 -0.1047
  309MOL0     O41604   2.181  10.310  11.610 -0.2523 -0.0726  0.0555
  309MOL0     C41605   2.306  10.297  11.665  0.8754 -0.0875 -0.8977
  309MOL0     C41606   2.423  10.288  11.595  0.1812  0.0572 -0.2684
  309MOL0     C41607   2.554  10.265  11.659 -0.0749 -0.1198 -0.4185
  309MOL0     C41608   2.570  10.272  11.796 -1.2319 -0.0239  0.3756
  309MOL0     C41609   2.703  10.280  11.854 -0.1050  0.1116 -1.0837
  309MOL0     O41610   2.807  10.266  11.775  0.1124 -0.3385  0.9253
  309MOL0     C41611   2.937  10.261  11.824  0.8567 -0.0818 -0.4954
  309MOL0     C41612   3.034  10.310  11.742  0.3530 -0.6674  0.4702
  309MOL0     C41613   3.167  10.309  11.779  0.1147  0.0890 -0.2251
  309MOL0     C41614   3.213  10.235  11.890  0.6727 -0.1132 -1.0066
  309MOL0     O41615   3.341  10.210  11.935 -0.0425  0.9114 -0.6272
  309MOL0     C41616   3.448  10.257  11.854 -0.5379 -0.0726  0.4808
  309MOL0     C41617   3.571  10.194  11.916  0.6245 -0.2725  0.3847
  309MOL0     C41618   3.692  10.193  11.832  0.0053 -0.1312  0.1097
  309MOL0     C41619   3.801  10.098  11.908 -0.2075  0.5259  1.1460
  309MOL0     C41620   3.920  10.071  11.821  0.5823  0.6478  0.3648
  309MOL0     C41621   3.991   9.956  11.897 -0.4202 -1.1726  0.2373
  309MOL0     C41622   4.122   9.916  11.815 -0.0625 -0.6527 -0.0726
  309MOL0     C41623   4.206   9.809  11.885  0.8391 -1.2367  0.1650
  309MOL0    Cl41624   4.331   9.732  11.788  0.2074 -0.1245  0.0595
  309MOL0     C41625   3.119  10.187  11.977  0.3500  0.8785 -0.4955
  309MOL0     C41626   2.983  10.200  11.944 -0.1145 -0.4411 -0.5156
  309MOL0     O41627   2.706  10.294  11.977 -0.7389 -0.2746  0.1087
  309MOL0     C41628   2.448  10.281  11.863  0.4198 -0.3301 -0.7789
  309MOL0     C41629   2.319  10.297  11.806  0.0191 -0.3749  0.0677
  309MOL0     N41630   1.802  10.738  11.520 -0.0432 -0.7020 -0.4708
  309MOL0     N41631   1.681  10.768  11.546 -0.2354 -0.1195  0.4376
  309MOL0     C41632   0.583  10.315  11.115 -0.4554 -0.4340 -0.7952
  309MOL0     C41633   0.458  10.262  11.083 -0.8386  0.0892 -0.3484
  309MOL0     C41634   0.060  10.155  10.977  0.0147  0.0794  0.0309
  309MOL0     C41635  -0.001  10.095  11.087 -0.5013  0.2993 -0.5152
  309MOL0     C41636  -0.106  10.013  11.069 -0.9294 -0.4560 -0.1727
  309MOL0     C41637  -0.154   9.984  10.941  0.4302 -0.7974 -0.6819
  309MOL0     O41638  -0.266   9.914  10.920  0.1102  1.1571  0.3207
  309MOL0     C41639  -0.377   9.955  10.998  0.3067  0.1946 -0.8895
  309MOL0     C41640  -0.490   9.865  10.988  0.0720 -0.0306 -0.2961
  309MOL0     C41641  -0.611   9.919  11.054 -0.5454 -1.0428 -0.0131
  309MOL0     C41642  -0.733   9.845  11.022 -0.3081  0.2396  0.3735
  309MOL0     C41643  -0.740   9.703  11.061 -0.2830 -1.3611 -0.1100
  309MOL0     C41644  -0.730   9.583  11.080  0.0633  0.9887  0.6007
  309MOL0     C41645  -0.095  10.044  10.833 -0.5855 -0.0490 -0.3396
  309MOL0     C41646   0.012  10.130  10.846  0.4170  0.4776  0.5440
  309MOL0     C41647   0.055  10.200  10.725  0.1150  0.6537  0.0979
  309MOL0     H41648   0.267  10.472  11.270 -0.0750  0.0845 -0.9283
  309MOL0     H41649   0.477  10.573  11.311 -0.4176 -0.9562  1.0325
  309MOL0     H41650   0.648  10.543  11.436 -0.5879 -0.1014 -0.5203
  309MOL0     H41651   0.806  10.453  11.400 -0.0692  0.5852  0.9117
  309MOL0     H41652   0.768  10.715  11.465  1.9279 -1.6030  1.7822
  309MOL0     H41653   0.740  10.740  11.293 -2.3993 -1.3564  0.8127
  309MOL0     H41654   0.959  10.768  11.281  0.7393  0.4570  0.9926
  309MOL0     H41655   0.975  10.592  11.295  0.7710  0.0800  1.3458
  309MOL0     H41656   0.985  10.807  11.525  1.5585 -0.2086  2.7470
  309MOL0     H41657   0.996  10.633  11.541 -0.7705 -0.4248 -0.9232
  309MOL0     H41658   1.188  10.689  11.355 -1.0511 -1.4175  0.7485
  309MOL0     H41659   1.174  10.845  11.439  2.6168 -0.0530  1.5247
  309MOL0     H41660   1.189  10.709  11.652 -1.3149  1.1243 -1.0908
  309MOL0     H41661   1.241  10.574  11.546 -1.9078 -0.6109 -0.7803
  309MOL0     H41662   1.430  10.711  11.656  3.0987  0.2999 -0.4133
  309MOL0     H41663   1.384  10.852  11.557  2.0630 -0.6829  0.3262
  309MOL0     H41664   1.449  10.580  11.444 -0.9214  0.7232  2.2608
  309MOL0     H41665   1.401  10.728  11.350  1.0457  3.8943 -0.7215
  309MOL0     H41666   1.656  10.565  11.287  2.3964  0.4956 -0.7536
  309MOL0     H41667   1.875  10.471  11.326 -1.0109 -1.1500  1.7184
  309MOL0     H41668   1.968  10.616  11.289 -1.8292 -0.2994 -1.1147
  309MOL0     H41669   2.115  10.496  11.426  0.6276  1.2801 -0.6497
  309MOL0     H41670   2.056  10.620  11.522 -0.4413 -0.2653  0.2121
  309MOL0     H41671   1.939  10.335  11.514  2.5299 -0.3389 -2.6503
  309MOL0     H41672   1.887  10.461  11.625  0.2105 -0.5606  1.9674
  309MOL0     H41673   2.038  10.339  11.765 -0.1690 -1.6689 -1.4210
  309MOL0     H41674   2.133  10.475  11.717 -0.4858  1.6720 -1.7996
  309MOL0     H41675   2.412  10.292  11.487 -1.4784 -0.0343 -0.1337
  309MOL0     H41676   2.635  10.267  11.588 -0.3941 -1.7640 -0.8621
  309MOL0     H41677   3.001  10.360  11.652  0.8040 -1.4141 -0.1253
  309MOL0     H41678   3.234  10.343  11.701 -1.3763  1.3336 -1.0133
  309MOL0     H41679   3.425  10.226  11.751  0.7848 -1.3215  0.5326
  309MOL0     H41680   3.452  10.366  11.844  1.0262 -0.2964 -3.6270
  309MOL0     H41681   3.591  10.248  12.010  0.4679  1.7022 -0.6700
  309MOL0     H41682   3.551  10.089  11.940  2.7401 -1.0365 -0.9067
  309MOL0     H41683   3.677  10.166  11.727  1.1739  1.0578 -0.4014
  309MOL0     H41684   3.737  10.293  11.833 -2.1216  0.8837 -0.1354
  309MOL0     H41685   3.739  10.017  11.946 -0.6380 -0.9856 -2.4093
  309MOL0     H41686   3.844  10.148  11.995  0.7532 -0.3892  1.2071
  309MOL0     H41687   3.979  10.163  11.825  1.6137 -0.0328  1.7753
  309MOL0     H41688   3.906  10.042  11.717 -0.7510 -3.1390  1.4357
  309MOL0     H41689   4.025  10.002  11.990  2.1038  0.8697 -1.5418
  309MOL0     H41690   3.931   9.875  11.941  0.3878 -1.2018  1.3036
  309MOL0     H41691   4.182  10.005  11.794  0.2255 -0.7284  0.4393
  309MOL0     H41692   4.087   9.879  11.718 -3.3125  1.7418  0.0047
  309MOL0     H41693   4.261   9.850  11.970  0.4378  1.9115 -0.9654
  309MOL0     H41694   4.140   9.728  11.919 -1.2175  0.7536  1.1242
  309MOL0     H41695   3.139  10.135  12.070  3.4484 -0.5333 -1.8234
  309MOL0     H41696   2.903  10.170  12.011  1.1356  2.0568  2.3501
  309MOL0     H41697   2.452  10.266  11.971  0.9890 -1.3662 -0.9356
  309MOL0     H41698   2.234  10.299  11.873  0.5870  1.9810  0.8258
  309MOL0     H41699   0.664  10.277  11.055  1.4285  3.1628 -0.7911
  309MOL0     H41700   0.454  10.163  11.039  0.1799 -1.8727  3.5086
  309MOL0     H41701   0.037  10.104  11.188 -2.3984 -2.7989  0.6074
  309MOL0     H41702  -0.148   9.954  11.149  2.0722 -2.4319  0.1220
  309MOL0     H41703  -0.400  10.056  10.964 -2.0549 -0.7278 -2.2874
  309MOL0     H41704  -0.350   9.966  11.103  1.0534 -2.1565 -0.7786
  309MOL0     H41705  -0.460   9.765  11.020  4.4139  1.3970  0.7226
  309MOL0     H41706  -0.510   9.842  10.883  3.0581  2.9835 -1.7173
  309MOL0     H41707  -0.634  10.016  11.010 -1.8485 -0.8154  1.1105
  309MOL0     H41708  -0.593   9.940  11.160  1.2638  2.8271 -0.9278
  309MOL0     H41709  -0.817   9.893  11.074 -0.3182 -2.6043  3.3579
  309MOL0     H41710  -0.740   9.845  10.913  3.4268  1.4830  0.0053
  309MOL0     H41711  -0.726   9.479  11.105  0.1955  0.6801 -0.6335
  309MOL0     H41712  -0.139  10.021  10.737 -1.1235 -3.5400  0.5979
  309MOL0     H41713   0.153  10.164  10.691 -1.0107 -2.7319  0.0210
  309MOL0     H41714  -0.014  10.171  10.645  0.2294 -0.5680  0.4149
  309MOL0     H41715   0.061  10.308  10.735 -0.8753  0.9712 -2.0389
  310MOL0     O41716   8.186   9.506   1.150 -0.5921 -0.1635  0.1061
  310MOL0     C41717   8.190   9.535   1.031 -0.3492 -0.3188 -0.2436
  310MOL0     O41718   8.292   9.565   0.952 -0.1391 -0.0627  1.1130
  310MOL0     C41719   8.418   9.518   0.988  0.6491 -0.3798  0.6882
  310MOL0     C41720   8.510   9.617   0.963 -0.3431  0.0393 -0.4039
  310MOL0     C41721   8.651   9.582   0.962  0.1419 -1.1578 -0.1954
  310MOL0     C41722   8.691   9.452   1.002 -0.2335 -0.1898  0.4661
  310MOL0     O41723   8.816   9.410   0.980 -0.3272 -0.1712  0.7711
  310MOL0     C41724   8.917   9.496   0.923 -0.5848  0.5293  0.6034
  310MOL0     C41725   9.054   9.428   0.935  0.1911 -0.5685  0.5325
  310MOL0     C41726   9.108   9.416   1.070 -1.6471  0.0737  0.2119
  310MOL0     C41727   9.234   9.331   1.075 -0.1685  0.5450  0.6933
  310MOL0     C41728   9.302   9.320   1.207 -0.0873 -0.1458  0.2411
  310MOL0     C41729   9.358   9.449   1.281  0.0107  0.1724 -0.7967
  310MOL0     C41730   9.492   9.481   1.227  0.1197  0.5748 -0.2869
  310MOL0     C41731   9.553   9.588   1.306 -0.2492 -0.3519 -0.2547
  310MOL0     N41732   9.694   9.624   1.269 -0.3284  0.7164 -0.0142
  310MOL0     C41733   9.808   9.552   1.296 -0.4401  0.3647 -1.3798
  310MOL0     C41734   9.915   9.632   1.267  0.9368  0.6651 -0.0387
  310MOL0     C41735  10.059   9.608   1.265  0.3542 -0.3401 -0.8142
  310MOL0     C41736  10.132   9.686   1.384  0.6453  0.8257  0.2185
  310MOL0     C41737  10.285   9.653   1.375  0.6862  0.0493 -0.0756
  310MOL0     C41738  10.356   9.759   1.443 -0.3149  1.1060  0.2476
  310MOL0     O41739  10.492   9.746   1.397 -0.2885 -0.5529  0.2314
  310MOL0     C41740  10.576   9.841   1.443  0.2482 -0.0982 -0.1445
  310MOL0     C41741  10.694   9.848   1.371  0.3249  0.1953 -0.4489
  310MOL0     C41742  10.795   9.940   1.408  0.0328 -1.1659  0.0898
  310MOL0     C41743  10.776  10.026   1.521 -0.1140  0.4325  0.4067
  310MOL0     C41744  10.882  10.122   1.571 -0.3787  0.0698  0.3808
  310MOL0     O41745  10.845  10.234   1.651  0.8851 -0.2051  0.1229
  310MOL0     C41746  10.931  10.326   1.696 -0.2678  0.1752 -0.1238
  310MOL0     C41747  11.023  10.387   1.606 -0.3878 -0.6244 -0.6606
  310MOL0     C41748  11.118  10.481   1.660 -0.0679  0.4072  0.4809
  310MOL0     C41749  11.116  10.533   1.792 -0.6014  0.1380 -0.0246
  310MOL0     O41750  11.212  10.620   1.854 -0.0033  0.1109  0.0653
  310MOL0     C41751  11.317  10.567   1.941 -0.3257 -0.5181 -0.1162
  310MOL0     C41752  11.423  10.675   1.946  0.4809  0.1272 -0.1083
  310MOL0     C41753  11.549  10.613   2.001 -0.6163  0.4506  0.4952
  310MOL0     C41754  11.620  10.702   2.102  0.4833  0.3063 -0.3483
  310MOL0     C41755  11.769  10.671   2.128  0.7892 -0.5250 -0.6746
  310MOL0     C41756  11.812  10.771   2.241 -0.3579 -0.3147  0.1133
  310MOL0     C41757  11.959  10.748   2.274 -0.5948 -0.1591 -0.0266
  310MOL0     C41758  12.066  10.803   2.167 -0.4614 -0.0497  0.2163
  310MOL0    Cl41759  12.222  10.738   2.222  0.2422  0.4187  0.5535
  310MOL0     C41760  11.015  10.476   1.878  1.0772 -0.4396  0.3094
  310MOL0     C41761  10.921  10.378   1.825  0.4414 -0.5622  0.0074
  310MOL0     O41762  10.998  10.101   1.523 -0.6523  0.3404  0.0831
  310MOL0     C41763  10.653  10.018   1.589  0.6026 -0.1861 -0.2898
  310MOL0     C41764  10.548   9.929   1.555 -0.3013  1.0059 -0.2505
  310MOL0     N41765   9.859   9.756   1.227  0.0080  0.2327  0.7106
  310MOL0     N41766   9.729   9.744   1.216  0.4329 -0.0595  0.4964
  310MOL0     C41767   8.596   9.361   1.036 -0.6624  0.2182 -0.1645
  310MOL0     C41768   8.455   9.386   1.031  0.2524 -0.4130 -0.4835
  310MOL0     C41769   8.060   9.566   0.966 -0.3632 -0.0251  0.1408
  310MOL0     C41770   8.043   9.512   0.835  0.9072 -0.4774  0.4497
  310MOL0     C41771   7.923   9.519   0.768  1.0992  0.0895 -0.6285
  310MOL0     C41772   7.817   9.589   0.832 -0.0884 -0.0100  0.1036
  310MOL0     O41773   7.688   9.601   0.779 -0.8657 -0.1256  0.2292
  310MOL0     C41774   7.654   9.542   0.657 -0.5018 -0.1823 -0.0365
  310MOL0     C41775   7.507   9.555   0.618  0.5812 -0.0761 -0.5887
  310MOL0     C41776   7.430   9.474   0.724 -0.2655  0.0604  0.1158
  310MOL0     C41777   7.280   9.468   0.708  0.9234  0.1299 -0.2717
  310MOL0     C41778   7.263   9.376   0.595 -0.2907  0.0513  0.0266
  310MOL0     C41779   7.246   9.307   0.498 -1.0346 -0.0069 -0.2902
  310MOL0     C41780   7.832   9.644   0.959  0.0474  0.5887 -0.1975
  310MOL0     C41781   7.954   9.637   1.026  0.2203 -0.0800  0.3859
  310MOL0     C41782   7.970   9.711   1.156 -0.5063 -0.1034  0.4782
  310MOL0     H41783   8.484   9.721   0.946  0.8430  0.8013  1.9903
  310MOL0     H41784   8.725   9.660   0.949 -1.3316 -0.0193 -2.3811
  310MOL0     H41785   8.887   9.502   0.818  2.2540 -0.8409 -0.3786
  310MOL0     H41786   8.928   9.596   0.965  1.9684  0.2623  0.7285
  310MOL0     H41787   9.121   9.480   0.865  0.3822 -2.4249 -0.7424
  310MOL0     H41788   9.053   9.329   0.888  2.2955  0.5038 -2.0475
  310MOL0     H41789   9.030   9.369   1.130 -0.4589 -1.0460  0.9282
  310MOL0     H41790   9.135   9.515   1.109  1.2454 -0.4279 -0.2845
  310MOL0     H41791   9.209   9.229   1.044 -2.4283  1.1858  0.2466
  310MOL0     H41792   9.297   9.376   0.997 -0.7231 -1.4028 -0.9786
  310MOL0     H41793   9.225   9.285   1.277  0.1964 -0.7918  0.2350
  310MOL0     H41794   9.379   9.242   1.203  0.5334  0.4826 -0.4499
  310MOL0     H41795   9.286   9.531   1.277  0.4318  0.8210  2.1377
  310MOL0     H41796   9.376   9.420   1.386 -0.6743 -0.3466 -0.8159
  310MOL0     H41797   9.487   9.513   1.123  2.0579  4.2618  0.5749
  310MOL0     H41798   9.556   9.394   1.246  0.7161  0.7203 -1.5046
  310MOL0     H41799   9.496   9.679   1.286 -0.8808 -1.0561 -1.7994
  310MOL0     H41800   9.554   9.568   1.414  2.7156  3.4714  0.6280
  310MOL0     H41801   9.826   9.462   1.354 -2.0724  0.2821 -0.9306
  310MOL0     H41802  10.071   9.500   1.278  0.5761 -0.2379 -0.1223
  310MOL0     H41803  10.101   9.642   1.171  0.2281 -2.0057 -1.5102
  310MOL0     H41804  10.114   9.794   1.382  3.7354  1.4114  0.2391
  310MOL0     H41805  10.091   9.652   1.480 -1.2370 -0.9235 -1.1085
  310MOL0     H41806  10.311   9.658   1.269  0.4759 -1.8811 -0.2602
  310MOL0     H41807  10.301   9.549   1.407  0.2245 -0.2671 -0.8562
  310MOL0     H41808  10.350   9.742   1.551  1.2769 -2.3028 -0.0637
  310MOL0     H41809  10.321   9.859   1.415 -1.2861  1.4680  2.4990
  310MOL0     H41810  10.713   9.785   1.285 -1.6282  0.8384 -1.4103
  310MOL0     H41811  10.884   9.944   1.346 -0.1425  0.6370 -0.1043
  310MOL0     H41812  11.042  10.365   1.502  3.5405  2.8887 -0.9599
  310MOL0     H41813  11.182  10.531   1.588 -0.5848  2.4891  1.3811
  310MOL0     H41814  11.273  10.558   2.041  0.0583  3.1655  0.5453
  310MOL0     H41815  11.346  10.466   1.911 -2.1974 -1.2218  0.2753
  310MOL0     H41816  11.434  10.722   1.848  1.9999 -3.2664 -1.7122
  310MOL0     H41817  11.391  10.753   2.015 -0.4186 -3.4932  4.0417
  310MOL0     H41818  11.520  10.516   2.042 -1.2972 -0.4205 -1.9014
  310MOL0     H41819  11.609  10.589   1.912  2.6697 -2.1970  3.1357
  310MOL0     H41820  11.554  10.701   2.189  0.2345  1.3950 -0.5103
  310MOL0     H41821  11.616  10.803   2.061  0.6512  1.9668  3.3636
  310MOL0     H41822  11.818  10.688   2.032  1.7366 -1.6639 -0.4245
  310MOL0     H41823  11.782  10.568   2.162 -1.4794 -0.1551  1.6392
  310MOL0     H41824  11.790  10.876   2.221  0.1612  0.2758  2.3208
  310MOL0     H41825  11.758  10.751   2.334 -1.7202 -0.9225 -0.7646
  310MOL0     H41826  11.979  10.641   2.280  0.0252  0.0255  4.5648
  310MOL0     H41827  11.975  10.791   2.373  1.3669  0.8457 -0.7308
  310MOL0     H41828  12.044  10.770   2.066  0.5157 -1.4391  0.4292
  310MOL0     H41829  12.067  10.912   2.158  0.2543  0.0229  1.0083
  310MOL0     H41830  11.013  10.502   1.983 -1.0863 -1.9493  0.7318
  310MOL0     H41831  10.827  10.354   1.873 -0.8330  2.6784 -0.6053
  310MOL0     H41832  10.640  10.085   1.674 -0.9331 -0.5712 -0.1889
  310MOL0     H41833  10.456   9.928   1.613  0.3365  0.6017  0.7840
  310MOL0     H41834   8.634   9.265   1.069  2.0231  2.1024  2.6747
  310MOL0     H41835   8.379   9.310   1.045 -0.7652  0.6247 -0.2072
  310MOL0     H41836   8.126   9.466   0.782  0.5668 -0.3849 -0.1773
  310MOL0     H41837   7.916   9.467   0.673  2.0883 -0.7421 -0.2696
  310MOL0     H41838   7.672   9.435   0.650  1.0018  0.0419 -0.0685
  310MOL0     H41839   7.710   9.588   0.575 -1.6403 -3.4004 -2.8271
  310MOL0     H41840   7.495   9.510   0.520 -0.6682 -1.5107  0.1932
  310MOL0     H41841   7.479   9.660   0.628 -0.6541 -0.5782  2.2987
  310MOL0     H41842   7.449   9.517   0.823 -2.8526 -2.5376  1.9087
  310MOL0     H41843   7.476   9.375   0.730  1.9581  0.8818 -1.7831
  310MOL0     H41844   7.232   9.432   0.800  0.1907  0.0768 -0.6617
  310MOL0     H41845   7.236   9.566   0.686  0.0386 -0.6173 -2.0964
  310MOL0     H41846   7.234   9.229   0.425  1.5648 -2.4301  1.6215
  310MOL0     H41847   7.758   9.713   1.000  2.1065  1.4072  2.4495
  310MOL0     H41848   7.916   9.649   1.228  1.6459 -0.5229  1.8174
  310MOL0     H41849   8.076   9.725   1.181  0.2740  0.9907 -2.9352
  310MOL0     H41850   7.915   9.804   1.163  0.7383  0.8750 -1.6413
  311MOL0     O41851   6.091   3.339   5.741 -0.7556 -0.7371 -0.1844
  311MOL0     C41852   6.056   3.264   5.835  0.0562  0.2324 -0.2682
  311MOL0     O41853   6.133   3.238   5.942  0.3526  0.6032 -0.5170
  311MOL0     C41854   6.249   3.299   5.959 -0.3696 -0.3151  0.0519
  311MOL0     C41855   6.361   3.293   5.874 -0.6356  0.9133  0.0134
  311MOL0     C41856   6.468   3.371   5.890 -0.1431 -0.2402  0.1528
  311MOL0     C41857   6.469   3.460   5.994 -0.1037  0.2766  0.4674
  311MOL0     O41858   6.574   3.532   6.005 -0.5996  0.0559 -0.0371
  311MOL0     C41859   6.569   3.671   6.064 -0.7349 -0.3384  0.3782
  311MOL0     C41860   6.691   3.713   6.147  0.0808  0.0073 -0.1026
  311MOL0     C41861   6.785   3.593   6.180  0.1553 -0.5838  0.0924
  311MOL0     C41862   6.899   3.631   6.275  0.6511 -0.8595 -0.5153
  311MOL0     C41863   6.997   3.726   6.204 -0.8179 -0.8307  0.1681
  311MOL0     C41864   6.998   3.870   6.272  0.5341 -0.2185  0.4933
  311MOL0     C41865   7.117   3.964   6.234  0.7368 -0.4140  0.0118
  311MOL0     C41866   7.078   4.049   6.115  0.4067  0.1523  0.8705
  311MOL0     N41867   7.177   4.152   6.094  0.2618 -0.3466  0.6256
  311MOL0     C41868   7.313   4.132   6.064  0.3180 -0.0515 -0.7004
  311MOL0     C41869   7.363   4.249   6.029 -0.7671 -0.0233  0.1585
  311MOL0     C41870   7.500   4.280   5.978 -0.2602  0.0556 -0.9706
  311MOL0     C41871   7.579   4.371   6.070 -0.5818  0.6568  0.3380
  311MOL0     C41872   7.537   4.516   6.086 -0.1194  0.9259  0.1023
  311MOL0     C41873   7.639   4.613   6.147 -0.4421 -0.4433  0.0819
  311MOL0     O41874   7.752   4.615   6.058  0.3589 -0.6547 -0.8314
  311MOL0     C41875   7.880   4.632   6.103 -0.7493 -0.5667  0.1679
  311MOL0     C41876   7.916   4.684   6.227  0.6797 -0.6046 -0.6640
  311MOL0     C41877   8.042   4.704   6.273  0.6358  0.1767  0.6996
  311MOL0     C41878   8.149   4.679   6.183 -0.3132  0.2003  0.2436
  311MOL0     C41879   8.289   4.707   6.228  0.8037  0.0994  0.5936
  311MOL0     O41880   8.392   4.685   6.142 -0.7362 -0.7414  0.0162
  311MOL0     C41881   8.525   4.713   6.187 -0.3551 -0.4918 -0.0350
  311MOL0     C41882   8.602   4.605   6.228  0.1482 -0.0335 -1.1725
  311MOL0     C41883   8.741   4.622   6.269  0.3910 -0.0160  0.7990
  311MOL0     C41884   8.795   4.745   6.280 -0.4454  0.3329 -0.3668
  311MOL0     O41885   8.928   4.739   6.318  0.0886 -0.3746 -0.0084
  311MOL0     C41886   8.969   4.827   6.422 -0.0035 -0.1975  0.1566
  311MOL0     C41887   8.902   4.795   6.556  0.5294  0.0774  0.5417
  311MOL0     C41888   8.924   4.923   6.656  0.1610  0.4842  0.3206
  311MOL0     C41889   9.056   4.918   6.734  0.0669  0.2569  0.3037
  311MOL0     C41890   9.067   5.029   6.838 -0.2467  0.2692  0.3260
  311MOL0     C41891   9.215   5.027   6.890  0.5157 -1.0881 -0.1297
  311MOL0     C41892   9.328   5.017   6.788  0.5054 -0.6561 -0.6303
  311MOL0     C41893   9.469   5.010   6.849  0.8559  0.2548  0.4283
  311MOL0    Cl41894   9.533   5.176   6.892  0.2910 -0.0092 -0.0215
  311MOL0     C41895   8.724   4.861   6.238  0.6211 -0.9339 -0.2616
  311MOL0     C41896   8.592   4.842   6.188  0.3753  0.4014 -0.4982
  311MOL0     O41897   8.299   4.752   6.343 -0.3676  0.9119 -0.2153
  311MOL0     C41898   8.125   4.627   6.055  0.1132 -0.8149 -0.1336
  311MOL0     C41899   7.991   4.600   6.020 -0.6603 -0.3200  0.7539
  311MOL0     N41900   7.262   4.341   6.029  0.0258 -0.1516  0.7262
  311MOL0     N41901   7.152   4.286   6.067  0.1497  0.5821 -0.3079
  311MOL0     C41902   6.366   3.465   6.085 -0.6202 -0.0229 -0.1506
  311MOL0     C41903   6.259   3.389   6.068  0.0752 -0.3657  0.0923
  311MOL0     C41904   5.917   3.214   5.830 -0.2228  0.1932 -0.0990
  311MOL0     C41905   5.839   3.224   5.945  0.1011 -0.3120 -0.6084
  311MOL0     C41906   5.704   3.194   5.947 -0.3092  0.0327 -0.4625
  311MOL0     C41907   5.641   3.151   5.833  0.6473  0.2011  0.9806
  311MOL0     O41908   5.502   3.122   5.826  0.2835  0.0449  0.0537
  311MOL0     C41909   5.425   3.131   5.947  0.3905 -0.2244 -0.4207
  311MOL0     C41910   5.277   3.116   5.917  0.1725 -0.2186  0.7332
  311MOL0     C41911   5.205   3.245   5.873 -0.8387 -0.2219  0.0145
  311MOL0     C41912   5.139   3.310   5.987  0.8287  0.8424  0.5376
  311MOL0     C41913   5.060   3.414   5.920 -0.0141 -0.2761 -0.0392
  311MOL0     C41914   4.991   3.501   5.871  0.6047  0.0247 -0.5151
  311MOL0     C41915   5.718   3.140   5.719  0.2319  0.4027  0.1169
  311MOL0     C41916   5.848   3.179   5.712 -0.2502 -0.9927  0.5056
  311MOL0     C41917   5.910   3.176   5.575 -0.0558 -0.1459 -0.4704
  311MOL0     H41918   6.374   3.235   5.783 -1.2326  0.8875 -0.0598
  311MOL0     H41919   6.545   3.371   5.814  0.2168 -1.1280  0.5071
  311MOL0     H41920   6.561   3.744   5.983  2.6998 -0.6969 -0.4540
  311MOL0     H41921   6.480   3.684   6.126  0.0753  0.1077  1.4779
  311MOL0     H41922   6.648   3.758   6.236 -3.0321  1.5593 -2.2323
  311MOL0     H41923   6.744   3.790   6.089  0.7035 -0.1894  0.1913
  311MOL0     H41924   6.820   3.553   6.085 -0.0013 -0.6338  0.0551
  311MOL0     H41925   6.726   3.510   6.221 -2.2549  1.7319  1.6641
  311MOL0     H41926   6.866   3.678   6.368 -0.2430 -3.4261  0.5410
  311MOL0     H41927   6.954   3.543   6.309  0.6076 -1.3613 -1.6990
  311MOL0     H41928   7.094   3.676   6.213 -1.6065 -2.7063 -1.1642
  311MOL0     H41929   6.973   3.730   6.098 -0.6837  2.2433  0.1632
  311MOL0     H41930   6.904   3.922   6.250  0.0404 -0.8787  1.0130
  311MOL0     H41931   7.000   3.863   6.381  0.1376  4.7046  1.0522
  311MOL0     H41932   7.212   3.910   6.228  1.2330  0.3084  1.0689
  311MOL0     H41933   7.126   4.028   6.322  0.2978 -0.5589  0.1679
  311MOL0     H41934   7.062   3.991   6.024  0.4533 -1.4288  1.8239
  311MOL0     H41935   6.984   4.101   6.135  0.3047 -0.0028  0.7931
  311MOL0     H41936   7.360   4.034   6.067 -1.3010 -0.8343  2.4096
  311MOL0     H41937   7.544   4.182   5.957  0.4506  0.7332 -2.8927
  311MOL0     H41938   7.493   4.333   5.883  0.5738 -0.8536 -1.5640
  311MOL0     H41939   7.571   4.328   6.170  2.8834  1.1732  0.9583
  311MOL0     H41940   7.684   4.369   6.040  0.0662 -1.0956  2.4214
  311MOL0     H41941   7.452   4.509   6.155 -0.2129 -1.2627 -0.1705
  311MOL0     H41942   7.500   4.564   5.995 -0.1351  1.9122  0.6180
  311MOL0     H41943   7.659   4.587   6.252 -2.8730 -0.0542  0.7159
  311MOL0     H41944   7.601   4.715   6.154  1.4814  0.2302  2.0914
  311MOL0     H41945   7.834   4.698   6.296  1.1590 -1.2210  0.0450
  311MOL0     H41946   8.034   4.729   6.379 -0.2114  0.7690  0.5083
  311MOL0     H41947   8.567   4.502   6.233  3.0998 -1.1360 -0.7260
  311MOL0     H41948   8.806   4.542   6.304 -0.4694 -0.4517  1.4391
  311MOL0     H41949   9.076   4.827   6.442 -0.3025 -0.4897  1.8664
  311MOL0     H41950   8.949   4.933   6.404 -0.7681 -0.0968  1.4468
  311MOL0     H41951   8.795   4.790   6.531  0.6247  1.1359 -0.1981
  311MOL0     H41952   8.946   4.705   6.597  1.6067  0.3213 -0.0463
  311MOL0     H41953   8.918   5.013   6.594  0.6355 -1.4607 -2.7712
  311MOL0     H41954   8.848   4.932   6.734 -0.5262  0.2079 -0.3035
  311MOL0     H41955   9.136   4.914   6.659 -0.8415  0.8912 -0.7143
  311MOL0     H41956   9.067   4.830   6.798 -0.8485  1.1327  1.6984
  311MOL0     H41957   8.993   5.008   6.915  0.2996  3.6257  1.9530
  311MOL0     H41958   9.043   5.128   6.799 -2.6782 -1.1871 -2.2146
  311MOL0     H41959   9.237   5.116   6.950 -1.7522 -1.2033  1.0003
  311MOL0     H41960   9.243   4.931   6.936  4.4071  0.3614  0.8464
  311MOL0     H41961   9.320   5.107   6.728 -0.5831 -1.5102 -1.8120
  311MOL0     H41962   9.328   4.930   6.722 -0.7496 -0.8757 -0.3582
  311MOL0     H41963   9.466   4.949   6.940  0.0028 -0.0503  0.2040
  311MOL0     H41964   9.533   4.962   6.774 -2.1336 -0.0015 -2.1537
  311MOL0     H41965   8.782   4.952   6.241 -0.8542  0.0562 -0.5088
  311MOL0     H41966   8.527   4.925   6.162 -1.1878 -0.6998 -0.2229
  311MOL0     H41967   8.201   4.599   5.983  0.1739  1.2390 -0.9286
  311MOL0     H41968   7.994   4.555   5.922 -0.1840 -0.5602  0.8763
  311MOL0     H41969   6.383   3.526   6.173  2.8747 -0.5058 -0.3759
  311MOL0     H41970   6.172   3.404   6.131 -0.6467  2.6050 -1.4238
  311MOL0     H41971   5.882   3.257   6.039 -2.0073  0.3384  0.1874
  311MOL0     H41972   5.654   3.204   6.043  0.1816 -0.4185 -0.1569
  311MOL0     H41973   5.447   3.226   5.996 -1.9143  0.7065 -1.0596
  311MOL0     H41974   5.458   3.052   6.015 -2.6017  0.5356  2.1296
  311MOL0     H41975   5.224   3.080   6.006 -3.6964  2.5001 -0.1738
  311MOL0     H41976   5.259   3.042   5.839 -2.1481 -1.2193  2.0880
  311MOL0     H41977   5.138   3.220   5.790  1.0024 -1.2563 -1.2294
  311MOL0     H41978   5.284   3.312   5.837 -0.3609 -1.6093 -1.6688
  311MOL0     H41979   5.084   3.244   6.054 -0.0749 -2.0383 -2.7569
  311MOL0     H41980   5.217   3.356   6.049  1.2131  0.1916  0.5515
  311MOL0     H41981   4.926   3.580   5.841 -0.2163 -1.1840 -2.0524
  311MOL0     H41982   5.649   3.119   5.638 -0.7099  4.7024 -0.4346
  311MOL0     H41983   6.019   3.182   5.563 -0.3346  2.4433 -2.6031
  311MOL0     H41984   5.880   3.085   5.521 -2.3203 -0.3437  0.9952
  311MOL0     H41985   5.874   3.261   5.518  0.5197  2.9166  3.3426
  312MOL0     O41986   0.635   3.858   1.965 -0.2755  0.4053  0.4302
  312MOL0     C41987   0.709   3.758   1.940  0.6104  0.1814 -0.3302
  312MOL0     O41988   0.818   3.758   1.861 -0.3252 -0.3279  0.2888
  312MOL0     C41989   0.878   3.877   1.834 -0.1073  0.8894 -0.4943
  312MOL0     C41990   0.988   3.924   1.908 -0.2296  0.2110 -0.3594
  312MOL0     C41991   1.060   4.040   1.876  0.1625 -0.2318 -0.4188
  312MOL0     C41992   1.033   4.109   1.761  0.2187  0.4668  0.4091
  312MOL0     O41993   1.102   4.213   1.705 -0.0151 -0.0430  0.3172
  312MOL0     C41994   1.245   4.198   1.698  0.2039 -0.1002  0.3092
  312MOL0     C41995   1.322   4.318   1.636 -0.1687  0.9501  0.1549
  312MOL0     C41996   1.452   4.268   1.574  0.0192 -0.4465 -0.3795
  312MOL0     C41997   1.542   4.385   1.528  0.3459 -0.1030  0.3409
  312MOL0     C41998   1.653   4.331   1.443  0.1512  0.1917  0.6345
  312MOL0     C41999   1.732   4.223   1.519 -0.2806 -0.1969  0.7177
  312MOL0     C42000   1.849   4.180   1.432 -0.4410  0.9787 -0.2605
  312MOL0     C42001   1.922   4.064   1.500 -0.6286  0.3049 -0.2013
  312MOL0     N42002   2.010   4.109   1.614 -0.2455 -0.3994 -0.0692
  312MOL0     C42003   2.130   4.167   1.592  0.3030  0.4579  0.5662
  312MOL0     C42004   2.190   4.173   1.712 -0.8379 -0.1210 -0.4573
  312MOL0     C42005   2.313   4.259   1.738  0.3459  0.0058 -0.3104
  312MOL0     C42006   2.431   4.178   1.783 -1.0417  0.0565  0.3714
  312MOL0     C42007   2.536   4.272   1.836 -0.5212 -0.3803 -0.1565
  312MOL0     C42008   2.671   4.218   1.833  0.5118  0.3775  0.3949
  312MOL0     O42009   2.764   4.321   1.874  0.1019  0.4364  0.5998
  312MOL0     C42010   2.900   4.302   1.853 -0.7630 -0.6212  0.0991
  312MOL0     C42011   2.962   4.186   1.802  0.4537 -0.2523 -0.4364
  312MOL0     C42012   3.096   4.178   1.795 -0.5928  0.3332 -0.3815
  312MOL0     C42013   3.182   4.290   1.810  0.2449  0.6713  0.1211
  312MOL0     C42014   3.323   4.268   1.828 -0.4052  0.3597 -0.8107
  312MOL0     O42015   3.376   4.153   1.772  0.5785  0.3409  0.1858
  312MOL0     C42016   3.509   4.140   1.792  0.1650  1.3298  0.2012
  312MOL0     C42017   3.570   4.108   1.913  1.1652 -0.0673  0.3335
  312MOL0     C42018   3.701   4.072   1.911  0.0655 -0.1874 -0.1102
  312MOL0     C42019   3.777   4.083   1.791 -0.1770 -0.3879  0.1446
  312MOL0     O42020   3.915   4.073   1.779 -0.4504  0.1782  0.2311
  312MOL0     C42021   3.985   4.018   1.885 -0.4649  0.2747  0.4693
  312MOL0     C42022   4.132   4.004   1.834 -0.7767  0.2878 -0.6921
  312MOL0     C42023   4.210   3.902   1.926  0.8548  0.1248 -0.1568
  312MOL0     C42024   4.365   3.905   1.912 -0.1556 -0.1165  0.0285
  312MOL0     C42025   4.411   3.852   1.775  0.0135  0.5426 -0.6985
  312MOL0     C42026   4.560   3.884   1.740 -0.1520 -0.4595 -0.5848
  312MOL0     C42027   4.652   3.854   1.864 -0.6821 -0.0515  0.5538
  312MOL0     C42028   4.802   3.820   1.826 -0.1887  0.2616  0.0523
  312MOL0    Cl42029   4.821   3.702   1.707  0.0084 -0.1664  0.1714
  312MOL0     C42030   3.715   4.122   1.674  0.8216  0.1600  0.0785
  312MOL0     C42031   3.572   4.139   1.666 -0.2216 -0.0780 -0.0430
  312MOL0     O42032   3.375   4.346   1.899 -0.3267  0.1721 -0.1478
  312MOL0     C42033   3.119   4.415   1.835 -0.5328 -0.2508 -0.3758
  312MOL0     C42034   2.978   4.416   1.863 -0.0829  0.1234  1.0965
  312MOL0     N42035   2.098   4.129   1.809 -0.7177 -0.9479  0.1498
  312MOL0     N42036   1.994   4.094   1.746  0.8503 -0.1035  0.2457
  312MOL0     C42037   0.929   4.049   1.677  0.9753 -0.6748 -0.4083
  312MOL0     C42038   0.847   3.941   1.717  0.1066 -0.2885  0.5415
  312MOL0     C42039   0.672   3.628   1.998 -0.1663 -0.6992  0.4648
  312MOL0     C42040   0.729   3.521   1.926 -0.2033  0.2747  1.3182
  312MOL0     C42041   0.692   3.392   1.965  1.0586 -0.4993  0.2142
  312MOL0     C42042   0.601   3.369   2.066  0.3895  0.0826  0.8347
  312MOL0     O42043   0.556   3.246   2.110  0.6548 -0.4047  0.7780
  312MOL0     C42044   0.593   3.125   2.029 -0.2070 -1.2653 -0.4850
  312MOL0     C42045   0.491   3.094   1.924 -0.7345  0.0378 -0.3233
  312MOL0     C42046   0.351   3.053   1.972  0.3025  0.1407  0.3165
  312MOL0     C42047   0.310   2.903   1.950  0.1145 -0.9761  0.2962
  312MOL0     C42048   0.165   2.888   1.966 -0.2241 -0.8716  0.4381
  312MOL0     C42049   0.045   2.876   1.981 -0.7575  0.2092 -0.9345
  312MOL0     C42050   0.548   3.479   2.129  0.4965 -0.7130  0.4375
  312MOL0     C42051   0.592   3.607   2.108  0.3056 -1.0322 -0.1752
  312MOL0     C42052   0.520   3.712   2.192 -0.3443  0.3458  0.9486
  312MOL0     H42053   1.013   3.861   1.993 -2.1149 -1.1656 -0.7515
  312MOL0     H42054   1.141   4.075   1.941 -0.0482 -1.3301  0.4565
  312MOL0     H42055   1.292   4.196   1.796  2.7077 -2.1580 -0.8225
  312MOL0     H42056   1.280   4.107   1.649  1.0038  0.0172  0.6483
  312MOL0     H42057   1.351   4.393   1.710  1.8871 -1.5024  2.0347
  312MOL0     H42058   1.255   4.364   1.562 -1.7173 -0.5070  0.6005
  312MOL0     H42059   1.426   4.201   1.492 -3.8220  1.4532 -0.9684
  312MOL0     H42060   1.517   4.217   1.646  0.4555  2.1343  1.1763
  312MOL0     H42061   1.481   4.452   1.467  1.3018 -0.3742 -0.9772
  312MOL0     H42062   1.585   4.435   1.615  1.8956 -1.7659  0.5919
  312MOL0     H42063   1.610   4.291   1.351 -3.1722  1.4538  1.4535
  312MOL0     H42064   1.708   4.419   1.410 -2.2643  0.7058 -2.4934
  312MOL0     H42065   1.770   4.272   1.610 -0.1204  1.6710 -0.3050
  312MOL0     H42066   1.675   4.132   1.540  2.2175 -1.5909  1.9186
  312MOL0     H42067   1.920   4.263   1.423  1.5671 -0.6877 -0.6218
  312MOL0     H42068   1.818   4.153   1.330  2.1229 -1.9858 -0.3935
  312MOL0     H42069   1.855   3.987   1.539 -1.4953  2.0644  2.0692
  312MOL0     H42070   1.989   4.018   1.426 -0.3833 -2.5185  1.5969
  312MOL0     H42071   2.166   4.203   1.496  0.7924 -1.3802  0.0196
  312MOL0     H42072   2.333   4.310   1.643  1.6585  0.9932  0.4582
  312MOL0     H42073   2.295   4.343   1.805  1.9609  1.6782 -1.8492
  312MOL0     H42074   2.402   4.109   1.863 -0.3521  0.1157  0.6774
  312MOL0     H42075   2.472   4.128   1.695 -2.7090  0.2405 -0.5555
  312MOL0     H42076   2.513   4.307   1.937 -0.9091 -0.8204 -0.0896
  312MOL0     H42077   2.548   4.358   1.769  1.0175  0.9293  1.6467
  312MOL0     H42078   2.700   4.179   1.735 -3.0098  3.2356 -2.0379
  312MOL0     H42079   2.673   4.138   1.907  3.5330 -0.1025 -0.0507
  312MOL0     H42080   2.900   4.097   1.804 -0.7103  0.5417  0.1408
  312MOL0     H42081   3.144   4.086   1.764  1.5997  1.9832 -2.1869
  312MOL0     H42082   3.502   4.108   1.997 -1.9532  0.0761 -2.0217
  312MOL0     H42083   3.751   4.042   2.002 -2.1700 -0.8053  0.9754
  312MOL0     H42084   3.990   4.088   1.969  1.0040  1.4680 -0.5577
  312MOL0     H42085   3.948   3.921   1.918  0.7148  0.8548  3.9106
  312MOL0     H42086   4.134   3.976   1.728 -0.1685 -2.9631  0.0956
  312MOL0     H42087   4.178   4.103   1.846  2.2400 -1.0333 -0.4196
  312MOL0     H42088   4.194   3.933   2.030 -1.2119  1.1713 -0.7398
  312MOL0     H42089   4.166   3.802   1.922 -1.1786  1.0016 -0.8685
  312MOL0     H42090   4.408   3.838   1.987  3.5197  0.9425 -0.9706
  312MOL0     H42091   4.409   4.005   1.920  2.6359 -1.3098  0.6822
  312MOL0     H42092   4.350   3.891   1.694  2.8943  0.5839 -3.0154
  312MOL0     H42093   4.398   3.743   1.778  1.7819  0.3045  1.5723
  312MOL0     H42094   4.591   3.828   1.651 -3.0159 -3.8391  0.3000
  312MOL0     H42095   4.565   3.991   1.714 -0.4077 -0.6856 -1.6232
  312MOL0     H42096   4.603   3.770   1.914 -0.5010 -0.1738  0.5259
  312MOL0     H42097   4.656   3.933   1.939  0.1459 -2.2901  3.0312
  312MOL0     H42098   4.847   3.913   1.789 -0.3253  0.1065 -0.5267
  312MOL0     H42099   4.854   3.785   1.915 -4.5425 -2.2834  1.9105
  312MOL0     H42100   3.775   4.139   1.585 -0.0235  2.5367 -0.1099
  312MOL0     H42101   3.500   4.167   1.590 -1.2195  1.3395  1.3767
  312MOL0     H42102   3.171   4.509   1.846 -1.3574  0.0618  1.1549
  312MOL0     H42103   2.926   4.510   1.880 -1.4252 -0.2066 -0.8193
  312MOL0     H42104   0.908   4.101   1.584 -2.1549  0.0164  0.5725
  312MOL0     H42105   0.772   3.896   1.653  1.7594 -0.4591 -1.3504
  312MOL0     H42106   0.799   3.524   1.842 -0.6618 -0.9785  0.8724
  312MOL0     H42107   0.719   3.307   1.903  0.6179  0.2786 -1.0771
  312MOL0     H42108   0.595   3.042   2.100  1.2956  0.3090  1.4102
  312MOL0     H42109   0.694   3.126   1.987 -0.3080 -0.1596 -0.7160
  312MOL0     H42110   0.529   3.019   1.855  0.2922 -1.1510  1.4485
  312MOL0     H42111   0.471   3.186   1.869  1.5829  1.9123  1.6906
  312MOL0     H42112   0.275   3.103   1.911 -0.0581 -1.1784 -0.3460
  312MOL0     H42113   0.335   3.078   2.077  0.4545  1.3653  0.0718
  312MOL0     H42114   0.323   2.888   1.842 -1.7195 -2.6541  0.2543
  312MOL0     H42115   0.368   2.841   2.018  2.1533  0.5425  0.0435
  312MOL0     H42116  -0.061   2.860   1.990 -0.8598  1.1365 -0.4181
  312MOL0     H42117   0.472   3.474   2.206 -0.0722  0.4665 -0.0426
  312MOL0     H42118   0.591   3.793   2.209  2.0933 -1.5421  0.3342
  312MOL0     H42119   0.436   3.749   2.132 -0.3757 -1.0094  0.1258
  312MOL0     H42120   0.481   3.672   2.285  0.8938  0.9747  1.7638
  313MOL0     O42121   1.837   6.546   0.040 -0.0288  0.0577 -0.2838
  313MOL0     C42122   1.780   6.593   0.141  0.3733  1.0045 -0.0720
  313MOL0     O42123   1.829   6.691   0.213 -0.3374  0.3220 -0.4037
  313MOL0     C42124   1.957   6.726   0.177 -0.0946  0.5353 -0.0541
  313MOL0     C42125   2.080   6.653   0.205 -0.6492 -0.3142 -0.0740
  313MOL0     C42126   2.199   6.722   0.180  0.1935  0.4626  0.8501
  313MOL0     C42127   2.210   6.849   0.113 -0.7660  0.1011 -0.0959
  313MOL0     O42128   2.329   6.919   0.094 -0.0812  0.2653 -0.1351
  313MOL0     C42129   2.446   6.845   0.051 -0.4897  0.3774 -0.1146
  313MOL0     C42130   2.544   6.927  -0.018  0.2821 -0.3824 -0.5081
  313MOL0     C42131   2.610   7.031   0.068 -0.2053  0.7121 -0.4438
  313MOL0     C42132   2.718   7.111   0.004 -0.6683  0.0210 -0.4126
  313MOL0     C42133   2.778   7.231   0.090  0.7299  0.2950 -0.3248
  313MOL0     C42134   2.896   7.302   0.017  0.2268 -0.6023  0.2968
  313MOL0     C42135   2.967   7.412   0.103 -0.1260  0.6569 -0.2607
  313MOL0     C42136   3.042   7.505   0.004 -1.1614 -0.1758 -0.2524
  313MOL0     N42137   3.167   7.442  -0.044 -0.2313  1.0674  0.4693
  313MOL0     C42138   3.278   7.432   0.040 -0.0639 -0.3127  0.0284
  313MOL0     C42139   3.378   7.389  -0.044  0.1706  0.5555 -0.0072
  313MOL0     C42140   3.526   7.370  -0.006 -0.2899 -0.9950  0.3335
  313MOL0     C42141   3.631   7.389  -0.111 -0.2933 -0.3113  0.0009
  313MOL0     C42142   3.632   7.526  -0.169 -0.3668 -0.3715 -0.2317
  313MOL0     C42143   3.764   7.550  -0.256  1.0967  0.5420 -0.8770
  313MOL0     O42144   3.892   7.550  -0.189 -0.4353 -0.1973  0.4190
  313MOL0     C42145   4.014   7.589  -0.247 -0.5003 -0.7758 -0.0481
  313MOL0     C42146   4.131   7.576  -0.167 -0.0040 -0.4294 -0.3388
  313MOL0     C42147   4.253   7.592  -0.220 -0.3197  0.2492  0.5464
  313MOL0     C42148   4.276   7.643  -0.355 -0.2355 -1.4108  0.2516
  313MOL0     C42149   4.415   7.679  -0.404 -0.1815 -0.1277 -0.3943
  313MOL0     O42150   4.441   7.664  -0.534 -0.3459  0.3357 -0.0997
  313MOL0     C42151   4.565   7.705  -0.575 -0.2938 -0.1739  1.0664
  313MOL0     C42152   4.656   7.617  -0.639  0.5307  0.7899 -0.0721
  313MOL0     C42153   4.790   7.666  -0.672  0.0576  0.3091 -0.0680
  313MOL0     C42154   4.828   7.797  -0.638  1.1871 -0.7153 -0.4523
  313MOL0     O42155   4.949   7.845  -0.659 -0.2781  0.2928 -0.0320
  313MOL0     C42156   5.009   7.851  -0.791 -0.2149  0.1098  0.9701
  313MOL0     C42157   5.159   7.833  -0.781 -0.3938 -0.2893 -0.6942
  313MOL0     C42158   5.229   7.835  -0.921  1.3610 -0.1397  0.0254
  313MOL0     C42159   5.382   7.871  -0.916 -0.2664 -0.0070 -0.1998
  313MOL0     C42160   5.460   7.758  -0.827  0.2176 -0.4288 -0.1763
  313MOL0     C42161   5.615   7.768  -0.816  0.0751  0.5084  0.0906
  313MOL0     C42162   5.667   7.649  -0.735 -0.1353 -0.1922 -0.4247
  313MOL0     C42163   5.810   7.686  -0.692  0.6440 -0.4527 -0.4496
  313MOL0    Cl42164   5.887   7.564  -0.587  0.4007 -0.1149  0.0631
  313MOL0     C42165   4.737   7.895  -0.591  0.0568  0.7350  0.0456
  313MOL0     C42166   4.607   7.843  -0.556 -0.1300  0.7056 -0.0245
  313MOL0     O42167   4.499   7.700  -0.320  0.2973 -0.7230 -0.0145
  313MOL0     C42168   4.159   7.674  -0.430 -0.2200 -0.4372  0.3334
  313MOL0     C42169   4.031   7.643  -0.376 -0.4719  0.4743  0.5656
  313MOL0     N42170   3.324   7.357  -0.167  0.1009 -0.2092  0.3742
  313MOL0     N42171   3.197   7.382  -0.164  0.2875 -0.0804  0.2584
  313MOL0     C42172   2.090   6.912   0.089  0.5582  0.6980  0.3627
  313MOL0     C42173   1.968   6.854   0.123  0.1069 -0.2738 -0.0942
  313MOL0     C42174   1.651   6.525   0.183  0.0811 -0.9103  0.0730
  313MOL0     C42175   1.593   6.581   0.304 -0.7327 -0.0843 -0.1078
  313MOL0     C42176   1.472   6.543   0.348 -0.2810  0.0103 -0.1500
  313MOL0     C42177   1.395   6.441   0.283 -1.0542 -0.2366 -0.0768
  313MOL0     O42178   1.285   6.386   0.331  0.7149  0.4226  0.4603
  313MOL0     C42179   1.230   6.425   0.456 -0.4168  0.4706 -0.1753
  313MOL0     C42180   1.098   6.358   0.465  1.0593 -0.6652  0.0842
  313MOL0     C42181   0.991   6.395   0.359 -0.3989 -0.3188  0.1804
  313MOL0     C42182   0.882   6.287   0.366  0.5769 -0.4917 -0.0472
  313MOL0     C42183   0.771   6.301   0.268  0.0923 -0.3737 -0.1499
  313MOL0     C42184   0.677   6.316   0.188 -0.0455 -0.2687 -0.4964
  313MOL0     C42185   1.456   6.383   0.171  0.4789 -0.2053  0.5323
  313MOL0     C42186   1.579   6.424   0.113 -1.1457  0.8854 -0.2653
  313MOL0     C42187   1.638   6.359  -0.013  0.0799 -0.5220 -0.1366
  313MOL0     H42188   2.074   6.554   0.249  0.3176 -0.0321  0.7310
  313MOL0     H42189   2.291   6.669   0.203  2.3955  2.9575 -1.3805
  313MOL0     H42190   2.497   6.792   0.132  0.3614  0.6165 -0.4897
  313MOL0     H42191   2.426   6.768  -0.025  0.8205 -1.2470  1.1175
  313MOL0     H42192   2.498   6.969  -0.108 -2.3059  0.0634  0.9325
  313MOL0     H42193   2.620   6.853  -0.043  0.1107 -0.5934 -0.4041
  313MOL0     H42194   2.651   6.988   0.160  0.9697  1.1351 -0.7466
  313MOL0     H42195   2.535   7.102   0.105 -0.4719  0.6468 -0.8624
  313MOL0     H42196   2.801   7.046  -0.025  0.2036  0.2133  1.4781
  313MOL0     H42197   2.673   7.159  -0.083 -1.7487  2.6149  1.4427
  313MOL0     H42198   2.695   7.294   0.122  0.9176  1.0109 -1.2205
  313MOL0     H42199   2.822   7.179   0.176  0.5856 -1.6956 -1.3939
  313MOL0     H42200   2.974   7.232  -0.014  0.4555  0.3228 -1.2772
  313MOL0     H42201   2.846   7.336  -0.074 -3.1925 -1.3435  1.7219
  313MOL0     H42202   3.037   7.365   0.173 -1.6373 -0.1393  0.7901
  313MOL0     H42203   2.885   7.462   0.156 -1.4192 -0.1724 -1.3985
  313MOL0     H42204   2.970   7.526  -0.075  0.2291 -0.3433 -1.6304
  313MOL0     H42205   3.080   7.594   0.055  2.4018 -1.5115 -0.2226
  313MOL0     H42206   3.291   7.476   0.139  0.3549  0.5118 -0.3874
  313MOL0     H42207   3.547   7.445   0.071  0.3910  0.0148 -0.7971
  313MOL0     H42208   3.542   7.273   0.042 -0.5993 -1.0673  0.2933
  313MOL0     H42209   3.733   7.389  -0.072 -0.3750  2.1505  0.3681
  313MOL0     H42210   3.621   7.311  -0.187  0.6006  0.1298 -0.5805
  313MOL0     H42211   3.649   7.598  -0.089  0.5574  1.2563 -1.8312
  313MOL0     H42212   3.536   7.542  -0.219 -0.8233 -2.0744  0.0337
  313MOL0     H42213   3.749   7.651  -0.296  1.0046 -0.2543 -2.9257
  313MOL0     H42214   3.771   7.484  -0.343  2.2061 -1.8903  0.9453
  313MOL0     H42215   4.123   7.523  -0.073  0.2261 -1.5742 -0.9340
  313MOL0     H42216   4.334   7.564  -0.154  1.3246 -2.3235 -2.3516
  313MOL0     H42217   4.641   7.510  -0.641 -1.5794  1.0572 -0.5360
  313MOL0     H42218   4.857   7.584  -0.695  1.1215  0.3370  2.5548
  313MOL0     H42219   4.964   7.782  -0.863 -0.5782  0.6045  0.7188
  313MOL0     H42220   4.990   7.948  -0.837 -1.1487 -1.2631 -1.8006
  313MOL0     H42221   5.207   7.920  -0.734  1.9310 -2.4582  1.2242
  313MOL0     H42222   5.185   7.746  -0.720 -1.5001  1.0856  1.8715
  313MOL0     H42223   5.217   7.739  -0.973 -0.1593 -0.5880  1.1545
  313MOL0     H42224   5.176   7.907  -0.985  0.1503  0.0771  1.2364
  313MOL0     H42225   5.402   7.969  -0.871 -1.1715  0.6976 -1.2600
  313MOL0     H42226   5.420   7.882  -1.018 -0.1086  0.6093 -0.0812
  313MOL0     H42227   5.435   7.663  -0.874 -3.4679  0.5420 -0.4986
  313MOL0     H42228   5.428   7.757  -0.722 -1.0124 -1.2594 -0.5319
  313MOL0     H42229   5.660   7.767  -0.916  0.6024 -2.6947  0.2449
  313MOL0     H42230   5.649   7.863  -0.774 -2.0468  2.2114 -1.7343
  313MOL0     H42231   5.667   7.558  -0.795  0.3703 -1.5945  1.6110
  313MOL0     H42232   5.596   7.635  -0.653  0.0045  3.0638  0.3958
  313MOL0     H42233   5.868   7.702  -0.783 -1.2871  3.2009 -1.2417
  313MOL0     H42234   5.810   7.777  -0.631  1.3306 -1.0273  0.4433
  313MOL0     H42235   4.774   7.995  -0.570  0.8480  0.0605  2.1703
  313MOL0     H42236   4.530   7.916  -0.532 -0.1420  0.5693  0.3518
  313MOL0     H42237   4.164   7.706  -0.534  3.7704 -0.7201  0.2700
  313MOL0     H42238   3.943   7.669  -0.433 -0.6702 -1.8413 -0.2812
  313MOL0     H42239   2.091   7.005   0.034 -2.9753 -0.8727 -2.8271
  313MOL0     H42240   1.877   6.911   0.111  0.2925  0.0887  0.2089
  313MOL0     H42241   1.640   6.652   0.371 -2.9988  1.1484  0.2600
  313MOL0     H42242   1.438   6.584   0.443  1.1615 -0.6700  0.6977
  313MOL0     H42243   1.218   6.534   0.466  0.5685  0.8733 -2.5706
  313MOL0     H42244   1.295   6.389   0.537  1.9168 -0.3804 -2.2979
  313MOL0     H42245   1.073   6.387   0.567  3.9139 -0.9073  0.9612
  313MOL0     H42246   1.126   6.252   0.465  2.6421 -0.2940 -1.3154
  313MOL0     H42247   1.044   6.407   0.265  0.6800  0.7663  0.8977
  313MOL0     H42248   0.941   6.492   0.368 -0.5388 -0.1824 -1.7125
  313MOL0     H42249   0.920   6.185   0.361  2.5979  0.2639 -1.0607
  313MOL0     H42250   0.830   6.292   0.462 -1.7799  0.6368 -1.2695
  313MOL0     H42251   0.614   6.338   0.103  2.6785  0.1975 -2.5133
  313MOL0     H42252   1.395   6.306   0.125  1.5440 -0.7482 -0.0058
  313MOL0     H42253   1.568   6.282  -0.048 -1.8155  0.9912  0.1137
  313MOL0     H42254   1.641   6.440  -0.086 -2.8338  0.6629  0.8977
  313MOL0     H42255   1.737   6.321   0.010 -0.5162 -1.1144  1.6070
  314MOL0     O42256   5.601  10.875   7.280 -0.3520  0.2745 -0.0744
  314MOL0     C42257   5.614  10.832   7.169 -0.4857 -0.2329 -0.3467
  314MOL0     O42258   5.719  10.859   7.091  0.3827  0.7548  0.3744
  314MOL0     C42259   5.825  10.922   7.150  0.0958 -0.1788  0.1961
  314MOL0     C42260   5.946  10.860   7.165 -0.3785 -0.3260  0.1352
  314MOL0     C42261   6.062  10.933   7.207 -0.3271  0.6336 -0.1730
  314MOL0     C42262   6.058  11.073   7.243  0.5267  0.0177  0.5199
  314MOL0     O42263   6.167  11.140   7.277 -0.5601 -0.2313 -0.4389
  314MOL0     C42264   6.161  11.254   7.354 -0.2897  0.3197  0.9211
  314MOL0     C42265   6.293  11.319   7.375 -0.8706 -0.4122  0.5049
  314MOL0     C42266   6.331  11.413   7.257  0.4797 -0.0321  0.0917
  314MOL0     C42267   6.468  11.475   7.285  0.3584  0.2508  0.3333
  314MOL0     C42268   6.524  11.532   7.162  0.1484 -0.5150  0.0032
  314MOL0     C42269   6.663  11.591   7.191 -0.6335  0.2287  0.5520
  314MOL0     C42270   6.697  11.681   7.072 -0.4687  0.0148  0.0591
  314MOL0     C42271   6.818  11.771   7.106 -0.3821 -0.2380  0.3367
  314MOL0     N42272   6.949  11.699   7.125  0.4761 -0.3536 -0.2020
  314MOL0     C42273   6.993  11.617   7.226  1.1555  0.5169  0.2270
  314MOL0     C42274   7.109  11.567   7.174  0.1183  0.2576  0.0301
  314MOL0     C42275   7.189  11.475   7.258 -0.1202  0.5468  0.3031
  314MOL0     C42276   7.273  11.550   7.365  0.0652  0.6002  0.3310
  314MOL0     C42277   7.372  11.461   7.447 -0.2216 -1.2612  0.2115
  314MOL0     C42278   7.486  11.383   7.377  1.3622  0.4414 -0.5372
  314MOL0     O42279   7.570  11.460   7.294  0.1908 -0.3157 -0.9196
  314MOL0     C42280   7.704  11.472   7.321  0.3371 -0.0025 -0.2586
  314MOL0     C42281   7.762  11.472   7.453  0.1805  0.1783 -0.2175
  314MOL0     C42282   7.895  11.509   7.473 -0.2466 -0.2070  0.0604
  314MOL0     C42283   7.984  11.521   7.362 -0.2313  0.9645  0.4913
  314MOL0     C42284   8.134  11.537   7.381  0.6215  0.0273 -0.9421
  314MOL0     O42285   8.209  11.568   7.281 -0.3274  0.6989  0.1085
  314MOL0     C42286   8.345  11.568   7.290  0.0407 -0.4220 -0.1798
  314MOL0     C42287   8.422  11.477   7.367 -0.5191  0.6797  0.0259
  314MOL0     C42288   8.561  11.478   7.364 -0.7595 -0.2171 -0.0162
  314MOL0     C42289   8.624  11.575   7.282  0.4918  0.2381  0.7583
  314MOL0     O42290   8.753  11.604   7.271 -1.0242 -0.3358  0.2180
  314MOL0     C42291   8.836  11.486   7.279 -0.2786 -0.8673  0.3080
  314MOL0     C42292   8.958  11.514   7.199  0.0335  0.0063  0.8375
  314MOL0     C42293   9.079  11.411   7.206  0.4390 -0.3236 -0.1754
  314MOL0     C42294   9.209  11.464   7.147  0.1742 -0.3536  0.5076
  314MOL0     C42295   9.213  11.446   6.990  0.5556 -0.5501 -0.0439
  314MOL0     C42296   9.234  11.298   6.950 -0.2878  0.1495 -0.1040
  314MOL0     C42297   9.273  11.266   6.803  0.5353 -0.4095  0.1056
  314MOL0     C42298   9.332  11.120   6.804  0.3938 -1.3386  1.0934
  314MOL0    Cl42299   9.504  11.126   6.830  0.0666 -0.3840 -0.2015
  314MOL0     C42300   8.545  11.641   7.187 -0.2470  0.3710 -0.0233
  314MOL0     C42301   8.409  11.644   7.194  0.0559 -0.5665  0.3297
  314MOL0     O42302   8.168  11.519   7.502  0.2033 -0.3443  0.4810
  314MOL0     C42303   7.931  11.516   7.236  0.8762  1.3278  0.7845
  314MOL0     C42304   7.792  11.506   7.217 -0.3102 -0.9313  0.4690
  314MOL0     N42305   7.140  11.615   7.054  0.0921  0.3102  0.0213
  314MOL0     N42306   7.043  11.691   7.029  0.4868  0.7536 -0.3729
  314MOL0     C42307   5.928  11.133   7.246 -0.0719  0.7315 -0.5737
  314MOL0     C42308   5.819  11.062   7.196  0.0164 -0.6163 -0.7276
  314MOL0     C42309   5.501  10.751   7.106 -0.4513 -0.3115 -0.3685
  314MOL0     C42310   5.535  10.644   7.019 -0.6971  0.4141 -0.5692
  314MOL0     C42311   5.436  10.557   6.967  0.4643  0.9685  0.8088
  314MOL0     C42312   5.300  10.579   6.995  0.6652 -0.2254  0.4387
  314MOL0     O42313   5.202  10.489   6.957  0.6939 -0.0909 -0.5908
  314MOL0     C42314   5.182  10.477   6.815  0.0183  0.2845  0.7312
  314MOL0     C42315   5.107  10.349   6.767  0.4568 -0.4678 -0.3592
  314MOL0     C42316   4.963  10.344   6.828 -0.1039 -0.6192  0.3989
  314MOL0     C42317   4.840  10.411   6.765  0.0527 -0.0599 -0.2453
  314MOL0     C42318   4.717  10.369   6.841 -0.3063  0.0064  0.0286
  314MOL0     C42319   4.617  10.325   6.903  0.1834 -0.5350 -0.4356
  314MOL0     C42320   5.268  10.689   7.070 -0.4857 -0.5116 -0.0811
  314MOL0     C42321   5.363  10.785   7.119  0.7281  0.0818 -0.0756
  314MOL0     C42322   5.318  10.904   7.195  0.5074  0.1229  0.0685
  314MOL0     H42323   5.948  10.754   7.139 -1.2537  0.0304 -1.5447
  314MOL0     H42324   6.161  10.890   7.198 -1.0093 -0.6954 -1.9866
  314MOL0     H42325   6.099  11.340   7.328 -3.7773 -1.7251  1.8261
  314MOL0     H42326   6.122  11.209   7.446 -1.6118 -4.1520 -1.5067
  314MOL0     H42327   6.371  11.243   7.376 -0.7970 -0.3640 -0.6743
  314MOL0     H42328   6.282  11.377   7.467  0.6025  1.4364 -0.4065
  314MOL0     H42329   6.257  11.492   7.240  0.3532  0.2064  1.5932
  314MOL0     H42330   6.329  11.357   7.163 -2.6100 -2.3123  1.3178
  314MOL0     H42331   6.460  11.542   7.372  2.7327  1.3957 -0.2322
  314MOL0     H42332   6.529  11.392   7.320 -1.3633 -1.0634  0.3384
  314MOL0     H42333   6.517  11.465   7.076 -2.6201 -1.0435  0.5449
  314MOL0     H42334   6.454  11.614   7.144  0.5501 -0.1963 -0.1189
  314MOL0     H42335   6.661  11.648   7.285  1.9916  2.2887 -0.5116
  314MOL0     H42336   6.736  11.511   7.208  0.9565  1.2374 -1.1752
  314MOL0     H42337   6.609  11.743   7.051 -1.4187 -0.7570  1.5844
  314MOL0     H42338   6.708  11.613   6.987  0.3228 -1.9443  1.6601
  314MOL0     H42339   6.825  11.840   7.021 -3.6905  1.5820  1.3833
  314MOL0     H42340   6.803  11.830   7.197 -2.6730 -0.3755  0.1018
  314MOL0     H42341   6.933  11.587   7.312  1.1320 -3.5360 -1.0038
  314MOL0     H42342   7.129  11.403   7.315 -1.7488 -0.2383 -2.2608
  314MOL0     H42343   7.245  11.415   7.185 -0.0396  3.0502 -1.8173
  314MOL0     H42344   7.337  11.624   7.317 -0.1630  0.9264  0.5344
  314MOL0     H42345   7.216  11.607   7.438  0.0905  1.1023 -0.0389
  314MOL0     H42346   7.313  11.401   7.516  1.3948  1.6225  4.4986
  314MOL0     H42347   7.422  11.528   7.517 -1.1690  2.6920 -2.4970
  314MOL0     H42348   7.427  11.317   7.312 -1.2080  0.9452  1.1410
  314MOL0     H42349   7.536  11.321   7.452 -1.8802 -3.8585 -1.5159
  314MOL0     H42350   7.695  11.468   7.539 -0.0939  2.4516 -0.2636
  314MOL0     H42351   7.932  11.535   7.572  0.8117 -1.3226 -0.0254
  314MOL0     H42352   8.369  11.409   7.433 -1.4585  2.8191  1.6003
  314MOL0     H42353   8.612  11.414   7.435 -3.0397  0.1660  2.1005
  314MOL0     H42354   8.869  11.459   7.380 -0.9591  0.6230  0.9717
  314MOL0     H42355   8.781  11.399   7.244 -3.4345  0.3093  1.9120
  314MOL0     H42356   8.923  11.512   7.095 -2.8649  0.7347  1.6900
  314MOL0     H42357   8.988  11.616   7.223  2.8854 -0.6076  0.1980
  314MOL0     H42358   9.108  11.387   7.309  0.6152 -1.1198 -0.4031
  314MOL0     H42359   9.043  11.314   7.170 -0.1807 -0.0525 -0.3043
  314MOL0     H42360   9.290  11.417   7.202  0.6960 -1.7163 -1.3322
  314MOL0     H42361   9.199  11.571   7.170 -1.8722 -0.4554  0.2788
  314MOL0     H42362   9.304  11.502   6.965  1.8679 -2.5956 -0.0378
  314MOL0     H42363   9.121  11.486   6.945  0.5642  3.2206  2.7672
  314MOL0     H42364   9.306  11.244   7.012 -2.3443 -1.4246  1.0472
  314MOL0     H42365   9.142  11.249   6.981  0.5851 -0.5527  1.5183
  314MOL0     H42366   9.351  11.333   6.767  0.2955 -1.1993 -1.9952
  314MOL0     H42367   9.180  11.273   6.746  2.0376  3.5010 -2.2880
  314MOL0     H42368   9.270  11.065   6.875 -1.8040  0.8547  0.9964
  314MOL0     H42369   9.310  11.072   6.708  2.5886 -2.7713  1.2228
  314MOL0     H42370   8.602  11.681   7.104 -0.0937 -1.5448 -0.9013
  314MOL0     H42371   8.358  11.711   7.125  2.4729  1.2848  0.2057
  314MOL0     H42372   7.980  11.536   7.141  0.1781 -1.6126 -0.3067
  314MOL0     H42373   7.743  11.511   7.120 -1.1175  2.4617  0.9233
  314MOL0     H42374   5.916  11.240   7.256 -2.0539  0.4699  0.4556
  314MOL0     H42375   5.726  11.116   7.188  0.5117  0.6421  1.2065
  314MOL0     H42376   5.641  10.624   7.004 -0.5648  0.8377 -0.2213
  314MOL0     H42377   5.473  10.474   6.907  2.0620  1.7285  0.6767
  314MOL0     H42378   5.279  10.488   6.767  0.0253  0.1371  0.7083
  314MOL0     H42379   5.123  10.563   6.781  1.3336  1.9964  2.5877
  314MOL0     H42380   5.167  10.268   6.807 -1.3730 -2.2791 -1.0878
  314MOL0     H42381   5.096  10.338   6.659  1.5787  1.9528 -0.7817
  314MOL0     H42382   4.975  10.377   6.932 -0.8130 -2.3995  1.0966
  314MOL0     H42383   4.948  10.238   6.852 -0.3690 -0.1101  2.7316
  314MOL0     H42384   4.844  10.520   6.769 -0.6387  0.0561 -2.0165
  314MOL0     H42385   4.810  10.383   6.664 -5.1291  1.0356  0.6907
  314MOL0     H42386   4.525  10.303   6.954  1.4219  1.0436  2.7570
  314MOL0     H42387   5.167  10.717   7.100  0.4173  1.9518  0.9297
  314MOL0     H42388   5.379  10.993   7.176  0.1458  0.2295 -0.6086
  314MOL0     H42389   5.217  10.930   7.164 -0.9947 -0.3673  3.9241
  314MOL0     H42390   5.313  10.883   7.302 -1.7397 -1.6797 -0.3085
  315MOL0     O42391   0.004   4.024   4.740 -0.0793  0.6670 -0.5597
  315MOL0     C42392  -0.107   4.079   4.749  0.1944 -0.7107 -0.2247
  315MOL0     O42393  -0.154   4.136   4.863  0.7203 -0.2153  0.4677
  315MOL0     C42394  -0.096   4.150   4.985  0.4294 -0.4574 -0.4594
  315MOL0     C42395   0.030   4.194   5.009 -0.1357 -1.1667  0.1177
  315MOL0     C42396   0.086   4.204   5.138 -0.5612  0.5854 -0.2474
  315MOL0     C42397   0.004   4.194   5.246 -0.4291  1.5812  0.1935
  315MOL0     O42398   0.054   4.211   5.374  0.6241 -0.9247 -0.6836
  315MOL0     C42399   0.002   4.127   5.478 -0.2160 -0.4562 -1.4818
  315MOL0     C42400   0.105   4.151   5.601  0.6602 -0.2476 -0.1468
  315MOL0     C42401   0.242   4.076   5.598 -0.0639  0.4238 -0.5608
  315MOL0     C42402   0.352   4.139   5.696 -0.5165 -0.8662  0.1348
  315MOL0     C42403   0.474   4.054   5.679 -0.2459 -0.0195  0.4109
  315MOL0     C42404   0.584   4.076   5.785 -0.3544  0.9960 -0.6415
  315MOL0     C42405   0.643   4.215   5.792  0.3206  0.5054  0.0197
  315MOL0     C42406   0.746   4.239   5.904  0.1958 -1.0784  0.3906
  315MOL0     N42407   0.867   4.154   5.889 -0.4721 -0.2467  0.3115
  315MOL0     C42408   0.880   4.029   5.944 -0.1814  0.3686 -0.1545
  315MOL0     C42409   1.004   3.997   5.902  0.1450 -0.3415  0.1854
  315MOL0     C42410   1.062   3.871   5.951  0.0633 -0.6696 -0.0903
  315MOL0     C42411   1.202   3.896   6.004 -0.4056  0.3344  0.2274
  315MOL0     C42412   1.276   3.763   6.044  0.4544  0.4448  0.3797
  315MOL0     C42413   1.419   3.793   6.086 -0.6634 -0.5027  1.5381
  315MOL0     O42414   1.419   3.876   6.199 -0.5107 -0.4872  0.2608
  315MOL0     C42415   1.546   3.916   6.256  0.5033 -0.1199 -0.3935
  315MOL0     C42416   1.543   3.978   6.380 -0.1897  0.7113  0.1322
  315MOL0     C42417   1.659   4.013   6.448 -0.3318 -0.5054  0.6806
  315MOL0     C42418   1.781   3.966   6.395 -0.7396 -0.2485 -0.6447
  315MOL0     C42419   1.905   3.984   6.468 -0.1869 -0.3222 -0.2573
  315MOL0     O42420   2.013   4.021   6.392  0.1664 -0.1178 -0.5997
  315MOL0     C42421   2.131   4.068   6.445  0.1185 -0.0834 -0.2864
  315MOL0     C42422   2.213   4.149   6.366  0.6871 -0.1693 -0.5797
  315MOL0     C42423   2.346   4.181   6.413  0.2235  0.3190 -0.6297
  315MOL0     C42424   2.380   4.143   6.538  0.4246  0.6393  0.3675
  315MOL0     O42425   2.510   4.173   6.567  0.3785  0.0351 -0.4656
  315MOL0     C42426   2.521   4.216   6.705  0.1913  0.1493  0.6611
  315MOL0     C42427   2.670   4.254   6.731  0.6621  0.4451  0.3315
  315MOL0     C42428   2.704   4.395   6.689 -0.3459  0.1150  0.1392
  315MOL0     C42429   2.856   4.423   6.702  0.2723 -0.0602  0.7607
  315MOL0     C42430   2.901   4.535   6.794  0.1789  0.9798  0.5105
  315MOL0     C42431   3.052   4.564   6.795  0.5986  0.3367 -0.1843
  315MOL0     C42432   3.110   4.636   6.673 -0.0355 -0.1521  0.3029
  315MOL0     C42433   3.266   4.630   6.658  0.8694  0.5383  0.3017
  315MOL0    Cl42434   3.326   4.466   6.609 -0.3298  0.0577  0.0834
  315MOL0     C42435   2.292   4.067   6.621 -0.9867 -1.1259 -0.2569
  315MOL0     C42436   2.171   4.035   6.573 -0.8446 -0.1638 -0.6455
  315MOL0     O42437   1.902   3.961   6.585 -0.5621  0.3073 -0.1521
  315MOL0     C42438   1.784   3.914   6.263 -0.5935 -0.5174  0.4705
  315MOL0     C42439   1.670   3.891   6.196 -0.1050  0.2244 -0.0155
  315MOL0     N42440   1.064   4.092   5.821  0.8611 -0.2290 -0.5112
  315MOL0     N42441   0.975   4.184   5.804 -0.1143  0.0277 -0.3134
  315MOL0     C42442  -0.127   4.151   5.223  0.3564 -0.3533 -0.3681
  315MOL0     C42443  -0.175   4.116   5.097 -0.2397  0.0177  0.2468
  315MOL0     C42444  -0.200   4.081   4.631  0.5722 -0.2805  0.0720
  315MOL0     C42445  -0.330   4.126   4.663 -0.2151  0.0031 -0.3609
  315MOL0     C42446  -0.438   4.135   4.574  0.1391  0.0776 -0.9481
  315MOL0     C42447  -0.410   4.110   4.436 -0.0526  0.7127 -0.3207
  315MOL0     O42448  -0.491   4.106   4.332 -0.0952  0.5475 -0.1623
  315MOL0     C42449  -0.624   4.152   4.363  0.4038  0.2031 -0.6186
  315MOL0     C42450  -0.706   4.155   4.238  0.6296  0.6921 -0.4379
  315MOL0     C42451  -0.670   4.275   4.155  0.1456 -0.1820  0.1164
  315MOL0     C42452  -0.785   4.328   4.081 -0.5788  0.3024 -0.5549
  315MOL0     C42453  -0.865   4.230   4.004  0.5898 -1.1253 -0.4762
  315MOL0     C42454  -0.932   4.153   3.946  0.4264  0.3498 -0.4181
  315MOL0     C42455  -0.274   4.072   4.401 -0.2567  0.0446  0.6114
  315MOL0     C42456  -0.168   4.059   4.491  0.6151 -0.2032 -0.1819
  315MOL0     C42457  -0.026   4.032   4.452  0.8787 -0.2290 -0.0845
  315MOL0     H42458   0.092   4.234   4.929  2.4169 -1.6530  1.7239
  315MOL0     H42459   0.189   4.233   5.156 -0.8206  2.0216 -0.9944
  315MOL0     H42460  -0.091   4.170   5.519  0.5383  0.1751 -0.3706
  315MOL0     H42461   0.002   4.022   5.447 -0.4294 -0.6849 -0.7409
  315MOL0     H42462   0.053   4.117   5.691  1.3906 -0.2619  0.2808
  315MOL0     H42463   0.114   4.260   5.602  0.2955 -0.2019 -1.2254
  315MOL0     H42464   0.284   4.068   5.497  0.8114  2.1273 -0.3809
  315MOL0     H42465   0.211   3.973   5.616  2.2171 -0.2523 -0.0839
  315MOL0     H42466   0.352   4.245   5.670  0.3123 -0.9424 -0.1848
  315MOL0     H42467   0.321   4.135   5.801 -3.7543  0.1033 -0.6615
  315MOL0     H42468   0.444   3.950   5.694  0.6187 -1.3978 -5.2381
  315MOL0     H42469   0.509   4.062   5.576  0.2924 -3.2604  0.2654
  315MOL0     H42470   0.538   4.049   5.881 -2.7187  0.4910 -1.8667
  315MOL0     H42471   0.661   4.005   5.754  0.0429  1.1497 -0.0496
  315MOL0     H42472   0.562   4.287   5.806 -1.4439 -1.0324 -1.7664
  315MOL0     H42473   0.699   4.234   5.700 -1.3749 -0.5467 -1.3023
  315MOL0     H42474   0.768   4.346   5.901 -2.7768 -0.3917 -1.4587
  315MOL0     H42475   0.705   4.219   6.003 -2.6226 -1.3728 -0.7453
  315MOL0     H42476   0.820   3.963   6.006  1.5654 -1.2870 -0.1297
  315MOL0     H42477   1.006   3.828   6.035 -2.3651  0.0440 -1.2862
  315MOL0     H42478   1.063   3.813   5.858 -4.1285  0.0584 -0.7863
  315MOL0     H42479   1.255   3.942   5.920 -0.1568 -0.0291  0.1790
  315MOL0     H42480   1.188   3.975   6.079  2.7109 -1.5938  3.1362
  315MOL0     H42481   1.270   3.689   5.964 -0.9786 -0.5790  1.3683
  315MOL0     H42482   1.219   3.727   6.130 -0.2417  0.5546 -0.0269
  315MOL0     H42483   1.468   3.844   6.003 -2.1587 -0.0764  0.9081
  315MOL0     H42484   1.477   3.702   6.107  1.8516  0.6720  0.2003
  315MOL0     H42485   1.448   4.005   6.425 -1.6149 -1.9144 -1.0985
  315MOL0     H42486   1.657   4.056   6.547 -4.4856 -1.1115  1.0321
  315MOL0     H42487   2.173   4.181   6.270  1.1121  2.0803 -0.0869
  315MOL0     H42488   2.417   4.242   6.357  0.8057 -1.8693 -2.4102
  315MOL0     H42489   2.461   4.306   6.723 -0.9293 -0.2569 -0.7968
  315MOL0     H42490   2.491   4.138   6.776 -0.6170 -1.2820 -1.1566
  315MOL0     H42491   2.702   4.256   6.836  1.6630 -0.3440  0.0492
  315MOL0     H42492   2.736   4.178   6.690  2.9306  3.1311 -1.4186
  315MOL0     H42493   2.665   4.415   6.588 -1.4123 -0.8946  0.3311
  315MOL0     H42494   2.652   4.460   6.758 -1.5150 -0.3095 -0.3165
  315MOL0     H42495   2.888   4.452   6.602 -0.9295 -1.6313 -0.1326
  315MOL0     H42496   2.913   4.330   6.705 -2.3028 -1.8065 -0.3952
  315MOL0     H42497   2.872   4.513   6.898 -2.0274 -0.1785 -0.2863
  315MOL0     H42498   2.844   4.624   6.764 -2.7603 -1.3982 -1.5259
  315MOL0     H42499   3.065   4.629   6.882  1.6152  0.3698 -0.3472
  315MOL0     H42500   3.105   4.471   6.814  0.8998  0.3394 -0.9723
  315MOL0     H42501   3.091   4.743   6.686  0.1233 -0.2252  1.2159
  315MOL0     H42502   3.063   4.602   6.580  0.7146  1.0890 -0.5641
  315MOL0     H42503   3.275   4.688   6.566 -1.6697 -1.0164 -1.0627
  315MOL0     H42504   3.311   4.676   6.746 -0.1317  1.3934  0.3812
  315MOL0     H42505   2.316   4.030   6.720 -1.8976  0.9500  0.8183
  315MOL0     H42506   2.126   3.958   6.636  1.3269 -1.6933 -0.8360
  315MOL0     H42507   1.875   3.886   6.211 -1.3486 -1.1514 -0.5593
  315MOL0     H42508   1.675   3.838   6.101 -1.4832 -1.0332  0.5692
  315MOL0     H42509  -0.200   4.145   5.303  0.2167  0.7108 -0.4041
  315MOL0     H42510  -0.275   4.076   5.079  1.5046 -4.0051 -1.7330
  315MOL0     H42511  -0.366   4.137   4.765 -0.4863 -5.8202  0.5075
  315MOL0     H42512  -0.533   4.161   4.618  0.1859  1.5597 -1.6256
  315MOL0     H42513  -0.615   4.252   4.405  1.6883  0.3584 -1.2284
  315MOL0     H42514  -0.663   4.087   4.442  4.4629 -1.8458 -0.0176
  315MOL0     H42515  -0.807   4.163   4.280  0.4685  1.0998 -0.8865
  315MOL0     H42516  -0.709   4.066   4.174 -0.9166 -0.1364  0.7153
  315MOL0     H42517  -0.593   4.264   4.078 -2.7599 -1.3128 -2.8745
  315MOL0     H42518  -0.648   4.362   4.218 -2.9424  2.1129 -1.7136
  315MOL0     H42519  -0.846   4.376   4.158  2.8429 -1.3734  3.5869
  315MOL0     H42520  -0.749   4.397   4.004  1.6753 -1.5034 -1.2623
  315MOL0     H42521  -0.993   4.086   3.889  0.3881 -2.3959  2.5825
  315MOL0     H42522  -0.255   4.062   4.295 -2.2484  0.6429  0.1572
  315MOL0     H42523  -0.015   4.021   4.344 -0.9905 -5.5846 -0.0485
  315MOL0     H42524   0.041   4.112   4.485 -0.6925  2.0387 -2.0503
  315MOL0     H42525   0.008   3.939   4.497  0.6023  0.0527  0.7427
  316MOL0     O42526  11.127   6.061   8.332  0.1510  0.3975  0.6177
  316MOL0     C42527  11.144   6.067   8.206  0.0656  0.3552 -0.5630
  316MOL0     O42528  11.221   6.158   8.140 -0.2215 -0.4845  0.1398
  316MOL0     C42529  11.303   6.236   8.217 -0.6861  0.9434  0.0081
  316MOL0     C42530  11.409   6.161   8.286  0.4364 -0.0839 -0.7693
  316MOL0     C42531  11.510   6.233   8.356 -0.1351 -0.0798  0.6057
  316MOL0     C42532  11.495   6.374   8.374 -0.0569 -0.2745  0.1277
  316MOL0     O42533  11.579   6.450   8.459 -0.4246  0.2524 -0.2921
  316MOL0     C42534  11.594   6.398   8.595 -0.1587  0.6129 -0.0075
  316MOL0     C42535  11.668   6.480   8.687  0.7593 -0.3992 -0.4841
  316MOL0     C42536  11.817   6.492   8.644 -0.6010 -0.7764  0.7684
  316MOL0     C42537  11.903   6.601   8.711  1.0085  0.1938  0.7438
  316MOL0     C42538  11.949   6.558   8.847 -0.3285 -0.4767  1.1957
  316MOL0     C42539  11.986   6.686   8.924  1.4600  0.1216  0.6370
  316MOL0     C42540  12.080   6.653   9.039 -1.1600  0.4449 -0.2886
  316MOL0     C42541  12.132   6.769   9.125  0.1815 -1.4241 -0.6026
  316MOL0     N42542  12.035   6.803   9.227  0.3162  0.3211 -0.4060
  316MOL0     C42543  11.921   6.877   9.204  0.9217  0.0399  0.1660
  316MOL0     C42544  11.850   6.871   9.318 -0.4711  0.3566 -1.1292
  316MOL0     C42545  11.706   6.926   9.352 -0.3286 -0.4231  0.6441
  316MOL0     C42546  11.615   6.938   9.231 -0.3695  0.4420 -0.1091
  316MOL0     C42547  11.485   7.007   9.274  1.0921 -0.0581 -0.8172
  316MOL0     C42548  11.376   6.904   9.312  0.1916  1.0359  0.4515
  316MOL0     O42549  11.258   6.978   9.330  0.4672 -0.5103 -0.1734
  316MOL0     C42550  11.142   6.903   9.304  0.1547  0.2294  0.0317
  316MOL0     C42551  11.050   6.949   9.212  0.4574 -0.4315  0.5761
  316MOL0     C42552  10.946   6.867   9.169 -0.4326  0.6416  0.2889
  316MOL0     C42553  10.911   6.753   9.238 -0.2942  0.5178 -0.6931
  316MOL0     C42554  10.791   6.676   9.197  0.6013 -0.4929 -0.5395
  316MOL0     O42555  10.708   6.744   9.112  0.1950 -0.3123  1.0895
  316MOL0     C42556  10.585   6.713   9.068  1.7079  0.2506  0.4219
  316MOL0     C42557  10.519   6.805   8.983  0.7696  0.1602 -0.7409
  316MOL0     C42558  10.393   6.786   8.938 -0.0615  0.1679 -0.4472
  316MOL0     C42559  10.320   6.676   8.982  0.2704 -0.3629  0.2645
  316MOL0     O42560  10.188   6.644   8.952 -0.0853 -0.5369 -0.2917
  316MOL0     C42561  10.100   6.769   8.958 -1.7256 -0.2276  0.3334
  316MOL0     C42562   9.955   6.729   8.936 -0.1215 -0.2375 -0.2200
  316MOL0     C42563   9.884   6.698   9.076 -0.7486  0.4485  0.8091
  316MOL0     C42564   9.847   6.827   9.156  0.0426 -0.4720  0.1247
  316MOL0     C42565   9.859   6.800   9.306  1.0591  0.7139  0.3921
  316MOL0     C42566   9.739   6.711   9.350 -0.4158  0.6948 -0.2754
  316MOL0     C42567   9.732   6.723   9.503 -0.6305  0.6031 -0.2495
  316MOL0     C42568   9.641   6.617   9.565 -0.6109 -0.4808  0.5741
  316MOL0    Cl42569   9.666   6.625   9.746 -0.3051  0.2365 -0.0003
  316MOL0     C42570  10.382   6.576   9.061 -0.0563 -0.7025  0.7890
  316MOL0     C42571  10.506   6.597   9.104 -0.5834  0.0178 -0.0930
  316MOL0     O42572  10.767   6.571   9.261 -0.2668  0.2207  0.1466
  316MOL0     C42573  10.993   6.711   9.345 -1.0403  0.4818 -0.4244
  316MOL0     C42574  11.123   6.773   9.368  0.8030  0.5772 -0.9923
  316MOL0     N42575  11.926   6.790   9.407 -0.0190 -0.5735 -0.1271
  316MOL0     N42576  12.030   6.748   9.351  0.8775 -0.3153  0.1378
  316MOL0     C42577  11.396   6.448   8.302 -0.0532 -0.5525 -0.4625
  316MOL0     C42578  11.300   6.377   8.225  0.1635  0.9342  0.6865
  316MOL0     C42579  11.070   5.976   8.108  0.8369  1.2033 -0.1355
  316MOL0     C42580  11.080   5.998   7.970  0.7641 -0.8161 -0.4633
  316MOL0     C42581  11.012   5.918   7.874 -0.3459 -0.0735  0.0679
  316MOL0     C42582  10.935   5.808   7.910 -0.7442  1.1337 -0.3325
  316MOL0     O42583  10.866   5.727   7.825 -0.4679 -0.1440 -0.1272
  316MOL0     C42584  10.845   5.776   7.688 -0.1248  0.0959  0.1274
  316MOL0     C42585  10.746   5.681   7.614  0.6178  0.4284  0.1958
  316MOL0     C42586  10.599   5.685   7.660  0.2890 -1.0258 -0.7586
  316MOL0     C42587  10.496   5.607   7.582 -0.0599  0.2433  0.4547
  316MOL0     C42588  10.551   5.477   7.551 -0.4830  0.2821 -0.5465
  316MOL0     C42589  10.575   5.365   7.523  1.0375 -0.4238  0.2519
  316MOL0     C42590  10.917   5.788   8.047  0.4507 -0.6637  0.4257
  316MOL0     C42591  10.986   5.863   8.145 -0.3562 -0.0726  0.2840
  316MOL0     C42592  10.954   5.819   8.286 -0.4886  0.1333 -0.2879
  316MOL0     H42593  11.417   6.053   8.278 -2.9890 -0.5095  0.1278
  316MOL0     H42594  11.585   6.174   8.407 -0.1249 -1.6108 -1.0628
  316MOL0     H42595  11.492   6.381   8.632 -0.7160 -3.5747 -2.7762
  316MOL0     H42596  11.642   6.301   8.579 -0.8772  0.4275 -1.1507
  316MOL0     H42597  11.650   6.444   8.789 -0.9180  1.3763 -0.1128
  316MOL0     H42598  11.614   6.574   8.688 -1.4257 -1.5033  2.7156
  316MOL0     H42599  11.831   6.514   8.538 -1.8237 -0.2404  0.6962
  316MOL0     H42600  11.867   6.398   8.667  0.9329  0.0762  1.0368
  316MOL0     H42601  11.982   6.626   8.640  0.8670  0.2023  0.5876
  316MOL0     H42602  11.850   6.696   8.725 -0.2296 -0.3288 -0.1610
  316MOL0     H42603  11.865   6.502   8.889 -0.4686 -1.0251  0.2117
  316MOL0     H42604  12.032   6.491   8.825 -0.8328 -0.0764 -2.7372
  316MOL0     H42605  12.044   6.757   8.863 -1.4651  1.2966 -0.9780
  316MOL0     H42606  11.896   6.744   8.945  0.4602 -0.4919 -1.5835
  316MOL0     H42607  12.169   6.605   8.997 -1.4334 -0.1075 -0.2467
  316MOL0     H42608  12.038   6.579   9.108  0.1684  0.0004  0.0781
  316MOL0     H42609  12.226   6.740   9.174  1.0200 -0.6653 -1.7027
  316MOL0     H42610  12.151   6.864   9.074  4.2806 -0.5515  2.0227
  316MOL0     H42611  11.876   6.926   9.118  1.5312 -1.2334 -0.9315
  316MOL0     H42612  11.652   6.866   9.426  0.1445  0.5974  1.8500
  316MOL0     H42613  11.734   7.018   9.405 -0.9407 -1.0594  2.1368
  316MOL0     H42614  11.666   7.007   9.163  2.8068 -0.5957  1.0462
  316MOL0     H42615  11.601   6.842   9.180  1.3787 -1.6111  2.9241
  316MOL0     H42616  11.446   7.057   9.185 -0.3666  2.1265  0.9473
  316MOL0     H42617  11.493   7.078   9.357  0.6090  2.6091 -2.9090
  316MOL0     H42618  11.402   6.842   9.399 -2.7162  1.1851  1.5432
  316MOL0     H42619  11.374   6.838   9.224 -3.4981  0.3725  0.8675
  316MOL0     H42620  11.054   7.043   9.157  2.1286 -0.7278  0.1284
  316MOL0     H42621  10.883   6.906   9.090 -0.1429  1.3360  0.3970
  316MOL0     H42622  10.576   6.890   8.949  0.5451  1.1988  1.3145
  316MOL0     H42623  10.352   6.852   8.861 -0.5428  0.7282  0.2770
  316MOL0     H42624  10.119   6.810   9.058  0.1221 -2.3818  0.9551
  316MOL0     H42625  10.136   6.839   8.882 -2.2715  1.0674  1.2142
  316MOL0     H42626   9.903   6.818   8.900 -0.5403  1.1048  3.2958
  316MOL0     H42627   9.942   6.645   8.868 -0.0704  0.5124 -1.1619
  316MOL0     H42628   9.796   6.633   9.066  0.3720 -1.0724  0.4971
  316MOL0     H42629   9.954   6.638   9.134 -0.4116 -0.7622 -0.7965
  316MOL0     H42630   9.753   6.873   9.122 -0.3259 -1.4524 -0.2025
  316MOL0     H42631   9.918   6.902   9.118  0.6281 -1.0068  0.1501
  316MOL0     H42632   9.845   6.899   9.352 -2.7757  0.1954  0.6316
  316MOL0     H42633   9.953   6.749   9.327  1.6423  0.3472 -2.7539
  316MOL0     H42634   9.641   6.739   9.310 -1.4627 -2.7111 -0.4176
  316MOL0     H42635   9.756   6.608   9.316  0.1512  0.6674  0.0662
  316MOL0     H42636   9.709   6.825   9.534 -0.0590  1.1425 -1.4927
  316MOL0     H42637   9.833   6.706   9.541 -0.8209 -0.0321 -0.0201
  316MOL0     H42638   9.538   6.643   9.540 -0.1395 -1.7805 -3.4965
  316MOL0     H42639   9.663   6.518   9.524 -0.8942 -0.6181  0.7563
  316MOL0     H42640  10.338   6.483   9.094  0.9141 -1.4332  0.0751
  316MOL0     H42641  10.545   6.528   9.178 -0.5289  0.5861  0.4194
  316MOL0     H42642  10.965   6.623   9.403 -1.2635 -1.0747 -2.7447
  316MOL0     H42643  11.187   6.738   9.448 -0.1288  0.1097 -0.4389
  316MOL0     H42644  11.385   6.556   8.305  1.2332 -0.3795 -1.2756
  316MOL0     H42645  11.220   6.419   8.165 -0.9899 -0.3568  1.2695
  316MOL0     H42646  11.134   6.086   7.936 -2.5171  0.8473 -1.7616
  316MOL0     H42647  11.035   5.924   7.768 -0.4610 -1.8047 -0.0949
  316MOL0     H42648  10.940   5.785   7.635  0.0180 -0.7247  0.2309
  316MOL0     H42649  10.814   5.881   7.694  2.7234  0.9503  3.9709
  316MOL0     H42650  10.786   5.579   7.617  0.9128  0.4447 -1.7467
  316MOL0     H42651  10.754   5.714   7.510 -0.8141 -3.0998 -1.1834
  316MOL0     H42652  10.571   5.791   7.661 -1.3848 -1.4371  0.5623
  316MOL0     H42653  10.594   5.646   7.762 -0.3810  2.4384  0.6756
  316MOL0     H42654  10.400   5.601   7.635  0.3049 -1.0838  1.0148
  316MOL0     H42655  10.480   5.653   7.484 -1.0906 -2.3844 -0.7295
  316MOL0     H42656  10.575   5.261   7.499  0.7707 -0.1068 -1.1917
  316MOL0     H42657  10.847   5.708   8.069  0.4631 -1.1060 -1.0238
  316MOL0     H42658  10.908   5.720   8.284  0.5607 -0.3626 -0.9536
  316MOL0     H42659  11.045   5.811   8.346 -0.9075 -0.7956  0.2406
  316MOL0     H42660  10.899   5.901   8.332 -2.3145 -0.4247 -1.3799
  317MOL0     O42661   8.272   4.886   5.239  0.2650  0.6628 -0.4425
  317MOL0     C42662   8.256   5.009   5.252  0.6322 -0.2502 -0.1717
  317MOL0     O42663   8.346   5.111   5.233 -0.2943 -0.4330 -0.8935
  317MOL0     C42664   8.475   5.080   5.195 -0.7206 -0.4044 -0.0861
  317MOL0     C42665   8.550   4.958   5.211  0.9777  0.4258  0.8300
  317MOL0     C42666   8.679   4.939   5.172 -0.1055  0.0807  0.1951
  317MOL0     C42667   8.746   5.049   5.117  0.2134 -0.2243 -0.1018
  317MOL0     O42668   8.868   5.015   5.075 -0.0250 -0.4225  0.0603
  317MOL0     C42669   8.978   5.099   5.116  0.5760  0.1821 -0.3956
  317MOL0     C42670   9.110   5.028   5.091 -0.2496 -0.5081 -0.1332
  317MOL0     C42671   9.220   5.129   5.121  0.2703  1.0615  0.3207
  317MOL0     C42672   9.345   5.062   5.175  0.5094  0.1727  0.0654
  317MOL0     C42673   9.466   5.166   5.193  0.4387  0.2475 -0.0261
  317MOL0     C42674   9.615   5.106   5.197  0.2317 -0.2662  0.3785
  317MOL0     C42675   9.706   5.221   5.196  0.9339  0.3168 -0.5977
  317MOL0     C42676   9.848   5.162   5.224 -0.9416  0.4274 -0.0923
  317MOL0     N42677   9.947   5.262   5.259 -0.0387 -0.2411  0.5751
  317MOL0     C42678  10.003   5.281   5.378 -0.0954 -0.6470  0.0582
  317MOL0     C42679  10.100   5.375   5.357 -0.0450  1.0737  0.4503
  317MOL0     C42680  10.184   5.439   5.466  0.4480 -0.0631 -0.2934
  317MOL0     C42681  10.318   5.483   5.407 -0.7079 -0.3718  0.4139
  317MOL0     C42682  10.381   5.367   5.340  0.5632 -0.6768  0.0820
  317MOL0     C42683  10.533   5.375   5.348 -0.0857  0.9737  0.3861
  317MOL0     O42684  10.607   5.303   5.248  0.4219 -0.3515 -0.3331
  317MOL0     C42685  10.743   5.302   5.272  0.2335 -0.0318 -0.3456
  317MOL0     C42686  10.810   5.382   5.366 -0.4670 -0.2074  0.0251
  317MOL0     C42687  10.946   5.362   5.374  0.2410  0.2053  0.2411
  317MOL0     C42688  11.021   5.273   5.296  1.6111  0.0541  0.0972
  317MOL0     C42689  11.163   5.263   5.316 -0.4117 -0.1215 -0.3310
  317MOL0     O42690  11.218   5.147   5.279 -0.7005 -0.3612 -0.1729
  317MOL0     C42691  11.350   5.120   5.283  0.0159  0.2465 -0.1629
  317MOL0     C42692  11.398   4.993   5.318 -0.3227  0.9575 -0.4076
  317MOL0     C42693  11.533   4.951   5.287  0.0649 -0.6243  0.0251
  317MOL0     C42694  11.626   5.047   5.245  0.2095  0.4826  0.1549
  317MOL0     O42695  11.754   5.006   5.236  0.1876  0.2747  0.2824
  317MOL0     C42696  11.846   5.072   5.330 -0.1858 -0.0503  0.2176
  317MOL0     C42697  11.945   4.960   5.357  0.0786  0.4048  0.3067
  317MOL0     C42698  12.043   5.003   5.467 -0.5728  0.9379 -0.2755
  317MOL0     C42699  12.139   5.103   5.420 -1.1517  0.1010 -0.3768
  317MOL0     C42700  12.239   5.134   5.535 -0.3776  0.3478  0.3528
  317MOL0     C42701  12.372   5.184   5.484  0.9620 -0.5290 -0.8395
  317MOL0     C42702  12.475   5.186   5.595 -0.4899 -0.6658 -0.8054
  317MOL0     C42703  12.523   5.052   5.646  0.5571  0.7528 -0.5530
  317MOL0    Cl42704  12.624   4.950   5.531 -0.0562  0.4955  0.0772
  317MOL0     C42705  11.583   5.174   5.222  0.4314  0.3763 -0.0680
  317MOL0     C42706  11.449   5.214   5.247 -0.6381  0.0181  0.4805
  317MOL0     O42707  11.224   5.359   5.375  0.0995  0.3781  0.1477
  317MOL0     C42708  10.947   5.197   5.203 -0.1154 -0.9369  0.3390
  317MOL0     C42709  10.807   5.212   5.189 -0.6852  0.6644 -0.5837
  317MOL0     N42710  10.087   5.419   5.225 -1.0445  0.7786 -0.0078
  317MOL0     N42711  10.008   5.344   5.162 -0.8226  0.2856 -0.4569
  317MOL0     C42712   8.675   5.167   5.104  0.0070  0.7305  1.4412
  317MOL0     C42713   8.543   5.189   5.139  0.4139 -0.2623 -0.0394
  317MOL0     C42714   8.117   5.056   5.296  0.8505 -1.2311 -0.5870
  317MOL0     C42715   8.005   4.968   5.285  0.2868  0.2896 -0.2760
  317MOL0     C42716   7.877   4.997   5.323  0.5035 -0.4297 -0.4016
  317MOL0     C42717   7.846   5.124   5.368  0.2110  0.0271 -0.0666
  317MOL0     O42718   7.723   5.170   5.417  0.8485 -0.4038  0.2930
  317MOL0     C42719   7.619   5.075   5.412 -0.6581 -0.2190 -0.5743
  317MOL0     C42720   7.516   5.128   5.509  1.6561  0.5789 -0.4589
  317MOL0     C42721   7.385   5.051   5.489 -0.3383 -0.7981  0.7334
  317MOL0     C42722   7.293   5.116   5.391  1.0773 -0.4512 -0.4848
  317MOL0     C42723   7.180   5.035   5.358  0.1949 -0.4582 -1.1957
  317MOL0     C42724   7.081   4.968   5.331 -0.3042  0.0875  0.9466
  317MOL0     C42725   7.954   5.215   5.388  0.4958 -0.2266 -0.2808
  317MOL0     C42726   8.085   5.191   5.346 -0.0085  0.1992 -0.6254
  317MOL0     C42727   8.188   5.299   5.385 -0.8858  0.2082  0.5913
  317MOL0     H42728   8.500   4.870   5.249 -0.3862 -0.1302 -2.0248
  317MOL0     H42729   8.723   4.845   5.203  0.4910  0.3073  0.0327
  317MOL0     H42730   8.965   5.194   5.064 -2.0043  1.1205  1.7257
  317MOL0     H42731   8.970   5.124   5.222  1.4273  2.2870 -0.7742
  317MOL0     H42732   9.116   5.007   4.984  0.0839 -1.9752  0.1464
  317MOL0     H42733   9.130   4.930   5.136  0.7722 -0.9259 -1.4293
  317MOL0     H42734   9.189   5.200   5.199 -1.7806 -0.0069  0.5457
  317MOL0     H42735   9.245   5.189   5.033 -1.2009  1.1782 -0.0399
  317MOL0     H42736   9.332   5.011   5.271 -1.3848  3.4445  1.7251
  317MOL0     H42737   9.368   4.992   5.094  1.8433 -0.1147  0.6769
  317MOL0     H42738   9.471   5.241   5.113  0.9290 -0.2145 -0.4322
  317MOL0     H42739   9.448   5.221   5.286  0.7852  1.3885 -0.6140
  317MOL0     H42740   9.618   5.054   5.293 -0.6620 -1.6715 -0.3150
  317MOL0     H42741   9.623   5.046   5.106 -3.6408  1.9639 -1.6918
  317MOL0     H42742   9.672   5.288   5.276 -1.2518 -0.2517 -0.9660
  317MOL0     H42743   9.692   5.277   5.103 -0.4318 -0.2468 -0.7606
  317MOL0     H42744   9.854   5.090   5.306  1.6075  3.6226  2.8462
  317MOL0     H42745   9.882   5.114   5.132  1.8374  2.3980 -0.2071
  317MOL0     H42746   9.987   5.226   5.470 -2.1534 -0.2173 -0.0104
  317MOL0     H42747  10.119   5.518   5.505 -0.8972  0.1067 -2.6688
  317MOL0     H42748  10.205   5.369   5.547 -0.3852  1.6778  1.5036
  317MOL0     H42749  10.301   5.564   5.335 -0.0938 -0.7853 -0.2033
  317MOL0     H42750  10.376   5.529   5.488  0.7616  2.5616 -2.1012
  317MOL0     H42751  10.345   5.365   5.237 -2.6836  1.0199  1.0476
  317MOL0     H42752  10.348   5.271   5.381 -0.3125 -0.3995  0.0418
  317MOL0     H42753  10.555   5.346   5.451 -0.9564  4.6828  1.7903
  317MOL0     H42754  10.562   5.480   5.340 -2.8230  1.7098 -1.3213
  317MOL0     H42755  10.757   5.440   5.442 -2.0380  0.4159 -1.4798
  317MOL0     H42756  11.000   5.415   5.451 -1.2663  1.1205  0.6979
  317MOL0     H42757  11.328   4.916   5.349  0.1081  0.7300  0.0052
  317MOL0     H42758  11.564   4.852   5.319  0.2660 -0.4500  0.3708
  317MOL0     H42759  11.888   5.167   5.297 -1.0985  0.7981  1.4006
  317MOL0     H42760  11.789   5.094   5.421 -1.6096 -2.6119  0.0527
  317MOL0     H42761  11.894   4.873   5.401  0.9866 -0.3226 -0.0482
  317MOL0     H42762  11.982   4.930   5.259 -0.2997  2.0879 -0.3740
  317MOL0     H42763  11.992   5.041   5.556 -2.2996 -0.2007 -0.7109
  317MOL0     H42764  12.083   4.909   5.505 -0.0984  0.8227 -1.0341
  317MOL0     H42765  12.085   5.189   5.379 -1.3566  0.8841  1.4357
  317MOL0     H42766  12.199   5.053   5.344 -1.8873  0.4363 -1.1972
  317MOL0     H42767  12.260   5.040   5.586  1.7303  0.2243 -0.6318
  317MOL0     H42768  12.193   5.206   5.603  2.5926  0.7981  2.0140
  317MOL0     H42769  12.414   5.117   5.408  0.6372 -1.7388  0.0250
  317MOL0     H42770  12.362   5.286   5.446 -4.6581 -0.9095 -1.1904
  317MOL0     H42771  12.426   5.239   5.677 -1.2748 -0.0223 -1.6710
  317MOL0     H42772  12.561   5.244   5.560  1.3401 -3.3781 -1.0665
  317MOL0     H42773  12.574   5.063   5.742 -1.2422 -2.6376  0.9667
  317MOL0     H42774  12.436   4.994   5.677  1.1352 -0.7387 -1.6044
  317MOL0     H42775  11.648   5.258   5.202  0.5478  1.0803  2.8213
  317MOL0     H42776  11.427   5.318   5.229  0.8684  0.0273 -1.7493
  317MOL0     H42777  10.994   5.133   5.129 -3.7502 -1.9347 -1.2908
  317MOL0     H42778  10.751   5.142   5.128 -1.7496  1.1702 -0.2135
  317MOL0     H42779   8.721   5.245   5.044  0.3025 -0.6264 -0.1705
  317MOL0     H42780   8.492   5.284   5.143  2.3746  0.8094  0.8658
  317MOL0     H42781   8.012   4.865   5.253  0.4811  0.0299  0.5683
  317MOL0     H42782   7.799   4.922   5.313 -0.5077  0.3401  1.3179
  317MOL0     H42783   7.644   4.980   5.460  0.2110  0.8491  1.2034
  317MOL0     H42784   7.589   5.057   5.308 -0.3269 -0.5166 -0.6227
  317MOL0     H42785   7.495   5.235   5.499 -1.9395  0.2129  1.4261
  317MOL0     H42786   7.539   5.106   5.613 -0.9596 -0.2343  0.0209
  317MOL0     H42787   7.335   5.052   5.586 -0.3706  2.7226  0.7948
  317MOL0     H42788   7.412   4.952   5.451 -0.3660  0.0750 -1.7227
  317MOL0     H42789   7.258   5.214   5.423  2.2386  0.6466 -2.3437
  317MOL0     H42790   7.349   5.131   5.298  0.5818 -2.0606 -1.0819
  317MOL0     H42791   7.003   4.911   5.286 -0.3463  1.6311 -1.1066
  317MOL0     H42792   7.916   5.309   5.426  1.2190 -1.4423  3.9700
  317MOL0     H42793   8.142   5.385   5.433 -1.8599  1.4181 -2.3176
  317MOL0     H42794   8.267   5.258   5.450  0.6568  2.3899  0.2081
  317MOL0     H42795   8.247   5.318   5.295  0.8541  0.1953  1.6792
  318MOL0     O42796   3.481  11.240   6.061 -0.1088  0.4397  0.5606
  318MOL0     C42797   3.420  11.323   6.128 -0.2729 -0.0202  0.3031
  318MOL0     O42798   3.475  11.405   6.213 -0.1993  0.0996 -0.0684
  318MOL0     C42799   3.607  11.390   6.224 -0.3186  0.4155 -0.1771
  318MOL0     C42800   3.661  11.318   6.336  0.1515  0.8241  0.1545
  318MOL0     C42801   3.802  11.319   6.365 -0.1306 -0.2551 -0.3985
  318MOL0     C42802   3.885  11.381   6.281 -1.6293  0.5411  0.2968
  318MOL0     O42803   4.025  11.396   6.305  0.5292  0.3504  0.1773
  318MOL0     C42804   4.095  11.279   6.333 -0.7793  1.0306  0.2200
  318MOL0     C42805   4.239  11.319   6.294  0.2119  0.2019 -0.8604
  318MOL0     C42806   4.341  11.233   6.372  0.3679  0.1251 -0.1571
  318MOL0     C42807   4.483  11.275   6.345 -0.0970  0.6266  0.1559
  318MOL0     C42808   4.574  11.176   6.419 -0.1450 -0.2225 -0.2515
  318MOL0     C42809   4.722  11.204   6.407  0.7665  0.2365  1.1009
  318MOL0     C42810   4.802  11.145   6.524 -1.0337  0.0001 -0.3806
  318MOL0     C42811   4.951  11.195   6.515 -0.0716 -0.0968 -0.3427
  318MOL0     N42812   5.023  11.144   6.395 -0.1496 -0.8273 -0.4272
  318MOL0     C42813   5.111  11.042   6.392 -0.2642 -0.1064  0.5503
  318MOL0     C42814   5.169  11.041   6.265 -0.9344 -0.0902 -1.0801
  318MOL0     C42815   5.280  10.960   6.213 -0.0479  0.2769  0.4986
  318MOL0     C42816   5.234  10.887   6.084  0.0409 -0.3726  0.1144
  318MOL0     C42817   5.337  10.778   6.051 -1.4165 -0.6607  0.5399
  318MOL0     C42818   5.321  10.745   5.902 -0.4285 -0.1181  0.0124
  318MOL0     O42819   5.392  10.626   5.865 -0.2072 -0.3952 -0.0909
  318MOL0     C42820   5.526  10.620   5.836 -0.1760 -0.1241  0.7188
  318MOL0     C42821   5.612  10.734   5.823  0.1291 -0.0296 -0.1743
  318MOL0     C42822   5.746  10.724   5.781 -0.4709  0.5774  0.7695
  318MOL0     C42823   5.808  10.598   5.768 -0.4972 -0.5279  0.7079
  318MOL0     C42824   5.956  10.581   5.735 -0.1299  0.2869 -0.2593
  318MOL0     O42825   6.033  10.692   5.708 -0.0892  0.2782 -0.0770
  318MOL0     C42826   6.172  10.689   5.709  0.2707  0.4846  0.0249
  318MOL0     C42827   6.236  10.598   5.614  0.2677 -0.0603  0.6468
  318MOL0     C42828   6.375  10.598   5.594  0.8651  0.0083  0.4887
  318MOL0     C42829   6.451  10.685   5.671  0.1893 -0.4978 -0.3283
  318MOL0     O42830   6.590  10.688   5.660  0.2602 -0.1383  0.0583
  318MOL0     C42831   6.651  10.730   5.535 -0.7207  0.0332  0.7572
  318MOL0     C42832   6.730  10.866   5.543  0.2374 -0.3199 -0.7540
  318MOL0     C42833   6.832  10.874   5.655  0.1180  0.5817 -0.0033
  318MOL0     C42834   6.947  10.782   5.657  1.1080 -0.2383  0.7243
  318MOL0     C42835   7.053  10.822   5.756 -1.1405 -0.2838  0.8065
  318MOL0     C42836   7.163  10.911   5.690 -1.1400 -0.1676  0.2758
  318MOL0     C42837   7.283  10.944   5.781  0.6864  0.4764 -0.1412
  318MOL0     C42838   7.416  10.876   5.729  1.0881  1.2272  0.0109
  318MOL0    Cl42839   7.427  10.704   5.738 -0.0923  0.3751  0.0866
  318MOL0     C42840   6.394  10.772   5.767  0.2236  0.1690 -0.0124
  318MOL0     C42841   6.252  10.777   5.783 -0.9124  0.8662  0.2996
  318MOL0     O42842   6.001  10.465   5.737 -0.4333 -0.7281  0.0036
  318MOL0     C42843   5.725  10.492   5.808 -0.1334  0.3870 -0.1172
  318MOL0     C42844   5.592  10.497   5.840  0.4613  0.6628 -0.6748
  318MOL0     N42845   5.115  11.146   6.203  0.0065 -0.4702  0.5196
  318MOL0     N42846   5.024  11.210   6.274 -0.6523  0.2105 -0.1449
  318MOL0     C42847   3.834  11.451   6.172 -0.0939 -0.4576 -0.8939
  318MOL0     C42848   3.697  11.464   6.151 -0.4373 -0.6461  0.3508
  318MOL0     C42849   3.278  11.342   6.099  0.5280  0.2282 -0.2846
  318MOL0     C42850   3.247  11.343   5.966  0.3060  0.3234 -0.8689
  318MOL0     C42851   3.120  11.368   5.912 -0.0469  0.4385  0.3125
  318MOL0     C42852   3.018  11.383   6.007  0.4205 -0.2763  0.0122
  318MOL0     O42853   2.887  11.410   5.977 -0.2816 -0.2374  1.1547
  318MOL0     C42854   2.811  11.291   5.950 -0.5739  1.2143 -0.3830
  318MOL0     C42855   2.816  11.279   5.800 -0.0347 -0.9315  0.4911
  318MOL0     C42856   2.731  11.382   5.725  0.2506  0.6908 -0.0819
  318MOL0     C42857   2.580  11.374   5.746  0.7782  0.2766 -0.0645
  318MOL0     C42858   2.507  11.489   5.689  0.3346 -0.0763  0.6602
  318MOL0     C42859   2.447  11.576   5.622  0.4898 -0.2497  0.2686
  318MOL0     C42860   3.040  11.384   6.143 -0.1269  0.0093 -0.1104
  318MOL0     C42861   3.167  11.368   6.187 -0.8907  0.5850  0.0481
  318MOL0     C42862   3.179  11.361   6.335  0.4475  0.1741  0.4601
  318MOL0     H42863   3.583  11.271   6.394 -0.6140 -0.7404 -2.0261
  318MOL0     H42864   3.849  11.276   6.453 -1.7500 -0.7155  0.2794
  318MOL0     H42865   4.093  11.247   6.438  0.4028 -0.8740 -0.2767
  318MOL0     H42866   4.056  11.195   6.275 -3.1213  3.2361 -1.6048
  318MOL0     H42867   4.255  11.424   6.320 -1.3470  0.5141 -1.0194
  318MOL0     H42868   4.255  11.307   6.187 -0.5614 -0.1262 -0.9481
  318MOL0     H42869   4.332  11.130   6.336  0.0258  0.0201  0.2226
  318MOL0     H42870   4.308  11.225   6.476  0.4926  1.3194 -0.0130
  318MOL0     H42871   4.510  11.265   6.240  0.7287 -1.3523  0.5080
  318MOL0     H42872   4.496  11.379   6.375  1.8257  0.4552  0.0863
  318MOL0     H42873   4.559  11.170   6.527  2.3288  0.8226  0.2102
  318MOL0     H42874   4.554  11.073   6.386  0.5751 -0.0584 -1.2267
  318MOL0     H42875   4.760  11.158   6.315 -1.1225  0.1874  0.3170
  318MOL0     H42876   4.740  11.310   6.387  0.9320 -0.3485 -2.3601
  318MOL0     H42877   4.799  11.037   6.540  3.3850 -0.0920  1.2962
  318MOL0     H42878   4.766  11.192   6.616  2.3508  3.0688 -0.3885
  318MOL0     H42879   4.944  11.304   6.522  0.7579 -0.1597  2.2066
  318MOL0     H42880   5.008  11.154   6.599  2.5490  0.3130 -1.8241
  318MOL0     H42881   5.123  10.963   6.465 -1.2635 -1.3587 -0.5882
  318MOL0     H42882   5.373  11.015   6.195  1.0126 -1.8146 -0.7719
  318MOL0     H42883   5.290  10.888   6.295  1.7270  1.4459  1.3511
  318MOL0     H42884   5.135  10.841   6.088  0.0959 -0.7092 -1.4958
  318MOL0     H42885   5.219  10.956   6.000 -1.4454 -3.5589 -2.4416
  318MOL0     H42886   5.311  10.692   6.114 -0.5464  0.4414  2.4923
  318MOL0     H42887   5.439  10.815   6.061 -2.4414  2.2937  1.1144
  318MOL0     H42888   5.360  10.825   5.840 -0.1978 -1.2637 -1.3721
  318MOL0     H42889   5.213  10.731   5.891 -1.1586  0.0154  4.8524
  318MOL0     H42890   5.565  10.831   5.833  0.2150 -0.1335  1.6481
  318MOL0     H42891   5.806  10.809   5.750  0.8489 -1.1003 -1.6876
  318MOL0     H42892   6.173  10.528   5.560  1.4414 -0.3276 -0.4307
  318MOL0     H42893   6.426  10.529   5.528  0.9158 -0.6907  1.2529
  318MOL0     H42894   6.725  10.653   5.511  0.3082  1.1276  0.3512
  318MOL0     H42895   6.574  10.741   5.458 -2.4473 -1.6661  2.1281
  318MOL0     H42896   6.785  10.891   5.452 -0.6101  0.7065 -1.0101
  318MOL0     H42897   6.655  10.944   5.560 -0.1520 -0.8583  0.0651
  318MOL0     H42898   6.863  10.978   5.640 -2.9325  1.4193 -1.1752
  318MOL0     H42899   6.782  10.863   5.751  0.7054  4.6993  0.9282
  318MOL0     H42900   6.993  10.773   5.558 -0.7835  1.3267 -0.3627
  318MOL0     H42901   6.905  10.685   5.687 -2.5813  0.9206 -0.1956
  318MOL0     H42902   7.102  10.730   5.787  1.2951  1.0384  1.1395
  318MOL0     H42903   7.014  10.863   5.849 -3.2464  2.3271 -1.0547
  318MOL0     H42904   7.196  10.851   5.605  1.3981 -2.8485  2.8966
  318MOL0     H42905   7.129  11.010   5.658 -1.1079 -0.3845 -0.4453
  318MOL0     H42906   7.266  10.896   5.878 -2.4311  0.5596 -0.5391
  318MOL0     H42907   7.314  11.049   5.789  1.4491  0.1851  0.9199
  318MOL0     H42908   7.430  10.903   5.624 -3.3662 -1.7115 -1.6529
  318MOL0     H42909   7.488  10.919   5.799  1.3888 -1.3440  1.4074
  318MOL0     H42910   6.461  10.831   5.829  0.4180 -0.6951  0.6302
  318MOL0     H42911   6.201  10.844   5.852 -1.4762 -0.8985  1.6795
  318MOL0     H42912   5.775  10.396   5.801  1.3243  1.1665 -0.8648
  318MOL0     H42913   5.544  10.402   5.863  0.7042  1.4865  4.0988
  318MOL0     H42914   3.912  11.499   6.114 -1.7634  2.2897 -1.0837
  318MOL0     H42915   3.662  11.525   6.068  1.1230  0.2519  0.2987
  318MOL0     H42916   3.329  11.333   5.896  0.6946  1.6411 -0.6388
  318MOL0     H42917   3.113  11.380   5.804 -1.3898 -0.3852  0.2767
  318MOL0     H42918   2.709  11.311   5.982 -0.6849  1.7007 -1.0223
  318MOL0     H42919   2.864  11.205   5.993  0.5394  1.4228 -1.2812
  318MOL0     H42920   2.775  11.181   5.773 -0.7467 -0.7054  0.7250
  318MOL0     H42921   2.918  11.290   5.761 -0.6634  1.4191 -0.6955
  318MOL0     H42922   2.738  11.354   5.619  1.2015  1.3851 -0.2153
  318MOL0     H42923   2.775  11.479   5.750  0.7584  0.1313  1.2741
  318MOL0     H42924   2.537  11.288   5.695 -4.2337  3.8042 -2.7302
  318MOL0     H42925   2.551  11.364   5.851 -1.3663  1.0776 -0.5218
  318MOL0     H42926   2.400  11.647   5.557 -0.3884 -1.3704 -0.3539
  318MOL0     H42927   2.953  11.403   6.206 -0.5288 -0.9712 -0.3401
  318MOL0     H42928   3.155  11.261   6.372  3.9431 -0.5387  1.1775
  318MOL0     H42929   3.281  11.384   6.366  0.2437  0.9817  0.5571
  318MOL0     H42930   3.123  11.440   6.386 -0.8320 -1.1220  1.1376
  319MOL0     O42931   0.106   5.641   8.001 -0.4757  0.4369 -0.1448
  319MOL0     C42932   0.043   5.631   8.105 -0.5597  0.2257 -0.2268
  319MOL0     O42933   0.079   5.698   8.218 -0.1899 -0.0206 -0.2691
  319MOL0     C42934   0.197   5.775   8.212  0.5228  0.3004  0.9874
  319MOL0     C42935   0.289   5.766   8.311 -1.0031  0.4940  0.6329
  319MOL0     C42936   0.402   5.859   8.319  0.3499 -0.2925  0.3686
  319MOL0     C42937   0.415   5.960   8.225 -0.1278 -0.0501 -0.5833
  319MOL0     O42938   0.529   6.037   8.243  0.2068 -1.1191  0.1985
  319MOL0     C42939   0.617   6.056   8.124 -0.6710  0.1596 -0.4366
  319MOL0     C42940   0.755   6.089   8.189  0.6428  1.8948 -0.1410
  319MOL0     C42941   0.799   5.959   8.257 -0.3127  0.2807 -0.0956
  319MOL0     C42942   0.951   5.937   8.248  0.6771 -0.4155 -0.1767
  319MOL0     C42943   1.025   6.043   8.334  0.3119  0.2831  0.2399
  319MOL0     C42944   1.172   6.041   8.303  0.3154 -0.5447  0.3700
  319MOL0     C42945   1.246   6.126   8.401 -0.4308 -0.7239 -0.3666
  319MOL0     C42946   1.397   6.143   8.361 -0.6671  0.7658  0.1466
  319MOL0     N42947   1.490   6.190   8.469 -0.8133  0.5290  0.4717
  319MOL0     C42948   1.504   6.139   8.597  0.0710 -0.5917  0.5262
  319MOL0     C42949   1.615   6.204   8.646  0.7059  0.3712  0.2565
  319MOL0     C42950   1.672   6.186   8.779  0.4804  0.2765 -0.5119
  319MOL0     C42951   1.807   6.245   8.807 -0.0920 -0.6145 -0.3060
  319MOL0     C42952   1.915   6.160   8.764  0.3800  0.2615 -0.5452
  319MOL0     C42953   2.044   6.231   8.740 -0.7333 -0.5042  0.7116
  319MOL0     O42954   2.106   6.266   8.867  0.3588  0.1757 -0.0551
  319MOL0     C42955   2.236   6.312   8.875 -0.2568 -1.0602  0.0404
  319MOL0     C42956   2.282   6.323   9.010 -0.0149  0.3705 -0.0645
  319MOL0     C42957   2.417   6.357   9.028  0.3924  0.4225 -0.0065
  319MOL0     C42958   2.508   6.382   8.928  0.8347  0.7916  0.0912
  319MOL0     C42959   2.647   6.406   8.961 -0.2144  0.8002  0.2559
  319MOL0     O42960   2.686   6.348   9.080 -0.1477 -0.6589  0.4706
  319MOL0     C42961   2.817   6.363   9.124  0.5430  0.5285  0.5338
  319MOL0     C42962   2.824   6.415   9.249  0.0270 -0.2652  0.1938
  319MOL0     C42963   2.942   6.445   9.304 -0.2379 -0.5073  0.9464
  319MOL0     C42964   3.058   6.415   9.237 -0.4059 -0.7537  0.9436
  319MOL0     O42965   3.175   6.445   9.301 -0.7055 -0.0735  0.0049
  319MOL0     C42966   3.297   6.427   9.221  0.9277 -0.4630 -0.3290
  319MOL0     C42967   3.412   6.475   9.312  0.0798 -0.2437  0.0487
  319MOL0     C42968   3.517   6.524   9.227  0.1850  0.2151 -0.2580
  319MOL0     C42969   3.633   6.580   9.299  0.2354  0.3901 -0.0517
  319MOL0     C42970   3.725   6.658   9.199  0.0474  0.2109 -0.4716
  319MOL0     C42971   3.834   6.747   9.275  0.4437  0.5808  1.0007
  319MOL0     C42972   3.935   6.799   9.171  0.6984 -0.9566 -0.3380
  319MOL0     C42973   4.025   6.914   9.225  0.6738  0.0478 -0.5366
  319MOL0    Cl42974   4.166   6.824   9.316  0.1775  0.1878  0.4112
  319MOL0     C42975   3.055   6.365   9.104  0.4828  0.0369 -1.0526
  319MOL0     C42976   2.932   6.339   9.054  0.6533  0.7180 -0.9685
  319MOL0     O42977   2.724   6.471   8.886 -0.5705  0.1369 -0.5610
  319MOL0     C42978   2.459   6.380   8.797 -0.1555  0.2553 -0.1769
  319MOL0     C42979   2.323   6.343   8.768  0.9192  0.0691  0.0596
  319MOL0     N42980   1.678   6.279   8.548 -0.9660  0.4469  0.3133
  319MOL0     N42981   1.608   6.259   8.442  0.0233  1.0465  0.0887
  319MOL0     C42982   0.325   5.963   8.123  0.8249 -0.6815 -1.0038
  319MOL0     C42983   0.213   5.875   8.122  0.0543 -0.3799  0.4713
  319MOL0     C42984  -0.087   5.554   8.090 -0.4505 -0.4296  0.2049
  319MOL0     C42985  -0.144   5.524   7.964  0.5159 -0.1056  0.4223
  319MOL0     C42986  -0.269   5.458   7.950  0.3826  0.3155  0.4746
  319MOL0     C42987  -0.335   5.411   8.061  0.6797  0.9408 -0.5066
  319MOL0     O42988  -0.459   5.347   8.064 -0.0973  0.2131  0.8210
  319MOL0     C42989  -0.521   5.317   7.933 -0.2168  0.2875 -0.6182
  319MOL0     C42990  -0.668   5.283   7.950  0.7821 -0.4407  0.0091
  319MOL0     C42991  -0.715   5.133   7.918  0.9187 -0.5195 -0.2203
  319MOL0     C42992  -0.627   5.023   7.989 -0.1570 -0.5405  0.0337
  319MOL0     C42993  -0.631   5.049   8.129 -0.2750  0.7147 -0.2950
  319MOL0     C42994  -0.624   5.081   8.245  0.4910  0.1940 -0.5797
  319MOL0     C42995  -0.277   5.439   8.192  0.0284  0.8068 -0.4536
  319MOL0     C42996  -0.157   5.501   8.207  0.4802 -0.7763  0.4270
  319MOL0     C42997  -0.093   5.484   8.343  0.0168 -0.7445  0.1797
  319MOL0     H42998   0.288   5.682   8.381 -1.7713 -1.9259 -2.0905
  319MOL0     H42999   0.474   5.831   8.395 -0.4302 -1.0623  0.8361
  319MOL0     H43000   0.632   5.968   8.061  0.7124  0.2778 -0.2857
  319MOL0     H43001   0.576   6.139   8.065 -0.4468  1.8110  1.5883
  319MOL0     H43002   0.728   6.159   8.268 -3.8328  1.2277 -0.7801
  319MOL0     H43003   0.821   6.133   8.114  1.3032  1.5377  0.2275
  319MOL0     H43004   0.750   5.876   8.205  0.8152  0.8389 -2.1933
  319MOL0     H43005   0.778   5.959   8.364  0.7694  0.3134  0.1318
  319MOL0     H43006   0.981   5.841   8.291  0.1720 -0.9875 -1.0625
  319MOL0     H43007   0.981   5.958   8.145 -1.0204  1.3569 -0.3677
  319MOL0     H43008   0.988   6.145   8.322 -0.1191  0.0822 -0.1716
  319MOL0     H43009   0.997   6.012   8.436  1.4881  1.4056  0.9320
  319MOL0     H43010   1.212   5.940   8.296 -1.1122 -1.3649  3.0812
  319MOL0     H43011   1.174   6.093   8.206 -1.0350 -0.5259  0.3317
  319MOL0     H43012   1.237   6.079   8.499 -0.3944  2.1797  1.1459
  319MOL0     H43013   1.198   6.225   8.404 -0.2001 -0.6238  1.5733
  319MOL0     H43014   1.434   6.050   8.315 -2.5734 -1.3035  2.5190
  319MOL0     H43015   1.400   6.225   8.288  0.6521  2.1693  1.7195
  319MOL0     H43016   1.434   6.077   8.652 -2.0808  1.5305  0.3413
  319MOL0     H43017   1.591   6.219   8.845  0.6710 -0.3376  0.0406
  319MOL0     H43018   1.681   6.077   8.791  1.6011  0.3026 -1.0144
  319MOL0     H43019   1.811   6.350   8.779 -0.0204  0.5604  3.5072
  319MOL0     H43020   1.826   6.254   8.915  0.8493  1.3718 -0.5875
  319MOL0     H43021   1.886   6.118   8.667  3.3723 -0.2911 -1.3091
  319MOL0     H43022   1.932   6.085   8.842  2.8975  1.6620  0.3852
  319MOL0     H43023   2.031   6.325   8.686 -2.7212 -1.6505 -0.9236
  319MOL0     H43024   2.113   6.164   8.687 -0.0078 -0.8382  2.0332
  319MOL0     H43025   2.205   6.289   9.079  0.4474 -2.1894 -0.6883
  319MOL0     H43026   2.449   6.358   9.132  1.4464  0.4728 -0.3214
  319MOL0     H43027   2.734   6.433   9.307 -0.3635 -3.3350  0.7135
  319MOL0     H43028   2.946   6.485   9.404 -0.0843  1.0936  0.3215
  319MOL0     H43029   3.307   6.321   9.199 -2.2382 -0.1139 -4.7139
  319MOL0     H43030   3.302   6.479   9.125 -2.6646  2.4160  0.7662
  319MOL0     H43031   3.393   6.561   9.376  0.9575  1.5331 -1.9779
  319MOL0     H43032   3.449   6.398   9.380  2.0056  1.4145  0.9626
  319MOL0     H43033   3.545   6.433   9.175  0.4392 -1.2411  2.2716
  319MOL0     H43034   3.478   6.592   9.151  0.2126 -0.6481 -1.0597
  319MOL0     H43035   3.688   6.500   9.350  2.2988  1.9618  0.3581
  319MOL0     H43036   3.604   6.660   9.368  1.4627  0.1181  0.8085
  319MOL0     H43037   3.670   6.715   9.124  0.3066 -2.1184 -2.5839
  319MOL0     H43038   3.780   6.578   9.148 -0.9124  0.1430 -1.4563
  319MOL0     H43039   3.775   6.828   9.318 -1.0589  0.1247 -0.1159
  319MOL0     H43040   3.876   6.689   9.358 -0.7820  0.2283  1.4087
  319MOL0     H43041   3.880   6.827   9.080 -0.4999  3.4046  1.4588
  319MOL0     H43042   4.009   6.724   9.142  0.9185 -0.3424 -1.4622
  319MOL0     H43043   4.060   6.991   9.156 -0.2049  2.0862  1.1710
  319MOL0     H43044   3.977   6.977   9.301  1.2221  0.1618 -0.2784
  319MOL0     H43045   3.139   6.362   9.035  0.2003  0.2279 -1.4085
  319MOL0     H43046   2.921   6.315   8.948  0.3413 -0.3850 -0.6998
  319MOL0     H43047   2.530   6.399   8.717  3.0915  1.6343  2.8000
  319MOL0     H43048   2.278   6.339   8.669 -0.8426  5.0770  0.3578
  319MOL0     H43049   0.332   6.045   8.052 -2.5417 -0.0772 -0.8060
  319MOL0     H43050   0.136   5.885   8.046  0.2018  4.2314  0.6712
  319MOL0     H43051  -0.101   5.556   7.870 -0.6113  0.0493 -0.0544
  319MOL0     H43052  -0.303   5.433   7.850  1.8591  1.1497 -0.2698
  319MOL0     H43053  -0.474   5.229   7.886  0.1428  0.1748 -0.0582
  319MOL0     H43054  -0.513   5.403   7.866 -0.5756  0.6622 -0.1829
  319MOL0     H43055  -0.718   5.357   7.887  0.6536 -0.2382  0.3435
  319MOL0     H43056  -0.684   5.298   8.058  3.6399 -3.2297  0.9883
  319MOL0     H43057  -0.738   5.113   7.813  1.3421 -1.3869 -0.1632
  319MOL0     H43058  -0.813   5.126   7.966  0.8533 -2.5381 -0.5499
  319MOL0     H43059  -0.680   4.927   7.986  0.8799 -1.1176 -2.5332
  319MOL0     H43060  -0.522   5.018   7.959  0.0021 -1.5086  0.6938
  319MOL0     H43061  -0.597   5.100   8.347  1.7490 -2.7891 -0.2472
  319MOL0     H43062  -0.340   5.404   8.273 -0.9195  0.1156 -1.4501
  319MOL0     H43063   0.004   5.435   8.334  1.2283  1.3958  0.9190
  319MOL0     H43064  -0.081   5.587   8.377  3.5115 -0.8567 -0.3415
  319MOL0     H43065  -0.161   5.445   8.419 -0.8607  0.2360 -0.0685
  320MOL0     O43066   0.393   3.758   5.499  0.1529  0.0900 -0.0652
  320MOL0     C43067   0.342   3.705   5.404 -0.4237 -0.4219  0.4817
  320MOL0     O43068   0.403   3.669   5.286 -0.0122  0.0064  1.0922
  320MOL0     C43069   0.540   3.680   5.283  0.3212  0.2559  0.1787
  320MOL0     C43070   0.608   3.804   5.316  0.3677 -0.3648  0.3177
  320MOL0     C43071   0.749   3.810   5.312 -0.0780 -0.5963 -0.0101
  320MOL0     C43072   0.819   3.684   5.299 -0.5646  0.6143  0.3412
  320MOL0     O43073   0.957   3.680   5.298 -0.4744 -0.4669  0.2044
  320MOL0     C43074   1.031   3.791   5.352  0.5121  0.5008  0.4110
  320MOL0     C43075   1.173   3.761   5.370 -0.9906  0.5518  0.3735
  320MOL0     C43076   1.195   3.655   5.476 -0.7679 -0.5861  0.8950
  320MOL0     C43077   1.345   3.627   5.502 -0.4027  0.5588  0.9521
  320MOL0     C43078   1.373   3.543   5.625 -0.2717 -0.0949  0.1825
  320MOL0     C43079   1.522   3.498   5.651  0.5485  0.4461 -0.1621
  320MOL0     C43080   1.623   3.614   5.653  0.3374  0.5822  0.3468
  320MOL0     C43081   1.562   3.730   5.745 -0.2512 -0.6480  0.1379
  320MOL0     N43082   1.671   3.812   5.801  0.2650  0.3823  0.4673
  320MOL0     C43083   1.724   3.921   5.733 -0.2220 -0.0372 -0.2279
  320MOL0     C43084   1.843   3.941   5.786  0.7757  0.2583  0.4838
  320MOL0     C43085   1.940   4.056   5.747  0.6999 -0.4773 -0.5704
  320MOL0     C43086   1.963   4.166   5.857 -0.2014 -0.4062  0.4139
  320MOL0     C43087   1.970   4.124   6.005 -0.0470 -0.7942 -0.0875
  320MOL0     C43088   2.097   4.034   6.037  0.9516  0.0375  0.8529
  320MOL0     O43089   2.213   4.104   5.999  0.2661  0.2610  0.4118
  320MOL0     C43090   2.336   4.044   6.019  0.6527  0.1190 -0.3183
  320MOL0     C43091   2.436   4.075   5.935 -1.5504 -0.2070  0.0671
  320MOL0     C43092   2.562   4.016   5.946 -0.0574  1.2996 -0.5402
  320MOL0     C43093   2.593   3.930   6.045  0.0438 -0.1843  0.1236
  320MOL0     C43094   2.726   3.860   6.038  0.6805  0.2860  0.6720
  320MOL0     O43095   2.735   3.735   6.094 -0.1999 -0.1707 -0.2188
  320MOL0     C43096   2.839   3.647   6.083 -0.0309  0.5769 -0.6852
  320MOL0     C43097   2.942   3.642   5.987 -0.3648  0.2208 -0.1745
  320MOL0     C43098   3.047   3.547   6.009 -0.7378 -0.5251  0.4293
  320MOL0     C43099   3.053   3.467   6.124  0.0815 -0.1691  1.0043
  320MOL0     O43100   3.160   3.388   6.152  0.1874 -0.1533  0.0212
  320MOL0     C43101   3.247   3.357   6.037  0.1924  0.2453 -1.1203
  320MOL0     C43102   3.329   3.232   6.064 -0.1648 -0.4729  0.0825
  320MOL0     C43103   3.418   3.272   6.182 -0.0691 -0.2959 -0.0684
  320MOL0     C43104   3.551   3.309   6.114 -0.0256 -0.0737 -0.4950
  320MOL0     C43105   3.655   3.309   6.219 -0.1248 -0.2368 -0.2483
  320MOL0     C43106   3.727   3.176   6.215  0.6104  0.0673  0.1915
  320MOL0     C43107   3.823   3.161   6.335 -0.1263 -0.1579  0.7979
  320MOL0     C43108   3.944   3.252   6.310 -0.0981  0.4738 -0.3479
  320MOL0    Cl43109   4.027   3.219   6.159  0.2824 -0.0787  0.0557
  320MOL0     C43110   2.948   3.473   6.217 -0.7671  0.4399 -0.1912
  320MOL0     C43111   2.847   3.565   6.198  0.2613  1.1109  0.0929
  320MOL0     O43112   2.808   3.903   5.963 -0.0689  0.2067  0.6341
  320MOL0     C43113   2.497   3.904   6.148  0.6647 -0.6867 -0.3283
  320MOL0     C43114   2.365   3.953   6.130 -0.3059  0.2684  0.1636
  320MOL0     N43115   1.860   3.843   5.888  0.5161  0.1983 -0.4945
  320MOL0     N43116   1.759   3.766   5.892 -0.2759  0.7079 -0.6466
  320MOL0     C43117   0.752   3.565   5.287  0.6281 -0.8872  0.4846
  320MOL0     C43118   0.612   3.563   5.276  0.0414  0.0251 -0.9934
  320MOL0     C43119   0.194   3.702   5.394 -0.1873  1.1917 -0.4385
  320MOL0     C43120   0.133   3.801   5.315 -0.2161  0.0447  0.8377
  320MOL0     C43121  -0.009   3.792   5.297  0.3927  0.1804 -0.6662
  320MOL0     C43122  -0.077   3.703   5.380  0.5294  0.1632 -0.6171
  320MOL0     O43123  -0.202   3.701   5.389 -0.0526 -0.1130 -0.1440
  320MOL0     C43124  -0.289   3.777   5.307  0.8725  0.3697  0.6154
  320MOL0     C43125  -0.435   3.735   5.324 -1.0682 -0.2427 -0.4674
  320MOL0     C43126  -0.521   3.829   5.238 -0.0406  0.1175  0.5438
  320MOL0     C43127  -0.673   3.797   5.269 -0.2196  0.0422  0.4066
  320MOL0     C43128  -0.750   3.851   5.157 -0.4651 -0.3472 -0.0607
  320MOL0     C43129  -0.811   3.903   5.069  0.0085 -0.6875 -0.1566
  320MOL0     C43130  -0.022   3.607   5.459 -0.1308  0.4702 -1.1147
  320MOL0     C43131   0.116   3.599   5.464  0.6661 -0.3624  0.2164
  320MOL0     C43132   0.178   3.489   5.547 -0.4298 -0.2183 -0.4591
  320MOL0     H43133   0.549   3.894   5.329  0.8513  0.0308 -0.1765
  320MOL0     H43134   0.792   3.909   5.327  0.4932 -0.7555 -0.5205
  320MOL0     H43135   1.024   3.881   5.290  0.2659  0.1290 -0.1092
  320MOL0     H43136   0.980   3.810   5.446 -0.3507 -0.7340  0.2179
  320MOL0     H43137   1.226   3.852   5.398 -2.6634  1.2656  1.3886
  320MOL0     H43138   1.210   3.723   5.274 -2.0131 -0.9670  0.5390
  320MOL0     H43139   1.144   3.563   5.444  0.4322 -0.1525 -2.7261
  320MOL0     H43140   1.156   3.699   5.569  1.4198  4.0760 -0.1270
  320MOL0     H43141   1.372   3.584   5.405 -2.0565  1.8377 -0.1487
  320MOL0     H43142   1.395   3.722   5.522 -0.3900  0.2134  2.6315
  320MOL0     H43143   1.327   3.574   5.720 -2.5868 -0.8942 -0.6074
  320MOL0     H43144   1.319   3.448   5.619 -0.1576 -0.2005  0.7111
  320MOL0     H43145   1.529   3.461   5.754 -1.8706 -4.4845 -1.4706
  320MOL0     H43146   1.537   3.410   5.588 -0.7784 -0.8780  1.2927
  320MOL0     H43147   1.641   3.646   5.550 -2.1555 -0.2233 -0.4047
  320MOL0     H43148   1.721   3.579   5.686  2.2828  1.9700 -3.4245
  320MOL0     H43149   1.497   3.794   5.685 -0.5883 -0.2586  0.8986
  320MOL0     H43150   1.505   3.691   5.830 -2.3573 -0.1911 -0.9893
  320MOL0     H43151   1.685   3.987   5.656  1.2742 -0.8993 -1.8128
  320MOL0     H43152   2.033   4.013   5.709 -0.4113 -0.5812 -3.3725
  320MOL0     H43153   1.902   4.105   5.657 -1.2797 -0.1359  0.4101
  320MOL0     H43154   2.054   4.217   5.824 -0.0353 -1.1664 -0.3524
  320MOL0     H43155   1.881   4.238   5.853  0.2432  0.0775 -0.2379
  320MOL0     H43156   1.877   4.077   6.039  0.1373 -0.6152  0.6957
  320MOL0     H43157   1.979   4.216   6.062  1.1705 -0.8824 -0.0971
  320MOL0     H43158   2.087   3.941   5.982 -0.2534 -1.5628  3.5703
  320MOL0     H43159   2.101   4.004   6.143  0.6250 -2.5858  0.1762
  320MOL0     H43160   2.419   4.141   5.851  1.3479 -1.3176 -1.5092
  320MOL0     H43161   2.629   4.017   5.860  1.1371 -1.8907  0.2406
  320MOL0     H43162   2.944   3.707   5.900 -1.8179  2.0104  1.0475
  320MOL0     H43163   3.128   3.539   5.938 -1.7943  0.3879 -0.9349
  320MOL0     H43164   3.196   3.332   5.943 -1.3280  2.2489 -0.8810
  320MOL0     H43165   3.317   3.437   6.014  2.3300 -0.5661  1.9649
  320MOL0     H43166   3.264   3.151   6.096  1.9133 -1.1003  3.1092
  320MOL0     H43167   3.389   3.192   5.981 -0.7831 -1.9890  0.3450
  320MOL0     H43168   3.377   3.343   6.254 -2.0829  0.3589 -1.7607
  320MOL0     H43169   3.444   3.178   6.232  2.5718  0.2223 -0.3158
  320MOL0     H43170   3.535   3.401   6.058  0.1031 -1.2028 -2.5015
  320MOL0     H43171   3.583   3.230   6.046 -0.5297 -1.1144  0.4307
  320MOL0     H43172   3.607   3.320   6.317 -0.3890 -0.6384 -0.3275
  320MOL0     H43173   3.729   3.389   6.211 -1.9953  1.4709 -1.5958
  320MOL0     H43174   3.653   3.098   6.232 -0.2084  1.1088  1.6015
  320MOL0     H43175   3.772   3.168   6.115  1.1563  1.9532  0.2386
  320MOL0     H43176   3.851   3.057   6.354 -2.1785 -0.8179  0.5370
  320MOL0     H43177   3.774   3.200   6.425 -1.0188  0.7581 -0.0546
  320MOL0     H43178   3.919   3.358   6.319 -1.8714 -0.0850  2.6018
  320MOL0     H43179   4.015   3.236   6.391 -2.5687  1.5633  2.1798
  320MOL0     H43180   2.953   3.418   6.310 -0.9583 -0.5170 -0.7374
  320MOL0     H43181   2.779   3.577   6.282 -1.1801 -0.6302 -0.7427
  320MOL0     H43182   2.514   3.836   6.231  1.1025  0.9369  0.9584
  320MOL0     H43183   2.296   3.923   6.207 -0.0339 -0.8472 -0.0047
  320MOL0     H43184   0.804   3.470   5.285 -1.3767 -2.0180 -0.3089
  320MOL0     H43185   0.561   3.468   5.262  0.1986 -0.3055  0.5845
  320MOL0     H43186   0.185   3.874   5.255 -2.0060  1.9184  1.4654
  320MOL0     H43187  -0.057   3.856   5.223 -1.7410  0.3390  0.7827
  320MOL0     H43188  -0.270   3.755   5.201  1.1195  3.6363 -0.1445
  320MOL0     H43189  -0.275   3.884   5.327  2.3583  0.4715 -0.7358
  320MOL0     H43190  -0.455   3.741   5.431  0.3985 -1.5689 -0.0812
  320MOL0     H43191  -0.439   3.628   5.299 -0.0750 -0.4377  0.1627
  320MOL0     H43192  -0.498   3.813   5.132 -0.2911  0.1888  0.4781
  320MOL0     H43193  -0.502   3.934   5.262  2.0178  0.7474 -3.0683
  320MOL0     H43194  -0.690   3.689   5.267  1.9162 -0.3260 -0.7977
  320MOL0     H43195  -0.718   3.827   5.364 -1.3180  0.1269 -0.1307
  320MOL0     H43196  -0.865   3.963   4.999 -1.2847 -0.4963  0.9498
  320MOL0     H43197  -0.084   3.538   5.515 -2.3759  1.7245 -1.9508
  320MOL0     H43198   0.251   3.430   5.490  0.2172  0.8001 -0.6994
  320MOL0     H43199   0.240   3.528   5.628  0.7360 -0.9963 -0.9337
  320MOL0     H43200   0.101   3.421   5.584 -0.7638 -0.2408 -1.1758
  321MOL0     O43201  10.552   6.224   2.434  0.0458  0.0506 -0.0716
  321MOL0     C43202  10.510   6.127   2.496  0.2105  1.1336  0.2480
  321MOL0     O43203  10.592   6.027   2.555  0.0021 -0.2551 -0.2080
  321MOL0     C43204  10.720   6.036   2.517 -0.2408 -0.1583 -0.0990
  321MOL0     C43205  10.806   6.130   2.585  0.2807 -0.1730  0.3708
  321MOL0     C43206  10.931   6.135   2.527  0.2240 -0.7093  0.1543
  321MOL0     C43207  10.976   6.063   2.412  0.2027  0.6521 -0.3376
  321MOL0     O43208  11.099   6.090   2.366  0.0654 -0.7861  0.2497
  321MOL0     C43209  11.137   6.051   2.233 -0.4168 -0.2419 -0.0512
  321MOL0     C43210  11.279   6.111   2.188 -0.7534 -0.3026  0.1378
  321MOL0     C43211  11.335   6.065   2.049 -0.5958 -0.3777 -0.4473
  321MOL0     C43212  11.263   6.131   1.932 -0.5266  0.1114  0.9303
  321MOL0     C43213  11.293   6.071   1.799  0.3280 -0.0934  0.5271
  321MOL0     C43214  11.180   6.109   1.703 -0.0070  0.0722 -0.4191
  321MOL0     C43215  11.198   6.037   1.571 -0.2746  0.5617 -1.6240
  321MOL0     C43216  11.119   6.112   1.464 -0.0683 -0.1531  0.0515
  321MOL0     N43217  11.121   6.039   1.337  0.3046 -0.2397  0.0438
  321MOL0     C43218  11.235   5.991   1.279  0.9810 -0.2950  0.6478
  321MOL0     C43219  11.193   5.913   1.168 -0.2710  0.5711 -0.7204
  321MOL0     C43220  11.277   5.814   1.082 -0.6394 -0.0870 -0.6294
  321MOL0     C43221  11.414   5.870   1.030 -0.5693 -0.0713  0.3777
  321MOL0     C43222  11.487   5.760   0.946  0.5174 -0.0579  0.6643
  321MOL0     C43223  11.635   5.782   0.938 -0.1731  0.3123  0.6582
  321MOL0     O43224  11.711   5.796   1.061  0.9578  0.8144  0.5824
  321MOL0     C43225  11.846   5.800   1.051  0.4727  1.2787 -0.1502
  321MOL0     C43226  11.918   5.743   1.157 -0.7699 -0.7652 -0.8239
  321MOL0     C43227  12.056   5.739   1.160  0.6922 -0.7740  1.1149
  321MOL0     C43228  12.132   5.779   1.048  0.0267  0.1112  0.1214
  321MOL0     C43229  12.282   5.770   1.052  0.3575 -0.1472  0.1281
  321MOL0     O43230  12.345   5.773   0.940 -0.3241 -0.2825  0.4268
  321MOL0     C43231  12.475   5.812   0.937  1.0670 -0.6943  0.8016
  321MOL0     C43232  12.544   5.803   0.812  0.4085  0.2504 -0.2180
  321MOL0     C43233  12.680   5.842   0.801 -0.1500 -0.0140  0.7144
  321MOL0     C43234  12.754   5.889   0.910  0.6003 -0.0059  0.4381
  321MOL0     O43235  12.886   5.924   0.892  0.1662 -0.0462  0.6445
  321MOL0     C43236  12.938   5.973   0.770 -0.0742  0.7663  0.2502
  321MOL0     C43237  13.062   6.056   0.794 -0.7932 -0.4092  0.0423
  321MOL0     C43238  13.035   6.183   0.872  0.3450  0.3679 -0.7667
  321MOL0     C43239  13.163   6.268   0.878  0.2531  0.6062  0.4494
  321MOL0     C43240  13.166   6.397   0.964  1.2527  0.3453 -0.9750
  321MOL0     C43241  13.091   6.519   0.905 -0.0715  0.0643  0.3993
  321MOL0     C43242  13.120   6.642   0.993  0.2773 -0.2294  0.8954
  321MOL0     C43243  13.042   6.764   0.941 -0.2872  0.2791  0.1103
  321MOL0    Cl43244  13.072   6.910   1.052 -0.2045  0.1432 -0.0862
  321MOL0     C43245  12.685   5.909   1.024 -0.2099 -0.3829  0.0065
  321MOL0     C43246  12.552   5.868   1.043 -1.1648  0.2250 -0.4121
  321MOL0     O43247  12.333   5.745   1.162  0.0004 -0.3052  1.0451
  321MOL0     C43248  12.063   5.830   0.937  0.0477  0.0858 -0.1542
  321MOL0     C43249  11.923   5.853   0.947  0.3480 -0.1092  0.3513
  321MOL0     N43250  11.059   5.926   1.168 -0.6071  0.0596  0.2759
  321MOL0     N43251  11.012   6.006   1.265  0.2893 -0.1082  0.2214
  321MOL0     C43252  10.887   5.972   2.353 -0.0457  0.1146  0.3043
  321MOL0     C43253  10.762   5.958   2.405  1.0787  0.0883 -0.0962
  321MOL0     C43254  10.368   6.114   2.530 -0.4626  0.3870  0.9452
  321MOL0     C43255  10.319   6.232   2.593 -1.0347  0.3869  0.0391
  321MOL0     C43256  10.188   6.225   2.640  0.1407  0.7781 -0.0367
  321MOL0     C43257  10.111   6.108   2.637 -0.2371 -0.9073  0.4514
  321MOL0     O43258   9.987   6.115   2.689  0.2367 -0.4420 -0.3484
  321MOL0     C43259   9.902   6.005   2.686 -0.4919 -0.5375 -1.2403
  321MOL0     C43260   9.824   5.996   2.565 -0.2152  0.3768  0.0954
  321MOL0     C43261   9.758   5.855   2.549  0.1481  0.2035  0.0392
  321MOL0     C43262   9.667   5.819   2.663  0.5610  0.0800 -0.3573
  321MOL0     C43263   9.584   5.706   2.618  0.0316  0.3082 -0.1904
  321MOL0     C43264   9.515   5.616   2.582  0.7128  0.7318 -0.1070
  321MOL0     C43265  10.158   5.994   2.571 -0.7705  0.4297  0.9421
  321MOL0     C43266  10.289   6.004   2.515  0.3405 -0.2467  0.0897
  321MOL0     C43267  10.339   5.880   2.443 -0.0573 -1.1895 -1.1209
  321MOL0     H43268  10.774   6.192   2.668 -2.1037 -0.1636 -0.4797
  321MOL0     H43269  11.005   6.189   2.585  1.7509 -2.9154  0.3410
  321MOL0     H43270  11.137   5.944   2.213 -1.2527 -0.1031 -0.9265
  321MOL0     H43271  11.052   6.066   2.166 -2.1967 -0.8399  1.9514
  321MOL0     H43272  11.345   6.071   2.264  0.4353 -4.1099 -2.6148
  321MOL0     H43273  11.272   6.221   2.188 -0.2909 -0.2159  3.0512
  321MOL0     H43274  11.332   5.956   2.042  5.7791 -1.0911  1.4026
  321MOL0     H43275  11.440   6.092   2.039 -0.4060 -1.1939 -0.7113
  321MOL0     H43276  11.156   6.123   1.949 -0.9947 -1.9665 -2.1224
  321MOL0     H43277  11.279   6.239   1.934 -1.2741  0.2209  1.3858
  321MOL0     H43278  11.384   6.115   1.757  0.4935  0.5930  1.5485
  321MOL0     H43279  11.301   5.962   1.810 -2.4824 -0.5711 -1.2198
  321MOL0     H43280  11.081   6.079   1.739  0.2154 -0.5370 -0.3044
  321MOL0     H43281  11.172   6.216   1.683 -1.1901  0.4442  1.7946
  321MOL0     H43282  11.173   5.931   1.584 -1.7685  1.1381  0.6579
  321MOL0     H43283  11.303   6.048   1.540 -0.0360 -0.7212 -1.3697
  321MOL0     H43284  11.013   6.113   1.492 -0.4808 -0.8753 -1.4097
  321MOL0     H43285  11.154   6.213   1.442  0.1038 -0.2689 -0.2001
  321MOL0     H43286  11.336   6.006   1.315  0.9209  0.2685  0.5879
  321MOL0     H43287  11.292   5.721   1.138 -0.3294  1.1687  1.4697
  321MOL0     H43288  11.222   5.787   0.991  0.8566 -0.1314 -1.5422
  321MOL0     H43289  11.401   5.962   0.973  0.5415  0.5004  1.0263
  321MOL0     H43290  11.477   5.898   1.115 -0.3552 -0.5300  0.3726
  321MOL0     H43291  11.434   5.757   0.850  0.1338 -0.3687  0.8872
  321MOL0     H43292  11.466   5.660   0.985 -2.9550 -0.1179 -1.0039
  321MOL0     H43293  11.662   5.865   0.871  2.1120 -0.9284 -0.0267
  321MOL0     H43294  11.670   5.688   0.895 -1.5771 -0.4533  1.1067
  321MOL0     H43295  11.868   5.705   1.246  0.5781  0.4728  0.5422
  321MOL0     H43296  12.114   5.696   1.241  2.2288  0.6215  0.8176
  321MOL0     H43297  12.481   5.767   0.731 -0.5161  2.2308 -0.4314
  321MOL0     H43298  12.738   5.826   0.710 -0.8210 -1.9979  0.5839
  321MOL0     H43299  12.965   5.893   0.701 -1.3551 -0.1847  0.8171
  321MOL0     H43300  12.851   6.022   0.726 -0.7016  2.1477  2.7968
  321MOL0     H43301  13.127   5.991   0.853  0.8710 -0.5999 -1.8753
  321MOL0     H43302  13.118   6.075   0.701  0.7447 -0.0034  1.0215
  321MOL0     H43303  12.957   6.246   0.828 -1.9240 -0.5332  1.7130
  321MOL0     H43304  13.006   6.159   0.975  0.3944  0.2589 -0.7783
  321MOL0     H43305  13.174   6.287   0.770 -1.7630 -1.0754 -0.1310
  321MOL0     H43306  13.244   6.204   0.913 -0.0484  0.9970  1.8930
  321MOL0     H43307  13.272   6.419   0.980  1.2181 -0.6802  0.9825
  321MOL0     H43308  13.119   6.371   1.059 -0.6901 -2.4585 -2.5440
  321MOL0     H43309  13.119   6.524   0.800 -0.2896 -2.6989  0.1232
  321MOL0     H43310  12.984   6.499   0.905  0.2252 -1.9084 -1.4238
  321MOL0     H43311  13.227   6.661   1.007  0.4691  1.3946 -1.9743
  321MOL0     H43312  13.077   6.610   1.088  0.2878 -2.6575  0.1704
  321MOL0     H43313  13.084   6.788   0.843  0.6766 -0.4404  0.3324
  321MOL0     H43314  12.934   6.752   0.949 -0.4771  2.1598  0.9891
  321MOL0     H43315  12.745   5.959   1.100  1.4724 -1.9940 -0.1840
  321MOL0     H43316  12.515   5.899   1.140  2.0716  4.3441 -0.2303
  321MOL0     H43317  12.118   5.862   0.850 -0.0365 -0.6067 -0.4684
  321MOL0     H43318  11.882   5.913   0.867 -2.9565  0.8778  2.5883
  321MOL0     H43319  10.908   5.918   2.261 -0.8185  0.2704  0.0308
  321MOL0     H43320  10.690   5.893   2.356 -0.7457  0.2648  2.2275
  321MOL0     H43321  10.377   6.323   2.595 -2.0258  1.0345  0.2457
  321MOL0     H43322  10.158   6.310   2.700  1.3419  1.8167 -0.8295
  321MOL0     H43323   9.839   6.027   2.773 -0.1930 -1.2304 -0.8504
  321MOL0     H43324   9.951   5.909   2.701  0.8067  0.2627 -0.1531
  321MOL0     H43325   9.884   6.010   2.475 -0.9552 -0.6002 -0.5785
  321MOL0     H43326   9.736   6.060   2.557 -0.0904  0.3586 -2.2492
  321MOL0     H43327   9.833   5.775   2.542 -0.1232 -0.2052  1.4420
  321MOL0     H43328   9.699   5.855   2.457 -0.0053  0.8673  0.1370
  321MOL0     H43329   9.712   5.786   2.756  0.3028  0.8460  0.0485
  321MOL0     H43330   9.600   5.903   2.686  3.2277  2.0833  0.5810
  321MOL0     H43331   9.441   5.542   2.557  1.6326 -0.2083 -0.1212
  321MOL0     H43332  10.100   5.904   2.556 -1.9012  1.0779  1.2998
  321MOL0     H43333  10.429   5.841   2.491 -0.6288  0.5461  1.5717
  321MOL0     H43334  10.268   5.796   2.445 -2.0114  0.3934 -0.0088
  321MOL0     H43335  10.368   5.901   2.340  0.2966 -1.1043 -1.0056
  322MOL0     O43336   0.015   8.821   4.542  0.6203 -0.4918 -0.0818
  322MOL0     C43337  -0.077   8.901   4.559  0.0406 -0.9552 -0.5526
  322MOL0     O43338  -0.066   9.036   4.584  0.0571 -0.2906  0.1801
  322MOL0     C43339   0.040   9.085   4.653 -0.1021  0.0002  0.5008
  322MOL0     C43340   0.013   9.147   4.770 -0.6309 -0.1355 -0.4701
  322MOL0     C43341   0.124   9.196   4.839  0.1675 -0.9078  0.0853
  322MOL0     C43342   0.251   9.198   4.785 -0.4944 -0.2087 -0.0305
  322MOL0     O43343   0.347   9.271   4.852 -0.1958 -0.6109  0.0266
  322MOL0     C43344   0.457   9.330   4.787 -0.0986  0.7223  1.1379
  322MOL0     C43345   0.522   9.441   4.879  0.2162  0.8890  0.6759
  322MOL0     C43346   0.632   9.374   4.972 -0.3949  0.2032 -0.6575
  322MOL0     C43347   0.676   9.489   5.064  0.1205 -0.0859 -0.4194
  322MOL0     C43348   0.791   9.447   5.151  0.5658  0.5105  0.1958
  322MOL0     C43349   0.851   9.563   5.235  0.5326 -0.2927  0.2778
  322MOL0     C43350   0.894   9.692   5.158 -0.8814  0.3025  0.7810
  322MOL0     C43351   0.985   9.669   5.038  0.2251  0.0267  0.2399
  322MOL0     N43352   1.111   9.608   5.076 -0.1418  0.2965 -0.3000
  322MOL0     C43353   1.213   9.671   5.141 -0.2675  0.7567 -0.1198
  322MOL0     C43354   1.318   9.587   5.145 -0.7723 -0.0670 -0.1995
  322MOL0     C43355   1.451   9.627   5.196 -0.3704  0.3136 -0.3402
  322MOL0     C43356   1.451   9.730   5.308  0.1812 -0.0506 -0.0773
  322MOL0     C43357   1.566   9.749   5.410 -0.1188 -0.0330 -0.4675
  322MOL0     C43358   1.698   9.790   5.338  1.3060  0.1721 -0.5098
  322MOL0     O43359   1.797   9.840   5.428  0.6452 -0.2644  0.1485
  322MOL0     C43360   1.932   9.843   5.404  0.7068 -0.0714  0.9161
  322MOL0     C43361   2.011   9.873   5.517  0.4384 -0.7294 -0.1914
  322MOL0     C43362   2.150   9.868   5.517  0.6820 -0.2566  0.2500
  322MOL0     C43363   2.215   9.836   5.396 -1.1821 -0.8533 -0.0800
  322MOL0     C43364   2.366   9.840   5.382  0.0277  0.1263  0.1128
  322MOL0     O43365   2.419   9.824   5.259 -0.4570  0.0997 -0.2120
  322MOL0     C43366   2.559   9.838   5.245  0.2448  0.3510 -0.5077
  322MOL0     C43367   2.645   9.730   5.211  0.5755 -0.7760 -0.8626
  322MOL0     C43368   2.777   9.763   5.171 -0.0336  0.6872 -0.5266
  322MOL0     C43369   2.821   9.896   5.173  0.4832 -0.5385 -0.0934
  322MOL0     O43370   2.940   9.949   5.139  0.2670  0.5446  0.1649
  322MOL0     C43371   3.023   9.862   5.069 -1.1411 -0.6663  0.1745
  322MOL0     C43372   3.145   9.945   5.034 -0.6329 -0.2699 -0.3961
  322MOL0     C43373   3.261   9.904   5.123 -0.3264  0.0555 -0.0048
  322MOL0     C43374   3.382  10.002   5.121  0.1718  0.1781 -0.9389
  322MOL0     C43375   3.490   9.970   5.215 -0.2571 -0.1118  0.1410
  322MOL0     C43376   3.602  10.073   5.227  0.0136 -0.2741  0.5721
  322MOL0     C43377   3.703  10.042   5.347  1.3119 -1.0372 -0.0044
  322MOL0     C43378   3.822  10.137   5.349  0.3028  0.2825 -0.0685
  322MOL0    Cl43379   3.939  10.094   5.492  0.2914 -0.1463  0.0246
  322MOL0     C43380   2.737   9.998   5.222 -0.0780  0.7995  1.2803
  322MOL0     C43381   2.606   9.966   5.257 -0.0959  1.0773  1.2380
  322MOL0     O43382   2.429   9.850   5.491  0.1813  0.3977  0.0889
  322MOL0     C43383   2.138   9.813   5.279 -0.3360  0.5877 -0.0859
  322MOL0     C43384   1.995   9.825   5.284 -0.9244  0.2211  0.7776
  322MOL0     N43385   1.280   9.468   5.080  0.4653  0.4159  0.1107
  322MOL0     N43386   1.155   9.486   5.040 -0.6094 -0.6680 -0.1855
  322MOL0     C43387   0.274   9.144   4.666 -0.4753  0.3442  0.7008
  322MOL0     C43388   0.173   9.081   4.597  0.8015  0.5998 -0.5926
  322MOL0     C43389  -0.209   8.855   4.546 -0.3468 -0.0462  0.3110
  322MOL0     C43390  -0.258   8.750   4.630 -0.1175 -0.5785  0.3226
  322MOL0     C43391  -0.382   8.699   4.606 -0.1429  0.3311  0.5782
  322MOL0     C43392  -0.463   8.731   4.495  0.6127 -0.2852  0.1736
  322MOL0     O43393  -0.585   8.669   4.467  0.4570  0.5438 -0.2943
  322MOL0     C43394  -0.642   8.577   4.557  0.4654 -1.0609  0.1061
  322MOL0     C43395  -0.798   8.587   4.546  0.8898  0.0919 -0.1134
  322MOL0     C43396  -0.843   8.586   4.397  0.4248 -0.2883  0.0133
  322MOL0     C43397  -0.984   8.528   4.399  0.6101  0.5748 -0.2984
  322MOL0     C43398  -1.028   8.508   4.263  0.7838 -0.2185  0.9585
  322MOL0     C43399  -1.055   8.500   4.138  0.1894  0.2130 -0.4387
  322MOL0     C43400  -0.424   8.844   4.422 -0.3156 -0.8016  0.7715
  322MOL0     C43401  -0.294   8.903   4.438  0.6917  0.0132  0.3600
  322MOL0     C43402  -0.267   9.016   4.355 -0.0861 -0.3862  1.2177
  322MOL0     H43403  -0.084   9.162   4.815  0.6174  1.3460  1.9265
  322MOL0     H43404   0.107   9.245   4.934 -1.1283  0.2492 -0.7203
  322MOL0     H43405   0.523   9.249   4.757 -1.0981 -0.4550  2.0314
  322MOL0     H43406   0.416   9.381   4.699 -1.6383 -1.1122  0.7440
  322MOL0     H43407   0.448   9.495   4.939 -0.7781  0.2288  0.0869
  322MOL0     H43408   0.560   9.515   4.809  1.0332  2.1010  2.3253
  322MOL0     H43409   0.718   9.346   4.910  0.9217 -0.4956  1.3960
  322MOL0     H43410   0.598   9.285   5.026  0.2974  0.5589  0.3748
  322MOL0     H43411   0.706   9.569   4.996  1.9949  3.3739  3.9739
  322MOL0     H43412   0.587   9.513   5.123 -0.7384 -2.9706 -0.3942
  322MOL0     H43413   0.741   9.378   5.220 -3.8765  1.4457 -1.7794
  322MOL0     H43414   0.866   9.389   5.098 -0.0710 -1.2506  1.1281
  322MOL0     H43415   0.782   9.602   5.310 -0.5900  1.8079 -1.7261
  322MOL0     H43416   0.926   9.512   5.296  1.0989  1.8149  1.4570
  322MOL0     H43417   0.952   9.745   5.234  2.3331 -2.9099  0.8241
  322MOL0     H43418   0.808   9.756   5.134 -0.2272  1.2294  0.8276
  322MOL0     H43419   0.934   9.613   4.959  0.7835  0.4819 -0.4525
  322MOL0     H43420   1.018   9.765   4.997  1.0763  0.9128  2.8134
  322MOL0     H43421   1.205   9.773   5.178 -3.7554  0.2580  0.9050
  322MOL0     H43422   1.499   9.535   5.228 -0.3839 -0.3385 -2.1034
  322MOL0     H43423   1.508   9.661   5.109 -1.4166  3.6093  0.0839
  322MOL0     H43424   1.438   9.825   5.254 -1.4711 -0.2384 -0.0799
  322MOL0     H43425   1.359   9.710   5.364  1.4636 -0.5213  1.9913
  322MOL0     H43426   1.577   9.662   5.477  0.2440  0.2637 -0.1420
  322MOL0     H43427   1.536   9.834   5.471  0.7699 -0.6333  0.8460
  322MOL0     H43428   1.662   9.877   5.281 -1.1715 -0.8046 -0.5639
  322MOL0     H43429   1.727   9.707   5.273  2.1635  0.5213 -0.5919
  322MOL0     H43430   1.959   9.885   5.612 -1.9569  0.3397 -1.5540
  322MOL0     H43431   2.207   9.894   5.605 -0.3363 -0.2478  0.9165
  322MOL0     H43432   2.606   9.628   5.207  1.3665 -1.0679 -1.3732
  322MOL0     H43433   2.832   9.672   5.146 -0.8434  0.3416 -1.1168
  322MOL0     H43434   3.044   9.774   5.130 -3.3652  1.2639  4.0817
  322MOL0     H43435   2.978   9.834   4.973 -2.6223  1.4566  0.1819
  322MOL0     H43436   3.175   9.930   4.930  1.0804  0.1576  0.0006
  322MOL0     H43437   3.126  10.052   5.048 -0.9740 -0.5414  1.4379
  322MOL0     H43438   3.208   9.904   5.219 -1.0621  1.0814 -0.3919
  322MOL0     H43439   3.296   9.801   5.113 -1.0948 -0.5404  2.6491
  322MOL0     H43440   3.346  10.101   5.148 -0.5448 -0.4853  0.6249
  322MOL0     H43441   3.422  10.013   5.019 -0.8264 -0.0552 -1.3637
  322MOL0     H43442   3.537   9.878   5.180  0.2368 -0.3603  1.4063
  322MOL0     H43443   3.452   9.945   5.315  2.3692  1.2312  1.5880
  322MOL0     H43444   3.655  10.079   5.132 -0.6287 -0.9681  0.1576
  322MOL0     H43445   3.552  10.169   5.246 -4.4501 -2.3968  0.8849
  322MOL0     H43446   3.736   9.938   5.343 -1.2732 -1.9690  0.7205
  322MOL0     H43447   3.634  10.051   5.432 -0.0516 -1.4477 -1.0338
  322MOL0     H43448   3.877  10.118   5.256  1.0999  0.9422  0.2552
  322MOL0     H43449   3.794  10.242   5.358  1.3780  0.4945  0.9902
  322MOL0     H43450   2.775  10.099   5.233  2.5775 -0.1192  1.1666
  322MOL0     H43451   2.534  10.044   5.282 -1.8785 -0.1235  0.0811
  322MOL0     H43452   2.183   9.785   5.184  1.0831 -1.4840  1.1206
  322MOL0     H43453   1.934   9.820   5.195 -0.9787  0.8296  0.7768
  322MOL0     H43454   0.375   9.142   4.627 -0.3237  0.6152  1.0705
  322MOL0     H43455   0.181   9.030   4.502 -1.3869  0.3322 -0.6872
  322MOL0     H43456  -0.190   8.713   4.705 -0.2824 -1.8815 -0.1323
  322MOL0     H43457  -0.413   8.622   4.676 -1.4560 -0.4243 -0.7882
  322MOL0     H43458  -0.609   8.595   4.659  0.7282 -2.4289  0.2831
  322MOL0     H43459  -0.597   8.480   4.534  1.8977 -0.8223  1.7751
  322MOL0     H43460  -0.832   8.683   4.587  0.0225  0.7513 -2.2150
  322MOL0     H43461  -0.844   8.500   4.593  0.2579  1.2478  1.5151
  322MOL0     H43462  -0.771   8.527   4.340 -1.0744 -1.0376 -1.1744
  322MOL0     H43463  -0.850   8.691   4.369  0.2575 -0.0225  0.9965
  322MOL0     H43464  -0.985   8.431   4.450  1.3983  1.0895  0.7278
  322MOL0     H43465  -1.058   8.595   4.442 -0.3705 -0.5974 -0.1259
  322MOL0     H43466  -1.072   8.507   4.032  2.8237 -1.1906 -1.0260
  322MOL0     H43467  -0.480   8.883   4.338 -1.5419  0.0941  1.9500
  322MOL0     H43468  -0.275   8.988   4.249  2.9350 -0.7220  0.9834
  322MOL0     H43469  -0.333   9.101   4.373  0.6540  0.1623  1.3840
  322MOL0     H43470  -0.168   9.061   4.364 -0.4633  0.5479  0.8082
  323MOL0     O43471   8.657   0.321   8.427 -0.1203 -0.2769 -0.0272
  323MOL0     C43472   8.599   0.424   8.389 -0.4605  0.1278  0.1561
  323MOL0     O43473   8.661   0.520   8.322  0.1620  0.1644 -0.2079
  323MOL0     C43474   8.796   0.506   8.290 -0.2411 -0.0504  1.0326
  323MOL0     C43475   8.903   0.511   8.376 -0.2671  0.3287 -0.0595
  323MOL0     C43476   9.033   0.492   8.329 -0.3551 -0.5868  0.0798
  323MOL0     C43477   9.064   0.487   8.196 -0.4628 -0.2937 -0.9372
  323MOL0     O43478   9.198   0.489   8.161 -0.3208 -0.0946 -0.0311
  323MOL0     C43479   9.246   0.407   8.055  0.7205  0.3736  0.2551
  323MOL0     C43480   9.390   0.361   8.079  0.0729  0.0800 -1.1687
  323MOL0     C43481   9.495   0.471   8.093  0.0922  0.0417 -1.0065
  323MOL0     C43482   9.636   0.421   8.094  1.4689  0.2139 -0.7440
  323MOL0     C43483   9.735   0.534   8.067  0.1244  0.1794 -0.1904
  323MOL0     C43484   9.875   0.484   8.075 -0.0216 -0.3244 -0.0627
  323MOL0     C43485   9.967   0.612   8.084  0.6299  0.2858 -0.8291
  323MOL0     C43486  10.106   0.561   8.096  0.4163 -0.5582 -0.2620
  323MOL0     N43487  10.198   0.675   8.112 -0.5875  0.2567  0.8145
  323MOL0     C43488  10.242   0.754   8.010 -0.0839 -0.4714 -0.4454
  323MOL0     C43489  10.308   0.861   8.071  0.6782  0.5068 -0.1841
  323MOL0     C43490  10.350   0.986   8.012  0.4749  0.2249 -0.0243
  323MOL0     C43491  10.493   1.022   8.029 -0.1402  0.5092 -0.3678
  323MOL0     C43492  10.594   0.928   7.960  0.1233  0.0192  0.8548
  323MOL0     C43493  10.729   0.985   7.975  0.4769  1.0542  0.5183
  323MOL0     O43494  10.784   0.955   8.098  0.5669 -0.1291 -0.0368
  323MOL0     C43495  10.877   1.060   8.138  0.2243 -0.0846 -0.8268
  323MOL0     C43496  10.997   1.079   8.068 -0.1047 -0.4726  0.3693
  323MOL0     C43497  11.088   1.173   8.108  0.4290 -0.1730 -0.8352
  323MOL0     C43498  11.063   1.249   8.229 -0.0356  1.2740 -0.1725
  323MOL0     C43499  11.167   1.348   8.278 -0.0425 -0.6309 -0.2488
  323MOL0     O43500  11.264   1.396   8.193  0.6460  0.5642  0.3975
  323MOL0     C43501  11.389   1.438   8.241 -0.9059  0.1840 -0.0737
  323MOL0     C43502  11.470   1.501   8.146  0.6413 -0.1444  0.2353
  323MOL0     C43503  11.593   1.554   8.180 -0.2786  0.1986  0.1594
  323MOL0     C43504  11.644   1.528   8.304 -0.0415 -0.0870  0.0752
  323MOL0     O43505  11.769   1.564   8.352 -0.5566 -0.0748  0.2203
  323MOL0     C43506  11.852   1.666   8.290  0.1861  0.3689 -0.9437
  323MOL0     C43507  11.954   1.728   8.396 -0.2320  0.2944  0.2435
  323MOL0     C43508  12.073   1.791   8.325 -0.5555 -0.1420 -0.2904
  323MOL0     C43509  12.165   1.880   8.422  0.5662 -0.2718 -0.1374
  323MOL0     C43510  12.287   1.924   8.344 -0.0833  0.3529  0.7899
  323MOL0     C43511  12.379   1.985   8.451 -0.0162 -0.1987 -0.1468
  323MOL0     C43512  12.498   2.052   8.383 -0.1700  0.2633 -0.5923
  323MOL0     C43513  12.615   2.082   8.475 -0.1136  0.8415  0.3698
  323MOL0    Cl43514  12.590   2.196   8.609 -0.2380  0.2838 -0.0769
  323MOL0     C43515  11.568   1.466   8.401 -0.9053 -0.7563 -0.4536
  323MOL0     C43516  11.440   1.420   8.372 -0.5502 -0.4766  0.1942
  323MOL0     O43517  11.135   1.404   8.381  0.0841  0.3725 -0.0100
  323MOL0     C43518  10.955   1.217   8.309  0.4235 -0.0429  0.5828
  323MOL0     C43519  10.862   1.128   8.254  1.0696  0.0320 -0.3420
  323MOL0     N43520  10.298   0.843   8.204  0.6618  0.0922 -0.0485
  323MOL0     N43521  10.236   0.734   8.229 -0.0569 -0.2534 -0.2365
  323MOL0     C43522   8.956   0.487   8.110  0.3039  0.3798  0.8031
  323MOL0     C43523   8.826   0.487   8.153 -0.1179 -0.5297  0.7539
  323MOL0     C43524   8.450   0.421   8.387 -0.1333 -0.7345  0.6574
  323MOL0     C43525   8.387   0.514   8.302  0.2652  0.3616  0.3434
  323MOL0     C43526   8.247   0.512   8.290  0.5870 -0.3133 -0.2945
  323MOL0     C43527   8.168   0.421   8.349 -0.5295  0.1778  0.1333
  323MOL0     O43528   8.036   0.439   8.328 -0.1916  0.0325 -0.0336
  323MOL0     C43529   7.954   0.347   8.395  0.8693  0.5150  1.6056
  323MOL0     C43530   7.807   0.369   8.360  0.3293  0.1794 -0.4367
  323MOL0     C43531   7.716   0.285   8.450 -0.0725  0.7835 -0.7650
  323MOL0     C43532   7.571   0.308   8.416 -0.2298 -0.7848 -0.6895
  323MOL0     C43533   7.489   0.244   8.521 -0.6655  0.5831 -0.1417
  323MOL0     C43534   7.421   0.211   8.619 -0.0534 -0.6110  0.0634
  323MOL0     C43535   8.227   0.328   8.435 -0.0502  0.3123 -1.3516
  323MOL0     C43536   8.362   0.327   8.460  0.7834 -0.2011  0.6846
  323MOL0     C43537   8.413   0.208   8.537  0.0189  0.1510  0.5780
  323MOL0     H43538   8.878   0.529   8.480 -0.7823  1.7056 -0.4022
  323MOL0     H43539   9.126   0.491   8.385  3.6102  3.3999 -5.3478
  323MOL0     H43540   9.187   0.317   8.036  3.2259 -1.7763  1.8774
  323MOL0     H43541   9.236   0.466   7.963 -1.2555 -1.4709 -0.7914
  323MOL0     H43542   9.430   0.303   7.995  3.7616  0.4812  0.1085
  323MOL0     H43543   9.397   0.300   8.170  2.4246  1.0135 -0.6447
  323MOL0     H43544   9.475   0.528   8.185  2.4634 -0.8948  0.1572
  323MOL0     H43545   9.494   0.540   8.008  1.2068 -1.6492 -2.4677
  323MOL0     H43546   9.662   0.361   8.182  2.4126 -0.7921 -1.6730
  323MOL0     H43547   9.653   0.361   8.004  1.7581 -0.7200 -0.0864
  323MOL0     H43548   9.713   0.582   7.972  1.0098  1.1215  0.0654
  323MOL0     H43549   9.714   0.608   8.144 -0.2699 -1.0695  0.9489
  323MOL0     H43550   9.876   0.409   8.154 -3.9932 -0.7144 -0.1929
  323MOL0     H43551   9.893   0.420   7.988 -1.9385  0.4031 -1.0503
  323MOL0     H43552   9.934   0.654   8.180  1.5491  0.8753 -0.7602
  323MOL0     H43553   9.962   0.687   8.005  0.6487  2.9938  1.5773
  323MOL0     H43554  10.112   0.492   8.180  1.1643 -2.6636 -1.9610
  323MOL0     H43555  10.135   0.506   8.007  3.1074  0.8499 -0.3674
  323MOL0     H43556  10.220   0.743   7.904 -0.3699  0.2594 -0.4676
  323MOL0     H43557  10.322   0.978   7.907  0.2234 -3.0116  0.1770
  323MOL0     H43558  10.293   1.068   8.057  0.7434 -0.5549  1.8539
  323MOL0     H43559  10.507   1.127   8.002 -0.9556  1.5084  2.7677
  323MOL0     H43560  10.518   1.010   8.135  0.3238 -1.3862 -0.6466
  323MOL0     H43561  10.560   0.918   7.857  0.1753 -0.1650  0.8552
  323MOL0     H43562  10.588   0.829   8.007  2.4187 -0.2036  0.7600
  323MOL0     H43563  10.738   1.092   7.954 -0.2960  1.1196  0.5110
  323MOL0     H43564  10.803   0.928   7.917 -1.0671 -1.3116  0.7314
  323MOL0     H43565  11.009   1.024   7.975 -2.8750  0.3382 -0.5544
  323MOL0     H43566  11.174   1.198   8.047  1.0063 -0.2283 -0.0586
  323MOL0     H43567  11.428   1.508   8.046 -0.3112 -3.2984  0.3206
  323MOL0     H43568  11.653   1.590   8.097 -0.0617 -2.9184 -1.1890
  323MOL0     H43569  11.902   1.631   8.199  3.8548 -0.9498  1.3637
  323MOL0     H43570  11.784   1.746   8.260  0.8630  2.6367  2.9501
  323MOL0     H43571  11.898   1.809   8.442 -0.7083  0.7240 -1.0555
  323MOL0     H43572  11.980   1.649   8.467 -1.4160 -0.7753 -0.4680
  323MOL0     H43573  12.132   1.706   8.292  3.7738  1.6639  2.0225
  323MOL0     H43574  12.038   1.842   8.234 -1.6399 -1.8878 -0.8949
  323MOL0     H43575  12.201   1.821   8.506  0.6034 -1.6359 -1.0749
  323MOL0     H43576  12.114   1.973   8.451  2.5334  1.2465 -1.2894
  323MOL0     H43577  12.264   2.001   8.268 -1.9231 -1.7088 -0.8744
  323MOL0     H43578  12.336   1.845   8.285 -1.7215  0.2518 -0.5046
  323MOL0     H43579  12.329   2.066   8.505 -0.9446  0.5601 -2.0622
  323MOL0     H43580  12.408   1.903   8.518 -1.6905 -1.4066 -0.8366
  323MOL0     H43581  12.472   2.148   8.336  0.8402  1.1058  0.4940
  323MOL0     H43582  12.526   1.989   8.298 -2.1248 -0.2620 -0.9006
  323MOL0     H43583  12.649   1.984   8.509 -0.0647  0.5811 -0.4183
  323MOL0     H43584  12.693   2.136   8.421  0.8557  2.2272  2.9696
  323MOL0     H43585  11.609   1.446   8.500 -1.2495 -1.3911 -0.4320
  323MOL0     H43586  11.395   1.379   8.462 -0.9820 -0.6276 -0.0872
  323MOL0     H43587  10.951   1.270   8.404  0.8538  1.7739 -0.3529
  323MOL0     H43588  10.780   1.091   8.315  0.0392  2.1873 -0.3345
  323MOL0     H43589   8.977   0.455   8.009  0.6243 -1.3937  1.3935
  323MOL0     H43590   8.752   0.475   8.074  1.4263 -1.5519 -0.6117
  323MOL0     H43591   8.438   0.591   8.245 -1.8913  1.2376 -0.5208
  323MOL0     H43592   8.200   0.595   8.238 -0.5845 -0.3582  0.6632
  323MOL0     H43593   7.964   0.358   8.503  0.2787  0.2812  1.6873
  323MOL0     H43594   7.971   0.242   8.368  1.4623  0.3237  2.6808
  323MOL0     H43595   7.798   0.341   8.254  1.3176 -1.1443 -0.2005
  323MOL0     H43596   7.784   0.475   8.373 -2.6514 -0.2955 -1.1226
  323MOL0     H43597   7.734   0.303   8.557 -2.0102 -1.8094  0.0834
  323MOL0     H43598   7.729   0.180   8.422 -3.4043 -0.2653  1.0488
  323MOL0     H43599   7.554   0.416   8.403  1.9083 -0.6154 -2.9025
  323MOL0     H43600   7.554   0.262   8.318 -0.3247 -0.6725 -0.7260
  323MOL0     H43601   7.373   0.184   8.711  2.4307 -0.8080  1.4037
  323MOL0     H43602   8.163   0.252   8.479 -0.8189  0.9933 -1.2666
  323MOL0     H43603   8.332   0.149   8.583 -0.4400  0.9419  0.8026
  323MOL0     H43604   8.468   0.145   8.466 -1.7319  0.6929 -1.3680
  323MOL0     H43605   8.491   0.246   8.604  0.6637  2.0048 -1.1314
  324MOL0     O43606   7.631   6.174   4.996  0.0910  0.0722  0.0154
  324MOL0     C43607   7.723   6.126   4.935  0.2552 -0.0537  0.0450
  324MOL0     O43608   7.720   6.011   4.856  0.6475 -0.6115 -0.1663
  324MOL0     C43609   7.601   5.941   4.870 -1.5905 -0.1140 -0.0075
  324MOL0     C43610   7.499   5.962   4.784  0.1058 -0.0484  0.0776
  324MOL0     C43611   7.378   5.891   4.790  0.2134  0.4216 -0.0135
  324MOL0     C43612   7.357   5.793   4.885 -0.3015  0.6285 -0.2297
  324MOL0     O43613   7.238   5.736   4.907  0.1907 -0.2734 -0.1944
  324MOL0     C43614   7.192   5.651   4.795  0.3516  0.1418  0.4392
  324MOL0     C43615   7.039   5.657   4.794 -0.3901 -0.1880  0.3709
  324MOL0     C43616   6.995   5.807   4.740  0.4286  0.8977  0.0706
  324MOL0     C43617   6.854   5.835   4.787 -0.5717  0.0410  0.3999
  324MOL0     C43618   6.792   5.954   4.705 -0.2414  0.7122  0.3465
  324MOL0     C43619   6.841   6.089   4.757 -0.7274 -0.3912 -0.3845
  324MOL0     C43620   6.767   6.203   4.688 -0.3087  0.9345 -0.2396
  324MOL0     C43621   6.794   6.341   4.747 -0.1226  0.4177  0.1314
  324MOL0     N43622   6.935   6.380   4.721  0.1877 -0.0273  0.0060
  324MOL0     C43623   6.995   6.480   4.790 -0.0383 -0.5256  0.2662
  324MOL0     C43624   7.120   6.489   4.741 -0.1009  0.4101 -1.2883
  324MOL0     C43625   7.228   6.594   4.768 -0.6118  0.3297  0.3232
  324MOL0     C43626   7.181   6.707   4.862 -0.1111  0.1705 -0.6218
  324MOL0     C43627   7.302   6.805   4.878  0.6829  0.1024 -0.4314
  324MOL0     C43628   7.256   6.945   4.926  0.6119 -1.0826  0.1533
  324MOL0     O43629   7.349   7.036   4.989  0.3277  0.0584 -1.2387
  324MOL0     C43630   7.458   7.084   4.920  1.1132  0.0853  1.0073
  324MOL0     C43631   7.559   7.137   5.002 -0.1731  0.5434 -0.9400
  324MOL0     C43632   7.668   7.198   4.940  0.7813 -1.3097 -0.0857
  324MOL0     C43633   7.682   7.205   4.800  0.4291  0.1097 -0.4308
  324MOL0     C43634   7.814   7.244   4.736 -0.1402 -0.1402 -0.2324
  324MOL0     O43635   7.918   7.246   4.828  0.1501 -0.3494 -0.1415
  324MOL0     C43636   8.048   7.297   4.816  0.8491  0.2210 -0.5470
  324MOL0     C43637   8.086   7.389   4.720  0.9702 -0.6354  0.2916
  324MOL0     C43638   8.221   7.436   4.719 -0.3491 -0.3254 -0.2053
  324MOL0     C43639   8.314   7.393   4.815  0.6226  0.2951  0.4799
  324MOL0     O43640   8.435   7.454   4.810 -0.2927 -0.1807  0.1353
  324MOL0     C43641   8.539   7.429   4.904  0.4017  0.1041 -0.0234
  324MOL0     C43642   8.658   7.492   4.850 -0.4262 -0.6952  0.2905
  324MOL0     C43643   8.777   7.473   4.954  0.2033 -0.7324 -0.5099
  324MOL0     C43644   8.913   7.526   4.905 -0.1900  0.6670  0.0144
  324MOL0     C43645   9.020   7.538   5.025 -0.0796  0.5930  0.1719
  324MOL0     C43646   9.148   7.600   4.961 -0.1061  0.2590 -0.0270
  324MOL0     C43647   9.259   7.620   5.056  0.2307  0.4154  0.8940
  324MOL0     C43648   9.385   7.669   4.984 -0.3803  0.5355  0.3738
  324MOL0    Cl43649   9.504   7.688   5.117 -0.1343 -0.1191 -0.4919
  324MOL0     C43650   8.282   7.290   4.905  0.0457 -0.3349 -0.1857
  324MOL0     C43651   8.148   7.245   4.907  0.1893 -0.0656  0.8658
  324MOL0     O43652   7.822   7.268   4.619  0.0393 -0.7111  0.6035
  324MOL0     C43653   7.582   7.155   4.718 -0.0129  0.2392 -0.5777
  324MOL0     C43654   7.465   7.103   4.778  0.5040 -0.1859  0.6973
  324MOL0     N43655   7.140   6.388   4.648 -0.2965 -0.5487 -0.1278
  324MOL0     N43656   7.025   6.330   4.631  0.7850  0.2723  0.0526
  324MOL0     C43657   7.459   5.779   4.974  1.2042  0.3732 -0.6508
  324MOL0     C43658   7.583   5.844   4.966  0.2260 -0.3260  0.2738
  324MOL0     C43659   7.850   6.199   4.935  0.2693  0.6311 -0.1725
  324MOL0     C43660   7.848   6.340   4.927 -0.2528 -0.0641  0.5187
  324MOL0     C43661   7.966   6.416   4.886  0.0889  0.5958 -0.2087
  324MOL0     C43662   8.087   6.355   4.859 -0.0948  0.1382 -0.0875
  324MOL0     O43663   8.200   6.413   4.803  0.4209 -0.0453  0.7689
  324MOL0     C43664   8.204   6.563   4.798  0.4953  0.1738  0.8127
  324MOL0     C43665   8.333   6.618   4.742  0.4925  0.1132  0.1313
  324MOL0     C43666   8.463   6.551   4.783 -0.5974  0.5922 -0.4635
  324MOL0     C43667   8.584   6.610   4.708 -0.5162 -0.2728  0.5043
  324MOL0     C43668   8.695   6.517   4.712 -0.1576  0.1529 -0.0248
  324MOL0     C43669   8.792   6.441   4.721 -0.3977 -0.0256  0.2465
  324MOL0     C43670   8.094   6.216   4.882  0.5873 -0.9998 -0.3555
  324MOL0     C43671   7.982   6.137   4.922  1.1952 -0.3450  0.8330
  324MOL0     C43672   7.994   5.990   4.938  0.2667 -0.2260  0.5705
  324MOL0     H43673   7.513   6.034   4.703 -0.6053 -1.8820 -1.7592
  324MOL0     H43674   7.303   5.926   4.719 -0.2907  1.6363  1.0809
  324MOL0     H43675   7.225   5.690   4.698 -0.9253 -1.6130 -0.7562
  324MOL0     H43676   7.233   5.551   4.811 -2.2503 -1.4932 -2.1413
  324MOL0     H43677   6.991   5.630   4.888 -1.2748 -4.6138 -1.1319
  324MOL0     H43678   7.009   5.581   4.721  0.7838  0.7878 -1.2246
  324MOL0     H43679   6.993   5.807   4.631 -0.0114 -0.1185  0.0667
  324MOL0     H43680   7.068   5.886   4.762  1.1569  1.0252 -2.4912
  324MOL0     H43681   6.800   5.740   4.784 -0.7475  0.0715 -3.8329
  324MOL0     H43682   6.858   5.866   4.892 -3.0671  0.1748  0.5206
  324MOL0     H43683   6.802   5.948   4.596  1.7652  1.1857  0.4783
  324MOL0     H43684   6.683   5.945   4.707 -0.3113 -1.4816 -3.0872
  324MOL0     H43685   6.822   6.094   4.865 -2.9224 -1.0279 -0.6952
  324MOL0     H43686   6.945   6.110   4.729 -0.3328 -1.5330  0.1345
  324MOL0     H43687   6.662   6.179   4.707 -0.2729  0.8414 -0.1614
  324MOL0     H43688   6.794   6.200   4.582  1.6842 -1.3342  0.2677
  324MOL0     H43689   6.724   6.415   4.709  0.8263  2.2987  1.8129
  324MOL0     H43690   6.789   6.337   4.856 -2.9305  1.4092  0.1106
  324MOL0     H43691   6.959   6.563   4.849  1.1027  0.8805 -0.9243
  324MOL0     H43692   7.309   6.539   4.818 -0.2175 -0.0996 -0.7622
  324MOL0     H43693   7.262   6.638   4.674  4.3130  0.3528  1.8442
  324MOL0     H43694   7.084   6.754   4.840 -0.6665  0.3278  1.8219
  324MOL0     H43695   7.162   6.668   4.963 -0.7272  1.6731 -0.1215
  324MOL0     H43696   7.360   6.815   4.786 -0.3408 -1.1854 -1.2563
  324MOL0     H43697   7.376   6.774   4.953  2.3829  0.4063 -1.9351
  324MOL0     H43698   7.176   6.932   5.000 -1.8605  1.2984 -1.8782
  324MOL0     H43699   7.214   6.990   4.835 -1.5565 -0.5614  1.3231
  324MOL0     H43700   7.547   7.130   5.110 -0.1725  0.6046 -0.9360
  324MOL0     H43701   7.742   7.235   5.010  0.3907 -0.0929 -0.2898
  324MOL0     H43702   8.016   7.412   4.640  3.6336  0.0106 -1.9987
  324MOL0     H43703   8.241   7.494   4.630 -0.6017 -3.0106 -2.1540
  324MOL0     H43704   8.525   7.480   5.000  0.7290  0.8901 -0.3822
  324MOL0     H43705   8.563   7.325   4.922  3.5896  0.8505  0.5054
  324MOL0     H43706   8.686   7.430   4.763 -1.3022  0.1984 -0.6504
  324MOL0     H43707   8.645   7.597   4.823  1.5451 -0.8026 -1.4173
  324MOL0     H43708   8.739   7.504   5.051 -2.9843 -1.5376 -1.3900
  324MOL0     H43709   8.782   7.364   4.962  0.7503 -0.8270 -1.8843
  324MOL0     H43710   8.896   7.626   4.865 -1.4553  0.1640 -0.7603
  324MOL0     H43711   8.951   7.460   4.826 -2.4289 -0.1807 -0.4258
  324MOL0     H43712   9.036   7.434   5.055  2.3347 -0.2803 -3.4282
  324MOL0     H43713   8.984   7.598   5.109 -0.2573  1.5469 -0.5652
  324MOL0     H43714   9.168   7.533   4.877 -0.7728 -0.4317  0.3485
  324MOL0     H43715   9.121   7.692   4.909 -0.2256 -0.9802 -2.2913
  324MOL0     H43716   9.282   7.521   5.096 -0.3609 -0.9257 -1.8817
  324MOL0     H43717   9.234   7.683   5.142 -0.5370  2.6482 -0.8409
  324MOL0     H43718   9.415   7.600   4.905 -4.1387 -0.6903 -0.1919
  324MOL0     H43719   9.375   7.767   4.936  3.0448  0.6406 -0.3421
  324MOL0     H43720   8.351   7.247   4.978  1.2576  0.4532 -0.8307
  324MOL0     H43721   8.109   7.174   4.979 -0.8171 -1.0276 -0.5835
  324MOL0     H43722   7.580   7.149   4.609 -0.2318 -0.1482 -0.5579
  324MOL0     H43723   7.384   7.063   4.718  0.9048 -0.9856  0.6749
  324MOL0     H43724   7.428   5.723   5.062  0.7355  1.7496  0.0938
  324MOL0     H43725   7.656   5.833   5.045  1.0932  3.2038  0.0957
  324MOL0     H43726   7.768   6.412   4.933  1.9923  2.4936  2.4471
  324MOL0     H43727   7.959   6.523   4.871  0.8704  0.6558 -0.1762
  324MOL0     H43728   8.189   6.597   4.901  0.0462  1.2510  0.3987
  324MOL0     H43729   8.123   6.599   4.734  1.3829  0.3658 -0.2254
  324MOL0     H43730   8.332   6.723   4.772 -0.7141 -0.2182  1.3467
  324MOL0     H43731   8.330   6.610   4.633  0.5160 -0.1028  0.1473
  324MOL0     H43732   8.454   6.445   4.760 -2.1494  0.2580  1.4545
  324MOL0     H43733   8.483   6.561   4.890 -0.0954  0.8949 -0.5784
  324MOL0     H43734   8.550   6.634   4.607 -0.6073  0.6076  0.7355
  324MOL0     H43735   8.611   6.704   4.757 -0.0491  0.1357 -0.5095
  324MOL0     H43736   8.882   6.386   4.738 -0.1881 -0.2624 -1.4737
  324MOL0     H43737   8.191   6.169   4.869  0.9561  0.0196 -1.4917
  324MOL0     H43738   7.982   5.934   4.845  1.8309 -0.4417  0.4635
  324MOL0     H43739   8.095   5.963   4.970  0.4845 -1.2586 -0.9017
  324MOL0     H43740   7.920   5.949   5.007 -0.3583  0.2596  0.1927
  325MOL0     O43741   9.349   2.145   9.661 -0.8717 -0.2118 -0.1832
  325MOL0     C43742   9.368   2.053   9.577 -0.0583 -0.9970  0.3345
  325MOL0     O43743   9.487   2.029   9.512 -0.8849  0.3047 -0.1219
  325MOL0     C43744   9.572   2.133   9.499  0.2446 -0.6937  0.6211
  325MOL0     C43745   9.546   2.275   9.474  0.0787  0.1987  0.4240
  325MOL0     C43746   9.657   2.361   9.458  0.3933  0.0763 -0.6888
  325MOL0     C43747   9.788   2.317   9.460  0.4636 -0.0161  0.1643
  325MOL0     O43748   9.881   2.421   9.447  0.5074  0.1143  0.0146
  325MOL0     C43749  10.017   2.383   9.442 -0.2530 -0.5300 -1.5377
  325MOL0     C43750  10.047   2.309   9.312 -0.6262  0.4775  0.5484
  325MOL0     C43751  10.147   2.199   9.335 -0.8915 -0.2341 -0.3683
  325MOL0     C43752  10.299   2.244   9.344  0.3856  0.6193 -0.3488
  325MOL0     C43753  10.356   2.300   9.205  0.7203 -0.2869  0.4292
  325MOL0     C43754  10.508   2.320   9.203 -0.6036 -0.4214  0.3360
  325MOL0     C43755  10.560   2.388   9.075  0.4162 -0.0989  0.0373
  325MOL0     C43756  10.701   2.427   9.095 -0.4588  0.2634 -0.1395
  325MOL0     N43757  10.775   2.479   8.980  0.3210  0.1935 -0.0354
  325MOL0     C43758  10.852   2.402   8.890 -0.2443 -0.1566 -0.4602
  325MOL0     C43759  10.930   2.495   8.833  0.6306 -0.1585 -0.4699
  325MOL0     C43760  11.030   2.463   8.725  0.7742  0.3468 -0.3311
  325MOL0     C43761  11.170   2.440   8.783 -0.6671 -0.5596  0.1844
  325MOL0     C43762  11.231   2.575   8.797  0.6151 -0.5046 -0.3924
  325MOL0     C43763  11.380   2.576   8.817 -0.5964 -0.8842  0.0564
  325MOL0     O43764  11.426   2.555   8.682 -0.5204 -0.2603  0.1735
  325MOL0     C43765  11.562   2.561   8.659 -0.3154 -0.2159 -0.0933
  325MOL0     C43766  11.660   2.568   8.761  0.1415  0.2339  0.8260
  325MOL0     C43767  11.789   2.593   8.722 -0.0318  0.8105 -0.5904
  325MOL0     C43768  11.831   2.587   8.590 -0.9640 -0.4428 -0.3713
  325MOL0     C43769  11.974   2.577   8.555 -0.4251 -0.4817 -1.0005
  325MOL0     O43770  12.056   2.551   8.655  0.6870  0.2276  0.5537
  325MOL0     C43771  12.188   2.582   8.630  0.8037 -0.1196 -0.1291
  325MOL0     C43772  12.228   2.710   8.667  0.0256 -0.4963 -0.4614
  325MOL0     C43773  12.361   2.747   8.660  0.1516 -0.3017 -0.1372
  325MOL0     C43774  12.455   2.650   8.617 -0.1810 -0.3475  0.1427
  325MOL0     O43775  12.594   2.668   8.618 -0.5326  0.0825 -0.1098
  325MOL0     C43776  12.649   2.777   8.695  0.7388 -0.3695 -0.2088
  325MOL0     C43777  12.791   2.796   8.648 -0.4207 -0.1389  0.1807
  325MOL0     C43778  12.867   2.910   8.711  0.0391  0.2737 -0.9251
  325MOL0     C43779  12.999   2.941   8.642 -0.2690  0.2271  0.2163
  325MOL0     C43780  13.110   2.837   8.634 -0.0289 -1.2465  0.3670
  325MOL0     C43781  13.168   2.806   8.769  0.3928 -0.1060 -0.2932
  325MOL0     C43782  13.289   2.702   8.751 -0.8634 -0.8197 -0.6160
  325MOL0     C43783  13.362   2.687   8.886 -0.0851  0.3762  0.2692
  325MOL0    Cl43784  13.240   2.619   9.011 -0.0323  0.0871 -0.3841
  325MOL0     C43785  12.413   2.518   8.585  1.2033  0.2847  0.4053
  325MOL0     C43786  12.274   2.481   8.579 -0.3245 -0.3090  0.1305
  325MOL0     O43787  12.007   2.597   8.441 -0.1212  0.1519  0.4653
  325MOL0     C43788  11.732   2.579   8.489 -0.5417 -0.7174  0.1927
  325MOL0     C43789  11.597   2.568   8.525 -0.4259 -0.6988  0.1104
  325MOL0     N43790  10.900   2.626   8.883  0.3269  0.0521  0.1078
  325MOL0     N43791  10.807   2.609   8.963 -0.0260 -0.0364  0.3268
  325MOL0     C43792   9.810   2.177   9.474  0.6007 -0.9077 -0.4084
  325MOL0     C43793   9.705   2.095   9.486  0.3154  0.4649 -0.1965
  325MOL0     C43794   9.252   1.957   9.561 -0.7240 -0.3902 -0.4673
  325MOL0     C43795   9.273   1.826   9.588 -0.2062 -0.2653 -0.3876
  325MOL0     C43796   9.164   1.735   9.589 -0.5768 -0.4480 -0.3116
  325MOL0     C43797   9.036   1.778   9.555 -0.4867 -0.2599 -0.2222
  325MOL0     O43798   8.923   1.704   9.555  0.2725 -0.1002  0.6916
  325MOL0     C43799   8.926   1.568   9.596  0.4376  0.0094 -0.0653
  325MOL0     C43800   8.797   1.501   9.595  0.9341 -0.4695 -0.5596
  325MOL0     C43801   8.808   1.351   9.626 -0.2434 -0.1356  0.2882
  325MOL0     C43802   8.662   1.303   9.622  0.3401  0.0315  0.4522
  325MOL0     C43803   8.668   1.154   9.646 -0.0339  0.1642  0.5321
  325MOL0     C43804   8.676   1.034   9.653 -0.0055  0.1605 -0.5603
  325MOL0     C43805   9.022   1.903   9.502 -1.1188 -0.6833  0.1200
  325MOL0     C43806   9.135   1.998   9.505  0.1970  0.0745  0.1046
  325MOL0     C43807   9.132   2.132   9.434 -0.2283  0.4241 -0.4057
  325MOL0     H43808   9.443   2.308   9.465 -0.8071 -2.1851  0.9172
  325MOL0     H43809   9.634   2.466   9.443 -3.3284 -0.4541  0.2182
  325MOL0     H43810  10.084   2.469   9.453  0.1817 -0.9465 -0.7536
  325MOL0     H43811  10.033   2.325   9.534 -0.3338  0.0515 -1.1507
  325MOL0     H43812  10.090   2.370   9.232 -1.7634 -1.0250 -1.2919
  325MOL0     H43813   9.957   2.261   9.272 -0.3050 -0.5245  0.9957
  325MOL0     H43814  10.152   2.120   9.260 -0.9662 -0.0267 -0.5917
  325MOL0     H43815  10.123   2.149   9.430  0.1492  0.7387  0.4353
  325MOL0     H43816  10.305   2.319   9.423 -0.8971 -1.2114  1.5870
  325MOL0     H43817  10.351   2.154   9.378  1.8161  1.1064 -1.1629
  325MOL0     H43818  10.332   2.228   9.127  2.0933  1.1403 -1.4205
  325MOL0     H43819  10.308   2.392   9.170  3.0947  2.1982  3.0728
  325MOL0     H43820  10.534   2.385   9.286 -1.6582  3.4549 -2.0989
  325MOL0     H43821  10.565   2.227   9.202  0.2912  0.1089 -0.8949
  325MOL0     H43822  10.491   2.470   9.054  0.5955  0.7150  2.3344
  325MOL0     H43823  10.565   2.317   8.992 -4.1906  1.8690 -2.2838
  325MOL0     H43824  10.710   2.509   9.167 -1.7296 -1.5088  2.1726
  325MOL0     H43825  10.758   2.340   9.130  0.3313  0.6042 -0.5417
  325MOL0     H43826  10.835   2.296   8.876 -2.4220  0.1996 -0.9314
  325MOL0     H43827  10.990   2.370   8.683 -0.6906  0.6188  0.4109
  325MOL0     H43828  11.028   2.535   8.643 -0.6791  2.9112  1.7817
  325MOL0     H43829  11.175   2.386   8.878 -2.6876  1.6136  1.6252
  325MOL0     H43830  11.231   2.383   8.713 -0.0604  0.0148  0.2332
  325MOL0     H43831  11.188   2.622   8.887  0.3672  0.8451 -1.1843
  325MOL0     H43832  11.210   2.638   8.710  1.5365  2.6518  1.4966
  325MOL0     H43833  11.413   2.501   8.890  2.7581  0.7733  0.4398
  325MOL0     H43834  11.418   2.673   8.851  0.7908 -1.6470  0.7754
  325MOL0     H43835  11.632   2.549   8.864 -0.9657 -0.3892  0.4223
  325MOL0     H43836  11.863   2.616   8.799 -0.0714  0.4276 -0.4345
  325MOL0     H43837  12.159   2.775   8.720  0.0736  0.6162 -1.7283
  325MOL0     H43838  12.400   2.846   8.679 -4.0342  1.7592 -1.1186
  325MOL0     H43839  12.600   2.870   8.665  1.1029 -0.0364  0.2138
  325MOL0     H43840  12.640   2.762   8.803 -2.6954 -0.0685 -0.3465
  325MOL0     H43841  12.834   2.695   8.653  2.3910  0.8957 -0.8900
  325MOL0     H43842  12.787   2.816   8.540 -2.4227 -1.8137 -0.1246
  325MOL0     H43843  12.806   2.998   8.688  0.4418  0.3091 -1.8907
  325MOL0     H43844  12.883   2.909   8.820  1.9836 -1.3420 -1.1923
  325MOL0     H43845  13.040   3.028   8.695 -1.6741  2.6609 -2.4252
  325MOL0     H43846  12.979   2.975   8.540  1.2088  0.0934 -0.1466
  325MOL0     H43847  13.191   2.870   8.569 -0.0905 -0.4171  0.7036
  325MOL0     H43848  13.062   2.745   8.598 -0.0300 -0.1982 -2.5560
  325MOL0     H43849  13.192   2.901   8.817 -3.8417  0.4653  1.1985
  325MOL0     H43850  13.084   2.768   8.829 -1.1342  3.3529  0.0214
  325MOL0     H43851  13.347   2.748   8.670 -2.5377 -0.7855 -1.8776
  325MOL0     H43852  13.255   2.600   8.729  2.9537 -2.1622 -1.0996
  325MOL0     H43853  13.453   2.630   8.863  0.1733  1.0422 -0.3741
  325MOL0     H43854  13.393   2.785   8.922 -2.0112  1.2799 -0.4134
  325MOL0     H43855  12.470   2.430   8.557 -2.3991 -1.4403 -2.5450
  325MOL0     H43856  12.237   2.380   8.563  1.5885 -1.0253  0.0633
  325MOL0     H43857  11.763   2.581   8.385  0.1660 -2.7636  0.3270
  325MOL0     H43858  11.522   2.569   8.447 -1.8819  1.3067  1.4315
  325MOL0     H43859   9.904   2.123   9.475  0.2355 -1.5554 -0.1076
  325MOL0     H43860   9.737   1.992   9.495 -2.0348 -0.1728  2.0917
  325MOL0     H43861   9.370   1.781   9.610 -0.2420  0.7324  2.0951
  325MOL0     H43862   9.181   1.634   9.625  0.2459  0.7746  3.0471
  325MOL0     H43863   8.966   1.560   9.698  1.2658 -0.3288 -0.4031
  325MOL0     H43864   8.993   1.516   9.527  1.9926  0.1276  1.2903
  325MOL0     H43865   8.756   1.515   9.494  0.4989  0.6861 -0.2378
  325MOL0     H43866   8.729   1.552   9.664  2.2655 -0.9134  1.1447
  325MOL0     H43867   8.858   1.323   9.719 -1.0037 -1.3082  0.3595
  325MOL0     H43868   8.854   1.296   9.543 -0.7928  0.4761 -0.4346
  325MOL0     H43869   8.597   1.353   9.695 -0.6737 -0.3145 -0.1900
  325MOL0     H43870   8.609   1.321   9.528  2.1126  3.4437 -0.0379
  325MOL0     H43871   8.665   0.928   9.663 -0.2421  0.3547  1.8647
  325MOL0     H43872   8.925   1.936   9.465 -1.1868 -0.6348  0.3437
  325MOL0     H43873   9.146   2.112   9.328 -1.7554 -1.9580 -0.2350
  325MOL0     H43874   9.032   2.176   9.434  0.0376  1.1977 -3.1909
  325MOL0     H43875   9.199   2.211   9.470  1.4577  0.0089 -2.4906
  326MOL0     O43876   3.603   0.604   0.634  0.4130  0.1297  0.2394
  326MOL0     C43877   3.594   0.715   0.685 -0.1759 -0.8975 -0.2746
  326MOL0     O43878   3.487   0.783   0.719 -0.2698 -0.4619 -0.2629
  326MOL0     C43879   3.362   0.736   0.706  0.1029 -0.0001 -0.2584
  326MOL0     C43880   3.269   0.791   0.612  0.2516 -0.3083 -0.6001
  326MOL0     C43881   3.139   0.742   0.606 -0.2768  0.1587 -0.3459
  326MOL0     C43882   3.093   0.648   0.701 -0.0292 -0.2856 -0.9161
  326MOL0     O43883   2.956   0.627   0.708  0.0406 -0.4706  0.3691
  326MOL0     C43884   2.910   0.529   0.803  0.2740 -0.6685  0.2115
  326MOL0     C43885   2.775   0.498   0.748 -0.3236 -0.5998 -0.3995
  326MOL0     C43886   2.669   0.451   0.838 -0.0035  0.2816 -0.7011
  326MOL0     C43887   2.616   0.562   0.927  0.3549 -0.5986  0.7896
  326MOL0     C43888   2.471   0.538   0.968  0.1278  0.6554 -0.6852
  326MOL0     C43889   2.367   0.566   0.858 -0.6808 -0.1218 -0.5410
  326MOL0     C43890   2.235   0.493   0.884 -0.8071 -0.7313  0.4001
  326MOL0     C43891   2.177   0.510   1.026 -0.0830 -0.1421 -0.4506
  326MOL0     N43892   2.039   0.445   1.032  1.0901  0.5876  0.5012
  326MOL0     C43893   2.015   0.310   1.052  0.2405  0.5989 -0.1350
  326MOL0     C43894   1.883   0.304   1.035 -0.1357 -0.4559 -0.1543
  326MOL0     C43895   1.819   0.171   1.039 -0.1521 -0.3233 -0.2924
  326MOL0     C43896   1.784   0.132   0.894 -0.4638  0.4314  0.6544
  326MOL0     C43897   1.773  -0.021   0.864 -0.5391 -0.3683 -0.6391
  326MOL0     C43898   1.900  -0.089   0.802 -0.3767 -1.0255 -0.2844
  326MOL0     O43899   2.011  -0.064   0.893  0.2711  0.3490 -0.1243
  326MOL0     C43900   2.121  -0.127   0.828 -0.4670 -1.1764 -1.0614
  326MOL0     C43901   2.123  -0.260   0.790  0.0026  0.7124 -0.8112
  326MOL0     C43902   2.229  -0.308   0.715 -0.1728 -0.0590  0.4733
  326MOL0     C43903   2.335  -0.227   0.669 -0.1116  0.9921 -0.2928
  326MOL0     C43904   2.458  -0.285   0.613 -0.7432 -0.9354  0.5302
  326MOL0     O43905   2.506  -0.197   0.514  0.7672  0.0048  0.5215
  326MOL0     C43906   2.637  -0.205   0.485 -0.5836 -0.5357 -0.6991
  326MOL0     C43907   2.744  -0.265   0.563  0.4401  0.1917  0.4431
  326MOL0     C43908   2.879  -0.248   0.521  0.2553  0.0513  0.4534
  326MOL0     C43909   2.913  -0.177   0.403 -0.1550 -0.3248 -0.4490
  326MOL0     O43910   3.042  -0.166   0.358  0.0468 -0.6245  0.2423
  326MOL0     C43911   3.149  -0.249   0.405  0.9608 -0.0052 -0.0364
  326MOL0     C43912   3.215  -0.197   0.536  0.1804  0.4497 -0.0338
  326MOL0     C43913   3.346  -0.264   0.568 -0.4328 -0.3800  0.0222
  326MOL0     C43914   3.400  -0.235   0.700  0.9132 -0.3958 -0.7940
  326MOL0     C43915   3.502  -0.338   0.732  0.4680  0.4618 -0.1183
  326MOL0     C43916   3.602  -0.297   0.842  0.7693  0.0745 -0.1363
  326MOL0     C43917   3.706  -0.401   0.866 -0.6397 -0.3479 -0.4411
  326MOL0     C43918   3.806  -0.354   0.985  1.0183 -0.2870 -0.2169
  326MOL0    Cl43919   3.951  -0.461   0.981  0.1302  0.1407 -0.0396
  326MOL0     C43920   2.818  -0.111   0.330  0.3771 -0.3354  0.0180
  326MOL0     C43921   2.679  -0.132   0.369 -0.0737  0.6868  0.3009
  326MOL0     O43922   2.504  -0.392   0.643 -0.5699  0.2839  0.9155
  326MOL0     C43923   2.325  -0.089   0.709  0.3448  0.7545  0.4377
  326MOL0     C43924   2.218  -0.034   0.775  1.0139  0.7227 -0.0985
  326MOL0     N43925   1.820   0.431   1.007 -0.2709  0.6485 -0.1237
  326MOL0     N43926   1.918   0.513   1.002 -0.1478 -0.0907 -0.5846
  326MOL0     C43927   3.182   0.602   0.799  0.3704 -0.5835 -1.0399
  326MOL0     C43928   3.312   0.646   0.804 -0.3693 -1.3676 -0.3416
  326MOL0     C43929   3.715   0.777   0.726  0.3991  0.1568  0.3915
  326MOL0     C43930   3.755   0.890   0.657 -0.0056  0.6378 -0.2991
  326MOL0     C43931   3.866   0.968   0.695  0.5896 -0.1007  0.4025
  326MOL0     C43932   3.940   0.923   0.801 -0.1167 -0.3794  0.0507
  326MOL0     O43933   4.050   0.984   0.840  0.2119 -0.6657 -0.0891
  326MOL0     C43934   4.082   1.116   0.783  0.4576  0.2556  0.3265
  326MOL0     C43935   4.187   1.186   0.859 -0.6037 -0.5513 -0.8287
  326MOL0     C43936   4.232   1.313   0.778 -0.3120 -0.5010 -0.0818
  326MOL0     C43937   4.328   1.395   0.861  0.2541  0.8742  0.9494
  326MOL0     C43938   4.454   1.317   0.880  0.0154 -0.1497  0.7264
  326MOL0     C43939   4.545   1.238   0.898  0.2292  0.2739  0.9035
  326MOL0     C43940   3.904   0.800   0.858 -0.5046 -0.5293  0.9314
  326MOL0     C43941   3.798   0.724   0.821  0.5069 -0.0828  0.8515
  326MOL0     C43942   3.773   0.601   0.896  0.4180  0.0856  0.7033
  326MOL0     H43943   3.301   0.870   0.544  1.2895  0.1620  0.3952
  326MOL0     H43944   3.068   0.793   0.542 -0.7973 -0.1047  0.0087
  326MOL0     H43945   2.969   0.438   0.804  0.7523 -0.3572  0.6667
  326MOL0     H43946   2.895   0.577   0.900  0.7515  0.4746 -0.2578
  326MOL0     H43947   2.788   0.414   0.679  0.2928 -0.8367  0.0017
  326MOL0     H43948   2.737   0.581   0.687  1.8745  0.1955 -0.7791
  326MOL0     H43949   2.712   0.375   0.904  0.5891 -0.2597 -1.6696
  326MOL0     H43950   2.586   0.401   0.787 -0.0066 -2.9397  2.0962
  326MOL0     H43951   2.690   0.574   1.007  4.1874 -0.7690 -2.3779
  326MOL0     H43952   2.612   0.656   0.872 -1.9585 -0.0987  1.7191
  326MOL0     H43953   2.475   0.434   1.002 -2.6708  0.8256  0.4745
  326MOL0     H43954   2.437   0.592   1.057 -1.0805 -3.6981  1.8057
  326MOL0     H43955   2.344   0.673   0.857 -3.5910 -0.6474 -0.3230
  326MOL0     H43956   2.403   0.535   0.759 -1.2320  0.5598 -0.9618
  326MOL0     H43957   2.254   0.388   0.864 -1.6399 -0.4896 -1.8543
  326MOL0     H43958   2.159   0.510   0.808  0.3615 -3.6180 -1.6017
  326MOL0     H43959   2.245   0.475   1.105 -2.4314  0.6793  2.0951
  326MOL0     H43960   2.165   0.617   1.046 -0.9872 -0.1826 -0.7595
  326MOL0     H43961   2.077   0.224   1.076 -0.7291  0.0908  0.6246
  326MOL0     H43962   1.880   0.094   1.088  1.1231  0.3042 -0.8481
  326MOL0     H43963   1.723   0.177   1.092  0.7008  0.0204  1.2856
  326MOL0     H43964   1.698   0.182   0.848  1.7423  1.5019 -2.6834
  326MOL0     H43965   1.865   0.172   0.832 -0.3473  0.1862  0.6448
  326MOL0     H43966   1.691  -0.036   0.792 -1.3427  0.3405  0.1022
  326MOL0     H43967   1.749  -0.074   0.957  2.5425  0.7520  0.9222
  326MOL0     H43968   1.912  -0.030   0.711 -0.2655  3.7162  2.4758
  326MOL0     H43969   1.881  -0.195   0.783  2.6175 -1.5155 -0.9715
  326MOL0     H43970   2.041  -0.322   0.824 -0.3070  2.0351  1.0211
  326MOL0     H43971   2.235  -0.416   0.700 -0.0753 -0.3504  2.3264
  326MOL0     H43972   2.726  -0.323   0.653  0.0506 -4.2386 -2.2120
  326MOL0     H43973   2.960  -0.300   0.572 -0.9033 -0.0221  2.2875
  326MOL0     H43974   3.119  -0.353   0.415 -2.4299  1.0112  1.9840
  326MOL0     H43975   3.224  -0.237   0.327  2.0635  2.0134  1.2460
  326MOL0     H43976   3.233  -0.089   0.538 -0.5771  0.5782  0.0229
  326MOL0     H43977   3.151  -0.223   0.621  1.9419  0.8794  1.4975
  326MOL0     H43978   3.326  -0.370   0.550 -2.7412 -0.3178  1.7436
  326MOL0     H43979   3.419  -0.221   0.500  0.8978  2.1210  2.7968
  326MOL0     H43980   3.322  -0.263   0.772  0.1277 -3.4714 -2.6249
  326MOL0     H43981   3.436  -0.132   0.706  0.3912 -0.0991 -2.2622
  326MOL0     H43982   3.555  -0.377   0.645 -0.6860 -1.4023 -0.0405
  326MOL0     H43983   3.441  -0.420   0.771  0.7376  1.2380  2.0631
  326MOL0     H43984   3.662  -0.207   0.824  2.5460  0.0637  4.2933
  326MOL0     H43985   3.537  -0.273   0.927  0.7668 -0.0949 -0.0912
  326MOL0     H43986   3.755  -0.410   0.769 -2.4839  1.4087 -1.6385
  326MOL0     H43987   3.660  -0.498   0.884 -0.4762 -0.6246 -1.4814
  326MOL0     H43988   3.838  -0.251   0.970 -3.2640  1.6331  1.9353
  326MOL0     H43989   3.748  -0.347   1.078  1.5181 -0.1831  0.0853
  326MOL0     H43990   2.846  -0.056   0.240 -0.9764 -0.8492 -0.7589
  326MOL0     H43991   2.600  -0.088   0.309 -0.9685  0.4754  1.3037
  326MOL0     H43992   2.405  -0.034   0.662  0.0274 -1.1272 -2.5878
  326MOL0     H43993   2.213   0.072   0.797 -1.0953  0.7384 -0.4404
  326MOL0     H43994   3.152   0.542   0.885  0.4189  1.9823  0.8716
  326MOL0     H43995   3.374   0.632   0.892  0.4701 -0.6223 -0.7980
  326MOL0     H43996   3.693   0.916   0.572 -1.1496  2.1370  0.9405
  326MOL0     H43997   3.899   1.044   0.624  0.0486 -2.3147 -2.3811
  326MOL0     H43998   4.001   1.188   0.776 -0.2063 -0.3904  1.1817
  326MOL0     H43999   4.119   1.089   0.683 -0.3623  3.2735 -0.8967
  326MOL0     H44000   4.279   1.130   0.881  0.6580  2.0203  0.8949
  326MOL0     H44001   4.153   1.218   0.957  0.1522  0.0466 -0.7557
  326MOL0     H44002   4.146   1.371   0.744 -1.3953 -0.9377  1.7510
  326MOL0     H44003   4.293   1.272   0.697 -0.3972 -2.7152  0.9017
  326MOL0     H44004   4.342   1.491   0.812 -2.3455  1.5360  1.3485
  326MOL0     H44005   4.292   1.425   0.960  0.2536 -0.6044  1.4160
  326MOL0     H44006   4.616   1.160   0.922 -1.2315 -2.3155 -2.4512
  326MOL0     H44007   3.973   0.765   0.934  0.0662  1.4171  1.3821
  326MOL0     H44008   3.709   0.537   0.834 -0.2628  1.8113 -0.4734
  326MOL0     H44009   3.866   0.550   0.921  0.5808  1.7234  3.8857
  326MOL0     H44010   3.723   0.631   0.988  0.4389  1.2233  0.3597
  327MOL0     O44011   4.054   9.821  10.805  0.0919  0.1597  0.5654
  327MOL0     C44012   3.985   9.791  10.706  0.1622 -0.0054 -0.3977
  327MOL0     O44013   4.002   9.674  10.629  0.2834 -0.2635  0.5209
  327MOL0     C44014   4.100   9.585  10.677 -0.3488 -0.0407  0.1283
  327MOL0     C44015   4.226   9.637  10.688  0.5873 -1.2707  0.7660
  327MOL0     C44016   4.324   9.562  10.748 -0.1590 -0.3298 -0.3530
  327MOL0     C44017   4.298   9.435  10.797 -0.4595  0.9101 -0.5444
  327MOL0     O44018   4.388   9.349  10.865  0.4972  0.3394  0.8856
  327MOL0     C44019   4.484   9.408  10.955  0.0639  0.7720 -0.4243
  327MOL0     C44020   4.420   9.464  11.086  0.4937 -0.7957 -0.1509
  327MOL0     C44021   4.532   9.534  11.165  1.7240  0.7965  0.2785
  327MOL0     C44022   4.485   9.594  11.301  0.0877 -0.1279 -0.4305
  327MOL0     C44023   4.594   9.651  11.377 -0.4396 -0.3282 -0.1495
  327MOL0     C44024   4.660   9.553  11.482  0.1735  0.2173  0.4825
  327MOL0     C44025   4.732   9.632  11.594  0.0023  0.8831  0.0977
  327MOL0     C44026   4.840   9.734  11.551 -0.3154  0.4651 -0.7275
  327MOL0     N44027   4.966   9.672  11.512  0.0985  0.1619 -0.1871
  327MOL0     C44028   4.991   9.623  11.383 -0.0366 -0.7545  0.2110
  327MOL0     C44029   5.110   9.561  11.389  0.2153  1.3535 -0.3600
  327MOL0     C44030   5.174   9.492  11.272 -0.0312  1.0679 -0.0097
  327MOL0     C44031   5.117   9.355  11.240  0.4899 -0.2536  0.8395
  327MOL0     C44032   5.189   9.293  11.120 -0.3820 -0.2569  0.4276
  327MOL0     C44033   5.151   9.153  11.092 -0.3228 -0.3926  0.2884
  327MOL0     O44034   5.119   9.135  10.951  0.0705 -0.4657 -0.1964
  327MOL0     C44035   5.228   9.110  10.870 -0.2871 -0.4616  0.6233
  327MOL0     C44036   5.365   9.127  10.902  0.5230 -0.6805  0.6475
  327MOL0     C44037   5.465   9.107  10.811 -0.1019 -0.4167 -0.3327
  327MOL0     C44038   5.433   9.069  10.682 -0.5697  0.7764  1.1375
  327MOL0     C44039   5.544   9.049  10.582 -0.4542 -0.4793 -0.4512
  327MOL0     O44040   5.499   9.021  10.453 -0.4027 -0.0842 -0.0379
  327MOL0     C44041   5.584   8.996  10.351  0.0082 -0.6371 -0.2057
  327MOL0     C44042   5.717   8.951  10.364 -0.0969 -0.3204  0.0209
  327MOL0     C44043   5.792   8.919  10.250  0.0973  0.0061 -0.3312
  327MOL0     C44044   5.729   8.916  10.120 -0.0295 -0.6641  0.3153
  327MOL0     O44045   5.804   8.870  10.013 -0.1768 -0.4195 -0.5432
  327MOL0     C44046   5.741   8.887   9.881  0.4982 -0.5761 -0.0992
  327MOL0     C44047   5.836   8.848   9.776  0.3603  0.5038  0.2862
  327MOL0     C44048   5.876   8.698   9.751  0.0555 -0.4057  0.0302
  327MOL0     C44049   6.001   8.667   9.667 -0.3302  0.3927 -0.4685
  327MOL0     C44050   6.033   8.515   9.652 -0.4949  0.1367  0.1016
  327MOL0     C44051   6.131   8.482   9.541  0.2508  0.2166  0.1475
  327MOL0     C44052   6.193   8.341   9.543  0.3224  0.2102 -0.0757
  327MOL0     C44053   6.101   8.212   9.546 -0.0831 -0.6539 -0.1841
  327MOL0    Cl44054   5.961   8.227   9.427  0.2623  0.2405 -0.2729
  327MOL0     C44055   5.603   8.975  10.114  0.4489 -0.2407 -0.4474
  327MOL0     C44056   5.534   9.017  10.227  0.1628 -0.3082  0.7705
  327MOL0     O44057   5.661   9.075  10.611 -0.0432 -0.0353 -0.7447
  327MOL0     C44058   5.297   9.056  10.641 -0.4108 -0.4010 -0.0628
  327MOL0     C44059   5.204   9.074  10.735  0.2338 -0.1536  0.0380
  327MOL0     N44060   5.155   9.568  11.519  0.0524 -0.5160  0.0683
  327MOL0     N44061   5.065   9.640  11.597  0.5962  0.1428 -0.0321
  327MOL0     C44062   4.179   9.373  10.760  0.0564 -0.0820 -0.3354
  327MOL0     C44063   4.078   9.449  10.705  0.6118  0.6004 -0.5510
  327MOL0     C44064   3.876   9.881  10.671 -0.4513 -0.1371  0.0422
  327MOL0     C44065   3.791   9.921  10.774  0.0321 -0.4773 -0.1137
  327MOL0     C44066   3.682   9.998  10.747 -0.9049 -0.0536 -0.2812
  327MOL0     C44067   3.660  10.051  10.615 -0.0215  0.1193  0.2135
  327MOL0     O44068   3.554  10.132  10.593  0.1169 -0.4299 -0.0851
  327MOL0     C44069   3.431  10.054  10.570 -0.0725  0.7159 -0.6346
  327MOL0     C44070   3.326  10.148  10.523 -0.3522 -0.1969  0.3740
  327MOL0     C44071   3.263  10.215  10.642  0.2299  0.3505 -0.1493
  327MOL0     C44072   3.170  10.335  10.604  0.3104  0.2108  0.7289
  327MOL0     C44073   3.041  10.287  10.541 -0.1842  0.3033  0.4759
  327MOL0     C44074   2.940  10.245  10.488 -0.4747  0.2059 -0.1046
  327MOL0     C44075   3.752  10.025  10.510  0.3764  0.3856 -0.8806
  327MOL0     C44076   3.858   9.934  10.537  0.5256  0.0632 -0.3540
  327MOL0     C44077   3.945   9.882  10.425  0.0500 -1.0533 -0.0879
  327MOL0     H44078   4.251   9.739  10.660  0.4021 -1.0708  1.3188
  327MOL0     H44079   4.422   9.608  10.751 -0.3781  0.1414  2.7684
  327MOL0     H44080   4.544   9.319  10.978  0.7651  1.1308 -0.8235
  327MOL0     H44081   4.549   9.482  10.907 -1.1623  2.1415 -0.0574
  327MOL0     H44082   4.357   9.393  11.140  0.9149 -0.1008  1.3129
  327MOL0     H44083   4.349   9.540  11.053  0.8348 -0.0884  0.7038
  327MOL0     H44084   4.573   9.611  11.099  0.5075  1.7651  0.6202
  327MOL0     H44085   4.619   9.471  11.184  1.5598  0.3181 -0.5428
  327MOL0     H44086   4.412   9.674  11.284  0.8386  0.5387 -0.5995
  327MOL0     H44087   4.431   9.519  11.360  1.5725 -0.4039  0.6474
  327MOL0     H44088   4.669   9.699  11.314 -1.7645  1.9888 -0.0963
  327MOL0     H44089   4.560   9.735  11.438  0.9562 -0.2688  0.5696
  327MOL0     H44090   4.575   9.498  11.522  0.2800 -0.0502  0.3486
  327MOL0     H44091   4.727   9.481  11.433  0.0526  0.0442  0.5680
  327MOL0     H44092   4.767   9.565  11.673 -0.3481  0.7187  0.1093
  327MOL0     H44093   4.654   9.699  11.630  0.1987  0.9171  0.4649
  327MOL0     H44094   4.799   9.803  11.477  1.6030  1.6518 -0.7446
  327MOL0     H44095   4.862   9.793  11.641  1.3731 -2.3570  0.8612
  327MOL0     H44096   4.939   9.640  11.290  0.9751  0.0116 -0.2432
  327MOL0     H44097   5.155   9.553  11.184 -0.6326 -1.7735 -1.9615
  327MOL0     H44098   5.281   9.492  11.297 -0.1963 -0.7576  0.8689
  327MOL0     H44099   5.125   9.291  11.329 -2.2697 -1.5941  0.2501
  327MOL0     H44100   5.014   9.355  11.203  0.1305 -1.6522  1.7562
  327MOL0     H44101   5.296   9.292  11.142 -0.1784 -1.6257 -0.4966
  327MOL0     H44102   5.182   9.354  11.029 -1.9463 -0.4756  0.3700
  327MOL0     H44103   5.070   9.111  11.151  2.0500 -0.8399  3.4667
  327MOL0     H44104   5.236   9.093  11.123 -0.7607 -0.5257  1.2630
  327MOL0     H44105   5.396   9.145  11.005 -0.6812  0.2596  0.8667
  327MOL0     H44106   5.571   9.112  10.834 -0.2731  1.0919  0.2524
  327MOL0     H44107   5.783   8.947  10.449  3.0182  0.6587 -2.1732
  327MOL0     H44108   5.896   8.901  10.275  0.3203  3.5955  2.0629
  327MOL0     H44109   5.642   8.840   9.875 -1.1163  2.6265 -0.2904
  327MOL0     H44110   5.730   8.994   9.867  2.3958 -0.5599 -2.0441
  327MOL0     H44111   5.806   8.895   9.682  1.1334 -0.8370 -0.6642
  327MOL0     H44112   5.929   8.897   9.807  1.0461 -2.0560  2.6690
  327MOL0     H44113   5.880   8.647   9.848  4.4428  0.1856  0.3686
  327MOL0     H44114   5.793   8.659   9.692 -1.6362 -0.4061  2.2596
  327MOL0     H44115   6.095   8.703   9.710  0.3682 -2.2206  0.4069
  327MOL0     H44116   5.991   8.712   9.568  1.4928  2.6948  0.3011
  327MOL0     H44117   5.933   8.475   9.633 -1.5410  2.2421  0.7986
  327MOL0     H44118   6.064   8.467   9.746 -0.4713 -1.3532 -0.6448
  327MOL0     H44119   6.090   8.493   9.440 -3.1257 -2.9697  0.9769
  327MOL0     H44120   6.218   8.549   9.537  0.3149  0.1114 -0.3822
  327MOL0     H44121   6.270   8.330   9.620 -0.8794 -1.8477  0.9353
  327MOL0     H44122   6.241   8.333   9.445 -0.0527 -0.9970 -0.1745
  327MOL0     H44123   6.161   8.123   9.527  0.1716 -0.2502 -1.3821
  327MOL0     H44124   6.065   8.206   9.649  1.6995 -0.9670  0.4563
  327MOL0     H44125   5.548   8.984  10.020  0.9500 -1.2784 -0.8526
  327MOL0     H44126   5.433   9.056  10.215  0.6029  1.0522  1.3170
  327MOL0     H44127   5.276   9.030  10.538 -0.7615 -0.7078  0.0879
  327MOL0     H44128   5.098   9.069  10.710 -0.1000 -2.3184  1.5820
  327MOL0     H44129   4.172   9.273  10.802 -1.6534 -0.0696 -0.5204
  327MOL0     H44130   3.980   9.407  10.683 -0.0898  1.0004  1.6268
  327MOL0     H44131   3.817   9.904  10.878  1.4304  2.2441  0.0639
  327MOL0     H44132   3.618  10.029  10.829 -2.9360  1.5866 -2.3443
  327MOL0     H44133   3.398   9.993  10.655  0.7774 -2.1693 -2.2335
  327MOL0     H44134   3.450   9.984  10.488  0.5871  1.1625 -0.8688
  327MOL0     H44135   3.249  10.102  10.462 -0.7145  1.2113 -0.2709
  327MOL0     H44136   3.372  10.219  10.453  1.2494 -0.6532  0.9250
  327MOL0     H44137   3.346  10.260  10.698  0.0821  3.7843 -2.3760
  327MOL0     H44138   3.199  10.158  10.711 -0.0178  0.8984  0.0826
  327MOL0     H44139   3.139  10.396  10.690  0.2819 -0.9078  1.5334
  327MOL0     H44140   3.239  10.394  10.543  2.9469 -2.3109  1.0406
  327MOL0     H44141   2.859  10.193  10.441 -0.2799 -0.8613  0.6894
  327MOL0     H44142   3.751  10.077  10.415  2.3348  0.3862 -0.9331
  327MOL0     H44143   4.050   9.892  10.455  0.1632  0.7505 -0.9537
  327MOL0     H44144   3.918   9.781  10.393 -0.9859 -1.7456  2.6368
  327MOL0     H44145   3.942   9.948  10.338 -0.6380  0.0747  0.7404
  328MOL0     O44146   5.579   9.108   2.326 -0.4199  0.2782  0.4955
  328MOL0     C44147   5.587   9.148   2.435 -0.9531 -0.4849  0.8232
  328MOL0     O44148   5.702   9.184   2.502  0.0255  0.4889  0.8733
  328MOL0     C44149   5.809   9.237   2.427 -0.3913 -0.3934 -0.3599
  328MOL0     C44150   5.795   9.321   2.320  0.0208 -0.0902  0.0107
  328MOL0     C44151   5.901   9.363   2.236 -0.0804  0.2513 -0.8417
  328MOL0     C44152   6.034   9.331   2.271  0.5988  0.6038 -0.1353
  328MOL0     O44153   6.130   9.363   2.180  1.5538  0.0709 -0.3878
  328MOL0     C44154   6.231   9.257   2.167  0.2905 -0.3151  0.1737
  328MOL0     C44155   6.363   9.303   2.228  0.2267 -0.1716 -0.1959
  328MOL0     C44156   6.433   9.413   2.154  0.7432 -0.7618  0.4963
  328MOL0     C44157   6.569   9.426   2.220 -0.9679 -0.6827 -0.3192
  328MOL0     C44158   6.655   9.536   2.159  0.4625  0.1957 -0.0083
  328MOL0     C44159   6.807   9.516   2.203 -0.0559  0.1854  0.2102
  328MOL0     C44160   6.829   9.527   2.359 -0.1613  0.5566 -0.0936
  328MOL0     C44161   6.978   9.499   2.383 -1.1538  0.3856  0.5484
  328MOL0     N44162   7.049   9.626   2.368  0.0535 -0.8661  0.3660
  328MOL0     C44163   7.038   9.748   2.442  0.1866  0.8231  0.3219
  328MOL0     C44164   7.137   9.828   2.401 -0.2235 -0.2414 -0.9532
  328MOL0     C44165   7.182   9.955   2.460  0.6740 -0.7757  0.2756
  328MOL0     C44166   7.261   9.936   2.589  0.0562  0.2733  1.0002
  328MOL0     C44167   7.368   9.830   2.590  0.3740  0.0144  1.2651
  328MOL0     C44168   7.426   9.793   2.723 -1.5389 -0.6875 -0.1015
  328MOL0     O44169   7.505   9.906   2.773 -0.3565  0.5523 -0.1694
  328MOL0     C44170   7.643   9.901   2.741 -0.6264  0.3394 -0.8744
  328MOL0     C44171   7.714   9.812   2.660  1.0287  0.1763 -0.3154
  328MOL0     C44172   7.856   9.836   2.634  0.6763  0.1972 -0.4195
  328MOL0     C44173   7.917   9.960   2.672 -0.5162 -0.3049  0.3591
  328MOL0     C44174   8.058   9.985   2.638  0.1664 -0.1057 -0.1089
  328MOL0     O44175   8.118  10.092   2.692 -0.0091 -0.2993 -0.3531
  328MOL0     C44176   8.241  10.139   2.649  0.6798  0.0584  0.5765
  328MOL0     C44177   8.354  10.064   2.638  0.1399 -0.0331  0.3582
  328MOL0     C44178   8.474  10.128   2.594  0.8711  0.6653  0.6555
  328MOL0     C44179   8.478  10.269   2.572 -0.2061  0.1357  0.4084
  328MOL0     O44180   8.582  10.331   2.499 -0.0869  0.0824  0.0816
  328MOL0     C44181   8.713  10.265   2.509  0.4524  0.3272 -0.3881
  328MOL0     C44182   8.785  10.328   2.630 -0.5298 -0.2813  0.4871
  328MOL0     C44183   8.919  10.270   2.675  0.3752  0.2686 -1.0178
  328MOL0     C44184   9.024  10.282   2.558 -0.9426  0.0322  0.2115
  328MOL0     C44185   9.056  10.152   2.466 -1.4055 -0.7073 -0.4793
  328MOL0     C44186   9.109  10.030   2.546  0.8447  0.0851  0.4785
  328MOL0     C44187   9.144   9.905   2.448  0.8392 -0.3720  0.4331
  328MOL0     C44188   9.021   9.864   2.348 -0.4405  0.5439 -0.6483
  328MOL0    Cl44189   8.857   9.829   2.432  0.1419  0.1866 -0.3914
  328MOL0     C44190   8.360  10.339   2.586 -0.4741 -0.6817  0.2739
  328MOL0     C44191   8.243  10.271   2.623 -0.5639  0.6741 -0.0373
  328MOL0     O44192   8.099   9.922   2.545 -0.3204  0.2001 -0.4382
  328MOL0     C44193   7.833  10.050   2.739 -0.3168 -0.3093  0.2151
  328MOL0     C44194   7.703  10.023   2.784 -0.0057  0.7737  0.1129
  328MOL0     N44195   7.213   9.759   2.304  0.0493 -0.0656 -0.2479
  328MOL0     N44196   7.149   9.643   2.279  0.1757  0.0743  0.1554
  328MOL0     C44197   6.046   9.251   2.393 -0.0094  0.0394  0.0946
  328MOL0     C44198   5.932   9.201   2.464 -0.1887 -0.2759  0.2551
  328MOL0     C44199   5.464   9.167   2.522 -0.5365  0.6220  0.7161
  328MOL0     C44200   5.464   9.254   2.630  0.0428 -1.3506  0.2520
  328MOL0     C44201   5.352   9.287   2.699 -0.2237 -0.5144 -0.1770
  328MOL0     C44202   5.228   9.242   2.654 -0.2233 -0.2236  0.4601
  328MOL0     O44203   5.109   9.278   2.717 -0.6927  0.3441 -0.4547
  328MOL0     C44204   5.016   9.365   2.647  1.6222  0.1283 -0.1489
  328MOL0     C44205   4.898   9.282   2.600  0.2524  0.2129  0.9823
  328MOL0     C44206   4.788   9.261   2.717  0.1805 -0.0676  0.2908
  328MOL0     C44207   4.648   9.314   2.659 -1.0653  0.3638  0.0221
  328MOL0     C44208   4.542   9.280   2.748 -0.4702  0.1589 -0.8449
  328MOL0     C44209   4.456   9.256   2.834 -0.4477 -0.6366 -0.0408
  328MOL0     C44210   5.219   9.159   2.548  0.0666 -0.5301  0.4532
  328MOL0     C44211   5.335   9.122   2.475  0.8746 -0.3728  0.4962
  328MOL0     C44212   5.316   9.023   2.363  0.1115  0.3049 -0.0484
  328MOL0     H44213   5.698   9.361   2.294  1.1298  2.1996 -0.8977
  328MOL0     H44214   5.903   9.425   2.147  3.6867 -1.6460 -2.3378
  328MOL0     H44215   6.195   9.164   2.213 -1.5200  0.0945 -0.3186
  328MOL0     H44216   6.237   9.223   2.064 -0.7551  0.4210 -0.1554
  328MOL0     H44217   6.437   9.223   2.224  1.4851  0.9786 -0.5886
  328MOL0     H44218   6.349   9.338   2.331  0.7614 -2.9239  0.9063
  328MOL0     H44219   6.376   9.506   2.151  2.4094  0.3132  0.8655
  328MOL0     H44220   6.428   9.370   2.054 -0.3318 -0.3232  0.3414
  328MOL0     H44221   6.563   9.427   2.330  1.8358 -2.2992 -0.0309
  328MOL0     H44222   6.622   9.332   2.201  0.0967 -0.0695 -0.4863
  328MOL0     H44223   6.641   9.537   2.051 -0.8279 -2.5462  0.0663
  328MOL0     H44224   6.620   9.634   2.194 -2.3463 -0.8968  0.4285
  328MOL0     H44225   6.850   9.422   2.166  0.9976  1.2527 -1.4024
  328MOL0     H44226   6.866   9.597   2.160 -1.3200  1.9643  1.6680
  328MOL0     H44227   6.774   9.451   2.415  1.6758 -0.8452 -0.0921
  328MOL0     H44228   6.790   9.624   2.392 -1.5123 -0.1365  0.4268
  328MOL0     H44229   6.999   9.474   2.487  2.8604  1.1960  0.0956
  328MOL0     H44230   7.017   9.418   2.320  2.7192  2.1922  0.3528
  328MOL0     H44231   6.967   9.779   2.518 -0.5556  3.2659 -1.2458
  328MOL0     H44232   7.240  10.002   2.380 -1.1551 -0.7068 -1.0825
  328MOL0     H44233   7.092  10.015   2.477 -2.1379 -3.9075 -2.1091
  328MOL0     H44234   7.309  10.031   2.611 -1.5098  0.6553  3.1556
  328MOL0     H44235   7.187   9.922   2.669  0.4160  2.9487  1.9172
  328MOL0     H44236   7.452   9.872   2.533  0.1849  0.2908  1.1851
  328MOL0     H44237   7.335   9.740   2.538 -0.6101 -0.3188  2.4321
  328MOL0     H44238   7.479   9.699   2.708  1.7712  1.1077 -0.7726
  328MOL0     H44239   7.345   9.775   2.794 -2.0555 -0.9095 -0.7423
  328MOL0     H44240   7.666   9.720   2.628  1.3929 -0.7420  1.6401
  328MOL0     H44241   7.904   9.760   2.574 -0.2291 -1.5537  0.9915
  328MOL0     H44242   8.354   9.956   2.648 -2.0372 -0.1422 -0.1975
  328MOL0     H44243   8.562  10.068   2.572  1.3434  0.2139  3.3487
  328MOL0     H44244   8.717  10.156   2.511 -1.3195  0.2571  0.8314
  328MOL0     H44245   8.771  10.293   2.420  2.1517  1.1760  0.9177
  328MOL0     H44246   8.791  10.437   2.617  2.6348 -0.3318  0.8152
  328MOL0     H44247   8.716  10.315   2.713  0.1072 -1.8941  0.8009
  328MOL0     H44248   8.947  10.323   2.766 -2.2093 -1.8324  1.1815
  328MOL0     H44249   8.921  10.166   2.709  4.9018  0.9047  1.3999
  328MOL0     H44250   9.119  10.320   2.597 -1.8714  2.3713  0.3892
  328MOL0     H44251   8.981  10.357   2.492 -2.4755 -0.9896 -0.0067
  328MOL0     H44252   9.137  10.184   2.399  1.2780 -0.8260  2.4731
  328MOL0     H44253   8.967  10.132   2.406 -1.6585 -1.5483  0.1576
  328MOL0     H44254   9.196  10.060   2.606 -0.9776  0.0651  3.3252
  328MOL0     H44255   9.030  10.007   2.618  0.5689 -1.6667 -0.3439
  328MOL0     H44256   9.163   9.819   2.512 -0.7254  0.9694  2.8596
  328MOL0     H44257   9.235   9.923   2.390  1.0710  1.3420  1.2311
  328MOL0     H44258   9.013   9.947   2.277  0.2483  1.9653  0.8570
  328MOL0     H44259   9.052   9.777   2.289  1.7748  1.1336 -0.4386
  328MOL0     H44260   8.339  10.442   2.557 -2.0922 -0.3240  2.4526
  328MOL0     H44261   8.150  10.325   2.637 -1.6358 -1.1014 -0.0381
  328MOL0     H44262   7.873  10.149   2.760 -1.5209  0.9872 -3.0940
  328MOL0     H44263   7.646  10.102   2.831 -1.0743 -0.1649  0.4493
  328MOL0     H44264   6.148   9.224   2.418 -0.3969 -1.6792 -0.0219
  328MOL0     H44265   5.949   9.113   2.527 -2.0018 -1.2235 -0.4993
  328MOL0     H44266   5.556   9.292   2.672  1.0467 -0.3323 -2.6047
  328MOL0     H44267   5.362   9.343   2.791  0.3271 -1.9262  0.6548
  328MOL0     H44268   5.064   9.413   2.562  0.5604  1.4378 -0.0568
  328MOL0     H44269   4.964   9.439   2.709 -0.9330 -2.7596  1.4210
  328MOL0     H44270   4.926   9.186   2.556  0.5612  0.4158  0.7235
  328MOL0     H44271   4.850   9.335   2.516  0.2120 -0.1151  0.7969
  328MOL0     H44272   4.815   9.319   2.806  1.1796 -1.8105  1.1843
  328MOL0     H44273   4.785   9.156   2.748 -1.9873 -0.1958 -0.2049
  328MOL0     H44274   4.658   9.423   2.661  0.5202  0.2364  0.2457
  328MOL0     H44275   4.642   9.304   2.551 -2.8032  0.2013  0.1008
  328MOL0     H44276   4.376   9.222   2.896 -0.8333 -1.6000 -1.0172
  328MOL0     H44277   5.123   9.130   2.506  0.7106  0.4892 -1.8953
  328MOL0     H44278   5.224   8.965   2.370 -0.0134  0.5474  0.3546
  328MOL0     H44279   5.309   9.068   2.264  1.1731 -0.0730 -0.3095
  328MOL0     H44280   5.397   8.949   2.365 -0.4692 -0.3422  1.6394
  329MOL0     O44281   6.027   6.295   7.761  0.2550  0.6395 -0.0895
  329MOL0     C44282   6.041   6.392   7.836  0.4563 -0.9043 -0.3577
  329MOL0     O44283   5.949   6.444   7.926  0.1689  0.0931 -0.3190
  329MOL0     C44284   5.840   6.372   7.958  0.8158 -0.4398 -0.4595
  329MOL0     C44285   5.737   6.360   7.865  0.7916  0.2307 -0.1740
  329MOL0     C44286   5.632   6.273   7.883 -0.7640  0.5106  0.2395
  329MOL0     C44287   5.624   6.191   7.994  0.6929  0.0408  0.5794
  329MOL0     O44288   5.510   6.113   8.012 -0.5361  0.1457 -0.9147
  329MOL0     C44289   5.510   6.017   8.118 -0.7263  0.0444  0.0579
  329MOL0     C44290   5.391   5.912   8.099  0.5425 -0.4479  0.7379
  329MOL0     C44291   5.252   5.972   8.049 -0.0319 -0.2455  0.7067
  329MOL0     C44292   5.158   5.864   8.007 -0.2137 -0.3043 -0.0294
  329MOL0     C44293   5.031   5.927   7.951  0.1419  0.3222  0.2701
  329MOL0     C44294   4.940   5.815   7.898  0.4336 -0.9741 -0.2490
  329MOL0     C44295   4.819   5.885   7.840 -0.5067  0.0381  0.1599
  329MOL0     C44296   4.722   5.927   7.954  0.5684 -0.0766  0.2167
  329MOL0     N44297   4.590   5.940   7.890 -0.0356  0.0623  0.0991
  329MOL0     C44298   4.527   5.835   7.820 -0.6115  0.0615 -0.0407
  329MOL0     C44299   4.429   5.903   7.750  0.6393  0.8782  0.3767
  329MOL0     C44300   4.333   5.843   7.653 -0.4626 -0.1528 -0.2110
  329MOL0     C44301   4.393   5.773   7.527  0.1582  0.6866 -0.4734
  329MOL0     C44302   4.482   5.868   7.445 -0.5170  0.6838  0.1864
  329MOL0     C44303   4.547   5.794   7.328 -0.0627 -0.4280 -0.1709
  329MOL0     O44304   4.621   5.681   7.378  0.6487 -0.1507  0.1195
  329MOL0     C44305   4.750   5.705   7.419 -0.1547  0.3474 -0.5848
  329MOL0     C44306   4.807   5.602   7.497  0.0109  0.3366 -0.0610
  329MOL0     C44307   4.937   5.619   7.552 -0.2957 -0.4548 -0.7076
  329MOL0     C44308   5.013   5.729   7.519 -1.0212 -0.1985  0.4690
  329MOL0     C44309   5.156   5.741   7.565 -0.9967  0.0475  0.2637
  329MOL0     O44310   5.238   5.826   7.494  0.3351 -0.4890 -0.1411
  329MOL0     C44311   5.372   5.844   7.517 -0.7594 -0.2375  0.3095
  329MOL0     C44312   5.435   5.838   7.646  0.1716  0.1317 -0.4851
  329MOL0     C44313   5.575   5.863   7.663 -0.7668 -0.2303 -0.0824
  329MOL0     C44314   5.651   5.893   7.556  0.4806  0.1345  0.6026
  329MOL0     O44315   5.787   5.901   7.588 -0.2312 -0.4347  0.3633
  329MOL0     C44316   5.877   5.918   7.471 -0.8344 -0.2919  0.2019
  329MOL0     C44317   6.018   5.960   7.529 -0.5147  0.2013 -0.0850
  329MOL0     C44318   6.125   6.003   7.433 -0.2033 -0.0133  0.6037
  329MOL0     C44319   6.242   6.076   7.503 -0.0014 -0.3637  0.8359
  329MOL0     C44320   6.345   6.120   7.391  0.2264  0.3513 -0.0768
  329MOL0     C44321   6.475   6.175   7.450  0.1617  1.3303 -0.1254
  329MOL0     C44322   6.474   6.326   7.468 -0.4992  0.9145 -0.1291
  329MOL0     C44323   6.575   6.389   7.563  0.0920 -0.4298 -0.0169
  329MOL0    Cl44324   6.729   6.346   7.497 -0.3071  0.0829 -0.4272
  329MOL0     C44325   5.583   5.891   7.429 -0.3980  0.7270 -0.3533
  329MOL0     C44326   5.457   5.869   7.408  0.9679  0.3797 -0.2015
  329MOL0     O44327   5.198   5.664   7.646  0.5015  0.4870 -0.5577
  329MOL0     C44328   4.956   5.827   7.437  0.0987 -1.3705  0.5134
  329MOL0     C44329   4.826   5.819   7.387  0.0211  0.0536 -0.0036
  329MOL0     N44330   4.434   6.036   7.785  0.0292  0.5251  0.4898
  329MOL0     N44331   4.522   6.055   7.884  0.7691 -0.3151  0.1753
  329MOL0     C44332   5.729   6.188   8.083 -0.1674  0.1855 -0.8181
  329MOL0     C44333   5.832   6.286   8.071  0.5630  0.0912  0.3600
  329MOL0     C44334   6.175   6.460   7.831 -0.4531  1.2207  0.6995
  329MOL0     C44335   6.248   6.486   7.947  0.0404 -0.0301  0.6973
  329MOL0     C44336   6.378   6.543   7.946  0.8763  0.6211  0.1978
  329MOL0     C44337   6.435   6.589   7.827  0.0895  1.0469 -0.8370
  329MOL0     O44338   6.567   6.621   7.819 -0.0907 -0.3080 -0.5573
  329MOL0     C44339   6.642   6.660   7.934  0.4590  0.2435 -0.4731
  329MOL0     C44340   6.773   6.719   7.897 -0.0756  0.3153 -0.0486
  329MOL0     C44341   6.857   6.617   7.815 -0.3758  0.3468 -0.1508
  329MOL0     C44342   6.901   6.483   7.864  0.1476 -0.4905 -0.0383
  329MOL0     C44343   6.971   6.416   7.751 -0.7919  0.0243  0.6667
  329MOL0     C44344   7.037   6.370   7.657 -0.1665  0.6640  0.0332
  329MOL0     C44345   6.362   6.570   7.712 -0.9082 -0.6895 -0.0784
  329MOL0     C44346   6.230   6.511   7.712 -0.4888  1.0118  0.7138
  329MOL0     C44347   6.146   6.517   7.587 -0.3077 -0.2108  0.0073
  329MOL0     H44348   5.728   6.424   7.778 -1.7101 -0.3659 -0.4369
  329MOL0     H44349   5.559   6.276   7.802  0.5685  3.7203 -1.0220
  329MOL0     H44350   5.600   5.956   8.108 -1.4597 -0.6933 -3.0622
  329MOL0     H44351   5.503   6.064   8.216  1.3957  0.3838  0.0932
  329MOL0     H44352   5.383   5.851   8.189 -0.9386  0.9074  1.5872
  329MOL0     H44353   5.427   5.843   8.022 -0.1098  0.2944 -0.2524
  329MOL0     H44354   5.270   6.044   7.969 -0.7608  0.7831  1.4417
  329MOL0     H44355   5.208   6.033   8.128  2.2957  1.7819  0.5724
  329MOL0     H44356   5.213   5.806   7.933 -1.0839 -0.7811 -0.3152
  329MOL0     H44357   5.141   5.803   8.096  2.0345 -0.9287  0.0437
  329MOL0     H44358   4.980   5.977   8.034  0.7812 -0.7386  1.3473
  329MOL0     H44359   5.055   6.004   7.877  1.1745  0.3524  0.6173
  329MOL0     H44360   4.991   5.751   7.826  1.2875 -0.8412  0.2202
  329MOL0     H44361   4.913   5.755   7.985  3.1506 -0.5586  0.9655
  329MOL0     H44362   4.776   5.823   7.761 -1.2243 -1.8280  1.9196
  329MOL0     H44363   4.851   5.969   7.777 -0.9630 -1.6544 -2.4520
  329MOL0     H44364   4.714   5.853   8.034 -3.0396 -0.2287 -0.1551
  329MOL0     H44365   4.751   6.026   7.991  0.5118  1.6288 -3.7281
  329MOL0     H44366   4.552   5.730   7.816 -0.4980  0.0142  1.5616
  329MOL0     H44367   4.280   5.761   7.704  0.5693 -0.1809  0.8758
  329MOL0     H44368   4.250   5.908   7.625  1.4069  1.4789 -2.2281
  329MOL0     H44369   4.461   5.700   7.574 -1.2615 -1.4190 -1.5025
  329MOL0     H44370   4.315   5.722   7.470  0.8472  0.7707 -1.5151
  329MOL0     H44371   4.555   5.921   7.506 -0.5731  0.3178  0.5828
  329MOL0     H44372   4.412   5.946   7.413 -3.5030 -1.2875  1.4024
  329MOL0     H44373   4.595   5.870   7.266 -4.7596  2.0473 -1.2642
  329MOL0     H44374   4.474   5.756   7.256 -0.6814  1.3846 -0.5384
  329MOL0     H44375   4.758   5.505   7.505 -1.0309  0.8191 -0.3931
  329MOL0     H44376   4.965   5.531   7.609 -2.8990  0.6359  2.5738
  329MOL0     H44377   5.376   5.828   7.737  1.3747 -3.3351  0.0674
  329MOL0     H44378   5.619   5.862   7.762 -1.0987 -1.1946  0.0657
  329MOL0     H44379   5.872   5.835   7.401 -2.3699  0.7259 -0.9701
  329MOL0     H44380   5.837   6.000   7.411  1.1689  1.8549  1.6452
  329MOL0     H44381   5.993   6.033   7.606 -1.3150 -0.8563  0.6872
  329MOL0     H44382   6.057   5.872   7.582  2.0553  0.4999 -1.3339
  329MOL0     H44383   6.160   5.920   7.371 -2.8625  0.5735 -1.9507
  329MOL0     H44384   6.080   6.072   7.360  1.7603  1.8739  1.0556
  329MOL0     H44385   6.300   6.012   7.571  1.9181  0.4474  0.0288
  329MOL0     H44386   6.210   6.158   7.568  2.4801  1.5404 -0.2351
  329MOL0     H44387   6.296   6.185   7.318  1.5765  0.4101 -0.9709
  329MOL0     H44388   6.383   6.032   7.339 -0.1054 -2.6024  4.1277
  329MOL0     H44389   6.493   6.130   7.548  0.1697  3.8013  1.0669
  329MOL0     H44390   6.553   6.140   7.382 -1.7237 -1.1267 -1.1853
  329MOL0     H44391   6.382   6.356   7.518 -0.5755 -1.9651  1.6567
  329MOL0     H44392   6.485   6.376   7.371 -0.2775 -1.4847 -1.4139
  329MOL0     H44393   6.573   6.498   7.553  0.9138 -0.2992  1.1473
  329MOL0     H44394   6.567   6.345   7.663  1.7551 -1.9128 -0.4853
  329MOL0     H44395   5.643   5.913   7.341  1.5412  0.6425  0.8844
  329MOL0     H44396   5.422   5.881   7.306 -1.5576  0.6922  0.6335
  329MOL0     H44397   5.013   5.915   7.410  1.3559 -1.6667  2.0919
  329MOL0     H44398   4.787   5.896   7.321 -3.7935 -1.5243  0.1173
  329MOL0     H44399   5.725   6.124   8.171  1.4320 -0.1764 -0.9770
  329MOL0     H44400   5.907   6.290   8.150 -0.5384  0.0073  1.4427
  329MOL0     H44401   6.187   6.463   8.034 -2.5189 -0.4499 -1.0918
  329MOL0     H44402   6.433   6.551   8.039  0.2296  2.4573  0.4538
  329MOL0     H44403   6.657   6.569   7.993 -0.6242  0.2677 -0.1337
  329MOL0     H44404   6.581   6.723   8.000  0.3086 -0.9127  0.5429
  329MOL0     H44405   6.826   6.752   7.986  0.3860 -3.1913  1.1501
  329MOL0     H44406   6.747   6.805   7.834  1.0590  1.3113  0.7949
  329MOL0     H44407   6.948   6.663   7.777  0.9313 -2.1236 -0.1908
  329MOL0     H44408   6.800   6.598   7.724  0.2881  0.5449 -0.6127
  329MOL0     H44409   6.965   6.500   7.951  0.0074 -2.2611  0.4475
  329MOL0     H44410   6.814   6.423   7.893 -0.1772  0.0857  0.1859
  329MOL0     H44411   7.098   6.321   7.583  0.9054 -0.9616  1.9136
  329MOL0     H44412   6.405   6.618   7.624 -0.1633 -1.3007 -0.0489
  329MOL0     H44413   6.039   6.531   7.606  0.2113  1.9321  1.7613
  329MOL0     H44414   6.189   6.604   7.535  0.9625 -0.6763  0.2631
  329MOL0     H44415   6.158   6.422   7.535  0.6513  1.3705 -2.8759
  330MOL0     O44416   0.975   1.981   6.252 -0.0159 -0.5446  0.5032
  330MOL0     C44417   1.036   1.875   6.243 -0.1096  0.2058 -0.0397
  330MOL0     O44418   1.171   1.859   6.222 -0.2134 -0.1794  0.2508
  330MOL0     C44419   1.256   1.956   6.187  0.1120 -0.5792  0.2429
  330MOL0     C44420   1.252   2.084   6.243 -0.0587 -0.2740 -0.2556
  330MOL0     C44421   1.339   2.188   6.186  0.1301  0.2693  0.1478
  330MOL0     C44422   1.435   2.152   6.096  0.7095 -0.2631  0.2641
  330MOL0     O44423   1.520   2.249   6.044 -0.2665  0.3683  1.2184
  330MOL0     C44424   1.649   2.240   6.108 -0.4132  0.3534  0.3191
  330MOL0     C44425   1.773   2.252   6.014 -0.5739 -0.1885 -0.5687
  330MOL0     C44426   1.760   2.135   5.914  0.2411  0.8917  0.1424
  330MOL0     C44427   1.895   2.105   5.842  0.1583  0.2516 -0.2543
  330MOL0     C44428   1.865   2.013   5.713  0.0590 -0.9782 -0.2111
  330MOL0     C44429   1.996   1.985   5.636  0.1121  0.6889  0.2820
  330MOL0     C44430   1.967   1.924   5.502 -0.7065  0.1006 -0.2255
  330MOL0     C44431   2.094   1.859   5.441  0.8920 -0.0524  0.1060
  330MOL0     N44432   2.193   1.953   5.392  0.5691  0.0293  0.6931
  330MOL0     C44433   2.331   1.934   5.385  0.4887  0.4005  0.2682
  330MOL0     C44434   2.373   2.053   5.337 -0.8244 -0.2259 -0.4829
  330MOL0     C44435   2.523   2.082   5.347  0.8570  0.9252  0.5078
  330MOL0     C44436   2.550   2.178   5.460 -0.0129 -0.1132 -0.0084
  330MOL0     C44437   2.517   2.121   5.599  0.3346  0.3461 -0.4404
  330MOL0     C44438   2.559   2.219   5.713  0.4160  0.2380  0.5887
  330MOL0     O44439   2.586   2.147   5.836 -0.2455  0.4742  0.3175
  330MOL0     C44440   2.718   2.160   5.886  2.2861  0.1620 -0.0695
  330MOL0     C44441   2.833   2.129   5.805 -1.3680 -0.4114  0.1986
  330MOL0     C44442   2.959   2.136   5.864 -0.6147  0.8021 -0.8866
  330MOL0     C44443   2.981   2.167   5.998  0.3486 -0.1378  0.6408
  330MOL0     C44444   3.120   2.170   6.053 -0.2574 -0.2051  0.2600
  330MOL0     O44445   3.223   2.114   5.988  0.1847 -0.9135  0.7784
  330MOL0     C44446   3.349   2.107   6.041  0.4544 -0.6221  0.1736
  330MOL0     C44447   3.452   2.135   5.964 -0.7054 -0.2552  0.2683
  330MOL0     C44448   3.585   2.098   5.996 -0.0456 -0.4908 -0.8407
  330MOL0     C44449   3.623   2.046   6.122  0.0002  0.4984  0.7620
  330MOL0     O44450   3.757   2.029   6.135 -0.8666  0.4855  0.5795
  330MOL0     C44451   3.808   2.067   6.263  0.1290  0.2662  0.1583
  330MOL0     C44452   3.947   2.138   6.255  0.3676 -0.1155  0.9459
  330MOL0     C44453   3.947   2.282   6.186  0.1743 -0.2893 -0.2756
  330MOL0     C44454   4.095   2.308   6.156 -0.8481  0.8491  0.4085
  330MOL0     C44455   4.110   2.444   6.092  0.1217  0.0500 -0.4662
  330MOL0     C44456   4.261   2.485   6.059 -0.2150  0.6652 -0.1037
  330MOL0     C44457   4.319   2.394   5.948  0.7441  0.1094 -0.0712
  330MOL0     C44458   4.448   2.453   5.874  0.2941  0.5648 -0.0674
  330MOL0    Cl44459   4.571   2.481   5.996  0.2381 -0.0637  0.1276
  330MOL0     C44460   3.514   2.031   6.216 -0.0815 -0.2986  1.0717
  330MOL0     C44461   3.384   2.055   6.172  0.7119  0.0971  0.3958
  330MOL0     O44462   3.127   2.233   6.157 -0.1391 -0.3608 -0.7203
  330MOL0     C44463   2.864   2.203   6.073 -0.7411 -0.4904 -0.5734
  330MOL0     C44464   2.734   2.198   6.024 -0.7619 -0.3607  0.4986
  330MOL0     N44465   2.273   2.137   5.307  0.1054 -0.1255  0.0799
  330MOL0     N44466   2.165   2.072   5.337  0.3052  0.9834  0.1174
  330MOL0     C44467   1.447   2.021   6.044 -0.1952  0.7528  0.6273
  330MOL0     C44468   1.348   1.925   6.090 -0.7644 -0.6094  0.2173
  330MOL0     C44469   0.963   1.746   6.257  0.5690  0.4416 -0.4387
  330MOL0     C44470   1.037   1.626   6.270 -0.1096 -0.4045 -0.4821
  330MOL0     C44471   0.981   1.502   6.279  0.7676 -0.0291 -0.3990
  330MOL0     C44472   0.839   1.486   6.277 -0.3190 -0.1689  0.5716
  330MOL0     O44473   0.796   1.358   6.292 -0.4367  0.5710 -0.4301
  330MOL0     C44474   0.660   1.328   6.269  0.1975  1.3262 -0.7921
  330MOL0     C44475   0.566   1.378   6.388 -0.8459 -0.0417  0.3193
  330MOL0     C44476   0.580   1.289   6.514 -0.0343  0.0659 -0.4721
  330MOL0     C44477   0.492   1.335   6.622 -0.6615 -0.5656  0.2599
  330MOL0     C44478   0.537   1.470   6.678  0.2381 -0.9896  0.2342
  330MOL0     C44479   0.562   1.568   6.739 -0.3575 -0.8926 -0.5104
  330MOL0     C44480   0.759   1.598   6.258  0.2013 -0.2926 -0.2369
  330MOL0     C44481   0.819   1.732   6.249 -0.7275  0.1178 -0.8022
  330MOL0     C44482   0.729   1.842   6.220  0.0818  0.5357 -0.2462
  330MOL0     H44483   1.171   2.116   6.308 -0.2577 -1.1392 -0.0569
  330MOL0     H44484   1.338   2.290   6.223  2.3498  0.0739  0.8677
  330MOL0     H44485   1.658   2.307   6.194  1.7066 -0.4236  0.7533
  330MOL0     H44486   1.665   2.142   6.152  0.0555  0.8474  1.2722
  330MOL0     H44487   1.857   2.232   6.081 -1.4285  0.2490  0.6737
  330MOL0     H44488   1.783   2.348   5.963 -1.3965  0.3091  0.1780
  330MOL0     H44489   1.683   2.156   5.838 -0.8818  3.3481  1.8307
  330MOL0     H44490   1.736   2.041   5.965 -0.5001  0.0958 -1.5877
  330MOL0     H44491   1.929   2.199   5.798 -1.4496 -0.2533 -2.7898
  330MOL0     H44492   1.956   2.065   5.924 -1.7057  1.1277  1.6691
  330MOL0     H44493   1.802   1.927   5.737 -0.2443 -0.6156  0.3044
  330MOL0     H44494   1.797   2.074   5.652  0.5921 -0.0004  0.1392
  330MOL0     H44495   2.055   2.076   5.624  0.5994  0.4472  0.8372
  330MOL0     H44496   2.050   1.912   5.697 -0.8405  1.2701  1.8686
  330MOL0     H44497   1.935   1.999   5.429  1.1179  2.9817  1.7319
  330MOL0     H44498   1.890   1.849   5.523 -2.3083  1.7663  0.0972
  330MOL0     H44499   2.138   1.791   5.515  1.3529 -2.3409 -2.1135
  330MOL0     H44500   2.053   1.797   5.360 -0.6434 -2.1848  2.3646
  330MOL0     H44501   2.387   1.850   5.425  0.2458  1.0160  1.9439
  330MOL0     H44502   2.572   1.984   5.351 -1.0877 -0.1753 -1.1104
  330MOL0     H44503   2.560   2.133   5.258  2.4759  0.8258  1.0778
  330MOL0     H44504   2.655   2.207   5.460 -0.3547  1.2121 -1.6622
  330MOL0     H44505   2.485   2.266   5.457 -2.0054 -1.5280 -1.3353
  330MOL0     H44506   2.585   2.035   5.601 -1.1730 -0.9268 -1.6146
  330MOL0     H44507   2.416   2.079   5.603  1.3465 -2.2111  1.2832
  330MOL0     H44508   2.474   2.287   5.726 -0.2879 -0.9642  2.7514
  330MOL0     H44509   2.647   2.275   5.680 -0.7909  0.5845 -2.3442
  330MOL0     H44510   2.827   2.104   5.699  0.6190 -2.8835  0.5694
  330MOL0     H44511   3.040   2.124   5.793 -1.9546  0.5874 -2.4528
  330MOL0     H44512   3.426   2.188   5.872  0.4835 -1.0563 -0.5618
  330MOL0     H44513   3.657   2.113   5.916  1.5958 -0.9634  0.4914
  330MOL0     H44514   3.741   2.134   6.317  0.2270  0.0322  0.5748
  330MOL0     H44515   3.828   1.970   6.311  1.8646 -0.7410 -2.3657
  330MOL0     H44516   3.993   2.135   6.354  0.6072 -0.8332  0.8191
  330MOL0     H44517   4.008   2.080   6.185 -0.6881  0.8540 -0.8752
  330MOL0     H44518   3.888   2.276   6.095 -0.2268 -2.3768  0.0804
  330MOL0     H44519   3.906   2.356   6.255 -0.4276 -1.0853  0.2413
  330MOL0     H44520   4.145   2.227   6.101  0.2631  3.1708 -2.2794
  330MOL0     H44521   4.151   2.304   6.250 -1.2806 -2.1142  0.6366
  330MOL0     H44522   4.070   2.512   6.167  1.1667  0.7191 -0.5098
  330MOL0     H44523   4.052   2.429   5.999 -1.8105 -1.0731  0.8372
  330MOL0     H44524   4.260   2.585   6.014  3.7794  0.6345 -0.6272
  330MOL0     H44525   4.321   2.467   6.148 -2.4890 -1.5640  1.1120
  330MOL0     H44526   4.238   2.379   5.876 -1.0230 -1.5614  2.1024
  330MOL0     H44527   4.347   2.297   5.990 -1.5505  0.4642  2.5632
  330MOL0     H44528   4.483   2.388   5.794 -0.3782  1.0872 -0.8045
  330MOL0     H44529   4.428   2.551   5.828  0.0718  0.1733 -0.8228
  330MOL0     H44530   3.537   1.997   6.316  0.8057 -0.8614  0.6980
  330MOL0     H44531   3.309   2.033   6.247 -0.0493  2.1704  0.3179
  330MOL0     H44532   2.872   2.232   6.177  0.0823  1.1572 -1.0624
  330MOL0     H44533   2.646   2.222   6.082 -2.9043 -1.6434 -2.0494
  330MOL0     H44534   1.522   2.006   5.968  0.1198  0.0410  1.0681
  330MOL0     H44535   1.344   1.825   6.048  2.4480 -1.9073  2.5899
  330MOL0     H44536   1.145   1.626   6.276 -0.0235 -0.2268 -1.7847
  330MOL0     H44537   1.050   1.419   6.292  1.5949  0.6280 -0.5723
  330MOL0     H44538   0.662   1.220   6.256  0.8011  1.5173 -2.5106
  330MOL0     H44539   0.635   1.374   6.173  3.1655  0.7784 -1.9058
  330MOL0     H44540   0.464   1.381   6.347 -1.1990 -3.8915  0.5638
  330MOL0     H44541   0.594   1.481   6.411  0.6955 -0.3572 -0.0588
  330MOL0     H44542   0.686   1.300   6.537 -0.2274  1.8873 -0.3213
  330MOL0     H44543   0.564   1.186   6.482  3.2264  0.1931 -3.1578
  330MOL0     H44544   0.389   1.338   6.584 -0.8378 -1.9066  0.5898
  330MOL0     H44545   0.501   1.266   6.706 -0.6351  1.4198  1.9908
  330MOL0     H44546   0.585   1.658   6.792  0.5683 -1.3116 -0.1656
  330MOL0     H44547   0.654   1.578   6.241 -0.4033  2.1911  0.1516
  330MOL0     H44548   0.772   1.889   6.131  0.2961 -2.8182 -2.0862
  330MOL0     H44549   0.624   1.816   6.203  0.5146 -1.5605  0.0309
  330MOL0     H44550   0.734   1.902   6.311 -1.3660 -2.0486  1.6676
  331MOL0     O44551   4.513   3.891   8.670 -0.1493 -0.2853 -0.8964
  331MOL0     C44552   4.431   3.948   8.595 -0.3874  0.3654 -0.2791
  331MOL0     O44553   4.453   4.059   8.519  0.1617  0.5141  0.7067
  331MOL0     C44554   4.587   4.078   8.496 -0.3559 -0.0182 -0.2598
  331MOL0     C44555   4.637   4.204   8.525  0.2177  0.0377 -1.0504
  331MOL0     C44556   4.768   4.252   8.503  0.1161  0.4983  0.0223
  331MOL0     C44557   4.855   4.166   8.427  0.6148 -0.4132  0.3864
  331MOL0     O44558   4.978   4.207   8.389 -0.2478 -0.2318  0.5450
  331MOL0     C44559   5.021   4.352   8.386  0.5551 -0.3574  0.2285
  331MOL0     C44560   5.153   4.363   8.312  0.7303  0.0105 -0.3816
  331MOL0     C44561   5.272   4.279   8.364 -0.2511 -0.2383  0.5788
  331MOL0     C44562   5.336   4.362   8.479  0.0050  0.2551  0.0107
  331MOL0     C44563   5.465   4.290   8.534  0.6065 -0.0895 -0.8176
  331MOL0     C44564   5.513   4.359   8.657 -0.2173  0.6020 -0.7117
  331MOL0     C44565   5.585   4.488   8.615  0.3059  0.0016 -0.1074
  331MOL0     C44566   5.657   4.558   8.736 -0.4615 -0.2864  1.0007
  331MOL0     N44567   5.709   4.688   8.677  0.8213 -0.7994 -0.8571
  331MOL0     C44568   5.766   4.715   8.556  0.3159 -0.4887  0.3629
  331MOL0     C44569   5.790   4.841   8.558  0.3253 -0.9710 -0.5868
  331MOL0     C44570   5.859   4.914   8.447  1.3413  0.2601 -0.6913
  331MOL0     C44571   6.010   4.891   8.459 -0.1935 -1.2330 -0.4184
  331MOL0     C44572   6.074   4.966   8.572 -0.4038 -0.6605 -0.4340
  331MOL0     C44573   6.222   4.962   8.555 -0.3098  0.7231 -0.1935
  331MOL0     O44574   6.267   5.016   8.426 -0.0457  0.2721  0.1573
  331MOL0     C44575   6.403   5.036   8.416  0.1520 -0.8236 -0.3096
  331MOL0     C44576   6.495   5.039   8.530  0.3277 -0.2188 -0.0678
  331MOL0     C44577   6.627   5.075   8.507 -0.3210 -0.4294 -0.8721
  331MOL0     C44578   6.669   5.084   8.377 -0.0513 -0.3071  0.4946
  331MOL0     C44579   6.816   5.101   8.354 -0.4078  0.1870 -0.3252
  331MOL0     O44580   6.891   5.181   8.435 -0.2139 -0.0829 -0.0727
  331MOL0     C44581   7.022   5.193   8.396  0.1877  0.7287  0.4544
  331MOL0     C44582   7.133   5.114   8.444  0.0665  0.1045 -0.5764
  331MOL0     C44583   7.259   5.144   8.397 -0.7632 -1.1668  1.4354
  331MOL0     C44584   7.278   5.239   8.289 -0.1898 -0.5406 -0.3738
  331MOL0     O44585   7.402   5.254   8.232 -0.0755 -0.3370 -0.3019
  331MOL0     C44586   7.414   5.291   8.092  0.5607 -0.1612  0.2753
  331MOL0     C44587   7.557   5.256   8.055 -0.2135 -0.0603  0.2560
  331MOL0     C44588   7.589   5.104   8.074 -0.4434 -0.0369 -0.3951
  331MOL0     C44589   7.739   5.081   8.043 -0.4299  0.2061  0.1755
  331MOL0     C44590   7.776   4.930   8.057  0.4054 -0.8703 -0.3970
  331MOL0     C44591   7.937   4.916   8.064 -0.0154 -0.1225  0.2237
  331MOL0     C44592   7.967   4.769   8.061  0.4082 -0.3141 -0.4605
  331MOL0     C44593   8.124   4.770   8.058 -0.0845  0.5174 -0.5048
  331MOL0    Cl44594   8.168   4.601   8.021 -0.3866  0.1049  0.1652
  331MOL0     C44595   7.159   5.302   8.231  0.5437  0.3569  0.6593
  331MOL0     C44596   7.033   5.276   8.283 -0.4599  0.0029 -0.5491
  331MOL0     O44597   6.861   5.028   8.266  0.1248  0.1855  0.5761
  331MOL0     C44598   6.582   5.090   8.263 -0.6942  0.9916  0.6406
  331MOL0     C44599   6.449   5.064   8.291 -0.5900  0.3083  0.1301
  331MOL0     N44600   5.745   4.895   8.681 -0.0102 -1.0107 -0.1284
  331MOL0     N44601   5.688   4.803   8.746  0.2993 -0.6274 -0.0940
  331MOL0     C44602   4.806   4.042   8.384  0.0051 -0.1558 -0.2776
  331MOL0     C44603   4.675   4.001   8.419  0.0755 -0.8113 -0.1909
  331MOL0     C44604   4.287   3.905   8.609 -0.6434 -0.4813 -0.0011
  331MOL0     C44605   4.184   3.995   8.566 -0.0953  0.5907  0.6627
  331MOL0     C44606   4.049   3.963   8.596  0.2456 -1.6873  0.5796
  331MOL0     C44607   4.015   3.846   8.649 -0.3249  0.6004  0.0415
  331MOL0     O44608   3.879   3.817   8.675 -0.4602  0.2310  1.0621
  331MOL0     C44609   3.774   3.904   8.632  0.7108 -0.7560  0.5100
  331MOL0     C44610   3.662   3.856   8.712 -0.4437 -0.0566  0.1657
  331MOL0     C44611   3.526   3.904   8.662 -0.0709 -0.6652 -0.5243
  331MOL0     C44612   3.418   3.822   8.731 -0.5060 -0.5660  0.9089
  331MOL0     C44613   3.288   3.877   8.682  0.0375  0.2291  0.3354
  331MOL0     C44614   3.168   3.905   8.674 -0.9215 -0.5106  0.2969
  331MOL0     C44615   4.112   3.752   8.695  0.2813 -0.0517  0.3300
  331MOL0     C44616   4.255   3.780   8.678  0.6766  0.0090 -0.1196
  331MOL0     C44617   4.349   3.678   8.739 -0.3176 -0.4294  0.3055
  331MOL0     H44618   4.574   4.267   8.587 -0.6257 -2.5971  0.9344
  331MOL0     H44619   4.798   4.350   8.539 -0.8536  1.4066 -1.5587
  331MOL0     H44620   4.943   4.405   8.331 -2.0060 -3.2766  0.7468
  331MOL0     H44621   5.038   4.410   8.477 -0.9117 -0.8636  0.8476
  331MOL0     H44622   5.177   4.469   8.305  0.5375 -0.0256 -2.4722
  331MOL0     H44623   5.134   4.334   8.208  3.3752  0.6531 -1.1211
  331MOL0     H44624   5.350   4.261   8.290 -1.7275  1.9462 -1.6982
  331MOL0     H44625   5.241   4.184   8.407  1.7605 -1.2705 -0.1078
  331MOL0     H44626   5.368   4.460   8.442 -3.0261  2.0831  1.8102
  331MOL0     H44627   5.274   4.384   8.566  3.9562  2.0782  2.6164
  331MOL0     H44628   5.443   4.185   8.555  0.6417  0.0174 -0.2354
  331MOL0     H44629   5.537   4.288   8.452 -1.0241 -0.8173 -2.3088
  331MOL0     H44630   5.421   4.364   8.715  0.4172 -1.4385  0.5956
  331MOL0     H44631   5.596   4.301   8.698  0.1015  1.1949 -0.5153
  331MOL0     H44632   5.504   4.549   8.576 -0.6201 -2.5393 -2.4938
  331MOL0     H44633   5.657   4.457   8.538  0.0925  1.7114 -1.0348
  331MOL0     H44634   5.607   4.562   8.833 -1.4202  1.2370  0.4706
  331MOL0     H44635   5.744   4.496   8.760 -0.9265 -0.4912  2.2135
  331MOL0     H44636   5.789   4.636   8.485  0.0706 -0.4935  0.2870
  331MOL0     H44637   5.816   4.872   8.355  0.4753 -3.4071  1.2106
  331MOL0     H44638   5.819   5.016   8.449  0.8332  0.0622  1.4576
  331MOL0     H44639   6.034   4.787   8.483  0.1003 -1.5416 -1.9488
  331MOL0     H44640   6.057   4.921   8.364  1.0852  3.0462  1.3309
  331MOL0     H44641   6.058   4.924   8.671 -2.0007  0.4711 -0.1834
  331MOL0     H44642   6.041   5.070   8.579 -1.1570 -1.0221  3.5458
  331MOL0     H44643   6.243   4.855   8.557  3.3629  1.3104 -0.8864
  331MOL0     H44644   6.265   5.015   8.640  2.4326 -1.3748 -0.1650
  331MOL0     H44645   6.459   5.017   8.630 -0.5056 -1.3313 -0.5852
  331MOL0     H44646   6.685   5.085   8.598 -0.0648  0.3123 -1.1159
  331MOL0     H44647   7.110   5.045   8.525 -2.5106  2.3915  0.7714
  331MOL0     H44648   7.348   5.087   8.424  0.3553 -0.3881 -0.4372
  331MOL0     H44649   7.345   5.230   8.034 -0.8355  1.0352  0.6053
  331MOL0     H44650   7.412   5.399   8.075 -0.0520 -0.2100  0.0141
  331MOL0     H44651   7.584   5.273   7.951  2.3861 -2.0942  0.4977
  331MOL0     H44652   7.624   5.316   8.118  0.8548 -0.8758 -0.0717
  331MOL0     H44653   7.583   5.076   8.180  0.0713 -0.4514 -0.4720
  331MOL0     H44654   7.521   5.041   8.016 -2.0729  1.5146 -0.2461
  331MOL0     H44655   7.800   5.136   8.115 -0.5323 -0.1456  0.5414
  331MOL0     H44656   7.761   5.123   7.945  1.2466 -1.5824 -0.2745
  331MOL0     H44657   7.736   4.863   7.981  0.0952 -1.3100  0.1507
  331MOL0     H44658   7.740   4.898   8.155 -3.0005  2.3195 -0.3877
  331MOL0     H44659   7.984   4.986   7.993  0.4837  2.3019  2.7912
  331MOL0     H44660   7.972   4.962   8.157 -0.9427 -2.5882  1.8735
  331MOL0     H44661   7.924   4.712   7.978  0.3236 -0.5302 -0.2698
  331MOL0     H44662   7.935   4.720   8.153  0.5601 -1.6697 -1.1097
  331MOL0     H44663   8.163   4.843   7.987  0.6390  1.1762  0.5371
  331MOL0     H44664   8.167   4.788   8.157  0.4926  1.8325 -0.9801
  331MOL0     H44665   7.168   5.363   8.142  2.4189 -0.1800  0.4396
  331MOL0     H44666   6.951   5.322   8.228  1.9636 -0.3767 -4.9198
  331MOL0     H44667   6.625   5.101   8.164 -2.2504 -1.7511 -0.4547
  331MOL0     H44668   6.376   5.072   8.212 -0.4881 -0.4163 -0.0446
  331MOL0     H44669   4.861   3.961   8.339 -0.4212 -0.5301 -0.1395
  331MOL0     H44670   4.643   3.911   8.367  1.2187 -0.0637 -2.3472
  331MOL0     H44671   4.201   4.092   8.521 -0.2757  0.4795  0.3568
  331MOL0     H44672   3.973   4.037   8.572  2.2676 -0.2468 -1.9542
  331MOL0     H44673   3.753   3.899   8.525 -2.9869 -2.7618  1.1395
  331MOL0     H44674   3.795   4.010   8.649 -1.1278 -0.5696  1.9658
  331MOL0     H44675   3.672   3.889   8.815  0.3292 -1.1061  0.4466
  331MOL0     H44676   3.663   3.747   8.708 -0.1209 -0.0819  0.8967
  331MOL0     H44677   3.520   3.899   8.553 -1.6643  2.5587 -0.7275
  331MOL0     H44678   3.522   4.010   8.690  1.5924 -0.6069 -0.3903
  331MOL0     H44679   3.415   3.724   8.682 -0.7601  0.0643 -0.3729
  331MOL0     H44680   3.423   3.815   8.840  2.3909  3.6695  1.2452
  331MOL0     H44681   3.063   3.925   8.666 -1.2828 -2.0407  1.0160
  331MOL0     H44682   4.080   3.656   8.734 -1.5860 -0.1627 -1.2855
  331MOL0     H44683   4.428   3.653   8.667 -0.5198 -0.0185 -0.0685
  331MOL0     H44684   4.397   3.725   8.825  1.8607 -0.4650 -0.8157
  331MOL0     H44685   4.287   3.591   8.763 -2.7404  1.0967 -0.0382
  332MOL0     O44686  10.710   8.421   6.756 -0.4801 -0.3772  0.6161
  332MOL0     C44687  10.596   8.423   6.714  1.2788  0.4911 -0.6941
  332MOL0     O44688  10.548   8.471   6.594 -0.6567 -0.1152  0.3497
  332MOL0     C44689  10.645   8.499   6.504  0.9731 -0.3357  0.6713
  332MOL0     C44690  10.737   8.600   6.525  0.8020 -0.6085  0.1028
  332MOL0     C44691  10.826   8.634   6.430 -0.2954  0.2346  0.0803
  332MOL0     C44692  10.831   8.566   6.307  0.4318  0.2061  0.0613
  332MOL0     O44693  10.910   8.593   6.200  0.4214 -0.4152 -0.0710
  332MOL0     C44694  10.991   8.718   6.220  0.3979 -0.0683  0.1159
  332MOL0     C44695  11.087   8.746   6.108 -0.2078  0.0467 -0.1604
  332MOL0     C44696  11.141   8.888   6.115  0.7526 -0.0217  0.3602
  332MOL0     C44697  11.231   8.927   5.995 -0.3409  0.3154 -0.3105
  332MOL0     C44698  11.319   9.053   6.034  0.7810  0.8738  1.2557
  332MOL0     C44699  11.434   9.026   6.139 -0.4701  0.8935  0.2479
  332MOL0     C44700  11.524   8.907   6.111  0.1685 -0.1034 -0.5353
  332MOL0     C44701  11.657   8.897   6.189  0.4367 -0.8349  0.2816
  332MOL0     N44702  11.749   9.009   6.169  0.3833  0.1796  0.2394
  332MOL0     C44703  11.807   9.056   6.054  0.3581  0.7437 -0.1621
  332MOL0     C44704  11.886   9.156   6.106  0.2788 -0.5424 -0.4006
  332MOL0     C44705  11.989   9.236   6.032  0.5885 -0.8344 -0.2557
  332MOL0     C44706  12.120   9.157   6.031 -0.3847 -0.0582 -0.3395
  332MOL0     C44707  12.227   9.235   5.955  0.3385 -0.7981  0.4381
  332MOL0     C44708  12.368   9.178   5.943 -0.6353  0.1966  0.4676
  332MOL0     O44709  12.398   9.126   6.072 -0.2952  0.6246  0.1400
  332MOL0     C44710  12.524   9.078   6.088 -0.8531  0.0856 -0.6560
  332MOL0     C44711  12.616   9.059   5.983 -0.1644 -0.2361  0.3020
  332MOL0     C44712  12.746   9.002   6.008  0.4776 -0.0448  0.1359
  332MOL0     C44713  12.788   8.979   6.144 -0.6559  0.6975  0.2906
  332MOL0     C44714  12.924   8.930   6.168  0.2032  0.1058 -0.4608
  332MOL0     O44715  12.959   8.897   6.301  0.5550 -0.5525 -0.3872
  332MOL0     C44716  13.086   8.855   6.332  0.0313  0.4474 -0.7062
  332MOL0     C44717  13.102   8.725   6.366  0.0887  0.9482  0.2097
  332MOL0     C44718  13.223   8.673   6.398  0.1042  0.1383 -1.0937
  332MOL0     C44719  13.334   8.762   6.391  0.1112  0.4088  0.4211
  332MOL0     O44720  13.459   8.710   6.401 -0.7510  0.0198  0.3358
  332MOL0     C44721  13.482   8.571   6.370 -0.2971 -0.2326  0.3251
  332MOL0     C44722  13.635   8.555   6.382  0.8166  0.7847  0.7675
  332MOL0     C44723  13.685   8.413   6.367 -0.2760  0.0799 -0.8563
  332MOL0     C44724  13.825   8.398   6.437  0.3981  1.1700  0.0765
  332MOL0     C44725  13.889   8.261   6.431 -0.6111  1.2425 -0.1940
  332MOL0     C44726  14.035   8.266   6.500  0.2421  0.0858 -0.2108
  332MOL0     C44727  14.098   8.127   6.524 -0.6888  1.1722  0.5387
  332MOL0     C44728  14.233   8.126   6.577 -0.0683 -0.5210  0.4969
  332MOL0    Cl44729  14.358   8.180   6.457 -0.0529  0.2906  0.3197
  332MOL0     C44730  13.315   8.898   6.358  0.0926 -0.7614 -0.4616
  332MOL0     C44731  13.190   8.950   6.330 -0.3956  0.9616 -0.1078
  332MOL0     O44732  12.991   8.897   6.071 -0.3945  0.7023  0.5468
  332MOL0     C44733  12.699   8.996   6.245  0.5978  0.8989  0.3642
  332MOL0     C44734  12.566   9.035   6.215  0.5725 -0.0561  0.1115
  332MOL0     N44735  11.849   9.182   6.235  0.6421 -0.3052  0.1262
  332MOL0     N44736  11.759   9.096   6.278  0.5284  0.1104 -0.3937
  332MOL0     C44737  10.745   8.454   6.293 -0.4399  0.1458 -0.1371
  332MOL0     C44738  10.649   8.419   6.390  0.5030 -0.4031  0.6803
  332MOL0     C44739  10.490   8.383   6.811 -0.3126  0.9209 -0.7859
  332MOL0     C44740  10.348   8.397   6.781 -0.6159  0.0618 -0.4919
  332MOL0     C44741  10.258   8.363   6.876  0.7588 -1.1549  0.2212
  332MOL0     C44742  10.286   8.312   6.999  0.0523  0.4325 -0.2112
  332MOL0     O44743  10.181   8.286   7.096 -0.0407  0.2420  0.2628
  332MOL0     C44744  10.049   8.342   7.074 -0.6038  0.5163  0.2748
  332MOL0     C44745   9.956   8.291   7.186 -0.9832 -0.2872  0.2688
  332MOL0     C44746   9.915   8.147   7.170 -0.4782 -0.6939 -0.4038
  332MOL0     C44747   9.834   8.118   7.298  0.4185  0.6447 -0.0314
  332MOL0     C44748   9.695   8.182   7.288 -0.7932  0.3368 -0.5418
  332MOL0     C44749   9.585   8.215   7.261  0.0815 -0.9086 -0.0199
  332MOL0     C44750  10.417   8.273   7.025  0.4467  0.0805  0.6835
  332MOL0     C44751  10.521   8.313   6.939  0.4861 -0.8143  0.0874
  332MOL0     C44752  10.663   8.272   6.980  0.8109 -0.0949  0.0008
  332MOL0     H44753  10.729   8.661   6.614 -1.3346  2.0424 -1.7336
  332MOL0     H44754  10.893   8.719   6.436 -1.0767  0.8843 -0.1902
  332MOL0     H44755  10.918   8.800   6.222 -2.0521 -1.9899 -2.5522
  332MOL0     H44756  11.055   8.709   6.308  2.8643 -1.6650 -1.7117
  332MOL0     H44757  11.028   8.748   6.017 -1.1945 -0.4224  0.4555
  332MOL0     H44758  11.169   8.674   6.100 -0.6050 -0.7902  2.3651
  332MOL0     H44759  11.193   8.889   6.211 -1.8916 -2.4115  1.9759
  332MOL0     H44760  11.058   8.959   6.111 -0.0202 -0.9684 -1.6143
  332MOL0     H44761  11.289   8.838   5.967  0.5014  0.9658 -0.6717
  332MOL0     H44762  11.158   8.947   5.916  0.0366 -0.9320 -1.0114
  332MOL0     H44763  11.354   9.091   5.938 -0.7280  1.6048  0.9680
  332MOL0     H44764  11.255   9.129   6.079  0.4239  0.3726  1.6101
  332MOL0     H44765  11.501   9.112   6.137 -0.3240  0.7748 -0.4581
  332MOL0     H44766  11.388   9.014   6.237  0.6242 -1.6192  0.5341
  332MOL0     H44767  11.550   8.904   6.005  2.1968 -2.1362 -0.0514
  332MOL0     H44768  11.463   8.820   6.137  1.4370 -0.3712  1.8758
  332MOL0     H44769  11.644   8.886   6.297  1.8227  1.6278  0.7866
  332MOL0     H44770  11.709   8.812   6.143  1.0962  0.8782 -2.3428
  332MOL0     H44771  11.817   9.007   5.957  1.7933  2.0700 -0.7483
  332MOL0     H44772  11.945   9.249   5.933 -2.4312 -0.4551  1.0143
  332MOL0     H44773  12.013   9.329   6.085  0.9524 -0.0965 -1.6562
  332MOL0     H44774  12.151   9.141   6.134 -1.0995 -4.1303 -0.6055
  332MOL0     H44775  12.094   9.059   5.990 -1.8043 -0.2789  0.9981
  332MOL0     H44776  12.224   9.324   6.019  0.7223 -0.4620  0.0050
  332MOL0     H44777  12.193   9.267   5.856  0.7507  0.1030  0.5704
  332MOL0     H44778  12.442   9.254   5.914 -1.0616  1.2530  2.0283
  332MOL0     H44779  12.365   9.092   5.875 -0.5692  3.1264 -3.6407
  332MOL0     H44780  12.597   9.084   5.880 -4.5671  0.6082  1.0946
  332MOL0     H44781  12.816   8.994   5.926  0.2662 -0.1551 -0.0355
  332MOL0     H44782  13.019   8.656   6.372 -0.7134  2.0058  2.0272
  332MOL0     H44783  13.237   8.575   6.441 -0.6037  1.4623  2.4598
  332MOL0     H44784  13.428   8.496   6.428 -0.8450  0.4369  0.6970
  332MOL0     H44785  13.466   8.550   6.264 -0.2241 -1.1201  0.4838
  332MOL0     H44786  13.691   8.627   6.322  0.5864  1.1410  0.9759
  332MOL0     H44787  13.660   8.582   6.485  1.4692  1.2163  0.4990
  332MOL0     H44788  13.620   8.345   6.422  2.6874 -1.3880  1.0476
  332MOL0     H44789  13.684   8.384   6.261 -1.1465 -2.0630 -0.3177
  332MOL0     H44790  13.802   8.417   6.542 -2.8927  0.7556 -0.4725
  332MOL0     H44791  13.899   8.471   6.401  2.7693  0.8827  3.7682
  332MOL0     H44792  13.907   8.236   6.326  0.2885 -3.0811  0.7863
  332MOL0     H44793  13.823   8.177   6.456 -2.5403  2.3839 -1.2528
  332MOL0     H44794  14.109   8.333   6.454  0.9424  0.1794  1.0158
  332MOL0     H44795  14.016   8.302   6.601 -1.9317  2.7887 -1.4360
  332MOL0     H44796  14.081   8.067   6.434 -0.5191  1.3411  0.3902
  332MOL0     H44797  14.026   8.084   6.594 -2.8294 -0.4122 -2.4388
  332MOL0     H44798  14.243   8.204   6.653  2.7886  0.6442 -0.9592
  332MOL0     H44799  14.260   8.024   6.608 -0.5942 -1.3338 -1.5380
  332MOL0     H44800  13.391   8.973   6.340  0.0859 -1.0062 -1.6171
  332MOL0     H44801  13.172   9.049   6.289  0.0850 -0.2921 -3.7069
  332MOL0     H44802  12.731   8.981   6.347  2.1626  0.8833 -0.1020
  332MOL0     H44803  12.497   9.061   6.294  0.2219 -2.9179  0.8774
  332MOL0     H44804  10.743   8.401   6.199  1.5143  2.2243 -1.4324
  332MOL0     H44805  10.575   8.343   6.366 -1.8613  1.5772  1.2923
  332MOL0     H44806  10.316   8.441   6.687 -2.6225 -0.1731  0.0261
  332MOL0     H44807  10.155   8.392   6.859  0.7951  0.3424  2.1797
  332MOL0     H44808  10.005   8.314   6.978  0.2765 -0.1440  0.0491
  332MOL0     H44809  10.055   8.451   7.078 -0.3992  0.4658  2.8161
  332MOL0     H44810   9.867   8.353   7.176  1.2590  3.0229 -0.7917
  332MOL0     H44811  10.005   8.309   7.282 -1.4086  0.0964  0.4153
  332MOL0     H44812   9.999   8.079   7.184 -1.0291 -1.4098 -0.4749
  332MOL0     H44813   9.853   8.123   7.083 -0.8462  3.1033 -1.3706
  332MOL0     H44814   9.817   8.010   7.309 -1.6165  0.9338  0.0765
  332MOL0     H44815   9.890   8.156   7.383  1.8155 -1.8050  0.2280
  332MOL0     H44816   9.486   8.251   7.245  0.3596  0.4421  1.1069
  332MOL0     H44817  10.445   8.230   7.120  0.1401 -0.3313  0.5897
  332MOL0     H44818  10.659   8.219   7.076 -0.1334 -2.6515 -1.3308
  332MOL0     H44819  10.708   8.205   6.905  1.3132  0.4989 -0.2342
  332MOL0     H44820  10.728   8.360   6.985  2.2365 -1.0098 -1.1220
  333MOL0     O44821   5.409   3.474   0.658 -0.2812  0.2346 -0.0345
  333MOL0     C44822   5.510   3.544   0.662  0.2314  0.3267 -0.8470
  333MOL0     O44823   5.571   3.611   0.559 -0.3158  0.1242  0.2939
  333MOL0     C44824   5.501   3.616   0.435  0.0836 -0.4121  0.0751
  333MOL0     C44825   5.440   3.743   0.408 -0.3307  0.1985  0.0533
  333MOL0     C44826   5.361   3.754   0.292 -0.7051 -0.1069  0.2983
  333MOL0     C44827   5.366   3.654   0.189  0.0745 -0.0954 -0.1584
  333MOL0     O44828   5.300   3.690   0.069 -0.1552 -0.5027 -0.1268
  333MOL0     C44829   5.249   3.600  -0.025  0.1294 -0.2110 -0.7306
  333MOL0     C44830   5.159   3.658  -0.138  0.4081  0.3267  0.3541
  333MOL0     C44831   5.091   3.543  -0.209 -0.7745 -0.2768 -1.0641
  333MOL0     C44832   5.004   3.568  -0.335  0.5783  1.4870 -0.6134
  333MOL0     C44833   4.915   3.683  -0.316 -0.4912  0.2265 -0.2517
  333MOL0     C44834   4.838   3.693  -0.453 -0.2373  0.2449 -0.3554
  333MOL0     C44835   4.740   3.803  -0.459  0.6157 -0.1852  0.6530
  333MOL0     C44836   4.706   3.853  -0.605  0.9765 -0.2386  0.5223
  333MOL0     N44837   4.644   3.984  -0.610  0.0360  0.4064  0.2957
  333MOL0     C44838   4.695   4.084  -0.679 -0.3497 -0.4184 -0.6680
  333MOL0     C44839   4.626   4.186  -0.638 -0.2419 -0.5928 -0.1299
  333MOL0     C44840   4.654   4.323  -0.694 -0.2552 -0.7573  0.1123
  333MOL0     C44841   4.809   4.365  -0.679  0.7363  0.6777  0.7743
  333MOL0     C44842   4.862   4.373  -0.529 -0.1875  0.3878  0.7569
  333MOL0     C44843   5.006   4.336  -0.518 -0.4747 -0.1992  0.4132
  333MOL0     O44844   5.026   4.203  -0.547 -0.0700 -0.2865 -0.8640
  333MOL0     C44845   5.146   4.148  -0.524  0.2490  0.5704  0.5338
  333MOL0     C44846   5.260   4.222  -0.481 -0.0736 -0.4015  1.0340
  333MOL0     C44847   5.374   4.143  -0.451 -0.2135  0.4295 -0.3777
  333MOL0     C44848   5.385   4.004  -0.476  0.8617  0.9343 -0.6865
  333MOL0     C44849   5.511   3.926  -0.453 -0.3511  0.6242 -0.8781
  333MOL0     O44850   5.618   3.999  -0.407  0.3928 -0.4356 -0.1933
  333MOL0     C44851   5.737   3.931  -0.398 -0.0963 -0.0567  0.1315
  333MOL0     C44852   5.779   3.837  -0.486  0.0514 -0.5193  0.7260
  333MOL0     C44853   5.903   3.775  -0.470  0.6738  0.4581  0.2325
  333MOL0     C44854   5.980   3.798  -0.353  0.0254  0.2192  0.5608
  333MOL0     O44855   6.090   3.723  -0.340 -0.2669  0.9181  0.3214
  333MOL0     C44856   6.102   3.663  -0.210  0.1658 -0.4309 -0.1592
  333MOL0     C44857   6.200   3.551  -0.207  0.1584 -0.3156 -0.5203
  333MOL0     C44858   6.158   3.448  -0.112 -0.3091  0.1075 -0.2214
  333MOL0     C44859   6.256   3.331  -0.120 -0.1711  0.0059 -0.0941
  333MOL0     C44860   6.374   3.345  -0.023  0.2596  0.0535 -0.5681
  333MOL0     C44861   6.376   3.250   0.098 -0.0990  0.6561  0.2889
  333MOL0     C44862   6.503   3.265   0.192  0.0012  0.3333 -0.1024
  333MOL0     C44863   6.483   3.173   0.312  0.2054  0.9128  0.8519
  333MOL0    Cl44864   6.364   3.235   0.427 -0.2991  0.8583 -0.0578
  333MOL0     C44865   5.935   3.887  -0.251 -1.7735  0.8465  1.0698
  333MOL0     C44866   5.813   3.947  -0.274  0.6015  0.1888  0.4430
  333MOL0     O44867   5.507   3.803  -0.467  0.0426 -0.5609  0.2282
  333MOL0     C44868   5.272   3.935  -0.530  0.3318  0.3919 -0.4176
  333MOL0     C44869   5.156   4.008  -0.555 -0.3244 -0.2420  0.3329
  333MOL0     N44870   4.547   4.155  -0.531  0.1181  0.1368 -0.1188
  333MOL0     N44871   4.542   4.029  -0.526  0.2957  0.6682 -0.1413
  333MOL0     C44872   5.433   3.542   0.212 -0.6886  0.0681  0.8127
  333MOL0     C44873   5.499   3.523   0.335  1.0201 -0.2883 -0.5185
  333MOL0     C44874   5.561   3.570   0.802  0.2200  0.1280  0.0019
  333MOL0     C44875   5.547   3.468   0.899  0.3141 -0.2230  0.1807
  333MOL0     C44876   5.607   3.474   1.024  0.2705 -0.4146 -0.7394
  333MOL0     C44877   5.683   3.584   1.059  0.1700  0.1848 -0.1274
  333MOL0     O44878   5.748   3.578   1.181  0.4293  0.0669 -0.3711
  333MOL0     C44879   5.828   3.684   1.233 -0.0341  0.5468  0.2206
  333MOL0     C44880   5.886   3.650   1.369 -0.7310  0.2920 -0.2012
  333MOL0     C44881   5.856   3.759   1.466 -0.0136 -0.6266 -0.0905
  333MOL0     C44882   5.918   3.739   1.599 -0.8305  0.1002 -0.5465
  333MOL0     C44883   5.861   3.621   1.669  0.4309 -0.0644  0.7555
  333MOL0     C44884   5.818   3.517   1.720  0.8840 -1.2659 -0.0843
  333MOL0     C44885   5.676   3.700   0.976  0.1659  0.1434 -0.2738
  333MOL0     C44886   5.609   3.689   0.851 -0.4247 -0.3559  0.2864
  333MOL0     C44887   5.613   3.804   0.760  0.6085 -0.5919 -0.0412
  333MOL0     H44888   5.449   3.816   0.488  0.5470 -1.7814  1.8874
  333MOL0     H44889   5.314   3.851   0.276 -0.4438 -0.4054 -2.7994
  333MOL0     H44890   5.337   3.550  -0.065 -0.6828 -2.7310  0.3861
  333MOL0     H44891   5.181   3.529   0.023  0.3795  0.5371  0.7841
  333MOL0     H44892   5.213   3.727  -0.204 -0.2990 -1.6416 -2.4569
  333MOL0     H44893   5.087   3.715  -0.079 -2.0357 -3.2504  1.1411
  333MOL0     H44894   5.012   3.509  -0.141 -1.0680  2.2578  0.0001
  333MOL0     H44895   5.162   3.461  -0.218 -0.2718 -0.0465  0.4633
  333MOL0     H44896   5.084   3.580  -0.409  1.6518 -0.5605  0.1193
  333MOL0     H44897   4.948   3.480  -0.370  0.7696  1.5821 -1.1671
  333MOL0     H44898   4.845   3.661  -0.235 -0.3681  1.3982  0.1971
  333MOL0     H44899   4.974   3.771  -0.288  1.3554 -1.3825  1.2254
  333MOL0     H44900   4.919   3.705  -0.525 -1.2278  0.8951 -1.3887
  333MOL0     H44901   4.783   3.602  -0.475 -2.3527  2.1342 -3.7982
  333MOL0     H44902   4.788   3.889  -0.411  0.6329  1.9464 -2.8404
  333MOL0     H44903   4.649   3.773  -0.405  0.6932  1.5255  1.8192
  333MOL0     H44904   4.796   3.863  -0.668 -0.9146 -2.7238 -2.8798
  333MOL0     H44905   4.645   3.771  -0.643  0.1346  0.1138  1.0878
  333MOL0     H44906   4.770   4.090  -0.758  1.5256 -0.2063  1.0530
  333MOL0     H44907   4.632   4.312  -0.800 -1.3793 -1.1230  0.3752
  333MOL0     H44908   4.589   4.399  -0.648 -1.3031 -0.9906 -0.9509
  333MOL0     H44909   4.867   4.291  -0.736 -1.8094  0.5130 -1.8662
  333MOL0     H44910   4.809   4.463  -0.729 -0.1414  0.0973 -0.4231
  333MOL0     H44911   4.800   4.307  -0.468 -0.5238 -1.6099 -1.5499
  333MOL0     H44912   4.846   4.476  -0.497 -0.3710  1.2163 -1.7281
  333MOL0     H44913   5.040   4.357  -0.416  3.2453  0.5091 -0.7990
  333MOL0     H44914   5.070   4.392  -0.587 -0.0146 -4.0654 -2.6304
  333MOL0     H44915   5.266   4.330  -0.468  1.8944 -0.3928  0.2519
  333MOL0     H44916   5.459   4.202  -0.416 -0.0788  1.2011 -1.9195
  333MOL0     H44917   5.718   3.832  -0.576 -1.0721 -4.6582  1.5365
  333MOL0     H44918   5.936   3.711  -0.551  2.7149  3.2491 -1.3450
  333MOL0     H44919   6.132   3.732  -0.131  1.3345 -0.2984 -0.7048
  333MOL0     H44920   6.006   3.621  -0.177 -0.4297  0.1694 -1.0684
  333MOL0     H44921   6.196   3.505  -0.306 -0.6266  0.1323 -0.7022
  333MOL0     H44922   6.300   3.590  -0.183 -0.0783  0.4650 -0.7932
  333MOL0     H44923   6.137   3.488  -0.013 -3.9677  1.4247 -1.3706
  333MOL0     H44924   6.061   3.405  -0.137 -0.0318 -0.2268 -0.7623
  333MOL0     H44925   6.301   3.326  -0.220 -1.0769 -0.1229 -0.5100
  333MOL0     H44926   6.194   3.242  -0.112  0.0749 -0.0087  2.0487
  333MOL0     H44927   6.368   3.450   0.008 -2.1711 -0.6494  1.6517
  333MOL0     H44928   6.469   3.343  -0.078  0.5816  0.4564 -0.0365
  333MOL0     H44929   6.284   3.267   0.154 -0.6370  1.4171 -0.7801
  333MOL0     H44930   6.363   3.149   0.057  0.1001  0.9034 -0.4144
  333MOL0     H44931   6.516   3.370   0.219 -1.5901  1.2683 -2.5952
  333MOL0     H44932   6.591   3.221   0.143 -1.4879 -0.9640 -1.7706
  333MOL0     H44933   6.437   3.079   0.280  4.5506 -0.6889 -1.4929
  333MOL0     H44934   6.577   3.146   0.359 -0.0204  1.9955  1.9827
  333MOL0     H44935   5.992   3.907  -0.161 -0.5139  1.0261  0.2490
  333MOL0     H44936   5.787   4.008  -0.188  0.8601  0.6324  0.2065
  333MOL0     H44937   5.274   3.829  -0.553  1.2144  0.3019  0.0185
  333MOL0     H44938   5.066   3.962  -0.596  0.4036 -2.4560  1.0741
  333MOL0     H44939   5.433   3.461   0.139  0.5675  1.4969 -0.8347
  333MOL0     H44940   5.564   3.438   0.349  0.9942 -0.1489  0.5259
  333MOL0     H44941   5.497   3.373   0.882  0.7373 -0.1620 -1.5449
  333MOL0     H44942   5.600   3.398   1.101  4.1227 -0.0981  0.1398
  333MOL0     H44943   5.761   3.770   1.239  0.7758  1.2017 -0.0337
  333MOL0     H44944   5.913   3.703   1.168  3.7225 -0.6011  4.3017
  333MOL0     H44945   5.989   3.613   1.366 -0.8814 -0.0846 -1.7248
  333MOL0     H44946   5.834   3.563   1.411 -0.6197  0.9446  1.3124
  333MOL0     H44947   5.749   3.778   1.478  0.0148 -0.7657  0.4205
  333MOL0     H44948   5.898   3.852   1.426  3.4449 -2.3903 -0.9782
  333MOL0     H44949   6.026   3.719   1.595 -0.7066  0.4913  0.5741
  333MOL0     H44950   5.897   3.824   1.665 -2.9014 -1.7449  1.3282
  333MOL0     H44951   5.765   3.440   1.771 -1.0346  0.4592  0.6734
  333MOL0     H44952   5.728   3.791   1.005 -0.9307  0.6492  0.1769
  333MOL0     H44953   5.654   3.886   0.820  0.9665  0.4706 -1.6818
  333MOL0     H44954   5.681   3.774   0.680  2.4969 -1.7137  1.8657
  333MOL0     H44955   5.513   3.830   0.725  1.3003  1.4340 -0.6603
  334MOL0     O44956  10.829   2.715   7.884  0.1382 -0.0224 -0.7524
  334MOL0     C44957  10.800   2.800   7.974  0.3918  0.8663  0.3995
  334MOL0     O44958  10.872   2.904   8.008  0.1888 -0.3618  0.2069
  334MOL0     C44959  10.989   2.926   7.944 -0.2773  0.7296  0.5541
  334MOL0     C44960  11.117   2.917   7.995 -0.8025 -0.8826 -0.2932
  334MOL0     C44961  11.238   2.936   7.927 -0.2912  0.1921  0.1036
  334MOL0     C44962  11.225   2.967   7.791 -0.0280  0.2235 -0.9528
  334MOL0     O44963  11.331   2.992   7.704 -0.3991 -0.1102 -0.0117
  334MOL0     C44964  11.456   3.026   7.756 -0.5109  0.2774 -0.1012
  334MOL0     C44965  11.549   2.907   7.801  0.0370  0.5975 -0.0332
  334MOL0     C44966  11.696   2.964   7.841 -0.2908  0.3749  0.4379
  334MOL0     C44967  11.774   2.976   7.700 -0.4726  0.2378 -0.3306
  334MOL0     C44968  11.910   3.059   7.703 -0.2715 -0.0446 -0.2585
  334MOL0     C44969  11.888   3.186   7.774  0.0273 -0.6066 -0.1007
  334MOL0     C44970  12.000   3.294   7.755  0.2821 -0.0907 -0.6274
  334MOL0     C44971  12.118   3.249   7.829  0.0854 -1.2887  0.3942
  334MOL0     N44972  12.222   3.358   7.833 -0.2066  0.3622  1.1085
  334MOL0     C44973  12.277   3.428   7.937 -0.4195 -0.1422 -0.0589
  334MOL0     C44974  12.348   3.524   7.887  0.0327 -0.2344  0.7457
  334MOL0     C44975  12.422   3.637   7.968  0.7672 -0.0196 -0.1543
  334MOL0     C44976  12.313   3.748   7.988 -0.3426 -0.0985 -0.6410
  334MOL0     C44977  12.347   3.849   8.100 -0.4032  0.2875 -0.1541
  334MOL0     C44978  12.409   3.977   8.045  0.0875  0.6647 -0.5374
  334MOL0     O44979  12.526   3.951   7.970 -0.3918 -0.3649  0.0826
  334MOL0     C44980  12.646   3.947   8.036  0.6624 -0.1920  1.1723
  334MOL0     C44981  12.662   3.978   8.169 -1.3772 -0.0621 -0.7208
  334MOL0     C44982  12.788   3.978   8.238 -0.6670 -0.4089 -0.9653
  334MOL0     C44983  12.899   3.933   8.171 -0.3256 -0.3413 -0.3216
  334MOL0     C44984  13.024   3.895   8.228 -0.4275 -0.0815 -0.1079
  334MOL0     O44985  13.104   3.810   8.154 -0.2035  0.0783  0.1194
  334MOL0     C44986  13.222   3.757   8.208 -0.2886  0.2243  0.8142
  334MOL0     C44987  13.336   3.842   8.230  0.7635  0.8163  0.3922
  334MOL0     C44988  13.454   3.783   8.271 -0.3399 -0.1576 -0.0576
  334MOL0     C44989  13.467   3.644   8.300 -0.0498  0.2428 -0.0205
  334MOL0     O44990  13.579   3.598   8.352 -0.4823 -0.0158  0.0255
  334MOL0     C44991  13.683   3.599   8.256  0.4779  0.1920  0.5332
  334MOL0     C44992  13.767   3.468   8.263  0.5999  0.2481 -0.6209
  334MOL0     C44993  13.873   3.468   8.158 -0.4280 -0.3748 -0.0027
  334MOL0     C44994  13.991   3.380   8.203 -0.0934 -0.0085 -0.3762
  334MOL0     C44995  13.969   3.229   8.212  0.1790 -0.6096 -0.0166
  334MOL0     C44996  13.931   3.166   8.080 -0.2653  0.4663  0.3587
  334MOL0     C44997  13.906   3.017   8.102  0.1671  0.4155 -0.1192
  334MOL0     C44998  13.832   2.960   7.977  0.2111 -0.0046 -0.7151
  334MOL0    Cl44999  13.824   2.776   7.979  0.4546 -0.2333  0.4167
  334MOL0     C45000  13.349   3.570   8.298 -0.4149  0.9753 -0.1970
  334MOL0     C45001  13.233   3.620   8.242 -0.3531 -0.3081  0.5754
  334MOL0     O45002  13.039   3.940   8.343  0.3210  0.6635 -0.4616
  334MOL0     C45003  12.881   3.922   8.027 -0.4100  0.6181 -0.7109
  334MOL0     C45004  12.763   3.936   7.955  0.6783  1.1853 -0.1478
  334MOL0     N45005  12.331   3.523   7.750 -0.5085 -0.1364  0.7782
  334MOL0     N45006  12.269   3.417   7.716  0.1614 -0.3230  0.4394
  334MOL0     C45007  11.100   2.969   7.732  0.3542  0.4384  1.2296
  334MOL0     C45008  10.989   2.950   7.810  0.0258  0.6684  0.1282
  334MOL0     C45009  10.689   2.754   8.055  0.0897 -0.4550  0.6539
  334MOL0     C45010  10.703   2.780   8.191  0.0231 -0.2795  0.6390
  334MOL0     C45011  10.597   2.762   8.274  0.3308 -0.0313  0.4236
  334MOL0     C45012  10.485   2.700   8.228  0.1887 -0.8389 -0.0945
  334MOL0     O45013  10.381   2.689   8.324 -0.4635 -0.4459 -0.3638
  334MOL0     C45014  10.246   2.700   8.291  0.5059 -0.7051  0.3199
  334MOL0     C45015  10.210   2.846   8.252  0.4399 -0.0893  0.0324
  334MOL0     C45016  10.132   2.929   8.362  0.4527  0.2958 -0.2310
  334MOL0     C45017   9.989   2.873   8.380 -1.0630 -0.5627 -0.7229
  334MOL0     C45018   9.915   2.914   8.261 -0.7176  0.1305 -0.3274
  334MOL0     C45019   9.842   2.940   8.163 -0.2930  0.0457 -0.0327
  334MOL0     C45020  10.474   2.660   8.094  0.9674  0.0890 -0.1806
  334MOL0     C45021  10.574   2.692   7.999  0.5939  0.3231  0.3054
  334MOL0     C45022  10.537   2.650   7.854 -0.6726  0.6465 -0.0078
  334MOL0     H45023  11.130   2.910   8.102 -0.8484  1.4271 -0.0779
  334MOL0     H45024  11.340   2.922   7.963 -0.2283 -0.7366 -0.3895
  334MOL0     H45025  11.514   3.079   7.680 -2.4351  0.7678 -1.3003
  334MOL0     H45026  11.446   3.092   7.842  3.3997 -0.7122  1.3321
  334MOL0     H45027  11.555   2.841   7.714  0.2569  0.6704 -0.0742
  334MOL0     H45028  11.504   2.845   7.879  0.0100 -2.2067 -2.1363
  334MOL0     H45029  11.748   2.883   7.894 -2.1071 -1.0491  0.1359
  334MOL0     H45030  11.696   3.062   7.890  1.3241  0.6125  0.0413
  334MOL0     H45031  11.813   2.878   7.672  0.8219  0.9192 -1.0283
  334MOL0     H45032  11.709   3.019   7.623  0.8347  2.2371 -0.4083
  334MOL0     H45033  11.993   3.002   7.744 -0.4773 -0.1264  0.0495
  334MOL0     H45034  11.938   3.085   7.600  0.9274 -1.0451 -0.1982
  334MOL0     H45035  11.797   3.236   7.740 -0.7866 -0.5456  1.9910
  334MOL0     H45036  11.888   3.182   7.883  3.9322 -0.2988  0.0433
  334MOL0     H45037  11.962   3.389   7.793  1.3385 -0.5673  1.8583
  334MOL0     H45038  12.017   3.318   7.650 -0.6536  4.4531  0.0816
  334MOL0     H45039  12.084   3.241   7.933 -0.9667  0.8275  0.2850
  334MOL0     H45040  12.156   3.159   7.782  1.9852 -0.2114 -0.2343
  334MOL0     H45041  12.263   3.402   8.041  1.2106 -1.4720 -0.1252
  334MOL0     H45042  12.464   3.598   8.061 -0.3377  1.7764  1.1732
  334MOL0     H45043  12.507   3.680   7.914 -0.8414  0.5317 -2.4315
  334MOL0     H45044  12.301   3.804   7.895 -3.8694 -0.5231 -0.5669
  334MOL0     H45045  12.214   3.705   8.008 -1.0576  2.2618  1.2381
  334MOL0     H45046  12.422   3.806   8.167  0.9844  0.3310 -1.6088
  334MOL0     H45047  12.260   3.869   8.163  1.1437  0.2272  2.1247
  334MOL0     H45048  12.420   4.044   8.131  3.1394  0.7359 -0.9006
  334MOL0     H45049  12.337   4.028   7.981 -0.9760 -1.5997 -1.2439
  334MOL0     H45050  12.583   3.988   8.243 -1.4297 -4.8226  0.1378
  334MOL0     H45051  12.787   3.987   8.346  0.0530 -1.5478 -0.8377
  334MOL0     H45052  13.331   3.946   8.199 -3.9585  0.2722 -1.5654
  334MOL0     H45053  13.544   3.844   8.279  0.8136 -1.3087 -2.9955
  334MOL0     H45054  13.643   3.600   8.154  2.5976  2.4620 -0.3737
  334MOL0     H45055  13.748   3.686   8.268 -0.7782  1.1627  0.5976
  334MOL0     H45056  13.815   3.462   8.361  2.0894  0.8412 -1.2866
  334MOL0     H45057  13.704   3.379   8.255 -0.6351  0.9565  0.7785
  334MOL0     H45058  13.838   3.454   8.055  1.0116  0.7031 -0.6666
  334MOL0     H45059  13.925   3.563   8.140  0.9155 -1.0832  0.0571
  334MOL0     H45060  14.037   3.410   8.297 -0.5738 -0.7767  0.1171
  334MOL0     H45061  14.071   3.403   8.132  0.7021  0.1663  0.5621
  334MOL0     H45062  13.889   3.225   8.286  1.6908 -2.7134  1.6131
  334MOL0     H45063  14.051   3.174   8.258  0.3477 -0.8935 -0.6443
  334MOL0     H45064  13.841   3.206   8.035 -0.9314 -0.9725  0.3518
  334MOL0     H45065  14.007   3.164   8.001 -0.8507  3.9942 -0.4396
  334MOL0     H45066  13.841   2.996   8.188  2.8439 -0.3169  1.8686
  334MOL0     H45067  13.995   2.955   8.116 -1.3996 -1.8385  0.5829
  334MOL0     H45068  13.728   2.993   7.981  0.2501  0.0033  1.0729
  334MOL0     H45069  13.877   3.003   7.887 -0.1360 -0.7240 -1.2422
  334MOL0     H45070  13.353   3.464   8.324 -0.8456  0.7441 -1.0374
  334MOL0     H45071  13.151   3.550   8.229 -1.1906  0.3541  2.0181
  334MOL0     H45072  12.972   3.898   7.973  1.3539  0.0308  2.2926
  334MOL0     H45073  12.757   3.926   7.848  2.1079  0.1116 -0.1511
  334MOL0     H45074  11.104   2.983   7.624  2.3404  2.4136  1.4817
  334MOL0     H45075  10.894   2.957   7.759 -0.8021  1.6772  1.7039
  334MOL0     H45076  10.777   2.839   8.244 -0.9148 -0.0315  1.7142
  334MOL0     H45077  10.601   2.794   8.378 -0.9448  2.2412 -0.1438
  334MOL0     H45078  10.179   2.665   8.370 -1.9606  1.8573 -0.4401
  334MOL0     H45079  10.223   2.643   8.201 -1.6687 -1.0634  1.0356
  334MOL0     H45080  10.147   2.841   8.163  1.4438 -3.6496 -0.6447
  334MOL0     H45081  10.303   2.901   8.233  0.1732  0.4550  0.2827
  334MOL0     H45082  10.129   3.037   8.342  0.2630  0.9185  2.6466
  334MOL0     H45083  10.182   2.926   8.460  0.4699  3.4860 -0.0443
  334MOL0     H45084   9.985   2.770   8.415 -3.0606  0.1003  1.1993
  334MOL0     H45085   9.934   2.919   8.463  1.2219 -0.6316  0.9401
  334MOL0     H45086   9.771   2.962   8.085 -0.8125  2.1425  0.9323
  334MOL0     H45087  10.380   2.621   8.056  1.5465  0.4039 -2.0210
  334MOL0     H45088  10.429   2.652   7.838 -0.8205 -0.5392  0.7364
  334MOL0     H45089  10.579   2.720   7.782 -0.9629  1.7499  0.8664
  334MOL0     H45090  10.588   2.554   7.840 -0.8344  0.3832  1.1066
  335MOL0     O45091   9.703   4.741   3.862 -0.6603 -0.1643 -0.5293
  335MOL0     C45092   9.814   4.797   3.878  1.3220  0.5583  0.4161
  335MOL0     O45093   9.833   4.919   3.944  0.2165  0.6637 -0.0886
  335MOL0     C45094   9.721   4.980   3.991  0.3866 -0.0104 -0.0777
  335MOL0     C45095   9.616   5.005   3.904  0.9680 -0.5125  0.4990
  335MOL0     C45096   9.493   5.057   3.956  0.8491 -0.3963  1.0898
  335MOL0     C45097   9.483   5.100   4.093  0.1369 -0.1798  0.5523
  335MOL0     O45098   9.368   5.167   4.132 -0.4443 -0.0856 -0.6639
  335MOL0     C45099   9.371   5.256   4.242 -0.5122  0.9389 -0.3236
  335MOL0     C45100   9.282   5.374   4.200 -0.7025  0.5646  0.1694
  335MOL0     C45101   9.330   5.505   4.263 -0.3469  0.7159  0.1894
  335MOL0     C45102   9.336   5.513   4.410  1.1624 -0.4123 -0.3457
  335MOL0     C45103   9.402   5.647   4.453  0.8686 -0.2696 -0.2084
  335MOL0     C45104   9.549   5.642   4.411 -0.8427 -0.3241 -0.2067
  335MOL0     C45105   9.632   5.715   4.509  0.6504  0.1714  0.6097
  335MOL0     C45106   9.780   5.718   4.463 -0.6932 -0.3559 -0.5877
  335MOL0     N45107   9.852   5.592   4.457 -0.0455  0.0101  0.1701
  335MOL0     C45108   9.902   5.551   4.338 -0.1074  0.0026 -0.6055
  335MOL0     C45109   9.987   5.450   4.371  1.1121 -0.6522  0.6478
  335MOL0     C45110  10.099   5.393   4.285  0.5182 -0.2099 -0.3486
  335MOL0     C45111  10.122   5.245   4.303 -0.6730 -0.6256 -0.5831
  335MOL0     C45112  10.203   5.194   4.426 -0.3091  0.0943 -0.2107
  335MOL0     C45113  10.313   5.286   4.482  0.0805 -0.5993 -0.0027
  335MOL0     O45114  10.405   5.331   4.378 -0.8932  0.5645  0.6371
  335MOL0     C45115  10.523   5.265   4.375  0.2616 -0.3509 -0.2252
  335MOL0     C45116  10.627   5.313   4.293  0.0950  0.1404 -0.3380
  335MOL0     C45117  10.752   5.243   4.283  0.4414 -0.2377  0.7769
  335MOL0     C45118  10.787   5.131   4.368  0.0083  0.0528  0.0878
  335MOL0     C45119  10.914   5.053   4.361 -0.7181  0.2741  0.1700
  335MOL0     O45120  11.023   5.110   4.295  0.1388 -0.3315 -0.5838
  335MOL0     C45121  11.128   5.035   4.280  0.5371 -0.3339  0.9608
  335MOL0     C45122  11.137   4.919   4.186  0.4433  0.1255 -0.0967
  335MOL0     C45123  11.253   4.841   4.167  0.5794  0.6229  0.5030
  335MOL0     C45124  11.372   4.884   4.223 -0.0912 -0.9049 -0.2106
  335MOL0     O45125  11.483   4.806   4.206  0.6513  0.4075 -0.2437
  335MOL0     C45126  11.609   4.865   4.236  0.7279 -0.1584 -0.1533
  335MOL0     C45127  11.726   4.773   4.183  0.3395  0.1133  0.6658
  335MOL0     C45128  11.856   4.859   4.184 -1.0882  0.1208 -0.3315
  335MOL0     C45129  11.905   4.900   4.327  0.2688  0.3987 -0.2784
  335MOL0     C45130  12.027   4.992   4.323 -0.3441 -0.7367  0.0867
  335MOL0     C45131  12.010   5.130   4.258 -0.6827  0.3598 -0.1021
  335MOL0     C45132  12.143   5.204   4.262  0.6447 -0.1448  0.2809
  335MOL0     C45133  12.125   5.346   4.201  0.0570 -0.2112 -0.2936
  335MOL0    Cl45134  12.272   5.438   4.246  0.0226 -0.2533  0.1829
  335MOL0     C45135  11.366   4.995   4.313 -0.1491  0.2238  0.1403
  335MOL0     C45136  11.251   5.070   4.336 -0.3763  0.4188 -0.8583
  335MOL0     O45137  10.907   4.940   4.400 -0.3845 -0.1744 -0.0508
  335MOL0     C45138  10.677   5.074   4.435  0.7010  0.7140  0.2481
  335MOL0     C45139  10.547   5.136   4.438 -0.0457 -0.5922  0.6085
  335MOL0     N45140   9.977   5.430   4.503 -0.0263 -0.2825 -0.0703
  335MOL0     N45141   9.895   5.514   4.558 -0.1604 -0.3870 -0.8240
  335MOL0     C45142   9.595   5.078   4.178  0.1256 -0.6974  0.1909
  335MOL0     C45143   9.707   5.014   4.121 -0.6831 -0.1165  0.1121
  335MOL0     C45144   9.932   4.732   3.815  0.4818 -0.5884 -0.1056
  335MOL0     C45145  10.004   4.808   3.727  0.3887  0.7119  0.6685
  335MOL0     C45146  10.119   4.758   3.671  0.2681  0.6146 -0.5993
  335MOL0     C45147  10.168   4.628   3.694 -0.4414  0.0353  0.4257
  335MOL0     O45148  10.289   4.595   3.639 -0.1167  0.2418  1.2106
  335MOL0     C45149  10.355   4.476   3.677  0.6098 -0.3271  0.9628
  335MOL0     C45150  10.485   4.458   3.617 -0.4123  0.8278 -0.3117
  335MOL0     C45151  10.592   4.551   3.676 -0.4280 -0.5105 -0.1537
  335MOL0     C45152  10.733   4.513   3.641  0.2132 -0.2919  0.1101
  335MOL0     C45153  10.786   4.409   3.738 -0.1215  0.4132 -0.4317
  335MOL0     C45154  10.836   4.335   3.824 -0.9992 -0.4798 -0.0173
  335MOL0     C45155  10.091   4.550   3.781 -0.1093 -0.0178 -0.5016
  335MOL0     C45156   9.978   4.600   3.847  0.5628  0.3824  0.4104
  335MOL0     C45157   9.920   4.510   3.953  0.6823 -0.1190 -0.7542
  335MOL0     H45158   9.636   4.978   3.801 -1.2024 -1.6070  0.3081
  335MOL0     H45159   9.417   5.081   3.882  0.4312 -2.4588  0.7940
  335MOL0     H45160   9.330   5.210   4.333  3.7716 -1.2194  0.8323
  335MOL0     H45161   9.477   5.269   4.266  0.6365 -1.2475 -3.5581
  335MOL0     H45162   9.176   5.355   4.222 -0.6600  2.3423  2.2440
  335MOL0     H45163   9.292   5.395   4.093  2.8715  0.8403  0.4606
  335MOL0     H45164   9.257   5.574   4.221 -1.9538 -0.5835  0.7370
  335MOL0     H45165   9.431   5.523   4.223 -0.7508  1.9698 -0.3106
  335MOL0     H45166   9.237   5.509   4.455  0.8036  1.4588 -0.8757
  335MOL0     H45167   9.399   5.434   4.451  0.1023 -0.3769  1.4834
  335MOL0     H45168   9.360   5.735   4.404  3.3762 -0.3509 -2.7446
  335MOL0     H45169   9.387   5.659   4.561 -1.3247 -0.5126 -0.4291
  335MOL0     H45170   9.582   5.537   4.418  0.9649  0.0800 -1.6771
  335MOL0     H45171   9.570   5.675   4.309  1.2397 -2.4936 -0.5672
  335MOL0     H45172   9.612   5.662   4.604  0.0463  0.8616  0.8811
  335MOL0     H45173   9.602   5.820   4.511  2.3360  0.6848  0.2653
  335MOL0     H45174   9.797   5.767   4.366  0.2314  1.1151  0.2786
  335MOL0     H45175   9.840   5.773   4.536  0.0158  0.5323 -1.8030
  335MOL0     H45176   9.890   5.608   4.247  1.1112 -2.2929 -2.3157
  335MOL0     H45177  10.059   5.402   4.184 -1.8822 -1.1754  0.4374
  335MOL0     H45178  10.193   5.446   4.302  0.6675 -0.5754 -0.0020
  335MOL0     H45179  10.025   5.195   4.295 -0.9599 -0.2610  0.4759
  335MOL0     H45180  10.182   5.211   4.217  0.1509 -2.4098  0.6362
  335MOL0     H45181  10.235   5.091   4.406 -0.9965 -0.0648 -0.5307
  335MOL0     H45182  10.137   5.184   4.512  0.5366 -1.3244  0.3100
  335MOL0     H45183  10.360   5.240   4.570 -0.2529  0.4668  0.7516
  335MOL0     H45184  10.261   5.379   4.507 -1.2476 -0.1867 -3.7401
  335MOL0     H45185  10.608   5.406   4.241 -3.8075 -0.0246  0.4709
  335MOL0     H45186  10.835   5.279   4.223  0.8733 -1.0313  0.8843
  335MOL0     H45187  11.046   4.889   4.135 -0.0216  1.8111 -0.3239
  335MOL0     H45188  11.252   4.743   4.119  2.7720  0.4729  0.6315
  335MOL0     H45189  11.614   4.965   4.192 -0.3223 -0.4299 -0.9191
  335MOL0     H45190  11.619   4.866   4.345 -1.5683 -2.4431  0.1699
  335MOL0     H45191  11.737   4.678   4.234 -1.5047 -1.5982 -1.8597
  335MOL0     H45192  11.699   4.741   4.082  1.8545  0.1263  0.2372
  335MOL0     H45193  11.940   4.801   4.145 -0.6145 -0.7418  1.8368
  335MOL0     H45194  11.837   4.946   4.120  0.3316  0.2252 -0.6638
  335MOL0     H45195  11.924   4.815   4.393 -0.6467 -0.2445 -0.8195
  335MOL0     H45196  11.828   4.952   4.386  1.2497  0.9353  0.5577
  335MOL0     H45197  12.110   4.936   4.280 -0.5099 -1.2699  0.4450
  335MOL0     H45198  12.055   5.025   4.424  1.9790 -2.3123  0.0440
  335MOL0     H45199  11.977   5.123   4.154  0.8374  1.0642 -0.6705
  335MOL0     H45200  11.930   5.190   4.302 -0.8310  1.1153 -1.3394
  335MOL0     H45201  12.220   5.151   4.205  1.7539  1.9983 -0.3312
  335MOL0     H45202  12.167   5.220   4.368  0.8369 -0.3872  0.2761
  335MOL0     H45203  12.099   5.345   4.095  1.6846 -1.0407 -0.7222
  335MOL0     H45204  12.041   5.402   4.242 -0.5928 -0.9222 -0.6230
  335MOL0     H45205  11.453   5.033   4.364  0.3263 -1.8469  0.9638
  335MOL0     H45206  11.261   5.159   4.396  2.9495 -1.3430  1.4783
  335MOL0     H45207  10.686   4.988   4.500 -2.3195 -1.0080 -1.3899
  335MOL0     H45208  10.470   5.088   4.497 -0.7485  1.0081  1.0385
  335MOL0     H45209   9.595   5.104   4.284  1.0655 -0.0759  0.0494
  335MOL0     H45210   9.791   4.995   4.187 -0.8246 -1.2483 -0.0199
  335MOL0     H45211   9.965   4.908   3.715  0.6465  1.1690  3.0617
  335MOL0     H45212  10.184   4.835   3.629  1.6494  0.7117  1.5774
  335MOL0     H45213  10.294   4.394   3.640  2.7344 -1.3739 -0.4266
  335MOL0     H45214  10.366   4.470   3.786 -0.6848 -1.9446  1.0398
  335MOL0     H45215  10.481   4.466   3.508  0.4386  1.9418 -0.2670
  335MOL0     H45216  10.527   4.359   3.637  0.5058  0.8191 -2.1310
  335MOL0     H45217  10.580   4.550   3.785 -0.6187  0.8014 -0.1473
  335MOL0     H45218  10.572   4.649   3.634  0.9049  0.2361  0.8427
  335MOL0     H45219  10.728   4.478   3.537 -0.9064  0.6872 -0.1840
  335MOL0     H45220  10.803   4.597   3.639  2.6078 -2.0994  2.2585
  335MOL0     H45221  10.875   4.272   3.900  0.0119 -0.3489 -0.4035
  335MOL0     H45222  10.111   4.446   3.801 -1.6663 -0.3832 -0.7325
  335MOL0     H45223   9.933   4.562   4.048 -0.1130  5.1486 -3.1524
  335MOL0     H45224   9.812   4.507   3.934  0.2015  1.9826  1.2264
  335MOL0     H45225   9.968   4.412   3.962 -0.2043 -0.3320  3.9735
  336MOL0     O45226   2.628   2.926   1.960  0.0104  0.3871 -0.2507
  336MOL0     C45227   2.562   2.933   2.062  0.3825 -0.2177 -0.2518
  336MOL0     O45228   2.618   2.921   2.191 -0.1898  0.1756  0.2071
  336MOL0     C45229   2.750   2.896   2.209 -0.0493  0.8229 -0.2532
  336MOL0     C45230   2.844   2.979   2.156 -0.6284 -0.9732 -0.0798
  336MOL0     C45231   2.979   2.956   2.177  0.5329  0.4063  0.2695
  336MOL0     C45232   3.022   2.842   2.251  0.0029  0.1181 -0.1868
  336MOL0     O45233   3.147   2.776   2.251 -0.3187 -0.6739  0.8620
  336MOL0     C45234   3.274   2.840   2.231  1.4667 -0.7291  0.0600
  336MOL0     C45235   3.365   2.771   2.328  0.0252  0.0238  0.0820
  336MOL0     C45236   3.506   2.794   2.290  0.4012  0.6417 -0.3166
  336MOL0     C45237   3.606   2.708   2.375 -0.1268 -0.3381 -0.6613
  336MOL0     C45238   3.756   2.719   2.333 -0.1673 -0.3433 -0.5329
  336MOL0     C45239   3.833   2.621   2.425  0.6369  0.3308  0.6974
  336MOL0     C45240   3.986   2.630   2.424 -0.9298  0.4156 -0.3746
  336MOL0     C45241   4.046   2.615   2.277 -0.5382 -0.4308 -0.1968
  336MOL0     N45242   4.192   2.585   2.296  0.2485  0.6309  0.0472
  336MOL0     C45243   4.285   2.656   2.359 -0.0795  0.0450 -0.0633
  336MOL0     C45244   4.402   2.597   2.335 -0.4644  0.4396 -0.1717
  336MOL0     C45245   4.536   2.646   2.397  0.2471  0.1132  0.7658
  336MOL0     C45246   4.645   2.667   2.293 -0.4372  0.2427 -0.7958
  336MOL0     C45247   4.766   2.720   2.365 -0.3230 -0.3570 -1.0975
  336MOL0     C45248   4.891   2.747   2.295  0.0935  1.1297  0.2353
  336MOL0     O45249   4.873   2.818   2.174  0.0797  0.3382  0.5096
  336MOL0     C45250   4.974   2.839   2.087 -0.2399  0.2653  0.0001
  336MOL0     C45251   5.109   2.801   2.109 -0.1131 -0.3635  0.4592
  336MOL0     C45252   5.197   2.819   2.003 -0.3674  0.3647 -0.6211
  336MOL0     C45253   5.164   2.874   1.879 -0.4314  0.1163 -0.2642
  336MOL0     C45254   5.271   2.904   1.773  0.5556 -0.1682 -0.2889
  336MOL0     O45255   5.394   2.912   1.818 -0.0624 -1.2037 -0.2770
  336MOL0     C45256   5.489   2.948   1.726 -0.0515 -0.6794 -0.0560
  336MOL0     C45257   5.568   3.063   1.752 -0.2702  0.1779 -0.3130
  336MOL0     C45258   5.646   3.124   1.648  0.0324 -0.1830 -0.5433
  336MOL0     C45259   5.665   3.055   1.528  0.3511  0.4819  0.3118
  336MOL0     O45260   5.726   3.101   1.413  0.0302 -1.0384 -0.2657
  336MOL0     C45261   5.814   3.220   1.411 -0.1869 -0.4422 -0.4227
  336MOL0     C45262   5.944   3.221   1.489 -0.3642  0.1389 -0.3369
  336MOL0     C45263   6.049   3.118   1.435  0.4242  0.3281 -0.0377
  336MOL0     C45264   6.006   2.977   1.467 -0.8052 -0.5692 -0.2355
  336MOL0     C45265   6.125   2.875   1.438  0.3253  0.2939 -0.2662
  336MOL0     C45266   6.172   2.879   1.295 -0.4259  0.2032 -0.3488
  336MOL0     C45267   6.281   2.762   1.284  0.0048 -0.7208 -0.6229
  336MOL0     C45268   6.406   2.782   1.376  0.0973  0.5039  0.2845
  336MOL0    Cl45269   6.530   2.647   1.344 -0.0990  0.1461 -0.0882
  336MOL0     C45270   5.609   2.927   1.521  0.1287  0.1017  0.2431
  336MOL0     C45271   5.506   2.883   1.603 -0.1737  0.3485 -0.7209
  336MOL0     O45272   5.231   2.928   1.663 -0.1392 -0.3219 -1.1465
  336MOL0     C45273   5.033   2.905   1.855  0.5802  0.4258 -1.0159
  336MOL0     C45274   4.946   2.901   1.962  0.2211 -0.0045  0.8553
  336MOL0     N45275   4.372   2.479   2.267  0.0932 -0.4920  0.3228
  336MOL0     N45276   4.248   2.471   2.252  0.3605  1.3198  0.8301
  336MOL0     C45277   2.928   2.768   2.313  0.2842  0.2519 -0.2107
  336MOL0     C45278   2.791   2.792   2.295 -0.3387 -0.1663  0.2078
  336MOL0     C45279   2.420   2.954   2.055  0.7073  0.3832 -0.7625
  336MOL0     C45280   2.352   2.995   2.175 -0.0171 -0.2142 -0.4069
  336MOL0     C45281   2.214   3.015   2.178  0.4005 -0.4187 -0.5143
  336MOL0     C45282   2.137   2.989   2.064  0.5521  0.3375 -0.8009
  336MOL0     O45283   1.998   3.004   2.079 -1.2563 -0.3669  0.3895
  336MOL0     C45284   1.930   3.018   1.951  0.8965 -0.1395 -0.2367
  336MOL0     C45285   1.796   3.060   1.996 -0.7501  0.2186 -0.2805
  336MOL0     C45286   1.706   3.052   1.871  0.4105 -0.1635 -0.2436
  336MOL0     C45287   1.565   3.078   1.929  0.7170 -0.5092  0.3472
  336MOL0     C45288   1.470   3.093   1.814  0.2947 -0.6121  0.1227
  336MOL0     C45289   1.419   3.095   1.704  0.5176 -0.0589  0.4130
  336MOL0     C45290   2.195   2.942   1.948 -0.4792  0.2901 -0.2186
  336MOL0     C45291   2.335   2.927   1.944  0.0918  0.0915  0.5594
  336MOL0     C45292   2.383   2.900   1.805  0.6867 -0.0201  1.3273
  336MOL0     H45293   2.820   3.064   2.094  1.4319  0.7749  1.3673
  336MOL0     H45294   3.056   3.012   2.125  1.9437 -0.1694  1.6551
  336MOL0     H45295   3.307   2.850   2.128  0.6952  5.6259 -0.0150
  336MOL0     H45296   3.266   2.945   2.263 -3.5303 -0.4669 -1.2130
  336MOL0     H45297   3.346   2.664   2.326 -0.4539 -0.0244  3.0155
  336MOL0     H45298   3.355   2.803   2.432  1.2063 -4.2167  1.6826
  336MOL0     H45299   3.529   2.901   2.294 -2.5420  1.3811 -1.0986
  336MOL0     H45300   3.515   2.756   2.188 -0.5375  3.1965 -1.4392
  336MOL0     H45301   3.603   2.748   2.477  0.5581 -0.1920 -0.6935
  336MOL0     H45302   3.571   2.604   2.375  0.7005 -0.6274 -0.2765
  336MOL0     H45303   3.779   2.693   2.229  0.7677 -2.8413  0.2294
  336MOL0     H45304   3.786   2.821   2.357  2.7913 -0.8116 -1.7746
  336MOL0     H45305   3.804   2.645   2.528  0.7283 -0.0129  0.8042
  336MOL0     H45306   3.816   2.514   2.409  0.2365  0.3804  0.7724
  336MOL0     H45307   4.032   2.560   2.494 -1.5814 -0.1772 -0.5277
  336MOL0     H45308   4.010   2.728   2.467  1.6890 -0.4756  0.4353
  336MOL0     H45309   4.008   2.525   2.227 -0.7663 -0.4141 -0.0545
  336MOL0     H45310   4.036   2.712   2.227 -1.1117  0.3719  1.3976
  336MOL0     H45311   4.252   2.745   2.411  1.7728  0.5011  0.4304
  336MOL0     H45312   4.514   2.749   2.425 -0.2982  0.6597 -1.4368
  336MOL0     H45313   4.567   2.586   2.483 -2.5063 -0.5858  1.3722
  336MOL0     H45314   4.671   2.569   2.250 -0.4767  0.2411 -0.8161
  336MOL0     H45315   4.594   2.725   2.215 -1.7161 -1.1671 -1.0762
  336MOL0     H45316   4.788   2.651   2.447 -2.4339 -1.6408 -1.5291
  336MOL0     H45317   4.734   2.814   2.412  0.4560 -0.4446 -0.3681
  336MOL0     H45318   4.945   2.653   2.280 -0.9550  0.3565  1.1238
  336MOL0     H45319   4.944   2.814   2.364  1.9549  0.2006 -0.2429
  336MOL0     H45320   5.145   2.749   2.197 -1.3914 -2.1888 -0.0289
  336MOL0     H45321   5.299   2.789   2.029 -0.0843  2.2149  0.6474
  336MOL0     H45322   5.553   3.125   1.840  2.2270  2.3584 -1.2826
  336MOL0     H45323   5.700   3.215   1.674  0.2113 -0.5909  0.5713
  336MOL0     H45324   5.849   3.224   1.307  0.0560 -0.6913 -0.3504
  336MOL0     H45325   5.763   3.314   1.432  2.5770  1.4888 -1.7672
  336MOL0     H45326   5.987   3.321   1.478  1.5090 -0.7508 -1.7029
  336MOL0     H45327   5.938   3.205   1.597  0.8604  2.9842  0.2385
  336MOL0     H45328   6.050   3.134   1.327  1.4587  1.4635  0.1186
  336MOL0     H45329   6.150   3.145   1.469  0.4248 -0.6781  0.8218
  336MOL0     H45330   5.924   2.935   1.409 -0.2999  0.3659 -1.7144
  336MOL0     H45331   5.991   2.963   1.574 -0.4132  0.9453  0.0488
  336MOL0     H45332   6.092   2.775   1.467  2.5483  0.5797  3.9960
  336MOL0     H45333   6.211   2.895   1.502  2.0614 -3.1653 -1.2494
  336MOL0     H45334   6.098   2.861   1.217 -0.2305  1.6488 -0.9120
  336MOL0     H45335   6.215   2.976   1.270 -0.1373 -0.0474 -0.8367
  336MOL0     H45336   6.306   2.765   1.178 -3.3935 -1.7199 -1.5707
  336MOL0     H45337   6.242   2.662   1.302 -0.7847 -0.6211 -1.7392
  336MOL0     H45338   6.453   2.879   1.358 -2.3385  1.9392  1.1783
  336MOL0     H45339   6.372   2.780   1.480 -0.9442 -1.6943 -0.0238
  336MOL0     H45340   5.636   2.857   1.442  0.8753 -0.2936  0.8417
  336MOL0     H45341   5.447   2.797   1.573 -0.4167  0.0548  0.5358
  336MOL0     H45342   5.002   2.929   1.753  0.3845  2.0533 -0.5989
  336MOL0     H45343   4.842   2.930   1.948  0.0289  0.2942  2.6274
  336MOL0     H45344   2.957   2.686   2.377 -3.1670  0.1831  1.4946
  336MOL0     H45345   2.718   2.727   2.343  1.7287 -2.7596  0.1040
  336MOL0     H45346   2.407   3.002   2.268  0.4561  1.4919 -0.7762
  336MOL0     H45347   2.169   3.049   2.271 -1.6476 -1.8669 -0.8988
  336MOL0     H45348   1.925   2.922   1.899  1.1876  0.5529 -1.5862
  336MOL0     H45349   1.978   3.094   1.889  2.7153  0.1304  1.4236
  336MOL0     H45350   1.803   3.161   2.037 -1.0050  0.5473 -1.0172
  336MOL0     H45351   1.758   2.998   2.077 -2.8417 -0.8926 -2.0095
  336MOL0     H45352   1.717   2.950   1.835 -0.2042 -0.3851  0.1804
  336MOL0     H45353   1.718   3.128   1.794 -1.2593  0.6326  0.2291
  336MOL0     H45354   1.534   2.989   1.985 -1.1145 -0.5944 -0.7391
  336MOL0     H45355   1.569   3.167   1.991  0.9363 -0.2285 -0.0654
  336MOL0     H45356   1.376   3.100   1.605 -0.9435  1.6315  1.0769
  336MOL0     H45357   2.138   2.912   1.861  2.0600 -1.4470 -1.4260
  336MOL0     H45358   2.476   2.953   1.786  0.6307  0.2123  1.6934
  336MOL0     H45359   2.393   2.793   1.786 -1.8682  0.0460 -1.1834
  336MOL0     H45360   2.318   2.938   1.725 -0.4715 -3.3160  0.5441
  337MOL0     O45361   7.604   9.286   6.860 -0.6498 -0.9066 -0.3918
  337MOL0     C45362   7.487   9.286   6.838  0.0342  0.6012  0.3800
  337MOL0     O45363   7.433   9.198   6.744  0.1172 -0.7834 -0.0227
  337MOL0     C45364   7.489   9.098   6.673  0.3664 -0.3430  0.3297
  337MOL0     C45365   7.627   9.071   6.662  0.0353 -0.2776  0.0289
  337MOL0     C45366   7.670   8.965   6.580 -0.2627  0.0387  0.5156
  337MOL0     C45367   7.577   8.878   6.519  0.0124  1.0231 -0.3353
  337MOL0     O45368   7.614   8.761   6.454 -0.3501  0.7700  0.9443
  337MOL0     C45369   7.728   8.776   6.364  0.1537 -0.1668 -0.0484
  337MOL0     C45370   7.689   8.698   6.241  0.6997  0.8667  0.1127
  337MOL0     C45371   7.776   8.723   6.128  0.3346  0.3599 -0.4746
  337MOL0     C45372   7.916   8.661   6.161 -0.0864  0.1949 -0.4176
  337MOL0     C45373   8.021   8.676   6.042 -0.0077 -1.0121  0.2798
  337MOL0     C45374   8.152   8.616   6.081 -0.6244 -0.4689  0.0071
  337MOL0     C45375   8.263   8.656   5.988  0.6578  0.2341 -0.4798
  337MOL0     C45376   8.402   8.615   6.035 -0.3890 -0.5095  0.4001
  337MOL0     N45377   8.517   8.671   5.959  2.1007  0.4882  0.1408
  337MOL0     C45378   8.551   8.800   5.941  0.3419 -0.0610  0.5002
  337MOL0     C45379   8.656   8.801   5.867 -0.2271 -0.1704 -1.5085
  337MOL0     C45380   8.721   8.920   5.810  0.3748  0.5871  0.1262
  337MOL0     C45381   8.790   9.002   5.917  0.5276 -0.1479  0.0924
  337MOL0     C45382   8.919   8.945   5.971 -0.0295  0.1895 -0.1981
  337MOL0     C45383   8.965   9.025   6.100  0.1587  0.0554 -0.2119
  337MOL0     O45384   8.982   9.157   6.067  0.0323 -0.6491  0.1561
  337MOL0     C45385   9.110   9.199   6.023  0.2704  0.1371  0.3235
  337MOL0     C45386   9.123   9.336   5.994  0.0141  0.1744 -0.2261
  337MOL0     C45387   9.250   9.394   5.969 -0.1676  0.4480 -0.6014
  337MOL0     C45388   9.365   9.311   5.943  0.3073 -0.7976 -0.1211
  337MOL0     C45389   9.501   9.362   5.924 -0.0448 -0.9394 -0.5800
  337MOL0     O45390   9.519   9.494   5.886 -0.2201  0.3110  0.6176
  337MOL0     C45391   9.644   9.533   5.876 -0.8308  0.1861  0.2202
  337MOL0     C45392   9.721   9.523   5.754  0.1082 -1.1205  0.4183
  337MOL0     C45393   9.854   9.562   5.753 -0.7570  0.4527  0.3318
  337MOL0     C45394   9.917   9.614   5.871 -0.3997  0.0255  0.4177
  337MOL0     O45395  10.045   9.649   5.876  0.3421  0.3897 -0.4174
  337MOL0     C45396  10.130   9.665   5.757  0.5915  0.5095 -0.2444
  337MOL0     C45397  10.213   9.788   5.756 -1.3257  0.8101 -0.4621
  337MOL0     C45398  10.240   9.851   5.622  0.4904 -0.0230  0.2974
  337MOL0     C45399  10.337   9.776   5.527 -1.0052 -1.2491  0.5857
  337MOL0     C45400  10.407   9.861   5.417 -0.5025  0.1201  0.6013
  337MOL0     C45401  10.315   9.873   5.293  0.9251 -0.9506 -0.2771
  337MOL0     C45402  10.366   9.975   5.199  0.7462 -0.0920 -0.1655
  337MOL0     C45403  10.275   9.987   5.072 -0.2456  0.1019  0.2124
  337MOL0    Cl45404  10.280  10.159   5.014 -0.4191 -0.7083  0.1176
  337MOL0     C45405   9.838   9.620   5.989  0.2035 -0.5638 -1.1650
  337MOL0     C45406   9.704   9.586   5.989 -0.7241 -0.3494  0.7410
  337MOL0     O45407   9.593   9.285   5.953 -0.1565  0.1301 -0.0245
  337MOL0     C45408   9.343   9.172   5.959 -0.4513 -0.6563 -0.6328
  337MOL0     C45409   9.222   9.111   5.991  0.2896 -0.6284 -0.6160
  337MOL0     N45410   8.686   8.666   5.833  0.2848  0.4661 -0.1934
  337MOL0     N45411   8.601   8.590   5.888  0.2986  0.2608 -0.4775
  337MOL0     C45412   7.443   8.912   6.529 -0.5556  0.3206 -0.8800
  337MOL0     C45413   7.398   9.019   6.603 -0.1574  0.0417 -0.4114
  337MOL0     C45414   7.394   9.387   6.896  0.2979 -0.5954 -0.2518
  337MOL0     C45415   7.259   9.371   6.851  0.2135  0.0846  0.3752
  337MOL0     C45416   7.162   9.453   6.896  0.0558 -0.2439 -0.6000
  337MOL0     C45417   7.187   9.546   6.995 -0.1894 -0.0238  0.1200
  337MOL0     O45418   7.085   9.637   7.016  0.5288  0.8106 -0.1447
  337MOL0     C45419   7.095   9.741   7.115 -0.5949 -0.0750  0.1707
  337MOL0     C45420   6.952   9.750   7.165 -0.5235  0.4524 -0.0342
  337MOL0     C45421   6.902   9.881   7.221 -0.4122 -0.3889  0.6026
  337MOL0     C45422   6.751   9.894   7.235  0.0447  0.6102  0.4549
  337MOL0     C45423   6.715  10.010   7.316  0.2424  0.1302  0.7039
  337MOL0     C45424   6.686  10.109   7.382  0.6148  0.3418  0.5098
  337MOL0     C45425   7.319   9.560   7.045  0.4702  0.4987 -0.0436
  337MOL0     C45426   7.424   9.485   6.990 -0.0161 -0.5219 -0.3944
  337MOL0     C45427   7.567   9.503   7.053  0.1397  0.6009 -0.1955
  337MOL0     H45428   7.701   9.139   6.702  1.2333 -1.8064  0.4925
  337MOL0     H45429   7.776   8.946   6.570 -0.3780 -0.2757 -0.1597
  337MOL0     H45430   7.740   8.882   6.342  1.6960 -0.2988  0.1005
  337MOL0     H45431   7.819   8.738   6.409 -0.8920 -0.7561  1.6689
  337MOL0     H45432   7.588   8.729   6.212  1.2412  0.4316 -2.5769
  337MOL0     H45433   7.674   8.591   6.257 -2.5082  1.0168 -0.9856
  337MOL0     H45434   7.771   8.832   6.121 -0.0271  0.3447 -0.4444
  337MOL0     H45435   7.735   8.685   6.034 -4.1932  0.4249  1.2372
  337MOL0     H45436   7.948   8.695   6.260 -1.9072 -0.7665  0.5454
  337MOL0     H45437   7.895   8.555   6.174 -0.2021  0.3578  0.8188
  337MOL0     H45438   7.985   8.626   5.952 -2.2763 -1.3348  1.3055
  337MOL0     H45439   8.030   8.783   6.019 -2.7483 -1.3515 -3.0872
  337MOL0     H45440   8.165   8.644   6.185 -1.6916  1.0984 -0.2433
  337MOL0     H45441   8.140   8.508   6.077 -0.9105 -0.4194 -0.7171
  337MOL0     H45442   8.250   8.764   5.973 -3.7270 -0.0708 -0.1493
  337MOL0     H45443   8.257   8.602   5.893 -2.4065 -0.6983  0.1216
  337MOL0     H45444   8.406   8.645   6.140  3.7417  0.8356  0.0219
  337MOL0     H45445   8.389   8.506   6.032 -1.8165 -0.4011  1.6614
  337MOL0     H45446   8.513   8.888   5.991 -1.6160 -0.6471  0.1250
  337MOL0     H45447   8.800   8.895   5.738  0.4558  0.3799  0.2861
  337MOL0     H45448   8.646   8.988   5.770 -1.0578  0.0076  1.7074
  337MOL0     H45449   8.804   9.101   5.872 -0.4787  1.1024  2.3314
  337MOL0     H45450   8.719   9.000   6.001  1.3159  0.1414  0.7797
  337MOL0     H45451   9.001   8.961   5.900  0.0894  0.6299  0.0330
  337MOL0     H45452   8.895   8.840   5.988  0.1988  0.3652  1.3218
  337MOL0     H45453   9.051   8.975   6.146 -0.5731  1.1309  2.5193
  337MOL0     H45454   8.881   9.014   6.169  1.5450  0.4753  1.6236
  337MOL0     H45455   9.042   9.408   6.001  0.1100  0.5598 -2.3324
  337MOL0     H45456   9.258   9.501   5.950 -0.1575  0.2616 -1.6875
  337MOL0     H45457   9.673   9.484   5.666  0.6858 -2.3807  0.6464
  337MOL0     H45458   9.904   9.560   5.657  0.3738  1.3419  0.8745
  337MOL0     H45459  10.200   9.582   5.752 -0.2518 -0.1966 -0.5181
  337MOL0     H45460  10.077   9.670   5.661  1.6746  0.3076 -0.8733
  337MOL0     H45461  10.154   9.860   5.813 -1.7057 -0.1224  0.3450
  337MOL0     H45462  10.306   9.778   5.812 -1.9675 -1.1520  0.3442
  337MOL0     H45463  10.154   9.884   5.564  2.5681  1.4814 -2.1244
  337MOL0     H45464  10.291   9.945   5.644  1.3146 -0.9007  2.4040
  337MOL0     H45465  10.272   9.703   5.479 -3.4662  0.0751  1.7455
  337MOL0     H45466  10.400   9.720   5.596 -0.4393  1.4259  2.4154
  337MOL0     H45467  10.503   9.825   5.380  1.4903  2.4565  3.0629
  337MOL0     H45468  10.425   9.957   5.467 -0.8728  0.8330 -0.5676
  337MOL0     H45469  10.299   9.776   5.245 -3.1036 -0.7859  0.3470
  337MOL0     H45470  10.216   9.896   5.334  1.8489  1.2148  0.8902
  337MOL0     H45471  10.467   9.944   5.174  0.3235 -2.0144  0.3371
  337MOL0     H45472  10.364  10.074   5.244 -2.9087  0.5951 -1.4520
  337MOL0     H45473  10.313   9.916   4.998 -0.3273  1.9178 -1.6781
  337MOL0     H45474  10.169   9.961   5.084 -0.5273  2.0263  3.1808
  337MOL0     H45475   9.892   9.660   6.075  0.8697  1.2346 -2.3730
  337MOL0     H45476   9.648   9.597   6.082 -0.7632  2.9196  0.4202
  337MOL0     H45477   9.428   9.110   5.934 -0.1853  0.1667 -1.8629
  337MOL0     H45478   9.219   9.003   5.984 -0.7560 -0.5332 -2.4282
  337MOL0     H45479   7.381   8.851   6.465  0.3274  0.7065 -2.1413
  337MOL0     H45480   7.293   9.047   6.608  0.2939  1.6108  1.9521
  337MOL0     H45481   7.220   9.306   6.774 -0.0853  2.1875 -1.3514
  337MOL0     H45482   7.058   9.455   6.865 -0.1975  1.4665  0.2579
  337MOL0     H45483   7.132   9.835   7.074 -1.3299  0.1537  0.0135
  337MOL0     H45484   7.161   9.720   7.200 -0.1405 -0.5243 -0.2935
  337MOL0     H45485   6.952   9.686   7.254  1.2436 -1.6882 -1.4567
  337MOL0     H45486   6.887   9.709   7.088  0.7767 -1.2146 -0.3236
  337MOL0     H45487   6.938   9.946   7.141 -0.4754 -1.1736 -0.0822
  337MOL0     H45488   6.951   9.902   7.316 -2.3449  0.2398  1.4959
  337MOL0     H45489   6.708   9.904   7.135  1.0161 -2.1707 -0.3564
  337MOL0     H45490   6.712   9.803   7.282 -0.4658  0.7688  0.3464
  337MOL0     H45491   6.655  10.191   7.443 -0.2758 -0.1147  0.6852
  337MOL0     H45492   7.342   9.639   7.117 -0.5594  0.6291  0.1518
  337MOL0     H45493   7.633   9.549   6.979 -0.5107 -0.6920 -1.6177
  337MOL0     H45494   7.563   9.566   7.142  0.8398 -1.0001  1.0165
  337MOL0     H45495   7.608   9.409   7.089  1.4440  1.2462  0.0619
  338MOL0     O45496   0.721   4.896   0.780 -0.5212 -0.0037  0.2076
  338MOL0     C45497   0.612   4.900   0.842 -0.9514 -0.3459  0.2005
  338MOL0     O45498   0.600   4.887   0.977 -0.2731 -0.6478  0.3152
  338MOL0     C45499   0.687   4.817   1.055 -0.1354  0.3630 -0.3236
  338MOL0     C45500   0.785   4.725   1.018  0.6233 -0.1783 -0.9541
  338MOL0     C45501   0.859   4.669   1.121 -0.4061 -0.0600 -0.3804
  338MOL0     C45502   0.843   4.697   1.259 -0.8367  0.2788  0.5316
  338MOL0     O45503   0.924   4.657   1.361 -0.8434  0.1406  0.7365
  338MOL0     C45504   1.046   4.584   1.328  1.0473 -0.3440 -0.1642
  338MOL0     C45505   1.129   4.573   1.460  0.0992 -0.4457  0.3996
  338MOL0     C45506   1.211   4.700   1.495 -0.5342 -0.0484 -0.8768
  338MOL0     C45507   1.273   4.701   1.636 -0.3779  0.0271 -0.0696
  338MOL0     C45508   1.349   4.830   1.665  0.0637  0.9718  0.1479
  338MOL0     C45509   1.481   4.843   1.591  0.3310  0.0736  0.2349
  338MOL0     C45510   1.570   4.935   1.671  0.6930  0.2056  0.3041
  338MOL0     C45511   1.710   4.934   1.597 -0.8240  0.3068 -0.1559
  338MOL0     N45512   1.822   5.007   1.657 -0.0875  0.0974  0.0422
  338MOL0     C45513   1.818   5.135   1.718 -0.2225 -0.5701 -0.3905
  338MOL0     C45514   1.951   5.155   1.747 -0.1946 -0.4875 -0.3338
  338MOL0     C45515   2.017   5.271   1.823 -0.4764  0.3782  0.2497
  338MOL0     C45516   2.179   5.271   1.815 -0.2125 -1.1668  0.2100
  338MOL0     C45517   2.240   5.171   1.911 -0.2587 -0.6968 -0.2117
  338MOL0     C45518   2.387   5.145   1.890 -1.1824  0.4130 -0.7321
  338MOL0     O45519   2.465   5.270   1.901 -0.1770 -0.9823 -0.4384
  338MOL0     C45520   2.599   5.263   1.868 -0.2394 -0.5144 -0.6097
  338MOL0     C45521   2.662   5.388   1.857 -0.4402 -0.1356 -0.7161
  338MOL0     C45522   2.799   5.398   1.829 -0.2728  0.4174 -1.0283
  338MOL0     C45523   2.878   5.284   1.810  0.5205 -0.2888  0.0282
  338MOL0     C45524   3.027   5.283   1.802  0.6909  0.1072 -0.6986
  338MOL0     O45525   3.096   5.175   1.846 -0.4935  0.1396 -0.0309
  338MOL0     C45526   3.234   5.175   1.828  0.0324  0.0848 -0.2473
  338MOL0     C45527   3.320   5.167   1.932 -1.0274  0.4379 -0.4333
  338MOL0     C45528   3.459   5.149   1.908  0.2012 -0.2992 -0.2945
  338MOL0     C45529   3.511   5.138   1.779  0.4312  0.1754 -0.4162
  338MOL0     O45530   3.646   5.105   1.769  0.2064 -0.4696 -0.2606
  338MOL0     C45531   3.669   4.999   1.678  0.3444 -0.0383 -0.3342
  338MOL0     C45532   3.808   4.933   1.704  0.5787 -0.0904  0.2106
  338MOL0     C45533   3.935   5.010   1.665 -0.0772  0.5557  0.3229
  338MOL0     C45534   4.056   4.909   1.650 -0.2671 -0.2214 -0.2159
  338MOL0     C45535   4.180   4.987   1.650  0.3958 -0.9324 -0.4037
  338MOL0     C45536   4.238   5.025   1.780 -0.0129 -0.2901  0.1025
  338MOL0     C45537   4.358   5.115   1.752  0.1840 -0.5008  0.2623
  338MOL0     C45538   4.407   5.201   1.870  0.7078 -0.5384 -0.8584
  338MOL0    Cl45539   4.453   5.096   2.002  0.0231  0.2792  0.3174
  338MOL0     C45540   3.424   5.143   1.675  0.3593 -0.2812 -0.6711
  338MOL0     C45541   3.290   5.164   1.699  0.6080 -0.3446 -0.9457
  338MOL0     O45542   3.069   5.384   1.752  0.3117  0.2486 -0.5509
  338MOL0     C45543   2.818   5.158   1.825 -0.1800  0.4749 -0.1167
  338MOL0     C45544   2.677   5.145   1.856 -0.6474 -0.4365  0.8577
  338MOL0     N45545   2.021   5.041   1.702 -0.2108 -0.2679  0.6071
  338MOL0     N45546   1.949   4.950   1.653 -0.2378  0.1393 -0.7307
  338MOL0     C45547   0.737   4.782   1.291  0.4783 -0.0532  0.6029
  338MOL0     C45548   0.661   4.846   1.193  0.1157 -0.5701  0.1095
  338MOL0     C45549   0.490   4.932   0.760 -0.9546 -0.3256 -0.2604
  338MOL0     C45550   0.503   4.991   0.631  0.4350 -0.0983 -0.0911
  338MOL0     C45551   0.385   5.030   0.556  0.4181  1.1889 -0.5896
  338MOL0     C45552   0.258   4.993   0.602  0.1734  0.0431 -0.0951
  338MOL0     O45553   0.144   5.020   0.543  0.2254  0.1312 -0.0397
  338MOL0     C45554   0.131   5.091   0.417  0.0495 -0.0173 -0.2655
  338MOL0     C45555  -0.009   5.150   0.375 -0.0719  0.4773 -0.0545
  338MOL0     C45556  -0.121   5.039   0.352 -0.7520  0.0849  0.6901
  338MOL0     C45557  -0.243   5.088   0.266  0.4530 -0.5965  0.1994
  338MOL0     C45558  -0.326   5.173   0.355  1.0916 -0.3169 -0.9827
  338MOL0     C45559  -0.420   5.233   0.410 -0.2778 -0.7683  0.6079
  338MOL0     C45560   0.245   4.922   0.721 -0.0381  0.2963 -0.2645
  338MOL0     C45561   0.360   4.885   0.798  0.0853 -0.1675 -0.4728
  338MOL0     C45562   0.328   4.816   0.934 -0.6756  0.4231  0.3420
  338MOL0     H45563   0.800   4.703   0.913 -0.7408  0.0354 -1.2086
  338MOL0     H45564   0.947   4.618   1.082  0.1943  1.6348 -1.3464
  338MOL0     H45565   1.030   4.483   1.289  0.1487 -1.1333  2.0895
  338MOL0     H45566   1.107   4.651   1.267 -0.1314  2.2274  1.3164
  338MOL0     H45567   1.196   4.489   1.444  0.1576 -0.6836  1.7466
  338MOL0     H45568   1.055   4.553   1.538 -3.6557  1.7813 -2.2274
  338MOL0     H45569   1.149   4.788   1.475 -0.8244 -0.7309 -3.2419
  338MOL0     H45570   1.302   4.708   1.435 -0.8523 -0.7723 -1.4666
  338MOL0     H45571   1.192   4.683   1.707 -1.1691 -0.4510 -1.0705
  338MOL0     H45572   1.332   4.609   1.626 -3.3220 -1.9488 -0.4263
  338MOL0     H45573   1.290   4.918   1.638 -1.6778 -0.4020 -0.6914
  338MOL0     H45574   1.380   4.834   1.770  2.8382 -0.9440 -0.4876
  338MOL0     H45575   1.524   4.743   1.577 -1.4118 -0.8165  0.8141
  338MOL0     H45576   1.469   4.879   1.489  0.5014  1.0341  0.5456
  338MOL0     H45577   1.582   4.920   1.779 -0.1033  0.4278  0.4313
  338MOL0     H45578   1.534   5.037   1.657 -0.1491 -0.1435 -0.1434
  338MOL0     H45579   1.741   4.831   1.580  0.0623  0.2959  1.3906
  338MOL0     H45580   1.699   4.988   1.502  0.3199 -1.5131 -1.3740
  338MOL0     H45581   1.737   5.202   1.746 -1.4265 -2.3271  0.4730
  338MOL0     H45582   1.985   5.358   1.765  0.9724 -0.5681 -2.1181
  338MOL0     H45583   1.974   5.283   1.923 -0.5251 -0.8470  0.4001
  338MOL0     H45584   2.202   5.252   1.709  0.3112  2.0653 -0.3635
  338MOL0     H45585   2.205   5.374   1.838  1.6007 -1.6750  0.6668
  338MOL0     H45586   2.184   5.078   1.894 -1.2329 -0.1072 -0.3325
  338MOL0     H45587   2.223   5.196   2.016  1.1311 -2.3055  0.4282
  338MOL0     H45588   2.392   5.099   1.791 -0.8289  1.0186 -0.9976
  338MOL0     H45589   2.431   5.079   1.965 -1.8271  0.5600 -0.2125
  338MOL0     H45590   2.607   5.481   1.868  0.5820  0.7235 -2.3318
  338MOL0     H45591   2.847   5.495   1.833  0.2652  0.1295 -0.0245
  338MOL0     H45592   3.292   5.177   2.037 -1.2484 -1.5626 -0.2554
  338MOL0     H45593   3.536   5.154   1.986  0.6149  0.0781 -0.7215
  338MOL0     H45594   3.590   4.925   1.691  0.5155 -0.0924  0.4883
  338MOL0     H45595   3.676   5.034   1.575  1.5843 -0.5712 -0.4492
  338MOL0     H45596   3.823   4.911   1.810  0.4964  0.4799  0.3384
  338MOL0     H45597   3.807   4.840   1.646 -0.2323  0.2780 -0.3832
  338MOL0     H45598   3.923   5.053   1.565  2.3489 -0.0161 -0.2841
  338MOL0     H45599   3.955   5.083   1.744 -1.5266  1.1553  0.1646
  338MOL0     H45600   4.047   4.841   1.565 -1.2925 -0.7238  0.2661
  338MOL0     H45601   4.074   4.843   1.735  3.9928  1.2672  0.2541
  338MOL0     H45602   4.160   5.078   1.592 -0.1939 -0.2833  0.7909
  338MOL0     H45603   4.265   4.944   1.596  0.6240  0.8803 -1.5780
  338MOL0     H45604   4.165   5.077   1.844  1.2357  2.5273 -0.6060
  338MOL0     H45605   4.270   4.933   1.829  1.2774 -0.6631 -1.3737
  338MOL0     H45606   4.336   5.181   1.667 -0.7954 -2.1573 -0.8529
  338MOL0     H45607   4.444   5.056   1.720 -1.3404 -0.7890 -4.0595
  338MOL0     H45608   4.492   5.267   1.849  2.2473 -1.4600  1.9890
  338MOL0     H45609   4.324   5.269   1.894 -0.8395 -3.0253  1.3804
  338MOL0     H45610   3.462   5.125   1.575  0.8489 -1.0625 -0.3589
  338MOL0     H45611   3.224   5.188   1.616 -0.7073 -0.4658  0.0184
  338MOL0     H45612   2.877   5.069   1.804 -0.4663  0.8513 -2.8153
  338MOL0     H45613   2.623   5.051   1.862 -3.2256  1.0207  2.4252
  338MOL0     H45614   0.725   4.803   1.397 -0.5497 -0.8629  0.6625
  338MOL0     H45615   0.590   4.919   1.231  0.1623 -0.6441  0.3363
  338MOL0     H45616   0.599   5.029   0.596 -0.3681  1.0110 -1.1958
  338MOL0     H45617   0.395   5.086   0.464  0.9002 -2.3017 -2.8319
  338MOL0     H45618   0.155   5.026   0.333 -0.8999 -4.6049  2.6617
  338MOL0     H45619   0.194   5.179   0.434 -0.6917  0.1869  1.8132
  338MOL0     H45620   0.004   5.190   0.274 -1.4429 -3.7386 -2.1029
  338MOL0     H45621  -0.042   5.224   0.449  3.5630  0.4570  1.8368
  338MOL0     H45622  -0.161   5.000   0.447 -0.3790  0.8811  1.1885
  338MOL0     H45623  -0.070   4.953   0.308  1.8583  1.3037  1.1729
  338MOL0     H45624  -0.220   5.140   0.173 -1.6287 -0.1328 -0.1047
  338MOL0     H45625  -0.312   5.014   0.225 -2.6364  1.1115  1.8912
  338MOL0     H45626  -0.503   5.285   0.453 -1.6837 -1.4939 -1.0746
  338MOL0     H45627   0.146   4.887   0.749 -0.4522  3.1405  2.2961
  338MOL0     H45628   0.355   4.876   1.021  3.6854 -0.1344 -0.3965
  338MOL0     H45629   0.222   4.791   0.936 -0.5241 -0.2516  0.3819
  338MOL0     H45630   0.383   4.721   0.942  1.6715  1.6306 -0.5136
  339MOL0     O45631  11.101   4.990   3.495 -0.6759 -0.2172 -0.4070
  339MOL0     C45632  11.044   4.973   3.600 -0.3248 -0.7812 -0.6898
  339MOL0     O45633  11.109   4.930   3.718 -0.4915 -0.0068 -0.2682
  339MOL0     C45634  11.239   4.940   3.729  0.2156 -0.2290 -1.7031
  339MOL0     C45635  11.317   4.837   3.680  0.4508  0.4420 -0.1658
  339MOL0     C45636  11.453   4.841   3.697 -0.6203  0.0630 -0.4818
  339MOL0     C45637  11.518   4.944   3.769 -0.5754 -0.5859  0.0513
  339MOL0     O45638  11.662   4.945   3.771  0.0506 -0.3197 -0.4297
  339MOL0     C45639  11.725   5.059   3.831 -0.1358  0.0890  0.3039
  339MOL0     C45640  11.876   5.061   3.817 -0.1020  0.1253  0.2045
  339MOL0     C45641  11.910   5.067   3.664  0.0789 -0.8737 -0.4584
  339MOL0     C45642  12.057   5.045   3.647 -0.4600 -0.3272  0.2509
  339MOL0     C45643  12.105   5.058   3.502  0.1532  0.7562  0.2447
  339MOL0     C45644  12.261   5.056   3.505  0.4381  0.4274  0.4165
  339MOL0     C45645  12.321   5.062   3.361  0.2355 -0.9019 -0.1427
  339MOL0     C45646  12.469   5.020   3.355  0.0328 -0.1474 -0.3321
  339MOL0     N45647  12.502   5.049   3.220 -1.6725  0.5955 -0.6890
  339MOL0     C45648  12.469   4.967   3.116  0.3500  0.2440 -0.4813
  339MOL0     C45649  12.515   5.037   3.008 -0.4533 -0.0711  0.2953
  339MOL0     C45650  12.490   5.007   2.861 -0.7038  0.0308 -0.4990
  339MOL0     C45651  12.602   4.944   2.765  0.2252  0.2077 -0.3408
  339MOL0     C45652  12.727   5.037   2.737  0.0740  0.0841  0.5636
  339MOL0     C45653  12.707   5.188   2.701  0.1349 -0.2280  0.8716
  339MOL0     O45654  12.834   5.239   2.675  0.0697  0.2627  0.1770
  339MOL0     C45655  12.906   5.286   2.783 -0.1549 -0.1702 -0.0599
  339MOL0     C45656  13.041   5.299   2.771  0.3671  0.5292  0.4718
  339MOL0     C45657  13.116   5.341   2.883  0.3967  0.6879 -0.6888
  339MOL0     C45658  13.058   5.371   3.012 -0.2831  0.1976  0.5882
  339MOL0     C45659  13.138   5.421   3.123  0.7677 -0.6916  0.2062
  339MOL0     O45660  13.262   5.485   3.095 -0.1329  1.0968 -0.1369
  339MOL0     C45661  13.320   5.572   3.183 -0.4126 -0.3821  0.2438
  339MOL0     C45662  13.461   5.585   3.176 -0.0782  0.3307  0.9445
  339MOL0     C45663  13.528   5.683   3.258  0.2070 -0.3282  1.1201
  339MOL0     C45664  13.452   5.752   3.350 -0.3928  0.5678  0.1058
  339MOL0     O45665  13.502   5.839   3.442  0.4396 -0.2979 -0.1657
  339MOL0     C45666  13.640   5.849   3.471 -1.0377 -0.2388 -0.2679
  339MOL0     C45667  13.646   5.934   3.603 -0.1944 -0.0068 -0.0117
  339MOL0     C45668  13.780   5.969   3.661 -0.5532 -0.3555 -0.1040
  339MOL0     C45669  13.886   6.030   3.558  0.9337  0.2115  0.6633
  339MOL0     C45670  14.023   6.015   3.617 -0.0781 -0.2785 -0.5498
  339MOL0     C45671  14.087   5.872   3.615 -0.4133 -0.4322  0.3381
  339MOL0     C45672  14.230   5.863   3.668  0.3246  0.1146  0.1303
  339MOL0     C45673  14.284   5.729   3.612 -0.1306 -1.0262  0.1294
  339MOL0    Cl45674  14.354   5.753   3.452 -0.1824  0.1135 -0.0772
  339MOL0     C45675  13.313   5.737   3.355  0.5617  0.9083 -0.4598
  339MOL0     C45676  13.248   5.648   3.270  0.3590 -0.7203  0.0844
  339MOL0     O45677  13.084   5.412   3.233  0.0121 -0.2903 -0.4116
  339MOL0     C45678  12.914   5.364   3.013 -0.1724  0.9662  0.0566
  339MOL0     C45679  12.842   5.324   2.905  0.6133  1.0684  1.0678
  339MOL0     N45680  12.567   5.162   3.051  0.1981 -0.0009 -0.9396
  339MOL0     N45681  12.556   5.163   3.180 -1.0194  0.3881  0.6215
  339MOL0     C45682  11.434   5.048   3.822 -0.8310  0.0849  0.2322
  339MOL0     C45683  11.302   5.051   3.795 -0.2425 -0.2538  0.0165
  339MOL0     C45684  10.891   4.991   3.608 -0.3682 -1.0758  0.1610
  339MOL0     C45685  10.835   4.965   3.733 -0.0856 -0.6941  0.5223
  339MOL0     C45686  10.705   4.984   3.753  0.4009 -0.1697  0.3525
  339MOL0     C45687  10.621   5.030   3.654  0.4278  0.1259 -0.5357
  339MOL0     O45688  10.492   5.056   3.696  0.2375  0.1436 -0.2573
  339MOL0     C45689  10.391   5.132   3.627  1.0513  0.6528 -0.2159
  339MOL0     C45690  10.412   5.285   3.614  0.2858  0.8025 -0.7480
  339MOL0     C45691  10.332   5.351   3.501  1.2478  0.2429 -0.6209
  339MOL0     C45692  10.350   5.496   3.502  0.4983 -0.1259  0.2028
  339MOL0     C45693  10.276   5.548   3.615 -0.3304 -1.0297  0.4557
  339MOL0     C45694  10.215   5.587   3.708 -0.1152  0.1897  0.1105
  339MOL0     C45695  10.668   5.060   3.528 -0.4594 -0.6303  0.8471
  339MOL0     C45696  10.806   5.043   3.501 -0.2633  0.7848 -0.2784
  339MOL0     C45697  10.854   5.073   3.356 -0.1480  0.6176  0.2479
  339MOL0     H45698  11.258   4.755   3.639 -0.8640  1.3511 -0.1230
  339MOL0     H45699  11.512   4.758   3.659 -3.4069 -0.5545 -3.9550
  339MOL0     H45700  11.693   5.148   3.775  1.2853 -0.7347 -1.9752
  339MOL0     H45701  11.688   5.061   3.933 -1.9196  2.8397 -0.2938
  339MOL0     H45702  11.926   4.972   3.857  1.3804 -0.0235 -1.8073
  339MOL0     H45703  11.922   5.141   3.874 -0.0121 -1.1805  2.0605
  339MOL0     H45704  11.881   5.166   3.629 -0.6748  0.4110  3.2838
  339MOL0     H45705  11.861   4.987   3.608 -0.5874  1.8883 -4.2165
  339MOL0     H45706  12.109   5.127   3.696  1.3604  0.4174 -2.6757
  339MOL0     H45707  12.086   4.949   3.692 -2.3336 -0.0145  2.3095
  339MOL0     H45708  12.069   4.973   3.443 -0.6420  0.6150  0.9253
  339MOL0     H45709  12.064   5.154   3.469 -1.2934  0.6980  1.7581
  339MOL0     H45710  12.292   5.142   3.564 -0.9014  1.2590 -0.0721
  339MOL0     H45711  12.294   4.965   3.557 -1.8297 -0.6996  0.0268
  339MOL0     H45712  12.303   5.160   3.316  1.9347  1.3072  3.5413
  339MOL0     H45713  12.257   4.996   3.302 -2.8253  1.6303  0.1016
  339MOL0     H45714  12.528   5.085   3.421 -0.2154 -0.7848  0.5385
  339MOL0     H45715  12.477   4.916   3.386  1.4366 -0.2441 -0.9448
  339MOL0     H45716  12.410   4.875   3.116 -1.3870  1.2098  2.5908
  339MOL0     H45717  12.414   4.928   2.864 -2.0950  1.3681  1.3776
  339MOL0     H45718  12.445   5.095   2.815  2.4904  1.2107 -1.6574
  339MOL0     H45719  12.635   4.843   2.793  2.2229  1.0825  0.6433
  339MOL0     H45720  12.560   4.918   2.668 -1.0272  3.5190 -0.8215
  339MOL0     H45721  12.789   4.995   2.657 -0.1181 -1.2418  1.0782
  339MOL0     H45722  12.780   5.037   2.832 -0.9861 -0.9091  1.1817
  339MOL0     H45723  12.645   5.251   2.766 -0.5710  2.2320 -1.9254
  339MOL0     H45724  12.654   5.195   2.606  0.7029  2.5465  0.6733
  339MOL0     H45725  13.092   5.262   2.682  2.8908 -0.9018  2.3517
  339MOL0     H45726  13.224   5.351   2.871  0.8299 -2.0709  0.0366
  339MOL0     H45727  13.498   5.525   3.093 -2.1530 -2.1266  1.6327
  339MOL0     H45728  13.634   5.703   3.249 -0.0768  0.4825 -0.7910
  339MOL0     H45729  13.686   5.751   3.482 -0.0585  0.3624  1.4372
  339MOL0     H45730  13.689   5.895   3.385 -1.4883  0.0824 -0.3540
  339MOL0     H45731  13.603   6.034   3.590 -0.0805  0.1849  0.9770
  339MOL0     H45732  13.589   5.885   3.683 -0.6524 -1.5307 -1.2232
  339MOL0     H45733  13.764   6.052   3.730  1.3532  0.0001 -0.0332
  339MOL0     H45734  13.817   5.877   3.709  0.3488 -0.2342 -0.5351
  339MOL0     H45735  13.851   6.133   3.551 -0.2747 -0.2220  0.1427
  339MOL0     H45736  13.884   5.981   3.460 -1.4508  1.8043 -0.1813
  339MOL0     H45737  14.036   6.057   3.717 -3.7206  0.7990 -0.4273
  339MOL0     H45738  14.076   6.074   3.541 -0.5842  0.4966 -0.2962
  339MOL0     H45739  14.022   5.800   3.666  0.5765 -0.9697  0.8799
  339MOL0     H45740  14.082   5.851   3.508  2.1467  1.9770 -0.3737
  339MOL0     H45741  14.220   5.858   3.777  3.4024 -0.7173  0.4593
  339MOL0     H45742  14.289   5.950   3.638  3.3223 -1.7814  0.0901
  339MOL0     H45743  14.372   5.696   3.668  0.8240 -2.9495 -2.3004
  339MOL0     H45744  14.203   5.656   3.610  1.0068 -2.3403  0.7719
  339MOL0     H45745  13.260   5.788   3.435 -0.4457  0.5957 -0.9135
  339MOL0     H45746  13.140   5.645   3.282  0.2816 -0.7706 -0.5994
  339MOL0     H45747  12.859   5.402   3.099 -0.6187  3.2884 -1.1696
  339MOL0     H45748  12.734   5.325   2.921  0.4554 -1.3389  0.5416
  339MOL0     H45749  11.476   5.132   3.876  0.7917 -0.5347 -0.0086
  339MOL0     H45750  11.237   5.130   3.834 -0.3178 -1.4095  2.4136
  339MOL0     H45751  10.899   4.918   3.807 -0.0271 -1.7298 -0.1703
  339MOL0     H45752  10.666   4.964   3.852 -1.4394  0.7642 -0.1410
  339MOL0     H45753  10.295   5.124   3.677  0.3418  3.5925 -0.9086
  339MOL0     H45754  10.372   5.085   3.529  1.2112  0.8850 -0.3584
  339MOL0     H45755  10.518   5.308   3.601  0.0534  3.8054  1.7009
  339MOL0     H45756  10.381   5.315   3.714  0.8188  1.2688 -0.7213
  339MOL0     H45757  10.226   5.326   3.494  0.0677  4.2142  0.5544
  339MOL0     H45758  10.381   5.321   3.408  1.6865  3.9858 -1.7424
  339MOL0     H45759  10.451   5.538   3.496  0.3855  0.0033 -0.9269
  339MOL0     H45760  10.308   5.530   3.407  0.4629  1.4188  0.7515
  339MOL0     H45761  10.157   5.625   3.789 -1.2416  0.4347 -0.7802
  339MOL0     H45762  10.597   5.086   3.450 -0.9202  0.0894  1.4931
  339MOL0     H45763  10.939   5.141   3.365  0.6414 -0.3336  0.1173
  339MOL0     H45764  10.877   4.980   3.303 -0.3586 -1.5747  3.6468
  339MOL0     H45765  10.780   5.120   3.291 -1.3680 -1.9112 -0.3332
  340MOL0     O45766   5.953   2.523   1.354  0.4412 -0.3221  0.4300
  340MOL0     C45767   5.884   2.434   1.406 -0.1572 -0.1178  0.1799
  340MOL0     O45768   5.883   2.308   1.365 -0.3490 -0.5015  0.4719
  340MOL0     C45769   5.992   2.252   1.310  0.7004 -0.9916 -0.6674
  340MOL0     C45770   5.967   2.128   1.251  0.1720  0.4738 -0.2294
  340MOL0     C45771   6.071   2.060   1.187 -0.2631 -0.4711  0.4177
  340MOL0     C45772   6.199   2.117   1.175  0.3100 -0.0794  0.3696
  340MOL0     O45773   6.291   2.038   1.114  0.1925  0.1242  0.2302
  340MOL0     C45774   6.421   2.033   1.165 -0.5277  0.2961 -0.2807
  340MOL0     C45775   6.427   1.906   1.249  0.8994 -0.2427  0.0141
  340MOL0     C45776   6.547   1.911   1.331 -0.2448 -0.6545 -0.1383
  340MOL0     C45777   6.540   1.981   1.464  0.2434  0.4957 -0.5939
  340MOL0     C45778   6.666   1.961   1.551  0.7321 -0.3012 -0.2572
  340MOL0     C45779   6.780   2.052   1.522  0.9634  0.2580 -0.7648
  340MOL0     C45780   6.920   2.003   1.542  0.2678  0.2811 -0.5850
  340MOL0     C45781   6.930   1.934   1.679 -1.0240  0.1667 -0.8909
  340MOL0     N45782   7.070   1.892   1.703  0.1881 -0.1443  0.0034
  340MOL0     C45783   7.131   1.776   1.656  0.4967 -0.3798  0.1088
  340MOL0     C45784   7.258   1.799   1.684 -0.0712 -0.1655 -0.2160
  340MOL0     C45785   7.375   1.716   1.641  0.3455  0.9107 -0.3389
  340MOL0     C45786   7.343   1.579   1.580 -0.8720 -0.8204 -0.5692
  340MOL0     C45787   7.472   1.491   1.572 -0.1890  0.5764 -0.0984
  340MOL0     C45788   7.591   1.556   1.497  0.4230  0.4348 -0.4315
  340MOL0     O45789   7.708   1.481   1.515 -0.3163  0.2110 -0.2618
  340MOL0     C45790   7.827   1.541   1.472 -0.8350  0.4759  0.1026
  340MOL0     C45791   7.851   1.671   1.420  0.4119 -0.3221 -1.2008
  340MOL0     C45792   7.975   1.710   1.383 -0.1506  1.2396 -0.6840
  340MOL0     C45793   8.082   1.621   1.385  0.2849 -0.2527  0.5136
  340MOL0     C45794   8.217   1.665   1.341  0.1977 -0.5984  0.7311
  340MOL0     O45795   8.314   1.573   1.363 -0.2269  0.2413 -0.3698
  340MOL0     C45796   8.435   1.608   1.295 -0.1999  0.4027  0.8014
  340MOL0     C45797   8.501   1.520   1.204  1.0326 -0.6032 -0.1747
  340MOL0     C45798   8.623   1.555   1.147  0.0872  0.0606 -0.6518
  340MOL0     C45799   8.691   1.673   1.180  0.1591 -0.2423 -0.5901
  340MOL0     O45800   8.801   1.722   1.117  0.0542 -0.8853  0.3962
  340MOL0     C45801   8.834   1.660   0.992 -0.4868 -0.2370 -0.3532
  340MOL0     C45802   8.946   1.737   0.922 -0.6081 -0.1912  0.2893
  340MOL0     C45803   9.081   1.690   0.981  0.0670 -0.2600 -0.0940
  340MOL0     C45804   9.171   1.805   1.019 -0.4703  0.7069 -0.4266
  340MOL0     C45805   9.310   1.768   1.080  0.2293 -0.7252  0.2339
  340MOL0     C45806   9.379   1.892   1.118  0.3799  0.2943  0.3874
  340MOL0     C45807   9.526   1.871   1.149  0.1840 -0.5831 -0.1680
  340MOL0     C45808   9.617   1.917   1.033  0.4585  0.3424 -0.0824
  340MOL0    Cl45809   9.679   2.081   1.055 -0.4844 -0.0430 -0.1145
  340MOL0     C45810   8.632   1.754   1.276  0.2881  0.1193  0.1093
  340MOL0     C45811   8.509   1.723   1.333 -0.8584  0.6072  0.4088
  340MOL0     O45812   8.233   1.781   1.282  1.1582 -0.2035  0.5406
  340MOL0     C45813   8.050   1.490   1.421 -0.3324  0.0856 -1.5288
  340MOL0     C45814   7.927   1.445   1.473 -0.2883 -0.2060  0.7748
  340MOL0     N45815   7.267   1.911   1.765  0.3891 -0.3601 -0.7653
  340MOL0     N45816   7.155   1.955   1.789  0.4850 -0.1861  0.1703
  340MOL0     C45817   6.222   2.241   1.243 -0.0007 -1.0595 -0.7364
  340MOL0     C45818   6.125   2.303   1.319  0.1108  0.2314 -0.6650
  340MOL0     C45819   5.775   2.455   1.507  0.0903 -0.5840  0.3957
  340MOL0     C45820   5.663   2.374   1.488 -0.0007 -0.3884 -0.1161
  340MOL0     C45821   5.553   2.392   1.567  0.7069 -0.3099  0.1824
  340MOL0     C45822   5.541   2.489   1.668  0.3375 -0.2680  0.3521
  340MOL0     O45823   5.439   2.514   1.752  0.0349 -0.5182  0.3476
  340MOL0     C45824   5.328   2.425   1.759  0.3739 -0.4335  0.5538
  340MOL0     C45825   5.228   2.487   1.865  0.4887 -0.6718  0.3291
  340MOL0     C45826   5.109   2.401   1.926  0.4764  0.0162  0.8161
  340MOL0     C45827   5.003   2.481   2.008 -0.6485 -0.8399  0.2629
  340MOL0     C45828   4.912   2.391   2.077 -0.5309 -0.4264 -0.0633
  340MOL0     C45829   4.833   2.310   2.121 -0.4522  0.1890 -0.3622
  340MOL0     C45830   5.648   2.571   1.683 -0.5803 -0.5868  0.2421
  340MOL0     C45831   5.761   2.562   1.599  0.4800  0.1028 -0.6505
  340MOL0     C45832   5.852   2.687   1.602  0.1188 -0.7150  0.0756
  340MOL0     H45833   5.868   2.085   1.250 -0.2135  1.2880  0.9785
  340MOL0     H45834   6.057   1.957   1.155 -2.2831 -1.2348  3.3904
  340MOL0     H45835   6.494   2.013   1.086 -0.9554 -2.2276 -0.1080
  340MOL0     H45836   6.453   2.127   1.211  0.6938  0.4217 -1.3416
  340MOL0     H45837   6.428   1.815   1.189  0.6676  0.9124 -1.8082
  340MOL0     H45838   6.341   1.895   1.316  0.3923  1.5233 -0.2993
  340MOL0     H45839   6.631   1.960   1.281  1.3740 -0.7913  2.2629
  340MOL0     H45840   6.583   1.809   1.346  1.6503  0.3614  3.1260
  340MOL0     H45841   6.524   2.089   1.457  0.0433  0.5246  0.1856
  340MOL0     H45842   6.453   1.942   1.518 -0.0294 -0.4342 -1.6740
  340MOL0     H45843   6.639   1.960   1.657 -0.5405 -0.0084 -0.5634
  340MOL0     H45844   6.700   1.857   1.543  0.2947 -0.6567  1.8508
  340MOL0     H45845   6.766   2.094   1.422 -3.7866  0.2260 -0.3550
  340MOL0     H45846   6.777   2.136   1.593  0.2861  1.0986 -1.7581
  340MOL0     H45847   6.999   2.076   1.524  1.4393 -0.9582 -0.6956
  340MOL0     H45848   6.928   1.927   1.464 -2.6167 -1.9547  1.0765
  340MOL0     H45849   6.912   2.005   1.761 -0.1644  2.3463 -2.4949
  340MOL0     H45850   6.864   1.848   1.689  0.4555 -0.8051  1.3121
  340MOL0     H45851   7.084   1.692   1.607  3.7377 -3.0476  1.1609
  340MOL0     H45852   7.436   1.780   1.577 -0.0214  0.5416 -1.0809
  340MOL0     H45853   7.430   1.694   1.732 -2.6257  0.1177  1.4132
  340MOL0     H45854   7.265   1.534   1.643  0.6763 -1.2092  1.1541
  340MOL0     H45855   7.297   1.603   1.484 -1.9731 -1.5723 -0.2544
  340MOL0     H45856   7.458   1.399   1.514 -0.0899 -0.8955  2.0965
  340MOL0     H45857   7.487   1.453   1.674 -2.9013 -0.8559 -0.1239
  340MOL0     H45858   7.606   1.649   1.553 -0.9036 -1.6276  3.7174
  340MOL0     H45859   7.577   1.569   1.390  0.0735  1.9882 -0.2179
  340MOL0     H45860   7.765   1.736   1.424  0.9684  0.3894  1.7675
  340MOL0     H45861   7.986   1.806   1.334  0.5542  1.0782 -0.8549
  340MOL0     H45862   8.459   1.424   1.177 -0.5996 -0.5414  1.9231
  340MOL0     H45863   8.669   1.479   1.084  0.0138  1.0321 -1.9044
  340MOL0     H45864   8.874   1.561   1.012  1.4712  0.4717 -0.5204
  340MOL0     H45865   8.751   1.660   0.920 -0.5656 -1.2241 -0.2757
  340MOL0     H45866   8.939   1.704   0.818 -0.2624  1.9248 -0.4589
  340MOL0     H45867   8.918   1.841   0.942 -1.6160 -0.3161 -0.3636
  340MOL0     H45868   9.066   1.627   1.070 -1.8088 -2.1939 -1.6563
  340MOL0     H45869   9.131   1.616   0.917  0.2353 -0.1252 -0.1185
  340MOL0     H45870   9.106   1.865   1.084 -1.3621 -1.3672  0.7283
  340MOL0     H45871   9.184   1.862   0.927  2.3704 -1.0512 -1.2226
  340MOL0     H45872   9.364   1.714   1.001  2.0370  0.3335  0.6981
  340MOL0     H45873   9.294   1.696   1.161  0.4224 -1.1893 -0.1340
  340MOL0     H45874   9.371   1.975   1.048 -2.4144 -0.4461 -0.2813
  340MOL0     H45875   9.319   1.931   1.200  0.8178  0.6096  0.5617
  340MOL0     H45876   9.544   1.766   1.173  0.5119 -0.1636  1.5497
  340MOL0     H45877   9.551   1.931   1.237 -1.2729  1.1307 -0.8437
  340MOL0     H45878   9.696   1.843   1.018 -1.4185 -1.8370  0.1753
  340MOL0     H45879   9.557   1.934   0.943  0.9083 -0.4638 -0.5484
  340MOL0     H45880   8.674   1.845   1.318  0.3718 -0.6171  1.6985
  340MOL0     H45881   8.470   1.785   1.413 -2.4953 -0.8519  0.8108
  340MOL0     H45882   8.128   1.414   1.425 -0.0460  0.4286  0.2020
  340MOL0     H45883   7.916   1.339   1.495  2.2971 -1.7207 -3.8474
  340MOL0     H45884   6.315   2.293   1.221  0.5939 -2.8160 -2.6254
  340MOL0     H45885   6.141   2.395   1.375 -1.1089  1.3346 -2.0397
  340MOL0     H45886   5.658   2.300   1.409  2.6754  0.1677 -0.8999
  340MOL0     H45887   5.461   2.336   1.553 -0.1022  0.5705  1.7805
  340MOL0     H45888   5.355   2.323   1.788  0.9313 -0.8148 -1.2304
  340MOL0     H45889   5.277   2.412   1.664  0.1766  2.4318  0.1746
  340MOL0     H45890   5.196   2.577   1.811  0.4001 -0.2740  1.0276
  340MOL0     H45891   5.285   2.514   1.955  0.3070  0.3932  0.1400
  340MOL0     H45892   5.138   2.316   1.988  1.6225 -0.1825  0.0336
  340MOL0     H45893   5.051   2.362   1.842  1.2085  2.7824 -1.0958
  340MOL0     H45894   5.056   2.546   2.078 -0.7459  0.9034 -1.1762
  340MOL0     H45895   4.938   2.547   1.950 -0.0443 -0.5744 -0.1329
  340MOL0     H45896   4.760   2.236   2.146 -1.1264  1.5876  2.2639
  340MOL0     H45897   5.639   2.654   1.752 -1.0107 -0.9184  0.5920
  340MOL0     H45898   5.882   2.708   1.499 -0.0542 -1.7730 -0.1985
  340MOL0     H45899   5.796   2.772   1.642  0.8543 -0.1806 -0.0218
  340MOL0     H45900   5.943   2.668   1.659  1.0294  2.5466 -0.0826
  341MOL0     O45901   0.177  10.624   7.937  0.3446 -0.7332  0.3175
  341MOL0     C45902   0.174  10.508   7.904  0.2312 -0.0001  0.2477
  341MOL0     O45903   0.278  10.423   7.876  0.8474 -0.9023  0.1713
  341MOL0     C45904   0.402  10.456   7.918 -0.4710  0.0951 -0.4285
  341MOL0     C45905   0.475  10.347   7.973 -1.0818 -0.9711 -0.0459
  341MOL0     C45906   0.618  10.352   7.994 -0.0493 -0.2653 -0.1145
  341MOL0     C45907   0.686  10.478   7.966  0.5603 -0.0449 -0.2764
  341MOL0     O45908   0.817  10.480   7.988 -0.6938 -0.3730 -0.4199
  341MOL0     C45909   0.895  10.591   7.955  0.1313  0.2234  0.5884
  341MOL0     C45910   1.037  10.579   8.011  0.0510  0.4147  0.0708
  341MOL0     C45911   1.035  10.535   8.158 -0.3232  1.2565 -0.7910
  341MOL0     C45912   1.171  10.515   8.220  0.1882 -1.2828 -0.4644
  341MOL0     C45913   1.173  10.496   8.366  0.2122 -0.1841  0.3249
  341MOL0     C45914   1.307  10.426   8.402  0.2828 -0.1391  0.0237
  341MOL0     C45915   1.329  10.430   8.551 -0.9583 -0.0356  0.7120
  341MOL0     C45916   1.424  10.330   8.608  0.5372  0.4568  0.3076
  341MOL0     N45917   1.563  10.368   8.560  0.2826  0.2052  0.2160
  341MOL0     C45918   1.645  10.467   8.605 -0.1630 -0.2808 -0.2450
  341MOL0     C45919   1.764  10.456   8.539 -0.2441 -0.2263  0.0098
  341MOL0     C45920   1.881  10.546   8.561 -0.9796 -0.5374 -0.4241
  341MOL0     C45921   2.012  10.465   8.558 -0.8726 -0.2006 -0.1714
  341MOL0     C45922   2.070  10.436   8.423  0.3172  0.0301 -0.6393
  341MOL0     C45923   2.197  10.335   8.451  0.1281  0.1579 -0.0806
  341MOL0     O45924   2.295  10.419   8.496 -0.8250  0.5681  0.2232
  341MOL0     C45925   2.421  10.370   8.504  0.8689 -0.3470 -0.4367
  341MOL0     C45926   2.452  10.236   8.471 -0.2519 -0.6335  0.2544
  341MOL0     C45927   2.587  10.192   8.473  0.0068  0.0229  0.8625
  341MOL0     C45928   2.692  10.284   8.507  0.3950 -0.1427 -0.7256
  341MOL0     C45929   2.834  10.245   8.500  0.9633 -0.2573 -0.7294
  341MOL0     O45930   2.927  10.343   8.508  0.0247 -0.3574 -0.1383
  341MOL0     C45931   3.058  10.313   8.489  0.0820  0.0241 -0.2928
  341MOL0     C45932   3.135  10.414   8.430 -1.4082  0.2151 -0.3012
  341MOL0     C45933   3.272  10.405   8.440  0.1551 -0.2657 -0.1577
  341MOL0     C45934   3.334  10.290   8.483  0.0899 -0.0915  0.3970
  341MOL0     O45935   3.471  10.262   8.469 -0.6990  0.0505  0.3491
  341MOL0     C45936   3.529  10.328   8.349  0.4012  1.0189 -1.2862
  341MOL0     C45937   3.645  10.253   8.280 -0.0129 -0.7131 -0.9780
  341MOL0     C45938   3.774  10.240   8.371  0.2617  0.3690  0.0633
  341MOL0     C45939   3.898  10.175   8.289  1.3480  0.2190 -0.0569
  341MOL0     C45940   4.026  10.206   8.369 -0.7729  0.3733 -0.0734
  341MOL0     C45941   4.143  10.170   8.280  0.1554  0.2571 -0.6209
  341MOL0     C45942   4.266  10.155   8.366 -0.3057 -0.3393 -0.3288
  341MOL0     C45943   4.290  10.268   8.471 -0.2585  0.4046  0.1839
  341MOL0    Cl45944   4.457  10.281   8.515  0.2214  0.2086  0.3628
  341MOL0     C45945   3.252  10.182   8.539  0.2559 -1.0233  0.0748
  341MOL0     C45946   3.120  10.198   8.543  0.5106  0.3252 -0.4267
  341MOL0     O45947   2.853  10.125   8.474 -0.3005 -0.0090 -0.2842
  341MOL0     C45948   2.653  10.412   8.542  0.0796  0.2336  0.0504
  341MOL0     C45949   2.525  10.460   8.533  0.3705  0.3243  0.4788
  341MOL0     N45950   1.762  10.342   8.465  0.3194 -0.0117 -0.8354
  341MOL0     N45951   1.646  10.289   8.479 -1.4099  0.1052  0.3946
  341MOL0     C45952   0.612  10.591   7.917  0.3696  0.1824  0.2173
  341MOL0     C45953   0.469  10.573   7.891  0.0036 -0.5900 -0.4904
  341MOL0     C45954   0.049  10.457   7.865 -0.0968 -0.8936 -1.0556
  341MOL0     C45955  -0.040  10.440   7.963  0.3404  0.1562  0.0169
  341MOL0     C45956  -0.159  10.387   7.933 -0.4817  0.1466  0.0352
  341MOL0     C45957  -0.201  10.344   7.809 -0.2385 -0.4304 -0.4321
  341MOL0     O45958  -0.323  10.273   7.795  0.2430  0.3039 -0.0877
  341MOL0     C45959  -0.342  10.215   7.664  0.1978 -0.2377 -0.2754
  341MOL0     C45960  -0.473  10.141   7.661  0.0988  0.2658 -0.2270
  341MOL0     C45961  -0.486  10.022   7.759 -0.2274  0.7493  0.4515
  341MOL0     C45962  -0.593   9.926   7.721 -0.0340  0.5664  1.1068
  341MOL0     C45963  -0.724   9.970   7.757  0.1112  0.7656 -0.0881
  341MOL0     C45964  -0.846   9.981   7.788 -0.6382 -0.2475  0.8371
  341MOL0     C45965  -0.110  10.375   7.701  0.0373  0.5663  0.3606
  341MOL0     C45966   0.021  10.423   7.737  0.6915  0.6321  0.1457
  341MOL0     C45967   0.122  10.475   7.625  0.1466  0.4540 -0.4492
  341MOL0     H45968   0.429  10.250   7.989 -0.9029 -0.5703  3.7964
  341MOL0     H45969   0.678  10.268   8.028 -2.1110 -2.6843 -2.0479
  341MOL0     H45970   0.901  10.603   7.846 -0.5650 -0.3033  0.4767
  341MOL0     H45971   0.854  10.684   7.994 -2.2371 -0.6287  0.3299
  341MOL0     H45972   1.096  10.668   7.986  1.1727 -0.0183  1.0758
  341MOL0     H45973   1.088  10.495   7.961 -2.4390 -1.9481  1.2583
  341MOL0     H45974   0.983  10.442   8.182  0.6346  0.3355 -2.1733
  341MOL0     H45975   0.978  10.613   8.210  0.0300  1.9453 -1.4200
  341MOL0     H45976   1.221  10.432   8.169  1.2088 -2.7644  2.7092
  341MOL0     H45977   1.228  10.603   8.190 -1.2686 -0.2314 -0.2437
  341MOL0     H45978   1.164  10.588   8.424  0.3472  1.5786 -2.2767
  341MOL0     H45979   1.091  10.428   8.390 -1.1604  1.3067  0.0527
  341MOL0     H45980   1.310  10.325   8.359 -0.5303  0.1882 -0.8442
  341MOL0     H45981   1.390  10.487   8.367  0.9271 -0.6145  0.6805
  341MOL0     H45982   1.232  10.413   8.597 -1.1671  1.0309  0.6882
  341MOL0     H45983   1.368  10.529   8.572 -2.1589  0.7229 -0.4585
  341MOL0     H45984   1.412  10.340   8.716 -2.9527  3.3270 -0.1507
  341MOL0     H45985   1.400  10.227   8.577 -0.4701  0.9952 -0.8146
  341MOL0     H45986   1.621  10.539   8.682  2.5359 -0.1473  0.6026
  341MOL0     H45987   1.885  10.632   8.494 -0.5538  0.6863  1.1066
  341MOL0     H45988   1.879  10.591   8.661  0.9371  0.2500 -0.6986
  341MOL0     H45989   2.092  10.521   8.608 -1.8517  0.6549  0.4852
  341MOL0     H45990   2.005  10.369   8.609  0.9550  0.7238  1.9535
  341MOL0     H45991   2.094  10.535   8.383 -1.5948  1.2941  1.1237
  341MOL0     H45992   2.011  10.389   8.344  1.1167  2.9154 -3.1041
  341MOL0     H45993   2.221  10.292   8.353  0.0689 -0.0055 -0.0243
  341MOL0     H45994   2.177  10.251   8.519  0.7473  0.1178  0.0552
  341MOL0     H45995   2.375  10.161   8.460 -0.7643 -0.2871  1.3305
  341MOL0     H45996   2.601  10.089   8.443  0.1092  0.2794 -0.0050
  341MOL0     H45997   3.089  10.507   8.397 -1.6033 -0.5864 -2.4498
  341MOL0     H45998   3.346  10.481   8.418  0.5829  0.3596  3.0402
  341MOL0     H45999   3.456  10.351   8.271 -1.3789  0.1880  0.0288
  341MOL0     H46000   3.566  10.418   8.399 -0.2614 -0.6041  2.5317
  341MOL0     H46001   3.603  10.159   8.244  1.5477 -0.6119 -3.2883
  341MOL0     H46002   3.680  10.311   8.194  1.2640 -0.3335 -0.2283
  341MOL0     H46003   3.805  10.337   8.410 -2.4819  0.6329  1.9280
  341MOL0     H46004   3.747  10.176   8.456  2.9493 -0.6942  0.2027
  341MOL0     H46005   3.900  10.211   8.185  3.5758 -0.3151 -0.2717
  341MOL0     H46006   3.888  10.066   8.281  1.2221  0.2927 -1.1015
  341MOL0     H46007   4.028  10.158   8.467  1.4893  1.4808  0.5029
  341MOL0     H46008   4.032  10.311   8.401 -1.1533 -0.0130  1.3580
  341MOL0     H46009   4.116  10.071   8.243  0.0596 -1.0312  2.5843
  341MOL0     H46010   4.153  10.245   8.201 -1.2287  2.1365  0.8844
  341MOL0     H46011   4.353  10.152   8.300  1.3915 -0.5494  1.7953
  341MOL0     H46012   4.274  10.063   8.425  2.1359  0.2970  0.4202
  341MOL0     H46013   4.263  10.365   8.428  0.8990  0.2534 -0.9387
  341MOL0     H46014   4.225  10.262   8.559  1.5978 -0.7092  1.5453
  341MOL0     H46015   3.301  10.091   8.574  1.3547 -0.0774  1.1135
  341MOL0     H46016   3.062  10.117   8.587  2.0857  0.0086  1.1827
  341MOL0     H46017   2.722  10.492   8.566  1.0010  0.1172 -2.0863
  341MOL0     H46018   2.486  10.561   8.543 -1.0017  0.1737 -2.5145
  341MOL0     H46019   0.662  10.685   7.896  1.2124 -0.4438 -0.6653
  341MOL0     H46020   0.408  10.658   7.864  1.0325  0.0817 -0.7598
  341MOL0     H46021  -0.017  10.461   8.067 -1.8318 -0.3933  0.6608
  341MOL0     H46022  -0.233  10.383   8.013 -0.8284  1.0786 -0.2273
  341MOL0     H46023  -0.259  10.147   7.647 -0.0780 -1.8146  3.5786
  341MOL0     H46024  -0.345  10.296   7.590 -2.4861 -0.2246 -0.2693
  341MOL0     H46025  -0.490  10.098   7.562 -0.0216 -0.8282  0.2536
  341MOL0     H46026  -0.556  10.207   7.691  1.2945  0.9743  1.7494
  341MOL0     H46027  -0.505  10.057   7.861 -0.4523 -1.9062  1.3890
  341MOL0     H46028  -0.394   9.963   7.757  0.1053  1.2543  0.6845
  341MOL0     H46029  -0.582   9.898   7.615 -0.7904 -0.6197  1.3170
  341MOL0     H46030  -0.587   9.835   7.781  0.0804  0.3133  0.7187
  341MOL0     H46031  -0.951   9.984   7.807 -0.4472 -0.0433  1.9505
  341MOL0     H46032  -0.139  10.350   7.599 -1.0884  0.0951  0.7890
  341MOL0     H46033   0.146  10.579   7.649 -0.7658  0.0690  2.6416
  341MOL0     H46034   0.213  10.414   7.628 -0.0038  0.2553  0.9300
  341MOL0     H46035   0.076  10.471   7.526  1.6567 -0.2881 -1.1545
  342MOL0     O46036   3.550   4.099   4.067  0.0759  0.0981 -0.5252
  342MOL0     C46037   3.489   4.086   3.961  0.3656  0.2357 -0.0125
  342MOL0     O46038   3.549   4.108   3.838  0.0414 -0.7755 -0.0286
  342MOL0     C46039   3.687   4.125   3.812  0.3718  0.2516 -0.1639
  342MOL0     C46040   3.774   4.024   3.851 -0.0530  0.8745  0.0068
  342MOL0     C46041   3.908   4.018   3.814 -0.4474 -0.0860  0.9223
  342MOL0     C46042   3.970   4.121   3.738  0.1894 -0.2108 -0.4836
  342MOL0     O46043   4.103   4.113   3.720  0.2553 -0.5245  0.0527
  342MOL0     C46044   4.164   4.242   3.727 -0.1237  0.4076 -0.5578
  342MOL0     C46045   4.309   4.240   3.681  0.1518 -1.2866  0.2827
  342MOL0     C46046   4.398   4.155   3.766  0.5177 -0.1732 -0.5821
  342MOL0     C46047   4.542   4.184   3.727  0.4784  0.4545  0.4273
  342MOL0     C46048   4.638   4.119   3.832  0.0352  0.8455 -0.3705
  342MOL0     C46049   4.780   4.142   3.777 -0.0206 -0.5918 -0.1356
  342MOL0     C46050   4.895   4.090   3.862 -0.2161  0.0998 -0.3046
  342MOL0     C46051   5.012   4.077   3.772 -0.2559 -0.3855  0.5349
  342MOL0     N46052   5.138   4.052   3.848  0.3211 -0.8162 -0.9505
  342MOL0     C46053   5.200   4.142   3.927 -0.0147  0.0149  0.4125
  342MOL0     C46054   5.290   4.077   4.000  0.0296 -0.5972  0.6034
  342MOL0     C46055   5.390   4.138   4.093  0.2505  0.9693  0.0440
  342MOL0     C46056   5.469   4.252   4.018  0.9184  0.2024 -0.0109
  342MOL0     C46057   5.533   4.206   3.886 -0.0090  1.3224  0.9930
  342MOL0     C46058   5.673   4.256   3.846 -0.8033 -0.3677  0.2990
  342MOL0     O46059   5.781   4.231   3.939  0.0122  0.5826 -0.2671
  342MOL0     C46060   5.908   4.254   3.900 -0.5340  0.2125  0.4617
  342MOL0     C46061   5.960   4.297   3.777  0.0692  0.3273  0.3999
  342MOL0     C46062   6.101   4.300   3.753 -0.5404  0.1599 -0.2057
  342MOL0     C46063   6.190   4.254   3.855 -0.0842 -0.3661 -0.4404
  342MOL0     C46064   6.340   4.237   3.834 -0.4722  0.6515 -0.2499
  342MOL0     O46065   6.413   4.219   3.946  0.2200 -0.0172  0.3571
  342MOL0     C46066   6.548   4.206   3.957 -0.2885  0.7172  0.2645
  342MOL0     C46067   6.598   4.119   4.051  0.0515  0.8163 -0.2219
  342MOL0     C46068   6.739   4.110   4.076 -0.1204  0.0045  0.0722
  342MOL0     C46069   6.830   4.184   4.002 -0.3820 -0.5468 -0.1655
  342MOL0     O46070   6.969   4.184   4.002 -0.0929  0.1623 -0.7723
  342MOL0     C46071   7.031   4.073   4.070 -0.5093  0.3546  1.3194
  342MOL0     C46072   7.179   4.087   4.088  0.4147  0.2131  0.2214
  342MOL0     C46073   7.254   4.105   3.953 -0.4196  0.4840  0.1313
  342MOL0     C46074   7.391   4.145   3.984  0.0902  0.1599  0.0986
  342MOL0     C46075   7.466   4.168   3.856 -0.5723  0.2636 -0.5588
  342MOL0     C46076   7.597   4.239   3.890  0.8762  0.1063 -0.5593
  342MOL0     C46077   7.677   4.266   3.764 -0.0331  0.0452  0.2213
  342MOL0     C46078   7.815   4.331   3.804 -0.7246  0.3007  0.0991
  342MOL0    Cl46079   7.915   4.307   3.651 -0.2867  0.5224 -0.0807
  342MOL0     C46080   6.776   4.270   3.908  0.2514 -0.4482 -0.2930
  342MOL0     C46081   6.640   4.289   3.895  0.1922  0.2430  1.0610
  342MOL0     O46082   6.380   4.244   3.720  0.1242 -0.8294 -0.8251
  342MOL0     C46083   6.133   4.228   3.983 -1.0673  0.5029  0.2262
  342MOL0     C46084   5.995   4.218   4.001  0.2218  0.2622 -0.3614
  342MOL0     N46085   5.281   3.939   3.962  0.1053  0.2138  0.5992
  342MOL0     N46086   5.192   3.930   3.874  0.4001  0.0865  0.4166
  342MOL0     C46087   3.888   4.225   3.691  1.4306  0.0924  0.0669
  342MOL0     C46088   3.751   4.225   3.728  0.3628  0.8221 -0.8892
  342MOL0     C46089   3.338   4.061   3.956 -0.3790  0.4213 -0.6961
  342MOL0     C46090   3.269   4.044   3.829 -0.7076  0.6602  0.4414
  342MOL0     C46091   3.133   4.015   3.826  0.1572  0.5469 -0.4922
  342MOL0     C46092   3.070   3.977   3.942 -0.6996  0.2652 -0.1106
  342MOL0     O46093   2.946   3.914   3.946  0.1408  0.6503 -0.1358
  342MOL0     C46094   2.841   3.951   3.849 -1.1706 -0.3877  0.0601
  342MOL0     C46095   2.698   3.955   3.914 -0.3209 -0.7081  0.7309
  342MOL0     C46096   2.684   4.058   4.032  0.1676  0.1436 -0.5016
  342MOL0     C46097   2.578   4.170   4.008 -0.0419 -0.1553  0.4938
  342MOL0     C46098   2.631   4.285   3.923 -0.9398  0.4980  0.2344
  342MOL0     C46099   2.664   4.380   3.853 -0.7439  0.6525  0.5573
  342MOL0     C46100   3.126   3.993   4.063  0.6189 -0.2254 -0.4268
  342MOL0     C46101   3.259   4.040   4.074  0.2698  0.3055 -0.2551
  342MOL0     C46102   3.319   4.039   4.216 -0.2413 -0.3007  0.0706
  342MOL0     H46103   3.735   3.935   3.899 -0.9966  1.6548  0.7105
  342MOL0     H46104   3.974   3.936   3.843  1.9866  0.7437 -1.7254
  342MOL0     H46105   4.113   4.324   3.674 -4.8605 -2.2443 -0.6955
  342MOL0     H46106   4.155   4.262   3.834 -3.7817 -0.8888 -0.4825
  342MOL0     H46107   4.348   4.342   3.677  0.1536 -1.3015 -0.1294
  342MOL0     H46108   4.309   4.201   3.578 -0.0178  0.0167 -0.2276
  342MOL0     H46109   4.374   4.049   3.761  0.4285 -0.1986  0.2601
  342MOL0     H46110   4.393   4.181   3.872 -1.8451 -3.1734  0.1961
  342MOL0     H46111   4.565   4.140   3.629  3.5233 -0.0997  1.2721
  342MOL0     H46112   4.560   4.292   3.734 -0.1119  0.6213 -0.4445
  342MOL0     H46113   4.626   4.173   3.926 -0.0580 -0.4612  0.3896
  342MOL0     H46114   4.613   4.012   3.840 -0.8853  1.0318 -0.6093
  342MOL0     H46115   4.786   4.101   3.676 -1.4896  0.5334 -0.7241
  342MOL0     H46116   4.800   4.250   3.769  1.6365 -0.8174  0.6317
  342MOL0     H46117   4.859   3.994   3.901  1.0075  0.2184  1.2058
  342MOL0     H46118   4.922   4.154   3.946  0.2267 -2.2106  1.4252
  342MOL0     H46119   4.999   4.019   3.680 -1.0386 -0.5020  0.7141
  342MOL0     H46120   5.035   4.175   3.729 -1.6079 -0.6392 -0.8796
  342MOL0     H46121   5.182   4.249   3.937 -0.7521 -0.1237  0.6935
  342MOL0     H46122   5.346   4.195   4.175  0.3845 -2.0590  2.4103
  342MOL0     H46123   5.465   4.066   4.128  0.9954  2.0892  0.8337
  342MOL0     H46124   5.398   4.334   4.004 -0.4499 -0.8682  0.3542
  342MOL0     H46125   5.554   4.278   4.081  0.7563  1.5961 -0.3509
  342MOL0     H46126   5.459   4.220   3.807 -0.9201 -1.0511  1.3413
  342MOL0     H46127   5.538   4.097   3.887 -3.0271  0.8588 -3.7081
  342MOL0     H46128   5.658   4.364   3.851 -1.0194 -0.4064  0.4755
  342MOL0     H46129   5.692   4.224   3.743 -1.0869  0.5178 -0.0382
  342MOL0     H46130   5.885   4.309   3.701 -1.3712 -2.9011  1.1552
  342MOL0     H46131   6.147   4.315   3.656 -0.8986 -0.1740 -0.4300
  342MOL0     H46132   6.529   4.063   4.113  0.0872  0.7236 -0.2651
  342MOL0     H46133   6.762   4.037   4.152 -5.1202 -0.6193  1.3207
  342MOL0     H46134   6.985   4.074   4.168  0.2790  0.9541  1.6963
  342MOL0     H46135   7.003   3.982   4.015 -0.6339  1.5951 -0.7941
  342MOL0     H46136   7.192   4.177   4.149 -1.7243  0.6750  0.0655
  342MOL0     H46137   7.214   4.000   4.144 -3.7669 -1.4128  0.6535
  342MOL0     H46138   7.252   4.012   3.897 -2.6137  0.0719  0.7726
  342MOL0     H46139   7.209   4.184   3.891  0.1242  0.3071 -0.5040
  342MOL0     H46140   7.448   4.065   4.033  4.0534  2.7708  0.2137
  342MOL0     H46141   7.390   4.231   4.051  0.3071  0.8031 -0.7160
  342MOL0     H46142   7.407   4.216   3.778  2.2683 -0.1287 -3.1237
  342MOL0     H46143   7.489   4.067   3.821  1.9956  0.9425 -0.9940
  342MOL0     H46144   7.574   4.327   3.951  0.4055  0.3371 -1.0663
  342MOL0     H46145   7.662   4.173   3.948 -0.3674 -2.2367 -1.6851
  342MOL0     H46146   7.619   4.326   3.693 -0.5551 -1.6694 -0.8925
  342MOL0     H46147   7.693   4.170   3.714 -0.3253 -0.6347  1.4031
  342MOL0     H46148   7.794   4.435   3.829 -0.0056  0.3098  0.6827
  342MOL0     H46149   7.854   4.273   3.888 -1.0978  0.2915  0.2690
  342MOL0     H46150   6.839   4.341   3.855  1.5847 -0.3277  1.3535
  342MOL0     H46151   6.597   4.356   3.822 -0.7937 -0.7817  0.6718
  342MOL0     H46152   6.201   4.190   4.059 -1.8077 -2.1745 -0.3310
  342MOL0     H46153   5.956   4.193   4.099 -2.4782  0.1147 -1.3787
  342MOL0     H46154   3.925   4.282   3.607  2.6275 -0.5761  0.1166
  342MOL0     H46155   3.692   4.302   3.679 -4.1600 -3.0006 -2.2003
  342MOL0     H46156   3.333   4.060   3.743 -1.4523  0.0349 -0.2413
  342MOL0     H46157   3.079   3.989   3.735 -1.6156 -1.5971  1.0743
  342MOL0     H46158   2.828   3.887   3.762  1.8750  0.6735 -1.3076
  342MOL0     H46159   2.871   4.048   3.809 -2.9683 -0.0042 -0.4727
  342MOL0     H46160   2.686   3.854   3.956 -1.1303 -0.6695  0.5944
  342MOL0     H46161   2.624   3.964   3.835  0.4757 -2.4538 -0.2832
  342MOL0     H46162   2.781   4.102   4.058  0.0585 -1.2229  2.6424
  342MOL0     H46163   2.649   4.008   4.123  0.9446 -0.7796 -0.6896
  342MOL0     H46164   2.488   4.127   3.964  0.1535  1.2929 -1.4851
  342MOL0     H46165   2.549   4.212   4.105  1.0097 -3.1493  2.2404
  342MOL0     H46166   2.677   4.462   3.786 -0.3737 -1.8066 -2.5909
  342MOL0     H46167   3.070   3.961   4.150 -0.3086  1.0328 -0.5201
  342MOL0     H46168   3.376   4.131   4.235 -3.2593  1.9365 -0.9219
  342MOL0     H46169   3.235   4.044   4.285 -0.9468 -0.3126 -0.7693
  342MOL0     H46170   3.381   3.951   4.233  1.7150  0.7206 -1.3764
  343MOL0     O46171   5.048   4.016   2.131  0.4153 -0.5692 -0.0970
  343MOL0     C46172   5.141   4.091   2.109  0.4419 -0.5838  0.2916
  343MOL0     O46173   5.181   4.131   1.978 -0.0069  0.4003  0.1725
  343MOL0     C46174   5.146   4.059   1.867  0.3415  0.5181  0.4399
  343MOL0     C46175   5.119   3.923   1.863 -0.8271 -0.2020 -0.2083
  343MOL0     C46176   5.091   3.854   1.747 -0.1105  0.8000  0.9626
  343MOL0     C46177   5.076   3.925   1.625 -0.3574 -0.2785 -0.2541
  343MOL0     O46178   5.029   3.859   1.514 -0.1884 -0.2365 -0.1039
  343MOL0     C46179   5.035   3.921   1.383 -0.4215 -0.1571 -0.5168
  343MOL0     C46180   5.022   3.805   1.277 -1.0005  0.1644 -0.0380
  343MOL0     C46181   4.891   3.729   1.290 -0.2140 -0.1240  0.4843
  343MOL0     C46182   4.791   3.756   1.178  0.6236 -0.3143 -0.0457
  343MOL0     C46183   4.665   3.671   1.204 -0.0047 -0.0709 -0.0978
  343MOL0     C46184   4.555   3.707   1.101  0.3701 -0.0596  0.5457
  343MOL0     C46185   4.432   3.625   1.133  0.4202 -0.1247  0.3503
  343MOL0     C46186   4.321   3.660   1.037  0.3061  0.3749 -0.1207
  343MOL0     N46187   4.212   3.558   1.054 -0.2121 -0.6438  0.1288
  343MOL0     C46188   4.142   3.544   1.174 -0.2953 -1.1088 -0.1196
  343MOL0     C46189   4.043   3.455   1.146  0.1630  0.6774  0.7677
  343MOL0     C46190   3.921   3.414   1.218  0.3159  0.0277  0.3724
  343MOL0     C46191   3.957   3.366   1.355 -0.0256  0.0544 -0.4276
  343MOL0     C46192   3.850   3.264   1.412  0.2963  0.0716  0.7790
  343MOL0     C46193   3.710   3.323   1.399 -0.1683 -0.4478  0.1962
  343MOL0     O46194   3.622   3.255   1.498  0.6170  0.2290 -0.1191
  343MOL0     C46195   3.489   3.290   1.493 -0.2662  0.0099 -0.3858
  343MOL0     C46196   3.393   3.204   1.542  0.1002 -1.3646 -0.4174
  343MOL0     C46197   3.258   3.235   1.525  0.2269  0.6636  0.2728
  343MOL0     C46198   3.219   3.365   1.485  1.1298  0.0199 -0.1691
  343MOL0     C46199   3.072   3.390   1.473 -0.6528  0.1128  0.5903
  343MOL0     O46200   2.985   3.299   1.501 -0.3257 -0.1695 -0.5865
  343MOL0     C46201   2.855   3.331   1.485  0.0630  1.0718  0.0946
  343MOL0     C46202   2.790   3.448   1.528 -0.3934 -0.1095 -1.1508
  343MOL0     C46203   2.656   3.470   1.499  0.1192  0.1836 -0.4798
  343MOL0     C46204   2.578   3.361   1.462  0.7287  0.1931  0.3195
  343MOL0     O46205   2.443   3.382   1.449 -1.2185  0.4863 -0.0049
  343MOL0     C46206   2.362   3.266   1.443 -0.0968  0.0784 -0.3407
  343MOL0     C46207   2.218   3.317   1.451 -0.4715 -0.1260 -0.2122
  343MOL0     C46208   2.096   3.228   1.457  0.4773  0.1940 -0.1082
  343MOL0     C46209   2.109   3.121   1.566  0.0173 -0.6589  0.3978
  343MOL0     C46210   1.979   3.040   1.591  0.8762  0.3245  0.1390
  343MOL0     C46211   1.904   3.010   1.462 -0.7207  0.3130  0.0468
  343MOL0     C46212   1.782   2.926   1.481  0.4811  1.2696  0.3822
  343MOL0     C46213   1.811   2.778   1.500 -0.1642  0.9176 -0.7369
  343MOL0    Cl46214   1.664   2.705   1.577 -0.3782  0.3652  0.5775
  343MOL0     C46215   2.636   3.236   1.430 -0.6802 -0.6532  0.2255
  343MOL0     C46216   2.774   3.221   1.435  0.0151 -0.9052 -0.2510
  343MOL0     O46217   3.052   3.499   1.417 -0.3263 -0.4911 -0.7867
  343MOL0     C46218   3.315   3.451   1.438 -1.0203 -0.4756 -0.0542
  343MOL0     C46219   3.453   3.416   1.437 -0.1509  0.9802  0.2429
  343MOL0     N46220   4.054   3.417   1.011 -0.1468  0.3109  0.3296
  343MOL0     N46221   4.156   3.477   0.960 -0.4566 -0.4082  0.1663
  343MOL0     C46222   5.090   4.067   1.628  0.1364  0.7091  0.2620
  343MOL0     C46223   5.127   4.132   1.749  0.1935  0.1804  0.0673
  343MOL0     C46224   5.224   4.139   2.224  0.6572  0.0371  0.3617
  343MOL0     C46225   5.336   4.219   2.191 -0.6477  0.0357  0.2082
  343MOL0     C46226   5.426   4.259   2.287  0.2083 -0.1341 -0.3029
  343MOL0     C46227   5.421   4.199   2.410  0.0199 -1.6776  1.1869
  343MOL0     O46228   5.512   4.213   2.513  0.1911 -0.1073 -0.3257
  343MOL0     C46229   5.639   4.283   2.483  0.1267 -0.9753 -0.1107
  343MOL0     C46230   5.731   4.281   2.601 -0.1247  1.2654 -0.4898
  343MOL0     C46231   5.750   4.133   2.644  0.6281 -0.5002 -0.4082
  343MOL0     C46232   5.853   4.143   2.761  0.1533  0.1727  0.7221
  343MOL0     C46233   5.870   4.009   2.811  0.5271 -0.8386 -0.5828
  343MOL0     C46234   5.882   3.909   2.869  0.9705  0.3205  0.3162
  343MOL0     C46235   5.317   4.119   2.440  0.4686  0.0335 -0.4033
  343MOL0     C46236   5.210   4.088   2.361  0.0938 -0.4239 -0.1822
  343MOL0     C46237   5.106   3.993   2.421  0.0835 -0.1362 -0.3939
  343MOL0     H46238   5.125   3.869   1.956 -3.4648 -1.5417 -0.7455
  343MOL0     H46239   5.096   3.747   1.760  0.1902  0.7229  0.3102
  343MOL0     H46240   4.961   4.000   1.367 -2.5167 -2.1801 -1.5005
  343MOL0     H46241   5.131   3.973   1.372 -0.9523  0.8512 -0.5022
  343MOL0     H46242   5.107   3.739   1.295 -1.2039 -0.2890 -0.6785
  343MOL0     H46243   5.033   3.850   1.178 -1.6448  0.2412 -0.0811
  343MOL0     H46244   4.859   3.766   1.388  1.8206 -0.1144  1.1960
  343MOL0     H46245   4.906   3.621   1.301  3.6247  0.1031 -1.0725
  343MOL0     H46246   4.756   3.859   1.190  2.4715  0.0363  3.5939
  343MOL0     H46247   4.835   3.738   1.080  0.0222 -0.5913 -0.2697
  343MOL0     H46248   4.704   3.569   1.201  0.7205 -0.0018  2.9828
  343MOL0     H46249   4.633   3.680   1.308  0.2095 -0.9039  0.0463
  343MOL0     H46250   4.532   3.814   1.107 -1.7483 -0.5443  2.8470
  343MOL0     H46251   4.593   3.683   1.001  2.3755  2.2788  0.6394
  343MOL0     H46252   4.404   3.651   1.235  3.4069  0.7891  1.0224
  343MOL0     H46253   4.466   3.521   1.131 -1.9754 -0.9568 -1.5303
  343MOL0     H46254   4.286   3.760   1.064  2.6572  1.5180 -1.0684
  343MOL0     H46255   4.354   3.666   0.933 -2.8465  0.7235 -1.2077
  343MOL0     H46256   4.153   3.601   1.265 -1.2942 -0.6302 -0.2872
  343MOL0     H46257   3.846   3.494   1.225 -0.4722 -0.8261  3.4351
  343MOL0     H46258   3.879   3.328   1.165  0.6660 -0.2948  0.6122
  343MOL0     H46259   4.056   3.322   1.369  2.0149  4.1170 -0.7007
  343MOL0     H46260   3.949   3.454   1.420  2.7460 -0.5979  0.9622
  343MOL0     H46261   3.860   3.257   1.521  1.7463  0.0208  0.6634
  343MOL0     H46262   3.856   3.168   1.361 -1.9117  1.8249 -3.2186
  343MOL0     H46263   3.673   3.320   1.296  2.5097 -1.9927 -0.8247
  343MOL0     H46264   3.718   3.430   1.419  2.4672 -0.8296  1.5659
  343MOL0     H46265   3.411   3.108   1.590  0.3265 -0.0590  2.2760
  343MOL0     H46266   3.186   3.158   1.551 -0.4132  1.2337  0.2293
  343MOL0     H46267   2.845   3.516   1.592 -1.3051 -0.5767  0.1765
  343MOL0     H46268   2.606   3.562   1.528  1.5187  0.7755  0.1376
  343MOL0     H46269   2.370   3.208   1.351 -0.2025 -1.0014  0.3179
  343MOL0     H46270   2.365   3.195   1.526  1.6553 -0.3458 -0.7234
  343MOL0     H46271   2.214   3.381   1.540 -2.3158 -0.6421  0.1286
  343MOL0     H46272   2.203   3.380   1.364  1.1291  0.6216  0.0313
  343MOL0     H46273   2.014   3.297   1.483 -0.4075 -0.5293 -0.9303
  343MOL0     H46274   2.074   3.181   1.362 -0.4907 -1.3567  0.8413
  343MOL0     H46275   2.146   3.167   1.658  2.6351  0.2808 -0.9868
  343MOL0     H46276   2.190   3.056   1.530 -1.4426 -1.3520 -1.8316
  343MOL0     H46277   1.914   3.091   1.664  1.1095  0.3252  0.3496
  343MOL0     H46278   2.001   2.943   1.636 -1.6622  0.1651  1.2471
  343MOL0     H46279   1.878   3.105   1.414 -0.0719  0.5239  0.1038
  343MOL0     H46280   1.973   2.960   1.394  1.0492  2.9282 -0.2524
  343MOL0     H46281   1.713   2.930   1.397  0.6328  1.9830  0.2836
  343MOL0     H46282   1.726   2.953   1.571 -0.1757 -1.3651  0.8494
  343MOL0     H46283   1.833   2.731   1.404  0.9783 -0.5637  0.2085
  343MOL0     H46284   1.901   2.767   1.561  2.2271 -1.8652 -4.2978
  343MOL0     H46285   2.573   3.153   1.398 -0.1286 -0.8042 -0.4895
  343MOL0     H46286   2.836   3.137   1.403  0.8697 -0.2913 -0.2532
  343MOL0     H46287   3.285   3.549   1.404 -1.9683 -1.0861 -1.0413
  343MOL0     H46288   3.536   3.476   1.402 -0.5225  0.0057 -2.5731
  343MOL0     H46289   5.067   4.133   1.545  0.2341 -0.0305 -0.3572
  343MOL0     H46290   5.132   4.240   1.744  0.9593  0.1118 -3.2462
  343MOL0     H46291   5.348   4.255   2.089 -1.2347  0.0052  0.1227
  343MOL0     H46292   5.501   4.329   2.250  1.0164 -2.0437 -2.4894
  343MOL0     H46293   5.629   4.390   2.460  0.0542 -1.1753 -1.0574
  343MOL0     H46294   5.686   4.232   2.398 -0.7387  0.1118 -1.2827
  343MOL0     H46295   5.688   4.331   2.689  1.2278 -1.7724  2.1042
  343MOL0     H46296   5.831   4.316   2.574  1.5946 -1.2573  2.0503
  343MOL0     H46297   5.789   4.072   2.562  1.3108 -2.2095  1.1160
  343MOL0     H46298   5.655   4.092   2.679  0.1132  1.0577  0.0819
  343MOL0     H46299   5.952   4.176   2.726  1.2358 -1.5929  1.9544
  343MOL0     H46300   5.816   4.206   2.842  1.9212  1.5977  0.4840
  343MOL0     H46301   5.894   3.815   2.918 -1.6298  0.2947  1.0050
  343MOL0     H46302   5.322   4.066   2.535 -3.4096  0.6816  0.3281
  343MOL0     H46303   5.125   3.892   2.385  0.4165  0.2552 -1.3550
  343MOL0     H46304   5.113   3.992   2.530 -0.1862  3.1943 -0.2352
  343MOL0     H46305   5.007   4.023   2.385  1.5200  0.7115 -4.0446
  344MOL0     O46306   6.504   4.294   6.908 -0.3665 -0.5422  0.4565
  344MOL0     C46307   6.440   4.212   6.968 -0.3322 -0.2252  0.6016
  344MOL0     O46308   6.494   4.122   7.050 -0.8049  0.1970 -0.6733
  344MOL0     C46309   6.621   4.142   7.087 -0.6185  0.2581  0.4494
  344MOL0     C46310   6.652   4.262   7.158 -0.4883 -0.7849  0.1137
  344MOL0     C46311   6.791   4.287   7.196 -0.3128  0.4718  0.5485
  344MOL0     C46312   6.889   4.193   7.177  0.5557  0.1063 -0.2211
  344MOL0     O46313   7.008   4.237   7.221 -0.2263  0.2575 -0.1678
  344MOL0     C46314   7.118   4.146   7.213 -0.0393 -0.3357  0.1161
  344MOL0     C46315   7.237   4.207   7.284  0.5932  0.4308 -0.8998
  344MOL0     C46316   7.356   4.118   7.269  0.3514  0.1524 -0.2231
  344MOL0     C46317   7.477   4.204   7.306 -0.8331  0.4434  0.3390
  344MOL0     C46318   7.609   4.110   7.320 -0.0156  0.5507  0.2277
  344MOL0     C46319   7.728   4.201   7.350 -0.9660  0.1992 -0.0234
  344MOL0     C46320   7.857   4.118   7.380 -1.1301  0.1613  0.3483
  344MOL0     C46321   7.985   4.203   7.343 -0.3168 -0.1931 -0.2124
  344MOL0     N46322   8.100   4.120   7.344  0.0407  0.3371 -0.7291
  344MOL0     C46323   8.139   4.016   7.253  0.5962  0.9668  0.0672
  344MOL0     C46324   8.265   3.983   7.288  0.3899  0.3796 -0.8592
  344MOL0     C46325   8.360   3.888   7.213  0.0372 -0.1123  0.0423
  344MOL0     C46326   8.377   3.931   7.059 -0.0419  0.0113  0.0838
  344MOL0     C46327   8.466   4.056   7.051 -0.3340 -0.0420 -0.0617
  344MOL0     C46328   8.609   4.051   7.106  0.7246 -0.4087 -0.1735
  344MOL0     O46329   8.673   4.174   7.060  0.3924  1.2009 -0.1617
  344MOL0     C46330   8.805   4.175   7.063 -0.4900  0.6748  0.5436
  344MOL0     C46331   8.879   4.136   7.174  0.2078  0.0018  0.2393
  344MOL0     C46332   9.018   4.158   7.182 -0.0179  0.8262  1.4063
  344MOL0     C46333   9.088   4.211   7.068  0.2990  0.7191  0.0399
  344MOL0     C46334   9.233   4.238   7.077  1.0799 -0.8287 -0.7718
  344MOL0     O46335   9.302   4.246   7.200  0.2291  0.1617  0.1720
  344MOL0     C46336   9.429   4.298   7.211 -0.4626 -0.3426 -0.2226
  344MOL0     C46337   9.541   4.212   7.224 -0.4549 -0.2652  0.3965
  344MOL0     C46338   9.670   4.266   7.239  0.4033 -0.1291  0.0890
  344MOL0     C46339   9.695   4.409   7.239  0.4220 -0.3854 -0.0652
  344MOL0     O46340   9.820   4.457   7.247 -0.2073 -0.7413  0.3403
  344MOL0     C46341   9.841   4.597   7.260 -0.0989 -0.5931 -0.1993
  344MOL0     C46342   9.992   4.617   7.249 -0.3337 -0.5287  0.1406
  344MOL0     C46343  10.057   4.759   7.223  0.2676 -0.2682  0.1276
  344MOL0     C46344  10.122   4.782   7.088 -0.3520  0.1410  0.3252
  344MOL0     C46345  10.253   4.854   7.108  0.7920 -0.6270 -0.7475
  344MOL0     C46346  10.238   4.998   7.178 -0.0406 -1.1446  0.1918
  344MOL0     C46347  10.374   5.067   7.166 -0.5914 -0.1587  0.1341
  344MOL0     C46348  10.482   5.018   7.260 -0.1637 -0.0946  0.0253
  344MOL0    Cl46349  10.603   5.147   7.277  0.0026 -0.1275  0.0209
  344MOL0     C46350   9.578   4.490   7.239 -0.3790  0.0488 -0.1711
  344MOL0     C46351   9.452   4.433   7.215 -0.1142 -0.1563  0.2219
  344MOL0     O46352   9.287   4.260   6.969  0.2449 -0.2808  0.9562
  344MOL0     C46353   9.015   4.245   6.957 -0.2830 -0.4128  0.2909
  344MOL0     C46354   8.873   4.237   6.959 -0.3814 -0.7822  0.5278
  344MOL0     N46355   8.300   4.055   7.406 -0.6621  0.1622  0.1653
  344MOL0     N46356   8.203   4.135   7.432  0.0273 -0.1370  0.1007
  344MOL0     C46357   6.864   4.083   7.104 -0.0289  0.7079 -0.5403
  344MOL0     C46358   6.728   4.053   7.068  0.2487  0.2068  1.1570
  344MOL0     C46359   6.285   4.217   6.947 -0.2607 -0.1538  0.1211
  344MOL0     C46360   6.222   4.337   6.908 -0.2479 -0.4814  0.2400
  344MOL0     C46361   6.084   4.338   6.887  0.1344 -0.0002 -0.5422
  344MOL0     C46362   6.004   4.229   6.904 -0.4567 -0.2293 -0.1221
  344MOL0     O46363   5.875   4.253   6.883 -0.0351 -0.2140 -0.3488
  344MOL0     C46364   5.806   4.137   6.837  0.0665  1.2256  0.3495
  344MOL0     C46365   5.678   4.164   6.752 -0.5295  0.5034  0.4997
  344MOL0     C46366   5.619   4.030   6.695 -0.3461  0.1493  0.0729
  344MOL0     C46367   5.473   4.053   6.637 -0.4133 -0.6193  0.1266
  344MOL0     C46368   5.479   4.131   6.515 -0.0623 -0.2121  0.0452
  344MOL0     C46369   5.487   4.195   6.413 -0.9510 -0.1764  0.0441
  344MOL0     C46370   6.068   4.110   6.962  0.6292 -0.7333  0.6953
  344MOL0     C46371   6.204   4.105   6.975  0.0340 -0.1188 -0.2584
  344MOL0     C46372   6.254   3.975   7.033  0.0291  0.1415 -0.0213
  344MOL0     H46373   6.572   4.329   7.186 -1.5475 -0.8182 -2.5578
  344MOL0     H46374   6.810   4.384   7.240 -0.1902  0.2948  0.8939
  344MOL0     H46375   7.098   4.054   7.268  1.7883  1.0378  3.3654
  344MOL0     H46376   7.142   4.126   7.108  4.1942  1.7548  0.4588
  344MOL0     H46377   7.210   4.238   7.385  0.3081  1.4280 -1.2624
  344MOL0     H46378   7.254   4.299   7.226 -0.9213  1.9919  0.9756
  344MOL0     H46379   7.371   4.068   7.173  2.6277 -2.1586  1.1861
  344MOL0     H46380   7.334   4.047   7.350  0.3851 -0.9828 -1.1879
  344MOL0     H46381   7.502   4.284   7.235  1.5868 -0.1877  0.3707
  344MOL0     H46382   7.448   4.256   7.397 -1.6474 -0.2731  0.4997
  344MOL0     H46383   7.612   4.020   7.382  1.3878 -0.2047 -0.9024
  344MOL0     H46384   7.634   4.063   7.225 -1.7275 -0.8194  0.4121
  344MOL0     H46385   7.741   4.260   7.258  1.1679  2.2397  1.4928
  344MOL0     H46386   7.710   4.269   7.434  0.9337  1.4914 -0.5930
  344MOL0     H46387   7.855   4.040   7.303 -1.4204  0.5309 -0.0240
  344MOL0     H46388   7.867   4.098   7.487 -0.0471  3.2279  0.9348
  344MOL0     H46389   7.983   4.241   7.240 -1.1161  0.3753 -0.0056
  344MOL0     H46390   7.996   4.283   7.417  0.5430 -0.9272  0.4504
  344MOL0     H46391   8.077   3.988   7.169 -1.1140  3.1018  0.5269
  344MOL0     H46392   8.459   3.880   7.257  0.1187 -0.2935 -0.1672
  344MOL0     H46393   8.305   3.793   7.218  0.0123 -0.1293 -0.4219
  344MOL0     H46394   8.419   3.845   7.006 -2.3119 -0.5353 -0.9405
  344MOL0     H46395   8.278   3.952   7.018 -0.4371  0.7553  1.3617
  344MOL0     H46396   8.411   4.125   7.115  1.0978  1.3777 -0.3182
  344MOL0     H46397   8.469   4.093   6.948 -0.5926 -1.7485 -0.7280
  344MOL0     H46398   8.660   3.961   7.070  0.2479  0.9896 -4.9198
  344MOL0     H46399   8.596   4.055   7.215 -0.4358  1.0222 -0.3352
  344MOL0     H46400   8.830   4.099   7.264  0.9869  0.2367  0.7704
  344MOL0     H46401   9.067   4.137   7.276  0.9954 -0.1761  0.6902
  344MOL0     H46402   9.531   4.104   7.226 -0.8614 -0.2271  2.3310
  344MOL0     H46403   9.750   4.194   7.260  1.0489  0.2567 -0.9595
  344MOL0     H46404   9.788   4.653   7.183 -1.7050  1.0048  1.9544
  344MOL0     H46405   9.795   4.629   7.354  0.0999  1.2602 -0.6830
  344MOL0     H46406  10.022   4.575   7.345  0.3314 -0.9451 -0.2379
  344MOL0     H46407  10.026   4.548   7.171  1.2466  1.1027 -0.6689
  344MOL0     H46408   9.994   4.846   7.246  2.2785  2.3203 -3.1846
  344MOL0     H46409  10.134   4.750   7.299 -0.2934 -3.7558  0.4767
  344MOL0     H46410  10.066   4.848   7.021  0.9860  2.5894  1.4939
  344MOL0     H46411  10.143   4.684   7.046 -0.8325  0.3962 -0.5391
  344MOL0     H46412  10.301   4.868   7.011 -0.1282  0.0410 -1.1155
  344MOL0     H46413  10.315   4.792   7.174  0.6067  1.4595  1.5340
  344MOL0     H46414  10.174   5.068   7.125  1.8879 -0.7645 -1.7563
  344MOL0     H46415  10.203   5.000   7.282 -0.7149  1.2407 -0.0261
  344MOL0     H46416  10.358   5.167   7.208  1.5782 -0.7710  2.6978
  344MOL0     H46417  10.409   5.071   7.062  2.4641  2.0412  1.0807
  344MOL0     H46418  10.443   4.990   7.358  0.2079  0.8488  0.4636
  344MOL0     H46419  10.536   4.932   7.220 -0.5504 -1.3779  2.0983
  344MOL0     H46420   9.595   4.597   7.225  2.3403 -0.4782 -1.5954
  344MOL0     H46421   9.365   4.497   7.215 -0.3163 -0.3690  2.3386
  344MOL0     H46422   9.070   4.276   6.868  1.3189 -3.2438  0.1534
  344MOL0     H46423   8.807   4.284   6.886 -1.6328  0.4686  2.3770
  344MOL0     H46424   6.939   4.011   7.075  0.1438 -0.3837  2.3315
  344MOL0     H46425   6.706   3.956   7.024  3.1035 -0.9323  2.0116
  344MOL0     H46426   6.280   4.426   6.887  0.0643 -0.3006  1.7763
  344MOL0     H46427   6.035   4.434   6.881 -0.4748 -0.3239 -0.8876
  344MOL0     H46428   5.775   4.083   6.927  3.2568 -0.8974  0.3439
  344MOL0     H46429   5.878   4.075   6.782 -0.7346  1.7062 -1.2965
  344MOL0     H46430   5.710   4.219   6.663 -0.4289 -3.7584 -2.4198
  344MOL0     H46431   5.597   4.216   6.803 -1.9981 -1.8925  0.7847
  344MOL0     H46432   5.600   3.974   6.787  0.6663  2.3208  1.6959
  344MOL0     H46433   5.686   3.977   6.627  0.3030  2.0997 -0.8965
  344MOL0     H46434   5.425   3.957   6.616 -0.3529  0.1990 -5.0084
  344MOL0     H46435   5.407   4.108   6.705  1.2559  1.3032  0.2633
  344MOL0     H46436   5.491   4.266   6.334 -0.9146 -0.5149 -0.2582
  344MOL0     H46437   6.010   4.023   6.990  0.0585 -0.2581  1.0168
  344MOL0     H46438   6.337   3.930   6.978  0.8682  0.1434  1.1896
  344MOL0     H46439   6.288   3.997   7.135 -0.4852  2.1506 -0.2435
  344MOL0     H46440   6.181   3.894   7.031 -0.5028  0.5996 -2.7753
  345MOL0     O46441   1.717   1.988  10.532  0.1528 -0.3320 -0.0569
  345MOL0     C46442   1.674   1.947  10.421 -0.7506 -0.8278  0.4269
  345MOL0     O46443   1.741   1.959  10.302 -0.2243 -0.1692  0.2256
  345MOL0     C46444   1.849   2.039  10.294 -1.1687  0.3720 -0.7565
  345MOL0     C46445   1.831   2.168  10.240  0.2611  0.2318 -0.1956
  345MOL0     C46446   1.941   2.239  10.199 -0.2353  0.1395 -0.5223
  345MOL0     C46447   2.072   2.191  10.219 -0.3436  0.9657  0.2464
  345MOL0     O46448   2.195   2.247  10.197 -0.8370  0.0056  0.8325
  345MOL0     C46449   2.189   2.376  10.131 -0.4204 -0.4260  0.2075
  345MOL0     C46450   2.344   2.420  10.104 -0.6284  0.0991 -0.2350
  345MOL0     C46451   2.351   2.543  10.012  0.2761 -0.5677  0.3501
  345MOL0     C46452   2.453   2.653  10.039  0.0158 -0.0924 -0.4219
  345MOL0     C46453   2.440   2.786   9.968 -0.9041  0.0407  0.1067
  345MOL0     C46454   2.455   2.771   9.819 -0.5013 -0.2821  0.0612
  345MOL0     C46455   2.465   2.905   9.743  0.5958  0.9276 -0.1786
  345MOL0     C46456   2.470   2.883   9.591  0.2256  0.0034 -0.2181
  345MOL0     N46457   2.361   2.812   9.533  0.9861 -0.4453  0.6654
  345MOL0     C46458   2.237   2.866   9.508  0.6981  0.2342  0.0217
  345MOL0     C46459   2.168   2.759   9.450 -0.5414 -0.1156  0.3103
  345MOL0     C46460   2.026   2.766   9.401 -0.1645 -0.0571  0.1414
  345MOL0     C46461   1.946   2.653   9.453  0.2443 -0.6796 -0.7947
  345MOL0     C46462   1.961   2.523   9.373 -0.8665 -0.9115 -0.1391
  345MOL0     C46463   1.824   2.474   9.317 -0.2173 -0.4736  0.6775
  345MOL0     O46464   1.752   2.433   9.438  0.5099 -0.2170 -0.6190
  345MOL0     C46465   1.624   2.398   9.426  0.0213 -0.1684 -0.3428
  345MOL0     C46466   1.585   2.270   9.390  0.0883 -0.0902 -0.9597
  345MOL0     C46467   1.453   2.238   9.385  0.1847  0.5045  0.4143
  345MOL0     C46468   1.351   2.333   9.421 -0.9874  0.4258  0.0194
  345MOL0     C46469   1.211   2.291   9.415 -0.1916  0.0914  0.0694
  345MOL0     O46470   1.171   2.173   9.378 -0.3063  0.3744  0.6751
  345MOL0     C46471   1.035   2.139   9.366  1.0554 -0.0409  0.5973
  345MOL0     C46472   0.994   2.008   9.408  0.1406  0.9424  0.2830
  345MOL0     C46473   0.862   1.972   9.382  0.1562 -0.0522  0.2075
  345MOL0     C46474   0.764   2.049   9.332 -0.1437  0.0736  0.4167
  345MOL0     O46475   0.634   2.000   9.312 -0.3115  0.2977  0.4999
  345MOL0     C46476   0.603   1.860   9.311 -0.0315  0.7775  0.8235
  345MOL0     C46477   0.463   1.819   9.254 -0.2804 -0.4521 -0.7728
  345MOL0     C46478   0.455   1.666   9.269  0.2182  0.4316  0.1040
  345MOL0     C46479   0.321   1.602   9.216 -0.9704 -0.4994  1.3865
  345MOL0     C46480   0.209   1.641   9.306  0.0862 -0.3772 -0.0679
  345MOL0     C46481   0.064   1.597   9.248 -0.1769  0.2443 -0.3624
  345MOL0     C46482   0.034   1.662   9.109 -0.2115 -0.0944  0.2948
  345MOL0     C46483  -0.108   1.638   9.078  0.8488 -0.3410  0.0739
  345MOL0    Cl46484  -0.219   1.748   9.172 -0.2097  0.0140 -0.0635
  345MOL0     C46485   0.798   2.181   9.300 -0.3354  0.2934  0.4085
  345MOL0     C46486   0.936   2.229   9.313 -0.3907  0.2386 -0.2354
  345MOL0     O46487   1.129   2.377   9.452 -0.4263 -0.7365 -0.0160
  345MOL0     C46488   1.391   2.459   9.471  0.5920  0.4870 -0.1928
  345MOL0     C46489   1.529   2.491   9.476  0.4308  0.2197  0.3816
  345MOL0     N46490   2.251   2.652   9.449 -0.2158 -0.5680  0.2734
  345MOL0     N46491   2.364   2.683   9.504 -0.4719 -0.1897 -0.4708
  345MOL0     C46492   2.088   2.060  10.274 -0.8266 -0.0330 -0.1808
  345MOL0     C46493   1.979   1.978  10.309  0.5054 -0.3301  0.6524
  345MOL0     C46494   1.546   1.868  10.418 -1.2729 -0.2756 -0.3749
  345MOL0     C46495   1.479   1.838  10.538  0.7616 -0.2008 -0.9897
  345MOL0     C46496   1.366   1.755  10.539 -0.3320 -0.4023 -0.2020
  345MOL0     C46497   1.321   1.702  10.420 -0.2939  0.7678 -0.0363
  345MOL0     O46498   1.214   1.613  10.430 -0.8585 -0.2640 -0.1717
  345MOL0     C46499   1.114   1.631  10.330  0.1446 -0.4495 -0.6406
  345MOL0     C46500   0.992   1.531  10.356 -0.2509  0.5119 -1.0934
  345MOL0     C46501   0.905   1.580  10.473  0.3978  0.0387 -0.2397
  345MOL0     C46502   0.809   1.684  10.419 -0.0150  0.0741 -0.1626
  345MOL0     C46503   0.735   1.760  10.524 -0.5228  0.4023  0.1084
  345MOL0     C46504   0.701   1.811  10.625  0.6303 -0.7275  0.5824
  345MOL0     C46505   1.382   1.734  10.295 -0.4259  0.0261 -0.2000
  345MOL0     C46506   1.489   1.821  10.295 -0.4532  0.2476  0.0241
  345MOL0     C46507   1.529   1.860  10.150  0.5015 -0.5334  0.1776
  345MOL0     H46508   1.732   2.213  10.228 -0.7135 -1.8171 -0.2350
  345MOL0     H46509   1.922   2.340  10.162 -1.5475  0.7674  1.6515
  345MOL0     H46510   2.128   2.367  10.041 -0.4094 -1.6805  0.3011
  345MOL0     H46511   2.138   2.453  10.188  1.5200 -0.2505  1.8414
  345MOL0     H46512   2.404   2.338  10.064  2.3516  1.3802  1.2674
  345MOL0     H46513   2.386   2.448  10.202  3.8314  0.2234 -1.9588
  345MOL0     H46514   2.260   2.603  10.018  1.4993  1.3673  0.6424
  345MOL0     H46515   2.359   2.507   9.909 -1.9892  1.1763 -0.5001
  345MOL0     H46516   2.438   2.670  10.146 -2.5323  0.4221 -0.7939
  345MOL0     H46517   2.552   2.612  10.019  0.0226  0.7266 -2.3875
  345MOL0     H46518   2.342   2.827   9.993 -0.6560 -0.7453  2.6415
  345MOL0     H46519   2.518   2.854  10.003 -1.6281  2.7852 -3.1320
  345MOL0     H46520   2.545   2.713   9.796 -1.2695 -2.3976  2.0035
  345MOL0     H46521   2.380   2.714   9.765  1.6789 -1.1439 -2.2360
  345MOL0     H46522   2.557   2.955   9.776  0.4381 -0.2731  2.3635
  345MOL0     H46523   2.372   2.959   9.761 -0.8921 -1.0280 -1.5284
  345MOL0     H46524   2.483   2.980   9.543  0.5789  1.5803  2.8304
  345MOL0     H46525   2.571   2.844   9.584  1.9721  3.7903  1.1922
  345MOL0     H46526   2.195   2.965   9.521 -0.7989  0.0546 -2.6834
  345MOL0     H46527   1.983   2.864   9.424  0.4021 -0.5328  3.7464
  345MOL0     H46528   2.026   2.753   9.292 -0.5055 -1.8057  0.3282
  345MOL0     H46529   1.962   2.627   9.558 -1.1896  0.7875 -0.1611
  345MOL0     H46530   1.845   2.694   9.460  0.4432 -0.0980 -1.2872
  345MOL0     H46531   1.993   2.434   9.428 -2.3676 -1.4538 -0.0926
  345MOL0     H46532   2.031   2.556   9.296 -2.3889  3.1695  0.0026
  345MOL0     H46533   1.839   2.387   9.253 -2.0453 -0.3705  0.0351
  345MOL0     H46534   1.761   2.541   9.257 -1.5930 -2.3374 -0.0683
  345MOL0     H46535   1.656   2.190   9.374 -2.1759 -2.2625 -0.7257
  345MOL0     H46536   1.413   2.139   9.365  0.5395  0.3569  0.4114
  345MOL0     H46537   1.069   1.944   9.452 -1.0485  0.1145  1.1863
  345MOL0     H46538   0.840   1.873   9.421 -2.6344  0.7899  1.0312
  345MOL0     H46539   0.674   1.798   9.255 -1.5223 -0.5884  0.3580
  345MOL0     H46540   0.607   1.836   9.417 -2.0956 -1.0680  0.5610
  345MOL0     H46541   0.388   1.870   9.315  1.8374  2.1465 -0.1668
  345MOL0     H46542   0.455   1.848   9.149 -2.5005  0.5802 -0.3753
  345MOL0     H46543   0.537   1.615   9.217  0.9056 -0.2008  1.7330
  345MOL0     H46544   0.469   1.641   9.375 -3.7496  1.3705  0.9966
  345MOL0     H46545   0.339   1.494   9.218  4.0191  0.0808  2.4840
  345MOL0     H46546   0.294   1.633   9.115 -0.5926  1.8591  1.9349
  345MOL0     H46547   0.202   1.748   9.328  1.9208  0.3555 -2.6336
  345MOL0     H46548   0.219   1.592   9.403  1.2398  0.3435  0.1884
  345MOL0     H46549   0.070   1.488   9.240 -0.6265  0.1081  0.8445
  345MOL0     H46550  -0.018   1.613   9.319 -0.0763 -1.8952  0.2974
  345MOL0     H46551   0.102   1.615   9.037  1.0745  0.1980  1.2881
  345MOL0     H46552   0.044   1.771   9.113 -0.3233 -0.0984  0.7791
  345MOL0     H46553  -0.115   1.654   8.970 -1.2768 -0.6161  0.1380
  345MOL0     H46554  -0.127   1.532   9.094 -1.8500 -0.0055 -0.5163
  345MOL0     H46555   0.723   2.244   9.253  1.1621  0.9840 -1.1832
  345MOL0     H46556   0.964   2.331   9.289  2.5196 -0.2838  0.6241
  345MOL0     H46557   1.326   2.545   9.488 -0.8240 -0.4762 -0.5698
  345MOL0     H46558   1.568   2.589   9.500  0.1715  0.0819  1.4083
  345MOL0     H46559   2.184   2.011  10.289 -0.8064 -1.2658 -3.4875
  345MOL0     H46560   1.984   1.877  10.350 -0.9421 -1.7094 -2.2701
  345MOL0     H46561   1.522   1.878  10.629 -0.1997  2.1325 -1.4962
  345MOL0     H46562   1.324   1.719  10.632  0.2346 -1.2867 -0.2777
  345MOL0     H46563   1.153   1.604  10.232  0.4005  0.2847 -0.7492
  345MOL0     H46564   1.078   1.735  10.329  2.3832  0.4969  2.2881
  345MOL0     H46565   1.034   1.434  10.385 -1.4541  0.6886  1.5360
  345MOL0     H46566   0.923   1.518  10.273 -0.8182 -1.4449 -0.3766
  345MOL0     H46567   0.961   1.608  10.562  2.1546 -1.8787 -0.6573
  345MOL0     H46568   0.845   1.495  10.508  1.2035 -0.7950 -0.8123
  345MOL0     H46569   0.858   1.765  10.362  0.2989  0.6803  0.9302
  345MOL0     H46570   0.739   1.643  10.347  1.3404  0.0063 -1.4870
  345MOL0     H46571   0.665   1.854  10.717 -1.2919 -1.0782  0.0431
  345MOL0     H46572   1.326   1.709  10.205  0.1613  0.5271 -0.7148
  345MOL0     H46573   1.543   1.969  10.152 -0.3074 -0.4372  1.8247
  345MOL0     H46574   1.622   1.808  10.125  1.1171  0.7344 -0.2977
  345MOL0     H46575   1.449   1.827  10.083 -0.3282 -1.0347  1.3783
  346MOL0     O46576   5.212   0.644  11.001  0.1971  0.4586  0.0742
  346MOL0     C46577   5.149   0.587  10.911  0.2200  0.3288 -1.0719
  346MOL0     O46578   5.178   0.470  10.859  0.3960  0.4283  0.3620
  346MOL0     C46579   5.290   0.416  10.913 -0.9628  0.8585  0.7406
  346MOL0     C46580   5.276   0.309  11.001 -0.2469  0.5114  0.1540
  346MOL0     C46581   5.396   0.269  11.070  0.1419  0.9802 -0.7408
  346MOL0     C46582   5.524   0.320  11.040 -0.4767  0.8458  0.3617
  346MOL0     O46583   5.638   0.280  11.101 -0.2172 -0.1448 -0.7169
  346MOL0     C46584   5.764   0.357  11.084  0.4797 -0.7840 -0.4095
  346MOL0     C46585   5.871   0.333  11.191  0.9326 -0.3424  0.5856
  346MOL0     C46586   5.826   0.389  11.328  0.5184 -0.5259 -0.3005
  346MOL0     C46587   5.958   0.403  11.421 -0.1815  0.5153  0.2944
  346MOL0     C46588   5.931   0.464  11.555  0.1967 -0.5352 -0.2158
  346MOL0     C46589   5.828   0.400  11.647  0.1645 -0.4168 -0.2278
  346MOL0     C46590   5.794   0.489  11.763  0.7112 -0.2990 -0.1360
  346MOL0     C46591   5.668   0.438  11.827 -0.5803 -0.5847 -0.6338
  346MOL0     N46592   5.548   0.431  11.746 -0.4009 -0.3427  0.2097
  346MOL0     C46593   5.510   0.514  11.637  0.0965 -0.2619 -0.0080
  346MOL0     C46594   5.425   0.436  11.563 -0.6086  0.0952 -0.2016
  346MOL0     C46595   5.364   0.458  11.420  0.1929 -0.2215 -1.1012
  346MOL0     C46596   5.207   0.455  11.422 -0.5796 -0.6299 -0.3307
  346MOL0     C46597   5.140   0.446  11.290  0.3302  0.8752 -0.2261
  346MOL0     C46598   4.984   0.459  11.291 -0.5733  0.6936  0.5727
  346MOL0     O46599   4.946   0.408  11.160 -0.0645 -0.1465  0.0338
  346MOL0     C46600   4.833   0.455  11.104 -0.8262 -0.4832  0.4138
  346MOL0     C46601   4.820   0.420  10.973 -0.2202  0.5394  0.4606
  346MOL0     C46602   4.698   0.451  10.909 -0.1106  0.6699 -0.1630
  346MOL0     C46603   4.587   0.506  10.972  0.1336 -1.3045  0.1327
  346MOL0     C46604   4.460   0.524  10.910 -0.5577 -0.6822  0.0064
  346MOL0     O46605   4.381   0.621  10.972 -0.4131  0.0263  0.1933
  346MOL0     C46606   4.265   0.653  10.905  0.3449 -0.7378 -0.9209
  346MOL0     C46607   4.272   0.709  10.782  0.3317 -0.1414  0.9454
  346MOL0     C46608   4.149   0.747  10.719  0.1916  0.3515 -0.4174
  346MOL0     C46609   4.021   0.715  10.776 -0.9507 -0.3507 -0.8747
  346MOL0     O46610   3.911   0.756  10.705 -0.3213  0.3943 -0.1660
  346MOL0     C46611   3.801   0.792  10.791 -0.0287 -0.1320  0.7806
  346MOL0     C46612   3.678   0.803  10.698  0.0019 -0.5788 -0.9207
  346MOL0     C46613   3.593   0.678  10.679  0.3242 -0.3184  0.5389
  346MOL0     C46614   3.489   0.708  10.569  0.0403  0.9134 -0.2784
  346MOL0     C46615   3.377   0.606  10.577 -0.2527 -0.9030  0.8958
  346MOL0     C46616   3.269   0.632  10.472  0.5982 -0.9159 -0.1505
  346MOL0     C46617   3.156   0.533  10.480  0.2376  0.0318 -0.6596
  346MOL0     C46618   3.060   0.525  10.361  0.6225 -0.1624  0.4497
  346MOL0    Cl46619   3.149   0.448  10.226  0.3352 -0.4305 -0.0216
  346MOL0     C46620   4.024   0.636  10.897 -0.6643 -0.6122 -0.5170
  346MOL0     C46621   4.143   0.618  10.962 -0.5287  0.9152 -0.2554
  346MOL0     O46622   4.442   0.474  10.803  0.4871  0.0445  0.1128
  346MOL0     C46623   4.607   0.546  11.104  0.3646 -0.2190 -0.4002
  346MOL0     C46624   4.727   0.531  11.168 -1.0173 -0.7226  0.2546
  346MOL0     N46625   5.398   0.321  11.642 -0.8595  0.6860  0.5309
  346MOL0     N46626   5.464   0.323  11.751 -0.5080  0.3907 -0.0920
  346MOL0     C46627   5.543   0.404  10.929  0.5987  0.3777 -0.3709
  346MOL0     C46628   5.420   0.456  10.872 -0.1840 -0.6207 -0.6888
  346MOL0     C46629   5.034   0.656  10.852 -0.2596  0.6912 -0.1114
  346MOL0     C46630   5.007   0.626  10.717 -0.2243 -0.7760  0.4722
  346MOL0     C46631   4.904   0.687  10.649  0.5794 -0.5883  0.6900
  346MOL0     C46632   4.818   0.779  10.713  0.1067  0.6618 -0.0773
  346MOL0     O46633   4.717   0.843  10.644  0.0945 -0.0383 -0.0840
  346MOL0     C46634   4.700   0.812  10.501  0.3386  0.1369 -0.1043
  346MOL0     C46635   4.584   0.882  10.428 -0.7973 -0.2388 -0.5332
  346MOL0     C46636   4.603   1.037  10.421 -0.5674  0.5394  0.6170
  346MOL0     C46637   4.513   1.117  10.520 -0.8968  0.0250 -0.6223
  346MOL0     C46638   4.375   1.085  10.488  0.1181  1.0230  0.1211
  346MOL0     C46639   4.252   1.051  10.471 -0.9522 -0.2056 -0.5461
  346MOL0     C46640   4.832   0.802  10.850 -0.4500  1.1619  0.7760
  346MOL0     C46641   4.947   0.746  10.922  0.0525 -0.0293  0.1828
  346MOL0     C46642   4.957   0.780  11.064  0.2609  0.6293 -0.3383
  346MOL0     H46643   5.179   0.272  11.031  0.3327 -1.0895  0.1056
  346MOL0     H46644   5.373   0.197  11.148  1.7539  0.9423 -0.2682
  346MOL0     H46645   5.803   0.331  10.985  1.8871 -2.0833  0.4375
  346MOL0     H46646   5.735   0.462  11.083 -2.2216 -1.4279  0.9367
  346MOL0     H46647   5.962   0.389  11.167  1.0577 -1.4095 -1.7064
  346MOL0     H46648   5.899   0.227  11.197  3.3521  0.0696 -1.3316
  346MOL0     H46649   5.751   0.321  11.370 -1.9705  2.5223  0.5586
  346MOL0     H46650   5.776   0.485  11.316  1.5457  0.2380  1.1451
  346MOL0     H46651   6.008   0.306  11.436 -2.5243 -0.4292  2.9549
  346MOL0     H46652   6.030   0.476  11.383  1.8905 -0.8949  1.2880
  346MOL0     H46653   6.022   0.464  11.617  0.8143 -0.5596 -1.1021
  346MOL0     H46654   5.899   0.568  11.544  2.9028  0.6332  1.7543
  346MOL0     H46655   5.738   0.377  11.589 -0.5078 -0.3709  0.7745
  346MOL0     H46656   5.870   0.311  11.695  3.9246  2.0578  1.6010
  346MOL0     H46657   5.776   0.588  11.719  1.9493 -0.4054 -0.9427
  346MOL0     H46658   5.876   0.495  11.834  2.0581 -1.7853 -1.4900
  346MOL0     H46659   5.686   0.337  11.864  1.2156 -0.1415 -0.1969
  346MOL0     H46660   5.642   0.516  11.900 -0.1861  0.3419 -1.4560
  346MOL0     H46661   5.554   0.610  11.610  1.7604 -0.4967  1.6097
  346MOL0     H46662   5.406   0.555  11.392 -0.7950  0.1876 -1.1855
  346MOL0     H46663   5.400   0.379  11.353 -1.2119 -0.6853 -1.3397
  346MOL0     H46664   5.174   0.373  11.486 -2.7339 -0.2971 -0.9395
  346MOL0     H46665   5.166   0.550  11.455 -0.6769 -1.1042  0.9716
  346MOL0     H46666   5.156   0.349  11.242  1.5586  1.1894 -0.4756
  346MOL0     H46667   5.182   0.517  11.218 -3.3222  0.8797 -2.6157
  346MOL0     H46668   4.953   0.559  11.324 -2.2023  0.5897 -0.5402
  346MOL0     H46669   4.944   0.384  11.360  0.6787  0.0987  0.6839
  346MOL0     H46670   4.906   0.373  10.927 -0.4177  3.4803 -3.4326
  346MOL0     H46671   4.705   0.421  10.805 -2.5858  5.0162 -1.8516
  346MOL0     H46672   4.371   0.724  10.742 -0.3337 -0.9836 -1.2001
  346MOL0     H46673   4.165   0.795  10.623  0.4674 -0.7902 -0.9565
  346MOL0     H46674   3.775   0.716  10.864 -3.0262 -0.1209 -0.1520
  346MOL0     H46675   3.818   0.891  10.834 -1.4727  1.7784 -2.5906
  346MOL0     H46676   3.617   0.884  10.739  2.6866  1.4588 -0.6518
  346MOL0     H46677   3.707   0.847  10.602  0.2133 -0.7777 -0.9479
  346MOL0     H46678   3.660   0.605  10.632  0.1463 -0.1882  0.0756
  346MOL0     H46679   3.556   0.648  10.778  1.6001  1.1329  1.5100
  346MOL0     H46680   3.535   0.700  10.470 -0.1569  0.6096 -0.3473
  346MOL0     H46681   3.450   0.810  10.574 -2.2935  0.2022 -2.1491
  346MOL0     H46682   3.331   0.607  10.676 -1.1727  2.7923  0.6097
  346MOL0     H46683   3.419   0.507  10.560  2.7780  0.4317 -0.0612
  346MOL0     H46684   3.236   0.735  10.480 -0.3736 -1.2642  0.4623
  346MOL0     H46685   3.320   0.619  10.376 -0.2283 -0.3568 -0.6692
  346MOL0     H46686   3.086   0.566  10.557  1.0396 -0.0199  0.0995
  346MOL0     H46687   3.187   0.431  10.502 -0.2916  0.1306  0.6370
  346MOL0     H46688   2.963   0.480  10.385 -1.0993  3.1999  0.4041
  346MOL0     H46689   3.023   0.619  10.318 -0.4607 -1.7217 -2.3309
  346MOL0     H46690   3.935   0.588  10.936 -0.2536  0.0538  1.2953
  346MOL0     H46691   4.153   0.571  11.059  0.5050 -3.3006 -2.1937
  346MOL0     H46692   4.531   0.586  11.171 -0.3983 -2.0192 -0.1539
  346MOL0     H46693   4.744   0.566  11.269 -1.0001  0.8416 -0.2584
  346MOL0     H46694   5.635   0.443  10.887  1.4452 -0.9018  0.2084
  346MOL0     H46695   5.420   0.538  10.801 -2.5500 -1.3673 -1.6457
  346MOL0     H46696   5.070   0.554  10.665  0.0618 -0.8982  0.9878
  346MOL0     H46697   4.890   0.658  10.546 -0.9072  2.3496 -0.0487
  346MOL0     H46698   4.674   0.706  10.494  3.1138 -0.5865 -0.7908
  346MOL0     H46699   4.800   0.835  10.462  0.1122  1.6473  0.1144
  346MOL0     H46700   4.494   0.859  10.486 -0.7873 -0.0492 -0.4416
  346MOL0     H46701   4.586   0.843  10.326 -1.1830  0.1183 -0.6823
  346MOL0     H46702   4.572   1.071  10.322 -1.1285  1.7444  1.1862
  346MOL0     H46703   4.709   1.062  10.434 -0.7871  1.7921  0.0291
  346MOL0     H46704   4.541   1.091  10.623 -1.7132  0.6484 -0.2313
  346MOL0     H46705   4.531   1.225  10.519  0.6760 -0.1884  0.4586
  346MOL0     H46706   4.155   1.014  10.446 -1.4408  0.2048  0.6525
  346MOL0     H46707   4.773   0.877  10.903 -0.2834  1.2364  0.8567
  346MOL0     H46708   5.032   0.859  11.075 -0.0269  0.9738 -0.8392
  346MOL0     H46709   4.865   0.819  11.107 -0.2453  1.1116 -1.8146
  346MOL0     H46710   4.990   0.693  11.121 -3.5809 -0.0459  1.1529
  347MOL0     O46711   1.715   4.231   4.679 -0.3082 -0.5338  0.3358
  347MOL0     C46712   1.804   4.310   4.721  0.0074  0.4706 -0.1562
  347MOL0     O46713   1.917   4.272   4.789  0.2384  0.5286 -0.0064
  347MOL0     C46714   1.930   4.138   4.793  0.0845 -0.2464 -0.2670
  347MOL0     C46715   1.944   4.047   4.691 -0.0782  0.0964 -0.0276
  347MOL0     C46716   1.958   3.915   4.720  0.0432 -0.4841  0.5152
  347MOL0     C46717   1.968   3.871   4.856 -0.9160  0.1930 -0.4775
  347MOL0     O46718   1.988   3.736   4.889  1.6105 -0.2167 -0.7628
  347MOL0     C46719   2.030   3.631   4.796  0.4041 -0.0945  0.6767
  347MOL0     C46720   2.032   3.504   4.873  0.4867 -0.0742 -0.0555
  347MOL0     C46721   2.111   3.519   4.998 -0.4058  0.0244 -0.2625
  347MOL0     C46722   2.031   3.550   5.119  0.6169 -0.4746 -0.7942
  347MOL0     C46723   2.129   3.531   5.240 -0.4697 -0.5555  0.4879
  347MOL0     C46724   2.043   3.559   5.365  0.1968 -0.5814  0.4675
  347MOL0     C46725   2.120   3.604   5.483 -0.0219 -0.4885  0.3129
  347MOL0     C46726   2.043   3.611   5.611  0.6490 -0.0450 -0.3676
  347MOL0     N46727   2.047   3.482   5.675  0.0597  0.0946 -0.2536
  347MOL0     C46728   2.001   3.454   5.806 -0.7886 -0.0974 -0.4606
  347MOL0     C46729   2.043   3.330   5.828  0.1692 -0.3524 -1.0050
  347MOL0     C46730   2.012   3.256   5.960  0.5310 -0.1595 -0.0707
  347MOL0     C46731   1.868   3.188   5.962 -0.5224 -0.3349 -0.4300
  347MOL0     C46732   1.766   3.303   5.963 -0.2619 -0.4435 -0.3819
  347MOL0     C46733   1.623   3.235   5.959  0.1426  0.9797 -0.8853
  347MOL0     O46734   1.513   3.330   5.959 -0.1244  0.2545  0.2155
  347MOL0     C46735   1.386   3.282   5.958  0.4374 -0.7201 -0.3149
  347MOL0     C46736   1.355   3.152   5.982  0.1453 -0.3566  0.2086
  347MOL0     C46737   1.220   3.121   6.000  0.0172  0.7953 -0.4072
  347MOL0     C46738   1.117   3.208   5.962  0.7318 -0.1009 -0.3789
  347MOL0     C46739   0.969   3.161   5.951 -0.4259  0.4702  0.0659
  347MOL0     O46740   0.935   3.051   6.032  0.1771  0.0332 -0.1378
  347MOL0     C46741   0.802   3.020   6.056 -0.9003  0.4398  1.2711
  347MOL0     C46742   0.739   3.064   6.173 -0.3438  0.1947  0.5327
  347MOL0     C46743   0.607   3.027   6.199  0.5700  0.3425 -0.1367
  347MOL0     C46744   0.532   2.951   6.111  0.1744  0.3242 -0.2313
  347MOL0     O46745   0.397   2.914   6.110  0.2651  0.4755  0.0420
  347MOL0     C46746   0.316   2.984   6.205 -0.2077 -0.1147  0.5600
  347MOL0     C46747   0.177   2.939   6.189  1.0897  0.9376 -0.8728
  347MOL0     C46748   0.069   3.012   6.273  0.2162  0.5346  0.0564
  347MOL0     C46749  -0.059   2.924   6.271 -0.2715 -0.5928  0.9312
  347MOL0     C46750  -0.147   2.951   6.390 -0.7015  0.0192 -0.7219
  347MOL0     C46751  -0.091   2.880   6.512  0.0673 -0.9335  0.6070
  347MOL0     C46752  -0.175   2.897   6.641  0.3833 -0.5540 -0.4508
  347MOL0     C46753  -0.204   2.764   6.713 -0.0083  0.9874 -0.5563
  347MOL0    Cl46754  -0.327   2.664   6.638  0.3470  0.1785 -0.2218
  347MOL0     C46755   0.593   2.927   5.986 -0.0640  0.1798  0.1569
  347MOL0     C46756   0.730   2.950   5.962 -0.5504  0.1120 -0.7983
  347MOL0     O46757   0.889   3.227   5.879 -0.3056  0.2418 -0.0398
  347MOL0     C46758   1.149   3.338   5.926 -0.6046  0.5517  0.4781
  347MOL0     C46759   1.285   3.370   5.927 -0.7073 -1.6798 -0.2029
  347MOL0     N46760   2.116   3.279   5.722 -0.7215  0.1207 -0.2369
  347MOL0     N46761   2.106   3.363   5.629 -0.3132 -0.0403  0.3737
  347MOL0     C46762   1.969   3.970   4.957 -0.1609  0.1438  0.4274
  347MOL0     C46763   1.950   4.100   4.921  0.2629  0.3640  0.3391
  347MOL0     C46764   1.784   4.461   4.691  0.5681 -0.4766  0.2478
  347MOL0     C46765   1.659   4.517   4.656  0.1146  0.0495 -0.6028
  347MOL0     C46766   1.640   4.650   4.627  0.1365 -0.3638 -0.1234
  347MOL0     C46767   1.746   4.735   4.626  0.2507  0.5470 -0.0767
  347MOL0     O46768   1.756   4.861   4.581 -0.3707  0.6016  0.1168
  347MOL0     C46769   1.635   4.940   4.555 -0.0155  0.6745  0.6131
  347MOL0     C46770   1.585   4.928   4.418 -0.1392  0.9793  0.4104
  347MOL0     C46771   1.688   4.966   4.304  0.9890  0.1955 -0.6772
  347MOL0     C46772   1.775   4.844   4.264  1.4232  0.0048 -0.0690
  347MOL0     C46773   1.875   4.892   4.166 -0.2761  0.4177 -0.1307
  347MOL0     C46774   1.963   4.913   4.080 -0.5240 -1.3867 -1.0850
  347MOL0     C46775   1.870   4.688   4.664  0.7946  0.8588 -0.1698
  347MOL0     C46776   1.891   4.556   4.697 -0.8371 -0.9360 -0.5597
  347MOL0     C46777   2.030   4.528   4.753  0.2305  0.1102  0.2976
  347MOL0     H46778   1.916   4.085   4.593 -0.6328  1.5191  0.6465
  347MOL0     H46779   1.958   3.842   4.640 -0.5297 -0.7498  0.7514
  347MOL0     H46780   1.973   3.631   4.702 -0.9704  0.4013  1.4799
  347MOL0     H46781   2.131   3.649   4.760  0.2777  0.7148  0.7002
  347MOL0     H46782   2.077   3.425   4.811 -0.0322 -0.7696  0.4398
  347MOL0     H46783   1.929   3.476   4.894  0.4246 -0.8383 -1.2800
  347MOL0     H46784   2.198   3.584   4.983 -0.8749  0.1043 -3.4444
  347MOL0     H46785   2.154   3.419   5.014 -1.0959 -0.3328 -0.5751
  347MOL0     H46786   1.992   3.652   5.124 -0.1568 -0.8304  2.8793
  347MOL0     H46787   1.944   3.486   5.129  0.0448  0.0460 -2.1466
  347MOL0     H46788   2.175   3.432   5.238  2.0299  0.4417 -3.6220
  347MOL0     H46789   2.210   3.603   5.228  0.5617 -1.8593 -0.6241
  347MOL0     H46790   1.976   3.640   5.332  0.2955 -0.1338  1.3480
  347MOL0     H46791   1.980   3.472   5.381 -1.3626  0.2408 -0.8729
  347MOL0     H46792   2.139   3.709   5.459 -0.5616 -0.2419  0.9511
  347MOL0     H46793   2.209   3.546   5.508  0.0484 -0.0108  1.1990
  347MOL0     H46794   2.088   3.690   5.672 -3.0921  0.9362  1.4190
  347MOL0     H46795   1.940   3.643   5.588  0.1899 -0.8477  0.5168
  347MOL0     H46796   1.968   3.525   5.882  0.7498  1.5191 -1.2482
  347MOL0     H46797   2.083   3.175   5.979 -1.5096 -2.6763 -2.4203
  347MOL0     H46798   2.024   3.307   6.057 -1.7122 -0.7464  0.5704
  347MOL0     H46799   1.864   3.137   5.865 -0.6234  0.8499 -1.0816
  347MOL0     H46800   1.842   3.127   6.049 -0.7787  0.5473  0.1284
  347MOL0     H46801   1.767   3.363   5.873 -2.1627 -2.2713 -1.7144
  347MOL0     H46802   1.763   3.376   6.045 -1.4101  1.5511 -2.1264
  347MOL0     H46803   1.627   3.169   6.046  1.6069 -1.7018 -2.8355
  347MOL0     H46804   1.611   3.167   5.874  2.2369 -2.0620  1.0438
  347MOL0     H46805   1.438   3.082   5.978  3.6253  3.4431 -1.3282
  347MOL0     H46806   1.198   3.020   6.032 -1.2832  0.3374 -2.5381
  347MOL0     H46807   0.781   3.122   6.255 -1.6854 -1.9403  2.8790
  347MOL0     H46808   0.562   3.065   6.290  0.2014 -0.3134 -0.0364
  347MOL0     H46809   0.355   2.951   6.302  0.4619  0.4992  0.5146
  347MOL0     H46810   0.323   3.093   6.197 -2.0527 -0.0451 -0.5301
  347MOL0     H46811   0.150   2.941   6.083 -2.2774  2.3325 -0.1317
  347MOL0     H46812   0.182   2.834   6.218  2.4237  0.4219 -2.7771
  347MOL0     H46813   0.099   3.032   6.376 -3.2021  1.9522  0.9127
  347MOL0     H46814   0.040   3.104   6.221 -1.3232 -0.0365 -0.1510
  347MOL0     H46815  -0.036   2.818   6.262  1.5065 -0.1824  0.1740
  347MOL0     H46816  -0.116   2.956   6.184  0.4488 -0.2107  0.5898
  347MOL0     H46817  -0.242   2.904   6.363 -0.5119 -0.7410 -0.1058
  347MOL0     H46818  -0.145   3.058   6.410  0.1692  0.7556 -4.1076
  347MOL0     H46819  -0.094   2.773   6.490  1.6646 -0.7524 -0.7752
  347MOL0     H46820   0.015   2.906   6.524 -0.1867  0.3252  0.2098
  347MOL0     H46821  -0.275   2.933   6.614  0.5571 -0.1651 -0.5706
  347MOL0     H46822  -0.124   2.968   6.705  1.8323 -0.0551 -2.0961
  347MOL0     H46823  -0.110   2.710   6.726 -0.2231  0.5738 -0.6859
  347MOL0     H46824  -0.249   2.784   6.810  0.0791 -1.5489  0.0839
  347MOL0     H46825   0.545   2.872   5.906 -0.0207  0.5617 -0.1372
  347MOL0     H46826   0.768   2.914   5.867 -2.2588  0.0396 -1.4919
  347MOL0     H46827   1.072   3.415   5.925 -1.3487 -0.1065  2.1813
  347MOL0     H46828   1.313   3.472   5.902  1.5269 -2.2720 -0.3402
  347MOL0     H46829   1.986   3.946   5.061 -2.0038  0.7720  0.9174
  347MOL0     H46830   1.953   4.179   4.996  1.6559  0.2073  0.4858
  347MOL0     H46831   1.574   4.451   4.640  0.5143  0.1211 -3.7819
  347MOL0     H46832   1.536   4.664   4.600  0.3236  0.1357 -0.6164
  347MOL0     H46833   1.642   5.048   4.576 -1.4000  0.7311  0.8698
  347MOL0     H46834   1.556   4.904   4.621 -0.4549 -0.6641 -0.5935
  347MOL0     H46835   1.498   4.994   4.402  0.1205  1.1862 -0.1820
  347MOL0     H46836   1.552   4.826   4.396 -2.0192  1.5762  0.3006
  347MOL0     H46837   1.754   5.043   4.345  1.6739 -1.0453  0.6113
  347MOL0     H46838   1.644   5.004   4.211  0.5590 -1.7317 -1.3000
  347MOL0     H46839   1.825   4.795   4.347  1.8778  0.2200 -0.2126
  347MOL0     H46840   1.710   4.771   4.216  0.3295  2.1480 -2.0786
  347MOL0     H46841   2.036   4.948   4.010 -1.9421 -0.3520 -2.0962
  347MOL0     H46842   1.951   4.760   4.669 -0.1617  1.9222  0.4225
  347MOL0     H46843   2.092   4.613   4.725 -0.6490 -0.2303 -3.1554
  347MOL0     H46844   2.033   4.509   4.860  0.5210 -2.5937 -0.1170
  347MOL0     H46845   2.076   4.434   4.719  3.4008  1.4382  0.5304
  348MOL0     O46846   2.920   3.332   5.435 -0.5266  0.0324  0.2161
  348MOL0     C46847   2.807   3.359   5.465  0.8202 -0.0599 -0.2433
  348MOL0     O46848   2.730   3.305   5.566  0.2483 -0.0269 -0.0390
  348MOL0     C46849   2.795   3.238   5.672 -0.3140 -0.0124  0.1449
  348MOL0     C46850   2.753   3.106   5.699 -0.2723 -0.0416 -0.4851
  348MOL0     C46851   2.798   3.033   5.813  0.1741  0.1090 -0.2535
  348MOL0     C46852   2.888   3.096   5.896 -0.4435 -1.2673 -0.0901
  348MOL0     O46853   2.927   3.033   6.009  0.9914  0.1803  0.6639
  348MOL0     C46854   2.952   3.110   6.126 -0.2687  0.6784 -0.1133
  348MOL0     C46855   2.992   3.018   6.244  1.5002  0.2963  1.4106
  348MOL0     C46856   3.046   3.114   6.348 -0.1804  0.1112  0.5307
  348MOL0     C46857   3.026   3.069   6.490 -0.3073 -0.2600 -0.6811
  348MOL0     C46858   3.145   3.098   6.581  1.1545  0.1603 -0.2007
  348MOL0     C46859   3.270   3.030   6.543 -0.0324 -0.7100 -0.2349
  348MOL0     C46860   3.381   3.053   6.658 -0.0826  0.3726 -0.1031
  348MOL0     C46861   3.514   3.003   6.611 -0.1854 -0.9000  0.2946
  348MOL0     N46862   3.629   3.023   6.691  0.1240 -0.5793 -0.4133
  348MOL0     C46863   3.764   3.010   6.656  0.0583 -0.0733 -0.3821
  348MOL0     C46864   3.828   3.015   6.769 -0.3504 -0.6186 -0.4282
  348MOL0     C46865   3.972   2.981   6.776 -0.1824  0.0849  0.2857
  348MOL0     C46866   4.045   3.056   6.895  0.1707 -0.0486  0.0647
  348MOL0     C46867   4.035   3.210   6.885  0.4547 -0.2583 -0.5990
  348MOL0     C46868   4.071   3.264   7.031 -0.0743 -0.0743 -0.2354
  348MOL0     O46869   4.074   3.406   7.043  0.8083 -0.2276 -0.2654
  348MOL0     C46870   3.960   3.482   7.075  0.0953  0.1708  0.0389
  348MOL0     C46871   3.966   3.615   7.103  0.3236 -0.4728  0.0026
  348MOL0     C46872   3.839   3.685   7.133 -0.2222  0.0691  0.4553
  348MOL0     C46873   3.718   3.626   7.121  1.1841  0.5664 -0.0348
  348MOL0     C46874   3.595   3.690   7.155  0.1897  0.6770  0.3188
  348MOL0     O46875   3.606   3.806   7.232  0.2061 -0.3342 -0.3722
  348MOL0     C46876   3.484   3.847   7.277 -0.2950  0.0901  0.8034
  348MOL0     C46877   3.412   3.768   7.371 -0.3376 -0.9782 -0.4026
  348MOL0     C46878   3.280   3.813   7.409 -0.1241  0.3897  0.8730
  348MOL0     C46879   3.237   3.931   7.361  0.8692 -0.3789  0.1103
  348MOL0     O46880   3.118   3.992   7.395  0.9297  0.2774  0.4539
  348MOL0     C46881   3.023   3.911   7.473 -0.4452  0.7107  0.1072
  348MOL0     C46882   2.900   4.001   7.494 -0.3437 -0.1525  0.1953
  348MOL0     C46883   2.784   3.912   7.544 -0.2827 -0.1111  0.1329
  348MOL0     C46884   2.656   3.996   7.553 -0.1266 -0.4743 -0.0664
  348MOL0     C46885   2.528   3.902   7.570  0.1857 -0.0530  0.4278
  348MOL0     C46886   2.386   3.972   7.546  0.4944 -1.1792 -0.5936
  348MOL0     C46887   2.266   3.878   7.518  0.1988  0.0531  0.0659
  348MOL0     C46888   2.145   3.949   7.463  0.4882  0.2033  0.4229
  348MOL0    Cl46889   2.009   3.832   7.449  0.2754  0.3853  0.3474
  348MOL0     C46890   3.316   4.008   7.274 -0.2032 -0.3238 -0.1087
  348MOL0     C46891   3.434   3.961   7.223 -0.2796  0.3778  0.0393
  348MOL0     O46892   3.488   3.639   7.118  0.5777  0.5037  0.1010
  348MOL0     C46893   3.715   3.493   7.089 -0.5402  0.4682  0.2283
  348MOL0     C46894   3.832   3.423   7.057  0.2459 -0.7543 -0.2829
  348MOL0     N46895   3.741   3.031   6.871 -0.3895  0.4381  0.0572
  348MOL0     N46896   3.619   3.033   6.826 -0.2178  0.0500  0.2347
  348MOL0     C46897   2.930   3.232   5.868 -0.2226 -0.2959 -0.0611
  348MOL0     C46898   2.887   3.305   5.756 -0.3261  0.3439  0.0163
  348MOL0     C46899   2.730   3.448   5.363  1.4075  0.1428 -0.5676
  348MOL0     C46900   2.592   3.442   5.374 -0.2267  0.2666 -0.2654
  348MOL0     C46901   2.519   3.506   5.276  0.7602 -0.7112  0.8387
  348MOL0     C46902   2.579   3.571   5.165 -0.0175 -0.2754  0.5081
  348MOL0     O46903   2.487   3.622   5.078 -0.9105 -0.4273 -0.8284
  348MOL0     C46904   2.518   3.681   4.956 -0.8857 -0.2085 -0.2515
  348MOL0     C46905   2.568   3.827   4.980 -1.0400 -0.3702  0.5420
  348MOL0     C46906   2.471   3.926   5.045  0.8189 -0.0962  0.2504
  348MOL0     C46907   2.325   3.919   5.008 -0.2985 -0.4817  0.8095
  348MOL0     C46908   2.303   3.912   4.867 -0.1957  0.2991  0.5466
  348MOL0     C46909   2.289   3.897   4.744 -0.2842  0.0508 -0.2698
  348MOL0     C46910   2.716   3.580   5.151 -1.0224  0.1963 -0.6176
  348MOL0     C46911   2.791   3.523   5.257 -0.1601 -0.6171  0.3369
  348MOL0     C46912   2.939   3.565   5.256 -0.0366  0.4408  0.1833
  348MOL0     H46913   2.661   3.072   5.652 -0.4100 -0.0835 -0.1926
  348MOL0     H46914   2.745   2.941   5.835  1.2608 -0.6290 -0.6403
  348MOL0     H46915   3.042   3.171   6.115  0.2367 -0.0661 -0.1187
  348MOL0     H46916   2.866   3.173   6.152  0.6207  1.6994  0.4031
  348MOL0     H46917   3.062   2.942   6.209 -0.2562 -0.6724 -0.2158
  348MOL0     H46918   2.905   2.963   6.281  2.4201 -1.6690  0.7782
  348MOL0     H46919   3.011   3.218   6.343  1.4026  0.7131  1.2593
  348MOL0     H46920   3.151   3.121   6.320 -0.6189  2.4432 -0.8524
  348MOL0     H46921   2.941   3.125   6.531  1.4464  0.6268  2.0654
  348MOL0     H46922   3.003   2.963   6.503  0.9279 -0.6072 -1.1633
  348MOL0     H46923   3.155   3.207   6.589 -0.4984  0.2368  1.6333
  348MOL0     H46924   3.119   3.073   6.684 -1.3334 -0.3977 -0.9111
  348MOL0     H46925   3.248   2.923   6.533  1.7526 -0.9004 -3.7251
  348MOL0     H46926   3.318   3.076   6.456 -1.2531 -0.4917 -0.8155
  348MOL0     H46927   3.348   2.997   6.746  1.2421 -1.0150 -0.4446
  348MOL0     H46928   3.377   3.160   6.680  0.8298  0.3920  0.0214
  348MOL0     H46929   3.507   2.898   6.580  0.4628 -1.2924  1.4212
  348MOL0     H46930   3.537   3.059   6.519  1.6820  0.7156  1.6576
  348MOL0     H46931   3.808   2.972   6.564 -0.7081  2.6023 -1.9556
  348MOL0     H46932   3.989   2.874   6.789 -4.4305 -0.5950  1.7463
  348MOL0     H46933   4.023   3.004   6.682  0.6247 -0.6374  0.5344
  348MOL0     H46934   4.022   3.017   6.994 -2.2569 -0.6983 -0.6960
  348MOL0     H46935   4.153   3.035   6.886 -0.0174 -0.3603 -2.2638
  348MOL0     H46936   3.936   3.244   6.853  0.3986  1.1319  0.9097
  348MOL0     H46937   4.100   3.255   6.809 -2.3082  0.4439 -2.7193
  348MOL0     H46938   4.174   3.234   7.053 -0.4010 -0.4225  0.8539
  348MOL0     H46939   4.018   3.224   7.118  1.1796  1.0618  1.0951
  348MOL0     H46940   4.063   3.664   7.106 -0.7737  1.9288 -1.0340
  348MOL0     H46941   3.835   3.792   7.150 -1.6514  0.2350 -0.7761
  348MOL0     H46942   3.462   3.681   7.413  1.4421  0.2702  0.1562
  348MOL0     H46943   3.220   3.750   7.474  1.7167 -0.8220  1.4910
  348MOL0     H46944   2.993   3.812   7.437  0.3074  0.4017  0.3113
  348MOL0     H46945   3.071   3.894   7.570  1.6529 -0.7200 -1.0898
  348MOL0     H46946   2.921   4.078   7.569  1.9303 -1.7213  1.2522
  348MOL0     H46947   2.869   4.049   7.400  2.9741  0.5296 -0.6551
  348MOL0     H46948   2.775   3.823   7.480 -3.3119 -0.3761  0.7778
  348MOL0     H46949   2.803   3.880   7.647  1.9099 -1.3670 -0.6042
  348MOL0     H46950   2.645   4.068   7.472  2.3898  1.1075  0.8782
  348MOL0     H46951   2.656   4.063   7.640 -0.3965 -1.3416  0.6223
  348MOL0     H46952   2.518   3.858   7.670 -1.0443  0.9170  0.7495
  348MOL0     H46953   2.541   3.820   7.499  0.9629  1.1017 -0.8096
  348MOL0     H46954   2.361   4.032   7.634  1.6471 -2.5807  0.7473
  348MOL0     H46955   2.383   4.036   7.458  0.2016  0.2844  0.4415
  348MOL0     H46956   2.246   3.825   7.611 -1.3939 -2.6223 -1.6650
  348MOL0     H46957   2.306   3.804   7.448 -3.3867 -1.8661 -0.1739
  348MOL0     H46958   2.110   4.031   7.526  0.1250  0.0439  0.4337
  348MOL0     H46959   2.178   3.982   7.364  1.3212  0.4440  0.7765
  348MOL0     H46960   3.269   4.095   7.230 -1.9962 -0.9980  0.4007
  348MOL0     H46961   3.484   4.026   7.151  0.1178  0.8792  0.7496
  348MOL0     H46962   3.625   3.432   7.090 -0.0854 -0.3087  3.1208
  348MOL0     H46963   3.826   3.320   7.023  2.5697 -0.5117 -1.6445
  348MOL0     H46964   2.985   3.289   5.942 -1.9056  0.2303  0.8396
  348MOL0     H46965   2.908   3.410   5.740  1.4752 -0.2285 -1.7791
  348MOL0     H46966   2.544   3.380   5.448  1.9151 -2.4054 -0.9645
  348MOL0     H46967   2.411   3.503   5.283  0.8792 -4.0988  2.6906
  348MOL0     H46968   2.430   3.681   4.890 -0.2173  0.2897 -1.1676
  348MOL0     H46969   2.599   3.619   4.915 -2.6351 -2.5842 -0.3259
  348MOL0     H46970   2.591   3.859   4.878 -2.4850  3.6489  1.3084
  348MOL0     H46971   2.664   3.831   5.032 -0.8491  2.7428  0.1498
  348MOL0     H46972   2.502   4.030   5.039  2.7276 -0.7232 -2.6477
  348MOL0     H46973   2.481   3.893   5.149  0.4424  0.4491  0.4609
  348MOL0     H46974   2.277   3.831   5.053 -0.7586 -0.3141  0.6540
  348MOL0     H46975   2.276   4.012   5.039 -1.6941 -1.6043  2.1603
  348MOL0     H46976   2.256   3.888   4.642 -2.4491  4.8957 -0.2609
  348MOL0     H46977   2.756   3.628   5.062  1.7789  0.6063  0.7547
  348MOL0     H46978   2.962   3.612   5.353 -0.5895  1.6191 -0.2370
  348MOL0     H46979   2.996   3.474   5.233 -1.6456  0.1943 -3.5364
  348MOL0     H46980   2.960   3.643   5.182 -3.5093 -0.0272 -1.4727
  349MOL0     O46981   7.890   3.147   7.882 -0.0390 -0.5128  0.6342
  349MOL0     C46982   7.863   3.249   7.817  0.3089  0.2370 -1.1518
  349MOL0     O46983   7.943   3.301   7.710 -0.7099  0.5047 -0.0604
  349MOL0     C46984   8.062   3.239   7.676  0.0824 -0.5750  0.3199
  349MOL0     C46985   8.051   3.120   7.604 -0.2328 -0.0340  0.1950
  349MOL0     C46986   8.158   3.040   7.586  0.4874  0.8060 -0.5910
  349MOL0     C46987   8.280   3.078   7.643  0.0037  0.5324 -0.3583
  349MOL0     O46988   8.390   3.000   7.627 -0.0706 -0.6879  0.3815
  349MOL0     C46989   8.384   2.911   7.513 -0.1294 -0.3300 -0.0649
  349MOL0     C46990   8.512   2.864   7.460 -0.3870 -0.5005 -0.1396
  349MOL0     C46991   8.595   2.984   7.420 -0.1831 -0.7658 -0.1853
  349MOL0     C46992   8.679   3.050   7.531 -0.0054 -0.5177 -0.7247
  349MOL0     C46993   8.790   3.137   7.461  0.1568  0.3710  0.2831
  349MOL0     C46994   8.826   3.258   7.539 -0.5060 -0.0804  0.8518
  349MOL0     C46995   8.874   3.223   7.679 -0.3769 -0.6933 -0.3583
  349MOL0     C46996   8.969   3.335   7.733  0.2220 -0.1214  0.2928
  349MOL0     N46997   8.897   3.458   7.751  0.1382 -0.6964  0.2597
  349MOL0     C46998   8.768   3.476   7.807 -0.1418 -0.6447 -0.3160
  349MOL0     C46999   8.750   3.612   7.800 -0.8501 -0.5354 -0.8533
  349MOL0     C47000   8.631   3.678   7.866  0.1509  0.0137 -0.6324
  349MOL0     C47001   8.574   3.785   7.775  0.0412 -0.4579  0.0559
  349MOL0     C47002   8.484   3.737   7.659  0.3498  0.0667 -0.2269
  349MOL0     C47003   8.375   3.637   7.691  0.4620 -0.6339  0.4240
  349MOL0     O47004   8.286   3.671   7.800 -0.7614 -0.1938 -0.3493
  349MOL0     C47005   8.159   3.714   7.778  0.5134  0.0194 -0.2373
  349MOL0     C47006   8.112   3.809   7.679  0.3365 -0.1149  0.5054
  349MOL0     C47007   7.976   3.846   7.666 -0.0259  0.2948 -0.4771
  349MOL0     C47008   7.876   3.790   7.745 -0.1802  0.4287 -0.6476
  349MOL0     C47009   7.737   3.851   7.742 -0.3880 -0.0519 -0.6954
  349MOL0     O47010   7.723   3.995   7.728  0.2244  0.7858 -0.1513
  349MOL0     C47011   7.600   4.067   7.723 -0.1393  0.5649 -0.5611
  349MOL0     C47012   7.469   4.004   7.731 -0.7645  0.5519 -0.5773
  349MOL0     C47013   7.356   4.080   7.715  0.0900  0.1590  0.5140
  349MOL0     C47014   7.365   4.214   7.671 -0.7157  0.2460 -0.3117
  349MOL0     O47015   7.254   4.294   7.658  0.0151 -0.5639 -0.2080
  349MOL0     C47016   7.124   4.233   7.664  0.2261  0.0146 -0.4577
  349MOL0     C47017   7.021   4.342   7.626  0.0979  0.0139 -0.1237
  349MOL0     C47018   6.869   4.293   7.640 -0.2848  0.3963  0.3140
  349MOL0     C47019   6.756   4.391   7.607 -0.1493  0.3065  0.0898
  349MOL0     C47020   6.619   4.337   7.651  0.3323  0.2090 -0.0395
  349MOL0     C47021   6.563   4.228   7.559 -0.3013  0.1219  0.9341
  349MOL0     C47022   6.429   4.159   7.599 -1.1038 -0.3092  0.2218
  349MOL0     C47023   6.429   4.014   7.546  0.2265 -0.0392  0.3962
  349MOL0    Cl47024   6.541   3.921   7.654 -0.2107 -0.2877 -0.0860
  349MOL0     C47025   7.490   4.275   7.664  0.0608  0.3147 -0.8537
  349MOL0     C47026   7.605   4.201   7.683  0.6610  0.3394  0.2624
  349MOL0     O47027   7.652   3.773   7.776 -0.1218  0.2931  0.9548
  349MOL0     C47028   7.921   3.684   7.837  0.1572  0.3273 -0.2824
  349MOL0     C47029   8.061   3.656   7.858  0.0553 -0.4854  0.1976
  349MOL0     N47030   8.850   3.671   7.737 -0.1407  0.2119 -0.3226
  349MOL0     N47031   8.938   3.577   7.706 -0.4950  0.1253  0.1338
  349MOL0     C47032   8.290   3.202   7.711 -0.2365  0.5240 -0.4038
  349MOL0     C47033   8.175   3.278   7.730 -0.5470 -0.4021 -0.0836
  349MOL0     C47034   7.745   3.332   7.862  0.1458  0.7963  0.1105
  349MOL0     C47035   7.709   3.341   7.996  0.2002  0.2422 -0.2156
  349MOL0     C47036   7.607   3.407   8.046 -0.0964 -0.6241 -0.2554
  349MOL0     C47037   7.523   3.476   7.965 -0.1939 -0.9798  1.0110
  349MOL0     O47038   7.418   3.555   8.015  0.2106  0.3704 -0.4446
  349MOL0     C47039   7.285   3.516   7.984  0.3356 -0.4865  0.9217
  349MOL0     C47040   7.200   3.639   8.032  1.2313  0.3426 -0.3068
  349MOL0     C47041   7.203   3.762   7.942 -0.2839 -0.5471 -0.2978
  349MOL0     C47042   7.095   3.870   7.972 -0.0080 -0.5157 -0.4394
  349MOL0     C47043   6.960   3.818   7.936 -0.4325 -0.0028 -0.7148
  349MOL0     C47044   6.845   3.773   7.927 -0.0199 -0.2860  0.5183
  349MOL0     C47045   7.552   3.475   7.825  0.3628  0.7628  0.7022
  349MOL0     C47046   7.660   3.396   7.770  0.5585 -0.3212 -1.8395
  349MOL0     C47047   7.692   3.406   7.626 -0.4261 -0.2659  0.8969
  349MOL0     H47048   7.955   3.093   7.561  0.2437 -0.7021 -0.4736
  349MOL0     H47049   8.146   2.951   7.525 -0.7678 -1.1418  2.2975
  349MOL0     H47050   8.322   2.824   7.538  0.6930 -1.0443 -0.4541
  349MOL0     H47051   8.334   2.961   7.429 -2.1402 -0.2132  1.1494
  349MOL0     H47052   8.493   2.810   7.367  0.2035 -3.6157  1.4038
  349MOL0     H47053   8.565   2.798   7.530  1.7325  0.2915 -0.9138
  349MOL0     H47054   8.532   3.061   7.374 -0.7181 -1.5962 -0.8874
  349MOL0     H47055   8.662   2.945   7.343 -0.2773 -2.5118  0.5817
  349MOL0     H47056   8.607   3.107   7.590 -0.3993  0.1421 -1.8095
  349MOL0     H47057   8.725   2.977   7.597 -1.6486  0.2178  1.3232
  349MOL0     H47058   8.881   3.076   7.453 -1.4215 -2.3074  1.1961
  349MOL0     H47059   8.760   3.170   7.362  3.1747 -0.8961 -1.1894
  349MOL0     H47060   8.894   3.327   7.488 -0.6341  1.0790  2.1922
  349MOL0     H47061   8.732   3.312   7.554 -0.8487 -0.4226  0.0333
  349MOL0     H47062   8.933   3.131   7.681  2.7973  1.1669  2.1066
  349MOL0     H47063   8.795   3.216   7.754  0.6926 -1.5730  0.7361
  349MOL0     H47064   9.008   3.295   7.828  0.3553  1.2381  0.8302
  349MOL0     H47065   9.064   3.338   7.680  0.2522 -2.4529  0.0949
  349MOL0     H47066   8.706   3.404   7.859  0.5901 -1.4369 -0.5180
  349MOL0     H47067   8.561   3.601   7.900  1.2887 -0.0812  1.6874
  349MOL0     H47068   8.671   3.724   7.956  1.9190 -1.1290 -0.7906
  349MOL0     H47069   8.505   3.840   7.839  0.8854 -0.7593  1.2504
  349MOL0     H47070   8.664   3.834   7.737  0.6037 -1.4492  0.0719
  349MOL0     H47071   8.549   3.679   7.594  1.0558 -0.4322  0.8939
  349MOL0     H47072   8.442   3.818   7.599  1.6877  1.8046  1.0668
  349MOL0     H47073   8.418   3.541   7.721 -1.3049 -1.9013 -0.8900
  349MOL0     H47074   8.322   3.624   7.596  0.0701 -0.2924  0.5986
  349MOL0     H47075   8.196   3.856   7.629  1.0307  2.7881  3.9780
  349MOL0     H47076   7.954   3.924   7.593 -0.6448  1.0200  0.4716
  349MOL0     H47077   7.461   3.897   7.747 -0.0753  0.9212  2.9739
  349MOL0     H47078   7.261   4.027   7.710 -0.9378  1.8580  1.2322
  349MOL0     H47079   7.111   4.160   7.584  2.5965 -0.8166 -0.1671
  349MOL0     H47080   7.110   4.180   7.759  1.8544 -0.9134 -0.7060
  349MOL0     H47081   7.028   4.432   7.689 -2.6087 -0.2344  0.6456
  349MOL0     H47082   7.028   4.352   7.518 -2.2331 -1.4638 -0.4790
  349MOL0     H47083   6.853   4.215   7.565 -1.4647  2.0208 -1.2208
  349MOL0     H47084   6.844   4.263   7.742  0.0492  0.7808  0.5135
  349MOL0     H47085   6.768   4.407   7.500 -2.7504  0.8968 -0.1726
  349MOL0     H47086   6.777   4.486   7.658 -2.6631  0.4018  1.1118
  349MOL0     H47087   6.545   4.417   7.656 -1.2669 -1.1325 -1.1425
  349MOL0     H47088   6.620   4.292   7.750 -2.0476 -0.5862 -0.3163
  349MOL0     H47089   6.552   4.282   7.464 -0.2416  1.4946  1.6815
  349MOL0     H47090   6.637   4.149   7.542 -1.3953 -0.6294 -0.5660
  349MOL0     H47091   6.345   4.216   7.557  0.2769 -0.5433 -3.2218
  349MOL0     H47092   6.423   4.158   7.708  2.4235  1.7187  0.6126
  349MOL0     H47093   6.333   3.965   7.563 -0.6943  0.8854 -1.7368
  349MOL0     H47094   6.467   4.013   7.443  0.2466  1.3064  0.3692
  349MOL0     H47095   7.506   4.380   7.639 -1.0673  0.8096  0.3782
  349MOL0     H47096   7.704   4.242   7.668  1.3554 -1.3412 -0.0104
  349MOL0     H47097   7.838   3.635   7.888  0.4646 -0.8620 -0.8924
  349MOL0     H47098   8.088   3.592   7.941 -0.9295  1.6131  2.2434
  349MOL0     H47099   8.389   3.240   7.736  0.0565 -0.1727 -0.4784
  349MOL0     H47100   8.175   3.374   7.780  0.9531 -2.0687  3.4676
  349MOL0     H47101   7.767   3.291   8.073 -1.0982 -2.2781 -0.7557
  349MOL0     H47102   7.585   3.392   8.151 -3.7296 -0.4884 -0.8627
  349MOL0     H47103   7.252   3.429   8.042  0.2040 -0.8092  0.3754
  349MOL0     H47104   7.274   3.496   7.877 -2.5574 -0.1653  1.0709
  349MOL0     H47105   7.232   3.665   8.134 -3.3706  0.8531  1.2106
  349MOL0     H47106   7.094   3.614   8.040  0.8396  1.3501 -1.8661
  349MOL0     H47107   7.185   3.743   7.836 -3.7809  2.8993 -0.5611
  349MOL0     H47108   7.299   3.813   7.949 -1.7769  2.7081 -1.6163
  349MOL0     H47109   7.103   3.907   8.075 -0.2578  0.6261 -0.8076
  349MOL0     H47110   7.121   3.958   7.912 -0.1346 -0.3309 -0.2275
  349MOL0     H47111   6.746   3.734   7.916  0.3778 -1.2626  0.2065
  349MOL0     H47112   7.493   3.527   7.750  3.0717  0.1190 -2.1171
  349MOL0     H47113   7.596   3.414   7.574  0.4584 -1.0362 -0.9272
  349MOL0     H47114   7.760   3.489   7.607 -0.4681 -0.8518 -2.4108
  349MOL0     H47115   7.732   3.311   7.591  1.4473  0.3083  1.3952
  350MOL0     O47116  11.008   6.310   0.218 -0.3674 -0.6824  0.3990
  350MOL0     C47117  10.935   6.397   0.173 -0.8367  0.4119 -0.6596
  350MOL0     O47118  10.964   6.455   0.055  0.3349 -0.2258  0.2806
  350MOL0     C47119  11.086   6.446  -0.002 -0.7109 -0.5546  0.1678
  350MOL0     C47120  11.215   6.440   0.055  0.1824 -0.0423  0.5683
  350MOL0     C47121  11.327   6.457  -0.024  0.4507  0.4767  0.1695
  350MOL0     C47122  11.312   6.483  -0.161 -0.4793  0.0152  0.0791
  350MOL0     O47123  11.421   6.528  -0.239 -0.5958  0.1683 -0.1204
  350MOL0     C47124  11.554   6.529  -0.181 -0.0169  0.0318  0.3543
  350MOL0     C47125  11.653   6.558  -0.287 -0.3204 -0.3865  0.5772
  350MOL0     C47126  11.785   6.616  -0.234 -0.2310  0.0211 -0.1871
  350MOL0     C47127  11.848   6.535  -0.121  0.3501  0.1597  0.1111
  350MOL0     C47128  11.981   6.584  -0.086  0.7476  0.3836 -0.1227
  350MOL0     C47129  12.086   6.512  -0.168 -0.1338 -0.5983  0.2127
  350MOL0     C47130  12.224   6.571  -0.138 -0.3184 -0.1186  0.2456
  350MOL0     C47131  12.337   6.552  -0.247  0.1225 -0.9639 -0.8861
  350MOL0     N47132  12.463   6.581  -0.182 -0.0362 -0.1041 -0.2495
  350MOL0     C47133  12.519   6.705  -0.165 -0.4400 -0.0373  0.0648
  350MOL0     C47134  12.645   6.678  -0.108 -0.2148 -0.0816 -0.3352
  350MOL0     C47135  12.761   6.775  -0.078 -0.2857 -0.5031 -0.5674
  350MOL0     C47136  12.880   6.738  -0.168  0.4645 -0.5273  0.4980
  350MOL0     C47137  13.000   6.826  -0.147 -0.0161  0.0390  0.1575
  350MOL0     C47138  13.124   6.773  -0.214 -0.1171  0.7503 -1.0109
  350MOL0     O47139  13.225   6.867  -0.218 -0.0523 -0.2069 -1.0258
  350MOL0     C47140  13.348   6.838  -0.263 -0.1591  0.0471 -0.0459
  350MOL0     C47141  13.422   6.715  -0.259  1.0035  0.3372  0.3805
  350MOL0     C47142  13.559   6.701  -0.296 -0.0336 -0.6410  0.0289
  350MOL0     C47143  13.624   6.812  -0.352  0.4747  0.7174 -0.0413
  350MOL0     C47144  13.765   6.795  -0.386  0.2522 -0.9328 -0.9976
  350MOL0     O47145  13.845   6.909  -0.393  0.0789  0.5003 -0.0758
  350MOL0     C47146  13.972   6.885  -0.428 -1.0452 -0.5568  0.2398
  350MOL0     C47147  14.007   6.849  -0.566  0.2131 -0.1615 -0.8045
  350MOL0     C47148  14.145   6.846  -0.585 -0.7562 -0.1284 -0.2318
  350MOL0     C47149  14.244   6.864  -0.488  0.5681 -0.1160 -0.0848
  350MOL0     O47150  14.383   6.845  -0.506 -0.1683  0.3686 -0.3901
  350MOL0     C47151  14.434   6.817  -0.639 -1.1750  0.4152 -0.5379
  350MOL0     C47152  14.578   6.789  -0.634  0.2634  0.0260  0.2489
  350MOL0     C47153  14.609   6.667  -0.546  0.0602  0.4747  0.8708
  350MOL0     C47154  14.758   6.647  -0.538 -0.0741  0.3784 -1.1330
  350MOL0     C47155  14.827   6.595  -0.661 -0.7017  0.5570  0.5838
  350MOL0     C47156  14.964   6.652  -0.680  0.6492  0.9622  0.6701
  350MOL0     C47157  15.032   6.610  -0.813  0.0522 -0.0013  0.3010
  350MOL0     C47158  15.171   6.675  -0.820 -0.0762  0.1008 -0.1733
  350MOL0    Cl47159  15.257   6.604  -0.954 -0.2844  0.3439 -0.0558
  350MOL0     C47160  14.203   6.892  -0.355 -0.0109 -0.9174 -0.1786
  350MOL0     C47161  14.072   6.907  -0.322  0.0467 -0.9502 -0.2538
  350MOL0     O47162  13.798   6.676  -0.396 -0.5334  0.1373  0.2876
  350MOL0     C47163  13.546   6.937  -0.366 -0.3773 -0.5526  0.0186
  350MOL0     C47164  13.423   6.944  -0.308 -0.7194  0.6460  0.1109
  350MOL0     N47165  12.650   6.543  -0.088  0.8951  0.8730 -0.4323
  350MOL0     N47166  12.541   6.481  -0.135  0.1160 -0.4742 -0.5805
  350MOL0     C47167  11.185   6.485  -0.221  0.7632  0.1638  0.3250
  350MOL0     C47168  11.073   6.453  -0.145  0.4888 -0.9283 -1.4033
  350MOL0     C47169  10.816   6.432   0.247  0.2569  0.1901 -0.1985
  350MOL0     C47170  10.696   6.445   0.174  1.0647  0.1623  0.2540
  350MOL0     C47171  10.572   6.484   0.239 -0.1919 -1.0678 -0.7293
  350MOL0     C47172  10.574   6.529   0.375  0.9820  0.0064 -1.0932
  350MOL0     O47173  10.468   6.546   0.457 -0.5147 -0.8937 -0.7080
  350MOL0     C47174  10.341   6.524   0.401  0.5207  0.6529  0.0639
  350MOL0     C47175  10.255   6.505   0.518  0.1873 -0.0600 -0.0971
  350MOL0     C47176  10.292   6.371   0.594  0.0298  0.1911  0.0477
  350MOL0     C47177  10.209   6.351   0.719 -0.0955  0.2446 -0.5946
  350MOL0     C47178  10.079   6.290   0.689  0.0626  0.0431  0.7765
  350MOL0     C47179   9.970   6.245   0.667 -0.3633 -0.5654  0.3406
  350MOL0     C47180  10.702   6.525   0.446 -0.4325  0.0808  0.2454
  350MOL0     C47181  10.818   6.463   0.389  1.0900  0.1432  0.4525
  350MOL0     C47182  10.934   6.452   0.475 -0.1066 -0.7848  0.1142
  350MOL0     H47183  11.219   6.442   0.164 -0.3943  1.2596  0.5827
  350MOL0     H47184  11.426   6.454   0.021  0.0375  0.0590  1.0720
  350MOL0     H47185  11.553   6.603  -0.100 -0.9846  0.5663 -0.1322
  350MOL0     H47186  11.594   6.437  -0.139  2.2167  0.6077 -0.3286
  350MOL0     H47187  11.604   6.636  -0.346 -2.1794 -2.4887 -0.7914
  350MOL0     H47188  11.675   6.470  -0.347 -0.6320  0.3010 -0.5705
  350MOL0     H47189  11.759   6.717  -0.200  0.7321  0.2874 -0.2262
  350MOL0     H47190  11.859   6.630  -0.313 -0.3610  2.1725  0.0063
  350MOL0     H47191  11.779   6.539  -0.037  0.0516  0.8506 -0.1578
  350MOL0     H47192  11.869   6.436  -0.162 -3.3589  0.0008 -1.7723
  350MOL0     H47193  11.995   6.692  -0.088  1.5596  0.4408  2.9519
  350MOL0     H47194  11.997   6.556   0.019 -0.0319  2.4909  0.6285
  350MOL0     H47195  12.097   6.404  -0.149  0.1022 -0.4215  1.1217
  350MOL0     H47196  12.065   6.524  -0.275 -0.0173 -1.2488  0.1100
  350MOL0     H47197  12.259   6.517  -0.049 -3.0238 -1.1591  0.7684
  350MOL0     H47198  12.214   6.678  -0.120 -0.3977  0.0694 -0.8502
  350MOL0     H47199  12.329   6.452  -0.288  0.4369 -1.5712  0.4714
  350MOL0     H47200  12.313   6.628  -0.323  2.3878  0.1169 -0.6130
  350MOL0     H47201  12.478   6.804  -0.180  0.6738  0.7075  1.7053
  350MOL0     H47202  12.737   6.880  -0.098  1.1768 -0.1330 -0.4733
  350MOL0     H47203  12.782   6.759   0.028 -0.9261  0.9007 -0.2066
  350MOL0     H47204  12.907   6.636  -0.140 -1.1392 -1.9808 -2.6885
  350MOL0     H47205  12.851   6.736  -0.273 -0.8248  0.0318  0.8218
  350MOL0     H47206  13.017   6.830  -0.039  1.9503  0.8147 -0.1335
  350MOL0     H47207  12.970   6.921  -0.191 -3.7052 -0.5964  0.9947
  350MOL0     H47208  13.082   6.754  -0.314 -2.6754 -2.9012  0.5001
  350MOL0     H47209  13.169   6.681  -0.176  0.0279  1.7982  1.5538
  350MOL0     H47210  13.377   6.623  -0.223 -3.3811  2.2814  0.3801
  350MOL0     H47211  13.615   6.613  -0.268  2.1666  0.3810 -0.9413
  350MOL0     H47212  13.941   6.841  -0.651 -0.3100  1.4183 -0.5890
  350MOL0     H47213  14.176   6.839  -0.689  0.7786 -0.0308  0.1986
  350MOL0     H47214  14.388   6.723  -0.669  0.8602 -1.6956  2.4591
  350MOL0     H47215  14.413   6.904  -0.702 -3.6478  1.4973  1.6015
  350MOL0     H47216  14.623   6.774  -0.732  2.9334  0.0734  1.3743
  350MOL0     H47217  14.623   6.881  -0.595  1.0927  0.8492 -2.4669
  350MOL0     H47218  14.570   6.677  -0.444 -1.7526 -0.2945  0.2841
  350MOL0     H47219  14.569   6.579  -0.598 -1.4645  0.5718  1.8345
  350MOL0     H47220  14.775   6.579  -0.454 -0.3375  0.6930 -0.8187
  350MOL0     H47221  14.798   6.741  -0.499  2.7674 -1.4446  0.7028
  350MOL0     H47222  14.767   6.615  -0.750 -2.5682  1.0526  1.8888
  350MOL0     H47223  14.839   6.487  -0.663  0.7642  0.6912  0.9339
  350MOL0     H47224  14.949   6.760  -0.689 -3.9905  0.7728  2.8221
  350MOL0     H47225  15.020   6.617  -0.593 -0.7087 -0.5561  0.9815
  350MOL0     H47226  14.969   6.642  -0.896 -0.5820  1.0164  1.1474
  350MOL0     H47227  15.035   6.502  -0.830  1.3575 -0.0238  0.5095
  350MOL0     H47228  15.169   6.783  -0.838 -0.6726 -0.0453 -1.0720
  350MOL0     H47229  15.229   6.670  -0.728  4.0226 -0.4400 -2.5347
  350MOL0     H47230  14.274   6.907  -0.274 -0.2158 -1.9767  0.2160
  350MOL0     H47231  14.045   6.942  -0.223 -1.7810 -0.8107 -0.7625
  350MOL0     H47232  13.588   7.026  -0.410 -3.3196  1.8595  1.6856
  350MOL0     H47233  13.362   7.033  -0.317  0.9310  2.1933  2.9701
  350MOL0     H47234  11.176   6.509  -0.326 -0.4400  1.0276  0.6029
  350MOL0     H47235  10.975   6.452  -0.191 -1.2316 -0.9824  1.9526
  350MOL0     H47236  10.688   6.411   0.071 -0.0753  0.3258  0.2782
  350MOL0     H47237  10.485   6.463   0.177 -1.5733 -0.2169  0.8521
  350MOL0     H47238  10.342   6.442   0.328  0.1824  0.3224  0.4346
  350MOL0     H47239  10.306   6.610   0.343 -1.0697 -1.1755 -1.8354
  350MOL0     H47240  10.152   6.510   0.481  0.3756  3.6371 -0.4375
  350MOL0     H47241  10.270   6.584   0.592 -2.8029  2.1186 -1.5989
  350MOL0     H47242  10.392   6.395   0.631 -1.0666  2.7462  1.6919
  350MOL0     H47243  10.298   6.291   0.520  1.6392  1.0720 -0.8221
  350MOL0     H47244  10.266   6.294   0.793 -0.0622 -0.2367 -0.9847
  350MOL0     H47245  10.194   6.441   0.778  2.2118 -0.1903  0.8108
  350MOL0     H47246   9.881   6.196   0.633 -0.5684  1.5596 -2.5926
  350MOL0     H47247  10.696   6.563   0.547  0.8135 -0.8399  0.6922
  350MOL0     H47248  11.030   6.478   0.430  1.4647 -3.6878  1.5189
  350MOL0     H47249  10.928   6.499   0.573 -0.8495 -0.6722  0.0191
  350MOL0     H47250  10.951   6.345   0.494  0.9217 -0.6926 -0.2436
  351MOL0     O47251   0.139  10.083   2.437 -0.2677 -0.8111  0.3520
  351MOL0     C47252   0.103   9.979   2.498 -0.4151 -0.4920  0.2852
  351MOL0     O47253   0.196   9.897   2.558 -0.2168  0.3945  0.2752
  351MOL0     C47254   0.320   9.954   2.579 -0.2735 -0.3350  0.0024
  351MOL0     C47255   0.419   9.949   2.482  0.0985 -0.3581  0.6004
  351MOL0     C47256   0.551   9.989   2.519  0.2793 -0.0841  0.3300
  351MOL0     C47257   0.580  10.047   2.641  0.4057  0.3201 -0.6776
  351MOL0     O47258   0.678  10.132   2.675 -0.0481 -0.1633 -0.6095
  351MOL0     C47259   0.798  10.097   2.601 -0.1636  0.3931  0.3167
  351MOL0     C47260   0.889  10.203   2.667  0.8785 -0.3145 -0.4641
  351MOL0     C47261   1.038  10.191   2.625 -0.8306  0.6775  0.4469
  351MOL0     C47262   1.123  10.304   2.676 -0.4124 -0.3277  0.5739
  351MOL0     C47263   1.272  10.270   2.668  0.3171 -0.4346 -0.4618
  351MOL0     C47264   1.338  10.303   2.544 -0.3038 -0.2318  0.2346
  351MOL0     C47265   1.493  10.295   2.559  0.4028 -0.2411 -0.3082
  351MOL0     C47266   1.554  10.307   2.424  0.1308  0.4299  0.6753
  351MOL0     N47267   1.702  10.334   2.430 -0.5520 -1.0008  0.4884
  351MOL0     C47268   1.764  10.451   2.390  0.3133  0.5115 -0.8826
  351MOL0     C47269   1.892  10.435   2.427 -0.5286 -0.7087  0.2323
  351MOL0     C47270   2.000  10.529   2.396 -0.0553  0.1003 -0.1751
  351MOL0     C47271   1.988  10.667   2.480  0.3865 -0.4637  0.2541
  351MOL0     C47272   2.086  10.778   2.432  0.0456 -0.1305 -0.1462
  351MOL0     C47273   2.068  10.900   2.528 -0.1067 -0.8654  0.4911
  351MOL0     O47274   2.105  11.014   2.456 -0.6552  0.5609  0.1871
  351MOL0     C47275   2.241  11.047   2.460  0.5314 -0.6064  0.0913
  351MOL0     C47276   2.276  11.161   2.382 -0.3812 -0.1661 -0.3736
  351MOL0     C47277   2.408  11.209   2.369  0.7485  0.9607  0.0591
  351MOL0     C47278   2.510  11.121   2.411  0.4891 -0.5887  0.2890
  351MOL0     C47279   2.652  11.160   2.395  0.0382  0.6598  0.3013
  351MOL0     O47280   2.674  11.276   2.327  0.9206  0.0993  0.3539
  351MOL0     C47281   2.800  11.311   2.286 -1.0453  0.4322  0.3009
  351MOL0     C47282   2.872  11.228   2.198  0.5932  0.3566 -0.7443
  351MOL0     C47283   3.000  11.254   2.150 -0.3121 -0.0367 -1.3793
  351MOL0     C47284   3.062  11.376   2.193 -0.2762 -0.3242  0.3497
  351MOL0     O47285   3.180  11.427   2.141  0.2236 -0.0817  0.1716
  351MOL0     C47286   3.235  11.363   2.024 -1.2021 -0.0613  0.0002
  351MOL0     C47287   3.369  11.435   2.000 -0.4270  0.2010  0.5606
  351MOL0     C47288   3.470  11.424   2.105 -0.5119  0.7118 -0.0496
  351MOL0     C47289   3.611  11.386   2.062 -0.3626 -0.1118 -0.0839
  351MOL0     C47290   3.675  11.514   1.995  0.2270  0.7672 -0.2646
  351MOL0     C47291   3.823  11.503   1.953  0.7361 -0.4004  0.4542
  351MOL0     C47292   3.863  11.613   1.856 -0.9351 -0.0713  0.2702
  351MOL0     C47293   4.011  11.583   1.810  0.5845  0.7139  0.0684
  351MOL0    Cl47294   4.084  11.729   1.729 -0.0883  0.4467 -0.5937
  351MOL0     C47295   3.000  11.451   2.288  1.6265 -0.5869 -0.5382
  351MOL0     C47296   2.859  11.427   2.330  0.0220 -0.0704 -0.0495
  351MOL0     O47297   2.742  11.087   2.437  0.1386 -0.1811 -0.4605
  351MOL0     C47298   2.473  10.995   2.474 -0.4532  0.0211  0.2982
  351MOL0     C47299   2.351  10.960   2.503  0.4271  0.0718 -0.0888
  351MOL0     N47300   1.909  10.320   2.504  0.4165  0.9683  0.1961
  351MOL0     N47301   1.788  10.254   2.500 -0.5176 -0.5834 -0.1496
  351MOL0     C47302   0.476  10.044   2.731 -0.2595 -0.1405 -0.4087
  351MOL0     C47303   0.350   9.997   2.707 -0.4131  0.7711 -0.4148
  351MOL0     C47304  -0.033   9.935   2.496  0.2492  0.8171 -0.0662
  351MOL0     C47305  -0.080   9.874   2.378 -0.2705  0.0645  0.9872
  351MOL0     C47306  -0.196   9.801   2.376  0.4582 -0.1351  0.2298
  351MOL0     C47307  -0.269   9.786   2.496  0.2806 -0.8557  0.8054
  351MOL0     O47308  -0.379   9.699   2.487 -0.5964 -0.0283  0.7600
  351MOL0     C47309  -0.427   9.658   2.617  0.3779  0.3359 -0.4492
  351MOL0     C47310  -0.528   9.759   2.678 -0.1494 -0.3427  1.1085
  351MOL0     C47311  -0.655   9.777   2.593  0.1873 -0.0830 -0.3588
  351MOL0     C47312  -0.755   9.677   2.635 -0.1269 -0.0532 -0.8077
  351MOL0     C47313  -0.885   9.699   2.563 -0.3834  1.1181 -0.3958
  351MOL0     C47314  -0.996   9.709   2.515  0.4367  0.1139 -0.2476
  351MOL0     C47315  -0.236   9.849   2.611  0.0326 -1.4404 -0.5139
  351MOL0     C47316  -0.115   9.929   2.618  0.5916 -0.4127  0.1041
  351MOL0     C47317  -0.054   9.980   2.748  0.5709 -0.4665  0.5492
  351MOL0     H47318   0.395   9.933   2.377  2.5132  0.6112 -0.1559
  351MOL0     H47319   0.624   9.986   2.439  1.0893  1.5890  0.9693
  351MOL0     H47320   0.833   9.997   2.628 -1.6940 -0.2921 -0.1641
  351MOL0     H47321   0.794  10.113   2.493  2.9108  1.0375  0.1870
  351MOL0     H47322   0.872  10.185   2.773  0.6243 -0.7488 -0.5722
  351MOL0     H47323   0.849  10.302   2.640 -3.1764 -1.3547  0.9452
  351MOL0     H47324   1.032  10.205   2.517 -3.3485 -0.7170  0.3151
  351MOL0     H47325   1.068  10.089   2.653 -1.0247  0.2115 -0.9923
  351MOL0     H47326   1.100  10.392   2.616 -1.6428 -1.7621 -1.1598
  351MOL0     H47327   1.089  10.325   2.778 -1.9568 -0.5659  0.1355
  351MOL0     H47328   1.314  10.332   2.748 -1.0988  0.5658 -0.4615
  351MOL0     H47329   1.288  10.163   2.690 -2.4070 -0.8295 -0.0839
  351MOL0     H47330   1.308  10.229   2.469 -1.8044  1.5203 -1.0006
  351MOL0     H47331   1.310  10.404   2.510  0.2342  0.0109  0.5038
  351MOL0     H47332   1.529  10.207   2.614 -0.7429 -1.0243 -0.7922
  351MOL0     H47333   1.516  10.380   2.625 -0.1159 -1.0300  0.9204
  351MOL0     H47334   1.541  10.207   2.381 -0.4082  0.8751 -0.2297
  351MOL0     H47335   1.503  10.374   2.354  1.3876 -1.1016 -1.8765
  351MOL0     H47336   1.721  10.523   2.321  0.2911  0.1493 -1.2531
  351MOL0     H47337   2.095  10.478   2.415 -1.8729 -3.3789  0.3632
  351MOL0     H47338   1.992  10.555   2.289 -0.8429  0.8513  0.0533
  351MOL0     H47339   1.884  10.702   2.471 -1.4010 -4.4972  2.3747
  351MOL0     H47340   2.006  10.639   2.584 -1.5736 -4.1292 -0.2442
  351MOL0     H47341   2.081  10.807   2.327  1.1444  1.4394  0.2060
  351MOL0     H47342   2.189  10.749   2.454  0.4081  1.7693  0.8525
  351MOL0     H47343   2.133  10.895   2.616  1.2337  2.3176 -0.1710
  351MOL0     H47344   1.969  10.921   2.567  0.6029 -2.9064  3.8075
  351MOL0     H47345   2.196  11.218   2.336  2.7125  3.6875 -1.5102
  351MOL0     H47346   2.418  11.300   2.311 -2.7760  1.4925  0.0403
  351MOL0     H47347   2.812  11.145   2.163 -3.5909  2.8718 -0.2224
  351MOL0     H47348   3.048  11.193   2.075 -0.6791  1.0611 -2.5343
  351MOL0     H47349   3.260  11.259   2.043  2.2434  0.8995  1.5037
  351MOL0     H47350   3.178  11.374   1.931 -1.0274  0.7505 -0.0200
  351MOL0     H47351   3.416  11.396   1.909  0.0390 -2.0127  1.6781
  351MOL0     H47352   3.346  11.538   1.972  2.1897  0.2663 -1.8205
  351MOL0     H47353   3.471  11.518   2.162 -0.9662 -0.6187  2.2953
  351MOL0     H47354   3.435  11.341   2.167  0.2887 -2.7292 -3.7991
  351MOL0     H47355   3.599  11.308   1.986 -0.5427 -0.6328  0.4726
  351MOL0     H47356   3.673  11.341   2.140 -0.7429 -0.1894  0.1747
  351MOL0     H47357   3.665  11.604   2.057 -1.0147  0.5636 -0.1447
  351MOL0     H47358   3.620  11.537   1.904 -0.1456  0.8853 -0.0115
  351MOL0     H47359   3.893  11.506   2.038  0.5538  2.1832  0.5990
  351MOL0     H47360   3.839  11.407   1.903 -0.1539  0.4615 -1.5682
  351MOL0     H47361   3.869  11.707   1.911  0.1895  2.1152 -3.2822
  351MOL0     H47362   3.804  11.617   1.764 -2.2052  0.2388  1.0726
  351MOL0     H47363   4.078  11.551   1.891  2.6893  2.2980 -0.9535
  351MOL0     H47364   4.009  11.496   1.743 -0.8803  0.3426  0.5681
  351MOL0     H47365   3.046  11.541   2.328 -1.1750  0.1081  1.4794
  351MOL0     H47366   2.806  11.492   2.399  0.1358 -1.5680  1.5190
  351MOL0     H47367   2.543  10.919   2.506 -0.6272 -0.6215 -0.8193
  351MOL0     H47368   2.332  10.865   2.552 -2.1079  2.9814  5.5322
  351MOL0     H47369   0.499  10.086   2.829  1.4965  1.9487 -1.6406
  351MOL0     H47370   0.291   9.983   2.797  0.6208 -2.6808 -0.1496
  351MOL0     H47371  -0.022   9.875   2.286  0.6148  1.2475  1.5282
  351MOL0     H47372  -0.220   9.758   2.279  2.2949 -1.1502  0.1632
  351MOL0     H47373  -0.344   9.643   2.686 -0.0396 -1.5972 -0.3105
  351MOL0     H47374  -0.477   9.561   2.608  0.7617  0.1389 -0.5081
  351MOL0     H47375  -0.488   9.860   2.685  1.1888 -0.8238  0.6795
  351MOL0     H47376  -0.547   9.741   2.784 -1.9640  0.8053  1.0202
  351MOL0     H47377  -0.633   9.771   2.486  2.8058  2.1982 -0.0660
  351MOL0     H47378  -0.695   9.876   2.618 -0.9804 -1.2095  2.7370
  351MOL0     H47379  -0.714   9.579   2.609  0.2830  0.3317 -1.6384
  351MOL0     H47380  -0.775   9.683   2.742  1.7770  0.4662 -0.4302
  351MOL0     H47381  -1.096   9.706   2.476 -0.8487 -1.7420  2.8090
  351MOL0     H47382  -0.290   9.860   2.705  3.1609 -0.6270  1.3463
  351MOL0     H47383  -0.132  10.037   2.799  0.2395  0.1901 -0.6380
  351MOL0     H47384  -0.028   9.895   2.811 -0.0185 -0.1135  1.2776
  351MOL0     H47385   0.034  10.042   2.728  2.1655 -3.1565 -1.5449
  352MOL0     O47386   5.276   0.920   9.848 -0.0699  0.8100  0.0159
  352MOL0     C47387   5.275   0.801   9.849  0.4414 -0.1226 -0.4090
  352MOL0     O47388   5.372   0.721   9.918  0.0182 -0.7118  0.6676
  352MOL0     C47389   5.495   0.773   9.948  0.3688 -0.5251  0.3969
  352MOL0     C47390   5.543   0.740  10.074  0.0639 -0.0822 -0.1260
  352MOL0     C47391   5.666   0.787  10.115  0.1419 -0.4739  0.3041
  352MOL0     C47392   5.750   0.861  10.028  0.5301  0.9201 -0.1644
  352MOL0     O47393   5.870   0.887  10.087 -0.3423 -0.3533  0.7380
  352MOL0     C47394   5.967   0.983  10.029  0.0047 -0.1328  0.2678
  352MOL0     C47395   6.093   0.974  10.121  0.1132 -0.8560 -0.2789
  352MOL0     C47396   6.198   1.070  10.075 -1.5552  0.4431 -0.3331
  352MOL0     C47397   6.290   1.088  10.202  0.3457  0.2555  0.3495
  352MOL0     C47398   6.416   1.167  10.174 -0.0147  0.0278 -0.5232
  352MOL0     C47399   6.495   1.100  10.068  0.3229 -1.1472 -0.0550
  352MOL0     C47400   6.647   1.126  10.079 -0.3015  0.1503 -0.0288
  352MOL0     C47401   6.717   1.112   9.944  0.3624  0.1381  1.2796
  352MOL0     N47402   6.862   1.108   9.955 -1.1282  1.0220 -0.4340
  352MOL0     C47403   6.934   0.990   9.953 -0.1305  0.4027  0.3177
  352MOL0     C47404   7.062   1.034   9.958  0.8733 -0.4887  0.5178
  352MOL0     C47405   7.168   0.933   9.939 -0.2637 -0.9026  1.0135
  352MOL0     C47406   7.302   0.975   9.876 -0.7186  0.0641 -0.0047
  352MOL0     C47407   7.407   0.853   9.863  0.7895 -0.6752  0.6212
  352MOL0     C47408   7.411   0.743   9.963 -0.3900 -0.4506 -0.3372
  352MOL0     O47409   7.448   0.622   9.896  0.9255  0.8549 -1.0871
  352MOL0     C47410   7.574   0.611   9.855 -0.2689  0.3013  0.0896
  352MOL0     C47411   7.676   0.683   9.908  0.2915 -0.0724 -0.1854
  352MOL0     C47412   7.808   0.648   9.876 -0.2949  0.7310  0.0566
  352MOL0     C47413   7.842   0.540   9.783  0.4019  0.0515 -0.5205
  352MOL0     C47414   7.975   0.513   9.757 -0.5718  0.2853  0.1480
  352MOL0     O47415   8.071   0.536   9.852  0.2055 -0.1454  0.1091
  352MOL0     C47416   8.208   0.529   9.833  0.1467 -0.1269  0.2537
  352MOL0     C47417   8.266   0.585   9.719  0.3447 -1.1251 -0.2274
  352MOL0     C47418   8.406   0.593   9.716 -0.8455 -0.2970  0.3798
  352MOL0     C47419   8.491   0.546   9.826 -0.0111  0.0427  0.7690
  352MOL0     O47420   8.632   0.542   9.824  0.3963 -0.7334  0.9680
  352MOL0     C47421   8.708   0.556   9.694  0.4988 -0.5315  0.0689
  352MOL0     C47422   8.854   0.585   9.732  0.0960  0.0715 -0.1929
  352MOL0     C47423   8.870   0.728   9.803 -0.0822 -0.7724  0.4538
  352MOL0     C47424   9.023   0.745   9.817  0.4234 -0.8474  0.2155
  352MOL0     C47425   9.063   0.892   9.854  0.0949 -0.4785  0.0777
  352MOL0     C47426   9.199   0.920   9.797  0.1491  0.1705 -0.0560
  352MOL0     C47427   9.233   1.068   9.820  0.2659  0.0316  0.4366
  352MOL0     C47428   9.140   1.156   9.733  0.3117  0.4680  0.0578
  352MOL0    Cl47429   9.218   1.310   9.675  0.0693 -0.2508  0.1375
  352MOL0     C47430   8.426   0.500   9.936 -0.6752 -0.7614 -0.3539
  352MOL0     C47431   8.286   0.490   9.939 -0.0690  0.0038  0.3865
  352MOL0     O47432   7.997   0.467   9.645 -0.1373 -0.4360  0.7584
  352MOL0     C47433   7.737   0.467   9.729 -0.0235 -0.4196 -0.3889
  352MOL0     C47434   7.605   0.505   9.773 -0.1541  0.1404 -0.4845
  352MOL0     N47435   7.060   1.180   9.973 -0.2893  0.7667 -0.1112
  352MOL0     N47436   6.939   1.219   9.970  0.3694 -0.2587  0.5737
  352MOL0     C47437   5.705   0.885   9.899 -0.6096 -0.1213  1.1169
  352MOL0     C47438   5.582   0.845   9.859  0.1430  0.0090  0.3510
  352MOL0     C47439   5.170   0.723   9.768  0.5031 -0.6388  0.0629
  352MOL0     C47440   5.193   0.592   9.734 -0.5904 -0.3580  0.3376
  352MOL0     C47441   5.100   0.524   9.657 -0.5844 -0.0110 -0.2903
  352MOL0     C47442   4.981   0.582   9.614  0.4969  0.0644 -0.7182
  352MOL0     O47443   4.897   0.506   9.538  0.0321  0.3342 -0.1504
  352MOL0     C47444   4.779   0.458   9.604 -0.4470  0.3375  0.0185
  352MOL0     C47445   4.695   0.345   9.545 -0.1145  0.1479 -0.8752
  352MOL0     C47446   4.770   0.216   9.515  0.9313  0.0363 -0.4576
  352MOL0     C47447   4.672   0.118   9.439  0.9311 -0.2123  0.8150
  352MOL0     C47448   4.757   0.044   9.346 -0.4844 -0.1384  0.2146
  352MOL0     C47449   4.825  -0.004   9.259  0.2188  0.0777  0.3452
  352MOL0     C47450   4.965   0.714   9.642 -0.1217  0.5120 -0.4081
  352MOL0     C47451   5.053   0.788   9.720 -0.0401 -0.6229  0.0819
  352MOL0     C47452   5.029   0.941   9.735  0.2505 -0.3841 -0.0690
  352MOL0     H47453   5.484   0.685  10.147  2.6006 -3.6046 -0.5041
  352MOL0     H47454   5.693   0.774  10.219 -1.4021 -3.1838  0.4660
  352MOL0     H47455   6.000   0.964   9.927 -0.6155  1.9607 -0.3542
  352MOL0     H47456   5.916   1.079  10.030 -0.6123 -0.4194  2.6104
  352MOL0     H47457   6.126   0.869  10.118 -0.3381 -1.0964  1.6780
  352MOL0     H47458   6.064   0.993  10.225 -0.6677 -1.7315 -0.3224
  352MOL0     H47459   6.162   1.169  10.046  1.3228  1.4426 -0.7752
  352MOL0     H47460   6.254   1.020   9.996 -0.9186 -1.6107  1.3362
  352MOL0     H47461   6.232   1.143  10.277  4.1884  0.8110  3.2120
  352MOL0     H47462   6.302   1.000  10.265 -4.3440 -0.2928  0.8645
  352MOL0     H47463   6.390   1.269  10.146  0.1763  0.0337 -0.6852
  352MOL0     H47464   6.477   1.157  10.264  0.5731  0.4485 -0.8674
  352MOL0     H47465   6.472   0.993  10.065 -1.3086 -1.0105  3.3557
  352MOL0     H47466   6.454   1.138   9.974 -0.2036 -2.2429 -0.2809
  352MOL0     H47467   6.691   1.054  10.148  1.2706  1.9039  0.8911
  352MOL0     H47468   6.660   1.229  10.114  0.1240 -0.3427  1.3155
  352MOL0     H47469   6.691   1.021   9.888 -0.2770  1.0510  0.0478
  352MOL0     H47470   6.684   1.190   9.875  0.2601 -0.9725  0.0245
  352MOL0     H47471   6.892   0.890   9.952 -1.4027  0.9046  1.7281
  352MOL0     H47472   7.184   0.896  10.041 -0.0881  1.4870  1.9139
  352MOL0     H47473   7.130   0.846   9.886  2.9130 -1.0409 -1.3281
  352MOL0     H47474   7.282   1.022   9.780  0.9999  0.7751 -0.0587
  352MOL0     H47475   7.341   1.051   9.945  0.7033 -0.6784  0.0495
  352MOL0     H47476   7.507   0.897   9.852  0.1042  1.6730  2.8898
  352MOL0     H47477   7.381   0.809   9.766  0.3720 -1.9856  1.2978
  352MOL0     H47478   7.314   0.724  10.009 -0.6690 -1.0132 -1.1267
  352MOL0     H47479   7.476   0.777  10.045  0.3315  0.4392 -1.2540
  352MOL0     H47480   7.671   0.774   9.967  1.8309 -0.5342  0.7028
  352MOL0     H47481   7.883   0.719   9.911 -0.2991 -0.2520  2.2549
  352MOL0     H47482   8.212   0.624   9.633  2.2504  0.1151 -0.9239
  352MOL0     H47483   8.441   0.615   9.615 -0.9708 -1.6971  0.0055
  352MOL0     H47484   8.710   0.472   9.625  2.9768 -0.1997 -0.3639
  352MOL0     H47485   8.664   0.641   9.641  2.3307  1.4410  1.5148
  352MOL0     H47486   8.897   0.506   9.794  1.1023  0.3650 -0.5112
  352MOL0     H47487   8.903   0.570   9.635  0.3412 -3.4601  0.3393
  352MOL0     H47488   8.846   0.814   9.739  0.2298  0.0128  1.3682
  352MOL0     H47489   8.817   0.745   9.897 -0.5627  1.5102 -0.1558
  352MOL0     H47490   9.072   0.714   9.724  2.3758  1.2886  0.4423
  352MOL0     H47491   9.054   0.677   9.896 -0.2085 -0.6430  0.6448
  352MOL0     H47492   9.050   0.904   9.962  1.3396  0.4416  0.1420
  352MOL0     H47493   8.987   0.951   9.801 -0.3372 -0.0620  1.1458
  352MOL0     H47494   9.268   0.850   9.845  0.8051 -1.4278 -3.0293
  352MOL0     H47495   9.214   0.907   9.689 -0.9166  0.9476 -0.3136
  352MOL0     H47496   9.337   1.084   9.791 -1.2559  4.6477 -3.7714
  352MOL0     H47497   9.224   1.091   9.926  2.1700 -2.1192  1.1507
  352MOL0     H47498   9.086   1.101   9.656  1.0706 -1.1419  0.6334
  352MOL0     H47499   9.065   1.191   9.804  0.1610  0.7725 -0.2516
  352MOL0     H47500   8.486   0.480  10.025 -1.1798  1.7765  0.6443
  352MOL0     H47501   8.230   0.455  10.025 -1.1110  1.4932  0.3358
  352MOL0     H47502   7.760   0.374   9.677 -2.0911 -1.6867  0.8191
  352MOL0     H47503   7.522   0.440   9.747 -1.6020  1.4282  0.6684
  352MOL0     H47504   5.766   0.949   9.834 -0.2347 -1.3353  0.2294
  352MOL0     H47505   5.554   0.865   9.756  1.8250 -0.4420 -0.2283
  352MOL0     H47506   5.277   0.531   9.767  0.8018  0.8516 -0.8546
  352MOL0     H47507   5.105   0.417   9.642 -1.3471  0.1417 -1.8197
  352MOL0     H47508   4.725   0.552   9.624  0.6689  1.2240 -0.9875
  352MOL0     H47509   4.809   0.414   9.700 -0.6549  0.8817  0.3383
  352MOL0     H47510   4.657   0.384   9.450 -0.6937  0.0291 -0.6941
  352MOL0     H47511   4.607   0.318   9.604 -1.2646 -3.6047 -3.9663
  352MOL0     H47512   4.787   0.164   9.610  0.0771  1.5009  0.5491
  352MOL0     H47513   4.865   0.242   9.468 -0.2800  3.9469 -1.1092
  352MOL0     H47514   4.616   0.057   9.511 -3.5385  2.8897  0.3238
  352MOL0     H47515   4.596   0.174   9.384  1.3796  1.5866  1.9186
  352MOL0     H47516   4.895  -0.047   9.190  1.0229  3.0065 -0.7848
  352MOL0     H47517   4.872   0.760   9.610  0.1141  0.6295 -0.9390
  352MOL0     H47518   5.009   0.966   9.839 -0.3316  1.5421 -0.5833
  352MOL0     H47519   5.114   1.006   9.713  1.5937 -2.0865 -0.1139
  352MOL0     H47520   4.934   0.961   9.683 -0.3466 -0.2426  1.0593
  353MOL0     O47521   3.745   7.799   2.115  0.5945 -0.0834  0.3366
  353MOL0     C47522   3.643   7.744   2.156 -1.5189 -0.0497 -0.2782
  353MOL0     O47523   3.636   7.646   2.253 -0.4987  0.2430  0.6169
  353MOL0     C47524   3.746   7.572   2.292  0.0592  0.0113 -0.1330
  353MOL0     C47525   3.782   7.565   2.425 -0.7616  0.6409  0.4224
  353MOL0     C47526   3.895   7.495   2.466 -0.9286  0.7530  1.2362
  353MOL0     C47527   3.972   7.429   2.364  1.0472 -0.4205 -0.2807
  353MOL0     O47528   4.073   7.352   2.392 -0.8322 -0.0341 -0.0683
  353MOL0     C47529   4.048   7.217   2.438 -0.4438 -0.5091  0.0127
  353MOL0     C47530   4.109   7.105   2.365  0.1017 -0.3011 -0.3376
  353MOL0     C47531   4.041   7.094   2.227  1.2458 -0.5403  1.1070
  353MOL0     C47532   4.094   6.967   2.155  0.0113 -0.0106 -0.7242
  353MOL0     C47533   4.019   6.933   2.038  0.0583 -0.1956 -0.4898
  353MOL0     C47534   4.099   6.870   1.918  1.2040 -0.4734  0.5520
  353MOL0     C47535   4.178   6.983   1.841  0.0220 -0.4622  0.4347
  353MOL0     C47536   4.263   6.932   1.725 -0.1778 -0.1014 -0.0736
  353MOL0     N47537   4.333   7.046   1.655  0.3392 -0.0065  0.0460
  353MOL0     C47538   4.468   7.078   1.655  0.1222  1.0290 -0.9650
  353MOL0     C47539   4.478   7.189   1.578  0.2177 -0.2826  0.2698
  353MOL0     C47540   4.599   7.285   1.587  0.1403 -0.0594 -0.1001
  353MOL0     C47541   4.732   7.236   1.664  0.3400 -0.4158 -0.0286
  353MOL0     C47542   4.864   7.277   1.599 -0.0178  0.1015  0.2472
  353MOL0     C47543   4.886   7.230   1.455 -0.1184 -0.3983  0.2499
  353MOL0     O47544   5.016   7.267   1.407 -0.1234 -0.3896  0.5649
  353MOL0     C47545   5.062   7.190   1.298 -0.1042 -0.5416 -0.1931
  353MOL0     C47546   5.199   7.200   1.260  0.1244 -1.1029 -0.5226
  353MOL0     C47547   5.264   7.118   1.165  0.7484 -0.2423  0.0851
  353MOL0     C47548   5.186   7.023   1.092  0.4614 -1.3469 -0.0373
  353MOL0     C47549   5.246   6.942   0.982 -0.4289 -0.5698 -0.5993
  353MOL0     O47550   5.365   6.978   0.945 -0.2493  0.0087 -0.0329
  353MOL0     C47551   5.432   6.892   0.862 -0.5963  0.6024 -0.1428
  353MOL0     C47552   5.434   6.752   0.882 -0.6583  0.2395 -0.7270
  353MOL0     C47553   5.510   6.673   0.800  0.2373 -0.2833 -0.5305
  353MOL0     C47554   5.584   6.719   0.695 -1.4804  0.4485  0.1168
  353MOL0     O47555   5.668   6.621   0.637  0.1238 -0.2894 -0.3646
  353MOL0     C47556   5.723   6.646   0.507  1.2521 -0.2189  0.3590
  353MOL0     C47557   5.618   6.626   0.395 -0.4278  0.2683  0.4006
  353MOL0     C47558   5.655   6.704   0.260  0.2690 -0.3342 -0.1672
  353MOL0     C47559   5.785   6.655   0.203 -0.7363  0.6398  1.0377
  353MOL0     C47560   5.835   6.732   0.085  0.1899 -0.6503 -0.1462
  353MOL0     C47561   5.980   6.773   0.103  0.2298  0.8543 -0.5650
  353MOL0     C47562   6.066   6.647   0.080  0.3447  0.8000 -0.2648
  353MOL0     C47563   6.199   6.648   0.149 -0.1682  0.1370  0.2388
  353MOL0    Cl47564   6.182   6.613   0.322  0.2296 -0.0438 -0.0063
  353MOL0     C47565   5.567   6.850   0.666  0.2265  0.1503  0.1395
  353MOL0     C47566   5.499   6.940   0.744  0.2616  0.1679  0.3274
  353MOL0     O47567   5.164   6.866   0.915 -0.3766  0.0563 -0.3361
  353MOL0     C47568   5.053   7.020   1.120 -0.6469  0.0105  0.4593
  353MOL0     C47569   4.992   7.092   1.223 -0.6700  0.1026 -0.3043
  353MOL0     N47570   4.351   7.213   1.528 -0.6984 -0.0696 -0.4823
  353MOL0     N47571   4.261   7.130   1.571  0.2598  0.4316  0.7179
  353MOL0     C47572   3.932   7.431   2.232  0.4046  0.7924 -0.7598
  353MOL0     C47573   3.826   7.512   2.192 -0.6568  0.2813  0.3042
  353MOL0     C47574   3.512   7.764   2.080  0.0684 -1.2005 -0.3080
  353MOL0     C47575   3.406   7.802   2.161  0.1551 -0.2258 -0.2011
  353MOL0     C47576   3.282   7.833   2.105  0.0763  0.2638  0.5282
  353MOL0     C47577   3.273   7.832   1.961  1.0423  0.7381 -0.5276
  353MOL0     O47578   3.164   7.866   1.886 -0.7112  0.6907  0.2435
  353MOL0     C47579   3.048   7.893   1.954  0.8139 -0.2600 -0.1103
  353MOL0     C47580   2.937   7.965   1.872  0.2002 -0.2429 -1.3268
  353MOL0     C47581   2.848   7.868   1.788 -0.5965 -0.2805 -0.3266
  353MOL0     C47582   2.708   7.932   1.748 -0.6231 -0.8462 -0.3040
  353MOL0     C47583   2.641   7.870   1.633  0.2712 -0.4372  0.3992
  353MOL0     C47584   2.581   7.830   1.534 -0.2979 -0.2291 -0.0918
  353MOL0     C47585   3.382   7.812   1.881  0.6883 -0.5997 -0.3106
  353MOL0     C47586   3.498   7.774   1.937  0.6246 -0.6108 -0.0669
  353MOL0     C47587   3.608   7.746   1.843  0.3524 -0.2750 -0.6536
  353MOL0     H47588   3.721   7.621   2.494 -2.1120 -1.0702  0.6816
  353MOL0     H47589   3.924   7.500   2.570 -2.4472  2.0956  1.6392
  353MOL0     H47590   4.092   7.206   2.537  3.5773 -3.1693 -1.8082
  353MOL0     H47591   3.939   7.209   2.439 -1.0921  4.1273 -2.6548
  353MOL0     H47592   4.091   7.016   2.426  0.3640 -0.1259 -0.0068
  353MOL0     H47593   4.217   7.115   2.356  0.1896 -1.5031 -0.9235
  353MOL0     H47594   4.066   7.178   2.162 -3.5582  0.7721  0.5700
  353MOL0     H47595   3.932   7.101   2.228  1.1708 -1.6094  1.4245
  353MOL0     H47596   4.199   6.977   2.125  0.1988 -2.3150 -1.0020
  353MOL0     H47597   4.101   6.880   2.220  1.9963 -0.3978 -1.3707
  353MOL0     H47598   3.934   6.870   2.064 -0.6763  0.1501 -1.9637
  353MOL0     H47599   3.966   7.021   2.002 -1.6385 -1.7426 -1.9311
  353MOL0     H47600   4.177   6.802   1.952  2.6381  1.6075  1.6706
  353MOL0     H47601   4.028   6.813   1.858  0.4076 -0.7055  1.6821
  353MOL0     H47602   4.240   7.038   1.913 -0.0479 -0.4859  0.5131
  353MOL0     H47603   4.111   7.047   1.783  0.3604 -1.3893 -1.0503
  353MOL0     H47604   4.336   6.859   1.763 -0.9496 -0.7916  0.1027
  353MOL0     H47605   4.201   6.874   1.656 -0.7257 -0.3923  0.6479
  353MOL0     H47606   4.543   7.026   1.714  1.0862  2.7278 -0.6097
  353MOL0     H47607   4.621   7.322   1.486  0.4234 -0.4949 -0.1997
  353MOL0     H47608   4.566   7.378   1.634  2.6528  0.2859  1.1987
  353MOL0     H47609   4.730   7.270   1.768  0.2609 -1.1058  0.1997
  353MOL0     H47610   4.738   7.128   1.678  0.4182 -0.3247  0.6892
  353MOL0     H47611   4.948   7.237   1.656 -0.7028  1.2799  2.1843
  353MOL0     H47612   4.867   7.385   1.618  3.0440 -0.1020  1.3309
  353MOL0     H47613   4.816   7.281   1.388  0.4513 -0.9477 -0.8060
  353MOL0     H47614   4.870   7.121   1.455 -0.4834 -0.3649  1.8703
  353MOL0     H47615   5.254   7.271   1.321 -2.4366  0.7219 -0.1318
  353MOL0     H47616   5.371   7.127   1.155  0.5195  1.6592 -1.1039
  353MOL0     H47617   5.390   6.704   0.969  0.5627 -2.0980 -1.3117
  353MOL0     H47618   5.516   6.569   0.830 -1.5819 -0.2417  0.0864
  353MOL0     H47619   5.765   6.747   0.509 -1.7055  1.0778  1.3307
  353MOL0     H47620   5.808   6.583   0.477  1.3951  0.0694  0.1495
  353MOL0     H47621   5.624   6.522   0.364  0.5086  0.4751 -0.1713
  353MOL0     H47622   5.515   6.638   0.429 -0.5416 -2.2670  1.1181
  353MOL0     H47623   5.569   6.685   0.195 -2.2467  2.8590  1.8969
  353MOL0     H47624   5.662   6.811   0.283 -0.1651 -0.1057 -1.0623
  353MOL0     H47625   5.764   6.556   0.163  1.0621  0.5348  0.2455
  353MOL0     H47626   5.865   6.640   0.276 -2.6873 -1.1996  2.9378
  353MOL0     H47627   5.777   6.823   0.064  0.0467 -0.0054  2.6472
  353MOL0     H47628   5.820   6.678  -0.009  0.5146  0.7892 -1.0714
  353MOL0     H47629   6.010   6.857   0.040  1.2746  0.2320 -0.9280
  353MOL0     H47630   5.991   6.812   0.205  0.3344  1.3668 -0.7753
  353MOL0     H47631   6.096   6.631  -0.024  1.6093 -2.4774  0.5076
  353MOL0     H47632   6.014   6.556   0.109  0.3115  0.5992 -0.9204
  353MOL0     H47633   6.253   6.564   0.102  1.8071  0.6784  1.4077
  353MOL0     H47634   6.242   6.748   0.139  0.5228  0.0098  1.7387
  353MOL0     H47635   5.609   6.895   0.577  0.2108 -0.4866 -0.1959
  353MOL0     H47636   5.489   7.038   0.700 -0.6882  0.8398  1.9310
  353MOL0     H47637   4.989   6.952   1.065  0.2621  1.2130 -2.2578
  353MOL0     H47638   4.887   7.072   1.240 -0.4998 -0.4093  0.1785
  353MOL0     H47639   3.995   7.372   2.166 -0.8480  0.5096 -1.7491
  353MOL0     H47640   3.806   7.520   2.085 -0.8713  1.1917  0.4105
  353MOL0     H47641   3.432   7.796   2.266 -0.4439  0.4589 -0.0027
  353MOL0     H47642   3.203   7.850   2.177  0.5030 -0.9211  1.2887
  353MOL0     H47643   3.066   7.969   2.031 -2.9714  2.1857 -1.3706
  353MOL0     H47644   3.013   7.801   2.002 -0.0022 -0.2870 -0.7460
  353MOL0     H47645   2.982   8.039   1.806  0.9215  2.0506  1.5527
  353MOL0     H47646   2.870   8.014   1.942  1.4099  2.7175 -2.1011
  353MOL0     H47647   2.830   7.773   1.839  0.1008 -0.8485 -1.1189
  353MOL0     H47648   2.901   7.846   1.695 -2.7104 -2.5630 -1.0994
  353MOL0     H47649   2.627   7.926   1.821  0.0536 -1.3658  0.4173
  353MOL0     H47650   2.745   8.030   1.715  3.0815 -2.1373 -0.3726
  353MOL0     H47651   2.532   7.786   1.449  2.6251 -3.0732 -0.4921
  353MOL0     H47652   3.364   7.815   1.774 -0.0564 -0.8739 -0.2011
  353MOL0     H47653   3.570   7.675   1.769 -0.4704 -0.6094  0.0737
  353MOL0     H47654   3.638   7.841   1.798 -1.3456 -0.6793 -2.8006
  353MOL0     H47655   3.701   7.709   1.889  2.2186  0.8151 -3.2875
  354MOL0     O47656   1.281   8.353   0.113  0.0007  0.4439 -0.0381
  354MOL0     C47657   1.262   8.467   0.155  0.4142 -0.3977  0.9257
  354MOL0     O47658   1.358   8.563   0.173  0.2300  0.0974  0.5924
  354MOL0     C47659   1.488   8.538   0.140 -0.5489  0.4301 -0.2365
  354MOL0     C47660   1.585   8.502   0.228  0.8938  0.8635 -0.4616
  354MOL0     C47661   1.724   8.483   0.197  0.1954  1.0734  0.4778
  354MOL0     C47662   1.769   8.529   0.075 -0.6326 -0.3917  1.1541
  354MOL0     O47663   1.900   8.514   0.028 -0.1815 -0.7034 -0.3100
  354MOL0     C47664   1.980   8.632   0.048 -0.0844 -0.6835 -0.2926
  354MOL0     C47665   2.131   8.587   0.058  0.6790  0.1731 -0.5835
  354MOL0     C47666   2.211   8.681  -0.031 -0.4432  0.1563 -0.1015
  354MOL0     C47667   2.363   8.663  -0.018 -0.2426 -0.3954 -0.0180
  354MOL0     C47668   2.428   8.728   0.109 -0.0654  0.1540  0.5005
  354MOL0     C47669   2.578   8.702   0.131  0.2548  0.2676 -0.0443
  354MOL0     C47670   2.664   8.746   0.011 -0.2414 -0.0954  0.6479
  354MOL0     C47671   2.812   8.732   0.047 -0.7515 -0.1694 -0.1678
  354MOL0     N47672   2.886   8.794  -0.068  0.3268  0.8679 -0.1931
  354MOL0     C47673   2.941   8.724  -0.176 -0.2141 -0.5879  0.0927
  354MOL0     C47674   2.981   8.819  -0.266  0.0337 -0.3431 -0.2286
  354MOL0     C47675   3.026   8.793  -0.399 -0.1747  0.8420 -0.3820
  354MOL0     C47676   3.178   8.781  -0.410  0.2631 -0.1022 -0.3040
  354MOL0     C47677   3.226   8.748  -0.550 -0.3540 -0.3587 -0.5953
  354MOL0     C47678   3.383   8.749  -0.573 -0.1095  0.6354 -0.3984
  354MOL0     O47679   3.422   8.885  -0.540 -0.1732 -0.0420  0.0169
  354MOL0     C47680   3.498   8.961  -0.625 -0.2572  0.1118 -0.6537
  354MOL0     C47681   3.602   8.907  -0.704  0.0710 -0.1949  0.2808
  354MOL0     C47682   3.697   8.995  -0.770 -0.0805  0.3683  0.2880
  354MOL0     C47683   3.678   9.131  -0.767 -0.4571  0.6034  0.4892
  354MOL0     C47684   3.781   9.216  -0.833  0.7189  0.6030 -0.2851
  354MOL0     O47685   3.826   9.175  -0.955 -0.2725 -0.1747  0.0974
  354MOL0     C47686   3.963   9.187  -0.988  0.0582 -1.3572 -0.3082
  354MOL0     C47687   4.065   9.147  -0.899  0.2059 -0.5119  0.2528
  354MOL0     C47688   4.202   9.124  -0.935  0.7461  0.4633 -0.1770
  354MOL0     C47689   4.232   9.149  -1.072 -0.3539 -0.4583 -0.7483
  354MOL0     O47690   4.360   9.149  -1.120  0.2744  0.4284 -0.2174
  354MOL0     C47691   4.472   9.127  -1.034  0.0314  0.3956 -0.4152
  354MOL0     C47692   4.491   9.256  -0.952 -0.4562 -0.3690 -0.9281
  354MOL0     C47693   4.602   9.237  -0.852 -0.4308  0.8196  0.3936
  354MOL0     C47694   4.614   9.348  -0.744 -0.1882  0.4953 -0.2194
  354MOL0     C47695   4.733   9.320  -0.646  0.6147 -0.4064 -1.1982
  354MOL0     C47696   4.710   9.186  -0.573 -0.4216  0.8241 -0.5602
  354MOL0     C47697   4.785   9.183  -0.439 -0.6294  0.1273  0.2522
  354MOL0     C47698   4.774   9.057  -0.366  0.5371 -0.1283 -0.4176
  354MOL0    Cl47699   4.613   8.994  -0.354  0.3741 -0.2532 -0.2687
  354MOL0     C47700   4.132   9.181  -1.157  0.2843  0.4957  0.1691
  354MOL0     C47701   4.002   9.201  -1.118 -0.4702  0.5622 -0.1985
  354MOL0     O47702   3.805   9.324  -0.792 -0.0564  0.5534 -0.4131
  354MOL0     C47703   3.577   9.182  -0.687  0.3280 -0.3112 -0.3960
  354MOL0     C47704   3.484   9.101  -0.620 -0.5118  0.2318  0.6833
  354MOL0     N47705   2.973   8.937  -0.193  0.2841 -0.0838 -0.1266
  354MOL0     N47706   2.914   8.923  -0.083 -0.2100  0.0682  1.0818
  354MOL0     C47707   1.675   8.586  -0.016 -0.0286 -0.1592 -0.4084
  354MOL0     C47708   1.538   8.584   0.022 -0.1606 -0.0223  0.3659
  354MOL0     C47709   1.121   8.528   0.175  0.3670 -0.5922  0.3333
  354MOL0     C47710   1.110   8.666   0.213 -0.5043 -0.5522 -0.5452
  354MOL0     C47711   0.990   8.726   0.223 -0.2663 -1.0003  0.1766
  354MOL0     C47712   0.871   8.656   0.222  0.1663  0.0410  0.4051
  354MOL0     O47713   0.752   8.728   0.237 -0.0517 -0.0977  0.3757
  354MOL0     C47714   0.653   8.680   0.333 -0.2341 -0.7320  1.0683
  354MOL0     C47715   0.708   8.678   0.470  0.8656 -0.3459  0.3123
  354MOL0     C47716   0.778   8.794   0.529 -0.3202  0.3387 -0.1465
  354MOL0     C47717   0.819   8.766   0.677 -0.6674 -0.4334 -0.5795
  354MOL0     C47718   0.941   8.683   0.686 -0.5397  0.2986  0.1680
  354MOL0     C47719   1.044   8.620   0.684 -0.7416 -0.4176 -0.2735
  354MOL0     C47720   0.880   8.515   0.199 -0.0063  0.1997 -0.2521
  354MOL0     C47721   1.002   8.453   0.175  0.4727  0.6414 -1.0996
  354MOL0     C47722   1.001   8.299   0.173  0.0543 -0.0429  0.3917
  354MOL0     H47723   1.571   8.474   0.332  2.3538  1.2589 -0.1336
  354MOL0     H47724   1.798   8.436   0.262  0.2289 -3.1769 -2.2805
  354MOL0     H47725   1.965   8.703  -0.034 -1.0924  1.6016  1.7498
  354MOL0     H47726   1.946   8.691   0.134  0.1563  1.9726 -1.8929
  354MOL0     H47727   2.144   8.483   0.026 -0.4172 -1.4230  3.4324
  354MOL0     H47728   2.173   8.601   0.158  2.5169  0.3270 -1.3455
  354MOL0     H47729   2.203   8.785   0.002  3.3436  0.1728  1.2642
  354MOL0     H47730   2.189   8.653  -0.134 -3.0523 -1.9820  0.9182
  354MOL0     H47731   2.390   8.560  -0.043 -0.8879 -0.5076 -0.2732
  354MOL0     H47732   2.413   8.724  -0.094  1.5668 -2.8048 -0.9055
  354MOL0     H47733   2.424   8.837   0.100  2.2999  0.1722 -1.1457
  354MOL0     H47734   2.370   8.703   0.198 -0.7342 -2.3277 -0.5529
  354MOL0     H47735   2.611   8.744   0.226  2.3511 -0.4474 -0.4163
  354MOL0     H47736   2.575   8.593   0.144 -1.6969  0.4574  1.6116
  354MOL0     H47737   2.631   8.841  -0.031 -0.2173 -1.0153 -1.5818
  354MOL0     H47738   2.655   8.670  -0.068  1.6360 -0.3941  0.6831
  354MOL0     H47739   2.845   8.789   0.134 -0.8703 -0.2146 -0.0921
  354MOL0     H47740   2.842   8.629   0.071 -3.0444 -0.3007  2.7796
  354MOL0     H47741   2.923   8.619  -0.199 -3.2340  0.0769 -1.0692
  354MOL0     H47742   2.975   8.706  -0.442  1.3848  0.3822 -1.3615
  354MOL0     H47743   2.994   8.877  -0.461  1.3250  2.4708  0.9402
  354MOL0     H47744   3.217   8.881  -0.390  0.9873 -0.4686  0.1798
  354MOL0     H47745   3.220   8.710  -0.338  0.2044  0.3999  0.2294
  354MOL0     H47746   3.191   8.834  -0.608 -3.7205 -0.4724  1.0063
  354MOL0     H47747   3.180   8.656  -0.589 -1.8374  0.8330 -1.7668
  354MOL0     H47748   3.393   8.726  -0.679 -0.4608  0.2126 -0.3423
  354MOL0     H47749   3.433   8.668  -0.521  1.0367  0.0469 -2.3191
  354MOL0     H47750   3.604   8.799  -0.697 -1.2007 -0.1461  2.0042
  354MOL0     H47751   3.784   8.952  -0.818  0.3447 -0.4059  1.6762
  354MOL0     H47752   4.026   9.132  -0.799 -1.6269  1.2265 -0.1427
  354MOL0     H47753   4.278   9.097  -0.863 -0.0435  1.9165  1.2858
  354MOL0     H47754   4.468   9.036  -0.973 -0.5333  1.0007  0.4749
  354MOL0     H47755   4.550   9.127  -1.111 -1.0455  1.0526 -1.5360
  354MOL0     H47756   4.508   9.341  -1.019  1.2221  1.2808  1.4387
  354MOL0     H47757   4.404   9.287  -0.894  0.7649 -0.8821  1.2966
  354MOL0     H47758   4.595   9.138  -0.806  0.8615  1.1188  1.2829
  354MOL0     H47759   4.700   9.251  -0.900  0.7323 -0.0514  2.3857
  354MOL0     H47760   4.517   9.342  -0.692 -1.4661  2.0155 -2.2889
  354MOL0     H47761   4.625   9.448  -0.786  1.1478  0.0068 -1.0800
  354MOL0     H47762   4.746   9.397  -0.570  2.5037 -0.4270 -1.4467
  354MOL0     H47763   4.831   9.312  -0.694  2.7174  4.5608  1.4848
  354MOL0     H47764   4.603   9.172  -0.554  0.1170 -2.2438  0.8691
  354MOL0     H47765   4.739   9.095  -0.627  0.1613  0.5826  0.1518
  354MOL0     H47766   4.761   9.266  -0.371  1.0634 -1.1106  2.4637
  354MOL0     H47767   4.890   9.211  -0.453 -0.7129  0.5516  0.4300
  354MOL0     H47768   4.816   8.984  -0.436 -0.1906  0.7930 -1.8738
  354MOL0     H47769   4.811   9.043  -0.264 -0.8086  0.6880  0.2251
  354MOL0     H47770   4.161   9.193  -1.261 -0.9348 -0.1903 -0.2576
  354MOL0     H47771   3.921   9.213  -1.189 -0.4578 -1.6062 -0.6557
  354MOL0     H47772   3.573   9.290  -0.675  3.8391 -0.0262 -0.7887
  354MOL0     H47773   3.394   9.130  -0.568 -1.7504 -0.7523 -0.8167
  354MOL0     H47774   1.715   8.635  -0.104  0.6728 -2.3734 -1.3683
  354MOL0     H47775   1.456   8.622  -0.039 -0.7150 -0.7175  0.6660
  354MOL0     H47776   1.193   8.736   0.210 -0.0396 -1.1086 -0.7653
  354MOL0     H47777   0.984   8.833   0.240  0.3813 -0.8655 -0.3924
  354MOL0     H47778   0.617   8.581   0.303 -3.0031  0.6998 -0.7888
  354MOL0     H47779   0.570   8.750   0.328  1.0437  0.7602 -0.2481
  354MOL0     H47780   0.776   8.592   0.475  0.5211 -0.6451 -0.0509
  354MOL0     H47781   0.631   8.644   0.540  3.0836 -3.3321  1.5462
  354MOL0     H47782   0.711   8.879   0.513 -3.0502 -1.6010  0.0796
  354MOL0     H47783   0.873   8.797   0.476  0.6166  0.3731  1.4907
  354MOL0     H47784   0.833   8.865   0.723 -0.5377 -0.1021 -1.3204
  354MOL0     H47785   0.731   8.719   0.721 -0.4553 -1.3703 -1.1461
  354MOL0     H47786   1.143   8.578   0.693  1.2475  4.0954  1.7800
  354MOL0     H47787   0.785   8.462   0.209 -1.4816  2.5640 -0.8602
  354MOL0     H47788   1.080   8.268   0.242 -0.5495 -1.1441  0.6093
  354MOL0     H47789   0.915   8.253   0.223  2.3153 -2.6316  2.1394
  354MOL0     H47790   1.016   8.266   0.070 -0.5212 -0.2317  0.3645
  355MOL0     O47791   4.005   3.882   7.507 -0.2116  0.0068  0.1769
  355MOL0     C47792   3.972   3.992   7.458  0.3247 -0.2911 -0.0442
  355MOL0     O47793   4.037   4.058   7.366  0.0573  0.1798  0.3557
  355MOL0     C47794   4.167   4.018   7.323 -0.0793  0.0176  0.1745
  355MOL0     C47795   4.190   4.018   7.187 -0.2972  0.1197 -0.7640
  355MOL0     C47796   4.319   3.985   7.137  0.0107 -0.4696 -0.2961
  355MOL0     C47797   4.422   3.971   7.219 -0.7153  0.1158 -0.1031
  355MOL0     O47798   4.549   3.952   7.166 -0.8709  0.0078  0.2627
  355MOL0     C47799   4.660   3.956   7.247 -0.8030 -0.6804 -0.2583
  355MOL0     C47800   4.783   3.942   7.160 -0.0190 -0.0203  0.0601
  355MOL0     C47801   4.818   3.806   7.102  0.5766 -0.3012 -0.6606
  355MOL0     C47802   4.872   3.812   6.961 -0.1584 -0.0308  0.7545
  355MOL0     C47803   4.753   3.850   6.871  0.2895 -0.7522  0.2553
  355MOL0     C47804   4.790   3.862   6.725  0.4920 -0.6145 -0.5750
  355MOL0     C47805   4.858   3.735   6.665 -0.6564  1.1710  0.6033
  355MOL0     C47806   4.994   3.755   6.606  0.0894  0.9234 -0.2373
  355MOL0     N47807   5.098   3.798   6.704 -0.6662 -0.1107 -0.2863
  355MOL0     C47808   5.150   3.709   6.805 -0.6939  0.3969 -0.6052
  355MOL0     C47809   5.227   3.789   6.885  0.2050  0.6857 -0.0246
  355MOL0     C47810   5.303   3.763   7.011 -0.3256 -0.3858 -0.1687
  355MOL0     C47811   5.451   3.785   7.001 -0.1327 -0.5177 -0.6126
  355MOL0     C47812   5.516   3.785   7.145 -0.1503  0.1274  1.0946
  355MOL0     C47813   5.650   3.850   7.156 -0.6206 -0.5513  0.2504
  355MOL0     O47814   5.649   3.993   7.145  0.0816  0.1279  0.0793
  355MOL0     C47815   5.763   4.054   7.195 -0.7986 -0.2931 -0.7102
  355MOL0     C47816   5.867   3.990   7.269 -0.5026 -0.7358  0.2214
  355MOL0     C47817   5.976   4.065   7.303 -0.3506 -0.4567 -0.5286
  355MOL0     C47818   5.994   4.199   7.273 -0.2783  0.2221  0.2935
  355MOL0     C47819   6.119   4.268   7.315  0.0488 -0.2257 -0.1446
  355MOL0     O47820   6.123   4.402   7.299 -0.0085 -0.2431 -0.2486
  355MOL0     C47821   6.239   4.475   7.289 -0.3905  0.2510  0.2469
  355MOL0     C47822   6.264   4.540   7.170 -0.4391 -0.0517  0.0003
  355MOL0     C47823   6.383   4.613   7.163 -0.1528  0.2802 -0.2155
  355MOL0     C47824   6.475   4.631   7.269  0.1436  0.3590  0.6659
  355MOL0     O47825   6.591   4.714   7.260  0.2358 -0.0337  0.2217
  355MOL0     C47826   6.679   4.671   7.157  0.6345 -0.6555 -0.2717
  355MOL0     C47827   6.753   4.795   7.107  0.2841  0.4507  0.1209
  355MOL0     C47828   6.887   4.826   7.184  0.6367 -0.3230  0.4145
  355MOL0     C47829   6.978   4.912   7.093  0.2978 -0.0616  0.1926
  355MOL0     C47830   7.045   5.012   7.184 -0.7181 -0.4383  0.8137
  355MOL0     C47831   7.140   5.095   7.095  0.1927 -0.2707  1.0203
  355MOL0     C47832   7.221   5.210   7.166 -0.2184 -0.6620  0.6448
  355MOL0     C47833   7.329   5.138   7.265  0.0675 -0.0496  0.3551
  355MOL0    Cl47834   7.452   5.031   7.174 -0.5352  0.4223  0.3445
  355MOL0     C47835   6.450   4.559   7.381  0.1606 -0.3105 -1.0651
  355MOL0     C47836   6.334   4.483   7.392 -0.5425  0.2766 -1.1265
  355MOL0     O47837   6.213   4.197   7.343 -0.2788 -1.0653  0.3578
  355MOL0     C47838   5.889   4.261   7.208 -0.5249  0.5413 -0.0106
  355MOL0     C47839   5.779   4.191   7.160  0.7339 -0.3522  0.1150
  355MOL0     N47840   5.212   3.919   6.831 -0.2560  0.5283 -0.3251
  355MOL0     N47841   5.153   3.922   6.721 -0.1316  0.4308 -0.1178
  355MOL0     C47842   4.396   3.966   7.360 -0.6906  0.7099  0.5253
  355MOL0     C47843   4.268   3.990   7.415  0.8078 -0.9579  0.3779
  355MOL0     C47844   3.841   4.054   7.492  0.0877  1.0458  1.0111
  355MOL0     C47845   3.821   4.189   7.466  0.0571  0.4110 -0.0579
  355MOL0     C47846   3.704   4.258   7.483 -0.0038  0.7432  0.1652
  355MOL0     C47847   3.589   4.201   7.539 -0.4499  0.3566  0.6552
  355MOL0     O47848   3.486   4.278   7.561  0.3027  0.5847  0.2565
  355MOL0     C47849   3.377   4.242   7.654 -0.1869  0.4596 -1.5251
  355MOL0     C47850   3.259   4.340   7.660  0.0183 -0.1206 -0.6713
  355MOL0     C47851   3.206   4.369   7.522  0.3233 -0.3737 -0.4617
  355MOL0     C47852   3.086   4.477   7.530 -0.3744  0.2492 -0.8396
  355MOL0     C47853   2.966   4.418   7.590  0.8143  0.0643 -0.2122
  355MOL0     C47854   2.869   4.364   7.646  0.2222  1.4433  0.0153
  355MOL0     C47855   3.610   4.064   7.567  1.6121 -0.9872  0.1296
  355MOL0     C47856   3.729   3.983   7.549  0.1804  0.1414  0.8717
  355MOL0     C47857   3.721   3.830   7.572 -0.0083  0.0978  0.1590
  355MOL0     H47858   4.123   4.045   7.107 -2.8372 -0.6143  0.9752
  355MOL0     H47859   4.333   4.007   7.032 -1.6303  3.5736  0.1375
  355MOL0     H47860   4.663   4.045   7.310 -1.0727 -1.5045  0.9670
  355MOL0     H47861   4.652   3.874   7.320  1.4395 -0.4638  0.2951
  355MOL0     H47862   4.857   3.959   7.239 -1.1423 -3.1442  1.9652
  355MOL0     H47863   4.801   4.023   7.089  1.3065  0.4666  0.9123
  355MOL0     H47864   4.735   3.734   7.103  0.2539  0.0054 -2.4219
  355MOL0     H47865   4.899   3.761   7.161  1.6853  1.6624 -0.6122
  355MOL0     H47866   4.943   3.894   6.948  0.8544 -0.3772  3.4218
  355MOL0     H47867   4.918   3.717   6.932  0.4985  0.4206  0.2880
  355MOL0     H47868   4.675   3.776   6.890 -0.2397 -0.3463 -0.2951
  355MOL0     H47869   4.714   3.946   6.903  0.5189 -1.0751  1.5431
  355MOL0     H47870   4.699   3.888   6.671 -0.3668  0.2247  1.1908
  355MOL0     H47871   4.849   3.950   6.701  0.4032 -0.5153 -0.4281
  355MOL0     H47872   4.799   3.697   6.580 -0.2036 -3.6385  2.1011
  355MOL0     H47873   4.865   3.648   6.732  0.5372  0.8502  0.0917
  355MOL0     H47874   5.015   3.655   6.567 -0.5827 -0.2912  2.2503
  355MOL0     H47875   4.993   3.823   6.521 -1.2563  0.0607 -0.9367
  355MOL0     H47876   5.133   3.603   6.820 -2.1480  0.7972  0.8746
  355MOL0     H47877   5.262   3.820   7.095 -1.4168  0.3534 -1.1791
  355MOL0     H47878   5.284   3.659   7.036 -4.6740  0.4759  1.0136
  355MOL0     H47879   5.487   3.694   6.952 -1.6439 -2.2287  1.2583
  355MOL0     H47880   5.455   3.879   6.946 -0.0757  1.4211  2.4403
  355MOL0     H47881   5.525   3.680   7.172  0.4866  0.2292  1.2958
  355MOL0     H47882   5.447   3.823   7.222 -0.9589  0.6132  0.1510
  355MOL0     H47883   5.724   3.801   7.091 -0.8760 -0.3611 -0.1902
  355MOL0     H47884   5.680   3.814   7.255 -1.4451 -2.2155 -0.0722
  355MOL0     H47885   5.869   3.885   7.294 -1.4858 -0.3188  2.3458
  355MOL0     H47886   6.054   4.013   7.358 -1.0466 -1.1990 -0.2272
  355MOL0     H47887   6.195   4.526   7.088 -0.3736  0.0801 -0.0767
  355MOL0     H47888   6.404   4.660   7.067 -0.8357  1.0863  0.0152
  355MOL0     H47889   6.754   4.597   7.186  1.2620 -1.0315 -2.5895
  355MOL0     H47890   6.632   4.616   7.075  1.6739 -0.1970 -1.2048
  355MOL0     H47891   6.784   4.783   7.003  3.2155  1.6048  0.7512
  355MOL0     H47892   6.694   4.885   7.128  0.0869 -0.0564  1.9247
  355MOL0     H47893   6.877   4.887   7.275 -0.2149 -0.0100  0.1189
  355MOL0     H47894   6.935   4.731   7.212  1.3772 -0.1052 -0.0771
  355MOL0     H47895   6.924   4.952   7.007  0.5758 -2.2653 -1.0640
  355MOL0     H47896   7.051   4.847   7.044  0.9647  0.9917 -0.2569
  355MOL0     H47897   7.087   4.951   7.265 -1.0202 -2.4824 -0.4833
  355MOL0     H47898   6.971   5.079   7.230 -2.4229  0.0581 -2.3939
  355MOL0     H47899   7.211   5.033   7.040 -1.8182 -0.6034 -1.3824
  355MOL0     H47900   7.073   5.147   7.025  1.6344 -0.2796 -0.4222
  355MOL0     H47901   7.159   5.287   7.215 -2.3100 -0.8790 -1.4758
  355MOL0     H47902   7.272   5.274   7.094 -1.4212  1.4875  1.5675
  355MOL0     H47903   7.386   5.208   7.327  1.6189 -1.2808  0.3929
  355MOL0     H47904   7.272   5.076   7.333  0.3209  0.2733  0.8656
  355MOL0     H47905   6.505   4.564   7.474 -2.2687  1.3651  0.3972
  355MOL0     H47906   6.304   4.431   7.482 -0.2799  0.0799 -1.1489
  355MOL0     H47907   5.884   4.369   7.192 -1.3175  0.8851  2.2127
  355MOL0     H47908   5.710   4.247   7.097  1.6788  0.5066 -0.1777
  355MOL0     H47909   4.471   3.936   7.432 -0.1347  1.1730  0.1459
  355MOL0     H47910   4.255   3.986   7.522 -1.8322 -1.6002  0.1219
  355MOL0     H47911   3.906   4.242   7.424  0.5034 -0.5820 -0.4325
  355MOL0     H47912   3.706   4.355   7.435 -0.0611 -0.0932 -1.6110
  355MOL0     H47913   3.408   4.222   7.757 -1.0358 -1.5158 -1.6061
  355MOL0     H47914   3.339   4.146   7.618 -0.3105  0.2682 -0.9058
  355MOL0     H47915   3.286   4.438   7.702 -0.7112 -0.5987  1.0120
  355MOL0     H47916   3.176   4.304   7.721  0.3826  2.0567  1.2978
  355MOL0     H47917   3.156   4.278   7.489  0.6248 -0.4592 -0.6897
  355MOL0     H47918   3.283   4.406   7.453  1.0634  0.5639  0.8178
  355MOL0     H47919   3.126   4.555   7.597  1.3517 -0.6943 -0.6974
  355MOL0     H47920   3.060   4.512   7.430 -3.6646 -1.0632 -0.5456
  355MOL0     H47921   2.783   4.320   7.692  0.7873 -0.1160 -0.3346
  355MOL0     H47922   3.525   4.011   7.608 -0.0057  2.9374  2.3522
  355MOL0     H47923   3.730   3.788   7.471 -1.3370  1.0046 -0.3693
  355MOL0     H47924   3.801   3.796   7.638 -0.7753  0.9356  1.5644
  355MOL0     H47925   3.631   3.789   7.620  1.3138 -0.8459  1.9331
  356MOL0     O47926   4.485   4.307   5.375  0.1262 -0.2546 -0.7892
  356MOL0     C47927   4.463   4.423   5.380 -0.0066 -0.9034  0.5181
  356MOL0     O47928   4.551   4.516   5.417 -0.5959 -0.3297 -0.0303
  356MOL0     C47929   4.686   4.486   5.433  0.1307 -0.6569 -0.2498
  356MOL0     C47930   4.791   4.531   5.347  0.0502 -0.8843  0.1432
  356MOL0     C47931   4.927   4.496   5.371  0.1785 -0.0664 -0.2184
  356MOL0     C47932   4.962   4.418   5.477 -0.7741  0.4119 -0.2349
  356MOL0     O47933   5.089   4.408   5.512 -0.2889 -0.0662  0.2072
  356MOL0     C47934   5.136   4.286   5.562 -0.0515  0.2714 -0.1919
  356MOL0     C47935   5.282   4.277   5.533 -0.3753 -0.2221 -0.2112
  356MOL0     C47936   5.371   4.298   5.658 -0.4770  0.3665 -0.4782
  356MOL0     C47937   5.526   4.316   5.652  0.9284 -0.0351  1.0553
  356MOL0     C47938   5.566   4.467   5.639 -0.3053  0.6311 -0.1778
  356MOL0     C47939   5.721   4.459   5.636 -0.3312 -0.2454  0.3435
  356MOL0     C47940   5.772   4.599   5.582  0.1602  0.4214 -0.2671
  356MOL0     C47941   5.927   4.619   5.562  0.0351 -0.0797 -0.1982
  356MOL0     N47942   5.998   4.588   5.689  0.3089 -0.5467  0.1242
  356MOL0     C47943   6.124   4.519   5.684 -0.6151  0.2259 -0.9110
  356MOL0     C47944   6.185   4.545   5.801  0.1460 -0.9098  0.3547
  356MOL0     C47945   6.320   4.512   5.856 -0.3901  0.1196  0.2971
  356MOL0     C47946   6.407   4.414   5.774  0.5369 -0.1962  0.7285
  356MOL0     C47947   6.550   4.408   5.835 -0.7987  0.0003 -0.7645
  356MOL0     C47948   6.662   4.483   5.756  0.2780 -0.0273 -0.4953
  356MOL0     O47949   6.774   4.399   5.733  0.0647 -0.0604 -0.0467
  356MOL0     C47950   6.896   4.449   5.681  0.7593  0.1533 -0.8374
  356MOL0     C47951   7.016   4.406   5.749  0.0359  0.4806  0.1976
  356MOL0     C47952   7.141   4.454   5.701  0.9832  0.8383 -0.5337
  356MOL0     C47953   7.143   4.545   5.593  0.6922 -0.0297 -0.6142
  356MOL0     C47954   7.273   4.585   5.533 -0.2156  0.0655 -0.0809
  356MOL0     O47955   7.380   4.515   5.568  0.6867 -0.4686 -0.4498
  356MOL0     C47956   7.511   4.539   5.520  0.4656  0.3793  0.5069
  356MOL0     C47957   7.547   4.570   5.387  0.1971  0.1051 -0.4148
  356MOL0     C47958   7.677   4.606   5.364  1.0750  0.6196 -0.2445
  356MOL0     C47959   7.782   4.601   5.460  0.4455 -0.6346 -0.3946
  356MOL0     O47960   7.909   4.647   5.426 -0.2223 -0.1788  0.0405
  356MOL0     C47961   8.021   4.604   5.504  0.6450  0.3224 -0.0010
  356MOL0     C47962   8.149   4.642   5.433 -0.2389 -0.1162  0.0568
  356MOL0     C47963   8.261   4.541   5.479 -0.2312 -0.1451 -0.5454
  356MOL0     C47964   8.388   4.577   5.406 -0.0418 -0.7218  0.0721
  356MOL0     C47965   8.496   4.468   5.427 -0.9022  1.0695 -0.0036
  356MOL0     C47966   8.629   4.511   5.353 -0.5578 -0.3581  0.0558
  356MOL0     C47967   8.763   4.447   5.412 -0.6541 -0.1225 -0.1642
  356MOL0     C47968   8.878   4.485   5.321 -0.4358  0.5550  0.2725
  356MOL0    Cl47969   9.013   4.576   5.418  0.2816 -0.0816  0.3737
  356MOL0     C47970   7.744   4.569   5.594 -0.5395  0.5486  1.2071
  356MOL0     C47971   7.610   4.535   5.613  0.0494 -0.4181 -1.2271
  356MOL0     O47972   7.270   4.671   5.447 -0.1896  0.4070  0.1636
  356MOL0     C47973   7.023   4.589   5.535  0.2397 -0.5195  0.0162
  356MOL0     C47974   6.895   4.553   5.585  0.2882  0.5021 -0.0133
  356MOL0     N47975   6.102   4.639   5.865  0.3773  0.0055 -0.0979
  356MOL0     N47976   5.994   4.664   5.797  0.4166 -0.2566  0.1056
  356MOL0     C47977   4.857   4.368   5.553 -0.0248 -0.2180 -0.3303
  356MOL0     C47978   4.725   4.398   5.529  0.7268 -0.1522 -0.3963
  356MOL0     C47979   4.325   4.464   5.337  0.3653  0.1555  0.2556
  356MOL0     C47980   4.314   4.597   5.287  0.5569 -1.3295 -0.0238
  356MOL0     C47981   4.191   4.654   5.256  0.5863 -0.0055 -0.6710
  356MOL0     C47982   4.075   4.575   5.254  0.4241  0.3519  0.2402
  356MOL0     O47983   3.949   4.617   5.245 -0.1249  0.9823 -0.0049
  356MOL0     C47984   3.925   4.741   5.169  0.3118 -0.5251  0.3909
  356MOL0     C47985   3.857   4.712   5.032 -0.2692  0.9744 -0.3533
  356MOL0     C47986   3.728   4.637   5.037  0.5705  0.2657  0.2793
  356MOL0     C47987   3.669   4.611   4.898 -0.1598  0.1664 -0.2070
  356MOL0     C47988   3.628   4.729   4.815 -0.6950  0.2895 -0.3258
  356MOL0     C47989   3.579   4.815   4.748 -0.8385  0.7988 -1.0665
  356MOL0     C47990   4.090   4.448   5.286 -0.2600  0.4674 -0.7056
  356MOL0     C47991   4.211   4.394   5.340  0.6474  0.5071 -0.3936
  356MOL0     C47992   4.202   4.248   5.387 -0.8031  0.3104 -0.3401
  356MOL0     H47993   4.768   4.575   5.251 -0.1385 -4.5810 -1.6860
  356MOL0     H47994   5.009   4.543   5.318 -0.1087  0.7139  0.0044
  356MOL0     H47995   5.113   4.275   5.669 -2.0921 -1.8642 -0.7674
  356MOL0     H47996   5.086   4.198   5.520 -1.3542 -0.2848  2.3103
  356MOL0     H47997   5.317   4.340   5.451  3.8279 -2.8561 -0.7231
  356MOL0     H47998   5.301   4.174   5.504  1.1935 -0.2516  0.7993
  356MOL0     H47999   5.345   4.207   5.714  0.5844  0.2954 -0.0745
  356MOL0     H48000   5.332   4.384   5.713  1.3745  3.0634 -3.0746
  356MOL0     H48001   5.553   4.272   5.749 -4.7769 -1.6880  2.2368
  356MOL0     H48002   5.574   4.255   5.575 -1.3211 -0.9848  0.3222
  356MOL0     H48003   5.533   4.514   5.546  0.9900  2.0116  0.0160
  356MOL0     H48004   5.526   4.514   5.729 -3.2242 -2.4172  0.2881
  356MOL0     H48005   5.749   4.440   5.740 -0.5018  1.4874  0.7393
  356MOL0     H48006   5.769   4.378   5.582  2.3916  1.9464 -0.7810
  356MOL0     H48007   5.749   4.679   5.653  2.0592  1.1396 -0.4143
  356MOL0     H48008   5.725   4.626   5.486  2.1397  2.2551 -0.7883
  356MOL0     H48009   5.961   4.538   5.496 -0.3906 -2.3155  2.1720
  356MOL0     H48010   5.961   4.715   5.523 -0.6678  1.1814  2.0785
  356MOL0     H48011   6.177   4.467   5.605 -0.1567  0.0850 -0.5124
  356MOL0     H48012   6.370   4.609   5.849 -2.3416  1.1315 -0.1559
  356MOL0     H48013   6.317   4.468   5.956  0.0859 -0.6729 -0.0246
  356MOL0     H48014   6.375   4.310   5.779  2.0071 -0.6826  0.5279
  356MOL0     H48015   6.420   4.452   5.672  3.0052 -1.4318  0.4974
  356MOL0     H48016   6.580   4.303   5.850 -0.8715 -0.0728 -1.1374
  356MOL0     H48017   6.557   4.454   5.934  1.5392 -0.8676 -0.4507
  356MOL0     H48018   6.683   4.577   5.809  3.6289  0.9007 -3.1138
  356MOL0     H48019   6.633   4.526   5.660  1.7275  1.3731 -0.3502
  356MOL0     H48020   7.014   4.328   5.825 -0.5459  0.9310  0.6569
  356MOL0     H48021   7.231   4.419   5.751  0.8695 -1.1755 -1.6662
  356MOL0     H48022   7.473   4.570   5.308 -1.4061  0.6106  1.0363
  356MOL0     H48023   7.696   4.625   5.259 -1.7324  0.9166 -0.7863
  356MOL0     H48024   8.024   4.661   5.598  1.2862 -1.3738  1.0505
  356MOL0     H48025   8.018   4.497   5.526  1.4262  0.3420  0.2142
  356MOL0     H48026   8.135   4.633   5.324  1.3368  1.8934 -0.3746
  356MOL0     H48027   8.169   4.749   5.446  0.0745 -0.4615  2.9226
  356MOL0     H48028   8.278   4.554   5.586  0.0958 -1.7204 -0.3713
  356MOL0     H48029   8.229   4.438   5.460 -1.5794  0.1199  0.1884
  356MOL0     H48030   8.431   4.673   5.436 -0.2338 -1.2192  2.0803
  356MOL0     H48031   8.370   4.585   5.298  1.4537 -0.6826 -0.1996
  356MOL0     H48032   8.464   4.369   5.393  0.3811  0.2361  1.0968
  356MOL0     H48033   8.518   4.458   5.533  3.3441 -1.8514 -0.8900
  356MOL0     H48034   8.616   4.479   5.249 -1.5126 -3.0647  0.9271
  356MOL0     H48035   8.640   4.620   5.349  0.3224 -0.4689 -3.2000
  356MOL0     H48036   8.760   4.338   5.412  0.3631 -0.1672  0.5840
  356MOL0     H48037   8.776   4.471   5.518 -1.0437  0.8367 -0.3177
  356MOL0     H48038   8.924   4.392   5.286  0.9516  1.8556 -1.6095
  356MOL0     H48039   8.839   4.547   5.239 -1.4840  1.5750  1.5020
  356MOL0     H48040   7.814   4.571   5.677  1.1409  0.3157 -0.1466
  356MOL0     H48041   7.590   4.521   5.719  0.5731 -0.5339 -1.1409
  356MOL0     H48042   7.018   4.655   5.449  2.3165 -0.5581 -0.1849
  356MOL0     H48043   6.805   4.595   5.542 -0.3836  1.4938  2.2220
  356MOL0     H48044   4.888   4.309   5.639  1.4358 -0.3240 -0.8978
  356MOL0     H48045   4.643   4.359   5.588  0.7945 -0.7201 -0.6729
  356MOL0     H48046   4.401   4.660   5.287  0.6110 -1.2578 -2.7622
  356MOL0     H48047   4.179   4.760   5.235 -0.2512  0.2407  0.9247
  356MOL0     H48048   4.010   4.803   5.141 -0.1029  0.7654  1.8565
  356MOL0     H48049   3.847   4.800   5.218 -0.0752 -2.7355  2.6858
  356MOL0     H48050   3.926   4.652   4.972 -2.3735  0.2749 -2.1912
  356MOL0     H48051   3.846   4.805   4.976 -0.1186  0.0437 -1.9945
  356MOL0     H48052   3.652   4.687   5.098  0.3609 -1.0494  1.1421
  356MOL0     H48053   3.734   4.541   5.089  0.9400  0.9121  1.4792
  356MOL0     H48054   3.736   4.547   4.841  2.3863  1.3585  1.2542
  356MOL0     H48055   3.587   4.544   4.922  0.2470 -0.3865 -0.3552
  356MOL0     H48056   3.533   4.886   4.681  2.6676  1.4097 -3.0624
  356MOL0     H48057   3.998   4.391   5.295 -0.4303  0.5586 -1.6949
  356MOL0     H48058   4.105   4.218   5.428  0.2458 -1.0526  1.2931
  356MOL0     H48059   4.235   4.180   5.308  0.7243  1.5436 -0.8154
  356MOL0     H48060   4.268   4.241   5.475 -0.1470  1.3327 -0.7316
  357MOL0     O48061   5.732  11.261   0.869 -0.1251  0.1919 -0.2462
  357MOL0     C48062   5.707  11.345   0.778 -0.3798  0.2298 -0.2727
  357MOL0     O48063   5.797  11.422   0.722  0.7287 -0.1231  0.1243
  357MOL0     C48064   5.910  11.444   0.784  0.4704 -0.9755  0.2424
  357MOL0     C48065   5.945  11.573   0.825  0.3101  0.5190  0.1531
  357MOL0     C48066   6.073  11.593   0.875 -0.0553 -0.4402 -0.1605
  357MOL0     C48067   6.174  11.490   0.861  0.0068 -0.5630  0.2429
  357MOL0     O48068   6.303  11.518   0.901  0.8514 -0.3471  0.0485
  357MOL0     C48069   6.406  11.427   0.884  0.8984  0.5410 -0.2598
  357MOL0     C48070   6.535  11.504   0.913  0.6372 -0.1196  0.5917
  357MOL0     C48071   6.661  11.417   0.928  0.6528  0.2914 -0.3350
  357MOL0     C48072   6.694  11.330   0.799  1.6148 -0.8758  1.0724
  357MOL0     C48073   6.812  11.236   0.817  0.5363 -0.2682 -0.4103
  357MOL0     C48074   6.840  11.135   0.702  0.6871 -0.0838 -0.6861
  357MOL0     C48075   6.744  11.023   0.704 -1.1708  0.7677  0.5151
  357MOL0     C48076   6.783  10.925   0.596 -0.3218 -0.1144  0.5884
  357MOL0     N48077   6.691  10.806   0.593 -0.5065 -0.1971 -1.2613
  357MOL0     C48078   6.552  10.823   0.606  1.2850  0.7073  0.7158
  357MOL0     C48079   6.513  10.691   0.583  0.5620  0.2374 -0.3233
  357MOL0     C48080   6.373  10.644   0.595  1.0068  0.0116 -0.1349
  357MOL0     C48081   6.322  10.604   0.736 -0.3410 -0.6325  0.5756
  357MOL0     C48082   6.322  10.456   0.763 -0.2816 -0.2946  0.5284
  357MOL0     C48083   6.466  10.415   0.808  0.1390  0.1892  0.3240
  357MOL0     O48084   6.494  10.482   0.932  0.6528 -0.6898  0.1807
  357MOL0     C48085   6.621  10.462   0.990  0.4385 -0.3037  0.0140
  357MOL0     C48086   6.643  10.513   1.115  0.2898 -0.6853  1.0604
  357MOL0     C48087   6.773  10.514   1.161  0.7753 -0.3628 -1.0182
  357MOL0     C48088   6.886  10.470   1.092  0.0455 -0.3076  0.3096
  357MOL0     C48089   7.020  10.497   1.144  0.5930 -0.3392  0.2120
  357MOL0     O48090   7.130  10.483   1.061  0.2804 -0.1867  0.4623
  357MOL0     C48091   7.256  10.481   1.121  0.0994  0.1505  0.2359
  357MOL0     C48092   7.364  10.563   1.073  0.2944 -0.0119  0.2191
  357MOL0     C48093   7.495  10.546   1.127  0.1520 -0.3807 -0.1251
  357MOL0     C48094   7.510  10.453   1.235 -0.0269 -0.9104  0.6846
  357MOL0     O48095   7.639  10.435   1.269  0.6679 -0.9029  0.0931
  357MOL0     C48096   7.660  10.438   1.406 -0.2442 -0.0411 -0.4121
  357MOL0     C48097   7.765  10.559   1.418 -0.2531  0.3183 -0.4648
  357MOL0     C48098   7.836  10.559   1.556 -0.0392 -0.4563 -0.3708
  357MOL0     C48099   7.950  10.666   1.564 -0.0504 -0.9742 -0.2385
  357MOL0     C48100   8.025  10.654   1.700  0.6253  0.8897  0.3424
  357MOL0     C48101   8.119  10.771   1.719  0.7786 -0.9211  0.0955
  357MOL0     C48102   8.213  10.791   1.596 -0.5317 -0.1295  0.2659
  357MOL0     C48103   8.340  10.872   1.627  0.5532  0.3055  0.4739
  357MOL0    Cl48104   8.300  11.047   1.661 -0.1056 -0.0190 -0.2239
  357MOL0     C48105   7.397  10.384   1.291  0.2376  0.0876  0.2345
  357MOL0     C48106   7.275  10.390   1.225  0.1288  0.1243 -0.1535
  357MOL0     O48107   7.024  10.533   1.263 -0.1760  0.2457 -0.1621
  357MOL0     C48108   6.871  10.415   0.967  0.1143 -0.6333 -0.0409
  357MOL0     C48109   6.739  10.416   0.921 -0.3503  0.4232 -0.2068
  357MOL0     N48110   6.619  10.608   0.562  1.3466 -0.0835 -0.2565
  357MOL0     N48111   6.722  10.678   0.566  0.0993 -0.4563 -0.2982
  357MOL0     C48112   6.137  11.364   0.811 -0.3230  0.2397 -0.0098
  357MOL0     C48113   6.006  11.335   0.784 -0.0529  0.4509  0.4909
  357MOL0     C48114   5.591  11.332   0.683  0.0578  0.5858 -1.0708
  357MOL0     C48115   5.609  11.334   0.548  0.7954  0.2389 -0.4676
  357MOL0     C48116   5.495  11.311   0.464 -0.0039 -0.1339 -0.1674
  357MOL0     C48117   5.374  11.279   0.519  0.6070  0.0020  0.5977
  357MOL0     O48118   5.271  11.254   0.429  0.1646 -0.2992 -0.1313
  357MOL0     C48119   5.134  11.289   0.465  0.1945 -0.2301  1.0258
  357MOL0     C48120   5.112  11.437   0.466  0.3378 -0.9096  0.7845
  357MOL0     C48121   4.970  11.493   0.494 -0.2729 -0.7527 -0.3214
  357MOL0     C48122   4.976  11.636   0.451  1.0413  0.3160  0.0185
  357MOL0     C48123   4.856  11.713   0.502 -0.5200  0.1689  0.3613
  357MOL0     C48124   4.758  11.781   0.544 -0.0573 -0.1917  0.8634
  357MOL0     C48125   5.355  11.276   0.648 -0.6011  0.5213  0.0505
  357MOL0     C48126   5.458  11.309   0.736  0.0525 -0.0851  0.5216
  357MOL0     C48127   5.424  11.299   0.884  0.1564  0.0443 -0.0163
  357MOL0     H48128   5.878  11.658   0.811  0.7585  0.8045 -0.2639
  357MOL0     H48129   6.108  11.684   0.924 -1.0153 -0.0272 -0.2305
  357MOL0     H48130   6.396  11.344   0.954 -0.2871  1.2371  0.4453
  357MOL0     H48131   6.410  11.384   0.784  0.4286 -0.4514  0.1361
  357MOL0     H48132   6.519  11.565   1.002 -1.8927 -2.7552  2.0971
  357MOL0     H48133   6.548  11.578   0.833  0.9177  0.0859  0.8231
  357MOL0     H48134   6.642  11.350   1.012  1.9371 -0.3318 -0.5107
  357MOL0     H48135   6.739  11.488   0.954 -0.2645  0.8231  1.0356
  357MOL0     H48136   6.608  11.269   0.768  0.4895  0.0588  2.2068
  357MOL0     H48137   6.714  11.398   0.716 -0.4054  2.1006  2.8137
  357MOL0     H48138   6.906  11.293   0.811  1.8226 -2.2710 -0.3437
  357MOL0     H48139   6.810  11.190   0.917  0.3850  3.1572  1.3198
  357MOL0     H48140   6.837  11.186   0.605 -1.4389  1.8040  0.2752
  357MOL0     H48141   6.944  11.102   0.702  1.9272  3.3906 -0.2930
  357MOL0     H48142   6.641  11.057   0.688 -2.2675 -1.8439  1.4518
  357MOL0     H48143   6.756  10.968   0.798 -1.4441  0.8170  0.5808
  357MOL0     H48144   6.779  10.975   0.499  0.0776 -0.5135  0.3655
  357MOL0     H48145   6.889  10.904   0.613  0.3243  2.4775  0.2155
  357MOL0     H48146   6.497  10.914   0.624  1.5328  0.6814  1.6716
  357MOL0     H48147   6.310  10.722   0.551 -1.3760 -0.6965  1.8093
  357MOL0     H48148   6.368  10.564   0.520  2.8419  3.1756 -4.0015
  357MOL0     H48149   6.379  10.660   0.811  3.7926 -0.0905 -2.6200
  357MOL0     H48150   6.218  10.638   0.740 -0.4112 -0.5538 -1.3417
  357MOL0     H48151   6.296  10.393   0.677  1.8241  2.2602 -2.1863
  357MOL0     H48152   6.251  10.433   0.843 -1.1057 -1.8829 -0.5788
  357MOL0     H48153   6.530  10.445   0.725 -0.6138 -1.5447 -0.9264
  357MOL0     H48154   6.472  10.308   0.828  2.6438  0.5536  2.0102
  357MOL0     H48155   6.557  10.545   1.174  0.5027  2.3843 -0.1521
  357MOL0     H48156   6.782  10.561   1.259 -2.6135 -1.8707  0.1773
  357MOL0     H48157   7.349  10.626   0.986 -0.3545 -0.6324 -0.1260
  357MOL0     H48158   7.586  10.593   1.091 -0.0926 -0.7168 -1.2001
  357MOL0     H48159   7.570  10.464   1.464 -0.1442 -1.6231  0.5227
  357MOL0     H48160   7.703  10.347   1.448 -3.0437 -1.1332  0.3054
  357MOL0     H48161   7.839  10.565   1.338  0.6454  1.4380  0.4149
  357MOL0     H48162   7.699  10.647   1.416 -0.0336  0.5152  0.4060
  357MOL0     H48163   7.784  10.580   1.650  5.6191 -0.4670  3.2522
  357MOL0     H48164   7.880  10.459   1.562  0.1797 -0.3534 -0.2614
  357MOL0     H48165   7.904  10.765   1.562  0.6826 -0.6108  0.4515
  357MOL0     H48166   8.016  10.655   1.478 -1.7842 -1.8434 -1.5266
  357MOL0     H48167   8.084  10.561   1.700 -0.0479  0.4486  1.0314
  357MOL0     H48168   7.958  10.644   1.786 -0.0500  0.8870 -0.1757
  357MOL0     H48169   8.055  10.859   1.728  2.4107  0.2651  0.4506
  357MOL0     H48170   8.172  10.756   1.813 -1.6723  3.7279  2.5454
  357MOL0     H48171   8.168  10.848   1.514 -0.2577 -0.6970 -0.2854
  357MOL0     H48172   8.241  10.695   1.550  1.6556  0.4853  0.2311
  357MOL0     H48173   8.388  10.825   1.714 -1.5402 -0.1554  1.4322
  357MOL0     H48174   8.407  10.865   1.541  2.3719  0.3115  1.8232
  357MOL0     H48175   7.410  10.315   1.374 -1.7288  0.8075  1.2069
  357MOL0     H48176   7.189  10.332   1.256 -1.2158  1.4619 -1.2742
  357MOL0     H48177   6.956  10.386   0.906 -1.4717 -0.0331 -2.7017
  357MOL0     H48178   6.724  10.385   0.818 -0.1122 -0.6592  0.0711
  357MOL0     H48179   6.214  11.290   0.791 -0.9631 -0.0525 -1.4830
  357MOL0     H48180   5.979  11.239   0.742  0.6905  1.0095 -1.3633
  357MOL0     H48181   5.711  11.353   0.517  1.4634  0.4575  1.6688
  357MOL0     H48182   5.503  11.307   0.356  1.9448 -5.2351 -0.1342
  357MOL0     H48183   5.115  11.230   0.556  2.3545 -2.2744  0.2317
  357MOL0     H48184   5.065  11.258   0.386 -2.3690  3.6451  1.4072
  357MOL0     H48185   5.149  11.474   0.370  0.0186  0.0511  1.0210
  357MOL0     H48186   5.168  11.477   0.551  0.0123 -0.2258  0.6864
  357MOL0     H48187   4.946  11.485   0.600  2.0483 -0.1558  0.3189
  357MOL0     H48188   4.901  11.441   0.427 -3.4898  1.1519  1.2993
  357MOL0     H48189   5.070  11.672   0.495  1.4302 -1.3159  0.5736
  357MOL0     H48190   4.977  11.635   0.341  0.4320 -1.7383 -0.0037
  357MOL0     H48191   4.682  11.845   0.585 -0.3330 -0.6076  1.0093
  357MOL0     H48192   5.267  11.238   0.699 -1.4576  0.5630 -1.3492
  357MOL0     H48193   5.480  11.216   0.929  0.4831 -0.4939 -1.3597
  357MOL0     H48194   5.452  11.392   0.935  2.9358 -0.0276 -1.2326
  357MOL0     H48195   5.317  11.280   0.900 -0.3460  2.6903  0.3164
  358MOL0     O48196   9.034   0.121   1.364  0.2546  0.9893  0.5400
  358MOL0     C48197   9.076  -0.001   1.373  0.8425  0.0677  0.3612
  358MOL0     O48198   8.990  -0.109   1.359  0.3280 -0.6110  0.2163
  358MOL0     C48199   8.856  -0.086   1.385 -0.3781  0.5110  0.7583
  358MOL0     C48200   8.794   0.004   1.477 -0.3236  0.8695  0.5218
  358MOL0     C48201   8.648   0.019   1.494 -0.0358  0.6744 -0.7280
  358MOL0     C48202   8.570  -0.058   1.399 -0.1529  0.6377  0.0235
  358MOL0     O48203   8.432  -0.056   1.414  0.7468  0.7433  0.5304
  358MOL0     C48204   8.347  -0.026   1.308  0.1714 -0.1759  0.3765
  358MOL0     C48205   8.192   0.006   1.350 -0.5814 -0.2164 -0.3958
  358MOL0     C48206   8.103  -0.113   1.348  0.0243 -0.7814 -1.0713
  358MOL0     C48207   7.960  -0.077   1.399 -0.6038  0.2678 -0.4035
  358MOL0     C48208   7.892  -0.203   1.441 -0.0014  0.2514 -0.0054
  358MOL0     C48209   7.754  -0.173   1.482  0.8017  0.2698  0.4057
  358MOL0     C48210   7.686  -0.307   1.520  0.6480 -0.8101  0.5920
  358MOL0     C48211   7.725  -0.367   1.658  0.2227 -0.1201 -0.5008
  358MOL0     N48212   7.679  -0.284   1.768  0.3850  0.5161  0.2012
  358MOL0     C48213   7.567  -0.295   1.840  0.0185 -0.4175 -0.6182
  358MOL0     C48214   7.559  -0.187   1.921  0.0689  0.5197  0.2457
  358MOL0     C48215   7.463  -0.161   2.024 -0.9613  0.4162 -0.9592
  358MOL0     C48216   7.495  -0.213   2.162  0.5896 -0.0260  0.0262
  358MOL0     C48217   7.633  -0.192   2.207  0.7254 -0.3517 -0.2746
  358MOL0     C48218   7.672  -0.048   2.226  0.5832 -0.2335  0.0892
  358MOL0     O48219   7.813  -0.052   2.266  0.5526 -0.3691 -0.5989
  358MOL0     C48220   7.893   0.055   2.265  0.7846 -0.7764  0.1720
  358MOL0     C48221   7.853   0.191   2.238  0.6672 -0.0543  0.6505
  358MOL0     C48222   7.938   0.293   2.234 -0.5848  0.2568  0.2510
  358MOL0     C48223   8.074   0.272   2.259  1.2537 -1.1324  0.1827
  358MOL0     C48224   8.179   0.385   2.279 -0.1214 -0.5704  1.0888
  358MOL0     O48225   8.305   0.345   2.275 -0.1303  0.2127  0.5546
  358MOL0     C48226   8.409   0.433   2.268  0.1976  0.3774  0.6249
  358MOL0     C48227   8.436   0.514   2.377 -0.4930 -0.5501 -0.5699
  358MOL0     C48228   8.550   0.592   2.375 -0.3576  0.2503  0.2527
  358MOL0     C48229   8.645   0.589   2.272  0.0156 -0.2035 -0.2546
  358MOL0     O48230   8.770   0.649   2.300 -0.3596  0.2822  0.6273
  358MOL0     C48231   8.836   0.698   2.184 -0.7540  0.2509 -0.2705
  358MOL0     C48232   8.948   0.796   2.234  0.3403  0.4367  0.1752
  358MOL0     C48233   9.009   0.876   2.116 -0.3313 -0.6384 -0.0146
  358MOL0     C48234   9.148   0.842   2.101 -0.5398 -0.6218  0.3763
  358MOL0     C48235   9.225   0.937   2.004 -1.1991  0.2396  1.0654
  358MOL0     C48236   9.362   0.881   1.985 -0.2940  0.2194  0.3901
  358MOL0     C48237   9.463   0.974   1.928  0.4325  0.7062  0.8780
  358MOL0     C48238   9.490   1.089   2.033 -0.0028  0.9754 -0.4468
  358MOL0    Cl48239   9.639   1.175   1.968  0.4141  0.1065 -0.1309
  358MOL0     C48240   8.623   0.491   2.169 -0.9571 -0.1839  0.2658
  358MOL0     C48241   8.496   0.432   2.157 -0.5953 -0.0505  0.4950
  358MOL0     O48242   8.146   0.502   2.262  0.2825  0.5987  0.3737
  358MOL0     C48243   8.115   0.144   2.292  0.2437 -0.0443 -0.2344
  358MOL0     C48244   8.025   0.033   2.297 -0.4465 -0.0630  0.4345
  358MOL0     N48245   7.667  -0.111   1.901  0.3798 -0.0121  0.4983
  358MOL0     N48246   7.740  -0.172   1.813 -0.2142 -0.6417 -0.6128
  358MOL0     C48247   8.629  -0.131   1.299 -0.5280  0.3298  0.1218
  358MOL0     C48248   8.765  -0.156   1.301 -0.4763  0.6390  0.0618
  358MOL0     C48249   9.224  -0.024   1.395  0.7168  0.1670 -0.3142
  358MOL0     C48250   9.269  -0.154   1.430 -0.0812  0.5461  0.0065
  358MOL0     C48251   9.395  -0.186   1.469 -0.1502  0.2881  0.2667
  358MOL0     C48252   9.481  -0.086   1.476 -0.6667  0.2803  0.4580
  358MOL0     O48253   9.601  -0.130   1.515 -0.2905 -0.2984 -0.0930
  358MOL0     C48254   9.709  -0.036   1.545 -0.1640  1.2144  0.2728
  358MOL0     C48255   9.825  -0.113   1.610 -0.1814  0.2052 -0.4565
  358MOL0     C48256   9.928  -0.023   1.689 -0.2721  0.1431  0.2348
  358MOL0     C48257  10.021  -0.094   1.794  0.0939  0.1661 -0.2835
  358MOL0     C48258  10.116   0.017   1.840 -0.0089  0.7082 -0.0866
  358MOL0     C48259  10.203   0.103   1.861 -0.0413  0.6358 -0.5894
  358MOL0     C48260   9.449   0.050   1.445 -0.8248 -0.1276 -0.2807
  358MOL0     C48261   9.320   0.074   1.392  0.8483 -0.6473  0.4457
  358MOL0     C48262   9.300   0.209   1.319  0.1782  0.0052  0.3257
  358MOL0     H48263   8.859   0.062   1.541 -0.1727 -0.0929  1.2563
  358MOL0     H48264   8.604   0.072   1.578 -1.8087 -1.5835 -0.1439
  358MOL0     H48265   8.382   0.067   1.262  0.4446 -0.4542  0.0210
  358MOL0     H48266   8.344  -0.100   1.228 -1.6367  1.3081 -1.0526
  358MOL0     H48267   8.165   0.075   1.270 -2.5425  1.5924  1.6812
  358MOL0     H48268   8.184   0.053   1.448  2.7411 -0.7048  0.2421
  358MOL0     H48269   8.153  -0.187   1.411 -0.7066 -0.9700 -0.7018
  358MOL0     H48270   8.089  -0.130   1.241  1.1145  0.6341 -1.4725
  358MOL0     H48271   7.968  -0.010   1.485 -2.0063 -2.3266  1.9012
  358MOL0     H48272   7.908  -0.037   1.312 -0.0871 -1.6826 -1.6765
  358MOL0     H48273   7.901  -0.270   1.355  3.0880 -1.1707  1.2875
  358MOL0     H48274   7.953  -0.263   1.509 -0.3489 -0.9504 -0.7328
  358MOL0     H48275   7.752  -0.095   1.559  3.1402  1.1357 -0.3222
  358MOL0     H48276   7.700  -0.133   1.396 -1.7330 -4.1527 -0.3650
  358MOL0     H48277   7.702  -0.382   1.442 -2.0725  0.4175 -1.2732
  358MOL0     H48278   7.580  -0.285   1.526  0.8653  0.4126  0.2003
  358MOL0     H48279   7.680  -0.466   1.671  0.3043 -0.1529 -0.4632
  358MOL0     H48280   7.834  -0.372   1.665  0.1668  0.5704  3.7586
  358MOL0     H48281   7.500  -0.380   1.844  2.6165 -2.5875  2.8799
  358MOL0     H48282   7.456  -0.053   2.037  0.0588  0.7731 -3.0438
  358MOL0     H48283   7.366  -0.195   1.985 -0.4544 -0.7331 -1.2652
  358MOL0     H48284   7.421  -0.169   2.230 -0.1626 -1.6057  0.2548
  358MOL0     H48285   7.482  -0.321   2.157 -1.7434  0.0209  2.5536
  358MOL0     H48286   7.711  -0.235   2.144  0.0427 -2.5802  0.3339
  358MOL0     H48287   7.641  -0.240   2.305  0.2481  3.2995  1.7553
  358MOL0     H48288   7.610  -0.002   2.303  0.2708 -1.2475  0.4489
  358MOL0     H48289   7.662   0.001   2.129  0.7085 -0.3952 -0.0054
  358MOL0     H48290   7.749   0.207   2.212  0.4100 -0.9942  1.0646
  358MOL0     H48291   7.904   0.396   2.223  1.1944  1.0619  1.6991
  358MOL0     H48292   8.367   0.532   2.459  0.0687 -0.6740 -0.0709
  358MOL0     H48293   8.577   0.660   2.456  0.4041 -0.2365  0.4166
  358MOL0     H48294   8.875   0.606   2.140 -2.7855 -0.9985  0.3797
  358MOL0     H48295   8.761   0.747   2.121 -0.8908  2.3439  1.3863
  358MOL0     H48296   8.897   0.869   2.297  0.4882  0.3827  0.3564
  358MOL0     H48297   9.022   0.740   2.292 -0.2510  0.2448  0.7568
  358MOL0     H48298   8.955   0.855   2.023 -0.6061  1.7796 -0.4844
  358MOL0     H48299   8.999   0.981   2.144 -5.1767 -1.3125  1.7702
  358MOL0     H48300   9.153   0.741   2.059  1.4909 -0.6565  0.5802
  358MOL0     H48301   9.199   0.844   2.198 -1.5544 -0.9173  0.9254
  358MOL0     H48302   9.238   1.034   2.053 -0.1701  2.0680 -2.4268
  358MOL0     H48303   9.170   0.965   1.913 -1.2782 -2.7437  0.1056
  358MOL0     H48304   9.404   0.853   2.082 -3.0546  2.7188  2.5140
  358MOL0     H48305   9.348   0.791   1.923  0.5275  1.5859 -1.9215
  358MOL0     H48306   9.436   1.013   1.829  1.8891 -0.6530 -0.1036
  358MOL0     H48307   9.560   0.927   1.907  1.4782  1.7102  3.1358
  358MOL0     H48308   9.400   1.150   2.047 -0.9215  0.3043 -2.9740
  358MOL0     H48309   9.527   1.045   2.127 -0.1012 -1.0645 -1.3128
  358MOL0     H48310   8.698   0.464   2.096  0.2271  1.6978  0.7129
  358MOL0     H48311   8.477   0.365   2.073  0.5959  0.6044 -0.3310
  358MOL0     H48312   8.211   0.131   2.339  0.2146  0.4967 -0.0208
  358MOL0     H48313   8.053  -0.068   2.325  0.0611  0.7044  2.9666
  358MOL0     H48314   8.566  -0.177   1.224 -1.5738 -0.3825  1.4059
  358MOL0     H48315   8.794  -0.225   1.223  0.7770 -0.1071  1.1521
  358MOL0     H48316   9.195  -0.232   1.415 -0.9390  1.2252  0.6071
  358MOL0     H48317   9.422  -0.288   1.496 -0.4017 -0.3596 -1.7358
  358MOL0     H48318   9.674   0.047   1.606  1.3048  3.6008 -1.9368
  358MOL0     H48319   9.751   0.010   1.455  3.8030  1.1621  1.8987
  358MOL0     H48320   9.883  -0.168   1.536 -0.5713  0.0592 -0.6567
  358MOL0     H48321   9.780  -0.186   1.678  0.0114 -0.7542 -1.3426
  358MOL0     H48322   9.875   0.061   1.736  0.2254  0.0009  1.0553
  358MOL0     H48323   9.984   0.025   1.607  1.3028 -0.0744  1.1498
  358MOL0     H48324   9.965  -0.136   1.878 -0.6750  0.5667 -0.5855
  358MOL0     H48325  10.082  -0.173   1.749 -3.0376 -3.3905  1.1512
  358MOL0     H48326  10.278   0.175   1.886  1.4982 -1.4192  1.0546
  358MOL0     H48327   9.526   0.127   1.449 -1.9379  1.0467 -0.6235
  358MOL0     H48328   9.396   0.239   1.275  1.0021 -0.6438  1.6478
  358MOL0     H48329   9.225   0.199   1.240 -1.1618 -0.5133  1.6235
  358MOL0     H48330   9.275   0.288   1.390  1.3516  0.2135  0.5278
  359MOL0     O48331   7.432   9.138   6.278 -0.2657 -0.7901 -0.4264
  359MOL0     C48332   7.422   9.251   6.324 -0.4453  0.8431  0.3390
  359MOL0     O48333   7.511   9.348   6.321  0.7055  0.2671  0.2701
  359MOL0     C48334   7.636   9.320   6.271 -0.1718 -0.2946 -0.9465
  359MOL0     C48335   7.708   9.203   6.310 -0.0555 -1.8244  0.1966
  359MOL0     C48336   7.838   9.180   6.259  0.1192 -0.0024  0.2537
  359MOL0     C48337   7.888   9.255   6.149  0.2988 -0.3256 -0.7663
  359MOL0     O48338   8.013   9.250   6.092 -0.5982  0.4548  0.9455
  359MOL0     C48339   8.077   9.118   6.075  0.4790  0.2187 -0.0008
  359MOL0     C48340   8.199   9.116   5.984 -0.3513  0.5041  1.0304
  359MOL0     C48341   8.320   9.186   6.051  1.1585  0.3716  0.9474
  359MOL0     C48342   8.422   9.203   5.946  0.0309 -0.4167 -0.9988
  359MOL0     C48343   8.561   9.263   5.991 -0.1447  0.3950 -0.0194
  359MOL0     C48344   8.538   9.406   6.025  0.7850 -0.7220  0.6743
  359MOL0     C48345   8.672   9.480   6.046  0.4072  0.2477  0.0772
  359MOL0     C48346   8.717   9.458   6.190  0.2199  0.1031 -1.0601
  359MOL0     N48347   8.844   9.529   6.215 -0.9407 -0.1325  0.4027
  359MOL0     C48348   8.964   9.469   6.250 -0.3540  0.5332  1.2554
  359MOL0     C48349   9.046   9.571   6.273 -0.0413 -0.0096  0.4737
  359MOL0     C48350   9.184   9.555   6.324  0.7551  0.0955  0.7448
  359MOL0     C48351   9.272   9.670   6.275 -0.9156 -0.4103  1.3475
  359MOL0     C48352   9.424   9.646   6.299  0.1337 -0.2565  0.4896
  359MOL0     C48353   9.509   9.777   6.298  0.2400  0.1104  0.1805
  359MOL0     O48354   9.649   9.747   6.320  0.2892 -0.3103 -0.4217
  359MOL0     C48355   9.743   9.851   6.322  0.5111  0.2466 -0.5015
  359MOL0     C48356   9.722   9.981   6.286  0.5277  0.7728  0.4331
  359MOL0     C48357   9.830  10.065   6.252 -0.6624 -0.4717  0.8263
  359MOL0     C48358   9.963  10.024   6.267 -0.0471  0.3128 -0.0279
  359MOL0     C48359  10.082  10.098   6.228  0.0433 -0.7869  0.7973
  359MOL0     O48360  10.202  10.035   6.237 -0.4348 -0.3530  0.1059
  359MOL0     C48361  10.318  10.104   6.216  0.1510 -0.9221  0.2784
  359MOL0     C48362  10.362  10.184   6.318  0.5755  0.1999 -0.1839
  359MOL0     C48363  10.485  10.263   6.306  0.0313 -0.0728  0.0520
  359MOL0     C48364  10.567  10.249   6.196  0.1047 -0.4729 -0.1612
  359MOL0     O48365  10.685  10.326   6.189  0.5198  0.4051  0.2720
  359MOL0     C48366  10.760  10.341   6.069 -0.4475 -1.2433 -0.5268
  359MOL0     C48367  10.898  10.383   6.113  0.0473  0.3421 -0.8660
  359MOL0     C48368  10.972  10.292   6.212 -0.2363  1.3193 -0.7099
  359MOL0     C48369  11.111  10.348   6.249 -0.7538 -0.6941 -0.4620
  359MOL0     C48370  11.170  10.248   6.356 -0.5696  0.1561  0.7502
  359MOL0     C48371  11.301  10.301   6.407 -0.2223  1.2714  0.0890
  359MOL0     C48372  11.374  10.200   6.511  0.3125  0.1588  0.1727
  359MOL0     C48373  11.528  10.197   6.502  0.2859 -0.1058 -0.2824
  359MOL0    Cl48374  11.574  10.137   6.342  0.3527  0.2837 -0.0206
  359MOL0     C48375  10.510  10.180   6.090 -0.0928  0.3500  0.0744
  359MOL0     C48376  10.390  10.105   6.097  0.2650 -0.0359  0.8670
  359MOL0     O48377  10.070  10.218   6.197 -0.4993 -0.0166 -0.4316
  359MOL0     C48378   9.983   9.898   6.318 -0.4755  0.3612  0.4114
  359MOL0     C48379   9.874   9.808   6.331  0.1318  0.6554 -0.1276
  359MOL0     N48380   8.976   9.682   6.242  0.2780 -0.2953  0.1437
  359MOL0     N48381   8.854   9.663   6.209  0.5467 -0.6484 -0.3385
  359MOL0     C48382   7.810   9.374   6.112  0.3425  0.3036  0.3420
  359MOL0     C48383   7.685   9.397   6.169 -0.4538 -0.0465 -0.4024
  359MOL0     C48384   7.295   9.282   6.381  0.7349  0.6421  0.8485
  359MOL0     C48385   7.295   9.385   6.479 -0.5707  1.2672  0.7242
  359MOL0     C48386   7.184   9.427   6.548 -0.0982  0.7409 -0.4493
  359MOL0     C48387   7.059   9.375   6.519 -0.0252  0.5285 -0.7478
  359MOL0     O48388   6.943   9.411   6.575  0.4617 -0.1271 -0.2710
  359MOL0     C48389   6.910   9.554   6.572  0.0600  0.7685 -0.1416
  359MOL0     C48390   6.776   9.571   6.631  0.1551 -0.7543 -0.4411
  359MOL0     C48391   6.780   9.598   6.777 -0.3138  0.3764  0.0524
  359MOL0     C48392   6.651   9.657   6.837  0.0581  1.1134  0.1629
  359MOL0     C48393   6.538   9.556   6.837  0.0701  0.2017 -0.2279
  359MOL0     C48394   6.450   9.476   6.850  0.6019  0.4028  0.0301
  359MOL0     C48395   7.055   9.267   6.429  0.5923  0.7209 -0.0442
  359MOL0     C48396   7.169   9.219   6.362 -0.8621  0.3476 -0.0025
  359MOL0     C48397   7.157   9.101   6.273 -0.2051  0.0471  0.9376
  359MOL0     H48398   7.666   9.149   6.394 -1.4333 -0.8544  0.1612
  359MOL0     H48399   7.894   9.099   6.304  1.8813  2.0930  2.0383
  359MOL0     H48400   8.093   9.076   6.175 -0.4405  0.2562  0.1734
  359MOL0     H48401   7.998   9.060   6.027 -0.1668 -2.4313  3.7633
  359MOL0     H48402   8.181   9.161   5.886  3.7133  1.5515  0.5512
  359MOL0     H48403   8.221   9.012   5.955  0.5292  0.9368  0.0696
  359MOL0     H48404   8.354   9.118   6.129 -0.4734 -1.9134 -0.2021
  359MOL0     H48405   8.291   9.281   6.096 -1.8394  0.2077 -0.3789
  359MOL0     H48406   8.435   9.110   5.891  1.7738 -1.3134  0.8005
  359MOL0     H48407   8.376   9.268   5.871 -0.0442 -1.3828 -1.8110
  359MOL0     H48408   8.601   9.207   6.076 -2.4978 -0.6015  0.5186
  359MOL0     H48409   8.628   9.252   5.906 -0.1174  1.4265 -0.1536
  359MOL0     H48410   8.471   9.447   5.950  1.5157 -2.6420 -1.1104
  359MOL0     H48411   8.479   9.421   6.116 -2.2532  2.8830 -1.6212
  359MOL0     H48412   8.640   9.584   6.044 -2.2195 -0.5074 -0.1574
  359MOL0     H48413   8.739   9.458   5.962  0.1074 -1.3598  0.2270
  359MOL0     H48414   8.631   9.486   6.251 -0.1502  0.0712 -1.5535
  359MOL0     H48415   8.742   9.353   6.209 -0.3610  0.1316 -0.0945
  359MOL0     H48416   8.984   9.363   6.259  1.2002  0.5275 -1.1384
  359MOL0     H48417   9.191   9.565   6.432  0.8804  1.5984  0.6180
  359MOL0     H48418   9.208   9.456   6.286 -0.7333 -0.6339  1.6075
  359MOL0     H48419   9.257   9.691   6.169  2.3456 -0.5564  0.7681
  359MOL0     H48420   9.240   9.759   6.330  0.7824  0.7066  0.6026
  359MOL0     H48421   9.458   9.574   6.223 -0.3601 -0.8245  0.7966
  359MOL0     H48422   9.444   9.607   6.399  2.3873  0.7809  0.5149
  359MOL0     H48423   9.462   9.849   6.365 -0.4663 -0.6998  0.5830
  359MOL0     H48424   9.492   9.834   6.206  0.1842 -0.6515 -0.2942
  359MOL0     H48425   9.627  10.032   6.278  0.3305  0.4678  0.8280
  359MOL0     H48426   9.820  10.167   6.219 -1.9942 -0.4495  1.2586
  359MOL0     H48427  10.309  10.206   6.410 -1.0217  0.3537 -1.0932
  359MOL0     H48428  10.523  10.320   6.390  0.6682 -2.6705  1.6187
  359MOL0     H48429  10.771  10.250   6.010 -2.5854 -0.1887 -2.7462
  359MOL0     H48430  10.722  10.424   6.009  0.2944 -0.4963  0.0183
  359MOL0     H48431  10.956  10.376   6.021 -0.3929 -4.1752 -1.0123
  359MOL0     H48432  10.892  10.481   6.161  1.3833  0.2395 -0.4528
  359MOL0     H48433  10.910  10.265   6.298  2.3294 -0.8797  0.5838
  359MOL0     H48434  10.998  10.198   6.162  0.3556  0.9427  0.2892
  359MOL0     H48435  11.101  10.444   6.299  1.1534 -0.4494 -0.4987
  359MOL0     H48436  11.184  10.369   6.170  2.3512 -0.4367  2.2766
  359MOL0     H48437  11.183  10.148   6.314 -0.9573  0.8360 -1.1251
  359MOL0     H48438  11.105  10.237   6.443 -0.0829 -0.1152  1.0817
  359MOL0     H48439  11.359  10.335   6.321 -0.9792  1.2658 -0.4341
  359MOL0     H48440  11.279  10.396   6.455 -1.1584  0.6951  0.8318
  359MOL0     H48441  11.344  10.094   6.504 -0.7583  0.3770  1.0430
  359MOL0     H48442  11.346  10.236   6.611 -0.1521 -1.1935  0.5554
  359MOL0     H48443  11.575  10.293   6.526  1.9197  0.0829 -3.6938
  359MOL0     H48444  11.575  10.133   6.577 -1.4837 -0.5700  0.4943
  359MOL0     H48445  10.554  10.165   5.992 -2.7338 -2.9731 -0.8121
  359MOL0     H48446  10.363  10.043   6.012 -1.0372  0.4462  0.9185
  359MOL0     H48447  10.082   9.857   6.304 -0.0740  1.6109 -0.6188
  359MOL0     H48448   9.892   9.701   6.341 -2.2669  0.0968 -1.1533
  359MOL0     H48449   7.843   9.440   6.032 -0.3943 -2.0224 -1.9954
  359MOL0     H48450   7.633   9.483   6.129 -0.6516  0.5760  1.1264
  359MOL0     H48451   7.393   9.428   6.497  2.8365 -4.5976 -1.1711
  359MOL0     H48452   7.195   9.503   6.626  0.8145 -0.5446  0.7268
  359MOL0     H48453   6.901   9.595   6.471 -0.4690  1.1648  0.0595
  359MOL0     H48454   6.982   9.623   6.617  0.8214  0.0020 -0.1613
  359MOL0     H48455   6.709   9.489   6.605  0.8683 -1.4259 -0.1830
  359MOL0     H48456   6.729   9.665   6.601  0.4795 -0.3362  0.3300
  359MOL0     H48457   6.862   9.667   6.801  2.0079 -0.9990 -3.0827
  359MOL0     H48458   6.804   9.503   6.825  0.3253 -0.3011 -1.5406
  359MOL0     H48459   6.672   9.688   6.940 -1.4236  0.0177  0.8320
  359MOL0     H48460   6.621   9.736   6.767 -2.0118 -2.0360 -2.8095
  359MOL0     H48461   6.377   9.400   6.868  0.3554  1.0653  2.1177
  359MOL0     H48462   6.958   9.220   6.416  0.7258 -0.9387  3.7376
  359MOL0     H48463   7.186   9.010   6.327 -3.2914 -1.0177  1.0210
  359MOL0     H48464   7.051   9.089   6.248 -0.1595 -3.4268  1.8016
  359MOL0     H48465   7.217   9.111   6.182 -2.2087  0.3968 -0.4104
  360MOL0     O48466   7.203   2.589   1.806  0.3701  0.0767  0.1512
  360MOL0     C48467   7.295   2.627   1.882  0.5497 -1.0386  0.3364
  360MOL0     O48468   7.274   2.706   2.000 -0.5091  0.5440  0.2695
  360MOL0     C48469   7.150   2.715   2.054  0.1737  0.4075 -0.3684
  360MOL0     C48470   7.101   2.830   2.116 -0.1549  0.2586  0.2574
  360MOL0     C48471   6.966   2.840   2.162 -0.2695  0.3258  0.2387
  360MOL0     C48472   6.884   2.725   2.161 -0.3552  0.0317  0.0131
  360MOL0     O48473   6.772   2.740   2.227  0.2675  0.0502 -0.1249
  360MOL0     C48474   6.669   2.645   2.201 -0.5555  0.2838  0.9932
  360MOL0     C48475   6.545   2.685   2.274 -0.0899  0.7791  0.7226
  360MOL0     C48476   6.551   2.677   2.430 -0.1102 -0.1051 -0.1630
  360MOL0     C48477   6.431   2.749   2.493 -1.0254 -0.9979  0.2082
  360MOL0     C48478   6.458   2.743   2.644  0.9069 -0.1758  0.1182
  360MOL0     C48479   6.336   2.757   2.738  0.4403  0.4207 -0.3199
  360MOL0     C48480   6.344   2.723   2.891 -0.0712  0.5995  0.4847
  360MOL0     C48481   6.470   2.777   2.949  0.1082  0.2911  0.7323
  360MOL0     N48482   6.496   2.919   2.924 -0.0902 -0.1202  0.7337
  360MOL0     C48483   6.616   2.976   2.891  0.2042 -0.1274  0.2796
  360MOL0     C48484   6.598   3.109   2.899  0.0724  0.0761 -0.2612
  360MOL0     C48485   6.689   3.221   2.872  0.4049 -0.3209  0.3463
  360MOL0     C48486   6.751   3.275   3.003  0.1663 -0.2377 -0.0428
  360MOL0     C48487   6.814   3.407   2.976  0.6078 -1.1745  0.3831
  360MOL0     C48488   6.848   3.484   3.102  0.1590 -0.5966  0.0941
  360MOL0     O48489   6.938   3.398   3.176 -0.7335 -0.4796  0.3774
  360MOL0     C48490   7.076   3.405   3.169  0.3986 -0.1652  0.3756
  360MOL0     C48491   7.133   3.357   3.288 -0.1399 -0.7962  0.1833
  360MOL0     C48492   7.267   3.371   3.313 -0.3198  0.2450 -0.8561
  360MOL0     C48493   7.363   3.427   3.215  0.1267 -0.0291 -0.4064
  360MOL0     C48494   7.507   3.436   3.235 -0.1147 -0.5043 -1.5599
  360MOL0     O48495   7.594   3.471   3.134 -0.1438  0.4676 -0.1729
  360MOL0     C48496   7.725   3.506   3.164 -0.5330  0.2888 -0.2361
  360MOL0     C48497   7.827   3.439   3.097  1.2092 -0.1725  0.3533
  360MOL0     C48498   7.959   3.472   3.117 -0.2845  0.1412  0.5829
  360MOL0     C48499   7.994   3.565   3.221  0.3853  0.0298 -0.5937
  360MOL0     O48500   8.124   3.596   3.265  0.0463 -0.3641  0.5591
  360MOL0     C48501   8.216   3.486   3.290  0.7728 -0.1457 -0.4197
  360MOL0     C48502   8.185   3.410   3.421 -0.6357 -0.5775  0.4554
  360MOL0     C48503   8.304   3.334   3.462 -0.7811 -0.0562 -0.7084
  360MOL0     C48504   8.419   3.430   3.497 -0.5539 -0.2172  0.5696
  360MOL0     C48505   8.522   3.377   3.598  0.0294  0.1090 -0.2006
  360MOL0     C48506   8.614   3.282   3.532  0.5399 -1.0960 -0.1195
  360MOL0     C48507   8.706   3.223   3.636 -0.6045  0.2657 -0.5138
  360MOL0     C48508   8.801   3.129   3.573 -0.7101  0.5513 -0.3213
  360MOL0    Cl48509   8.908   3.035   3.687  0.1095  0.1031  0.1428
  360MOL0     C48510   7.892   3.622   3.293 -0.0737 -0.2122  0.6405
  360MOL0     C48511   7.758   3.600   3.264 -0.2806  0.1171 -0.0592
  360MOL0     O48512   7.547   3.419   3.348  0.2134 -0.6412  0.2585
  360MOL0     C48513   7.298   3.487   3.096 -0.4641 -1.0011 -0.7060
  360MOL0     C48514   7.160   3.466   3.067 -1.1253 -0.1979  0.2669
  360MOL0     N48515   6.466   3.136   2.938  0.0793  0.2683  0.7290
  360MOL0     N48516   6.406   3.022   2.949  0.2498  0.2166 -0.5380
  360MOL0     C48517   6.935   2.608   2.112 -0.8705 -0.4089 -0.1509
  360MOL0     C48518   7.060   2.602   2.051  0.0299 -0.0836  0.9642
  360MOL0     C48519   7.425   2.567   1.854 -0.2325  0.5378 -0.0706
  360MOL0     C48520   7.418   2.438   1.808 -0.9002 -0.4846 -0.7162
  360MOL0     C48521   7.531   2.375   1.753 -0.5245 -0.6779  0.2683
  360MOL0     C48522   7.659   2.430   1.760 -0.1856  0.0867 -0.5610
  360MOL0     O48523   7.757   2.357   1.712  0.6168 -0.0510  0.2918
  360MOL0     C48524   7.891   2.403   1.740  0.8446 -0.1129  0.2426
  360MOL0     C48525   7.995   2.301   1.709  0.3619 -0.1264 -0.0172
  360MOL0     C48526   8.127   2.343   1.776  0.3163  0.0573  0.4728
  360MOL0     C48527   8.172   2.481   1.727  0.6242  0.3665  0.1535
  360MOL0     C48528   8.312   2.507   1.748  0.1913  0.4705  0.1873
  360MOL0     C48529   8.430   2.510   1.775 -0.4432  0.4234  0.1390
  360MOL0     C48530   7.666   2.559   1.802  0.0632 -1.1498  0.2663
  360MOL0     C48531   7.553   2.628   1.855 -0.0305 -0.2027  0.7422
  360MOL0     C48532   7.563   2.775   1.898 -0.2000 -0.0387 -0.3681
  360MOL0     H48533   7.168   2.915   2.118 -1.3179  1.1871  1.4382
  360MOL0     H48534   6.929   2.931   2.210  0.6994  0.8537  0.0036
  360MOL0     H48535   6.653   2.635   2.093  3.7280 -0.0222  0.2012
  360MOL0     H48536   6.694   2.545   2.238 -0.4837 -0.5164 -1.0869
  360MOL0     H48537   6.471   2.616   2.233  0.3769  1.5876 -1.6127
  360MOL0     H48538   6.517   2.787   2.244  1.9072  0.8703 -1.0264
  360MOL0     H48539   6.648   2.717   2.458  0.9996 -1.5603 -1.7514
  360MOL0     H48540   6.555   2.571   2.457  0.8752  0.6178  3.0158
  360MOL0     H48541   6.427   2.849   2.450 -1.7553 -1.0557  0.1236
  360MOL0     H48542   6.340   2.695   2.465 -1.4973 -0.3925  0.5512
  360MOL0     H48543   6.511   2.652   2.676  1.4694 -0.4279 -1.4620
  360MOL0     H48544   6.519   2.832   2.661 -0.7056  1.0015  0.0057
  360MOL0     H48545   6.303   2.861   2.734  1.4927  0.7786  0.0669
  360MOL0     H48546   6.255   2.697   2.695 -0.4375  2.2955 -1.3929
  360MOL0     H48547   6.344   2.614   2.888  1.7021  0.5815 -0.2239
  360MOL0     H48548   6.257   2.760   2.946 -1.5232  0.8768 -1.8570
  360MOL0     H48549   6.462   2.760   3.057 -2.4867 -0.2625  0.5235
  360MOL0     H48550   6.563   2.723   2.930  0.8026  0.7684  2.5528
  360MOL0     H48551   6.702   2.930   2.846 -0.3512 -0.7630 -0.1404
  360MOL0     H48552   6.766   3.201   2.797 -1.0064 -2.6362 -0.5798
  360MOL0     H48553   6.629   3.303   2.831 -1.0407 -0.4618  2.0333
  360MOL0     H48554   6.672   3.293   3.076  2.2706  0.9489  2.0892
  360MOL0     H48555   6.831   3.207   3.034 -1.9012 -2.6516  0.3856
  360MOL0     H48556   6.763   3.476   2.907  4.8791  1.2592 -0.7480
  360MOL0     H48557   6.910   3.388   2.928  0.5303  0.6166 -0.6188
  360MOL0     H48558   6.756   3.491   3.161  0.2512 -2.1049  0.4503
  360MOL0     H48559   6.895   3.582   3.084  0.7682 -0.8992  0.0170
  360MOL0     H48560   7.069   3.303   3.357 -0.0028 -0.2045  0.7857
  360MOL0     H48561   7.303   3.333   3.407 -3.1001  1.7276  0.9452
  360MOL0     H48562   7.792   3.367   3.023  1.3559 -1.1439  1.2116
  360MOL0     H48563   8.031   3.429   3.049 -2.3290  0.1636 -1.7129
  360MOL0     H48564   8.204   3.412   3.211 -1.3592 -0.5874  0.2413
  360MOL0     H48565   8.320   3.518   3.283  0.1811  2.0299  0.0387
  360MOL0     H48566   8.140   3.475   3.497 -0.3063  0.5784 -0.3095
  360MOL0     H48567   8.111   3.331   3.404 -2.1063  1.0406 -1.1939
  360MOL0     H48568   8.277   3.274   3.550  0.2250 -2.3073 -1.8374
  360MOL0     H48569   8.349   3.265   3.390  3.1111  1.7217 -0.2300
  360MOL0     H48570   8.368   3.509   3.551 -2.8634 -1.8452  0.8951
  360MOL0     H48571   8.468   3.465   3.405  0.3769 -0.1126  1.0833
  360MOL0     H48572   8.473   3.324   3.681  0.9806 -1.3946 -0.5604
  360MOL0     H48573   8.577   3.463   3.635 -2.4371  1.1745  1.2794
  360MOL0     H48574   8.556   3.195   3.500  0.6057 -0.8497 -0.9339
  360MOL0     H48575   8.662   3.327   3.444 -2.7485  1.3538 -0.8224
  360MOL0     H48576   8.641   3.173   3.708  0.1978  2.7534  2.1043
  360MOL0     H48577   8.769   3.292   3.693  2.1524 -1.5099 -1.1840
  360MOL0     H48578   8.754   3.051   3.512  0.9622  1.4537 -2.9445
  360MOL0     H48579   8.868   3.185   3.507 -0.5074 -1.9442 -2.4276
  360MOL0     H48580   7.920   3.680   3.379  1.8155  0.1269 -0.1568
  360MOL0     H48581   7.679   3.658   3.309 -1.1102 -0.9229 -0.1477
  360MOL0     H48582   7.355   3.545   3.025  1.8261  0.4536  2.1237
  360MOL0     H48583   7.109   3.475   2.972 -2.3794 -3.7292  0.4685
  360MOL0     H48584   6.884   2.513   2.104  0.9740 -1.4203 -0.3421
  360MOL0     H48585   7.098   2.507   2.016  0.0966  0.8130 -1.5558
  360MOL0     H48586   7.326   2.381   1.816 -0.7192 -0.7786 -0.7038
  360MOL0     H48587   7.519   2.275   1.712  1.5789 -0.3271 -1.3705
  360MOL0     H48588   7.902   2.433   1.845  1.5672  1.9750 -0.3680
  360MOL0     H48589   7.918   2.489   1.678 -2.0863  1.9493  1.5301
  360MOL0     H48590   8.007   2.282   1.602 -0.1007  3.3193 -0.7878
  360MOL0     H48591   7.965   2.208   1.758 -2.4856  1.0765  0.7143
  360MOL0     H48592   8.197   2.261   1.761 -0.4073 -0.7485  1.3528
  360MOL0     H48593   8.111   2.354   1.884 -0.5642 -0.9242  0.4587
  360MOL0     H48594   8.149   2.490   1.621  3.2373 -0.5303 -0.5686
  360MOL0     H48595   8.111   2.555   1.780  0.6242  1.1399 -0.8829
  360MOL0     H48596   8.536   2.505   1.784 -0.4260 -0.5429 -0.3908
  360MOL0     H48597   7.757   2.613   1.781 -0.3910 -0.8279 -0.9797
  360MOL0     H48598   7.662   2.820   1.901  0.7869 -1.9545  3.9222
  360MOL0     H48599   7.506   2.841   1.833 -0.6880  1.0004  1.0709
  360MOL0     H48600   7.533   2.797   2.001  2.8576  2.0164  0.2089
  361MOL0     O48601   7.642   2.205   4.862 -0.7186 -0.1205  0.2475
  361MOL0     C48602   7.641   2.148   4.975 -0.5820  0.3929  0.4900
  361MOL0     O48603   7.755   2.093   5.034  0.5478  0.2946  0.4973
  361MOL0     C48604   7.863   2.070   4.953  0.0602 -0.0532  1.0018
  361MOL0     C48605   7.881   1.951   4.881 -0.4019 -0.1053 -0.3887
  361MOL0     C48606   8.003   1.933   4.806  0.8800  0.2231 -0.4605
  361MOL0     C48607   8.101   2.030   4.792  0.3506  0.6867 -0.4421
  361MOL0     O48608   8.208   2.015   4.716 -0.0529 -0.6925  0.1181
  361MOL0     C48609   8.315   1.952   4.786 -0.0921 -1.3289  0.4424
  361MOL0     C48610   8.399   2.047   4.877 -1.1010  0.5941 -0.1614
  361MOL0     C48611   8.496   2.126   4.799  0.7139  0.2910  0.2548
  361MOL0     C48612   8.598   2.201   4.882 -0.3125  0.2733  0.0787
  361MOL0     C48613   8.697   2.288   4.800  0.6633 -0.0375  0.3166
  361MOL0     C48614   8.835   2.309   4.878 -0.5728 -0.6146  0.1439
  361MOL0     C48615   8.921   2.405   4.808 -0.1313 -0.2113  0.0256
  361MOL0     C48616   9.069   2.391   4.856 -0.4369 -0.3663  0.7416
  361MOL0     N48617   9.127   2.256   4.831  0.0019  0.0404  0.1402
  361MOL0     C48618   9.161   2.204   4.717  0.5969  0.8097 -0.0988
  361MOL0     C48619   9.249   2.102   4.737  0.3498  0.2881  0.1646
  361MOL0     C48620   9.301   1.997   4.637 -0.6073 -0.2201 -0.2801
  361MOL0     C48621   9.456   1.998   4.628  0.6537  0.3467 -0.2239
  361MOL0     C48622   9.507   1.879   4.548 -0.7085 -0.9251 -0.1345
  361MOL0     C48623   9.661   1.884   4.536  0.4184  1.2216  0.1512
  361MOL0     O48624   9.705   1.948   4.416 -0.0914 -0.5694  0.1531
  361MOL0     C48625   9.837   1.951   4.384  0.7659 -0.6210  0.4360
  361MOL0     C48626   9.928   1.851   4.422 -0.0926  0.3909 -0.5400
  361MOL0     C48627  10.056   1.850   4.374 -0.9310  0.3894 -0.4519
  361MOL0     C48628  10.109   1.957   4.294 -0.1204 -0.5910  0.4212
  361MOL0     C48629  10.249   1.952   4.223  0.3703 -0.3355  0.0387
  361MOL0     O48630  10.307   1.834   4.221  0.1458 -0.3182 -0.2282
  361MOL0     C48631  10.425   1.828   4.147  0.3541  0.4537 -0.4306
  361MOL0     C48632  10.406   1.779   4.013  0.0095 -0.5918 -0.0801
  361MOL0     C48633  10.506   1.791   3.923 -0.5459  0.2811  0.1089
  361MOL0     C48634  10.637   1.844   3.949  0.0042 -1.2942 -0.2633
  361MOL0     O48635  10.740   1.855   3.868 -0.1160 -0.4982 -0.1591
  361MOL0     C48636  10.725   1.796   3.740  0.5929  0.8452  0.7726
  361MOL0     C48637  10.832   1.832   3.646 -0.3840  0.2181  0.5566
  361MOL0     C48638  10.973   1.760   3.683 -0.2200  0.0349 -0.5555
  361MOL0     C48639  11.088   1.809   3.588 -0.7971 -0.5602  0.6158
  361MOL0     C48640  11.206   1.705   3.584 -0.3425 -0.0026 -0.2558
  361MOL0     C48641  11.294   1.715   3.712 -0.5402 -0.0766  0.8345
  361MOL0     C48642  11.394   1.591   3.737  0.4205 -0.6471  0.4403
  361MOL0     C48643  11.517   1.645   3.804 -0.0280 -0.3189 -0.3943
  361MOL0    Cl48644  11.619   1.750   3.697  0.0575  0.0686 -0.0705
  361MOL0     C48645  10.655   1.879   4.086  0.4623  0.7921 -0.2302
  361MOL0     C48646  10.553   1.872   4.178 -0.9165 -0.3690  0.3115
  361MOL0     O48647  10.294   2.062   4.179  0.0169 -0.0654  0.5636
  361MOL0     C48648  10.017   2.067   4.266 -1.2037  0.1453 -0.9442
  361MOL0     C48649   9.881   2.062   4.303 -0.3688  0.9843 -0.5446
  361MOL0     N48650   9.267   2.102   4.874  0.2755  0.6868 -0.0392
  361MOL0     N48651   9.199   2.196   4.921  0.2737  0.1700 -0.0640
  361MOL0     C48652   8.075   2.154   4.856 -0.2063 -0.4181 -0.2396
  361MOL0     C48653   7.960   2.168   4.941 -0.3138 -0.6021  0.9490
  361MOL0     C48654   7.514   2.136   5.043  0.0117  1.5112 -1.3446
  361MOL0     C48655   7.518   2.099   5.175 -0.3112 -0.3516  0.8456
  361MOL0     C48656   7.398   2.085   5.257 -0.5738  0.0861  0.2210
  361MOL0     C48657   7.279   2.101   5.196  0.4465  1.2536  0.3152
  361MOL0     O48658   7.172   2.069   5.274  0.4327  0.1158  0.0210
  361MOL0     C48659   7.041   2.095   5.223  0.7342  0.4543  0.4124
  361MOL0     C48660   7.007   2.247   5.222  0.3198 -0.0136  0.3247
  361MOL0     C48661   6.869   2.283   5.170  0.4260  0.7543  0.6489
  361MOL0     C48662   6.847   2.432   5.175  0.0189 -0.0273  0.7276
  361MOL0     C48663   6.702   2.465   5.155 -0.4084  0.0380 -1.0136
  361MOL0     C48664   6.590   2.487   5.119  0.0493  0.0439 -0.3115
  361MOL0     C48665   7.272   2.132   5.060 -0.7240  0.4956  0.3392
  361MOL0     C48666   7.390   2.154   4.985 -0.1951  0.2910  0.3631
  361MOL0     C48667   7.366   2.188   4.838  0.1725 -0.1254  0.3233
  361MOL0     H48668   7.811   1.869   4.894  0.8055 -0.9649  0.9317
  361MOL0     H48669   8.019   1.835   4.763 -0.5423 -0.4524  0.4758
  361MOL0     H48670   8.270   1.871   4.844 -1.4646 -1.4903 -0.7905
  361MOL0     H48671   8.378   1.898   4.715 -1.2045  0.0289 -1.7051
  361MOL0     H48672   8.459   1.984   4.943 -0.7726  0.8444 -0.2137
  361MOL0     H48673   8.334   2.114   4.933 -0.7404  2.9574 -2.3584
  361MOL0     H48674   8.445   2.191   4.728 -1.5235 -1.7393 -0.1062
  361MOL0     H48675   8.559   2.055   4.745 -0.8614 -1.0588  0.1244
  361MOL0     H48676   8.542   2.264   4.952  0.3314 -0.5832  1.4056
  361MOL0     H48677   8.649   2.124   4.941 -2.4225 -1.8897 -0.7574
  361MOL0     H48678   8.728   2.253   4.701  1.1882  1.8131 -0.2090
  361MOL0     H48679   8.650   2.386   4.791  0.1366 -0.0121  2.5260
  361MOL0     H48680   8.814   2.347   4.978  1.5075 -1.1610  0.8349
  361MOL0     H48681   8.880   2.210   4.882  1.1778  0.1681  0.7166
  361MOL0     H48682   8.884   2.507   4.825 -2.7657 -1.2422  0.8592
  361MOL0     H48683   8.925   2.382   4.701 -0.7924 -1.6927  0.2980
  361MOL0     H48684   9.127   2.465   4.801 -2.5667  1.5442  0.9374
  361MOL0     H48685   9.083   2.407   4.963  0.4820 -0.4450  0.6446
  361MOL0     H48686   9.124   2.220   4.616  1.8690  0.5275 -0.6247
  361MOL0     H48687   9.270   1.899   4.673  1.0898 -0.3977  0.8016
  361MOL0     H48688   9.246   2.018   4.545 -1.4600  1.5659  0.5909
  361MOL0     H48689   9.493   2.093   4.590  1.8431 -0.9719 -2.5804
  361MOL0     H48690   9.485   1.997   4.733 -1.9627  2.0375  0.6120
  361MOL0     H48691   9.455   1.885   4.451  0.2941 -1.0742 -0.6967
  361MOL0     H48692   9.478   1.790   4.604  1.1048 -0.9003  0.8998
  361MOL0     H48693   9.687   1.778   4.536 -0.2406  1.0233 -1.9441
  361MOL0     H48694   9.699   1.934   4.627  0.1661  0.2428  0.8037
  361MOL0     H48695   9.885   1.763   4.470  1.7718  0.3349  1.1326
  361MOL0     H48696  10.128   1.775   4.403 -2.3751  0.2447  3.3413
  361MOL0     H48697  10.312   1.737   3.979 -0.8330  2.1290 -1.4287
  361MOL0     H48698  10.476   1.781   3.819  2.6885  0.1562 -0.9354
  361MOL0     H48699  10.722   1.687   3.749 -1.1679  0.8275  0.3925
  361MOL0     H48700  10.637   1.835   3.687 -1.1869 -1.0884  2.1559
  361MOL0     H48701  10.803   1.789   3.550  0.6127 -0.4884  0.5513
  361MOL0     H48702  10.854   1.939   3.640  1.9519 -0.2342 -0.2317
  361MOL0     H48703  10.999   1.775   3.788 -3.0340  0.4255  0.1540
  361MOL0     H48704  10.961   1.651   3.678  1.9871 -0.2323 -1.3670
  361MOL0     H48705  11.124   1.905   3.626 -0.4516 -0.2744 -0.4049
  361MOL0     H48706  11.046   1.817   3.488  0.5704  0.7087  0.1091
  361MOL0     H48707  11.279   1.737   3.510 -0.5106 -1.1592 -0.9427
  361MOL0     H48708  11.166   1.604   3.571 -0.7293  0.1004  0.1096
  361MOL0     H48709  11.353   1.806   3.704  1.4376 -1.2871  0.9634
  361MOL0     H48710  11.230   1.724   3.800 -1.6701 -2.1353  0.2998
  361MOL0     H48711  11.418   1.554   3.637  2.1274  1.8339 -0.1383
  361MOL0     H48712  11.338   1.515   3.793 -1.9404  0.1063 -0.7683
  361MOL0     H48713  11.483   1.696   3.894 -3.4430  2.8092 -3.1451
  361MOL0     H48714  11.582   1.558   3.824  0.9120  0.5882  0.6539
  361MOL0     H48715  10.743   1.936   4.111 -0.2908  3.2961 -2.7101
  361MOL0     H48716  10.582   1.904   4.278 -1.4096 -1.3104  0.7743
  361MOL0     H48717  10.056   2.147   4.203  1.0984  0.1062  0.3567
  361MOL0     H48718   9.807   2.141   4.289 -1.7796 -0.1684  0.1503
  361MOL0     H48719   8.154   2.228   4.846  2.5809 -3.3430 -1.4275
  361MOL0     H48720   7.947   2.260   4.998 -1.7474 -0.1673 -0.0142
  361MOL0     H48721   7.609   2.074   5.228  1.1334 -1.4239 -1.9262
  361MOL0     H48722   7.396   2.046   5.358  0.0726 -1.5203 -0.3606
  361MOL0     H48723   6.976   2.051   5.300 -0.8778 -0.6824 -1.5140
  361MOL0     H48724   7.019   2.063   5.121  0.5650 -1.3835  0.9971
  361MOL0     H48725   7.079   2.305   5.164  1.1299  0.7123  1.9931
  361MOL0     H48726   7.008   2.287   5.324  3.0981  0.1405  0.3150
  361MOL0     H48727   6.795   2.213   5.210 -0.5987  1.3023 -0.2087
  361MOL0     H48728   6.884   2.261   5.064  0.6363 -0.2871  0.8894
  361MOL0     H48729   6.871   2.484   5.267  1.1831  0.2367  0.2901
  361MOL0     H48730   6.896   2.480   5.090  0.7111 -0.1147  1.0739
  361MOL0     H48731   6.487   2.508   5.100 -0.7069  0.3640  3.3305
  361MOL0     H48732   7.174   2.138   5.014 -1.9229 -3.7573  1.8851
  361MOL0     H48733   7.399   2.106   4.774 -1.8550  0.3049 -1.3804
  361MOL0     H48734   7.261   2.209   4.819  0.2753  3.3787  2.6916
  361MOL0     H48735   7.414   2.281   4.806 -1.6660 -0.1571 -2.9346
  362MOL0     O48736   7.405  10.985   8.347  0.0776 -0.2430 -0.0436
  362MOL0     C48737   7.304  10.958   8.285 -0.5564 -0.2105 -0.3716
  362MOL0     O48738   7.276  11.010   8.163 -0.5045  0.6953 -0.2348
  362MOL0     C48739   7.346  11.106   8.104  0.3272 -0.0057 -0.2543
  362MOL0     C48740   7.352  11.101   7.966  0.3481  0.4537  0.4307
  362MOL0     C48741   7.411  11.203   7.892  0.0599 -0.6607  0.3931
  362MOL0     C48742   7.464  11.318   7.961 -0.4832  0.4608 -0.3721
  362MOL0     O48743   7.496  11.434   7.899  0.4228  0.0590 -0.1595
  362MOL0     C48744   7.625  11.439   7.839  0.1178  0.4418 -0.3252
  362MOL0     C48745   7.696  11.559   7.901  0.3470 -0.1405 -0.0444
  362MOL0     C48746   7.847  11.550   7.894  0.2021  0.5861 -0.3929
  362MOL0     C48747   7.909  11.662   7.961 -0.0682  0.2445  0.4213
  362MOL0     C48748   8.056  11.643   7.998 -0.4299 -0.9270  0.0244
  362MOL0     C48749   8.131  11.613   7.870  0.5328 -0.6536  0.5366
  362MOL0     C48750   8.273  11.580   7.896 -0.4974 -0.0000  0.1013
  362MOL0     C48751   8.353  11.562   7.763 -0.0506 -0.2913 -0.1936
  362MOL0     N48752   8.498  11.595   7.779  0.5197 -0.5645  0.1797
  362MOL0     C48753   8.586  11.636   7.680  0.7836 -0.6925 -0.2235
  362MOL0     C48754   8.705  11.628   7.748 -0.1395 -0.5955  0.0585
  362MOL0     C48755   8.844  11.645   7.689 -0.0711 -0.2079 -0.7553
  362MOL0     C48756   8.861  11.768   7.599  0.0821  0.2414  0.2098
  362MOL0     C48757   8.975  11.749   7.497  0.0857  0.5090 -1.2018
  362MOL0     C48758   9.108  11.718   7.570  0.3017  0.0384 -0.2907
  362MOL0     O48759   9.207  11.761   7.475 -0.5642  0.0024 -0.3752
  362MOL0     C48760   9.337  11.749   7.521 -0.0684  0.6886  0.3108
  362MOL0     C48761   9.366  11.671   7.636 -0.1214 -0.1915  0.5280
  362MOL0     C48762   9.498  11.643   7.664  0.2039 -0.1987  0.3068
  362MOL0     C48763   9.601  11.696   7.580  0.1520 -0.0800 -0.5772
  362MOL0     C48764   9.740  11.664   7.603 -0.4293  1.0536  0.2232
  362MOL0     O48765   9.773  11.550   7.672 -0.2607 -0.1416 -0.5303
  362MOL0     C48766   9.896  11.497   7.666 -0.5877  0.6929 -0.5991
  362MOL0     C48767   9.977  11.511   7.785 -0.1600 -0.2465 -0.1766
  362MOL0     C48768  10.106  11.457   7.794 -0.4154 -0.1857  0.5841
  362MOL0     C48769  10.169  11.396   7.684  0.6029  0.0370 -0.1095
  362MOL0     O48770  10.299  11.361   7.683 -0.2300  0.5252  0.2601
  362MOL0     C48771  10.397  11.474   7.697  1.1377  0.2546  0.3926
  362MOL0     C48772  10.493  11.476   7.577  0.4336  0.6254  0.2673
  362MOL0     C48773  10.614  11.574   7.603  1.2084 -0.1402  0.9296
  362MOL0     C48774  10.700  11.567   7.482  0.3369 -0.7077  0.6147
  362MOL0     C48775  10.806  11.676   7.503 -0.2098 -0.0372 -0.1382
  362MOL0     C48776  10.905  11.691   7.383  0.3987  0.0122 -1.0567
  362MOL0     C48777  11.037  11.765   7.422 -0.0218 -0.3196  0.0298
  362MOL0     C48778  11.125  11.775   7.309 -0.5146 -0.9679 -0.8851
  362MOL0    Cl48779  11.269  11.856   7.378 -0.1030  0.4847 -0.0112
  362MOL0     C48780  10.085  11.375   7.568 -0.0198  0.2909 -0.5135
  362MOL0     C48781   9.953  11.427   7.561  0.3010 -0.2166  0.0931
  362MOL0     O48782   9.826  11.740   7.551 -0.3624  0.2760  0.4397
  362MOL0     C48783   9.570  11.773   7.463  0.2041 -0.6039 -0.4287
  362MOL0     C48784   9.435  11.800   7.433 -0.1289 -0.1885  0.1374
  362MOL0     N48785   8.686  11.603   7.878  0.4390  0.2536  0.5069
  362MOL0     N48786   8.562  11.587   7.896  0.3780 -0.0890 -0.2603
  362MOL0     C48787   7.453  11.325   8.096  0.6142  0.0283 -0.0148
  362MOL0     C48788   7.404  11.220   8.173  1.1170 -0.6287 -0.0630
  362MOL0     C48789   7.196  10.898   8.373 -0.3197 -0.5475  0.7110
  362MOL0     C48790   7.219  10.774   8.440  0.1904 -0.3041 -0.1165
  362MOL0     C48791   7.142  10.730   8.542  0.2143 -0.4614 -0.0521
  362MOL0     C48792   7.018  10.793   8.565  0.4771  0.1062 -0.3898
  362MOL0     O48793   6.940  10.738   8.662  0.4183  0.7534  0.2359
  362MOL0     C48794   6.817  10.801   8.702  0.5213 -0.0707 -0.4579
  362MOL0     C48795   6.692  10.767   8.629  0.3470  0.1542 -0.1556
  362MOL0     C48796   6.577  10.840   8.696 -0.4264 -0.7481  0.3161
  362MOL0     C48797   6.433  10.794   8.666 -0.2667  0.0822  0.0183
  362MOL0     C48798   6.418  10.663   8.732  0.8511  0.3780  0.4961
  362MOL0     C48799   6.413  10.562   8.796  0.6443 -0.3403  0.1715
  362MOL0     C48800   6.987  10.911   8.490 -0.4467 -0.6284 -0.3499
  362MOL0     C48801   7.073  10.958   8.388 -0.5474 -1.2112  0.4214
  362MOL0     C48802   7.039  11.090   8.320  0.6210  0.6847 -0.3352
  362MOL0     H48803   7.301  11.022   7.911  1.0744 -2.2773  3.3670
  362MOL0     H48804   7.413  11.218   7.785  1.0147  0.8294  0.5799
  362MOL0     H48805   7.676  11.344   7.857 -0.7134 -0.3046 -1.7891
  362MOL0     H48806   7.614  11.461   7.733 -1.1374  0.8837 -0.1273
  362MOL0     H48807   7.657  11.574   8.002 -0.6869  1.3812 -0.6339
  362MOL0     H48808   7.664  11.654   7.859 -0.5666 -0.7044 -0.6649
  362MOL0     H48809   7.878  11.547   7.789  3.6636 -0.0466  0.5250
  362MOL0     H48810   7.874  11.456   7.943 -0.0252  2.0386  2.7446
  362MOL0     H48811   7.906  11.750   7.896 -0.2920  2.2360  2.9989
  362MOL0     H48812   7.846  11.690   8.045  2.9885 -0.8441  3.2734
  362MOL0     H48813   8.095  11.738   8.036 -3.1224  0.2571  0.0487
  362MOL0     H48814   8.082  11.572   8.077  1.4625  0.3758  0.6448
  362MOL0     H48815   8.083  11.526   7.824  0.9379 -0.6425  0.0751
  362MOL0     H48816   8.117  11.694   7.797 -0.9072 -0.3509  1.1166
  362MOL0     H48817   8.281  11.495   7.965  1.4930  0.2254  0.2189
  362MOL0     H48818   8.305  11.669   7.951  0.4842  0.0662 -0.5611
  362MOL0     H48819   8.324  11.463   7.728 -2.6877  0.2406  0.2413
  362MOL0     H48820   8.305  11.627   7.689 -2.1259  0.2278  1.4947
  362MOL0     H48821   8.559  11.660   7.578 -0.5068 -1.3835 -0.0738
  362MOL0     H48822   8.923  11.636   7.764 -1.5811 -1.4926  0.7934
  362MOL0     H48823   8.854  11.559   7.622 -2.3504  0.5082 -2.1101
  362MOL0     H48824   8.779  11.772   7.526 -1.0921  0.0684  1.4893
  362MOL0     H48825   8.862  11.858   7.660  0.5512  0.1018  0.4149
  362MOL0     H48826   8.979  11.846   7.445  0.1816  2.9931  3.0189
  362MOL0     H48827   8.955  11.672   7.422 -2.5175  1.0628 -1.1638
  362MOL0     H48828   9.118  11.612   7.594 -0.4464 -0.0494 -0.3174
  362MOL0     H48829   9.104  11.777   7.662  1.7406 -1.6363  0.9125
  362MOL0     H48830   9.290  11.632   7.703  0.7106 -0.4211  1.3429
  362MOL0     H48831   9.521  11.588   7.755 -0.3138 -0.1540  0.4664
  362MOL0     H48832   9.938  11.559   7.875 -2.7471 -2.6314  0.1127
  362MOL0     H48833  10.153  11.473   7.891  1.7550  0.4763 -0.5051
  362MOL0     H48834  10.345  11.570   7.704  1.2002  0.4032 -1.0090
  362MOL0     H48835  10.455  11.469   7.790 -1.6627 -0.6295  2.2295
  362MOL0     H48836  10.520  11.377   7.539  1.6039  1.7429 -2.0615
  362MOL0     H48837  10.444  11.517   7.488  0.4785 -1.7998 -0.9609
  362MOL0     H48838  10.568  11.673   7.608  2.1587  0.4895 -1.6247
  362MOL0     H48839  10.673  11.547   7.691  0.3404 -3.7868  0.5881
  362MOL0     H48840  10.644  11.584   7.390 -0.8773 -0.6674  1.3506
  362MOL0     H48841  10.756  11.473   7.481  1.2512 -0.2157 -1.7723
  362MOL0     H48842  10.863  11.660   7.594 -2.3571  1.5596  1.5832
  362MOL0     H48843  10.762  11.776   7.518  1.9228  1.2192 -1.6786
  362MOL0     H48844  10.926  11.589   7.349  0.4946 -1.7336  3.6162
  362MOL0     H48845  10.860  11.744   7.298  0.0164  0.3656 -0.6369
  362MOL0     H48846  11.099  11.734   7.508  0.5512 -0.4930 -0.4379
  362MOL0     H48847  11.011  11.869   7.441  4.0094  1.2905 -2.0081
  362MOL0     H48848  11.164  11.677   7.280  3.7789 -0.4404  2.1650
  362MOL0     H48849  11.087  11.834   7.225  0.9808  0.5541 -0.5438
  362MOL0     H48850  10.129  11.324   7.483 -0.1240 -0.8786  0.1171
  362MOL0     H48851   9.890  11.415   7.473  0.7594 -1.1586 -0.1164
  362MOL0     H48852   9.648  11.803   7.394 -0.1423 -1.1487 -1.0662
  362MOL0     H48853   9.397  11.843   7.341  1.7687  0.1711 -0.5105
  362MOL0     H48854   7.485  11.412   8.154 -0.6004 -1.1164  2.5449
  362MOL0     H48855   7.389  11.226   8.281 -1.3206 -0.0473 -0.3763
  362MOL0     H48856   7.304  10.709   8.422 -1.9727 -3.1524 -0.7669
  362MOL0     H48857   7.165  10.634   8.587 -2.9252 -1.1617  0.3058
  362MOL0     H48858   6.823  10.910   8.707 -0.0590  0.0222 -1.5852
  362MOL0     H48859   6.815  10.768   8.806 -0.7483  2.8290  0.5410
  362MOL0     H48860   6.677  10.659   8.638 -1.9683  0.4234 -0.2344
  362MOL0     H48861   6.715  10.791   8.525  0.0459 -2.8082 -0.9926
  362MOL0     H48862   6.576  10.944   8.661 -1.9957 -0.4940  1.0224
  362MOL0     H48863   6.600  10.841   8.803  0.5316 -1.0423  0.1219
  362MOL0     H48864   6.355  10.852   8.717 -0.8498 -0.5760 -0.1192
  362MOL0     H48865   6.428  10.804   8.557 -0.9731  1.3940  0.1426
  362MOL0     H48866   6.421  10.470   8.851 -0.1709  0.5465  1.8468
  362MOL0     H48867   6.898  10.971   8.510 -0.3267  0.4165 -2.6232
  362MOL0     H48868   6.941  11.132   8.347  0.2356  0.4373 -1.2797
  362MOL0     H48869   7.120  11.161   8.334  0.2707  0.8638  0.8553
  362MOL0     H48870   7.022  11.067   8.214 -1.3121 -2.1735  0.4750
  363MOL0     O48871   5.747   4.474   2.219 -0.6304 -0.0645 -0.1966
  363MOL0     C48872   5.871   4.479   2.184 -0.0509  0.5057  0.1838
  363MOL0     O48873   5.914   4.453   2.059 -0.2994 -0.3906  0.3910
  363MOL0     C48874   5.823   4.395   1.975 -0.2128 -0.4800  0.3754
  363MOL0     C48875   5.691   4.436   1.955  0.5904 -0.1398  0.4805
  363MOL0     C48876   5.603   4.368   1.856 -0.4255 -0.4109  0.0052
  363MOL0     C48877   5.664   4.278   1.763 -0.0956  0.4493 -0.0775
  363MOL0     O48878   5.603   4.188   1.680 -0.2626 -0.4218 -0.0914
  363MOL0     C48879   5.477   4.235   1.634 -0.2149  1.0454  0.0539
  363MOL0     C48880   5.429   4.139   1.526  0.0660  0.4381  0.4413
  363MOL0     C48881   5.522   4.129   1.402  0.4764  0.0158  0.4956
  363MOL0     C48882   5.474   4.011   1.306  0.3243 -0.1417 -0.0283
  363MOL0     C48883   5.575   3.968   1.209 -0.4627  0.2378  0.6076
  363MOL0     C48884   5.604   4.071   1.102  0.6748  0.2608  0.0558
  363MOL0     C48885   5.487   4.062   0.994 -0.4964 -0.0802  0.7595
  363MOL0     C48886   5.524   4.129   0.871 -0.3553  0.4381  0.5783
  363MOL0     N48887   5.525   4.276   0.877  0.1175  0.1914 -0.2810
  363MOL0     C48888   5.428   4.361   0.818 -0.2184  0.6169 -0.5305
  363MOL0     C48889   5.491   4.481   0.794 -0.5421 -0.0209  0.4202
  363MOL0     C48890   5.426   4.593   0.712 -0.6365 -0.2353  0.0984
  363MOL0     C48891   5.488   4.726   0.732 -0.1057 -0.2968  0.2192
  363MOL0     C48892   5.585   4.757   0.614  1.1040  0.8180 -0.5244
  363MOL0     C48893   5.715   4.682   0.629 -0.4288  0.7848 -0.7607
  363MOL0     O48894   5.809   4.737   0.532  0.5581  0.8625 -0.8557
  363MOL0     C48895   5.937   4.696   0.542  0.3104 -0.1162 -0.3156
  363MOL0     C48896   5.982   4.607   0.633 -0.3319  0.3213  0.0560
  363MOL0     C48897   6.118   4.566   0.647 -0.6948 -0.1336 -0.0192
  363MOL0     C48898   6.209   4.625   0.553 -0.9805  0.0422  0.4925
  363MOL0     C48899   6.351   4.588   0.559  0.2682 -0.2015 -0.5730
  363MOL0     O48900   6.437   4.676   0.499  0.0219  0.0645 -0.7952
  363MOL0     C48901   6.562   4.682   0.550  0.1284 -0.3288 -0.3145
  363MOL0     C48902   6.590   4.722   0.680  0.6272 -0.0349 -0.4681
  363MOL0     C48903   6.726   4.703   0.729 -0.0818 -0.0477  0.0540
  363MOL0     C48904   6.824   4.645   0.648 -0.9280  0.1286  0.2057
  363MOL0     O48905   6.945   4.622   0.714  0.5042  0.3981 -0.2582
  363MOL0     C48906   7.064   4.610   0.642  0.5854  0.5090 -0.0916
  363MOL0     C48907   7.182   4.654   0.721  0.2660 -0.0269  0.2902
  363MOL0     C48908   7.318   4.601   0.672 -0.2579 -0.3807  0.7192
  363MOL0     C48909   7.322   4.611   0.514 -0.6864 -0.0385  0.4431
  363MOL0     C48910   7.448   4.543   0.454  0.0231  0.3805 -0.4613
  363MOL0     C48911   7.567   4.630   0.486 -0.5765  0.7318  0.0688
  363MOL0     C48912   7.636   4.560   0.609 -0.4200 -0.3245 -0.1223
  363MOL0     C48913   7.767   4.637   0.640 -0.4872  0.6096 -0.2560
  363MOL0    Cl48914   7.836   4.564   0.788  0.4253 -0.1127 -0.0791
  363MOL0     C48915   6.797   4.627   0.512  0.3528 -0.5747  0.0469
  363MOL0     C48916   6.664   4.644   0.465  0.2282  0.2127  0.4462
  363MOL0     O48917   6.378   4.495   0.636  0.1658 -0.1675 -0.1936
  363MOL0     C48918   6.161   4.717   0.457  0.5900 -0.1624  0.5122
  363MOL0     C48919   6.025   4.749   0.455  0.7148  0.0701  0.1065
  363MOL0     N48920   5.614   4.474   0.860  0.0307 -0.3753 -0.7141
  363MOL0     N48921   5.635   4.352   0.899  1.0952 -0.5075  0.1000
  363MOL0     C48922   5.796   4.243   1.784 -0.7522 -0.1900  0.0705
  363MOL0     C48923   5.878   4.295   1.883 -0.1053  0.0999 -0.0260
  363MOL0     C48924   5.980   4.491   2.279 -0.6491 -0.4182  0.0356
  363MOL0     C48925   6.103   4.430   2.248  0.7187  0.2566 -0.1208
  363MOL0     C48926   6.205   4.421   2.342 -0.9176 -0.5317 -0.8242
  363MOL0     C48927   6.209   4.488   2.467 -1.0674  0.5206 -0.6974
  363MOL0     O48928   6.311   4.507   2.550 -0.7037 -0.1478  0.0486
  363MOL0     C48929   6.408   4.398   2.560 -0.0061  0.4469  0.1075
  363MOL0     C48930   6.396   4.338   2.703  0.6153 -0.3330 -0.3320
  363MOL0     C48931   6.495   4.406   2.798 -0.7676 -1.1280 -0.4187
  363MOL0     C48932   6.638   4.356   2.786 -0.3939  0.0421 -0.0235
  363MOL0     C48933   6.746   4.424   2.861  1.0118 -0.3366  0.0660
  363MOL0     C48934   6.841   4.478   2.911  0.1434 -0.8734  0.6314
  363MOL0     C48935   6.091   4.560   2.486  0.6160  0.2137 -0.3275
  363MOL0     C48936   5.971   4.553   2.408  0.1530 -0.4719 -0.4724
  363MOL0     C48937   5.856   4.637   2.463  0.1290 -0.2608 -0.2410
  363MOL0     H48938   5.642   4.512   2.014  0.5413  1.6550 -1.7200
  363MOL0     H48939   5.496   4.386   1.850 -0.8365 -2.7578 -0.8765
  363MOL0     H48940   5.406   4.230   1.717  0.6496 -1.3074  0.7360
  363MOL0     H48941   5.492   4.336   1.594 -0.9282  1.2454  0.2778
  363MOL0     H48942   5.327   4.169   1.501 -0.5017 -3.0116 -2.1199
  363MOL0     H48943   5.423   4.039   1.569 -4.7982  1.2932  2.4001
  363MOL0     H48944   5.621   4.102   1.439 -0.1130 -0.1868  2.0047
  363MOL0     H48945   5.524   4.223   1.347  1.7357 -0.8568 -0.9954
  363MOL0     H48946   5.445   3.919   1.358  1.7252 -1.7437 -1.9111
  363MOL0     H48947   5.381   4.045   1.258 -1.5727 -4.0039  0.4870
  363MOL0     H48948   5.666   3.940   1.263 -1.0436  0.2046  1.5916
  363MOL0     H48949   5.538   3.875   1.166  0.7450 -0.3418  0.8099
  363MOL0     H48950   5.603   4.172   1.143 -0.3922  0.7849 -1.1949
  363MOL0     H48951   5.699   4.042   1.055 -0.6251 -0.4170 -2.2861
  363MOL0     H48952   5.393   4.108   1.027 -0.0536  2.0101 -0.7083
  363MOL0     H48953   5.470   3.957   0.971 -3.8715  0.9461 -2.4426
  363MOL0     H48954   5.627   4.112   0.839 -1.3031 -2.3889 -1.3317
  363MOL0     H48955   5.458   4.087   0.795 -0.2069 -0.6861  1.0568
  363MOL0     H48956   5.331   4.336   0.778  0.3770  0.9854 -2.3106
  363MOL0     H48957   5.420   4.566   0.606  0.8466 -1.7406  0.3526
  363MOL0     H48958   5.324   4.594   0.753 -1.8117  0.6178 -2.6042
  363MOL0     H48959   5.409   4.801   0.724 -1.5921 -1.7619  0.4699
  363MOL0     H48960   5.528   4.737   0.833 -1.6924  1.7243  0.7059
  363MOL0     H48961   5.599   4.865   0.607  0.7564  1.1765  2.7386
  363MOL0     H48962   5.539   4.719   0.522  0.5771 -0.9147  0.4005
  363MOL0     H48963   5.703   4.574   0.612 -0.2914  0.0348  3.0390
  363MOL0     H48964   5.751   4.697   0.731 -1.4300 -1.9497  0.1120
  363MOL0     H48965   5.914   4.548   0.693 -0.1946  0.7578  0.6520
  363MOL0     H48966   6.151   4.491   0.718 -1.2787 -3.2977 -2.8121
  363MOL0     H48967   6.519   4.759   0.752  2.6641  1.1440  1.0504
  363MOL0     H48968   6.749   4.723   0.833 -0.5929  1.4992 -0.1058
  363MOL0     H48969   7.077   4.503   0.625  2.6676  0.2881  2.3319
  363MOL0     H48970   7.053   4.660   0.545 -0.4557 -1.1732 -0.8941
  363MOL0     H48971   7.180   4.763   0.713 -0.7192 -0.1369 -1.2956
  363MOL0     H48972   7.163   4.623   0.824  0.5490 -0.5550  0.1821
  363MOL0     H48973   7.393   4.667   0.716 -0.6074 -0.1283  0.9391
  363MOL0     H48974   7.339   4.497   0.698 -0.2426 -0.4541  0.4109
  363MOL0     H48975   7.308   4.717   0.490 -1.4491 -0.2215  0.0229
  363MOL0     H48976   7.244   4.557   0.459  0.1108 -0.0280 -0.7156
  363MOL0     H48977   7.438   4.516   0.348 -0.8227 -0.8149 -0.1014
  363MOL0     H48978   7.459   4.450   0.511  0.5975  2.0240  2.2917
  363MOL0     H48979   7.639   4.621   0.405 -0.2887  2.2290  0.1364
  363MOL0     H48980   7.533   4.731   0.509 -2.1218  0.2477  0.0556
  363MOL0     H48981   7.655   4.456   0.582 -0.5824 -0.3546 -0.1222
  363MOL0     H48982   7.580   4.567   0.703  1.4814  1.3487  0.9730
  363MOL0     H48983   7.830   4.618   0.553 -0.3142  1.0275 -0.2255
  363MOL0     H48984   7.751   4.745   0.650 -0.6474  0.5720 -0.0823
  363MOL0     H48985   6.867   4.588   0.439  1.0015 -0.3436  0.5347
  363MOL0     H48986   6.643   4.621   0.361 -0.6681  0.8824  0.4736
  363MOL0     H48987   6.228   4.762   0.384  1.9873 -1.6908  0.8059
  363MOL0     H48988   5.984   4.825   0.389 -2.5363 -0.8631  0.8695
  363MOL0     H48989   5.831   4.161   1.723 -1.1140  1.0091 -1.8258
  363MOL0     H48990   5.981   4.265   1.899  1.1559  4.4490  1.5636
  363MOL0     H48991   6.110   4.382   2.150  2.2722 -0.6738  0.4187
  363MOL0     H48992   6.290   4.359   2.315 -0.3578 -0.3417  0.4481
  363MOL0     H48993   6.506   4.442   2.536  0.2780 -1.7386 -3.2736
  363MOL0     H48994   6.394   4.320   2.486  1.8551  0.2132 -0.0372
  363MOL0     H48995   6.433   4.235   2.698  1.2561 -0.5037  3.8564
  363MOL0     H48996   6.291   4.337   2.732  0.7176  0.0507  0.0613
  363MOL0     H48997   6.464   4.377   2.899  0.2243  0.1721  0.3055
  363MOL0     H48998   6.489   4.515   2.787 -1.3287 -1.3371 -2.7724
  363MOL0     H48999   6.641   4.249   2.807 -0.3739  0.0550  0.0372
  363MOL0     H49000   6.664   4.371   2.680  0.0460  1.3285  0.2553
  363MOL0     H49001   6.907   4.516   2.987 -2.5126 -0.6561  3.0160
  363MOL0     H49002   6.100   4.628   2.571  5.2413 -1.1276  0.5400
  363MOL0     H49003   5.757   4.605   2.431  0.1975 -2.5893  1.6158
  363MOL0     H49004   5.858   4.651   2.572 -1.7411  1.6967 -0.4062
  363MOL0     H49005   5.856   4.737   2.418  2.9888 -0.5824 -1.1988
  364MOL0     O49006  10.600   6.320  10.398  0.2662  0.0316  0.1787
  364MOL0     C49007  10.520   6.358  10.309  0.0480 -0.7416  0.8578
  364MOL0     O49008  10.555   6.420  10.193 -1.3098 -0.4302  0.3028
  364MOL0     C49009  10.687   6.431  10.151  0.7193  0.0662 -0.9469
  364MOL0     C49010  10.760   6.315  10.140 -0.2753  0.4114  0.3560
  364MOL0     C49011  10.895   6.314  10.086  0.1156  0.3768  0.0715
  364MOL0     C49012  10.963   6.435  10.059 -0.4175  1.0022  0.2182
  364MOL0     O49013  11.089   6.438  10.005 -0.1119 -0.0143 -0.1583
  364MOL0     C49014  11.171   6.549  10.043  0.3890  0.7762 -0.1942
  364MOL0     C49015  11.306   6.497  10.113  0.2610 -0.7963 -0.5712
  364MOL0     C49016  11.381   6.623  10.158 -0.7554 -0.6154  0.1566
  364MOL0     C49017  11.486   6.584  10.254 -0.3601  0.3170 -0.6049
  364MOL0     C49018  11.573   6.713  10.285 -0.1642 -0.3445 -0.7983
  364MOL0     C49019  11.669   6.746  10.164 -0.3157  0.0075  0.1732
  364MOL0     C49020  11.777   6.639  10.132 -0.9298  0.6556 -0.2711
  364MOL0     C49021  11.876   6.620  10.245  1.0053  1.0011 -0.2756
  364MOL0     N49022  11.951   6.743  10.281  0.5148  1.2805  0.4045
  364MOL0     C49023  12.037   6.797  10.188  0.4537 -0.2030 -0.0642
  364MOL0     C49024  12.084   6.906  10.254  0.1613  0.1171  0.3643
  364MOL0     C49025  12.193   6.992  10.208  0.4372 -0.2532 -0.1431
  364MOL0     C49026  12.326   6.932  10.197 -0.0192  0.5301  0.1890
  364MOL0     C49027  12.430   7.030  10.133 -0.1585 -0.3671 -0.1609
  364MOL0     C49028  12.559   6.953  10.097 -0.2241  0.5552  0.1799
  364MOL0     O49029  12.545   6.863   9.993 -0.7160  0.5902  0.4991
  364MOL0     C49030  12.655   6.796   9.977 -0.3738  0.5846  0.1687
  364MOL0     C49031  12.655   6.681   9.887  0.4089 -0.7000  0.5284
  364MOL0     C49032  12.764   6.598   9.875  0.0521  0.2673  0.5357
  364MOL0     C49033  12.890   6.616   9.932 -0.0997 -0.1512 -0.3160
  364MOL0     C49034  12.996   6.509   9.934  0.4141 -0.9404 -0.5981
  364MOL0     O49035  13.093   6.520  10.034 -0.2352  0.7263  0.0565
  364MOL0     C49036  13.165   6.408  10.072  0.6255 -0.5988  0.1569
  364MOL0     C49037  13.296   6.437  10.112  0.4338 -0.3642  0.1705
  364MOL0     C49038  13.377   6.336  10.167  0.5092  0.9323 -0.0608
  364MOL0     C49039  13.319   6.208  10.183  0.1484 -0.5178  0.2593
  364MOL0     O49040  13.383   6.102  10.218  0.4378 -0.0151 -0.0259
  364MOL0     C49041  13.519   6.111  10.276  1.0313  0.7820 -0.2718
  364MOL0     C49042  13.574   5.966  10.286  0.1387  0.8704  0.0910
  364MOL0     C49043  13.710   5.966  10.350 -1.1865 -0.3652  0.1340
  364MOL0     C49044  13.840   6.029  10.276 -0.1053  0.4227  0.1455
  364MOL0     C49045  13.960   6.041  10.374 -0.3629  0.6507  0.1210
  364MOL0     C49046  14.086   6.096  10.305  0.1383  0.1397 -0.5263
  364MOL0     C49047  14.056   6.233  10.245  0.4093  0.2204  0.3473
  364MOL0     C49048  14.190   6.295  10.212  0.1009  0.2922 -0.6168
  364MOL0    Cl49049  14.283   6.196  10.104  0.0107  0.1485  0.0597
  364MOL0     C49050  13.194   6.182  10.145 -0.4365 -0.2728 -0.8102
  364MOL0     C49051  13.114   6.281  10.089  0.0365 -0.3024 -0.2470
  364MOL0     O49052  12.987   6.414   9.851 -0.3623  0.1131 -0.3268
  364MOL0     C49053  12.899   6.731  10.005  0.9065  0.2183 -0.0117
  364MOL0     C49054  12.789   6.824  10.026  0.1791 -0.0262  0.5600
  364MOL0     N49055  12.014   6.910  10.379 -0.5947 -0.1666  0.9863
  364MOL0     N49056  11.934   6.819  10.385 -0.5592  0.0602 -0.4127
  364MOL0     C49057  10.886   6.552  10.087  0.0015  0.4756  0.4125
  364MOL0     C49058  10.754   6.551  10.126  0.1181  0.7151  0.4580
  364MOL0     C49059  10.381   6.354  10.343  0.0280  0.4017  0.0876
  364MOL0     C49060  10.298   6.467  10.315  0.0493  0.3960  0.1103
  364MOL0     C49061  10.164   6.458  10.349 -0.4257  0.2737 -0.3837
  364MOL0     C49062  10.108   6.355  10.421  0.0888 -0.6242 -0.4598
  364MOL0     O49063   9.975   6.369  10.457 -0.3083  0.0323  0.6083
  364MOL0     C49064   9.909   6.259  10.522 -0.4531  0.4233  0.6954
  364MOL0     C49065   9.759   6.288  10.558 -0.2643  0.7454  0.4355
  364MOL0     C49066   9.747   6.402  10.657 -0.1655 -0.5004 -1.1576
  364MOL0     C49067   9.815   6.375  10.798  0.4177  0.4413 -0.0742
  364MOL0     C49068   9.739   6.270  10.876  0.0384 -0.1495 -0.3336
  364MOL0     C49069   9.683   6.201  10.963  0.8583  0.2712  0.0586
  364MOL0     C49070  10.188   6.245  10.442  0.0183  0.0533 -0.3277
  364MOL0     C49071  10.315   6.237  10.399  0.1544 -0.1916  0.3933
  364MOL0     C49072  10.389   6.102  10.399  0.8707  0.2489  0.1129
  364MOL0     H49073  10.703   6.224  10.151  0.3911 -0.1965 -0.9586
  364MOL0     H49074  10.946   6.219  10.074  2.0754  1.4584 -0.5865
  364MOL0     H49075  11.197   6.605   9.952  2.8678  2.8733  1.6853
  364MOL0     H49076  11.119   6.621  10.107 -0.2653  1.3810 -1.3670
  364MOL0     H49077  11.364   6.438  10.041  1.7990  1.4344 -1.2828
  364MOL0     H49078  11.288   6.437  10.202  0.2733 -0.4285 -0.3194
  364MOL0     H49079  11.315   6.702  10.196 -0.8094 -1.4286  1.8241
  364MOL0     H49080  11.429   6.677  10.076  0.8447 -0.2747  1.2689
  364MOL0     H49081  11.440   6.550  10.348  1.8880  0.0908  0.4705
  364MOL0     H49082  11.550   6.506  10.213 -1.7856 -1.0472 -0.3547
  364MOL0     H49083  11.515   6.804  10.303 -0.1410 -0.5847  0.6324
  364MOL0     H49084  11.630   6.701  10.377 -1.0845 -2.0627 -0.3925
  364MOL0     H49085  11.606   6.768  10.077 -0.5991  1.8400  0.7956
  364MOL0     H49086  11.709   6.846  10.182  0.1869 -0.0322 -0.6847
  364MOL0     H49087  11.829   6.679  10.044  2.2665  1.1764  1.6952
  364MOL0     H49088  11.729   6.543  10.109 -1.3959  0.9688 -0.6231
  364MOL0     H49089  11.814   6.593  10.330 -0.6435 -0.4893 -1.8621
  364MOL0     H49090  11.951   6.541  10.230 -0.5879 -1.1714  2.4136
  364MOL0     H49091  12.059   6.763  10.088 -1.1913 -1.8036  0.0672
  364MOL0     H49092  12.162   7.033  10.112  1.3027  2.2812  0.5621
  364MOL0     H49093  12.212   7.071  10.281  0.0025 -1.5028  1.3875
  364MOL0     H49094  12.362   6.908  10.298 -0.5007 -3.6261 -0.4367
  364MOL0     H49095  12.319   6.842  10.134 -2.1738 -0.8538  2.2107
  364MOL0     H49096  12.451   7.111  10.203 -2.3372 -2.2122  2.8945
  364MOL0     H49097  12.386   7.075  10.044 -0.5962 -0.7930 -0.1640
  364MOL0     H49098  12.596   6.911  10.191 -0.6287  0.5965  0.3638
  364MOL0     H49099  12.633   7.026  10.064  1.5096 -0.5451  1.4815
  364MOL0     H49100  12.562   6.655   9.837  1.7107 -0.9745 -1.8922
  364MOL0     H49101  12.743   6.505   9.823  1.7645  2.0604 -3.7972
  364MOL0     H49102  13.346   6.530  10.089  2.4068 -1.5867 -0.7395
  364MOL0     H49103  13.482   6.358  10.187  0.9975 -0.1722 -1.2143
  364MOL0     H49104  13.584   6.171  10.213  2.3537  0.0685  0.3613
  364MOL0     H49105  13.519   6.155  10.376 -0.5358  0.7953 -0.2428
  364MOL0     H49106  13.511   5.899  10.345 -0.6812 -0.9997 -2.6973
  364MOL0     H49107  13.586   5.922  10.187 -0.5373  0.7165  0.0752
  364MOL0     H49108  13.700   6.016  10.447  0.1329  0.1460  0.0397
  364MOL0     H49109  13.744   5.865  10.377  0.6224  0.0675 -0.3776
  364MOL0     H49110  13.811   6.133  10.263  2.6453  1.7333  3.0402
  364MOL0     H49111  13.860   5.982  10.179  0.1739 -0.4261  0.5932
  364MOL0     H49112  13.994   5.954  10.431  0.1120  3.7453  5.1577
  364MOL0     H49113  13.954   6.119  10.451  3.8384  0.9607  0.3753
  364MOL0     H49114  14.161   6.101  10.384  0.0939 -2.6166 -0.1904
  364MOL0     H49115  14.112   6.021  10.229  0.4161 -0.1910 -0.1121
  364MOL0     H49116  14.005   6.299  10.315  2.0723  0.5592  1.3092
  364MOL0     H49117  13.997   6.223  10.153  0.6452 -2.6310  0.4304
  364MOL0     H49118  14.188   6.387  10.154 -0.2070 -0.5063 -1.9138
  364MOL0     H49119  14.250   6.311  10.302 -1.2901 -0.9969  0.6074
  364MOL0     H49120  13.152   6.082  10.149 -2.3647  0.4923 -0.7462
  364MOL0     H49121  13.010   6.267  10.061 -0.8335  1.3538  1.8316
  364MOL0     H49122  12.992   6.753  10.057  0.8397  1.3940 -0.3552
  364MOL0     H49123  12.824   6.910  10.081 -1.3556  1.0889 -0.1445
  364MOL0     H49124  10.933   6.648  10.068 -0.7423  0.7010 -0.3738
  364MOL0     H49125  10.696   6.643  10.126 -1.4793  0.0157  5.4574
  364MOL0     H49126  10.335   6.560  10.274 -0.6879 -0.2364 -2.1394
  364MOL0     H49127  10.095   6.539  10.328 -1.1124  0.4045  2.0206
  364MOL0     H49128   9.972   6.229  10.606  0.4324  2.1740  0.7023
  364MOL0     H49129   9.905   6.166  10.464 -1.6559 -0.2743  1.8289
  364MOL0     H49130   9.711   6.199  10.600  0.0797 -0.8209 -2.3193
  364MOL0     H49131   9.694   6.307  10.473 -0.3149 -0.8801  0.0749
  364MOL0     H49132   9.646   6.433  10.684  0.6199 -0.3424  1.9749
  364MOL0     H49133   9.789   6.491  10.609  0.4505 -0.1155  0.0587
  364MOL0     H49134   9.923   6.357  10.796  0.2715 -0.3790 -1.3985
  364MOL0     H49135   9.793   6.468  10.852 -0.1197  0.1866  0.1582
  364MOL0     H49136   9.641   6.152  11.048 -1.5186  1.9397 -0.0569
  364MOL0     H49137  10.152   6.148  10.475 -1.9819  0.8035 -0.1587
  364MOL0     H49138  10.474   6.101  10.331 -0.3827  2.0560 -1.6274
  364MOL0     H49139  10.426   6.085  10.500  0.6086  2.3719  0.6144
  364MOL0     H49140  10.332   6.012  10.373  1.5156  0.0598 -0.6851
  365MOL0     O49141   5.994  10.596   7.313 -0.1139  0.0907 -0.2114
  365MOL0     C49142   5.991  10.507   7.400  0.2578 -0.5177  0.1023
  365MOL0     O49143   6.091  10.451   7.466 -0.0427  0.2899  0.5171
  365MOL0     C49144   6.219  10.485   7.446 -0.2849  0.0983 -0.8514
  365MOL0     C49145   6.287  10.559   7.352 -0.2789 -0.4742  0.3822
  365MOL0     C49146   6.426  10.585   7.360  0.1189 -0.1183 -0.0833
  365MOL0     C49147   6.509  10.524   7.451 -0.2187 -0.5195 -0.2259
  365MOL0     O49148   6.636  10.576   7.456  0.2546 -0.4376  1.3745
  365MOL0     C49149   6.741  10.483   7.497 -0.3677 -0.0472  0.0523
  365MOL0     C49150   6.866  10.565   7.486  0.6538  0.5000 -0.0544
  365MOL0     C49151   6.990  10.479   7.504 -0.4718 -0.0112 -0.4944
  365MOL0     C49152   7.109  10.567   7.535 -0.6088  0.1240  0.7531
  365MOL0     C49153   7.227  10.467   7.552  0.1119  0.5917  0.7111
  365MOL0     C49154   7.356  10.528   7.581 -0.1369  0.2225 -0.1386
  365MOL0     C49155   7.472  10.439   7.628 -0.0837  0.1797 -0.2223
  365MOL0     C49156   7.604  10.518   7.631 -0.2562 -0.1783 -0.0192
  365MOL0     N49157   7.707  10.442   7.693 -0.1050  0.3712  0.4316
  365MOL0     C49158   7.772  10.481   7.815  0.3496  0.2779  0.6536
  365MOL0     C49159   7.825  10.367   7.867 -0.5911 -0.2005  0.1284
  365MOL0     C49160   7.893  10.351   7.995 -0.1352 -0.4525 -0.2938
  365MOL0     C49161   8.039  10.402   7.984 -0.5013 -0.0514 -0.4331
  365MOL0     C49162   8.129  10.318   7.892  0.1548 -0.4293 -0.5370
  365MOL0     C49163   8.275  10.365   7.882  0.6492 -0.9897  0.2125
  365MOL0     O49164   8.322  10.388   8.017  0.6278  0.7897  0.2912
  365MOL0     C49165   8.452  10.410   8.048  0.0693  0.0045 -0.2010
  365MOL0     C49166   8.551  10.435   7.954 -0.3402  0.2044 -0.4493
  365MOL0     C49167   8.684  10.444   7.989 -0.8939  0.8563 -0.4103
  365MOL0     C49168   8.725  10.454   8.131 -0.5002 -0.0712  0.6742
  365MOL0     C49169   8.869  10.480   8.171 -0.1207 -0.7632 -0.2182
  365MOL0     O49170   8.890  10.508   8.307  0.0811  0.3398 -0.5270
  365MOL0     C49171   9.023  10.516   8.351  0.0617 -0.2125  0.3285
  365MOL0     C49172   9.090  10.412   8.409 -0.3675 -0.3557  0.2951
  365MOL0     C49173   9.226  10.424   8.430 -0.5334 -0.1178 -0.2517
  365MOL0     C49174   9.297  10.539   8.404 -0.2668  0.1069 -0.0252
  365MOL0     O49175   9.429  10.551   8.450 -0.3209  0.8254 -0.2620
  365MOL0     C49176   9.465  10.683   8.490 -0.6507 -0.5428  0.0898
  365MOL0     C49177   9.605  10.689   8.552  0.0014 -0.2070 -0.5047
  365MOL0     C49178   9.702  10.600   8.471 -0.0742 -0.1132  0.1322
  365MOL0     C49179   9.843  10.626   8.528  0.0665 -0.4544  0.3015
  365MOL0     C49180   9.959  10.560   8.459 -0.2793  0.4629 -0.4226
  365MOL0     C49181  10.091  10.570   8.538  1.0531  0.0898  0.7489
  365MOL0     C49182  10.206  10.547   8.435  0.3140  0.0130 -0.1219
  365MOL0     C49183  10.338  10.536   8.519  0.5410 -0.1503  0.5988
  365MOL0    Cl49184  10.368  10.684   8.604  0.4211 -0.0343 -0.4874
  365MOL0     C49185   9.230  10.647   8.342  0.0081 -0.5533  0.5997
  365MOL0     C49186   9.092  10.636   8.315  0.1071 -0.4271 -0.9882
  365MOL0     O49187   8.952  10.448   8.092  0.0029  0.0088 -0.2513
  365MOL0     C49188   8.620  10.444   8.227 -0.0220 -0.2302  0.1405
  365MOL0     C49189   8.487  10.419   8.180 -0.2449  0.4377 -0.4180
  365MOL0     N49190   7.789  10.263   7.779 -0.9416  0.6936  0.2057
  365MOL0     N49191   7.725  10.305   7.678  0.0300 -0.0685  0.2808
  365MOL0     C49192   6.443  10.444   7.541 -0.1471 -0.6757  0.3701
  365MOL0     C49193   6.304  10.427   7.543  1.3298 -0.3953  0.0439
  365MOL0     C49194   5.851  10.458   7.432 -0.7038 -0.2888  0.2732
  365MOL0     C49195   5.832  10.388   7.556 -0.4226 -0.2594 -0.6204
  365MOL0     C49196   5.707  10.350   7.603 -0.2306 -0.6328  0.2048
  365MOL0     C49197   5.594  10.378   7.528  1.2956  0.5612 -0.5037
  365MOL0     O49198   5.476  10.327   7.574 -0.4591 -0.4035 -0.9464
  365MOL0     C49199   5.369  10.311   7.484  0.2087  0.8165  0.5410
  365MOL0     C49200   5.243  10.283   7.554  0.1141  0.1678 -0.9111
  365MOL0     C49201   5.130  10.276   7.450  0.6842  0.6532 -0.1653
  365MOL0     C49202   5.072  10.410   7.408  0.4754  0.4537  0.4195
  365MOL0     C49203   4.965  10.379   7.312 -0.3998  0.0598 -0.0906
  365MOL0     C49204   4.874  10.382   7.229  0.0080 -0.2376  0.2667
  365MOL0     C49205   5.611  10.445   7.408 -0.8834 -0.8219  0.6651
  365MOL0     C49206   5.738  10.472   7.354 -0.2316  0.1868  0.3324
  365MOL0     C49207   5.750  10.477   7.199  1.3844 -0.3164  0.0317
  365MOL0     H49208   6.224  10.606   7.277  0.6852 -0.8179 -0.6716
  365MOL0     H49209   6.463  10.667   7.299  3.1278 -0.9108  0.5169
  365MOL0     H49210   6.723  10.452   7.600  0.7804 -0.4751  0.1333
  365MOL0     H49211   6.747  10.395   7.433 -0.9601  0.3631 -0.5843
  365MOL0     H49212   6.868  10.650   7.555  1.7417 -1.9729  3.2001
  365MOL0     H49213   6.872  10.602   7.383 -0.1970 -0.3427 -0.4169
  365MOL0     H49214   7.015  10.408   7.424  1.1592  0.2064 -0.2117
  365MOL0     H49215   6.977  10.411   7.588 -0.9511  1.2339  0.4627
  365MOL0     H49216   7.134  10.633   7.451  0.0514  0.8455  1.5025
  365MOL0     H49217   7.086  10.623   7.626 -2.1597 -0.1298  0.5418
  365MOL0     H49218   7.202  10.387   7.623 -0.5375  1.7911  1.8687
  365MOL0     H49219   7.234  10.415   7.456  1.2329 -3.2763  2.6871
  365MOL0     H49220   7.386  10.586   7.494 -0.7736  3.8738  1.8806
  365MOL0     H49221   7.341  10.605   7.657  1.0922  0.0577  0.3030
  365MOL0     H49222   7.492  10.372   7.545 -1.7151 -0.2618 -0.3021
  365MOL0     H49223   7.451  10.377   7.716  1.6041  0.5492  0.4708
  365MOL0     H49224   7.631  10.529   7.525 -0.4743  0.8632  0.0283
  365MOL0     H49225   7.595  10.617   7.676  1.0222  0.3589 -0.8848
  365MOL0     H49226   7.782  10.581   7.855  0.6502  0.1835  0.8116
  365MOL0     H49227   7.840  10.393   8.081 -0.5299 -1.3821 -0.0728
  365MOL0     H49228   7.877  10.247   8.024 -1.0438  0.1821  1.5956
  365MOL0     H49229   8.052  10.506   7.952  5.1470 -1.1539 -2.8712
  365MOL0     H49230   8.085  10.384   8.081  1.2396 -1.3719 -1.4511
  365MOL0     H49231   8.083  10.295   7.796  2.5604  2.4812 -2.5909
  365MOL0     H49232   8.118  10.226   7.951  0.2250  1.4738  2.7038
  365MOL0     H49233   8.274  10.464   7.833 -0.1750 -0.8500  0.5092
  365MOL0     H49234   8.334  10.293   7.824  1.3209 -0.7593  0.5982
  365MOL0     H49235   8.508  10.447   7.855 -1.9768 -0.5321  0.1413
  365MOL0     H49236   8.764  10.456   7.917 -0.0842 -0.6639  0.1778
  365MOL0     H49237   9.045  10.313   8.411  0.8941 -1.1228 -2.9732
  365MOL0     H49238   9.296  10.350   8.468  1.6108  1.8570 -0.1265
  365MOL0     H49239   9.471  10.758   8.411 -2.6760 -0.4578 -0.0564
  365MOL0     H49240   9.400  10.729   8.565  0.3446  1.2591 -0.1029
  365MOL0     H49241   9.647  10.790   8.557  1.5419 -0.8337 -0.1646
  365MOL0     H49242   9.606  10.655   8.656  2.5195 -1.0367 -0.7218
  365MOL0     H49243   9.672  10.495   8.478 -5.7021  1.1963  0.4515
  365MOL0     H49244   9.680  10.633   8.369 -2.5694  3.3301  1.6133
  365MOL0     H49245   9.846  10.607   8.636  2.5658  2.0734  0.8096
  365MOL0     H49246   9.861  10.734   8.532  0.1674 -0.4786  3.8507
  365MOL0     H49247   9.972  10.619   8.368  1.6141  0.6535 -0.0732
  365MOL0     H49248   9.930  10.457   8.441 -0.2225 -0.4301  3.5719
  365MOL0     H49249  10.086  10.673   8.574 -1.4332 -0.2527  1.5756
  365MOL0     H49250  10.088  10.499   8.621  0.4240  1.3519  1.8528
  365MOL0     H49251  10.206  10.633   8.367 -3.0313 -0.6529 -1.1175
  365MOL0     H49252  10.182  10.451   8.391 -1.9410  0.0126  0.9647
  365MOL0     H49253  10.319  10.452   8.587  0.1150 -1.3087 -0.8841
  365MOL0     H49254  10.422  10.515   8.452 -0.9512 -0.3000 -1.2947
  365MOL0     H49255   9.283  10.740   8.325  0.2196 -0.5497  1.2460
  365MOL0     H49256   9.047  10.720   8.263 -1.1985  1.5036  2.8768
  365MOL0     H49257   8.654  10.445   8.330  1.5617 -0.0870 -0.3507
  365MOL0     H49258   8.400  10.410   8.245 -1.5869  1.7656 -1.9228
  365MOL0     H49259   6.499  10.405   7.625  0.3138  2.3879  1.6476
  365MOL0     H49260   6.259  10.371   7.624  1.6538  1.4788  1.5843
  365MOL0     H49261   5.909  10.350   7.623 -0.2432 -4.0131 -2.6649
  365MOL0     H49262   5.688  10.298   7.697 -1.4601 -2.5047 -1.0079
  365MOL0     H49263   5.397  10.242   7.404  0.2166  1.4820 -0.0406
  365MOL0     H49264   5.351  10.410   7.439 -1.1922  0.4586  0.2748
  365MOL0     H49265   5.222  10.361   7.628 -1.9403 -1.8060  0.7079
  365MOL0     H49266   5.236  10.190   7.610  2.1899  0.3684 -0.2622
  365MOL0     H49267   5.051  10.218   7.498  0.7198  2.2296  1.9561
  365MOL0     H49268   5.157  10.218   7.361 -0.1878  0.1736 -0.1286
  365MOL0     H49269   5.031  10.463   7.494 -1.4608  0.8286 -0.6860
  365MOL0     H49270   5.144  10.464   7.345  0.5490 -3.7899 -3.6938
  365MOL0     H49271   4.803  10.377   7.149 -0.6768 -0.7795  0.8875
  365MOL0     H49272   5.522  10.454   7.347 -1.8404 -0.8318  2.0227
  365MOL0     H49273   5.837  10.417   7.171  0.7163 -0.9534 -0.7599
  365MOL0     H49274   5.668  10.431   7.143  0.5854 -2.3301  2.6590
  365MOL0     H49275   5.766  10.581   7.171 -3.1516 -0.2639 -3.5473
  366MOL0     O49276   9.455   9.608   9.531 -0.6580  0.4648 -0.0989
  366MOL0     C49277   9.404   9.610   9.645 -0.3865  0.5669 -0.0388
  366MOL0     O49278   9.368   9.727   9.713  0.3079 -0.1824  0.5851
  366MOL0     C49279   9.389   9.849   9.656  0.3765 -0.2934  0.0950
  366MOL0     C49280   9.517   9.908   9.655  1.4815  0.6156 -1.0999
  366MOL0     C49281   9.524  10.040   9.627  0.1992 -0.1734 -0.0461
  366MOL0     C49282   9.407  10.130   9.604 -1.1695 -0.6665 -0.2418
  366MOL0     O49283   9.438  10.264   9.576  0.1441 -0.2328 -0.7880
  366MOL0     C49284   9.322  10.338   9.520  0.3105  0.0263 -0.0310
  366MOL0     C49285   9.365  10.465   9.462 -0.3767 -0.7855 -0.3159
  366MOL0     C49286   9.371  10.575   9.570  0.3378 -0.2589 -0.0078
  366MOL0     C49287   9.446  10.706   9.536  0.6787 -0.4228 -0.0122
  366MOL0     C49288   9.590  10.703   9.485 -0.1495 -0.3284  0.7426
  366MOL0     C49289   9.637  10.842   9.423 -0.1289  0.4025 -0.3363
  366MOL0     C49290   9.766  10.817   9.348 -0.6565  0.5901  0.5613
  366MOL0     C49291   9.809  10.949   9.286 -0.3216 -0.4397  0.8362
  366MOL0     N49292   9.953  10.931   9.249 -0.5262 -0.8135  0.1294
  366MOL0     C49293  10.004  10.831   9.168  0.1425 -0.5710 -0.7801
  366MOL0     C49294  10.139  10.879   9.161 -0.4391  0.5195 -0.1939
  366MOL0     C49295  10.263  10.811   9.110  0.4914  0.7220  1.1085
  366MOL0     C49296  10.238  10.768   8.961  1.0466  0.2437 -0.2321
  366MOL0     C49297  10.223  10.895   8.875 -0.2298 -0.5144  0.5124
  366MOL0     C49298  10.367  10.964   8.856 -0.0976  0.1429 -0.5369
  366MOL0     O49299  10.357  11.071   8.756 -0.1481 -0.2835 -0.1642
  366MOL0     C49300  10.480  11.126   8.716 -0.3180 -1.2393 -0.2061
  366MOL0     C49301  10.607  11.075   8.766 -0.2661 -0.7961 -0.6680
  366MOL0     C49302  10.726  11.140   8.731 -0.4599 -0.1126 -0.7578
  366MOL0     C49303  10.727  11.245   8.650  0.2472 -0.2177 -0.2803
  366MOL0     C49304  10.853  11.309   8.616 -0.0416  0.1041 -0.0243
  366MOL0     O49305  10.966  11.274   8.684 -0.3065  0.5105  0.5222
  366MOL0     C49306  11.094  11.308   8.646  0.8515 -0.4635 -0.6545
  366MOL0     C49307  11.169  11.353   8.747  0.3226  0.6065 -0.0316
  366MOL0     C49308  11.300  11.396   8.732  0.3435 -0.4813  0.3943
  366MOL0     C49309  11.356  11.403   8.605  0.8546  0.1865 -0.2302
  366MOL0     O49310  11.492  11.419   8.603  0.2426 -0.2577  0.7883
  366MOL0     C49311  11.562  11.427   8.468 -0.2804  0.7980  0.3016
  366MOL0     C49312  11.697  11.499   8.482 -0.1955  0.3234  0.4178
  366MOL0     C49313  11.676  11.648   8.473  0.2732 -0.7666 -0.8108
  366MOL0     C49314  11.800  11.733   8.515  0.0226  0.0028 -0.9054
  366MOL0     C49315  11.897  11.746   8.395 -0.2306  0.8449 -0.1595
  366MOL0     C49316  12.002  11.853   8.427  0.7689 -0.7256 -0.1261
  366MOL0     C49317  12.130  11.830   8.349 -0.1479  0.2594  0.3343
  366MOL0     C49318  12.244  11.910   8.407  0.1313  0.3174  0.3147
  366MOL0    Cl49319  12.389  11.929   8.303  0.3205  0.2426 -0.0275
  366MOL0     C49320  11.278  11.360   8.502 -0.6656  0.2042  0.4126
  366MOL0     C49321  11.145  11.319   8.514  0.2254  0.1541  0.0898
  366MOL0     O49322  10.862  11.369   8.512 -0.2734  1.0399 -0.0517
  366MOL0     C49323  10.603  11.293   8.599 -0.1064 -0.0726  0.2830
  366MOL0     C49324  10.487  11.232   8.624  1.5274  0.4323  0.0175
  366MOL0     N49325  10.154  11.002   9.224 -0.3096  0.6258 -0.1532
  366MOL0     N49326  10.046  11.037   9.271 -0.0275  0.6827 -0.9670
  366MOL0     C49327   9.282  10.073   9.616 -0.2144 -0.1122  0.7263
  366MOL0     C49328   9.274   9.931   9.642  0.6573  0.6101  1.8849
  366MOL0     C49329   9.378   9.476   9.711  0.4274  0.3315 -0.3482
  366MOL0     C49330   9.370   9.365   9.635 -0.0349 -1.0873  0.3456
  366MOL0     C49331   9.330   9.236   9.676  0.4100  1.1420 -0.8029
  366MOL0     C49332   9.311   9.220   9.813  0.8894 -0.7495 -0.3335
  366MOL0     O49333   9.286   9.098   9.876  0.0802 -0.1878  0.3040
  366MOL0     C49334   9.263   8.983   9.790  0.5733  2.0935 -0.0521
  366MOL0     C49335   9.108   8.968   9.759  0.0781 -0.0840 -0.3966
  366MOL0     C49336   9.080   8.837   9.686  0.3004 -0.8177 -0.1045
  366MOL0     C49337   8.935   8.819   9.627 -0.0275  0.1141  0.1587
  366MOL0     C49338   8.908   8.675   9.620  0.4395  0.4785 -0.0637
  366MOL0     C49339   8.892   8.555   9.620  0.5762 -0.1947  0.3559
  366MOL0     C49340   9.318   9.327   9.899 -0.8393 -0.0547 -0.3592
  366MOL0     C49341   9.357   9.455   9.853  0.7867 -0.7492  0.4476
  366MOL0     C49342   9.367   9.560   9.959  0.0073 -0.0165 -0.3081
  366MOL0     H49343   9.607   9.849   9.670  3.2898  3.0373 -1.8410
  366MOL0     H49344   9.623  10.084   9.626  0.4847 -0.6639 -3.0712
  366MOL0     H49345   9.274  10.287   9.436  1.8217  2.4581 -2.5620
  366MOL0     H49346   9.246  10.363   9.594 -0.7800  0.5149 -1.2720
  366MOL0     H49347   9.292  10.490   9.385 -0.8565  1.5996  0.8080
  366MOL0     H49348   9.465  10.459   9.418  0.1464 -2.1815  0.9686
  366MOL0     H49349   9.420  10.551   9.664 -3.6468  1.3939  2.7493
  366MOL0     H49350   9.268  10.604   9.591  0.2484  0.4692 -1.2907
  366MOL0     H49351   9.383  10.761   9.466 -0.8220  1.3266  2.5485
  366MOL0     H49352   9.454  10.772   9.622 -0.1657  1.3496 -1.2482
  366MOL0     H49353   9.658  10.669   9.563 -0.9268  1.1756  2.1271
  366MOL0     H49354   9.602  10.629   9.405 -0.3832 -0.8111  1.1493
  366MOL0     H49355   9.553  10.880   9.364 -0.7357  1.5543  1.1901
  366MOL0     H49356   9.667  10.912   9.501 -0.5377 -0.9552  1.1105
  366MOL0     H49357   9.761  10.739   9.272 -0.3971  0.5824  0.5492
  366MOL0     H49358   9.843  10.784   9.419  2.8832  0.2146 -3.1147
  366MOL0     H49359   9.737  10.970   9.206  0.5842  2.5731  0.7113
  366MOL0     H49360   9.795  11.036   9.350 -1.8227  0.9265 -1.2389
  366MOL0     H49361   9.942  10.750   9.129 -1.9251  0.3330  0.4414
  366MOL0     H49362  10.355  10.870   9.119  0.3171  1.0890  0.4994
  366MOL0     H49363  10.273  10.724   9.175 -2.9301 -0.3477  0.3758
  366MOL0     H49364  10.320  10.712   8.916  0.3888  1.4447 -3.2049
  366MOL0     H49365  10.151  10.702   8.954  0.2565  1.2922 -0.7903
  366MOL0     H49366  10.144  10.965   8.901  2.0563  2.5483 -0.2434
  366MOL0     H49367  10.205  10.869   8.770  0.1999 -0.5958  0.4575
  366MOL0     H49368  10.444  10.888   8.842 -1.2459 -1.5834  1.7956
  366MOL0     H49369  10.393  11.010   8.952  3.8845 -2.6197 -0.0415
  366MOL0     H49370  10.621  10.986   8.827  0.1431 -1.8641 -2.2632
  366MOL0     H49371  10.813  11.112   8.789  1.0596  4.4690 -0.3926
  366MOL0     H49372  11.128  11.344   8.847 -0.2152 -0.0735 -0.3060
  366MOL0     H49373  11.367  11.423   8.813  1.5120 -0.2458 -0.6122
  366MOL0     H49374  11.586  11.323   8.445 -0.0437  0.7758  0.6322
  366MOL0     H49375  11.497  11.470   8.392  0.6221 -0.1919 -1.0747
  366MOL0     H49376  11.742  11.474   8.578  3.4972  3.0651 -0.3665
  366MOL0     H49377  11.764  11.455   8.407 -2.3837 -1.2978 -0.6912
  366MOL0     H49378  11.641  11.664   8.370 -1.8712  0.6796  0.0577
  366MOL0     H49379  11.588  11.676   8.531 -0.8947 -3.0523 -1.3773
  366MOL0     H49380  11.850  11.687   8.600 -1.2157  2.6040  1.3828
  366MOL0     H49381  11.768  11.833   8.545 -1.7919 -0.6981 -0.3654
  366MOL0     H49382  11.829  11.751   8.309 -1.9017 -0.2729  1.0322
  366MOL0     H49383  11.946  11.649   8.386  0.1414  1.0428 -0.2506
  366MOL0     H49384  11.958  11.948   8.397 -0.1368 -1.0343  0.2030
  366MOL0     H49385  12.037  11.868   8.530  1.3472  0.6529 -0.4989
  366MOL0     H49386  12.099  11.849   8.246 -0.7231  0.2157  0.4968
  366MOL0     H49387  12.155  11.724   8.360  1.5295  0.5162 -0.7204
  366MOL0     H49388  12.217  12.010   8.442  2.4516  1.0690  0.1041
  366MOL0     H49389  12.278  11.848   8.491 -1.0074 -0.3240  0.3225
  366MOL0     H49390  11.316  11.335   8.403 -0.6653  2.2652 -0.1550
  366MOL0     H49391  11.083  11.303   8.427  0.6376  1.6031 -0.4898
  366MOL0     H49392  10.609  11.389   8.550  2.1047  0.0504  0.6878
  366MOL0     H49393  10.397  11.267   8.574  0.3481  0.8967  2.3327
  366MOL0     H49394   9.191  10.131   9.612 -0.1658 -0.0599 -2.2479
  366MOL0     H49395   9.177   9.882   9.644  0.0012  1.5946 -0.8014
  366MOL0     H49396   9.396   9.357   9.530  0.0578  0.4736  0.2256
  366MOL0     H49397   9.309   9.152   9.610 -2.5107 -0.8393  2.2761
  366MOL0     H49398   9.294   8.897   9.851 -1.0171  0.2021 -1.7779
  366MOL0     H49399   9.333   8.979   9.706  0.6026 -0.1666  0.0202
  366MOL0     H49400   9.089   9.056   9.696  2.8838  0.4321 -0.6543
  366MOL0     H49401   9.041   8.975   9.845 -2.2452  0.4023 -2.1465
  366MOL0     H49402   9.090   8.756   9.758 -2.3341 -2.8414 -1.8205
  366MOL0     H49403   9.153   8.815   9.608  1.0797  0.8673  0.1007
  366MOL0     H49404   8.876   8.870   9.703  1.9841 -0.1410  1.9919
  366MOL0     H49405   8.924   8.871   9.531 -0.2623 -1.2131 -0.5572
  366MOL0     H49406   8.882   8.449   9.614 -1.9130 -0.0740  1.0650
  366MOL0     H49407   9.299   9.310  10.004  0.7241  1.1363  0.1394
  366MOL0     H49408   9.274   9.588  10.008  0.2844 -0.4111  0.4705
  366MOL0     H49409   9.444   9.531  10.031 -1.0926 -0.4161  0.7425
  366MOL0     H49410   9.420   9.652   9.931  0.9475 -0.4924 -0.1579
  367MOL0     O49411   2.502   6.356   4.685  0.6213  0.2942 -0.0895
  367MOL0     C49412   2.477   6.352   4.562 -0.4897  0.0018  0.0169
  367MOL0     O49413   2.558   6.282   4.476 -0.0546 -0.5086  0.0092
  367MOL0     C49414   2.662   6.205   4.518 -0.1906 -0.5432 -0.8282
  367MOL0     C49415   2.768   6.250   4.601  0.5146 -0.3137  0.2753
  367MOL0     C49416   2.879   6.172   4.633  0.5437  1.1536  0.1280
  367MOL0     C49417   2.893   6.045   4.571  0.1238  0.4519  0.0901
  367MOL0     O49418   2.998   5.966   4.576  0.1081 -0.2955 -0.5580
  367MOL0     C49419   3.111   5.995   4.660  0.6676  0.3745  0.3371
  367MOL0     C49420   3.201   5.873   4.664 -0.1584  0.5304  0.0442
  367MOL0     C49421   3.328   5.896   4.744  0.6749 -0.3621  0.0706
  367MOL0     C49422   3.429   5.789   4.735  0.0771  0.4779 -0.2314
  367MOL0     C49423   3.550   5.820   4.834 -0.3781 -0.2172  0.4321
  367MOL0     C49424   3.664   5.723   4.827 -0.4785  0.5939  0.2795
  367MOL0     C49425   3.795   5.777   4.905  0.0747  0.0019  0.0413
  367MOL0     C49426   3.912   5.700   4.859 -0.2046  0.3884  0.1871
  367MOL0     N49427   4.038   5.767   4.902  0.0320  0.4361 -0.8870
  367MOL0     C49428   4.084   5.747   5.029  0.2703 -0.3371  0.1820
  367MOL0     C49429   4.219   5.772   5.019  0.3244  1.0603 -0.9516
  367MOL0     C49430   4.324   5.767   5.134  0.2266 -0.3675  0.7780
  367MOL0     C49431   4.427   5.655   5.130 -0.2645  0.4258  0.1561
  367MOL0     C49432   4.521   5.675   5.005  0.6825  0.4756 -0.7274
  367MOL0     C49433   4.641   5.578   5.019 -0.1994 -0.1821  0.6610
  367MOL0     O49434   4.724   5.595   4.907  0.3984 -0.0393  0.5597
  367MOL0     C49435   4.828   5.683   4.914  0.1773  0.4207  0.4343
  367MOL0     C49436   4.853   5.767   5.018 -0.5617  0.1782 -0.2540
  367MOL0     C49437   4.980   5.839   5.018  0.8998 -0.7019 -0.4887
  367MOL0     C49438   5.068   5.829   4.907 -0.2607  0.0224 -0.3756
  367MOL0     C49439   5.186   5.915   4.895  1.2208  0.3098 -0.0869
  367MOL0     O49440   5.220   5.997   5.004  0.2080 -0.0535 -0.1168
  367MOL0     C49441   5.348   6.033   5.017  0.2798 -0.1753 -0.8488
  367MOL0     C49442   5.373   6.164   5.065 -0.2637 -0.4758  0.7414
  367MOL0     C49443   5.504   6.209   5.093  0.8164 -0.3392 -0.0779
  367MOL0     C49444   5.609   6.118   5.078  0.3672 -0.9884 -0.7245
  367MOL0     O49445   5.736   6.163   5.119 -0.8083  0.0685 -0.5813
  367MOL0     C49446   5.766   6.148   5.262  0.2900  0.1591 -0.2740
  367MOL0     C49447   5.908   6.178   5.281  0.3279  0.2121  0.5497
  367MOL0     C49448   5.992   6.076   5.202 -0.9079 -0.2117  0.0933
  367MOL0     C49449   6.142   6.114   5.186 -0.6852  0.1150 -0.3067
  367MOL0     C49450   6.202   6.067   5.317  0.0922 -0.4372  0.4821
  367MOL0     C49451   6.344   6.115   5.313 -0.1386 -0.0134 -0.4819
  367MOL0     C49452   6.418   6.086   5.449  0.0897  0.5103  0.3327
  367MOL0     C49453   6.574   6.098   5.429 -0.4229 -0.3448 -0.6347
  367MOL0    Cl49454   6.603   6.265   5.376 -0.0923  0.3297 -0.0592
  367MOL0     C49455   5.590   5.990   5.045 -0.7502  0.6074 -0.5829
  367MOL0     C49456   5.461   5.946   5.002  0.1448  0.3359 -0.7794
  367MOL0     O49457   5.256   5.894   4.791 -0.0313 -0.4248 -0.0686
  367MOL0     C49458   5.032   5.752   4.796  0.6288  0.2130 -0.4494
  367MOL0     C49459   4.912   5.678   4.805 -0.9876 -0.1815  0.4847
  367MOL0     N49460   4.245   5.796   4.886  0.1447 -0.5302  0.0190
  367MOL0     N49461   4.140   5.789   4.816  0.0832  0.2616 -0.3570
  367MOL0     C49462   2.788   6.000   4.491 -0.6426 -0.0126 -0.0418
  367MOL0     C49463   2.675   6.074   4.460  0.6281 -0.4660 -1.0778
  367MOL0     C49464   2.355   6.395   4.500  0.2024 -1.4737 -0.6112
  367MOL0     C49465   2.334   6.401   4.364  0.1865 -1.0253  0.2954
  367MOL0     C49466   2.212   6.448   4.311  1.0772 -0.0982  0.0467
  367MOL0     C49467   2.102   6.492   4.386  0.3624  0.6055 -0.0558
  367MOL0     O49468   1.998   6.542   4.316  0.2405  0.3838  0.1207
  367MOL0     C49469   1.912   6.648   4.356  0.1526  0.6920 -0.3319
  367MOL0     C49470   1.995   6.773   4.402  0.9030 -0.7173  0.6812
  367MOL0     C49471   1.918   6.901   4.349 -0.1782 -1.1868  0.9787
  367MOL0     C49472   1.983   7.035   4.392  0.2420  0.3416 -0.0976
  367MOL0     C49473   1.905   7.147   4.364  0.1444 -0.0665 -0.3618
  367MOL0     C49474   1.861   7.259   4.335 -0.0117 -0.2966 -0.4547
  367MOL0     C49475   2.120   6.493   4.524 -0.8347  0.2173 -0.4711
  367MOL0     C49476   2.241   6.442   4.587 -0.5882  0.1373  0.6009
  367MOL0     C49477   2.238   6.442   4.731 -0.4474  0.0920  0.1764
  367MOL0     H49478   2.760   6.348   4.647 -2.1702  1.6401 -3.8560
  367MOL0     H49479   2.962   6.200   4.698  2.1425 -4.4768  1.0586
  367MOL0     H49480   3.152   6.084   4.613 -2.1530  0.9537 -1.2241
  367MOL0     H49481   3.072   6.028   4.756  1.0460  3.0285 -0.3513
  367MOL0     H49482   3.219   5.834   4.563 -1.9440  0.0064 -0.1070
  367MOL0     H49483   3.160   5.789   4.721  2.1035 -1.5335 -1.1814
  367MOL0     H49484   3.288   5.900   4.846 -1.6749 -0.8593 -0.7761
  367MOL0     H49485   3.367   5.995   4.717 -1.7265  0.8936  0.9188
  367MOL0     H49486   3.372   5.704   4.772 -0.1138  1.5659  2.1359
  367MOL0     H49487   3.460   5.777   4.630 -1.9995  1.9809 -1.0820
  367MOL0     H49488   3.601   5.912   4.803 -1.4953  0.4512  0.5409
  367MOL0     H49489   3.512   5.830   4.936 -4.1927  1.8600 -1.0058
  367MOL0     H49490   3.637   5.631   4.878  0.3799 -0.1010 -0.4914
  367MOL0     H49491   3.693   5.688   4.728  0.5599 -5.2641  2.2842
  367MOL0     H49492   3.781   5.764   5.013 -0.6406 -2.8920 -0.3071
  367MOL0     H49493   3.807   5.885   4.889  0.5702 -0.1872 -0.9249
  367MOL0     H49494   3.904   5.594   4.885  0.4574  0.6616  1.5907
  367MOL0     H49495   3.903   5.704   4.750 -1.1637 -0.5593  0.2172
  367MOL0     H49496   4.026   5.722   5.118 -1.2284 -1.4772 -1.0555
  367MOL0     H49497   4.386   5.856   5.126  0.5486 -0.7505 -2.3371
  367MOL0     H49498   4.270   5.749   5.228  2.5947  2.1051  2.7532
  367MOL0     H49499   4.496   5.654   5.214  1.3372  0.4734 -1.0998
  367MOL0     H49500   4.376   5.560   5.113  1.8835 -0.3180 -3.1141
  367MOL0     H49501   4.552   5.778   4.985  0.3127  0.2753 -2.5970
  367MOL0     H49502   4.468   5.645   4.914  0.7597  0.3252 -0.7226
  367MOL0     H49503   4.608   5.474   5.010 -0.3221 -0.0601 -0.3300
  367MOL0     H49504   4.691   5.596   5.115  0.2495 -0.3859  0.4671
  367MOL0     H49505   4.790   5.789   5.104  0.6099  1.4795  0.3184
  367MOL0     H49506   5.002   5.906   5.101  1.3186  0.2046 -1.3029
  367MOL0     H49507   5.287   6.230   5.075 -0.7100 -0.3847 -2.5733
  367MOL0     H49508   5.520   6.310   5.130 -0.0822  1.3798 -3.9318
  367MOL0     H49509   5.702   6.212   5.323 -1.3665 -0.8629 -0.8745
  367MOL0     H49510   5.741   6.047   5.297 -1.3326  1.3981  2.4269
  367MOL0     H49511   5.937   6.278   5.249  0.0447 -0.0755 -0.6633
  367MOL0     H49512   5.919   6.160   5.388 -3.1632 -2.7060  0.6230
  367MOL0     H49513   5.970   5.982   5.252 -0.1603 -0.4924 -0.0958
  367MOL0     H49514   5.960   6.068   5.098 -1.0542  0.0644  0.1162
  367MOL0     H49515   6.157   6.220   5.166  2.0101 -0.8060 -4.3792
  367MOL0     H49516   6.188   6.061   5.102 -0.7606 -0.3371 -0.0657
  367MOL0     H49517   6.201   5.958   5.320 -2.8714 -0.5004  0.3321
  367MOL0     H49518   6.154   6.103   5.408 -1.5561 -0.0227 -0.5063
  367MOL0     H49519   6.406   6.073   5.233  1.8205 -2.7840  2.2595
  367MOL0     H49520   6.350   6.219   5.278  2.4746  0.2555  0.5107
  367MOL0     H49521   6.403   5.984   5.486  2.1185  0.4130  1.0300
  367MOL0     H49522   6.390   6.159   5.525  1.1264 -0.1701  1.4015
  367MOL0     H49523   6.631   6.074   5.519  1.4109 -1.2013 -1.9409
  367MOL0     H49524   6.613   6.030   5.352  0.4236  0.4698 -0.9537
  367MOL0     H49525   5.672   5.919   5.042 -1.8470 -0.8211  0.9949
  367MOL0     H49526   5.433   5.842   4.990 -1.3839  0.4085  1.5234
  367MOL0     H49527   5.088   5.741   4.704  1.3413  0.3751 -0.0393
  367MOL0     H49528   4.891   5.628   4.711 -2.5336  0.2658  0.5585
  367MOL0     H49529   2.784   5.899   4.452 -1.7491 -1.2072  2.8457
  367MOL0     H49530   2.602   6.022   4.399  0.7708 -0.5684 -1.1626
  367MOL0     H49531   2.407   6.353   4.300  2.8022 -0.0245  2.3486
  367MOL0     H49532   2.211   6.461   4.203  4.3262  0.4817 -0.0269
  367MOL0     H49533   1.835   6.627   4.430 -1.9154  0.1537 -2.5108
  367MOL0     H49534   1.857   6.671   4.264 -1.4198 -1.3662  0.0189
  367MOL0     H49535   2.097   6.780   4.364  0.6297 -0.1422  0.0434
  367MOL0     H49536   1.991   6.788   4.510 -2.7620  0.9284  0.4675
  367MOL0     H49537   1.819   6.889   4.393  0.9232 -2.5841  3.3400
  367MOL0     H49538   1.913   6.907   4.240  2.8688 -2.3158  0.6569
  367MOL0     H49539   2.000   7.027   4.500 -0.6965 -3.1719 -0.0977
  367MOL0     H49540   2.079   7.041   4.339  0.3129 -0.6833 -0.0955
  367MOL0     H49541   1.809   7.352   4.337 -0.5612 -0.5731 -1.2517
  367MOL0     H49542   2.042   6.540   4.584 -0.6108 -0.1865  0.1522
  367MOL0     H49543   2.318   6.509   4.767 -1.1997  1.0449  0.1267
  367MOL0     H49544   2.154   6.476   4.792  1.2962  0.9340  2.2676
  367MOL0     H49545   2.261   6.341   4.764 -2.1598 -0.7601 -1.1321
  368MOL0     O49546   0.343  10.259   3.744 -0.5150 -0.2980  0.0027
  368MOL0     C49547   0.270  10.206   3.829 -0.1070  0.3059  0.1771
  368MOL0     O49548   0.297  10.202   3.965 -0.0801 -0.2187  0.2347
  368MOL0     C49549   0.402  10.269   4.005  0.2598 -0.2502  0.7981
  368MOL0     C49550   0.374  10.391   4.070  0.4734  0.5143  0.3336
  368MOL0     C49551   0.480  10.475   4.113  0.3256 -0.0265  0.3174
  368MOL0     C49552   0.615  10.442   4.086 -1.0313 -1.1345  0.1239
  368MOL0     O49553   0.730  10.517   4.115  0.4668  0.4643  0.4968
  368MOL0     C49554   0.709  10.629   4.201 -0.1040  0.3082 -0.0197
  368MOL0     C49555   0.841  10.706   4.223 -1.2927 -0.2366  0.8154
  368MOL0     C49556   0.968  10.629   4.211 -0.4961  0.2577 -0.3998
  368MOL0     C49557   1.090  10.710   4.184  0.2213 -0.3559 -0.5869
  368MOL0     C49558   1.217  10.629   4.218 -0.1776  0.8625  0.2162
  368MOL0     C49559   1.344  10.715   4.182 -0.8402  0.6706  0.5053
  368MOL0     C49560   1.469  10.636   4.194  0.0406  1.0174 -0.2402
  368MOL0     C49561   1.517  10.616   4.341 -0.7315 -0.1050 -0.4760
  368MOL0     N49562   1.540  10.738   4.415  0.5480 -0.2378 -0.0509
  368MOL0     C49563   1.647  10.817   4.397  0.2863 -0.1921 -0.2471
  368MOL0     C49564   1.623  10.923   4.481 -0.1833 -0.0594  0.0843
  368MOL0     C49565   1.700  11.045   4.508 -0.3771 -0.1655 -0.6145
  368MOL0     C49566   1.850  11.003   4.499 -0.1406 -0.0111  0.5324
  368MOL0     C49567   1.937  11.127   4.549 -0.1675 -0.4772 -0.2258
  368MOL0     C49568   2.078  11.081   4.573  0.3506 -0.5628  0.7298
  368MOL0     O49569   2.091  10.976   4.672  0.3901  0.6101 -0.4111
  368MOL0     C49570   2.220  10.934   4.708  0.2673 -0.3799  0.1631
  368MOL0     C49571   2.224  10.835   4.809  0.1171 -0.7049 -0.8183
  368MOL0     C49572   2.349  10.777   4.850  0.2220  0.6267 -0.0276
  368MOL0     C49573   2.470  10.826   4.802  0.7894 -0.3535 -0.2862
  368MOL0     C49574   2.596  10.768   4.830  0.0250 -0.1332 -0.2825
  368MOL0     O49575   2.696  10.860   4.841  0.3170  0.2198  0.1885
  368MOL0     C49576   2.816  10.824   4.875  0.2944  1.1572  0.3046
  368MOL0     C49577   2.836  10.741   4.993 -0.1814  0.2424  0.1926
  368MOL0     C49578   2.963  10.723   5.040 -1.0620  0.4726 -0.2896
  368MOL0     C49579   3.078  10.772   4.970 -0.6501 -0.5809 -0.4224
  368MOL0     O49580   3.214  10.749   5.000  0.0818 -0.5803  0.4180
  368MOL0     C49581   3.237  10.741   5.133 -0.4610 -0.3200 -0.4080
  368MOL0     C49582   3.385  10.706   5.156 -0.4104 -0.5804  0.0885
  368MOL0     C49583   3.495  10.790   5.084 -0.2571  0.5807 -0.4861
  368MOL0     C49584   3.624  10.765   5.164 -0.0778 -0.1170 -0.1234
  368MOL0     C49585   3.757  10.814   5.086  0.6090  0.1891 -0.4836
  368MOL0     C49586   3.804  10.704   4.995  0.1152 -0.2126 -0.3029
  368MOL0     C49587   3.944  10.740   4.933  0.1998 -0.1014  0.4795
  368MOL0     C49588   4.065  10.648   4.960 -0.4490  0.6036 -0.0992
  368MOL0    Cl49589   4.205  10.688   4.842 -0.0494  0.0112 -0.3085
  368MOL0     C49590   3.054  10.848   4.857 -0.0028 -0.0557 -0.0784
  368MOL0     C49591   2.927  10.878   4.812 -0.3376 -0.0014  0.1259
  368MOL0     O49592   2.604  10.646   4.819  0.0281 -0.0086 -0.2860
  368MOL0     C49593   2.466  10.926   4.701  0.1251 -0.3871 -0.2494
  368MOL0     C49594   2.344  10.979   4.658  0.6091 -0.0632 -0.6820
  368MOL0     N49595   1.494  10.914   4.539 -0.6570 -0.3520  0.3118
  368MOL0     N49596   1.450  10.800   4.494 -0.8861 -0.2922  0.8653
  368MOL0     C49597   0.638  10.321   4.028  0.0709 -0.1288 -1.2951
  368MOL0     C49598   0.539  10.238   3.983  0.3359  0.8889  0.1493
  368MOL0     C49599   0.150  10.123   3.786 -0.6529  0.6667 -1.4807
  368MOL0     C49600   0.083  10.036   3.885 -0.1461  1.6846  0.4787
  368MOL0     C49601  -0.039   9.972   3.845  0.4907  0.1061 -0.4213
  368MOL0     C49602  -0.085   9.977   3.716  0.9386  0.6040 -0.0100
  368MOL0     O49603  -0.199   9.911   3.687 -0.5109  0.2361 -0.0588
  368MOL0     C49604  -0.255   9.920   3.554  0.2852 -0.4526  0.0460
  368MOL0     C49605  -0.380   9.834   3.535  0.0484  0.3406 -0.7808
  368MOL0     C49606  -0.348   9.679   3.501  0.1806 -0.1187  0.1499
  368MOL0     C49607  -0.453   9.592   3.423 -0.3402  0.4869 -0.2074
  368MOL0     C49608  -0.587   9.594   3.484 -0.1225 -0.8505  0.7070
  368MOL0     C49609  -0.705   9.583   3.508  0.1071  0.0309 -0.9877
  368MOL0     C49610  -0.014  10.053   3.627 -0.0103 -0.9481  0.2910
  368MOL0     C49611   0.095  10.127   3.658  0.0207 -0.3588 -0.9681
  368MOL0     C49612   0.147  10.219   3.547  0.1975  0.8740  0.1603
  368MOL0     H49613   0.272  10.417   4.097  0.6117  0.3675  1.0166
  368MOL0     H49614   0.454  10.566   4.165 -2.6176  0.8398 -2.3760
  368MOL0     H49615   0.635  10.700   4.161  0.0076 -0.7936 -2.3604
  368MOL0     H49616   0.666  10.597   4.296 -0.5998  2.4722  0.5338
  368MOL0     H49617   0.834  10.756   4.320 -3.2041 -0.0486  0.6315
  368MOL0     H49618   0.849  10.789   4.152 -0.1922 -0.7215  0.3562
  368MOL0     H49619   0.955  10.547   4.140 -0.4124  0.0473 -0.1747
  368MOL0     H49620   0.986  10.598   4.315  0.1372 -2.1533 -1.1697
  368MOL0     H49621   1.084  10.745   4.081 -0.4157  0.9028 -0.1486
  368MOL0     H49622   1.096  10.797   4.250 -0.7194  2.0993 -3.4793
  368MOL0     H49623   1.221  10.601   4.324 -0.4900  1.3795  0.3693
  368MOL0     H49624   1.202  10.541   4.156 -0.0864  2.3228 -1.9927
  368MOL0     H49625   1.333  10.737   4.075 -0.9513 -1.2981  0.0700
  368MOL0     H49626   1.345  10.801   4.249 -1.9526 -0.6335  2.2620
  368MOL0     H49627   1.550  10.688   4.141  0.4866  0.2459 -0.3328
  368MOL0     H49628   1.458  10.536   4.152  2.1290  0.4259  0.4742
  368MOL0     H49629   1.431  10.560   4.379 -0.3712 -1.8140 -2.0192
  368MOL0     H49630   1.605  10.552   4.352 -2.1942 -2.1189  0.1722
  368MOL0     H49631   1.733  10.800   4.334  1.9589 -0.9650  2.0933
  368MOL0     H49632   1.672  11.118   4.432  0.9723 -1.0088 -1.9671
  368MOL0     H49633   1.675  11.070   4.611  2.5209 -1.9782  0.6580
  368MOL0     H49634   1.872  10.912   4.556 -2.4989 -1.3632 -0.5839
  368MOL0     H49635   1.875  10.983   4.395  2.5864 -1.0839  1.3035
  368MOL0     H49636   1.901  11.163   4.646  0.2926  2.4629 -1.0331
  368MOL0     H49637   1.917  11.210   4.480 -3.3825 -1.2405 -0.3837
  368MOL0     H49638   2.138  11.167   4.605  0.7000 -0.0649 -1.1221
  368MOL0     H49639   2.132  11.044   4.484  0.1669  0.7541  0.0503
  368MOL0     H49640   2.125  10.797   4.836 -1.4591  2.2372 -1.9526
  368MOL0     H49641   2.358  10.691   4.916  1.1807  0.7409  0.0036
  368MOL0     H49642   2.759  10.696   5.056 -2.4183  1.4615 -1.5379
  368MOL0     H49643   2.958  10.676   5.137 -1.6878 -1.2920 -1.1419
  368MOL0     H49644   3.215  10.833   5.188  2.0200  1.4600 -2.1518
  368MOL0     H49645   3.187  10.660   5.188 -2.7180  0.8554 -0.6234
  368MOL0     H49646   3.395  10.715   5.265 -2.1245  0.2942  0.2154
  368MOL0     H49647   3.404  10.601   5.132  0.0426 -0.3977 -0.3558
  368MOL0     H49648   3.494  10.769   4.976 -0.7277 -0.6507 -0.2604
  368MOL0     H49649   3.470  10.895   5.102 -2.5927  0.0395 -0.2473
  368MOL0     H49650   3.638  10.660   5.193 -0.7774 -0.7674 -1.9911
  368MOL0     H49651   3.598  10.819   5.255  2.2509  0.9974 -0.0331
  368MOL0     H49652   3.836  10.830   5.160 -0.2075  3.0135 -0.0992
  368MOL0     H49653   3.734  10.904   5.028  3.4390 -0.1146 -2.2385
  368MOL0     H49654   3.823  10.610   5.048  0.1487 -1.5075 -2.5059
  368MOL0     H49655   3.730  10.671   4.922  1.3757 -0.5112 -1.4888
  368MOL0     H49656   3.964  10.844   4.959 -3.4119  0.4916  1.4558
  368MOL0     H49657   3.927  10.747   4.825 -4.6073  0.3761  1.0467
  368MOL0     H49658   4.094  10.660   5.065 -1.1875 -2.2496  0.5080
  368MOL0     H49659   4.034  10.543   4.953  0.9040  0.2368 -0.7811
  368MOL0     H49660   3.140  10.873   4.797  1.0763 -3.3036 -0.0562
  368MOL0     H49661   2.892  10.933   4.726 -3.2762 -1.4598  0.2743
  368MOL0     H49662   2.561  10.964   4.665  0.6885 -3.3689 -2.3402
  368MOL0     H49663   2.334  11.052   4.578 -2.2321 -0.9559 -1.2664
  368MOL0     H49664   0.739  10.281   4.021  0.4590  0.4336  0.4288
  368MOL0     H49665   0.566  10.144   3.936  2.0296  2.4905 -2.2299
  368MOL0     H49666   0.120  10.038   3.987  1.4534  4.5054 -0.0370
  368MOL0     H49667  -0.095   9.911   3.916  2.1582 -1.1097 -0.0927
  368MOL0     H49668  -0.179   9.881   3.485 -1.1585 -1.8968 -0.7799
  368MOL0     H49669  -0.294  10.019   3.527 -2.4694 -1.2579  0.7452
  368MOL0     H49670  -0.449   9.869   3.458 -0.6253 -1.3704 -1.0062
  368MOL0     H49671  -0.429   9.839   3.632  2.1297 -0.4763  0.3760
  368MOL0     H49672  -0.314   9.633   3.595 -0.0043 -0.3186  0.1204
  368MOL0     H49673  -0.257   9.684   3.441  2.0667  0.1732  2.8118
  368MOL0     H49674  -0.456   9.624   3.318 -1.8533 -4.1214 -1.8318
  368MOL0     H49675  -0.419   9.488   3.435  2.1265  1.4744  2.6052
  368MOL0     H49676  -0.808   9.570   3.537  0.6339  0.2308  1.1693
  368MOL0     H49677  -0.040  10.053   3.521  1.0861  1.0838 -0.0333
  368MOL0     H49678   0.165  10.313   3.599 -0.2596  1.4882 -0.7665
  368MOL0     H49679   0.237  10.169   3.511  0.3077 -0.3849  2.0212
  368MOL0     H49680   0.078  10.219   3.462 -1.4789 -3.0912  1.2752
  369MOL0     O49681   3.506  10.225   9.397  0.4637  0.3013  0.1318
  369MOL0     C49682   3.494  10.325   9.326  0.2501  0.3669 -0.4663
  369MOL0     O49683   3.598  10.390   9.260 -0.2623  0.2332 -0.5736
  369MOL0     C49684   3.723  10.331   9.259  0.5664  0.4064  0.0603
  369MOL0     C49685   3.750  10.204   9.202  0.3376  0.6343  0.3312
  369MOL0     C49686   3.884  10.158   9.199  0.3266  0.4814 -0.3019
  369MOL0     C49687   3.993  10.242   9.227  0.4485  0.2733 -0.3925
  369MOL0     O49688   4.117  10.177   9.212 -0.1849  0.5952 -0.2230
  369MOL0     C49689   4.240  10.249   9.232 -0.1000  0.3126  0.3142
  369MOL0     C49690   4.365  10.182   9.175 -0.5588  0.3430  0.6801
  369MOL0     C49691   4.393  10.048   9.249 -1.0100  0.3381  0.6710
  369MOL0     C49692   4.533   9.998   9.227  0.0693  0.2098 -0.0278
  369MOL0     C49693   4.570   9.885   9.320 -0.0987 -0.7906 -0.2663
  369MOL0     C49694   4.706   9.827   9.261 -0.3369 -0.0038  0.6795
  369MOL0     C49695   4.766   9.730   9.356  0.4210 -0.5714  0.6089
  369MOL0     C49696   4.903   9.683   9.310  0.1401  0.1334  0.3428
  369MOL0     N49697   5.025   9.750   9.375  1.1969 -0.3939  0.2360
  369MOL0     C49698   5.046   9.766   9.510 -0.0899  0.7295 -0.1781
  369MOL0     C49699   5.179   9.811   9.511  0.7525  0.0457  0.2274
  369MOL0     C49700   5.228   9.868   9.644 -0.9005 -0.4133  0.5709
  369MOL0     C49701   5.172  10.008   9.677  0.4350 -0.5380  0.1327
  369MOL0     C49702   5.174  10.110   9.563 -0.0863  0.1572 -0.4457
  369MOL0     C49703   5.310  10.136   9.500  0.2551  0.2428  0.4136
  369MOL0     O49704   5.413  10.136   9.600 -0.0484  0.2232 -0.3712
  369MOL0     C49705   5.532  10.127   9.550 -0.0057  0.1273 -0.6855
  369MOL0     C49706   5.590  10.212   9.456  0.4944 -0.8957 -0.3438
  369MOL0     C49707   5.719  10.191   9.416  0.2646  0.0466  0.0921
  369MOL0     C49708   5.803  10.090   9.461  0.1854  0.1744 -0.8205
  369MOL0     C49709   5.936  10.064   9.406 -0.6839 -0.9551  0.4794
  369MOL0     O49710   5.991  10.165   9.327 -0.2964  0.0675 -0.3066
  369MOL0     C49711   6.113  10.161   9.271 -0.7256 -0.3863  0.1297
  369MOL0     C49712   6.154  10.271   9.194 -0.4278  0.1314  1.1852
  369MOL0     C49713   6.273  10.278   9.116 -0.5676  0.1368 -0.6914
  369MOL0     C49714   6.372  10.176   9.138  0.2683 -0.0934 -0.2667
  369MOL0     O49715   6.493  10.168   9.078  0.0646  0.4771  0.2412
  369MOL0     C49716   6.522  10.265   8.976 -0.6393  0.0180 -0.1590
  369MOL0     C49717   6.574  10.391   9.048  0.3711 -0.2248  0.1697
  369MOL0     C49718   6.725  10.383   9.096  0.3605 -0.2929  0.3121
  369MOL0     C49719   6.811  10.439   8.983 -0.2383 -0.0309  0.0330
  369MOL0     C49720   6.953  10.396   9.000  0.0952 -0.4944 -0.0152
  369MOL0     C49721   7.061  10.456   8.902  0.3710  0.0470 -0.7109
  369MOL0     C49722   7.199  10.400   8.926 -0.4375  0.8275  0.6015
  369MOL0     C49723   7.284  10.408   8.789  0.0472  0.0709  0.0442
  369MOL0    Cl49724   7.333  10.572   8.751  0.0852  0.1770 -0.3486
  369MOL0     C49725   6.342  10.077   9.235  0.4553  0.6214 -0.6121
  369MOL0     C49726   6.219  10.072   9.297  0.0812  0.6663  0.1182
  369MOL0     O49727   5.984   9.955   9.415 -0.3683 -0.0449  0.2580
  369MOL0     C49728   5.747  10.014   9.564 -0.9151 -0.0493 -0.8483
  369MOL0     C49729   5.618  10.031   9.608 -0.3705  0.5662  0.1697
  369MOL0     N49730   5.234   9.817   9.388  0.2756  0.2170 -0.6601
  369MOL0     N49731   5.143   9.783   9.306  1.0438 -0.3611 -0.5756
  369MOL0     C49732   3.964  10.362   9.292 -0.5861  0.1385  0.4861
  369MOL0     C49733   3.832  10.407   9.296  1.0524  0.1208 -0.1259
  369MOL0     C49734   3.356  10.376   9.312 -0.2810 -1.1041  0.2621
  369MOL0     C49735   3.352  10.510   9.259 -1.0045 -0.1292  0.7157
  369MOL0     C49736   3.228  10.578   9.243 -0.0562  0.3580  0.3506
  369MOL0     C49737   3.107  10.517   9.264 -0.1009 -0.2752  0.0803
  369MOL0     O49738   3.002  10.584   9.220  0.4643 -0.4096  0.5937
  369MOL0     C49739   2.873  10.541   9.224  0.1646 -0.2573  0.7694
  369MOL0     C49740   2.816  10.553   9.369  0.7810 -0.6480 -0.2625
  369MOL0     C49741   2.708  10.444   9.388 -0.0244 -0.3437  0.3737
  369MOL0     C49742   2.635  10.437   9.523 -0.4563  0.1403  0.3546
  369MOL0     C49743   2.495  10.449   9.505  0.2563 -0.5574  0.7433
  369MOL0     C49744   2.379  10.457   9.492 -0.4634 -0.0093  0.7165
  369MOL0     C49745   3.115  10.384   9.309  0.5610 -0.0744 -0.4140
  369MOL0     C49746   3.232  10.311   9.333 -0.1656 -0.9977  0.0111
  369MOL0     C49747   3.209  10.174   9.390  0.3003  0.2725  0.7501
  369MOL0     H49748   3.669  10.144   9.162 -1.3256  2.4854  0.7473
  369MOL0     H49749   3.911  10.056   9.174  3.6672  1.6872 -2.2162
  369MOL0     H49750   4.231  10.347   9.184  0.4822 -1.2072 -3.1975
  369MOL0     H49751   4.250  10.271   9.339 -2.1520  0.7473  0.4576
  369MOL0     H49752   4.451  10.249   9.182 -0.5661  0.8517 -2.4609
  369MOL0     H49753   4.353  10.156   9.069 -5.1529 -1.8763  1.4946
  369MOL0     H49754   4.327   9.969   9.213 -0.4082  0.1932 -0.1497
  369MOL0     H49755   4.365  10.054   9.355 -2.7974 -5.2555  0.8086
  369MOL0     H49756   4.530   9.958   9.125 -1.5901 -1.3494  0.5877
  369MOL0     H49757   4.603  10.082   9.232  1.6245 -0.9132 -1.9098
  369MOL0     H49758   4.583   9.933   9.418 -2.4918  1.0705 -0.7328
  369MOL0     H49759   4.492   9.808   9.325 -0.6500 -0.2380 -0.1594
  369MOL0     H49760   4.692   9.778   9.165  0.9001  1.4239 -0.2607
  369MOL0     H49761   4.778   9.907   9.246 -1.0656  0.0614 -3.6157
  369MOL0     H49762   4.701   9.643   9.369  0.5792 -0.4393  2.6004
  369MOL0     H49763   4.762   9.783   9.451  0.4764  0.8323 -0.1489
  369MOL0     H49764   4.894   9.581   9.349 -1.3317  0.2453  0.3754
  369MOL0     H49765   4.913   9.672   9.202 -0.1149 -1.4061  0.4488
  369MOL0     H49766   4.983   9.769   9.598 -0.1467  0.1325 -0.1982
  369MOL0     H49767   5.210   9.801   9.728 -0.7372  1.3765  2.0953
  369MOL0     H49768   5.337   9.858   9.636 -1.1680 -3.1330 -0.9978
  369MOL0     H49769   5.066   9.999   9.705  0.7347  0.1846  1.5683
  369MOL0     H49770   5.223  10.053   9.762 -0.4168  2.8491 -1.0109
  369MOL0     H49771   5.134  10.205   9.600 -0.0430  0.4270 -1.0904
  369MOL0     H49772   5.096  10.084   9.491  0.3667 -1.0050 -0.5405
  369MOL0     H49773   5.303  10.235   9.454  0.3802  0.7947  1.5548
  369MOL0     H49774   5.333  10.062   9.422  1.8731  0.8391  0.2749
  369MOL0     H49775   5.542  10.299   9.411  2.4014  1.3287  1.6211
  369MOL0     H49776   5.762  10.254   9.340  4.8288 -2.9263 -0.1877
  369MOL0     H49777   6.094  10.357   9.166 -1.7991 -1.0582  0.2947
  369MOL0     H49778   6.268  10.361   9.046  0.4121  1.8593  1.1974
  369MOL0     H49779   6.604  10.232   8.911  1.2253 -1.5801  2.7482
  369MOL0     H49780   6.436  10.280   8.910 -1.8746  0.1824  1.4274
  369MOL0     H49781   6.569  10.483   8.988 -1.6254 -0.5636 -0.2234
  369MOL0     H49782   6.508  10.406   9.134 -1.6383  0.2014 -1.3697
  369MOL0     H49783   6.745  10.445   9.184  2.0968 -0.4192  0.0543
  369MOL0     H49784   6.746  10.280   9.127 -1.8739 -0.0712  2.9003
  369MOL0     H49785   6.790  10.547   8.981  0.3898  0.0987  0.1405
  369MOL0     H49786   6.777  10.400   8.887  2.2786  0.1010 -0.9762
  369MOL0     H49787   6.960  10.288   9.019 -3.7281 -0.5910  1.7096
  369MOL0     H49788   6.984  10.437   9.096  0.8309  1.1966 -0.9367
  369MOL0     H49789   7.025  10.426   8.803 -0.4797 -1.8370  0.1102
  369MOL0     H49790   7.056  10.565   8.903 -0.6078  0.0074 -0.3099
  369MOL0     H49791   7.179  10.299   8.962 -1.3512  1.0536  0.7563
  369MOL0     H49792   7.252  10.446   9.010 -0.5957  2.3104 -0.0750
  369MOL0     H49793   7.379  10.355   8.798 -0.5894 -1.4793 -1.7470
  369MOL0     H49794   7.246  10.362   8.697  2.5281 -1.2358 -0.4110
  369MOL0     H49795   6.403   9.987   9.246 -1.6776 -0.8665 -0.2432
  369MOL0     H49796   6.211   9.991   9.369 -0.8638  1.4689  0.9417
  369MOL0     H49797   5.824   9.955   9.613  1.9011  4.6789  1.1189
  369MOL0     H49798   5.590   9.972   9.694 -2.2463  1.6301  0.3440
  369MOL0     H49799   4.039  10.428   9.336 -2.0802  0.5586  2.5614
  369MOL0     H49800   3.817  10.505   9.339  1.0626 -0.4435  1.2140
  369MOL0     H49801   3.439  10.564   9.224 -0.4460 -0.8901  0.9063
  369MOL0     H49802   3.234  10.681   9.211 -0.8561 -0.5410 -3.0484
  369MOL0     H49803   2.873  10.436   9.193  2.6897 -0.8801  2.4788
  369MOL0     H49804   2.822  10.601   9.150 -2.6973 -3.5779 -0.2184
  369MOL0     H49805   2.777  10.653   9.390 -0.0446 -1.0051 -0.0763
  369MOL0     H49806   2.900  10.523   9.433  3.1329  1.5695 -2.1273
  369MOL0     H49807   2.761  10.354   9.358 -0.0711 -0.0752 -0.5598
  369MOL0     H49808   2.642  10.468   9.304  2.8497  1.5328 -1.5344
  369MOL0     H49809   2.643  10.335   9.564  0.8775  0.3793  0.7576
  369MOL0     H49810   2.684  10.507   9.591  1.5771 -0.6282 -0.2250
  369MOL0     H49811   2.273  10.472   9.497 -0.6627 -0.8278 -0.6953
  369MOL0     H49812   3.020  10.337   9.333  0.2780  0.4504 -0.4938
  369MOL0     H49813   3.240  10.100   9.315  0.8193 -1.7271  2.8160
  369MOL0     H49814   3.271  10.148   9.477 -2.4935 -4.1293  1.7499
  369MOL0     H49815   3.111  10.143   9.428  1.9853 -1.5070  4.1190
  370MOL0     O49816   2.496   9.018   6.522  0.0100 -0.0206 -0.6529
  370MOL0     C49817   2.413   8.935   6.567  0.4676 -0.2358 -0.0089
  370MOL0     O49818   2.440   8.802   6.584 -0.0568  0.1148  0.0154
  370MOL0     C49819   2.565   8.747   6.550  0.2574 -0.0522 -0.2494
  370MOL0     C49820   2.639   8.679   6.651 -0.3938  0.0219 -0.2584
  370MOL0     C49821   2.771   8.629   6.632 -0.5146 -0.2047  0.1944
  370MOL0     C49822   2.822   8.646   6.498  0.2587 -0.2116  0.1327
  370MOL0     O49823   2.941   8.583   6.473 -0.3488 -0.0923 -0.2792
  370MOL0     C49824   3.008   8.603   6.344  0.8731 -0.0678 -0.0620
  370MOL0     C49825   3.136   8.522   6.338 -0.3945 -0.2321  0.1427
  370MOL0     C49826   3.190   8.529   6.191 -0.8959  0.4316 -0.1937
  370MOL0     C49827   3.332   8.478   6.168  0.3234  0.1677  0.1016
  370MOL0     C49828   3.358   8.470   6.017 -0.2248  0.4511 -0.3512
  370MOL0     C49829   3.497   8.405   5.997  0.4940 -0.5314  0.0805
  370MOL0     C49830   3.612   8.512   5.982  0.2249 -0.1026  0.6076
  370MOL0     C49831   3.627   8.541   5.835  0.1827  0.2455 -0.4561
  370MOL0     N49832   3.697   8.667   5.820  0.4745  0.7260  0.2529
  370MOL0     C49833   3.831   8.693   5.853 -0.4063  0.6688  0.5801
  370MOL0     C49834   3.850   8.824   5.826  0.9087  0.2126  0.1842
  370MOL0     C49835   3.979   8.908   5.848  0.6421  0.3034 -0.5351
  370MOL0     C49836   4.095   8.847   5.928 -0.1663  0.5605  0.0530
  370MOL0     C49837   4.207   8.936   5.970 -0.0763 -0.8207  0.0665
  370MOL0     C49838   4.265   9.028   5.867 -0.3244  0.2324  0.8567
  370MOL0     O49839   4.398   9.054   5.895 -0.6739 -0.6196 -0.7961
  370MOL0     C49840   4.477   9.112   5.802 -0.5110 -0.2523  1.0754
  370MOL0     C49841   4.619   9.097   5.810  0.9949  0.5149  0.5346
  370MOL0     C49842   4.707   9.168   5.722 -0.2233 -0.1785 -1.0418
  370MOL0     C49843   4.652   9.240   5.613  0.2344 -0.1190 -0.4563
  370MOL0     C49844   4.745   9.324   5.524  0.3865  0.8753  0.2273
  370MOL0     O49845   4.877   9.317   5.534  0.2170  0.7053  0.2584
  370MOL0     C49846   4.955   9.407   5.467  0.2543 -0.1407  0.8899
  370MOL0     C49847   4.954   9.541   5.511 -0.1321 -0.3702  0.0728
  370MOL0     C49848   5.054   9.624   5.470  0.2328 -0.0630 -0.1330
  370MOL0     C49849   5.131   9.594   5.353 -0.8893 -0.0910  0.7036
  370MOL0     O49850   5.228   9.677   5.311  0.0193 -0.3106 -0.8932
  370MOL0     C49851   5.346   9.606   5.264  0.1617 -0.3347  0.2011
  370MOL0     C49852   5.470   9.695   5.286  0.1367 -0.3194 -0.4099
  370MOL0     C49853   5.611   9.615   5.258  0.8657 -1.3439 -0.7757
  370MOL0     C49854   5.717   9.731   5.233  0.6999 -0.1835 -0.8473
  370MOL0     C49855   5.856   9.678   5.204  0.1877 -0.2339 -0.6868
  370MOL0     C49856   5.953   9.791   5.162 -0.1577 -0.7922 -0.1080
  370MOL0     C49857   6.092   9.738   5.139  0.7661 -0.3187 -0.8489
  370MOL0     C49858   6.187   9.857   5.118  0.8388 -0.7857 -0.0931
  370MOL0    Cl49859   6.188   9.961   5.268 -0.1871 -0.2354  0.4143
  370MOL0     C49860   5.115   9.463   5.295  0.3226  0.6336  0.6800
  370MOL0     C49861   5.031   9.368   5.359 -0.7864 -1.2200 -0.1760
  370MOL0     O49862   4.679   9.403   5.447 -0.5585  0.3619 -0.9449
  370MOL0     C49863   4.505   9.252   5.610  0.1721  0.6448  0.4498
  370MOL0     C49864   4.422   9.184   5.695  0.1037 -0.0712  0.3006
  370MOL0     N49865   3.726   8.880   5.803 -0.4816 -0.2983 -0.4690
  370MOL0     N49866   3.636   8.790   5.783  0.0338  0.2133  0.4313
  370MOL0     C49867   2.749   8.703   6.395  0.5516  0.1685  0.3145
  370MOL0     C49868   2.618   8.759   6.422 -0.1854 -0.3599  0.7946
  370MOL0     C49869   2.277   8.980   6.607  0.0813  0.4073  0.1007
  370MOL0     C49870   2.222   9.092   6.550 -0.5683 -0.9560  0.4331
  370MOL0     C49871   2.089   9.135   6.571  0.9258  0.0938 -0.0299
  370MOL0     C49872   2.001   9.059   6.652 -0.2932  0.3933 -0.7638
  370MOL0     O49873   1.867   9.095   6.659  0.3070  0.4931  0.6885
  370MOL0     C49874   1.782   9.014   6.747  0.2246  0.2944  0.1537
  370MOL0     C49875   1.651   9.082   6.778  0.5387  0.6394 -0.6041
  370MOL0     C49876   1.577   9.110   6.643 -0.1489 -0.0443  0.6573
  370MOL0     C49877   1.447   9.186   6.680 -0.0860  0.3689 -1.1750
  370MOL0     C49878   1.345   9.100   6.753 -0.2213 -0.1931  0.3275
  370MOL0     C49879   1.255   9.033   6.800 -0.7781 -0.0024  0.5069
  370MOL0     C49880   2.055   8.943   6.711  0.5103  0.3113  0.8399
  370MOL0     C49881   2.191   8.904   6.686  0.0198  0.0541 -0.4228
  370MOL0     C49882   2.222   8.774   6.755  0.4343  0.1329  0.0705
  370MOL0     H49883   2.583   8.679   6.743 -0.3930  1.0955 -0.2476
  370MOL0     H49884   2.834   8.595   6.714 -0.1669  0.8152  0.3547
  370MOL0     H49885   2.949   8.558   6.264  1.2097 -1.3765  0.3958
  370MOL0     H49886   3.026   8.709   6.323  0.8760  0.1951  1.1961
  370MOL0     H49887   3.113   8.423   6.377 -3.7600 -0.1136 -1.2254
  370MOL0     H49888   3.212   8.564   6.405 -1.4063  0.3492  0.9605
  370MOL0     H49889   3.171   8.625   6.143 -1.0606  0.2483 -0.5044
  370MOL0     H49890   3.126   8.462   6.132 -1.5217 -0.1950  1.1461
  370MOL0     H49891   3.406   8.539   6.221 -1.8601  2.0231  1.2174
  370MOL0     H49892   3.341   8.378   6.213  1.3643 -0.2079 -0.8950
  370MOL0     H49893   3.277   8.408   5.977  0.4471 -2.4296  2.3428
  370MOL0     H49894   3.354   8.570   5.973 -2.9979  0.9056  0.6840
  370MOL0     H49895   3.514   8.346   6.088  2.1186  0.1546  0.2452
  370MOL0     H49896   3.505   8.340   5.910 -1.2622 -0.4819 -0.1518
  370MOL0     H49897   3.703   8.468   6.024  0.5137  0.4112  0.5403
  370MOL0     H49898   3.585   8.600   6.041 -1.7234 -1.0682  1.2386
  370MOL0     H49899   3.680   8.464   5.778  1.8967  1.1316 -0.1138
  370MOL0     H49900   3.525   8.557   5.798 -0.5623 -1.3735  0.7710
  370MOL0     H49901   3.912   8.622   5.856  0.0634  0.7057 -3.9082
  370MOL0     H49902   4.018   8.918   5.747  0.4027 -4.7041 -1.4050
  370MOL0     H49903   3.952   9.007   5.887  1.2513  0.2699 -0.0096
  370MOL0     H49904   4.067   8.791   6.017  1.3181 -1.0096 -0.4067
  370MOL0     H49905   4.147   8.774   5.865  3.4733  2.8826  0.0568
  370MOL0     H49906   4.283   8.865   6.005  2.5937  2.2312  0.8719
  370MOL0     H49907   4.185   8.994   6.061  2.7669 -1.6132  1.3809
  370MOL0     H49908   4.199   9.109   5.836 -1.3999 -0.2026  1.9258
  370MOL0     H49909   4.275   8.962   5.780  2.6787 -0.4870  1.6049
  370MOL0     H49910   4.676   9.039   5.882  2.7443 -1.6019 -2.3167
  370MOL0     H49911   4.816   9.171   5.723 -0.1014 -1.4666 -3.1602
  370MOL0     H49912   4.885   9.561   5.592  1.1675 -4.9130  2.6496
  370MOL0     H49913   5.073   9.719   5.518  0.6980 -0.6757  0.9104
  370MOL0     H49914   5.360   9.515   5.322 -1.4341 -1.0798 -0.5119
  370MOL0     H49915   5.345   9.576   5.158 -0.3130  0.8822 -0.1514
  370MOL0     H49916   5.466   9.785   5.225 -1.5229 -1.2107 -1.6812
  370MOL0     H49917   5.474   9.724   5.392 -0.7656  1.9301 -0.9491
  370MOL0     H49918   5.648   9.561   5.345 -0.8916 -2.4233 -0.6513
  370MOL0     H49919   5.598   9.542   5.178 -0.0437 -1.4485 -0.5378
  370MOL0     H49920   5.719   9.796   5.321  0.3873  1.4618 -2.0007
  370MOL0     H49921   5.685   9.791   5.147  0.5843 -2.6466 -2.6314
  370MOL0     H49922   5.846   9.618   5.113 -2.7498  2.8519 -2.6639
  370MOL0     H49923   5.902   9.631   5.291  0.0785  2.4622  0.9487
  370MOL0     H49924   5.920   9.846   5.073 -0.0628  0.8683  0.8461
  370MOL0     H49925   5.950   9.864   5.243 -1.5541 -3.3807  2.3369
  370MOL0     H49926   6.084   9.675   5.050 -1.5867 -0.6102 -0.4835
  370MOL0     H49927   6.125   9.688   5.230  0.5992 -0.8462 -1.0745
  370MOL0     H49928   6.290   9.826   5.098  1.5829  0.1656  1.9985
  370MOL0     H49929   6.147   9.917   5.037  1.7610 -2.2982 -1.7341
  370MOL0     H49930   5.169   9.443   5.203 -1.3000  2.6420 -0.7900
  370MOL0     H49931   5.026   9.261   5.339  1.3653 -1.2005 -1.0660
  370MOL0     H49932   4.458   9.323   5.544 -1.6923  0.0529  1.0928
  370MOL0     H49933   4.316   9.205   5.686 -0.4306 -2.0329  1.4130
  370MOL0     H49934   2.796   8.722   6.299 -2.4570  1.4056 -1.0583
  370MOL0     H49935   2.575   8.813   6.339  2.6138 -0.7637 -1.0889
  370MOL0     H49936   2.293   9.140   6.482 -1.7492 -0.2754 -0.3546
  370MOL0     H49937   2.059   9.231   6.530 -2.7522 -0.1728  1.6539
  370MOL0     H49938   1.841   9.001   6.838  0.6307  1.6765  0.1247
  370MOL0     H49939   1.768   8.913   6.708 -3.0237  0.4914  0.5982
  370MOL0     H49940   1.666   9.169   6.842 -0.3946 -0.0981  0.6492
  370MOL0     H49941   1.590   9.011   6.834 -0.3284  1.6325 -0.2511
  370MOL0     H49942   1.567   9.016   6.587  3.9875  0.6340 -1.6800
  370MOL0     H49943   1.633   9.162   6.564 -0.6165  0.1064  0.4159
  370MOL0     H49944   1.469   9.278   6.736  1.0794  0.5712 -1.9133
  370MOL0     H49945   1.409   9.215   6.581  3.4130 -0.8074 -3.0538
  370MOL0     H49946   1.159   9.002   6.836 -1.3468  0.1238 -0.8261
  370MOL0     H49947   1.994   8.866   6.757  0.8074  0.0061  0.7261
  370MOL0     H49948   2.307   8.791   6.822 -1.0446  1.9768  1.6165
  370MOL0     H49949   2.137   8.731   6.809  1.2340 -1.4747  0.1008
  370MOL0     H49950   2.239   8.698   6.678  0.1972  1.1779 -1.0399
  371MOL0     O49951   4.821  10.577   7.685 -0.1706  0.8596  0.2646
  371MOL0     C49952   4.796  10.672   7.756  0.0719  0.1778 -0.7637
  371MOL0     O49953   4.892  10.758   7.805 -0.0607  0.2376 -0.3141
  371MOL0     C49954   5.010  10.704   7.810 -0.8851  0.5314  0.6097
  371MOL0     C49955   5.107  10.777   7.731 -0.1923  0.4794 -0.2496
  371MOL0     C49956   5.242  10.738   7.735  0.3419 -0.1395  0.2029
  371MOL0     C49957   5.287  10.632   7.800 -0.6964  0.4555  0.2682
  371MOL0     O49958   5.423  10.599   7.788  0.0407 -0.1152  0.5618
  371MOL0     C49959   5.495  10.591   7.910  0.0202  0.0655 -0.2681
  371MOL0     C49960   5.517  10.719   7.981  0.4561  0.0817 -0.0738
  371MOL0     C49961   5.580  10.703   8.123  0.6575  0.8480 -0.3399
  371MOL0     C49962   5.728  10.698   8.121  0.2551  0.2268  0.2965
  371MOL0     C49963   5.799  10.670   8.266 -0.1447  0.3312 -0.2313
  371MOL0     C49964   5.945  10.683   8.266 -0.0248  0.3538 -0.0069
  371MOL0     C49965   6.016  10.650   8.400  1.1209 -0.0531  0.3758
  371MOL0     C49966   6.080  10.780   8.465  0.5022  0.2939  0.9869
  371MOL0     N49967   5.978  10.865   8.517  0.5255 -0.5595  0.4507
  371MOL0     C49968   5.939  10.982   8.468 -0.2340 -0.1794  0.3197
  371MOL0     C49969   5.832  11.013   8.541  0.4448 -0.8392  0.7941
  371MOL0     C49970   5.725  11.124   8.508  0.1455 -0.3181 -0.8875
  371MOL0     C49971   5.618  11.071   8.412  0.3022  0.3555 -0.9867
  371MOL0     C49972   5.513  11.179   8.367  0.2899 -0.3430 -0.9516
  371MOL0     C49973   5.424  11.116   8.253  0.0607 -1.2046  0.1068
  371MOL0     O49974   5.384  10.987   8.288  0.2037 -0.0518 -0.4005
  371MOL0     C49975   5.255  10.957   8.268 -0.4525  0.1677  0.5941
  371MOL0     C49976   5.165  10.941   8.371  0.3763  0.2557  0.0717
  371MOL0     C49977   5.028  10.937   8.347 -0.2341  1.1389  0.1772
  371MOL0     C49978   4.983  10.932   8.221  0.2454 -0.7299 -0.1662
  371MOL0     C49979   4.837  10.936   8.203  0.5897 -0.4596  0.6248
  371MOL0     O49980   4.752  10.992   8.298  0.5771  0.4451  0.5189
  371MOL0     C49981   4.620  11.009   8.272  0.2058  0.3315  0.9118
  371MOL0     C49982   4.583  11.070   8.150 -0.3474 -0.0621 -0.1299
  371MOL0     C49983   4.453  11.084   8.115  0.0900 -0.2120  0.5174
  371MOL0     C49984   4.343  11.048   8.192 -0.2048  0.4448  0.0680
  371MOL0     O49985   4.222  11.087   8.151 -0.2804 -0.2690 -1.0284
  371MOL0     C49986   4.113  11.017   8.202 -0.2655  0.1393  0.2175
  371MOL0     C49987   3.991  11.106   8.165  0.7629  0.7791  0.1374
  371MOL0     C49988   3.928  11.186   8.290 -0.2533 -0.0989  0.1407
  371MOL0     C49989   3.789  11.138   8.330  0.4581  0.1029 -0.7895
  371MOL0     C49990   3.716  11.226   8.433 -0.4778 -0.5305 -0.0767
  371MOL0     C49991   3.573  11.191   8.449 -0.1645  0.1147  0.6876
  371MOL0     C49992   3.498  11.276   8.550  1.0031  0.7445  0.7184
  371MOL0     C49993   3.350  11.236   8.588  0.0772 -0.1492 -0.9490
  371MOL0    Cl49994   3.243  11.220   8.452 -0.1989  0.2617 -0.2801
  371MOL0     C49995   4.375  10.994   8.317 -0.1344  0.2067 -0.7379
  371MOL0     C49996   4.512  10.968   8.360  0.0002  0.1327  0.6474
  371MOL0     O49997   4.801  10.887   8.096  1.1020  0.8608 -0.3150
  371MOL0     C49998   5.077  10.926   8.113 -0.3033 -0.3885  0.1746
  371MOL0     C49999   5.208  10.938   8.135 -0.0534 -0.3989  0.0515
  371MOL0     N50000   5.822  10.926   8.646 -0.7120 -0.0655  0.7901
  371MOL0     N50001   5.911  10.842   8.631  0.3426 -0.1249  0.2995
  371MOL0     C50002   5.196  10.558   7.880 -0.3736 -1.5129 -0.3076
  371MOL0     C50003   5.059  10.598   7.887  0.3031 -0.0472 -0.1437
  371MOL0     C50004   4.652  10.713   7.745  0.7532  0.2284 -0.2444
  371MOL0     C50005   4.615  10.836   7.804  0.3860  0.7236  0.0424
  371MOL0     C50006   4.486  10.891   7.799 -0.2704 -0.8449 -0.1649
  371MOL0     C50007   4.390  10.817   7.743 -0.7011  0.9416 -0.4439
  371MOL0     O50008   4.276  10.879   7.706 -0.0704 -0.0370 -0.1480
  371MOL0     C50009   4.165  10.868   7.792  0.5573 -0.0936  0.2423
  371MOL0     C50010   4.083  10.733   7.779 -0.6154 -0.1029 -0.2466
  371MOL0     C50011   3.967  10.730   7.882 -0.2442 -0.3936  0.8166
  371MOL0     C50012   3.925  10.588   7.909  0.1397  0.3757 -0.1818
  371MOL0     C50013   3.824  10.594   8.018  0.3763 -0.4445 -0.0589
  371MOL0     C50014   3.740  10.582   8.105 -0.9392 -0.6094 -0.1299
  371MOL0     C50015   4.419  10.695   7.683 -0.3911 -0.0942 -0.7351
  371MOL0     C50016   4.544  10.640   7.684 -0.3448 -0.1443 -0.8642
  371MOL0     C50017   4.563  10.507   7.623  0.0045  0.1177  0.0758
  371MOL0     H50018   5.074  10.856   7.665 -0.7080  0.7833  0.3584
  371MOL0     H50019   5.301  10.803   7.671  0.3891 -0.1836  0.2014
  371MOL0     H50020   5.440  10.521   7.973 -2.1170 -0.7569 -2.8556
  371MOL0     H50021   5.591  10.544   7.889 -0.4500 -1.4090  0.7389
  371MOL0     H50022   5.426  10.777   8.001 -0.9798 -1.8425 -0.7101
  371MOL0     H50023   5.584  10.781   7.921 -0.2264  0.8475 -0.0628
  371MOL0     H50024   5.533  10.615   8.167  0.0958  1.8681  1.2073
  371MOL0     H50025   5.545  10.779   8.195 -2.0859 -1.7782  1.3525
  371MOL0     H50026   5.744  10.620   8.045 -3.0223 -0.1819 -0.0843
  371MOL0     H50027   5.783  10.786   8.085  2.5677 -0.1209  2.6251
  371MOL0     H50028   5.758  10.731   8.347  1.5973  2.2717 -0.7246
  371MOL0     H50029   5.789  10.567   8.302 -0.6051 -0.0955 -1.5552
  371MOL0     H50030   5.976  10.606   8.195 -1.0067 -0.7425  0.7251
  371MOL0     H50031   5.973  10.784   8.234 -1.0416  0.3544 -0.9973
  371MOL0     H50032   6.099  10.580   8.386  0.4958 -0.7992  0.3701
  371MOL0     H50033   5.948  10.609   8.474  2.5135 -0.6510  1.3752
  371MOL0     H50034   6.155  10.761   8.542  1.7561  1.7750  0.1954
  371MOL0     H50035   6.133  10.840   8.391 -0.4211 -0.6988 -0.5263
  371MOL0     H50036   5.979  11.027   8.378 -1.1760  2.6912  1.2227
  371MOL0     H50037   5.680  11.170   8.596  2.3174  1.9508 -0.8481
  371MOL0     H50038   5.780  11.204   8.457 -0.6492  1.0993  0.3846
  371MOL0     H50039   5.670  11.056   8.317 -0.3823 -0.1389 -1.2829
  371MOL0     H50040   5.578  10.974   8.442  1.8168  0.1013  0.3768
  371MOL0     H50041   5.562  11.266   8.324  1.3644 -0.2228  0.4456
  371MOL0     H50042   5.452  11.210   8.452  2.0858  0.4561  0.0859
  371MOL0     H50043   5.495  11.115   8.170  2.9415 -0.7571  2.4145
  371MOL0     H50044   5.340  11.182   8.229  0.5144 -1.0454 -1.1539
  371MOL0     H50045   5.196  10.949   8.475 -1.5495 -1.7448  0.8752
  371MOL0     H50046   4.967  10.909   8.432  4.0277 -4.9961  1.9097
  371MOL0     H50047   4.662  11.099   8.081 -1.3489 -0.0273 -1.3003
  371MOL0     H50048   4.424  11.136   8.024 -1.2081 -0.7815  0.5901
  371MOL0     H50049   4.120  10.918   8.154  0.0871 -1.6669  3.6734
  371MOL0     H50050   4.103  10.996   8.309 -0.2716  1.1158  0.4120
  371MOL0     H50051   4.015  11.178   8.087  0.2613  0.9884  0.1769
  371MOL0     H50052   3.918  11.039   8.118  1.8696 -0.7065  0.4618
  371MOL0     H50053   3.987  11.162   8.379  1.0384 -1.6292 -1.0704
  371MOL0     H50054   3.927  11.292   8.263  0.9748  0.2609  1.3569
  371MOL0     H50055   3.788  11.033   8.361 -2.6573 -0.3940 -2.1567
  371MOL0     H50056   3.731  11.140   8.238  0.8713 -2.2539 -1.1473
  371MOL0     H50057   3.714  11.328   8.394 -0.8761 -0.8728 -0.9786
  371MOL0     H50058   3.754  11.214   8.535 -0.7063  2.1724  0.4257
  371MOL0     H50059   3.528  11.185   8.349 -1.8611 -0.6068  1.4571
  371MOL0     H50060   3.580  11.091   8.493  2.4810  0.5392  1.3842
  371MOL0     H50061   3.486  11.376   8.508 -1.0357 -1.4256 -4.7770
  371MOL0     H50062   3.554  11.279   8.645  1.6013  0.9337  0.3658
  371MOL0     H50063   3.346  11.143   8.645 -1.1572  0.4393 -0.0154
  371MOL0     H50064   3.303  11.312   8.651 -0.2515 -2.0783  1.2771
  371MOL0     H50065   4.291  10.973   8.383  0.4480  1.5631  0.4898
  371MOL0     H50066   4.547  10.933   8.456  1.4916  0.3705  0.2227
  371MOL0     H50067   5.049  10.911   8.010  0.3934  1.1521 -0.2721
  371MOL0     H50068   5.283  10.925   8.058 -0.4878  2.3280 -0.9508
  371MOL0     H50069   5.226  10.470   7.934  2.4979  0.1381  1.0016
  371MOL0     H50070   4.996  10.532   7.945  0.9832  1.0314  1.9331
  371MOL0     H50071   4.694  10.891   7.854 -0.1619  1.1180  0.5003
  371MOL0     H50072   4.455  10.989   7.835 -2.6407 -1.4864 -0.2625
  371MOL0     H50073   4.110  10.961   7.773  0.2010 -0.0894  1.2589
  371MOL0     H50074   4.192  10.884   7.897  0.3735 -3.2102  0.8553
  371MOL0     H50075   4.152  10.648   7.792  4.1667  3.1127 -1.7305
  371MOL0     H50076   4.039  10.730   7.679  0.5823  0.4807 -0.8089
  371MOL0     H50077   3.880  10.790   7.855 -0.1792  0.3426  2.1947
  371MOL0     H50078   4.012  10.769   7.973  1.2187  0.2378 -0.1285
  371MOL0     H50079   3.884  10.529   7.826  2.1916 -2.3984  0.6379
  371MOL0     H50080   4.010  10.528   7.941  0.1861  0.4302 -0.2015
  371MOL0     H50081   3.674  10.571   8.188 -0.4945  1.0875  0.5022
  371MOL0     H50082   4.341  10.666   7.614 -1.4086  1.5107 -0.3270
  371MOL0     H50083   4.618  10.518   7.529 -0.2167 -0.3655 -0.1167
  371MOL0     H50084   4.623  10.439   7.683 -0.5987 -1.5470 -1.1199
  371MOL0     H50085   4.464  10.463   7.608 -0.8036  1.7776  0.3379
  372MOL0     O50086   6.574   6.771  10.832  0.5765 -0.5529 -0.3619
  372MOL0     C50087   6.488   6.863  10.828 -0.0969  0.3115 -0.6278
  372MOL0     O50088   6.516   7.001  10.830 -0.0922  0.4729  0.1548
  372MOL0     C50089   6.643   7.048  10.850  0.3169  0.1462 -0.4450
  372MOL0     C50090   6.735   7.001  10.946  0.1519 -0.5566 -0.3019
  372MOL0     C50091   6.862   7.061  10.969 -0.0135  0.0824  0.0445
  372MOL0     C50092   6.904   7.174  10.893  0.0492 -0.4359  0.2099
  372MOL0     O50093   7.018   7.248  10.898  0.8695  0.5893  0.1969
  372MOL0     C50094   7.126   7.199  10.974  0.6274  0.0512 -0.5662
  372MOL0     C50095   7.229   7.304  10.985 -0.4809  0.2384 -0.5195
  372MOL0     C50096   7.355   7.253  11.048 -0.4772  0.5861  0.6648
  372MOL0     C50097   7.428   7.371  11.109 -0.2700 -0.4601  0.1767
  372MOL0     C50098   7.565   7.340  11.164  0.1435  1.0359  0.2810
  372MOL0     C50099   7.643   7.466  11.205  0.5767 -0.3529  0.4118
  372MOL0     C50100   7.783   7.433  11.245  1.0651  0.4655  0.0361
  372MOL0     C50101   7.887   7.437  11.135 -0.7745  0.5018 -0.0068
  372MOL0     N50102   8.025   7.414  11.181  1.2678 -1.0778 -0.3629
  372MOL0     C50103   8.066   7.294  11.233 -0.0388  0.5772  0.0990
  372MOL0     C50104   8.196   7.309  11.247 -0.4156 -0.2145  0.5968
  372MOL0     C50105   8.286   7.199  11.293 -0.0274  0.4759 -0.6527
  372MOL0     C50106   8.367   7.130  11.178 -0.2654  0.6459 -0.6095
  372MOL0     C50107   8.452   7.224  11.086 -0.0046  0.6274 -0.5036
  372MOL0     C50108   8.565   7.304  11.153 -0.7373  0.3803  0.3856
  372MOL0     O50109   8.677   7.215  11.169  0.2120  0.3343  0.4222
  372MOL0     C50110   8.797   7.245  11.224 -0.2695 -0.8675  0.4562
  372MOL0     C50111   8.841   7.384  11.245 -0.3736  0.5012 -0.4010
  372MOL0     C50112   8.966   7.413  11.302  0.3276 -0.0221  0.4641
  372MOL0     C50113   9.049   7.308  11.347  0.6126  0.0303  0.0937
  372MOL0     C50114   9.176   7.323  11.416 -0.3505  0.1505  0.0837
  372MOL0     O50115   9.238   7.210  11.461  0.0312 -0.4351  0.6150
  372MOL0     C50116   9.367   7.231  11.508 -0.6467 -0.4790 -0.7837
  372MOL0     C50117   9.397   7.198  11.643 -0.2063  0.4277 -0.4896
  372MOL0     C50118   9.529   7.221  11.700 -0.0832  0.3935 -0.0592
  372MOL0     C50119   9.626   7.284  11.617 -0.2269 -0.2160 -0.3111
  372MOL0     O50120   9.754   7.316  11.659 -0.3705  0.3196 -0.1186
  372MOL0     C50121   9.812   7.218  11.752  0.4317 -0.0733 -0.6460
  372MOL0     C50122   9.965   7.248  11.769 -0.5949  0.0537 -0.2759
  372MOL0     C50123  10.039   7.256  11.638 -0.2203  0.1681  0.0679
  372MOL0     C50124  10.178   7.320  11.664  0.5374 -1.0589  0.2657
  372MOL0     C50125  10.248   7.339  11.530  0.5349  0.0609  0.3333
  372MOL0     C50126  10.392   7.375  11.558  0.0777 -0.5557  0.0079
  372MOL0     C50127  10.465   7.387  11.424  0.7654 -0.8528  0.5248
  372MOL0     C50128  10.596   7.450  11.443 -1.2151 -0.2974  0.1708
  372MOL0    Cl50129  10.695   7.351  11.559 -0.3536  0.1727  0.3289
  372MOL0     C50130   9.592   7.320  11.492 -0.0275  0.1126 -0.4567
  372MOL0     C50131   9.465   7.291  11.434  0.5244 -0.2487  0.4227
  372MOL0     O50132   9.208   7.442  11.443 -0.6883  0.0779  0.1189
  372MOL0     C50133   9.003   7.175  11.323  0.7298 -0.7252 -0.3220
  372MOL0     C50134   8.870   7.146  11.272 -1.3458  0.3027  0.1355
  372MOL0     N50135   8.237   7.426  11.176 -1.0084  0.5948 -0.1110
  372MOL0     N50136   8.128   7.489  11.143 -0.1042 -0.2188 -0.4670
  372MOL0     C50137   6.803   7.232  10.813 -0.5105 -0.0264 -0.3741
  372MOL0     C50138   6.674   7.163  10.793  0.1425 -0.9322 -0.1333
  372MOL0     C50139   6.347   6.828  10.830 -0.9802  0.1337 -0.0100
  372MOL0     C50140   6.241   6.922  10.817  0.0634 -0.7849 -0.6560
  372MOL0     C50141   6.107   6.876  10.792  0.0089 -0.2547 -0.6286
  372MOL0     C50142   6.069   6.748  10.775  0.2155  0.2539  0.1080
  372MOL0     O50143   5.943   6.712  10.726  0.3554 -0.1513 -0.1665
  372MOL0     C50144   5.889   6.585  10.753 -0.4840 -0.4397  0.3118
  372MOL0     C50145   5.737   6.569  10.755 -0.2907 -1.1684  0.2794
  372MOL0     C50146   5.676   6.684  10.839  0.8368  0.4349 -0.3294
  372MOL0     C50147   5.715   6.687  10.993 -0.3784  0.7937 -0.2246
  372MOL0     C50148   5.597   6.705  11.080  0.7120 -0.8883  0.6233
  372MOL0     C50149   5.503   6.734  11.154  0.6313 -0.4743 -0.0739
  372MOL0     C50150   6.170   6.660  10.796 -0.7033  1.1116 -0.1307
  372MOL0     C50151   6.308   6.694  10.829 -0.4436 -0.2761 -0.4704
  372MOL0     C50152   6.393   6.577  10.861  0.0392 -0.0506 -0.6044
  372MOL0     H50153   6.713   6.908  10.997 -1.9909  0.0496 -0.0063
  372MOL0     H50154   6.925   7.011  11.041  4.4145  3.8089 -0.7952
  372MOL0     H50155   7.093   7.166  11.073 -1.5761 -0.2715 -1.3577
  372MOL0     H50156   7.159   7.110  10.919 -0.6217 -0.8474  0.0978
  372MOL0     H50157   7.190   7.388  11.043 -0.8721  0.7555 -1.4907
  372MOL0     H50158   7.247   7.347  10.886  0.9540 -2.8069 -1.6870
  372MOL0     H50159   7.418   7.206  10.972  0.7273  2.5483  0.3719
  372MOL0     H50160   7.349   7.182  11.131  2.5640  0.2186  0.7127
  372MOL0     H50161   7.445   7.450  11.035 -0.6342 -1.1485 -0.6586
  372MOL0     H50162   7.367   7.399  11.196  0.2004 -1.5269  0.8649
  372MOL0     H50163   7.553   7.280  11.255  2.4155 -0.8602 -0.5784
  372MOL0     H50164   7.627   7.295  11.087 -1.6560  0.8066 -1.0882
  372MOL0     H50165   7.646   7.536  11.121 -0.4189 -0.0032  0.6453
  372MOL0     H50166   7.583   7.512  11.285  0.9037 -2.8864  2.2276
  372MOL0     H50167   7.790   7.337  11.296  0.3679  0.3227 -0.1229
  372MOL0     H50168   7.806   7.509  11.319  3.1360  0.1537 -0.2314
  372MOL0     H50169   7.872   7.365  11.054  0.5598 -0.7016  0.7756
  372MOL0     H50170   7.881   7.535  11.087  2.9943  1.1241  0.5056
  372MOL0     H50171   8.001   7.207  11.247  0.1227 -0.0148 -2.3256
  372MOL0     H50172   8.361   7.231  11.367 -0.3331 -3.5758  1.7776
  372MOL0     H50173   8.238   7.114  11.342  2.7898 -0.1264  1.3208
  372MOL0     H50174   8.435   7.056  11.220  0.0240  1.3325  0.1571
  372MOL0     H50175   8.302   7.073  11.110  0.4754 -0.3968 -0.4691
  372MOL0     H50176   8.390   7.294  11.030 -1.3980 -0.5263 -0.4504
  372MOL0     H50177   8.500   7.159  11.013  1.4946 -0.8169  1.6546
  372MOL0     H50178   8.539   7.360  11.243 -3.3945 -0.4036  0.1860
  372MOL0     H50179   8.591   7.377  11.075 -1.6958 -1.7093 -2.0520
  372MOL0     H50180   8.771   7.460  11.213  0.3131  1.1329 -0.4438
  372MOL0     H50181   8.994   7.516  11.327 -0.1371  0.8042 -2.1670
  372MOL0     H50182   9.309   7.174  11.702  0.1330 -0.0381 -0.1657
  372MOL0     H50183   9.547   7.193  11.804  1.2620  0.8320 -0.1535
  372MOL0     H50184   9.776   7.238  11.853  2.2640  1.5654 -0.2541
  372MOL0     H50185   9.806   7.114  11.718  0.9566 -0.5983  0.7873
  372MOL0     H50186   9.981   7.342  11.821  1.9897  0.6695 -1.9983
  372MOL0     H50187  10.013   7.168  11.826  0.1547  1.8944  1.8159
  372MOL0     H50188  10.045   7.155  11.597 -0.0790  0.5662 -0.9062
  372MOL0     H50189   9.980   7.314  11.567 -1.8252 -1.0910  0.3152
  372MOL0     H50190  10.240   7.261  11.731  1.8736  0.7240  0.6787
  372MOL0     H50191  10.160   7.415  11.716  3.3158 -1.7456  2.7628
  372MOL0     H50192  10.194   7.412  11.470  1.7170  1.0717  0.4730
  372MOL0     H50193  10.238   7.242  11.480 -2.4224 -1.0094  2.6517
  372MOL0     H50194  10.391   7.475  11.603 -2.8667  0.2613 -1.5853
  372MOL0     H50195  10.435   7.305  11.630  1.0530 -0.2987 -0.3041
  372MOL0     H50196  10.405   7.457  11.364  2.1051 -0.4027 -0.3372
  372MOL0     H50197  10.473   7.294  11.368  2.2884  0.6088 -1.8771
  372MOL0     H50198  10.663   7.455  11.357  1.8468 -0.0520  2.4250
  372MOL0     H50199  10.588   7.551  11.486  0.1012 -0.2299  0.2987
  372MOL0     H50200   9.662   7.384  11.439  0.9093  1.4013  2.1347
  372MOL0     H50201   9.448   7.322  11.332 -3.0586 -2.0573  0.2906
  372MOL0     H50202   9.065   7.091  11.351  0.2019 -1.2216 -0.6203
  372MOL0     H50203   8.841   7.043  11.251 -0.8045  0.5287 -1.9774
  372MOL0     H50204   6.821   7.327  10.764  0.7940 -0.2198 -0.2982
  372MOL0     H50205   6.598   7.204  10.727  2.7070  1.0131 -2.0963
  372MOL0     H50206   6.262   7.028  10.826 -1.3188 -0.4971 -0.6853
  372MOL0     H50207   6.025   6.946  10.800 -0.6853 -1.2327  1.8389
  372MOL0     H50208   5.920   6.573  10.858  2.4787  1.2708 -0.2630
  372MOL0     H50209   5.937   6.508  10.692  2.2263  3.1222 -2.4971
  372MOL0     H50210   5.705   6.472  10.795  0.7797 -1.2865  0.8674
  372MOL0     H50211   5.690   6.580  10.656 -0.4731 -0.2335  0.4580
  372MOL0     H50212   5.568   6.673  10.834  1.1201 -2.9663 -1.5330
  372MOL0     H50213   5.689   6.784  10.796 -2.8238  1.4153  0.4899
  372MOL0     H50214   5.775   6.598  11.014 -1.6615 -0.2450 -0.8125
  372MOL0     H50215   5.788   6.766  11.011  0.2381 -0.0460  1.0673
  372MOL0     H50216   5.422   6.765  11.216 -0.9185  1.5837 -2.9354
  372MOL0     H50217   6.142   6.555  10.794  3.0695 -0.0411  0.1879
  372MOL0     H50218   6.457   6.545  10.778  2.0057  0.9649  0.4670
  372MOL0     H50219   6.455   6.586  10.950  0.4178 -0.7982 -0.7797
  372MOL0     H50220   6.332   6.487  10.872 -0.9702  0.5009 -1.4547
  373MOL0     O50221   6.820   4.631   2.195 -0.6454 -0.2248  0.7719
  373MOL0     C50222   6.704   4.607   2.235 -0.1110 -0.2145  0.2671
  373MOL0     O50223   6.671   4.513   2.330 -0.4488  0.3422  0.1590
  373MOL0     C50224   6.772   4.430   2.389  0.9206 -0.7093 -0.1379
  373MOL0     C50225   6.838   4.468   2.507 -0.1304 -0.0685  1.2314
  373MOL0     C50226   6.951   4.398   2.556  0.2327 -0.5564 -0.3798
  373MOL0     C50227   6.991   4.280   2.484 -0.2659 -0.9490  0.1550
  373MOL0     O50228   7.091   4.194   2.525 -0.2318 -0.0097 -0.0754
  373MOL0     C50229   7.129   4.201   2.660  0.3993 -0.3958  0.3792
  373MOL0     C50230   7.229   4.082   2.684 -0.9450  0.0888 -1.3067
  373MOL0     C50231   7.356   4.108   2.597  0.4403  0.8211 -0.4859
  373MOL0     C50232   7.466   4.013   2.629  0.0146  0.1292 -0.9396
  373MOL0     C50233   7.595   4.059   2.562  0.4193  0.5191  0.3285
  373MOL0     C50234   7.721   3.969   2.569 -0.1035 -0.0293  0.0421
  373MOL0     C50235   7.822   4.015   2.465  0.1772  0.2593  0.0854
  373MOL0     C50236   7.952   3.932   2.475 -0.0729 -0.1896  0.3976
  373MOL0     N50237   8.060   3.992   2.393  0.0978  0.3255  0.1300
  373MOL0     C50238   8.141   4.097   2.425 -1.1367  0.0478  0.3838
  373MOL0     C50239   8.238   4.090   2.329  0.0845  0.7758  0.4514
  373MOL0     C50240   8.368   4.167   2.331 -0.6416  0.5611  1.0761
  373MOL0     C50241   8.439   4.149   2.468  0.9263  0.5164  0.1225
  373MOL0     C50242   8.577   4.230   2.488  0.7376 -0.2980 -0.2132
  373MOL0     C50243   8.692   4.197   2.386  0.9746 -0.3487 -0.3167
  373MOL0     O50244   8.798   4.294   2.415  0.3633  0.5626 -0.2054
  373MOL0     C50245   8.920   4.255   2.369 -1.1997  0.2548 -0.1921
  373MOL0     C50246   9.027   4.324   2.429 -0.1176 -0.1547 -0.3470
  373MOL0     C50247   9.161   4.270   2.406  0.3420  0.0152 -0.5019
  373MOL0     C50248   9.191   4.176   2.316 -0.5674 -0.1088 -0.1351
  373MOL0     C50249   9.337   4.141   2.297  0.4572  0.8788  0.7007
  373MOL0     O50250   9.431   4.159   2.397 -0.5091 -0.1330 -0.0773
  373MOL0     C50251   9.560   4.139   2.359 -0.5397 -0.5187  0.5941
  373MOL0     C50252   9.643   4.242   2.308  0.0478 -0.2899  0.7175
  373MOL0     C50253   9.782   4.220   2.275 -0.2406 -0.4441  0.4016
  373MOL0     C50254   9.838   4.095   2.304 -0.1089 -0.2945  0.0570
  373MOL0     O50255   9.969   4.073   2.288 -0.1255  0.0715  0.2933
  373MOL0     C50256  10.030   3.936   2.308 -0.1871 -0.6913 -0.1772
  373MOL0     C50257  10.170   3.908   2.265 -0.2545  0.1771 -0.2948
  373MOL0     C50258  10.258   4.017   2.324 -0.1737 -0.1953 -0.4257
  373MOL0     C50259  10.401   3.991   2.277  0.4133  0.5173  1.1251
  373MOL0     C50260  10.495   4.116   2.289  0.3998 -0.1593  0.0839
  373MOL0     C50261  10.586   4.127   2.170  0.4449  0.1096  0.0568
  373MOL0     C50262  10.506   4.185   2.053 -0.1251 -0.0738  0.2491
  373MOL0     C50263  10.591   4.157   1.926 -0.1729  0.4195 -0.7567
  373MOL0    Cl50264  10.739   4.267   1.925 -0.4047 -0.3198  0.2254
  373MOL0     C50265   9.762   4.005   2.370 -0.3511 -0.1122  0.8394
  373MOL0     C50266   9.628   4.022   2.388  0.2366 -0.5444  0.2720
  373MOL0     O50267   9.361   4.096   2.193  0.4696  0.3698 -0.2929
  373MOL0     C50268   9.084   4.129   2.242 -0.4359  0.2612  0.1686
  373MOL0     C50269   8.955   4.164   2.273 -0.1353 -0.5427  0.0207
  373MOL0     N50270   8.202   3.993   2.230  0.7834 -0.3778  0.7772
  373MOL0     N50271   8.096   3.941   2.266  0.2237 -0.4140  0.4346
  373MOL0     C50272   6.921   4.240   2.370  0.2072  0.0317 -0.4686
  373MOL0     C50273   6.817   4.322   2.324  0.3561  0.4546  0.7219
  373MOL0     C50274   6.585   4.689   2.192 -0.0912  1.1671  0.7892
  373MOL0     C50275   6.481   4.697   2.286 -0.2328 -1.8325  0.8763
  373MOL0     C50276   6.363   4.768   2.259 -0.9486  0.0341 -0.8404
  373MOL0     C50277   6.345   4.827   2.137  0.0554 -0.1024 -0.0575
  373MOL0     O50278   6.230   4.902   2.113 -0.4869 -0.4733 -0.1465
  373MOL0     C50279   6.231   5.041   2.165  0.4008 -0.7134 -0.1510
  373MOL0     C50280   6.318   5.138   2.081 -0.4548  0.0381 -0.4205
  373MOL0     C50281   6.317   5.288   2.131 -0.4934  0.4615  0.3277
  373MOL0     C50282   6.425   5.367   2.063 -0.3351 -0.6784 -0.5503
  373MOL0     C50283   6.401   5.388   1.920 -0.1513  0.4779 -0.5688
  373MOL0     C50284   6.371   5.404   1.804  0.4405  0.0568 -0.1612
  373MOL0     C50285   6.448   4.810   2.048 -0.1627 -0.2285  1.4706
  373MOL0     C50286   6.571   4.739   2.065 -0.1193  0.2502  0.0212
  373MOL0     C50287   6.663   4.725   1.948  0.3294 -0.6679  0.2769
  373MOL0     H50288   6.805   4.563   2.550 -0.4146  0.8714 -0.9328
  373MOL0     H50289   6.997   4.436   2.646  1.7474  1.0601 -1.7735
  373MOL0     H50290   7.173   4.300   2.674 -0.3639 -0.3167  2.5496
  373MOL0     H50291   7.043   4.193   2.726  0.3425  1.4116  0.5669
  373MOL0     H50292   7.185   3.985   2.660  0.6616 -1.3002  0.9797
  373MOL0     H50293   7.256   4.078   2.790 -0.6069 -2.7569 -1.4158
  373MOL0     H50294   7.384   4.212   2.618 -1.8976  0.8643  3.6843
  373MOL0     H50295   7.338   4.106   2.489  0.7470 -1.5104 -0.5486
  373MOL0     H50296   7.479   3.992   2.736  2.7628 -0.1522 -1.2377
  373MOL0     H50297   7.425   3.921   2.587 -0.4449 -0.3104  0.3922
  373MOL0     H50298   7.564   4.086   2.461 -1.9070  0.9214  1.1001
  373MOL0     H50299   7.625   4.151   2.613  0.5622  1.3674 -1.2532
  373MOL0     H50300   7.776   3.987   2.661  1.5851  2.5232 -1.3596
  373MOL0     H50301   7.687   3.865   2.560 -1.2689  0.4589 -1.6966
  373MOL0     H50302   7.844   4.122   2.476  0.0124  0.2937  0.0762
  373MOL0     H50303   7.783   4.000   2.364  1.7693 -3.1858 -0.1725
  373MOL0     H50304   7.978   3.911   2.580 -1.4554  3.1798  1.5576
  373MOL0     H50305   7.930   3.837   2.426  0.8917 -0.3811  0.3090
  373MOL0     H50306   8.127   4.150   2.518 -0.0476  0.5963  0.2455
  373MOL0     H50307   8.433   4.146   2.245 -1.8603  3.3228 -0.6654
  373MOL0     H50308   8.348   4.273   2.314  2.1704  0.6935 -2.8160
  373MOL0     H50309   8.371   4.180   2.547 -1.3232 -2.0716 -0.6430
  373MOL0     H50310   8.451   4.041   2.480 -3.6616 -0.0253  1.7744
  373MOL0     H50311   8.609   4.205   2.589 -2.5269  0.3279  1.1242
  373MOL0     H50312   8.555   4.337   2.498  1.0780 -0.3458  1.3515
  373MOL0     H50313   8.654   4.208   2.284  2.6356 -0.4670 -0.9735
  373MOL0     H50314   8.727   4.094   2.394  0.1424 -0.7246 -1.2489
  373MOL0     H50315   9.019   4.403   2.503  5.8146  0.2673  0.3970
  373MOL0     H50316   9.247   4.312   2.458 -1.1605  2.2018  0.3689
  373MOL0     H50317   9.600   4.339   2.287  3.3894  0.8409 -1.6563
  373MOL0     H50318   9.828   4.300   2.219  1.7312 -0.4562  1.9112
  373MOL0     H50319  10.040   3.912   2.414 -0.1235 -1.1123 -0.2772
  373MOL0     H50320   9.956   3.868   2.264 -1.3597  1.2651 -1.3955
  373MOL0     H50321  10.206   3.809   2.292  3.1999  1.4662  0.3168
  373MOL0     H50322  10.167   3.918   2.156 -0.9359 -0.7458 -0.3735
  373MOL0     H50323  10.230   4.118   2.291  0.2251  0.2725  0.6239
  373MOL0     H50324  10.242   4.018   2.432 -0.6828  1.4041 -0.4847
  373MOL0     H50325  10.393   3.958   2.173  0.8630 -3.1860  2.1528
  373MOL0     H50326  10.436   3.904   2.333 -1.5944 -0.7990  0.4685
  373MOL0     H50327  10.559   4.107   2.378  1.0091 -3.8145 -0.5876
  373MOL0     H50328  10.439   4.210   2.294  0.7751  0.3460 -3.1383
  373MOL0     H50329  10.669   4.195   2.192 -0.4053  0.8066  1.1524
  373MOL0     H50330  10.623   4.025   2.153 -1.7783 -0.5671 -1.2075
  373MOL0     H50331  10.493   4.291   2.079 -1.1444 -0.2469  0.4770
  373MOL0     H50332  10.406   4.142   2.043 -0.0151 -0.1788 -0.4118
  373MOL0     H50333  10.623   4.053   1.920 -1.0089  0.1925 -1.5149
  373MOL0     H50334  10.523   4.178   1.843 -0.8408  2.5128  0.2347
  373MOL0     H50335   9.794   3.913   2.417 -1.9092 -1.8914 -1.3968
  373MOL0     H50336   9.566   3.952   2.443 -0.9450  0.3010  0.0635
  373MOL0     H50337   9.106   4.058   2.163  3.4332 -1.3604  2.4147
  373MOL0     H50338   8.882   4.111   2.213 -2.0026  1.8861 -0.0101
  373MOL0     H50339   6.945   4.149   2.317  1.9458  0.9409 -1.3467
  373MOL0     H50340   6.763   4.299   2.233  1.5667 -0.5055  0.2215
  373MOL0     H50341   6.499   4.668   2.389  0.6298  1.4485  1.7737
  373MOL0     H50342   6.285   4.764   2.334  0.1679  0.8770  0.4193
  373MOL0     H50343   6.259   5.034   2.271 -5.4743 -2.6748  1.6840
  373MOL0     H50344   6.129   5.081   2.165  0.8463  0.7599 -3.7495
  373MOL0     H50345   6.269   5.137   1.983  2.4260  1.5922 -2.0340
  373MOL0     H50346   6.422   5.107   2.071 -0.2778  1.1838 -3.1220
  373MOL0     H50347   6.330   5.300   2.239 -0.6877  1.5197  0.2482
  373MOL0     H50348   6.218   5.330   2.109 -1.1805 -1.0995  0.2921
  373MOL0     H50349   6.433   5.464   2.113  0.3905 -0.5877 -0.8296
  373MOL0     H50350   6.516   5.319   2.098 -1.5782 -1.2314  2.1465
  373MOL0     H50351   6.344   5.430   1.703 -1.0097  1.3064  0.5050
  373MOL0     H50352   6.430   4.859   1.952  0.8689 -1.9625  0.3287
  373MOL0     H50353   6.643   4.637   1.887  0.5143 -0.1445 -0.5676
  373MOL0     H50354   6.646   4.819   1.894 -0.7170 -1.3097 -0.5503
  373MOL0     H50355   6.763   4.719   1.992 -0.1247 -1.3070  1.2607
  374MOL0     O50356   0.570   1.232   7.545  0.2485  0.1428  0.4452
  374MOL0     C50357   0.536   1.201   7.657  1.0787  0.1830  0.5810
  374MOL0     O50358   0.622   1.151   7.757  0.4548 -0.4737  0.1770
  374MOL0     C50359   0.757   1.171   7.732  0.7102 -0.7961  0.3593
  374MOL0     C50360   0.824   1.123   7.619 -0.0206 -0.7455  0.1308
  374MOL0     C50361   0.962   1.135   7.610 -0.8623 -0.2228  0.1752
  374MOL0     C50362   1.036   1.208   7.702 -0.3148  0.5765 -0.5633
  374MOL0     O50363   1.173   1.217   7.714  0.2607 -1.0674 -0.6061
  374MOL0     C50364   1.252   1.153   7.611  0.4364 -0.3445 -0.0800
  374MOL0     C50365   1.401   1.181   7.634 -0.3902  0.7620  0.6798
  374MOL0     C50366   1.438   1.313   7.596  0.6003  0.3181 -0.4098
  374MOL0     C50367   1.585   1.347   7.605 -0.5359  0.8280 -0.0975
  374MOL0     C50368   1.610   1.493   7.579 -0.4325 -0.4301  0.0439
  374MOL0     C50369   1.629   1.519   7.432  0.3822  0.2431  0.6036
  374MOL0     C50370   1.778   1.506   7.381 -0.1279 -0.0569 -0.6868
  374MOL0     C50371   1.784   1.542   7.231  0.3065  0.0733  0.0956
  374MOL0     N50372   1.913   1.604   7.203  0.2361 -1.3102  0.2955
  374MOL0     C50373   1.915   1.737   7.184 -0.1453  0.2463 -0.4024
  374MOL0     C50374   2.042   1.761   7.140 -0.4561  0.7922 -0.2491
  374MOL0     C50375   2.112   1.890   7.126 -0.6589  0.2250  0.2894
  374MOL0     C50376   2.125   1.938   6.986  0.2084  0.8693 -0.4387
  374MOL0     C50377   2.218   1.849   6.911  0.2269 -1.1899 -0.1190
  374MOL0     C50378   2.273   1.909   6.780  0.2586 -0.7765 -1.8447
  374MOL0     O50379   2.322   1.816   6.688 -0.1445 -0.5960 -0.0845
  374MOL0     C50380   2.454   1.764   6.698 -0.1913  0.1015 -0.9809
  374MOL0     C50381   2.550   1.801   6.794  0.5744 -0.1100 -0.2557
  374MOL0     C50382   2.679   1.744   6.805  0.2287  0.1200  0.2475
  374MOL0     C50383   2.717   1.642   6.714  0.1274 -0.1613 -0.0462
  374MOL0     C50384   2.847   1.589   6.712  0.1726 -0.3655  0.2390
  374MOL0     O50385   2.881   1.522   6.602  0.4577 -0.0175  0.3934
  374MOL0     C50386   3.003   1.459   6.599 -0.1957 -0.4431 -0.1298
  374MOL0     C50387   3.005   1.323   6.616 -0.6174 -0.6652  0.1291
  374MOL0     C50388   3.128   1.253   6.617 -0.1266 -0.1749 -0.6058
  374MOL0     C50389   3.246   1.327   6.610  0.0125  0.5700 -0.0439
  374MOL0     O50390   3.353   1.244   6.607  0.3325 -0.4336 -0.3175
  374MOL0     C50391   3.484   1.304   6.587 -0.5339 -0.7285 -0.5600
  374MOL0     C50392   3.597   1.205   6.582  0.0281 -0.3111  0.1474
  374MOL0     C50393   3.726   1.285   6.556  0.3465  0.1110 -0.7040
  374MOL0     C50394   3.842   1.187   6.590 -1.4234  0.2872 -0.0199
  374MOL0     C50395   3.984   1.242   6.548 -0.1516 -0.1754  0.0438
  374MOL0     C50396   4.107   1.151   6.562  0.4750  0.8412 -0.6766
  374MOL0     C50397   4.228   1.242   6.516 -0.3315  0.0966 -0.5422
  374MOL0     C50398   4.359   1.227   6.600  0.2209 -0.0305 -0.0171
  374MOL0    Cl50399   4.504   1.309   6.540  0.1870  0.2062  0.2093
  374MOL0     C50400   3.241   1.466   6.601  0.2044  0.1844 -0.6677
  374MOL0     C50401   3.122   1.536   6.590  1.0201 -0.8668  0.9832
  374MOL0     O50402   2.921   1.609   6.809 -0.1944  0.0456  0.3078
  374MOL0     C50403   2.617   1.587   6.621 -0.7133 -0.5539 -0.0332
  374MOL0     C50404   2.493   1.661   6.607 -1.1959  0.4630 -0.0351
  374MOL0     N50405   2.108   1.640   7.131 -0.6956  0.7338 -0.0078
  374MOL0     N50406   2.025   1.546   7.156 -0.5651  0.7616 -0.2917
  374MOL0     C50407   0.968   1.258   7.819 -0.2722 -0.3982  0.1341
  374MOL0     C50408   0.825   1.246   7.822  0.4969 -0.0618 -0.0481
  374MOL0     C50409   0.391   1.219   7.681  0.4444 -0.1292 -0.2342
  374MOL0     C50410   0.366   1.231   7.816  0.1496 -0.7881  0.4575
  374MOL0     C50411   0.235   1.261   7.861  0.2161 -0.1936  1.0901
  374MOL0     C50412   0.127   1.266   7.777  0.0879 -0.4622 -0.0150
  374MOL0     O50413   0.007   1.281   7.837 -0.6340  0.0991 -0.8652
  374MOL0     C50414  -0.104   1.319   7.759  0.2709 -0.5498 -0.6714
  374MOL0     C50415  -0.180   1.206   7.708  0.3964  0.3130 -0.2643
  374MOL0     C50416  -0.335   1.231   7.708  0.8485  0.1090  0.0050
  374MOL0     C50417  -0.404   1.094   7.663 -0.2421 -0.2613 -1.2733
  374MOL0     C50418  -0.551   1.104   7.645 -0.1091 -0.2479  0.7683
  374MOL0     C50419  -0.669   1.132   7.649 -0.1414 -0.1152 -0.3719
  374MOL0     C50420   0.155   1.243   7.639 -0.1713  0.3156 -0.6917
  374MOL0     C50421   0.283   1.212   7.588 -0.4136  0.4005  0.3168
  374MOL0     C50422   0.291   1.198   7.437 -0.3721  0.1524  0.5593
  374MOL0     H50423   0.782   1.062   7.540  1.1967 -2.4418  0.7321
  374MOL0     H50424   1.008   1.081   7.527 -0.7515  1.6169 -1.0390
  374MOL0     H50425   1.226   1.048   7.628 -3.2935  0.6437  1.3165
  374MOL0     H50426   1.222   1.201   7.518  0.0574  0.3179  0.3758
  374MOL0     H50427   1.460   1.120   7.566 -2.4356  3.0361 -3.5135
  374MOL0     H50428   1.429   1.159   7.738  1.6623 -0.3585 -0.0554
  374MOL0     H50429   1.385   1.381   7.663 -2.0463 -1.6242 -0.3267
  374MOL0     H50430   1.395   1.330   7.497 -2.0927  0.8814  0.7489
  374MOL0     H50431   1.633   1.320   7.699 -0.4646 -2.5860 -0.9529
  374MOL0     H50432   1.641   1.285   7.534 -0.7744  1.6952 -1.0691
  374MOL0     H50433   1.518   1.536   7.619 -1.9328 -1.5218 -2.0407
  374MOL0     H50434   1.696   1.527   7.637 -0.9590 -1.4360  1.4836
  374MOL0     H50435   1.555   1.462   7.376 -1.7511  2.4614  0.9861
  374MOL0     H50436   1.598   1.622   7.413  1.3018  0.4499  0.1609
  374MOL0     H50437   1.802   1.399   7.386 -3.4214 -0.9495 -1.1978
  374MOL0     H50438   1.848   1.563   7.443 -2.0405  0.5664  1.0051
  374MOL0     H50439   1.762   1.455   7.169 -0.0034  1.3503 -1.6550
  374MOL0     H50440   1.706   1.613   7.201  1.3330  1.1643 -0.0440
  374MOL0     H50441   1.843   1.814   7.206  1.1143  1.1621  0.6929
  374MOL0     H50442   2.056   1.973   7.172  0.6666  1.6529 -0.5710
  374MOL0     H50443   2.209   1.883   7.175  0.3954  2.0018 -1.3830
  374MOL0     H50444   2.031   1.932   6.929 -0.2287 -4.3928  0.3432
  374MOL0     H50445   2.139   2.046   6.992  0.5335  0.7659  0.9055
  374MOL0     H50446   2.184   1.752   6.875  0.4477 -1.4414  0.3400
  374MOL0     H50447   2.310   1.829   6.967  0.0599 -1.1397  0.1744
  374MOL0     H50448   2.358   1.970   6.812 -0.3985 -0.0934 -1.3797
  374MOL0     H50449   2.195   1.976   6.742  2.5195  1.9552 -1.9483
  374MOL0     H50450   2.529   1.872   6.873  3.2909 -0.8215  1.2696
  374MOL0     H50451   2.743   1.781   6.884 -0.9950 -1.7700  2.2601
  374MOL0     H50452   2.908   1.278   6.633  0.2133 -4.1954 -3.0466
  374MOL0     H50453   3.125   1.147   6.640  0.0985 -0.4065 -1.5811
  374MOL0     H50454   3.476   1.355   6.490  1.2327 -0.3978 -0.5598
  374MOL0     H50455   3.503   1.370   6.672 -0.8976 -1.7839  0.3664
  374MOL0     H50456   3.603   1.137   6.668 -0.8776 -0.0278  0.4492
  374MOL0     H50457   3.569   1.149   6.493 -1.4145  0.1899  0.2535
  374MOL0     H50458   3.726   1.322   6.453 -2.4148  0.9766 -0.4838
  374MOL0     H50459   3.738   1.376   6.615  2.3401 -0.8645  0.4985
  374MOL0     H50460   3.825   1.083   6.562 -0.1338 -0.1085  0.6175
  374MOL0     H50461   3.842   1.193   6.699  1.5071 -0.5587  0.0925
  374MOL0     H50462   3.988   1.330   6.613 -1.0247 -0.8712  1.0845
  374MOL0     H50463   3.973   1.280   6.446 -6.3148 -0.1630  0.3235
  374MOL0     H50464   4.131   1.121   6.664 -0.3045  1.1731 -0.3834
  374MOL0     H50465   4.104   1.059   6.504  0.8313 -1.0070  2.0706
  374MOL0     H50466   4.204   1.349   6.521  1.8190  0.5913  0.3214
  374MOL0     H50467   4.256   1.217   6.413  2.2840  3.4044 -0.8259
  374MOL0     H50468   4.343   1.247   6.706 -1.5305  0.5887 -0.3620
  374MOL0     H50469   4.386   1.121   6.606 -0.3749 -0.2480 -0.8922
  374MOL0     H50470   3.324   1.536   6.596  0.4103 -0.0998 -1.2724
  374MOL0     H50471   3.107   1.643   6.590 -1.0942 -1.1171  2.1847
  374MOL0     H50472   2.632   1.517   6.540  2.7677 -1.6885  1.3908
  374MOL0     H50473   2.416   1.626   6.539 -0.2148 -0.5483 -0.6689
  374MOL0     H50474   1.026   1.299   7.901  1.7996  0.7531 -1.7934
  374MOL0     H50475   0.775   1.305   7.899 -1.1560 -1.8495  0.3359
  374MOL0     H50476   0.447   1.240   7.888  0.2047  0.4619  0.2637
  374MOL0     H50477   0.219   1.280   7.967  2.0216  0.6003  1.2530
  374MOL0     H50478  -0.078   1.394   7.683 -1.0203  0.7234  0.0933
  374MOL0     H50479  -0.166   1.377   7.828  1.8367 -0.4432  0.7152
  374MOL0     H50480  -0.146   1.118   7.763  1.4293  3.0096  3.8255
  374MOL0     H50481  -0.148   1.184   7.605 -2.7561 -2.8884 -0.7858
  374MOL0     H50482  -0.359   1.311   7.637  0.2781  2.1024  2.3199
  374MOL0     H50483  -0.372   1.260   7.806 -0.6577  0.1841 -0.5561
  374MOL0     H50484  -0.352   1.054   7.575  0.6969 -2.6019  0.2516
  374MOL0     H50485  -0.396   1.039   7.757 -1.3452  2.1215  0.3084
  374MOL0     H50486  -0.773   1.157   7.659  0.0443 -0.0696  1.7119
  374MOL0     H50487   0.070   1.242   7.572 -0.7613 -1.2042  0.0437
  374MOL0     H50488   0.366   1.269   7.400  0.3925 -1.6923 -1.7219
  374MOL0     H50489   0.324   1.098   7.406  1.6396  0.7881  0.5194
  374MOL0     H50490   0.198   1.221   7.384 -0.9109 -2.9754 -0.0728
  375MOL0     O50491   3.402   6.104  10.765 -0.0727  0.5814  0.5071
  375MOL0     C50492   3.485   6.199  10.774 -0.0279  0.1360 -0.1711
  375MOL0     O50493   3.589   6.219  10.677  0.0041 -0.0731  0.8318
  375MOL0     C50494   3.587   6.139  10.567 -0.3288  0.4368  0.1095
  375MOL0     C50495   3.539   6.189  10.449  0.0025 -0.2969  0.6576
  375MOL0     C50496   3.532   6.102  10.333 -0.0906  0.7089 -0.6000
  375MOL0     C50497   3.581   5.976  10.332 -0.6165  0.3757  0.9860
  375MOL0     O50498   3.563   5.901  10.218 -0.3822  0.1119  0.0816
  375MOL0     C50499   3.530   5.765  10.240  0.7257  0.9374  0.2692
  375MOL0     C50500   3.449   5.713  10.117 -0.5536 -0.8554 -0.2176
  375MOL0     C50501   3.433   5.562  10.129  0.6110 -0.5123  0.4649
  375MOL0     C50502   3.402   5.512   9.988  0.1396 -1.0268  1.1368
  375MOL0     C50503   3.419   5.365   9.976  0.3798 -0.2341  0.2651
  375MOL0     C50504   3.563   5.318   9.981 -0.1888 -0.5448 -0.5621
  375MOL0     C50505   3.634   5.329   9.843  0.1325  0.9595 -0.5699
  375MOL0     C50506   3.782   5.293   9.845 -0.0262 -0.2014 -0.1930
  375MOL0     N50507   3.866   5.379   9.927 -0.1319  0.0423 -0.0995
  375MOL0     C50508   3.841   5.513   9.959 -0.4930  0.2808  0.3458
  375MOL0     C50509   3.925   5.541  10.058  0.6328 -0.3775  0.4631
  375MOL0     C50510   3.931   5.677  10.135 -0.4667  0.4275  0.0178
  375MOL0     C50511   3.971   5.659  10.283 -0.0566  0.3435 -0.2801
  375MOL0     C50512   3.994   5.797  10.337  0.7022  0.1604 -0.6231
  375MOL0     C50513   4.019   5.787  10.489 -0.4078 -0.5738 -0.3063
  375MOL0     O50514   4.146   5.730  10.538  0.2328  0.7496  0.5849
  375MOL0     C50515   4.254   5.807  10.532 -0.1336 -0.2981  0.8426
  375MOL0     C50516   4.374   5.762  10.592 -0.1015 -0.2990  0.5012
  375MOL0     C50517   4.490   5.835  10.579 -0.4200  0.2626  0.5296
  375MOL0     C50518   4.492   5.960  10.519 -0.3368  0.0457  0.0813
  375MOL0     C50519   4.618   6.042  10.521 -0.6845 -0.1510 -0.2844
  375MOL0     O50520   4.722   5.991  10.581 -0.1632 -0.4747 -0.1424
  375MOL0     C50521   4.824   6.075  10.623  0.2826 -0.0288  0.6905
  375MOL0     C50522   4.947   6.012  10.623  0.3978  0.1746  0.2489
  375MOL0     C50523   5.062   6.065  10.670 -0.1532 -0.1051  0.5955
  375MOL0     C50524   5.054   6.194  10.733 -0.7443 -0.2440 -0.1502
  375MOL0     O50525   5.161   6.257  10.786 -0.3405 -0.6263  0.0754
  375MOL0     C50526   5.257   6.183  10.857  0.3349 -0.2125 -0.0528
  375MOL0     C50527   5.331   6.279  10.933 -0.6358 -0.2518  0.4079
  375MOL0     C50528   5.439   6.212  11.013  1.1827  0.3575  1.0065
  375MOL0     C50529   5.491   6.330  11.112 -0.7821  0.0731 -0.2785
  375MOL0     C50530   5.627   6.298  11.191  0.3723  0.4568  0.0523
  375MOL0     C50531   5.747   6.279  11.092  0.9748  0.7273  0.2482
  375MOL0     C50532   5.879   6.247  11.158 -0.2005 -0.0865  0.4238
  375MOL0     C50533   5.939   6.366  11.232 -0.2296 -0.2445  0.2946
  375MOL0    Cl50534   6.083   6.316  11.313 -0.1145 -0.0214  0.1901
  375MOL0     C50535   4.929   6.259  10.738 -0.0243 -0.5444  0.5186
  375MOL0     C50536   4.818   6.203  10.686 -1.0217 -0.3587  0.2207
  375MOL0     O50537   4.613   6.153  10.472  0.1120  0.2084  0.4379
  375MOL0     C50538   4.374   6.010  10.462 -0.0511 -0.2646  0.1524
  375MOL0     C50539   4.259   5.931  10.468  0.3261 -0.2054  1.0350
  375MOL0     N50540   4.001   5.429  10.089  0.9946 -0.1538  0.0628
  375MOL0     N50541   3.964   5.331  10.017  0.1999  0.1430 -0.5724
  375MOL0     C50542   3.645   5.930  10.451 -0.0497  0.3674 -0.1872
  375MOL0     C50543   3.645   6.015  10.564 -0.6758  0.6734 -0.0081
  375MOL0     C50544   3.490   6.274  10.900  0.0477 -0.4068  0.8789
  375MOL0     C50545   3.612   6.303  10.964 -0.0157 -0.5067  0.2208
  375MOL0     C50546   3.620   6.380  11.081  0.3138 -0.6665  0.2450
  375MOL0     C50547   3.501   6.424  11.137  0.3598  0.3518  0.3715
  375MOL0     O50548   3.491   6.478  11.262  0.2250 -0.5978 -0.3233
  375MOL0     C50549   3.596   6.462  11.367 -0.0639  0.1671  0.5382
  375MOL0     C50550   3.547   6.519  11.491 -0.0199 -1.4830 -0.1474
  375MOL0     C50551   3.642   6.521  11.609 -0.3580  0.5455 -0.1481
  375MOL0     C50552   3.568   6.553  11.742 -0.7687 -0.1549 -0.0082
  375MOL0     C50553   3.660   6.573  11.859  1.0271  0.4953  0.1444
  375MOL0     C50554   3.737   6.560  11.945 -0.6062  0.2209 -0.5759
  375MOL0     C50555   3.384   6.406  11.071  0.2183 -0.0907 -0.2756
  375MOL0     C50556   3.371   6.333  10.950 -0.5508  0.3654 -0.3365
  375MOL0     C50557   3.239   6.337  10.873 -0.4473 -0.6510  0.4311
  375MOL0     H50558   3.495   6.288  10.453  0.0867 -0.1661 -1.0421
  375MOL0     H50559   3.475   6.142  10.250 -0.6366  1.8051  0.2759
  375MOL0     H50560   3.627   5.715  10.239  1.3112  1.9231  2.0620
  375MOL0     H50561   3.480   5.744  10.335 -2.7730  1.5255 -1.2955
  375MOL0     H50562   3.502   5.737  10.024 -1.0470 -0.0526 -0.2971
  375MOL0     H50563   3.354   5.766  10.103  0.4523  1.2190  0.4606
  375MOL0     H50564   3.347   5.535  10.191  2.1522 -2.7468  1.8204
  375MOL0     H50565   3.519   5.509  10.174 -0.8273 -2.7552  0.7456
  375MOL0     H50566   3.299   5.538   9.962  0.4639  3.0842  3.0777
  375MOL0     H50567   3.463   5.566   9.916 -2.1321 -1.3195 -1.1276
  375MOL0     H50568   3.368   5.313  10.058  1.4290  0.3201  1.2960
  375MOL0     H50569   3.371   5.339   9.881 -0.9519  1.4231  0.4378
  375MOL0     H50570   3.625   5.365  10.058 -0.1852 -1.4867  0.0174
  375MOL0     H50571   3.558   5.213  10.009 -1.6724 -0.2084  0.5026
  375MOL0     H50572   3.623   5.435   9.821 -3.2333  0.8435  0.0532
  375MOL0     H50573   3.587   5.274   9.760 -0.8476  3.2093 -1.5848
  375MOL0     H50574   3.787   5.187   9.874 -2.5628 -0.8666 -1.9252
  375MOL0     H50575   3.826   5.307   9.746 -1.6242  1.2609 -0.7314
  375MOL0     H50576   3.781   5.577   9.896  0.8784 -2.0778 -3.7373
  375MOL0     H50577   4.013   5.735  10.090  0.4049 -0.8376 -0.0765
  375MOL0     H50578   3.843   5.739  10.115 -0.7241 -0.8638 -3.6411
  375MOL0     H50579   3.886   5.603  10.324 -1.7764  0.3288 -3.5705
  375MOL0     H50580   4.065   5.608  10.307 -0.5231 -0.6141 -0.4304
  375MOL0     H50581   3.908   5.864  10.336  0.8707  0.4748  1.7168
  375MOL0     H50582   4.088   5.827  10.288 -0.5251  2.3119 -1.7736
  375MOL0     H50583   3.948   5.713  10.525  1.5380 -1.5128  1.8882
  375MOL0     H50584   3.996   5.881  10.542 -2.1798 -0.6196 -0.9228
  375MOL0     H50585   4.375   5.671  10.650 -2.7606 -0.2259  0.7742
  375MOL0     H50586   4.585   5.801  10.620  0.1276  0.9522 -0.1452
  375MOL0     H50587   4.967   5.922  10.566  1.1131  0.0819  0.6332
  375MOL0     H50588   5.155   6.011  10.658 -1.4585 -2.4784  0.5627
  375MOL0     H50589   5.209   6.119  10.932  1.2871 -0.2739  0.5212
  375MOL0     H50590   5.331   6.130  10.797  1.9455  0.4723  1.2618
  375MOL0     H50591   5.368   6.361  10.872  0.3875 -0.9358  0.0791
  375MOL0     H50592   5.268   6.330  11.007  0.1574 -0.1916  1.0652
  375MOL0     H50593   5.390   6.122  11.053 -0.2995 -0.1673 -1.7020
  375MOL0     H50594   5.511   6.177  10.939 -0.3638 -0.6094 -0.1249
  375MOL0     H50595   5.411   6.352  11.182 -0.2494  0.2976  0.2658
  375MOL0     H50596   5.509   6.423  11.058  0.9212  0.0956  0.2549
  375MOL0     H50597   5.613   6.201  11.241  4.3397 -1.9312 -2.8242
  375MOL0     H50598   5.645   6.374  11.267  2.1550 -1.2765  1.4503
  375MOL0     H50599   5.710   6.189  11.042  1.8109  0.0664  0.7779
  375MOL0     H50600   5.757   6.361  11.022  1.4667  1.8568  1.5905
  375MOL0     H50601   5.947   6.213  11.079  0.5876 -1.2790  1.5825
  375MOL0     H50602   5.877   6.159  11.223  1.4665 -0.2144  0.3304
  375MOL0     H50603   5.948   6.449  11.161 -1.0537 -0.7524 -0.4179
  375MOL0     H50604   5.871   6.404  11.309 -0.4625  0.6142 -0.3190
  375MOL0     H50605   4.933   6.365  10.761  0.3038 -0.1559 -1.1384
  375MOL0     H50606   4.721   6.252  10.695 -1.4650 -0.8706 -1.4721
  375MOL0     H50607   4.384   6.104  10.408 -0.0979 -0.6021 -0.4595
  375MOL0     H50608   4.177   5.981  10.417  0.4104  0.8136  1.8719
  375MOL0     H50609   3.702   5.838  10.458 -1.7401 -1.1200 -3.7537
  375MOL0     H50610   3.665   5.970  10.661 -0.2352 -3.8600 -1.9425
  375MOL0     H50611   3.704   6.260  10.927  0.6146  0.6721  0.3936
  375MOL0     H50612   3.714   6.406  11.130  0.9090  0.4100 -1.3585
  375MOL0     H50613   3.691   6.508  11.338  0.4361 -0.4239  1.2056
  375MOL0     H50614   3.615   6.356  11.383 -0.2023  0.0365 -0.1329
  375MOL0     H50615   3.465   6.454  11.521 -0.7097 -0.5079  0.1199
  375MOL0     H50616   3.522   6.625  11.477  0.7037 -0.8228  2.7746
  375MOL0     H50617   3.713   6.600  11.581  1.3216 -1.1690 -0.9409
  375MOL0     H50618   3.697   6.427  11.609  1.8627  1.6647  2.8847
  375MOL0     H50619   3.498   6.636  11.730 -0.2760  0.4596  1.2546
  375MOL0     H50620   3.513   6.461  11.763  0.9844 -1.6786 -1.6474
  375MOL0     H50621   3.810   6.542  12.021 -0.7844  0.7740 -0.2651
  375MOL0     H50622   3.299   6.453  11.118  1.4694 -1.9154  4.4296
  375MOL0     H50623   3.251   6.345  10.765 -2.1379  0.8980  0.2963
  375MOL0     H50624   3.182   6.246  10.893  1.9479 -1.6751  3.2032
  375MOL0     H50625   3.180   6.422  10.911 -0.0992  0.5425 -1.5553
  376MOL0     O50626  10.823   0.608   8.969 -0.6243 -0.2039  0.6475
  376MOL0     C50627  10.788   0.703   9.036  0.2736 -0.7161 -0.0313
  376MOL0     O50628  10.846   0.836   9.028  0.2710  0.1396  0.0132
  376MOL0     C50629  10.980   0.851   9.000  0.2198  0.1304 -0.1305
  376MOL0     C50630  11.060   0.932   9.087  0.8493  0.2516  0.4010
  376MOL0     C50631  11.193   0.941   9.056 -0.2275 -0.1796 -0.6881
  376MOL0     C50632  11.252   0.882   8.949  0.1505  0.5390 -0.3898
  376MOL0     O50633  11.390   0.901   8.938  0.0868 -0.0482 -0.1354
  376MOL0     C50634  11.472   0.863   8.832  0.0925  0.4262  0.7636
  376MOL0     C50635  11.613   0.924   8.857  0.5738  0.4291  0.0840
  376MOL0     C50636  11.717   0.883   8.747  0.3746  0.2270  0.2803
  376MOL0     C50637  11.862   0.924   8.796  0.7468  0.6271 -1.1777
  376MOL0     C50638  11.970   0.901   8.690 -0.2306  0.1348 -0.2689
  376MOL0     C50639  12.101   0.836   8.743 -0.9828  0.8945 -0.7356
  376MOL0     C50640  12.190   0.948   8.796 -0.0120  0.2335 -0.1879
  376MOL0     C50641  12.316   0.886   8.866 -0.1748 -0.1029 -0.3524
  376MOL0     N50642  12.399   0.808   8.774 -1.0838 -0.1127 -0.9556
  376MOL0     C50643  12.399   0.670   8.754 -0.1067 -0.5700 -0.0546
  376MOL0     C50644  12.495   0.653   8.672  0.4468 -0.1007  0.1461
  376MOL0     C50645  12.551   0.519   8.636  1.0698  0.0242  0.8532
  376MOL0     C50646  12.704   0.527   8.637 -0.4461  1.1495 -1.0165
  376MOL0     C50647  12.772   0.397   8.607  0.2724  1.2998 -0.3260
  376MOL0     C50648  12.762   0.377   8.458  0.4373  0.8824  0.2408
  376MOL0     O50649  12.854   0.467   8.392 -0.0655 -0.4464 -0.2031
  376MOL0     C50650  12.984   0.430   8.384 -0.3138 -0.8458  0.2805
  376MOL0     C50651  13.038   0.323   8.305 -0.4953  0.5475 -0.1615
  376MOL0     C50652  13.169   0.279   8.330  0.1088 -0.4033 -0.3606
  376MOL0     C50653  13.246   0.354   8.412  0.3436 -0.8130  0.0539
  376MOL0     C50654  13.391   0.318   8.432 -0.2949 -0.1147  0.5204
  376MOL0     O50655  13.436   0.212   8.363  0.4782  1.4328  0.0160
  376MOL0     C50656  13.554   0.154   8.394  0.5530 -1.1601 -0.4715
  376MOL0     C50657  13.624   0.112   8.283 -0.2118 -0.1399  0.0762
  376MOL0     C50658  13.750   0.058   8.307 -0.0593 -0.0075  1.2487
  376MOL0     C50659  13.794   0.024   8.436 -0.3610 -0.2080 -0.2461
  376MOL0     O50660  13.905  -0.047   8.469 -0.4603 -0.0001 -0.0030
  376MOL0     C50661  14.022  -0.028   8.390 -0.5336  0.2401 -0.1444
  376MOL0     C50662  14.131  -0.088   8.475 -0.4229  0.1817 -0.2242
  376MOL0     C50663  14.126  -0.237   8.488  0.8797 -0.2671  0.6379
  376MOL0     C50664  14.204  -0.313   8.372 -0.2521  0.1083  0.7107
  376MOL0     C50665  14.245  -0.450   8.420  0.3174  0.8008  0.6538
  376MOL0     C50666  14.323  -0.529   8.312 -0.9420  0.3402  0.8807
  376MOL0     C50667  14.480  -0.513   8.311 -0.6387  0.2308 -0.0497
  376MOL0     C50668  14.539  -0.551   8.179 -0.6831 -0.5090 -0.0515
  376MOL0    Cl50669  14.718  -0.560   8.163  0.0060  0.4732  0.7678
  376MOL0     C50670  13.715   0.057   8.544 -0.3373  0.3040 -0.2843
  376MOL0     C50671  13.596   0.126   8.522  0.3612 -0.1338  0.1748
  376MOL0     O50672  13.466   0.398   8.494  0.3882  0.3329  0.2173
  376MOL0     C50673  13.205   0.469   8.464  1.0195 -0.6799 -0.3316
  376MOL0     C50674  13.071   0.514   8.448 -0.1793  0.2120 -0.4842
  376MOL0     N50675  12.539   0.776   8.617  1.4056 -0.3209 -0.2156
  376MOL0     N50676  12.481   0.865   8.685  0.0526 -0.2785 -0.5956
  376MOL0     C50677  11.172   0.801   8.861 -0.2256  0.2824  0.5801
  376MOL0     C50678  11.033   0.790   8.887  0.4485  0.0269 -0.0816
  376MOL0     C50679  10.656   0.692   9.103 -0.0408 -0.5272  0.3805
  376MOL0     C50680  10.624   0.566   9.152 -0.5919 -0.1013 -0.3456
  376MOL0     C50681  10.495   0.535   9.188  1.2777 -1.0928 -0.5154
  376MOL0     C50682  10.400   0.636   9.195 -0.1314 -0.1590 -0.7752
  376MOL0     O50683  10.282   0.601   9.250  0.1767  0.3119  0.8784
  376MOL0     C50684  10.162   0.630   9.173  0.0219 -0.4280 -0.1880
  376MOL0     C50685  10.040   0.538   9.176 -0.2466  0.4288 -0.4391
  376MOL0     C50686  10.074   0.389   9.158 -0.0818 -0.0456  0.5975
  376MOL0     C50687   9.948   0.313   9.124 -0.4399  0.8714  0.3034
  376MOL0     C50688   9.984   0.176   9.086  0.7950 -0.3550  0.1036
  376MOL0     C50689   9.993   0.054   9.061 -0.3588 -0.5474  0.2120
  376MOL0     C50690  10.435   0.762   9.159 -0.1978 -0.2680 -0.6609
  376MOL0     C50691  10.560   0.788   9.106  0.7672 -0.2594  0.5102
  376MOL0     C50692  10.587   0.936   9.068 -0.6133 -0.2623  0.0427
  376MOL0     H50693  10.998   0.983   9.161  1.7800  2.7194 -0.4114
  376MOL0     H50694  11.245   1.010   9.123 -2.2333  3.4335 -2.5240
  376MOL0     H50695  11.471   0.754   8.824  0.4488  0.5512 -2.0265
  376MOL0     H50696  11.427   0.912   8.745  1.8946  0.4119 -0.2287
  376MOL0     H50697  11.647   0.896   8.957 -1.7731 -1.0200  0.5560
  376MOL0     H50698  11.605   1.032   8.870  0.3193  0.2032  2.1721
  376MOL0     H50699  11.694   0.940   8.657  0.1566 -0.1928  0.0675
  376MOL0     H50700  11.719   0.775   8.731  0.4478 -0.1027  2.3041
  376MOL0     H50701  11.860   1.032   8.815 -0.0064  0.1438  2.1616
  376MOL0     H50702  11.880   0.873   8.891 -0.7585  1.0385 -0.6525
  376MOL0     H50703  11.919   0.838   8.616  2.5629  1.0481 -3.1796
  376MOL0     H50704  12.004   0.994   8.644  2.5172  0.8520  2.8188
  376MOL0     H50705  12.066   0.761   8.815 -0.1029 -1.0607 -2.2549
  376MOL0     H50706  12.157   0.777   8.671  0.7020  1.1585  0.2991
  376MOL0     H50707  12.139   1.011   8.870  1.7641  0.8102  0.6039
  376MOL0     H50708  12.222   1.020   8.721  2.2041  0.7414  1.1495
  376MOL0     H50709  12.383   0.967   8.896 -1.0944 -0.1087  1.8948
  376MOL0     H50710  12.281   0.823   8.948 -0.7151 -1.0266 -1.2636
  376MOL0     H50711  12.337   0.596   8.804 -1.2796  1.1415  1.1022
  376MOL0     H50712  12.512   0.430   8.685 -0.7435 -2.3742 -4.2217
  376MOL0     H50713  12.531   0.502   8.530  1.3895  0.2100  0.7611
  376MOL0     H50714  12.747   0.610   8.579  1.4631 -1.4708 -3.7044
  376MOL0     H50715  12.738   0.554   8.737  1.0914  2.4307 -1.8315
  376MOL0     H50716  12.720   0.316   8.659  3.2003 -1.4486 -1.3034
  376MOL0     H50717  12.877   0.394   8.640 -0.2393 -0.8556  1.3171
  376MOL0     H50718  12.660   0.386   8.420 -0.1008  2.0377  1.8672
  376MOL0     H50719  12.783   0.274   8.428  0.2362  0.9340 -0.0802
  376MOL0     H50720  12.962   0.274   8.246 -0.5114 -1.2393  1.2511
  376MOL0     H50721  13.215   0.201   8.269  1.4489  0.3454 -0.3407
  376MOL0     H50722  13.595   0.122   8.179  3.9586 -0.5768 -1.3343
  376MOL0     H50723  13.810   0.028   8.222  0.6514 -2.0641  2.3882
  376MOL0     H50724  14.010  -0.089   8.300 -2.7055 -1.4460  1.1927
  376MOL0     H50725  14.037   0.078   8.364 -3.6010  0.6531 -0.6005
  376MOL0     H50726  14.230  -0.053   8.446 -0.7849  4.1271  2.6066
  376MOL0     H50727  14.127  -0.031   8.568  0.0910 -3.4261  2.2311
  376MOL0     H50728  14.174  -0.259   8.583  1.0475 -2.2422  0.1245
  376MOL0     H50729  14.023  -0.272   8.497  0.7502  0.5157  2.6769
  376MOL0     H50730  14.290  -0.251   8.344 -1.7968  1.3485 -1.5890
  376MOL0     H50731  14.139  -0.310   8.284  1.6176 -0.0707 -0.7353
  376MOL0     H50732  14.154  -0.505   8.445  2.0208 -3.6343 -1.8287
  376MOL0     H50733  14.309  -0.441   8.509 -1.0594 -0.4390  1.8363
  376MOL0     H50734  14.317  -0.636   8.333  1.9139  0.2239  1.5514
  376MOL0     H50735  14.281  -0.507   8.213  0.6273  4.0069  0.8745
  376MOL0     H50736  14.520  -0.587   8.381 -1.9144 -1.9929 -1.5178
  376MOL0     H50737  14.504  -0.411   8.341  2.4427 -0.5651  0.5818
  376MOL0     H50738  14.489  -0.643   8.145  0.2258  0.0694 -3.2982
  376MOL0     H50739  14.508  -0.473   8.109  0.5928  2.0348  2.0605
  376MOL0     H50740  13.746   0.027   8.644  0.2201  3.5640  0.6376
  376MOL0     H50741  13.525   0.143   8.602  1.7257 -1.4480  1.7425
  376MOL0     H50742  13.268   0.544   8.511  0.4183 -0.9515  0.9270
  376MOL0     H50743  13.040   0.607   8.496 -0.2584 -0.9764  1.9076
  376MOL0     H50744  11.217   0.750   8.776 -1.7252 -0.5612  0.2573
  376MOL0     H50745  10.962   0.747   8.817  0.4536  1.4511 -0.9987
  376MOL0     H50746  10.692   0.483   9.134  2.5953  2.0343  0.8675
  376MOL0     H50747  10.471   0.438   9.231 -0.9904 -0.3265  0.1155
  376MOL0     H50748  10.198   0.623   9.070  0.6864 -3.4587  0.1487
  376MOL0     H50749  10.129   0.728   9.208  0.9971 -0.3359  0.5244
  376MOL0     H50750   9.967   0.572   9.102 -0.0321  0.9918 -0.4015
  376MOL0     H50751   9.984   0.551   9.268 -1.4957 -1.9683 -0.8065
  376MOL0     H50752  10.108   0.340   9.250 -0.7434  0.7414  1.2748
  376MOL0     H50753  10.150   0.376   9.080 -0.9779 -2.5754  0.0725
  376MOL0     H50754   9.875   0.299   9.204 -1.0105  1.7611 -0.0424
  376MOL0     H50755   9.899   0.370   9.044 -1.2318 -0.2704 -0.0566
  376MOL0     H50756   9.998  -0.050   9.036  2.9096 -0.2301 -0.9724
  376MOL0     H50757  10.355   0.836   9.168 -0.2226 -0.5130  1.3752
  376MOL0     H50758  10.671   0.977   9.123  1.4870 -1.7214 -1.8912
  376MOL0     H50759  10.607   0.951   8.961 -3.6080  0.1772 -0.5467
  376MOL0     H50760  10.501   0.998   9.097  0.1938  0.6325  0.5639
  377MOL0     O50761   3.891   4.174   5.550 -1.0186  0.1150 -1.0175
  377MOL0     C50762   3.905   4.048   5.564 -0.8299 -0.7405  0.0544
  377MOL0     O50763   4.013   3.987   5.620 -0.0589  0.9498  0.1258
  377MOL0     C50764   4.106   4.062   5.686 -0.5025  0.7134  0.0186
  377MOL0     C50765   4.236   4.018   5.677 -0.1664 -0.2732  0.3372
  377MOL0     C50766   4.343   4.073   5.741 -0.5289 -0.8559 -0.7763
  377MOL0     C50767   4.318   4.190   5.817 -0.1983  0.0031  0.3343
  377MOL0     O50768   4.419   4.256   5.892  1.1687  0.0798 -0.0812
  377MOL0     C50769   4.547   4.196   5.913  0.3395  0.3496  1.0250
  377MOL0     C50770   4.635   4.308   5.971  0.5396 -0.4018 -0.0702
  377MOL0     C50771   4.786   4.273   5.980  0.6685 -1.7012  0.0992
  377MOL0     C50772   4.871   4.394   6.003 -0.0959 -0.3441  0.4843
  377MOL0     C50773   5.021   4.363   5.999 -0.2343  0.8056  0.1249
  377MOL0     C50774   5.073   4.301   6.125 -0.7985  0.2408 -0.9340
  377MOL0     C50775   5.228   4.324   6.139 -0.1324  0.1588 -0.1177
  377MOL0     C50776   5.304   4.248   6.030  1.2108  0.3133  0.0971
  377MOL0     N50777   5.447   4.262   6.043 -0.3192  0.3492 -0.4047
  377MOL0     C50778   5.528   4.373   6.011 -0.4861 -1.0015 -0.3645
  377MOL0     C50779   5.654   4.332   6.040  0.0134  0.3123  0.0942
  377MOL0     C50780   5.783   4.404   6.020 -0.0725  0.1056  0.0300
  377MOL0     C50781   5.894   4.329   5.963  0.0582 -0.2489  0.2195
  377MOL0     C50782   5.955   4.234   6.049 -0.0378 -0.3088 -0.7447
  377MOL0     C50783   6.086   4.191   5.989 -0.4199  0.2633  0.3842
  377MOL0     O50784   6.154   4.097   6.080 -0.2446  0.0469 -0.2868
  377MOL0     C50785   6.280   4.073   6.050 -0.2474  1.0410 -0.3139
  377MOL0     C50786   6.306   4.009   5.928  0.7464  0.0914  0.7913
  377MOL0     C50787   6.435   3.985   5.893 -0.1120 -0.1081 -0.6213
  377MOL0     C50788   6.541   4.025   5.979 -0.3509  0.6194 -0.6092
  377MOL0     C50789   6.685   4.014   5.947  0.2542  0.4657 -0.0669
  377MOL0     O50790   6.712   3.948   5.832 -0.2068 -0.2602  0.7450
  377MOL0     C50791   6.842   3.946   5.781 -0.3508  1.2350 -0.0597
  377MOL0     C50792   6.925   3.848   5.832 -1.1312 -0.0090 -0.3421
  377MOL0     C50793   7.059   3.856   5.800  0.5256  0.3872 -0.0807
  377MOL0     C50794   7.108   3.968   5.728 -0.1412  0.3422  0.3071
  377MOL0     O50795   7.247   3.976   5.713  0.0797  0.3806  0.6186
  377MOL0     C50796   7.314   4.080   5.638 -0.0954  0.2830 -0.5411
  377MOL0     C50797   7.470   4.059   5.632 -0.1558 -0.7630 -0.1735
  377MOL0     C50798   7.554   4.160   5.553 -0.7980 -0.2304 -0.4105
  377MOL0     C50799   7.531   4.159   5.396 -0.3687 -0.6709 -0.8526
  377MOL0     C50800   7.643   4.232   5.324 -0.0242  0.0823  0.6470
  377MOL0     C50801   7.638   4.210   5.170 -0.4457 -0.2277 -0.2549
  377MOL0     C50802   7.639   4.066   5.114 -0.1978  0.7811  0.7280
  377MOL0     C50803   7.742   3.978   5.169  0.9787  0.3717  0.1235
  377MOL0    Cl50804   7.897   4.047   5.131  0.2749 -0.1555  0.4539
  377MOL0     C50805   7.018   4.053   5.667  0.1112 -0.0079  0.6205
  377MOL0     C50806   6.888   4.052   5.700  0.9610  0.1718 -0.0230
  377MOL0     O50807   6.773   4.064   6.021  0.6927  0.6695 -0.2850
  377MOL0     C50808   6.503   4.100   6.100  0.2991  0.9780  0.2560
  377MOL0     C50809   6.378   4.114   6.138 -0.2042  0.0817  0.1235
  377MOL0     N50810   5.643   4.206   6.100 -0.0367  1.0716 -0.1171
  377MOL0     N50811   5.521   4.164   6.096  0.3082  0.1253  0.5882
  377MOL0     C50812   4.189   4.242   5.829  0.5115 -0.1353 -0.4591
  377MOL0     C50813   4.086   4.174   5.762  0.4490 -0.5655 -0.1897
  377MOL0     C50814   3.806   3.966   5.493 -0.8319 -0.7757 -0.7442
  377MOL0     C50815   3.684   4.029   5.460 -0.0943  0.5872 -0.6309
  377MOL0     C50816   3.584   3.962   5.397  0.2723  0.0575  0.4589
  377MOL0     C50817   3.588   3.828   5.370  0.0101  0.2101 -0.1042
  377MOL0     O50818   3.491   3.759   5.297 -0.0034  0.1371 -0.3576
  377MOL0     C50819   3.371   3.833   5.259 -0.2547 -1.0889 -0.3523
  377MOL0     C50820   3.279   3.732   5.210 -0.3149 -0.4057  0.6031
  377MOL0     C50821   3.285   3.709   5.057 -0.3563 -0.6011  0.2930
  377MOL0     C50822   3.187   3.808   4.975 -0.0828  0.2731 -0.2870
  377MOL0     C50823   3.060   3.742   4.953 -0.3330  0.2070  0.5196
  377MOL0     C50824   2.956   3.687   4.915  0.2880  1.4294 -0.1656
  377MOL0     C50825   3.701   3.754   5.426 -0.0438  0.7082  0.2459
  377MOL0     C50826   3.813   3.823   5.480 -0.3334  0.0658 -0.6697
  377MOL0     C50827   3.927   3.743   5.532  0.3585 -0.3161  0.4081
  377MOL0     H50828   4.257   3.928   5.620  2.7225  0.0353  0.7564
  377MOL0     H50829   4.439   4.023   5.747  0.0314  0.1799 -0.8175
  377MOL0     H50830   4.537   4.108   5.977  1.2857 -1.2166 -0.8525
  377MOL0     H50831   4.587   4.161   5.817 -2.9965  0.2764 -0.4949
  377MOL0     H50832   4.598   4.325   6.072  2.6335 -0.5600  0.7695
  377MOL0     H50833   4.627   4.403   5.917  2.0901 -1.8251 -3.1004
  377MOL0     H50834   4.824   4.227   5.888 -0.1373 -1.6849 -0.2537
  377MOL0     H50835   4.802   4.203   6.062 -2.9632 -1.6461  1.0469
  377MOL0     H50836   4.849   4.462   5.920 -2.7694  1.2125  2.2874
  377MOL0     H50837   4.846   4.456   6.090 -0.3565 -0.1152  0.2501
  377MOL0     H50838   5.043   4.297   5.914 -0.3962 -0.8355  1.3241
  377MOL0     H50839   5.073   4.459   5.987  2.0944 -0.4190 -0.3342
  377MOL0     H50840   5.035   4.342   6.219 -1.5478  2.1792 -2.0366
  377MOL0     H50841   5.046   4.195   6.123 -0.6465  0.2133 -2.4324
  377MOL0     H50842   5.253   4.274   6.233 -3.7765  1.2812  1.6032
  377MOL0     H50843   5.246   4.432   6.135  0.3426  0.0849 -0.0127
  377MOL0     H50844   5.290   4.139   6.029 -2.1150  0.6347 -0.0331
  377MOL0     H50845   5.274   4.297   5.937 -0.2436  0.7024  0.7344
  377MOL0     H50846   5.501   4.467   5.964 -2.1595 -1.0789  0.3832
  377MOL0     H50847   5.767   4.492   5.958  0.0032  0.6612  0.7815
  377MOL0     H50848   5.809   4.436   6.122  1.1482  1.5279 -0.6960
  377MOL0     H50849   5.859   4.284   5.870 -2.6801  1.1854  0.4739
  377MOL0     H50850   5.970   4.405   5.942 -1.9354  1.9769  0.6348
  377MOL0     H50851   5.885   4.151   6.061  0.5618 -0.7689 -0.3532
  377MOL0     H50852   5.980   4.275   6.147 -2.2191 -1.9524  0.5913
  377MOL0     H50853   6.142   4.285   5.983 -0.4598  0.2713  0.1248
  377MOL0     H50854   6.075   4.148   5.889  0.9857 -1.8391  1.0550
  377MOL0     H50855   6.220   3.979   5.869 -1.6060  2.7148  2.5623
  377MOL0     H50856   6.457   3.938   5.798  0.4654  0.8014 -0.9505
  377MOL0     H50857   6.884   3.768   5.892  1.1975 -1.2723 -0.3596
  377MOL0     H50858   7.128   3.778   5.830  1.6544  0.7956 -1.5214
  377MOL0     H50859   7.275   4.074   5.536 -0.7323  0.7947 -0.3296
  377MOL0     H50860   7.295   4.178   5.683  1.9392  1.2907 -1.7423
  377MOL0     H50861   7.500   4.069   5.736 -0.2935 -0.1230 -0.1907
  377MOL0     H50862   7.500   3.956   5.610 -0.7607 -1.0316  0.2436
  377MOL0     H50863   7.529   4.255   5.600  1.2051  0.1124  0.0823
  377MOL0     H50864   7.660   4.150   5.578 -0.4314  2.8549 -0.4488
  377MOL0     H50865   7.431   4.192   5.365 -1.3929 -3.0756 -0.3705
  377MOL0     H50866   7.546   4.052   5.377  0.7390 -0.5007 -1.0038
  377MOL0     H50867   7.736   4.184   5.354 -2.4019 -3.2968  3.3601
  377MOL0     H50868   7.643   4.339   5.346 -1.1774 -0.3224  2.8332
  377MOL0     H50869   7.553   4.258   5.121 -0.6770 -0.7209 -0.3403
  377MOL0     H50870   7.729   4.255   5.129 -0.9742  0.3036 -0.8607
  377MOL0     H50871   7.648   4.072   5.005 -2.6030  0.0298  0.4295
  377MOL0     H50872   7.538   4.026   5.123 -1.6081  3.4061 -1.7208
  377MOL0     H50873   7.723   3.972   5.276 -0.0633  1.1052  0.0015
  377MOL0     H50874   7.729   3.884   5.114  3.4224  0.2194 -0.3022
  377MOL0     H50875   7.059   4.126   5.598  2.2443 -0.4661  1.3539
  377MOL0     H50876   6.815   4.122   5.661 -0.6961 -0.0735  2.3653
  377MOL0     H50877   6.574   4.141   6.171  0.4851 -1.6665  1.7302
  377MOL0     H50878   6.347   4.169   6.226  0.5290  0.3947  0.1894
  377MOL0     H50879   4.186   4.329   5.894 -1.7489 -0.2712 -0.3205
  377MOL0     H50880   3.989   4.224   5.762 -0.6397 -2.5601  0.0735
  377MOL0     H50881   3.671   4.135   5.482 -2.7844 -0.1959  2.3314
  377MOL0     H50882   3.496   4.019   5.369  0.5511 -0.3504 -1.3797
  377MOL0     H50883   3.399   3.906   5.183  0.6075 -2.4532 -1.3938
  377MOL0     H50884   3.318   3.887   5.338  1.6188 -1.0256  0.9255
  377MOL0     H50885   3.176   3.765   5.231 -1.3674 -2.0911 -1.4520
  377MOL0     H50886   3.303   3.638   5.260  2.0468  0.4159  1.1329
  377MOL0     H50887   3.258   3.604   5.042  0.5231 -1.4776  3.8401
  377MOL0     H50888   3.390   3.719   5.029 -0.0231  4.6820  2.3055
  377MOL0     H50889   3.180   3.897   5.039  0.4084  0.0386  0.1020
  377MOL0     H50890   3.237   3.830   4.881 -1.2454 -0.0912 -1.0112
  377MOL0     H50891   2.873   3.631   4.877 -0.9529  3.1908 -0.1144
  377MOL0     H50892   3.700   3.648   5.405 -3.6103  1.1992 -3.5368
  377MOL0     H50893   3.950   3.762   5.637  2.4799 -0.1146 -0.0464
  377MOL0     H50894   3.914   3.636   5.515 -0.5761  0.1325 -2.1585
  377MOL0     H50895   4.020   3.778   5.486  1.2685 -1.7509  1.0621
  378MOL0     O50896   7.896   4.800   6.686  0.2458 -0.3926 -0.0383
  378MOL0     C50897   7.927   4.705   6.756  0.0436 -0.7505 -0.1902
  378MOL0     O50898   8.048   4.644   6.768 -0.1290  0.0886  0.2737
  378MOL0     C50899   8.159   4.728   6.760  0.9846 -0.2692 -0.2977
  378MOL0     C50900   8.190   4.819   6.867  0.1892  0.1800 -0.6171
  378MOL0     C50901   8.290   4.913   6.858 -0.5677 -0.2997  0.1072
  378MOL0     C50902   8.381   4.906   6.748 -0.2090 -0.9640  0.6027
  378MOL0     O50903   8.490   4.987   6.744 -0.5032 -0.2551  0.2045
  378MOL0     C50904   8.542   5.019   6.615 -0.6280  0.4242  0.4690
  378MOL0     C50905   8.627   5.151   6.647  0.2961 -0.3731 -0.0875
  378MOL0     C50906   8.630   5.240   6.520 -0.8901  0.3042  0.1767
  378MOL0     C50907   8.711   5.174   6.408  0.3147  0.0620  0.3815
  378MOL0     C50908   8.758   5.279   6.301  0.4740 -0.0389 -0.5600
  378MOL0     C50909   8.876   5.373   6.351 -0.3855  0.7790 -0.1244
  378MOL0     C50910   9.020   5.313   6.380  1.5548 -0.3210  0.0445
  378MOL0     C50911   9.049   5.202   6.278  0.1169  0.5173 -0.3801
  378MOL0     N50912   9.171   5.131   6.320 -0.5376  0.3893  0.3830
  378MOL0     C50913   9.296   5.141   6.251  0.3815  0.0119  0.3893
  378MOL0     C50914   9.390   5.100   6.332  0.2465  0.0049  0.0101
  378MOL0     C50915   9.540   5.114   6.304 -0.2295  0.8858 -0.6531
  378MOL0     C50916   9.592   4.976   6.242  1.2191  0.0257  0.0451
  378MOL0     C50917   9.664   5.008   6.111  0.7195 -0.6275 -0.1483
  378MOL0     C50918   9.684   4.892   6.024 -0.3325  0.0773 -1.2534
  378MOL0     O50919   9.742   4.789   6.106 -0.1434  0.3789  0.0101
  378MOL0     C50920   9.874   4.795   6.143  0.2032  0.4239  0.9154
  378MOL0     C50921   9.960   4.884   6.080  0.5038 -0.4562  0.2923
  378MOL0     C50922  10.099   4.893   6.115 -0.2976  0.0365  0.1522
  378MOL0     C50923  10.154   4.807   6.205 -0.4817 -0.6099  0.2251
  378MOL0     C50924  10.295   4.827   6.246 -0.4136 -1.4139 -0.2243
  378MOL0     O50925  10.374   4.917   6.176  0.4600 -0.1807 -0.6403
  378MOL0     C50926  10.506   4.934   6.209 -0.9194 -0.2566 -0.6335
  378MOL0     C50927  10.571   4.927   6.334  0.2516 -1.0572 -0.2514
  378MOL0     C50928  10.704   4.967   6.343  0.0836  0.1173  0.7727
  378MOL0     C50929  10.785   5.013   6.235  0.3854  0.5334  0.4345
  378MOL0     O50930  10.911   5.062   6.236 -0.4897 -0.3670 -0.0086
  378MOL0     C50931  10.945   5.157   6.339 -0.6412 -0.5737 -1.0779
  378MOL0     C50932  11.096   5.192   6.338  0.7590 -0.3590  0.0939
  378MOL0     C50933  11.131   5.275   6.220  0.2606 -0.8714  0.4519
  378MOL0     C50934  11.266   5.344   6.223  0.3842  0.5052 -0.1000
  378MOL0     C50935  11.301   5.449   6.328  0.4625  0.5064  0.4727
  378MOL0     C50936  11.191   5.558   6.334  0.2093 -0.1206 -0.4528
  378MOL0     C50937  11.227   5.665   6.433  0.1136 -0.0771  0.5832
  378MOL0     C50938  11.116   5.766   6.443  0.6418 -1.0119 -1.3284
  378MOL0    Cl50939  11.166   5.882   6.557  0.0964  0.3659  0.2745
  378MOL0     C50940  10.717   5.019   6.114  0.1307 -0.2360 -0.7394
  378MOL0     C50941  10.580   4.985   6.102  0.7031 -0.2018 -0.3872
  378MOL0     O50942  10.334   4.746   6.337 -0.4058 -0.8335  0.6541
  378MOL0     C50943  10.068   4.714   6.264  0.8652 -0.1135  0.2487
  378MOL0     C50944   9.927   4.705   6.241 -0.1863 -0.6554  1.2458
  378MOL0     N50945   9.329   5.055   6.447  0.0302  0.4595 -0.4770
  378MOL0     N50946   9.198   5.070   6.436 -0.4391 -0.1456 -0.2966
  378MOL0     C50947   8.361   4.808   6.651  0.8822 -0.7110  0.4895
  378MOL0     C50948   8.250   4.726   6.659  0.2802  0.1658 -0.6325
  378MOL0     C50949   7.819   4.639   6.828  0.8636 -0.3001 -0.0681
  378MOL0     C50950   7.756   4.534   6.764  0.4769 -0.1800  0.0428
  378MOL0     C50951   7.656   4.459   6.822  0.3440 -0.2592 -0.4871
  378MOL0     C50952   7.618   4.486   6.953  0.2776  0.3833  0.0305
  378MOL0     O50953   7.507   4.428   7.011 -0.2335 -0.0834 -0.6621
  378MOL0     C50954   7.400   4.370   6.943  1.1495 -0.4494 -0.5574
  378MOL0     C50955   7.287   4.479   6.975  0.0483  0.8137 -0.4654
  378MOL0     C50956   7.147   4.453   6.928 -0.6080 -0.7689 -0.1895
  378MOL0     C50957   7.048   4.564   6.978  0.6127  0.0250  0.3720
  378MOL0     C50958   6.918   4.555   6.912  0.6057  0.4190  1.0463
  378MOL0     C50959   6.805   4.554   6.871  0.3949  0.2022 -0.0087
  378MOL0     C50960   7.668   4.603   7.018 -0.3595 -0.5358  0.0307
  378MOL0     C50961   7.767   4.679   6.956 -0.3921 -0.1574 -1.2478
  378MOL0     C50962   7.819   4.804   7.039 -0.2540 -0.2072 -0.1707
  378MOL0     H50963   8.114   4.819   6.945 -0.5469  0.2300 -1.3235
  378MOL0     H50964   8.303   4.987   6.937 -2.7611 -0.9948  1.1976
  378MOL0     H50965   8.602   4.936   6.577  0.0346  0.7026  0.8765
  378MOL0     H50966   8.460   5.044   6.547 -0.2437  2.1117  0.5709
  378MOL0     H50967   8.727   5.115   6.670  0.7215  1.7654  1.6549
  378MOL0     H50968   8.589   5.193   6.740 -1.4893 -0.4236 -0.7525
  378MOL0     H50969   8.688   5.329   6.543  1.5441 -0.5174 -2.2135
  378MOL0     H50970   8.534   5.269   6.476 -0.8711  4.0723  2.1984
  378MOL0     H50971   8.794   5.116   6.450 -0.4641 -1.9479 -0.7363
  378MOL0     H50972   8.654   5.100   6.350  1.4092 -0.2314 -0.3547
  378MOL0     H50973   8.773   5.224   6.208 -2.7015 -0.1716 -1.1018
  378MOL0     H50974   8.674   5.346   6.279  0.7975  0.1620 -1.1867
  378MOL0     H50975   8.872   5.452   6.275  0.9657  0.0085 -1.0358
  378MOL0     H50976   8.851   5.428   6.442  2.8741  1.5862  0.4172
  378MOL0     H50977   9.009   5.274   6.482 -1.1230  0.2090  0.0362
  378MOL0     H50978   9.088   5.399   6.382 -0.2542  1.1972 -0.6745
  378MOL0     H50979   8.963   5.134   6.284  0.5024  0.1614  3.7456
  378MOL0     H50980   9.059   5.241   6.176  1.3764  0.7861 -0.1686
  378MOL0     H50981   9.304   5.176   6.148  1.7745 -1.7267 -0.1379
  378MOL0     H50982   9.555   5.195   6.232 -0.9855  0.7666 -0.9627
  378MOL0     H50983   9.599   5.144   6.392  0.1953 -2.8552  0.5049
  378MOL0     H50984   9.655   4.933   6.321 -0.4790 -1.5886  0.6069
  378MOL0     H50985   9.505   4.913   6.223  0.3596  1.5836 -1.5258
  378MOL0     H50986   9.762   5.045   6.143 -0.2113  0.6093  1.4365
  378MOL0     H50987   9.616   5.088   6.053  1.4720 -0.2557 -0.2694
  378MOL0     H50988   9.736   4.915   5.931  0.7296  0.1268 -0.6750
  378MOL0     H50989   9.580   4.870   6.001 -0.9447  0.2456  1.0573
  378MOL0     H50990   9.934   4.951   6.000 -2.8362 -2.3928 -0.4132
  378MOL0     H50991  10.160   4.966   6.063  0.8644 -0.5688  0.6277
  378MOL0     H50992  10.521   4.892   6.423 -0.7455 -2.9035 -1.4765
  378MOL0     H50993  10.765   4.957   6.433 -1.1108  0.7353  1.6882
  378MOL0     H50994  10.883   5.246   6.331 -0.0740 -0.1153 -0.5314
  378MOL0     H50995  10.929   5.117   6.440 -0.2672 -2.7125 -1.8196
  378MOL0     H50996  11.119   5.253   6.425  0.8414  0.3377 -0.4089
  378MOL0     H50997  11.152   5.098   6.344 -0.8988 -1.3646  0.5420
  378MOL0     H50998  11.131   5.206   6.135 -1.8165  0.0308 -0.3467
  378MOL0     H50999  11.060   5.357   6.208  0.9017 -0.2540  0.7978
  378MOL0     H51000  11.276   5.381   6.121  0.6467  0.5702 -0.0526
  378MOL0     H51001  11.340   5.264   6.229  0.7891  0.9643  1.5961
  378MOL0     H51002  11.395   5.496   6.298  1.2209 -1.9111 -1.2290
  378MOL0     H51003  11.307   5.385   6.417 -3.4940  0.6971  1.0304
  378MOL0     H51004  11.165   5.605   6.238 -4.0827  0.4441  0.7727
  378MOL0     H51005  11.100   5.513   6.373  0.7787 -0.3103  0.6878
  378MOL0     H51006  11.314   5.718   6.393 -0.7456  1.0039  0.0863
  378MOL0     H51007  11.245   5.618   6.530 -0.5088  0.4731  0.9746
  378MOL0     H51008  11.115   5.825   6.351  1.2309  2.5731  0.7801
  378MOL0     H51009  11.018   5.723   6.467  0.9504 -0.7271  0.6865
  378MOL0     H51010  10.783   5.054   6.035  1.4978 -0.1683  0.3893
  378MOL0     H51011  10.533   4.995   6.004 -3.3195 -1.8592  1.1512
  378MOL0     H51012  10.108   4.652   6.343 -2.6701 -0.8357  1.6464
  378MOL0     H51013   9.876   4.621   6.288  1.6418 -0.6780  3.4046
  378MOL0     H51014   8.420   4.816   6.560  0.2670  3.4332  0.2519
  378MOL0     H51015   8.233   4.658   6.576 -0.4114 -0.8661  0.3235
  378MOL0     H51016   7.791   4.506   6.665  0.9182  0.5873 -0.0251
  378MOL0     H51017   7.627   4.369   6.769  0.4710 -0.7839  0.3123
  378MOL0     H51018   7.380   4.276   6.994  0.7405  0.7784  1.6430
  378MOL0     H51019   7.414   4.357   6.835 -2.6244 -0.9769 -1.1210
  378MOL0     H51020   7.325   4.571   6.929  1.5549 -0.3237 -1.5644
  378MOL0     H51021   7.283   4.487   7.084  3.9753 -2.2199  0.1156
  378MOL0     H51022   7.110   4.355   6.960  2.1672 -3.3237 -3.9821
  378MOL0     H51023   7.147   4.455   6.819  2.6227  3.1243 -0.3486
  378MOL0     H51024   7.040   4.561   7.087 -1.2974  0.8326  0.2995
  378MOL0     H51025   7.097   4.654   6.940  0.3835 -0.4549 -1.1299
  378MOL0     H51026   6.711   4.544   6.822  0.7740  1.2970 -0.9822
  378MOL0     H51027   7.624   4.625   7.114 -0.4937  0.1316 -0.1781
  378MOL0     H51028   7.925   4.814   7.014  0.7180 -2.1762  2.6330
  378MOL0     H51029   7.757   4.887   7.003  1.0733  1.0954  0.4297
  378MOL0     H51030   7.803   4.802   7.147 -1.3232 -0.5169 -0.3243
  379MOL0     O51031   0.445   4.277   7.308  0.0581 -0.0494  0.3938
  379MOL0     C51032   0.473   4.255   7.424  0.5272 -0.4024 -0.0439
  379MOL0     O51033   0.600   4.276   7.475  0.2433 -0.1696  0.3391
  379MOL0     C51034   0.702   4.318   7.398  0.2863  0.1480  0.3045
  379MOL0     C51035   0.824   4.323   7.468  0.3559  0.6332 -1.1158
  379MOL0     C51036   0.936   4.388   7.416  0.5672 -0.0492 -0.5858
  379MOL0     C51037   0.926   4.463   7.300 -0.0828 -0.5314 -0.3352
  379MOL0     O51038   1.026   4.547   7.259  1.1140 -0.4359  0.1273
  379MOL0     C51039   0.987   4.680   7.236 -0.7838 -0.4651  0.1168
  379MOL0     C51040   1.042   4.738   7.107 -0.5386  1.1596 -0.0505
  379MOL0     C51041   1.007   4.876   7.070 -0.8893  0.3958  0.0282
  379MOL0     C51042   1.100   4.929   6.955  0.7359 -0.3122 -0.5828
  379MOL0     C51043   1.041   5.059   6.904  0.3122  0.4018  0.5466
  379MOL0     C51044   1.096   5.080   6.757  0.4227 -0.1201  0.0806
  379MOL0     C51045   1.055   5.226   6.713  0.8047  0.2493 -0.4695
  379MOL0     C51046   1.102   5.267   6.568 -0.4041  0.5113 -0.0486
  379MOL0     N51047   1.247   5.253   6.549 -0.1027  0.8166 -0.6228
  379MOL0     C51048   1.331   5.358   6.557 -0.6329  0.8414 -0.5848
  379MOL0     C51049   1.458   5.311   6.533 -0.0410  0.2767 -0.5776
  379MOL0     C51050   1.590   5.379   6.518 -0.9191  0.5822  0.2734
  379MOL0     C51051   1.704   5.285   6.572  0.5293  0.3060  0.7876
  379MOL0     C51052   1.841   5.349   6.541 -0.8109  0.1982 -0.9948
  379MOL0     C51053   1.952   5.242   6.510  0.3098  0.8549  0.0638
  379MOL0     O51054   1.996   5.200   6.641 -0.2764  0.4126 -0.5196
  379MOL0     C51055   2.130   5.180   6.657 -0.7026  0.3489  0.2245
  379MOL0     C51056   2.177   5.079   6.748  0.0745 -0.3207  0.0814
  379MOL0     C51057   2.315   5.049   6.755  0.5042  0.2467 -0.2270
  379MOL0     C51058   2.409   5.133   6.703 -0.2643 -0.3637 -1.5352
  379MOL0     C51059   2.561   5.124   6.725 -1.0488  0.7363 -0.4405
  379MOL0     O51060   2.631   5.240   6.699 -0.2229  0.2124  0.2121
  379MOL0     C51061   2.763   5.222   6.691 -0.9649  0.8859  0.4025
  379MOL0     C51062   2.824   5.183   6.569 -0.2952  0.0085 -0.5514
  379MOL0     C51063   2.958   5.165   6.549 -0.0566  0.6321  0.4800
  379MOL0     C51064   3.039   5.163   6.663 -0.6969  0.0706  0.9395
  379MOL0     O51065   3.170   5.125   6.656  0.0737  0.0319  0.5720
  379MOL0     C51066   3.232   5.109   6.521  0.2096 -0.1924  0.3345
  379MOL0     C51067   3.349   5.013   6.534 -0.5854  0.3389  0.2583
  379MOL0     C51068   3.469   5.064   6.616  0.0672  0.0417  0.9294
  379MOL0     C51069   3.579   4.955   6.630 -0.4454  0.5085 -0.4445
  379MOL0     C51070   3.687   5.017   6.715 -0.4277 -0.0941 -0.0005
  379MOL0     C51071   3.800   4.923   6.758  0.1712 -0.2485 -0.6693
  379MOL0     C51072   3.904   5.004   6.833  0.2013 -0.0649  0.8973
  379MOL0     C51073   4.010   4.917   6.896 -0.0722  0.7068  0.2172
  379MOL0    Cl51074   3.947   4.773   6.970 -0.2813  0.1988  0.2718
  379MOL0     C51075   2.985   5.199   6.792  0.1948  0.1402 -0.4427
  379MOL0     C51076   2.850   5.227   6.805 -0.1152  0.3604  0.3258
  379MOL0     O51077   2.614   5.016   6.762  0.1252 -0.1634 -0.5297
  379MOL0     C51078   2.361   5.244   6.622  0.1608  0.2103  0.5255
  379MOL0     C51079   2.223   5.255   6.584 -0.4200  0.0898 -0.1332
  379MOL0     N51080   1.442   5.173   6.502  0.2851  0.4426  0.8246
  379MOL0     N51081   1.314   5.136   6.513  0.2964  0.2781 -0.1217
  379MOL0     C51082   0.814   4.442   7.223  0.1541  0.5196  0.0528
  379MOL0     C51083   0.702   4.369   7.262  0.7094  1.4524 -0.0342
  379MOL0     C51084   0.355   4.201   7.497 -0.5017 -0.1336  0.2472
  379MOL0     C51085   0.386   4.132   7.613 -0.3385 -0.7740  0.4886
  379MOL0     C51086   0.280   4.091   7.696  0.6004 -0.0092 -0.4821
  379MOL0     C51087   0.139   4.116   7.670  0.5656 -0.5472 -0.8741
  379MOL0     O51088   0.053   4.087   7.776  0.5673  0.0583  0.3029
  379MOL0     C51089  -0.086   4.103   7.746 -0.1596  0.7657 -0.1911
  379MOL0     C51090  -0.176   4.027   7.843  0.7491 -0.0689 -0.3725
  379MOL0     C51091  -0.135   3.875   7.829  0.0555  0.6459 -0.6509
  379MOL0     C51092  -0.225   3.772   7.906  0.3393  0.1317  0.0186
  379MOL0     C51093  -0.181   3.636   7.868 -0.9206 -0.1496  0.6753
  379MOL0     C51094  -0.148   3.523   7.837  0.6546 -0.2368 -0.6591
  379MOL0     C51095   0.116   4.192   7.552  0.0911  0.3067 -0.4452
  379MOL0     C51096   0.216   4.237   7.467  0.2165  0.6070  0.3025
  379MOL0     C51097   0.178   4.302   7.337 -0.4233  0.2403 -0.7872
  379MOL0     H51098   0.831   4.311   7.576 -1.2166  1.8085 -0.8443
  379MOL0     H51099   1.014   4.400   7.490 -2.1587  1.0254  2.3461
  379MOL0     H51100   0.879   4.693   7.243 -0.8170 -0.4378 -0.4284
  379MOL0     H51101   1.019   4.738   7.323 -0.9375 -0.5196  0.2081
  379MOL0     H51102   1.007   4.671   7.027  0.0271  2.0796 -1.0915
  379MOL0     H51103   1.150   4.724   7.096 -0.4069  1.4486  0.8119
  379MOL0     H51104   1.004   4.956   7.145 -1.9647  1.1543 -0.7910
  379MOL0     H51105   0.903   4.874   7.033 -0.8190  4.4181 -0.9392
  379MOL0     H51106   1.196   4.956   7.000 -0.7225  1.7932  1.4510
  379MOL0     H51107   1.113   4.851   6.879 -2.6207 -1.3447 -0.2360
  379MOL0     H51108   0.932   5.054   6.908  0.2961  0.8184  0.6108
  379MOL0     H51109   1.059   5.139   6.976 -1.2994 -0.7438  2.2995
  379MOL0     H51110   1.205   5.070   6.756  0.4702  0.0100  1.5147
  379MOL0     H51111   1.051   5.006   6.689  3.7518 -2.4487  0.1811
  379MOL0     H51112   1.101   5.288   6.791  1.1197 -0.4558 -0.0867
  379MOL0     H51113   0.948   5.244   6.730  1.2597  2.3892  0.4236
  379MOL0     H51114   1.042   5.223   6.487 -1.1243  3.0536 -1.0166
  379MOL0     H51115   1.092   5.376   6.560 -1.9309  0.4234  0.2575
  379MOL0     H51116   1.305   5.463   6.563  2.3998  1.8559 -2.6747
  379MOL0     H51117   1.605   5.412   6.415  0.5893 -0.5930  0.0719
  379MOL0     H51118   1.595   5.463   6.588  2.9030  2.1478 -1.5827
  379MOL0     H51119   1.696   5.261   6.679 -0.3404 -0.9844  0.4661
  379MOL0     H51120   1.706   5.185   6.526  1.4125  0.1835  1.0731
  379MOL0     H51121   1.869   5.416   6.624 -2.3011  0.3304 -0.5647
  379MOL0     H51122   1.832   5.417   6.456  2.3056 -0.0305 -1.6393
  379MOL0     H51123   2.027   5.292   6.447  2.6908 -1.4259  0.8857
  379MOL0     H51124   1.904   5.159   6.458 -1.1594  0.7806  1.4639
  379MOL0     H51125   2.111   5.013   6.802  1.5894 -2.2937 -0.3526
  379MOL0     H51126   2.348   4.963   6.813  2.0578  0.8529 -0.1690
  379MOL0     H51127   2.757   5.159   6.486  1.6812  3.0825 -3.2893
  379MOL0     H51128   2.981   5.130   6.449  3.1363  1.2449  0.9146
  379MOL0     H51129   3.166   5.051   6.456 -1.1841  2.0809 -0.4005
  379MOL0     H51130   3.266   5.202   6.474  2.1132 -0.4962  1.0370
  379MOL0     H51131   3.321   4.925   6.592  0.0560  0.7415  1.2084
  379MOL0     H51132   3.390   4.973   6.441 -0.3046  3.9987 -1.3698
  379MOL0     H51133   3.499   5.149   6.553 -3.8172  1.7510  1.1440
  379MOL0     H51134   3.428   5.113   6.704 -1.5201  1.2994 -0.4344
  379MOL0     H51135   3.618   4.933   6.530  1.0872 -0.5288  0.3431
  379MOL0     H51136   3.532   4.866   6.673 -0.6907  0.2456 -1.2287
  379MOL0     H51137   3.642   5.066   6.802 -0.7358  0.8865 -0.6785
  379MOL0     H51138   3.727   5.103   6.659 -0.5517  0.0577  0.1418
  379MOL0     H51139   3.761   4.846   6.825  2.1960 -1.1576 -0.4478
  379MOL0     H51140   3.843   4.870   6.672  0.3647 -0.3900 -0.4854
  379MOL0     H51141   3.851   5.052   6.916 -1.4492 -2.2821  1.2347
  379MOL0     H51142   3.944   5.075   6.760  3.2946 -4.8941 -2.7978
  379MOL0     H51143   4.079   4.880   6.820  1.8369  2.4545  1.0148
  379MOL0     H51144   4.073   4.978   6.962  2.5727 -0.5211 -1.0144
  379MOL0     H51145   3.049   5.200   6.880  0.0318 -1.3020 -0.2968
  379MOL0     H51146   2.816   5.244   6.907 -0.6477 -0.1979  0.2470
  379MOL0     H51147   2.436   5.302   6.570  0.8301 -1.1667 -0.0899
  379MOL0     H51148   2.196   5.340   6.523  1.5316  0.5042 -0.4727
  379MOL0     H51149   0.816   4.493   7.128 -1.0536 -1.7207 -1.2568
  379MOL0     H51150   0.614   4.371   7.198  0.2043  4.1742  0.6157
  379MOL0     H51151   0.490   4.130   7.644  0.4265  0.1664 -1.8111
  379MOL0     H51152   0.285   4.045   7.794  1.1662 -2.7317 -1.6890
  379MOL0     H51153  -0.108   4.073   7.643  1.9901  1.2090 -0.8238
  379MOL0     H51154  -0.111   4.208   7.759 -1.3995  0.8123 -2.4029
  379MOL0     H51155  -0.285   4.034   7.831 -0.0180 -2.2431  3.5156
  379MOL0     H51156  -0.162   4.059   7.947  1.7629  0.1439 -0.5681
  379MOL0     H51157  -0.033   3.867   7.869 -0.0074  0.1896 -0.5741
  379MOL0     H51158  -0.139   3.852   7.722  1.2921  3.3405 -1.3768
  379MOL0     H51159  -0.217   3.782   8.014 -1.3909 -2.0533  0.4193
  379MOL0     H51160  -0.332   3.771   7.885  0.2670 -1.9619  0.2421
  379MOL0     H51161  -0.114   3.430   7.796  3.5801  0.9430 -1.1619
  379MOL0     H51162   0.013   4.223   7.539 -1.0203 -1.5088  2.7868
  379MOL0     H51163   0.230   4.395   7.313  0.6742  0.3768  1.8112
  379MOL0     H51164   0.199   4.233   7.255 -0.0440 -1.7064  0.8580
  379MOL0     H51165   0.071   4.327   7.334 -0.0443  2.0745 -0.4192
  380MOL0     O51166   6.581   3.468   7.917 -0.0626 -0.2243 -0.2476
  380MOL0     C51167   6.525   3.428   7.807 -0.6716  0.4717 -0.8576
  380MOL0     O51168   6.583   3.427   7.680 -0.4522  0.4694  0.4588
  380MOL0     C51169   6.708   3.483   7.659  0.2104  1.4934 -0.3860
  380MOL0     C51170   6.716   3.594   7.574 -0.6239 -0.7055  0.9023
  380MOL0     C51171   6.843   3.650   7.555  0.3285 -0.0367  0.5902
  380MOL0     C51172   6.962   3.591   7.602  0.2401  0.1277  0.3776
  380MOL0     O51173   7.084   3.644   7.557  0.4330 -0.3066  0.0674
  380MOL0     C51174   7.194   3.553   7.543  0.6480  0.2648  0.4487
  380MOL0     C51175   7.295   3.604   7.431 -0.6988 -0.6546 -0.2298
  380MOL0     C51176   7.411   3.706   7.477  0.3091 -0.0129  0.0287
  380MOL0     C51177   7.505   3.737   7.359 -0.6847  0.5586  0.6466
  380MOL0     C51178   7.653   3.741   7.408  0.6430  0.3665 -0.1246
  380MOL0     C51179   7.734   3.755   7.280  0.2895 -0.3892  0.0744
  380MOL0     C51180   7.882   3.720   7.284  0.7198 -0.1216 -0.1957
  380MOL0     C51181   7.901   3.570   7.302 -0.4862  0.4204  0.5830
  380MOL0     N51182   8.046   3.542   7.302  0.7537  0.3378  0.0802
  380MOL0     C51183   8.122   3.494   7.409  1.3327 -0.5753 -0.5858
  380MOL0     C51184   8.235   3.440   7.352  1.0850 -0.4021 -0.4236
  380MOL0     C51185   8.344   3.362   7.416 -0.4329 -0.2381  0.6168
  380MOL0     C51186   8.479   3.370   7.340 -0.0986  0.9698 -0.0114
  380MOL0     C51187   8.539   3.513   7.364  0.4575  0.2247  0.1223
  380MOL0     C51188   8.643   3.535   7.261 -0.7807 -0.1415  0.7921
  380MOL0     O51189   8.673   3.672   7.245 -0.3210  0.7574  0.4924
  380MOL0     C51190   8.804   3.717   7.237 -0.2247  0.0639  0.3990
  380MOL0     C51191   8.880   3.727   7.121  0.2156 -0.0701  0.3728
  380MOL0     C51192   9.010   3.769   7.123  0.5057 -0.0345 -0.1375
  380MOL0     C51193   9.077   3.795   7.252  0.2959  0.4468 -0.3499
  380MOL0     C51194   9.214   3.837   7.264  0.8048  0.1545  0.7227
  380MOL0     O51195   9.271   3.820   7.392 -0.4199  0.6524  0.4520
  380MOL0     C51196   9.401   3.850   7.417  0.2696  0.5021 -0.0032
  380MOL0     C51197   9.424   3.952   7.508 -0.2559 -0.1712 -0.6745
  380MOL0     C51198   9.558   3.982   7.536  0.1664  0.0880 -0.2015
  380MOL0     C51199   9.672   3.931   7.464 -0.9604  0.2977 -0.9901
  380MOL0     O51200   9.793   3.984   7.508  0.2699  0.5398 -0.0517
  380MOL0     C51201   9.914   3.926   7.460  0.1351  0.5864  0.4177
  380MOL0     C51202   9.940   3.792   7.537  0.3762 -0.5110  0.3025
  380MOL0     C51203   9.967   3.675   7.450 -1.0251  0.4532 -0.4029
  380MOL0     C51204  10.000   3.556   7.538  0.4110 -0.0642 -0.0447
  380MOL0     C51205   9.889   3.490   7.618  0.0096 -0.3787 -0.1335
  380MOL0     C51206   9.934   3.374   7.705  0.6317  0.4473  0.9565
  380MOL0     C51207   9.831   3.336   7.819 -0.2169 -0.3040 -0.4561
  380MOL0     C51208   9.898   3.250   7.927  0.3921 -0.6459  0.4074
  380MOL0    Cl51209   9.929   3.078   7.881  0.4657 -0.0688  0.2856
  380MOL0     C51210   9.643   3.821   7.379 -0.5531 -1.0654 -0.6939
  380MOL0     C51211   9.510   3.793   7.350 -0.3060  0.5623 -0.0970
  380MOL0     O51212   9.280   3.867   7.164  0.4303  0.1661  0.0016
  380MOL0     C51213   9.004   3.769   7.369 -0.2172  0.1047  0.5697
  380MOL0     C51214   8.866   3.740   7.359 -1.1729 -0.2081  0.3992
  380MOL0     N51215   8.226   3.460   7.216  0.1723 -0.3370  0.3706
  380MOL0     N51216   8.120   3.541   7.191 -0.8449  0.2597  0.2974
  380MOL0     C51217   6.946   3.483   7.687 -0.2004  0.1095  0.6752
  380MOL0     C51218   6.825   3.424   7.713 -0.6249 -0.0269 -0.4709
  380MOL0     C51219   6.394   3.361   7.821  0.0826  0.1644  0.3285
  380MOL0     C51220   6.363   3.260   7.733 -0.1258  0.0792 -0.4317
  380MOL0     C51221   6.240   3.204   7.735  0.2182  0.1382 -0.0127
  380MOL0     C51222   6.151   3.220   7.838 -0.3760  0.4063 -0.2378
  380MOL0     O51223   6.026   3.173   7.842 -0.0631  0.1921  0.5583
  380MOL0     C51224   5.983   3.065   7.765 -0.4085 -0.0523 -0.0123
  380MOL0     C51225   5.939   3.112   7.623  1.2249  1.3891  1.1325
  380MOL0     C51226   5.875   2.998   7.532 -0.3785  0.1309  1.0904
  380MOL0     C51227   5.829   3.044   7.393 -0.8093 -0.0984  0.5345
  380MOL0     C51228   5.941   3.118   7.327 -0.2008  0.1586  0.0568
  380MOL0     C51229   6.029   3.180   7.268 -0.4187 -0.7291 -0.4868
  380MOL0     C51230   6.189   3.304   7.944  1.0616 -0.2241 -0.9250
  380MOL0     C51231   6.307   3.380   7.937  0.5446  0.8914 -0.1147
  380MOL0     C51232   6.305   3.494   8.033 -0.3922  0.0994  0.0371
  380MOL0     H51233   6.627   3.647   7.544 -0.3398 -0.2525  0.8575
  380MOL0     H51234   6.855   3.746   7.504 -1.5666 -0.2026 -0.2559
  380MOL0     H51235   7.243   3.539   7.640 -0.0979 -0.2599  0.7585
  380MOL0     H51236   7.156   3.459   7.501  1.5203 -0.5237  1.3582
  380MOL0     H51237   7.229   3.644   7.353  0.2048 -0.5022 -0.9331
  380MOL0     H51238   7.351   3.520   7.390 -0.3933 -0.4655 -0.2073
  380MOL0     H51239   7.464   3.651   7.555 -0.9104 -1.1518  0.0956
  380MOL0     H51240   7.366   3.795   7.521  0.4853  1.3090 -2.3266
  380MOL0     H51241   7.495   3.667   7.276  0.9178  1.6988 -0.5756
  380MOL0     H51242   7.474   3.831   7.312 -2.6143  0.0344  0.7979
  380MOL0     H51243   7.659   3.837   7.460 -2.6408  1.3276 -1.2835
  380MOL0     H51244   7.681   3.652   7.466 -0.9257 -1.4985 -2.0654
  380MOL0     H51245   7.691   3.695   7.200  0.8467  1.9428 -2.0930
  380MOL0     H51246   7.730   3.855   7.236  0.6711 -0.5807 -0.3998
  380MOL0     H51247   7.922   3.786   7.361 -2.1596  1.7146 -0.1468
  380MOL0     H51248   7.939   3.747   7.194 -0.9311 -5.0738 -3.1185
  380MOL0     H51249   7.857   3.523   7.390  0.5439 -1.3816  0.1813
  380MOL0     H51250   7.858   3.513   7.219  1.9323 -3.1645  1.5555
  380MOL0     H51251   8.097   3.508   7.514 -0.6086  2.2957 -1.3047
  380MOL0     H51252   8.361   3.383   7.522 -4.0039  1.6500  0.9861
  380MOL0     H51253   8.307   3.260   7.409 -2.2008  0.3258  1.1729
  380MOL0     H51254   8.546   3.296   7.386 -0.4244  1.2830  1.0004
  380MOL0     H51255   8.467   3.336   7.237  1.2185 -0.4357  0.2546
  380MOL0     H51256   8.579   3.523   7.466 -1.0430 -0.1660  0.7859
  380MOL0     H51257   8.459   3.587   7.353 -1.0263 -1.7178 -3.8932
  380MOL0     H51258   8.604   3.497   7.166  1.6105  2.9627 -1.6613
  380MOL0     H51259   8.739   3.484   7.276  0.2541  1.2936 -0.5335
  380MOL0     H51260   8.824   3.702   7.031 -1.6407  0.4652  1.3231
  380MOL0     H51261   9.061   3.790   7.030  0.9049 -1.1832 -0.1923
  380MOL0     H51262   9.335   3.979   7.565  0.3015 -1.4895  0.9127
  380MOL0     H51263   9.579   4.048   7.619  1.5802 -0.7782  0.1696
  380MOL0     H51264   9.910   3.907   7.352  3.6465  0.5892  0.1438
  380MOL0     H51265   9.996   3.995   7.483  1.2170 -1.1051  1.9665
  380MOL0     H51266  10.030   3.817   7.593 -0.7829  2.0443  1.1631
  380MOL0     H51267   9.850   3.784   7.598 -1.8540  1.6679 -2.4037
  380MOL0     H51268   9.876   3.656   7.393 -1.7364  1.5629  0.3237
  380MOL0     H51269  10.056   3.690   7.388 -0.7974  2.3396  0.3211
  380MOL0     H51270  10.072   3.583   7.616 -2.3283  0.1290  2.5725
  380MOL0     H51271  10.042   3.472   7.481 -0.9718  0.6624 -2.2748
  380MOL0     H51272   9.815   3.444   7.553  0.5246 -1.3221 -0.0798
  380MOL0     H51273   9.843   3.565   7.683 -0.9448 -0.7312 -0.3877
  380MOL0     H51274   9.950   3.288   7.639  1.2516  1.7743 -0.7134
  380MOL0     H51275  10.030   3.402   7.751  2.2241  0.0632 -1.8894
  380MOL0     H51276   9.742   3.280   7.788 -1.1637  0.2040  1.2449
  380MOL0     H51277   9.791   3.423   7.870 -1.6222 -2.2865  2.0847
  380MOL0     H51278   9.993   3.301   7.944  1.4592 -2.5742  0.5024
  380MOL0     H51279   9.843   3.247   8.022  0.2963 -3.0271  0.3403
  380MOL0     H51280   9.718   3.780   7.312  1.6925  1.3592  0.1775
  380MOL0     H51281   9.482   3.706   7.291 -0.2302  0.4171  0.0785
  380MOL0     H51282   9.050   3.761   7.467 -0.0611 -0.5095  0.4525
  380MOL0     H51283   8.817   3.726   7.455  0.5960  2.3640  1.8205
  380MOL0     H51284   7.032   3.462   7.749  1.4282  0.4602 -1.3732
  380MOL0     H51285   6.821   3.344   7.785  1.1158 -0.0493 -0.3394
  380MOL0     H51286   6.423   3.232   7.647  0.8089  1.8944 -0.4131
  380MOL0     H51287   6.220   3.130   7.659  0.1377 -0.7262  0.8304
  380MOL0     H51288   5.892   3.030   7.814  0.3206  0.4390  1.7792
  380MOL0     H51289   6.054   2.982   7.770  2.8951  2.6057  0.7337
  380MOL0     H51290   6.019   3.160   7.566  0.4754 -0.4256 -1.6270
  380MOL0     H51291   5.860   3.187   7.634 -0.3381 -0.3497  2.1709
  380MOL0     H51292   5.787   2.950   7.577 -4.6181  4.6241 -1.3905
  380MOL0     H51293   5.952   2.922   7.524 -1.1800 -0.5617 -0.4963
  380MOL0     H51294   5.804   2.955   7.334 -0.6183  0.8954 -1.0963
  380MOL0     H51295   5.742   3.109   7.392  0.8813  2.3561 -2.4806
  380MOL0     H51296   6.095   3.244   7.214  0.8291 -0.0227  1.7523
  380MOL0     H51297   6.113   3.304   8.021  2.1898 -3.4200  0.3896
  380MOL0     H51298   6.204   3.520   8.066 -0.6144  0.5929 -0.9733
  380MOL0     H51299   6.364   3.450   8.114  0.0323 -0.2816 -0.4698
  380MOL0     H51300   6.349   3.589   8.001  3.2505 -1.2397  0.5937
  381MOL0     O51301   8.222   8.581   2.111  0.4940  0.5447 -0.1081
  381MOL0     C51302   8.126   8.611   2.036 -0.3364 -0.2860 -0.8119
  381MOL0     O51303   8.040   8.518   1.985  0.3856  0.4772 -0.0574
  381MOL0     C51304   8.082   8.396   1.961 -0.5007  0.0790  0.1949
  381MOL0     C51305   7.985   8.295   1.954 -0.1941  1.3092  0.2653
  381MOL0     C51306   8.022   8.161   1.923 -0.6722 -0.4389  0.9735
  381MOL0     C51307   8.156   8.129   1.890 -0.5998 -0.0219 -0.1777
  381MOL0     O51308   8.212   8.009   1.853  0.1381  0.2136  0.2746
  381MOL0     C51309   8.156   7.893   1.922  0.0733  0.5088 -0.3940
  381MOL0     C51310   8.243   7.776   1.889  0.0371 -0.6642  0.8641
  381MOL0     C51311   8.361   7.800   1.984 -0.8086  0.1288  0.2852
  381MOL0     C51312   8.457   7.688   1.983  0.5226 -0.4466 -0.1067
  381MOL0     C51313   8.575   7.707   2.087 -0.7357 -0.3171  0.2286
  381MOL0     C51314   8.690   7.798   2.040  0.1187 -0.1059 -0.4911
  381MOL0     C51315   8.808   7.807   2.129  0.4476  0.2073 -0.1410
  381MOL0     C51316   8.910   7.908   2.076 -0.2206  0.0119 -0.2825
  381MOL0     N51317   9.025   7.947   2.177 -0.3836 -0.3580  0.1520
  381MOL0     C51318   9.163   7.971   2.157  0.8580 -0.1594  0.6136
  381MOL0     C51319   9.212   7.999   2.274 -0.0639  0.5424  0.4172
  381MOL0     C51320   9.350   8.055   2.288 -0.2155  0.6686 -0.2664
  381MOL0     C51321   9.460   7.948   2.283  0.5959 -0.7920 -0.0085
  381MOL0     C51322   9.608   7.998   2.303  0.4599 -0.2714 -0.6054
  381MOL0     C51323   9.662   8.124   2.239 -0.3362 -0.5898  0.5408
  381MOL0     O51324   9.806   8.104   2.250  0.5383 -0.1040 -0.0537
  381MOL0     C51325   9.860   8.165   2.365  0.1959 -0.3707  0.4480
  381MOL0     C51326   9.808   8.253   2.459  0.3055  0.1012  0.4723
  381MOL0     C51327   9.885   8.302   2.564  0.5652 -0.6903 -0.1561
  381MOL0     C51328  10.019   8.265   2.573 -1.0403  0.0700 -0.4599
  381MOL0     C51329  10.109   8.317   2.686  0.0076 -0.6139 -0.4625
  381MOL0     O51330  10.249   8.299   2.677 -0.5877  0.3417 -0.2973
  381MOL0     C51331  10.331   8.372   2.763  0.8355  0.4497  0.1216
  381MOL0     C51332  10.314   8.509   2.778 -0.0245 -0.2557 -0.6093
  381MOL0     C51333  10.385   8.572   2.874  0.7430  0.0054  0.9185
  381MOL0     C51334  10.485   8.506   2.952 -0.4588 -0.5830 -0.1640
  381MOL0     O51335  10.566   8.565   3.046  0.0143  0.1271 -0.5626
  381MOL0     C51336  10.568   8.713   3.051  0.0752  0.0117 -0.6717
  381MOL0     C51337  10.658   8.757   3.168 -0.3601  0.2292 -0.1387
  381MOL0     C51338  10.619   8.710   3.309 -0.1213  0.2558 -0.2879
  381MOL0     C51339  10.520   8.788   3.387 -0.8961 -0.6415  0.5627
  381MOL0     C51340  10.496   8.722   3.520  0.0051 -0.7139 -0.8489
  381MOL0     C51341  10.403   8.813   3.598  0.3172  0.3593  0.8729
  381MOL0     C51342  10.362   8.749   3.733 -0.0850  0.0229 -0.2812
  381MOL0     C51343  10.271   8.843   3.809 -0.4792 -0.3980 -1.2102
  381MOL0    Cl51344  10.183   8.753   3.943 -0.3007 -0.0071  0.0163
  381MOL0     C51345  10.501   8.370   2.930 -0.1407  0.2385  0.2020
  381MOL0     C51346  10.419   8.309   2.835 -1.0815  0.1806 -0.9246
  381MOL0     O51347  10.052   8.359   2.781 -0.0473  0.1525 -0.6557
  381MOL0     C51348  10.075   8.176   2.480  0.3520  0.3672  0.9111
  381MOL0     C51349   9.996   8.129   2.376  0.3163  0.3823  0.0865
  381MOL0     N51350   9.112   7.991   2.367  0.3785 -0.2112 -0.0246
  381MOL0     N51351   9.005   7.950   2.306 -0.1670  0.3642 -0.8412
  381MOL0     C51352   8.250   8.237   1.889  0.0619  0.1353 -0.6319
  381MOL0     C51353   8.211   8.367   1.919 -0.2178 -0.6210 -0.1319
  381MOL0     C51354   8.110   8.762   2.018  1.1170 -0.6685 -0.2325
  381MOL0     C51355   7.983   8.814   2.007 -0.1413 -0.2006 -0.3822
  381MOL0     C51356   7.953   8.952   1.993 -0.4496 -0.4116  0.7451
  381MOL0     C51357   8.059   9.038   2.002 -1.0286 -0.8083 -0.6952
  381MOL0     O51358   8.042   9.177   2.000  0.3679 -0.7442 -0.1471
  381MOL0     C51359   7.920   9.236   2.066 -0.3342 -0.1791  0.4534
  381MOL0     C51360   7.821   9.270   1.944  0.8973  0.0395  0.2783
  381MOL0     C51361   7.686   9.327   1.981  0.4722  0.0852 -0.5439
  381MOL0     C51362   7.605   9.248   2.090  0.8251 -0.3427  1.0304
  381MOL0     C51363   7.522   9.128   2.057 -0.6997  0.2393  0.1619
  381MOL0     C51364   7.449   9.032   2.033 -0.3150 -0.1288 -0.1507
  381MOL0     C51365   8.182   8.990   2.044 -0.8928  0.4782 -0.1152
  381MOL0     C51366   8.212   8.855   2.032  0.4253  0.0317 -0.9221
  381MOL0     C51367   8.359   8.813   2.066  0.6170 -0.7463  0.5074
  381MOL0     H51368   7.879   8.309   1.973 -0.2179 -1.0476  2.4822
  381MOL0     H51369   7.947   8.082   1.925 -2.6111  1.2258 -0.8932
  381MOL0     H51370   8.147   7.922   2.028 -0.1692  5.1526 -1.4627
  381MOL0     H51371   8.059   7.861   1.885 -0.5360  0.5573  1.0757
  381MOL0     H51372   8.265   7.783   1.782  0.3655 -1.3780  0.8782
  381MOL0     H51373   8.199   7.679   1.915  1.9328 -2.1317 -1.0267
  381MOL0     H51374   8.329   7.809   2.088  1.2832 -0.5011  1.0379
  381MOL0     H51375   8.408   7.895   1.958  1.5483 -0.9475  0.3801
  381MOL0     H51376   8.399   7.599   2.006 -0.1706  0.0691  0.1614
  381MOL0     H51377   8.502   7.672   1.884  2.1819 -0.8836  0.6824
  381MOL0     H51378   8.532   7.743   2.181 -3.5831  2.0492 -1.7890
  381MOL0     H51379   8.619   7.609   2.106  3.5335  1.1664 -0.7348
  381MOL0     H51380   8.740   7.763   1.949  2.5903  0.8986  0.3796
  381MOL0     H51381   8.652   7.899   2.025  2.4070  1.2421  1.9313
  381MOL0     H51382   8.860   7.711   2.142 -2.3180 -1.0997  2.4693
  381MOL0     H51383   8.768   7.824   2.229  0.5550 -0.6670  0.0644
  381MOL0     H51384   8.953   7.879   1.980  0.2963  0.0143 -0.0564
  381MOL0     H51385   8.865   8.006   2.057 -0.5944 -0.3397 -1.2456
  381MOL0     H51386   9.220   7.982   2.066 -0.5420  3.4538  0.0162
  381MOL0     H51387   9.355   8.122   2.201 -1.0084  0.7690 -0.2460
  381MOL0     H51388   9.357   8.116   2.378  0.0441 -0.0372  0.1984
  381MOL0     H51389   9.442   7.873   2.360  3.1857  0.0717  1.5539
  381MOL0     H51390   9.460   7.902   2.184 -0.0062 -3.8096  1.3093
  381MOL0     H51391   9.666   7.911   2.269  1.2370 -0.3745  0.8821
  381MOL0     H51392   9.629   8.010   2.410  2.4685 -5.1143 -0.1943
  381MOL0     H51393   9.617   8.217   2.275  0.5583  0.5117 -1.0352
  381MOL0     H51394   9.648   8.120   2.130  2.4014  1.5669 -0.0252
  381MOL0     H51395   9.702   8.273   2.456  0.3630  0.4336  0.6039
  381MOL0     H51396   9.850   8.380   2.632  1.1065 -2.2318  1.9886
  381MOL0     H51397  10.252   8.572   2.715 -2.0552 -1.2501  0.3094
  381MOL0     H51398  10.373   8.677   2.899  1.0562 -0.3089  2.5133
  381MOL0     H51399  10.604   8.757   2.958 -0.4991  0.9190 -0.4787
  381MOL0     H51400  10.473   8.763   3.067  0.6381  0.7634  0.4356
  381MOL0     H51401  10.755   8.717   3.136 -0.7042 -1.1139  0.4485
  381MOL0     H51402  10.660   8.867   3.175 -2.1065  0.2173  1.1767
  381MOL0     H51403  10.589   8.606   3.291  1.3702  0.0622 -1.8255
  381MOL0     H51404  10.708   8.690   3.369 -0.1491 -3.1179 -1.1320
  381MOL0     H51405  10.428   8.784   3.328 -0.4491  1.5866 -0.3960
  381MOL0     H51406  10.549   8.893   3.404 -1.2241 -0.3854 -0.4125
  381MOL0     H51407  10.590   8.698   3.571 -1.3954 -1.4037  1.5663
  381MOL0     H51408  10.448   8.626   3.500 -3.3736  0.4431  0.9106
  381MOL0     H51409  10.455   8.907   3.619 -0.9727  0.7240  2.6647
  381MOL0     H51410  10.317   8.830   3.533 -1.4520 -1.0245  2.7113
  381MOL0     H51411  10.451   8.718   3.789  0.1965 -0.0233 -0.7577
  381MOL0     H51412  10.287   8.676   3.703 -2.5195  1.3391  2.0690
  381MOL0     H51413  10.325   8.921   3.862 -2.4424  0.4180 -0.3280
  381MOL0     H51414  10.192   8.894   3.754 -0.0407  0.7358 -0.8254
  381MOL0     H51415  10.574   8.321   2.994  1.6733  3.0546  0.4491
  381MOL0     H51416  10.437   8.203   2.817 -0.7119  0.3831 -1.7616
  381MOL0     H51417  10.178   8.143   2.478 -0.0847 -1.1792 -2.2385
  381MOL0     H51418  10.039   8.060   2.303  0.0986 -0.2309  0.5289
  381MOL0     H51419   8.355   8.224   1.865  0.1030  2.3488 -1.9665
  381MOL0     H51420   8.283   8.448   1.917 -0.7407  0.0625  3.0892
  381MOL0     H51421   7.895   8.752   1.989  1.1925 -3.1551  2.2381
  381MOL0     H51422   7.848   8.973   1.977 -0.5654 -1.9585 -0.9146
  381MOL0     H51423   7.944   9.322   2.130  0.0723 -0.6572  0.9567
  381MOL0     H51424   7.872   9.158   2.126 -1.8068  0.4802  0.1743
  381MOL0     H51425   7.797   9.178   1.891  2.3496 -0.1820 -0.0299
  381MOL0     H51426   7.871   9.333   1.870  0.2828  1.5125  1.0665
  381MOL0     H51427   7.623   9.325   1.891 -0.1103 -0.1847 -0.1378
  381MOL0     H51428   7.699   9.431   2.011  3.9367 -0.4984  0.4518
  381MOL0     H51429   7.661   9.227   2.181  1.9280  1.4478  0.8010
  381MOL0     H51430   7.532   9.324   2.120 -2.2377 -3.4247  2.0883
  381MOL0     H51431   7.377   8.963   1.995 -3.1730  1.7662  1.3934
  381MOL0     H51432   8.265   9.056   2.064  1.8784 -2.5447 -0.7800
  381MOL0     H51433   8.430   8.888   2.030 -1.0481 -0.3177 -2.1572
  381MOL0     H51434   8.376   8.809   2.174  1.1970 -1.9458  0.3905
  381MOL0     H51435   8.399   8.736   1.998 -2.0664 -1.0128 -0.9027
  382MOL0     O51436   2.773   1.466   1.343  0.2604 -0.1657  0.1655
  382MOL0     C51437   2.751   1.388   1.248  0.0340 -0.3258  0.3504
  382MOL0     O51438   2.841   1.362   1.149 -0.6820 -0.5131 -0.1252
  382MOL0     C51439   2.974   1.391   1.175  0.7266  0.5610 -0.8782
  382MOL0     C51440   3.039   1.335   1.287 -1.4411  0.3674 -0.2894
  382MOL0     C51441   3.171   1.365   1.315 -0.5343  0.2127 -0.0155
  382MOL0     C51442   3.241   1.444   1.223  0.1801  0.2812  0.4877
  382MOL0     O51443   3.376   1.474   1.243 -0.5514  0.0237  0.3283
  382MOL0     C51444   3.466   1.516   1.140  0.0177 -0.3648  0.4719
  382MOL0     C51445   3.597   1.478   1.189  0.1823  0.7728  0.1243
  382MOL0     C51446   3.626   1.539   1.324 -0.4090  0.7331  0.5650
  382MOL0     C51447   3.751   1.477   1.390  0.2199  0.5349  0.4238
  382MOL0     C51448   3.882   1.476   1.306 -0.5123 -0.9360  1.0703
  382MOL0     C51449   3.948   1.618   1.286  0.3063  0.0947 -0.0633
  382MOL0     C51450   4.041   1.630   1.164  0.0746  0.0575 -0.5974
  382MOL0     C51451   4.166   1.555   1.189 -0.6208 -0.3960  0.9981
  382MOL0     N51452   4.275   1.644   1.229 -0.0863 -0.6707  0.0987
  382MOL0     C51453   4.310   1.683   1.354 -0.8401 -1.2211 -0.4970
  382MOL0     C51454   4.431   1.758   1.346  0.0073  1.0930  0.0115
  382MOL0     C51455   4.502   1.827   1.458 -0.2273 -0.2507  0.4652
  382MOL0     C51456   4.625   1.750   1.525 -0.4923  0.2390  0.3141
  382MOL0     C51457   4.569   1.612   1.564 -0.0034  1.0052 -0.7886
  382MOL0     C51458   4.691   1.530   1.624 -0.1979  0.2226 -0.2883
  382MOL0     O51459   4.784   1.504   1.513  0.4335 -0.7484 -0.5257
  382MOL0     C51460   4.921   1.512   1.540 -0.5390 -1.1669  0.1484
  382MOL0     C51461   5.016   1.497   1.438  0.4758  0.3874  0.3578
  382MOL0     C51462   5.156   1.499   1.445 -0.3351  0.5081  0.6516
  382MOL0     C51463   5.211   1.545   1.566 -0.0331  0.4564 -0.0810
  382MOL0     C51464   5.353   1.546   1.598  0.9768  0.0570 -0.4258
  382MOL0     O51465   5.444   1.507   1.501 -0.3545  0.1779 -0.5694
  382MOL0     C51466   5.573   1.479   1.529 -0.3972 -0.1611 -0.0040
  382MOL0     C51467   5.662   1.580   1.549  0.5484 -0.5996 -0.7763
  382MOL0     C51468   5.800   1.555   1.572  1.3081  0.8396  0.0766
  382MOL0     C51469   5.846   1.424   1.564  0.2163  0.7516 -0.5542
  382MOL0     O51470   5.978   1.420   1.598 -0.9032 -0.4569 -0.5553
  382MOL0     C51471   6.026   1.294   1.645 -0.7407  0.0400 -0.8979
  382MOL0     C51472   6.175   1.326   1.669 -0.2571  0.7124 -0.6555
  382MOL0     C51473   6.252   1.196   1.712  0.4274 -0.3007  0.3693
  382MOL0     C51474   6.396   1.224   1.738 -0.4684  0.0037  0.2581
  382MOL0     C51475   6.487   1.101   1.756 -0.1373  0.2558  0.4351
  382MOL0     C51476   6.636   1.132   1.767 -0.2583 -0.5201  0.0851
  382MOL0     C51477   6.667   1.165   1.907  0.0615 -0.8090 -0.0609
  382MOL0     C51478   6.812   1.198   1.947 -0.3573 -0.4200  0.3380
  382MOL0    Cl51479   6.922   1.103   1.852  0.6131 -0.3541 -0.2279
  382MOL0     C51480   5.757   1.325   1.545  0.2038 -0.1975 -0.4043
  382MOL0     C51481   5.625   1.351   1.517  0.5546 -0.3055 -1.0523
  382MOL0     O51482   5.384   1.573   1.711  0.0799 -0.3363 -0.5145
  382MOL0     C51483   5.115   1.570   1.670 -0.1738 -0.3568  0.1680
  382MOL0     C51484   4.979   1.545   1.666  0.4832  0.1813 -0.8405
  382MOL0     N51485   4.477   1.741   1.217  0.2269 -0.0664 -0.1699
  382MOL0     N51486   4.378   1.689   1.146  0.0346  0.3739 -0.8700
  382MOL0     C51487   3.176   1.503   1.118 -0.3738 -0.6230  1.1935
  382MOL0     C51488   3.043   1.481   1.099  0.2797 -0.3417  0.2566
  382MOL0     C51489   2.606   1.348   1.230  0.3816 -0.5368  0.5608
  382MOL0     C51490   2.531   1.317   1.340 -0.1246 -0.2967 -0.5009
  382MOL0     C51491   2.400   1.271   1.334  0.0223 -0.1976  0.2698
  382MOL0     C51492   2.343   1.253   1.208 -0.2632 -0.2885  0.1187
  382MOL0     O51493   2.220   1.196   1.204  0.5643 -0.1881  0.0302
  382MOL0     C51494   2.102   1.281   1.178  0.0104 -0.7850 -0.1817
  382MOL0     C51495   2.039   1.251   1.043  0.7153  0.1052  0.0369
  382MOL0     C51496   1.951   1.117   1.050 -0.1923 -0.4379  0.2833
  382MOL0     C51497   1.801   1.147   1.046  1.4136 -0.1048  0.0851
  382MOL0     C51498   1.717   1.031   1.068  0.4180  0.0271  0.4320
  382MOL0     C51499   1.647   0.933   1.086 -0.0801  0.7095  0.8356
  382MOL0     C51500   2.415   1.278   1.095 -0.3905 -0.4472 -0.0281
  382MOL0     C51501   2.550   1.327   1.096  1.1008  0.6749 -0.5879
  382MOL0     C51502   2.619   1.352   0.963  0.0873  0.6373 -1.1455
  382MOL0     H51503   2.984   1.277   1.360 -1.1079  1.0112  0.4969
  382MOL0     H51504   3.224   1.328   1.403 -1.8890  3.5038  2.3741
  382MOL0     H51505   3.447   1.455   1.051  0.6615 -1.5301  1.1144
  382MOL0     H51506   3.453   1.621   1.114 -0.3582 -0.2221  1.2092
  382MOL0     H51507   3.675   1.524   1.126  0.4733  3.7200  2.3961
  382MOL0     H51508   3.603   1.370   1.202 -2.3939  0.4992 -0.4681
  382MOL0     H51509   3.551   1.532   1.403  0.5089 -0.5408  1.3733
  382MOL0     H51510   3.651   1.642   1.301  2.9797  0.0242  0.5403
  382MOL0     H51511   3.778   1.526   1.484 -0.3550 -0.2133  0.9932
  382MOL0     H51512   3.717   1.376   1.415 -0.9794  0.9944  0.7345
  382MOL0     H51513   3.952   1.414   1.362  2.3114  0.4046 -0.7417
  382MOL0     H51514   3.867   1.430   1.208 -0.6420 -0.6139  0.9363
  382MOL0     H51515   3.871   1.693   1.265 -1.7564 -2.0604 -0.6523
  382MOL0     H51516   4.008   1.644   1.373 -1.2535  0.1845  1.0342
  382MOL0     H51517   4.062   1.736   1.148  1.0321  0.3359  1.9628
  382MOL0     H51518   3.981   1.588   1.083 -0.7006  0.1262 -0.0781
  382MOL0     H51519   4.157   1.472   1.260  2.6172  0.3347  2.4162
  382MOL0     H51520   4.192   1.516   1.090  1.2798  2.4502  0.2811
  382MOL0     H51521   4.252   1.667   1.445  1.9462 -1.9421  1.2652
  382MOL0     H51522   4.533   1.921   1.412  3.1993 -1.1030  0.7347
  382MOL0     H51523   4.432   1.851   1.538 -0.4560  0.1782  0.1382
  382MOL0     H51524   4.704   1.737   1.449 -1.7212 -3.3517 -0.5836
  382MOL0     H51525   4.662   1.812   1.607 -0.0578  1.4958 -0.7971
  382MOL0     H51526   4.516   1.555   1.487 -3.3822 -1.2145  2.8075
  382MOL0     H51527   4.496   1.643   1.639  0.4558 -0.9900  0.5766
  382MOL0     H51528   4.662   1.431   1.661  2.0098 -0.6231 -0.6186
  382MOL0     H51529   4.730   1.594   1.704 -0.7923 -1.7165  1.6666
  382MOL0     H51530   4.980   1.478   1.337 -0.4335 -3.3939  1.2402
  382MOL0     H51531   5.213   1.486   1.353 -0.7171 -0.2206  0.5150
  382MOL0     H51532   5.640   1.685   1.537  2.4335  0.2236  1.9378
  382MOL0     H51533   5.870   1.636   1.591  1.0846  1.1656 -0.4707
  382MOL0     H51534   5.975   1.268   1.739  0.7855 -1.4996 -0.4394
  382MOL0     H51535   6.019   1.207   1.580 -1.6287 -2.0113  1.7242
  382MOL0     H51536   6.208   1.376   1.577  0.2192  0.4125 -0.6502
  382MOL0     H51537   6.191   1.406   1.742 -0.6312  0.4631 -0.2928
  382MOL0     H51538   6.200   1.165   1.803  1.7043 -2.6658  0.3684
  382MOL0     H51539   6.242   1.116   1.637 -0.5159  0.7243 -0.6398
  382MOL0     H51540   6.402   1.292   1.824  0.3624 -0.0085  0.2258
  382MOL0     H51541   6.448   1.273   1.655  0.9572  0.8877  1.6052
  382MOL0     H51542   6.464   1.039   1.668 -1.9641  0.4009  0.7619
  382MOL0     H51543   6.457   1.028   1.833  3.1689 -4.1782 -2.0169
  382MOL0     H51544   6.700   1.052   1.730  1.1850  0.9373 -0.7026
  382MOL0     H51545   6.666   1.216   1.704  1.2670 -0.6881  0.5495
  382MOL0     H51546   6.652   1.074   1.965 -0.3537 -2.9448 -3.2780
  382MOL0     H51547   6.595   1.240   1.943  0.4184 -0.9849  1.0472
  382MOL0     H51548   6.823   1.303   1.920 -0.1851 -0.4080  0.4580
  382MOL0     H51549   6.827   1.189   2.055  0.1638  0.9251  0.3914
  382MOL0     H51550   5.789   1.221   1.544  2.5122  0.2183  3.9530
  382MOL0     H51551   5.557   1.267   1.507  0.5260 -0.1250 -2.6578
  382MOL0     H51552   5.147   1.603   1.769  1.6126 -3.8383  0.8870
  382MOL0     H51553   4.922   1.551   1.758  1.2912  0.0905 -0.3173
  382MOL0     H51554   3.225   1.581   1.061 -3.0415  0.9613  0.8655
  382MOL0     H51555   2.987   1.540   1.026  2.7331  1.4313 -0.3369
  382MOL0     H51556   2.580   1.315   1.438 -1.1243 -1.6905 -0.0053
  382MOL0     H51557   2.340   1.246   1.421 -3.1037 -1.7608 -2.1287
  382MOL0     H51558   2.130   1.386   1.190  0.9059 -1.0197 -0.1626
  382MOL0     H51559   2.026   1.267   1.255  0.2210  0.5196  0.3021
  382MOL0     H51560   2.127   1.230   0.982  0.3868 -0.9837 -0.0760
  382MOL0     H51561   1.983   1.334   0.998 -2.6907 -1.4873  1.0491
  382MOL0     H51562   1.969   1.068   1.145 -0.9363 -0.4355  0.4310
  382MOL0     H51563   1.985   1.045   0.975  0.0936 -1.3645  1.2863
  382MOL0     H51564   1.783   1.217   1.129 -2.4348  0.6040 -1.1662
  382MOL0     H51565   1.773   1.206   0.958  0.1477  0.3071  0.7460
  382MOL0     H51566   1.591   0.842   1.083  1.1989 -0.0863  0.1094
  382MOL0     H51567   2.357   1.259   1.006  1.0170 -0.8938 -0.8860
  382MOL0     H51568   2.546   1.343   0.882 -0.9614  2.1081 -0.4120
  382MOL0     H51569   2.660   1.453   0.959  0.9970  0.3020 -0.5623
  382MOL0     H51570   2.697   1.276   0.956 -0.4331 -0.0356  0.2101
  383MOL0     O51571   4.318   3.239   1.578  0.7769  0.8613  0.0154
  383MOL0     C51572   4.296   3.360   1.557 -0.2005  0.4573 -0.1572
  383MOL0     O51573   4.367   3.437   1.470  0.1189 -0.4731  0.2992
  383MOL0     C51574   4.444   3.366   1.379  0.6531 -0.2193 -1.2090
  383MOL0     C51575   4.372   3.306   1.274  1.0274  0.7893  0.5306
  383MOL0     C51576   4.435   3.243   1.167 -0.0581 -0.1857 -0.2714
  383MOL0     C51577   4.572   3.206   1.185 -0.1577 -0.2515 -0.1595
  383MOL0     O51578   4.639   3.129   1.094 -0.2026 -0.0005  0.0490
  383MOL0     C51579   4.563   3.057   1.000  0.0112 -0.1330 -0.2921
  383MOL0     C51580   4.657   2.994   0.895  0.5104 -0.2363 -0.5481
  383MOL0     C51581   4.730   2.877   0.956 -0.4967 -0.0216 -0.0690
  383MOL0     C51582   4.810   2.787   0.856  0.2709 -0.0980  0.0702
  383MOL0     C51583   4.950   2.848   0.808 -0.3720  0.0141 -0.3901
  383MOL0     C51584   4.939   2.973   0.721  0.2383 -0.0300  0.3228
  383MOL0     C51585   5.056   2.973   0.623  0.2244 -0.1993  0.2355
  383MOL0     C51586   5.200   2.955   0.668  0.4660  0.1257  0.2684
  383MOL0     N51587   5.302   2.983   0.562  0.5405 -0.0360 -0.3189
  383MOL0     C51588   5.385   3.084   0.564 -0.0401 -0.4643 -0.1932
  383MOL0     C51589   5.484   3.056   0.479  0.0669  0.5958  0.6798
  383MOL0     C51590   5.609   3.139   0.462  0.2870  0.7959 -0.4546
  383MOL0     C51591   5.679   3.165   0.599  0.5708 -0.1029 -0.5621
  383MOL0     C51592   5.800   3.262   0.582  0.2034 -0.0130  0.0531
  383MOL0     C51593   5.871   3.301   0.716 -0.4722  0.4612  0.3912
  383MOL0     O51594   5.911   3.195   0.809  0.1566  0.4548  0.0005
  383MOL0     C51595   5.981   3.240   0.917  0.0235 -1.0643  0.2151
  383MOL0     C51596   5.943   3.345   1.004 -0.0002  0.3489  0.7295
  383MOL0     C51597   6.035   3.393   1.104 -0.2586  0.1178  1.1649
  383MOL0     C51598   6.150   3.323   1.127 -0.7284 -0.6711 -0.2546
  383MOL0     C51599   6.245   3.359   1.237 -0.1420  0.0950 -0.6016
  383MOL0     O51600   6.214   3.466   1.327  0.8517  0.0802 -0.3343
  383MOL0     C51601   6.310   3.515   1.418  0.0688 -0.4802  0.1003
  383MOL0     C51602   6.400   3.430   1.486  0.1961  0.4981 -0.5804
  383MOL0     C51603   6.487   3.475   1.578 -0.4687  0.0410  0.0106
  383MOL0     C51604   6.487   3.606   1.615  0.3045  0.1710 -1.0476
  383MOL0     O51605   6.572   3.656   1.716  0.3117  0.0290  0.4799
  383MOL0     C51606   6.651   3.570   1.808  0.2333  0.6202 -0.4598
  383MOL0     C51607   6.772   3.653   1.870  0.5958 -0.6924  0.0466
  383MOL0     C51608   6.872   3.560   1.942 -0.0662 -0.2205  0.0008
  383MOL0     C51609   6.820   3.524   2.086  0.0313 -0.0367  0.7491
  383MOL0     C51610   6.921   3.422   2.142 -0.2853 -0.0179 -0.3352
  383MOL0     C51611   7.070   3.454   2.143 -0.4338 -0.3397  0.3307
  383MOL0     C51612   7.143   3.390   2.254 -0.2997 -0.6456 -0.5156
  383MOL0     C51613   7.288   3.437   2.282  0.2566 -0.3609 -0.7234
  383MOL0    Cl51614   7.396   3.394   2.134  0.0548 -0.4409 -0.7142
  383MOL0     C51615   6.406   3.698   1.548  0.2231  0.0723  0.5982
  383MOL0     C51616   6.304   3.658   1.458 -1.0013 -0.0327 -0.0388
  383MOL0     O51617   6.346   3.287   1.238  0.1342 -1.1305 -0.1292
  383MOL0     C51618   6.180   3.209   1.050 -0.7259 -0.0877  0.2377
  383MOL0     C51619   6.101   3.180   0.939 -0.0212  0.3789  1.0818
  383MOL0     N51620   5.445   2.937   0.413  0.1035 -0.3801  0.1899
  383MOL0     N51621   5.338   2.899   0.464  0.1585  0.9629  0.3048
  383MOL0     C51622   4.643   3.261   1.296 -0.0539  0.0882 -0.7512
  383MOL0     C51623   4.573   3.342   1.392  0.6591  0.3636  0.0767
  383MOL0     C51624   4.184   3.420   1.626 -0.0433  1.2957  0.3593
  383MOL0     C51625   4.172   3.560   1.614  0.3349 -0.0811 -0.7213
  383MOL0     C51626   4.073   3.631   1.684  1.0791  0.0692 -0.4390
  383MOL0     C51627   3.969   3.558   1.745 -0.4590  0.8816 -0.9013
  383MOL0     O51628   3.844   3.609   1.781  0.3882 -0.3092 -0.1513
  383MOL0     C51629   3.767   3.654   1.672  0.1359 -0.0820 -0.2418
  383MOL0     C51630   3.613   3.626   1.708 -0.2448 -0.2670 -0.1653
  383MOL0     C51631   3.566   3.723   1.831  0.3529  0.0035 -0.3669
  383MOL0     C51632   3.419   3.702   1.870  0.5084  0.1745 -0.2058
  383MOL0     C51633   3.318   3.690   1.765  0.4461  0.2779 -0.2272
  383MOL0     C51634   3.228   3.668   1.693  0.6650  0.9649 -0.1137
  383MOL0     C51635   3.982   3.420   1.762 -0.5600 -0.4826 -0.2649
  383MOL0     C51636   4.091   3.356   1.714 -0.4167 -0.3941 -0.0530
  383MOL0     C51637   4.086   3.206   1.744 -0.0183 -0.1550  0.4745
  383MOL0     H51638   4.263   3.300   1.278  1.1094 -0.1524  2.4041
  383MOL0     H51639   4.381   3.199   1.083  2.2968 -0.3703 -1.7934
  383MOL0     H51640   4.499   2.977   1.036  1.4236 -1.4012 -0.4817
  383MOL0     H51641   4.510   3.129   0.937 -0.8398 -0.6100 -0.1283
  383MOL0     H51642   4.730   3.066   0.858 -1.7866  3.2342  1.2382
  383MOL0     H51643   4.596   2.961   0.810 -0.4675 -2.2806  0.8523
  383MOL0     H51644   4.648   2.824   1.003 -2.1519  1.2358 -1.4135
  383MOL0     H51645   4.803   2.910   1.031 -2.0821  0.5262  1.3030
  383MOL0     H51646   4.820   2.691   0.907  0.6455  0.1020  0.3834
  383MOL0     H51647   4.754   2.776   0.763 -0.8008 -0.2696  0.7246
  383MOL0     H51648   5.025   2.869   0.884 -0.7677 -1.2023  0.3543
  383MOL0     H51649   4.990   2.770   0.743 -1.3662  0.2824 -1.3707
  383MOL0     H51650   4.847   2.977   0.662  0.6461 -3.0664 -0.7321
  383MOL0     H51651   4.944   3.057   0.791 -0.2326 -0.5758  1.0270
  383MOL0     H51652   5.047   3.067   0.567  1.2221 -1.7341 -2.7375
  383MOL0     H51653   5.027   2.894   0.552  0.5906  0.3146 -0.4940
  383MOL0     H51654   5.204   3.012   0.761 -3.1887  0.0894  0.5606
  383MOL0     H51655   5.218   2.853   0.704  0.0018  0.3448  1.1552
  383MOL0     H51656   5.372   3.175   0.622  1.9798 -0.8576  0.9833
  383MOL0     H51657   5.683   3.083   0.404  1.9885  0.5309  1.8384
  383MOL0     H51658   5.581   3.235   0.420  1.0527  1.2807  0.1249
  383MOL0     H51659   5.612   3.213   0.671  0.3656 -0.3920 -0.5587
  383MOL0     H51660   5.715   3.070   0.638  0.3444  0.3320  0.7368
  383MOL0     H51661   5.770   3.358   0.540  1.6987  1.8975  3.0167
  383MOL0     H51662   5.877   3.222   0.515  1.6058  1.5431  0.6745
  383MOL0     H51663   5.810   3.364   0.781 -0.8964 -1.8686  2.4085
  383MOL0     H51664   5.959   3.362   0.695  1.2036  0.1024  5.0451
  383MOL0     H51665   5.845   3.387   0.989 -2.3343 -3.8875  2.4085
  383MOL0     H51666   6.008   3.487   1.150 -0.5478  0.2560  0.7161
  383MOL0     H51667   6.419   3.329   1.453 -4.0275 -0.6006 -0.1722
  383MOL0     H51668   6.553   3.399   1.617  1.2000  2.5826  2.4344
  383MOL0     H51669   6.590   3.540   1.894  2.1495 -0.9998  0.4345
  383MOL0     H51670   6.682   3.475   1.763 -5.3077 -2.2911  1.0597
  383MOL0     H51671   6.826   3.700   1.787 -0.2310  2.8770  1.3518
  383MOL0     H51672   6.753   3.733   1.941  1.6812 -1.1465  0.8611
  383MOL0     H51673   6.890   3.476   1.874  0.1096 -0.8640  0.8210
  383MOL0     H51674   6.970   3.608   1.952 -0.6661  1.2800 -1.0825
  383MOL0     H51675   6.726   3.469   2.091 -0.5037  0.8187  0.3579
  383MOL0     H51676   6.807   3.613   2.149 -1.2915 -0.3586  0.9637
  383MOL0     H51677   6.916   3.327   2.087  2.0712 -0.0126 -0.6831
  383MOL0     H51678   6.897   3.415   2.248 -1.2564 -0.5874 -0.5753
  383MOL0     H51679   7.113   3.428   2.046 -1.1833  0.5656 -0.2605
  383MOL0     H51680   7.088   3.562   2.152 -0.6485 -0.2004 -0.7761
  383MOL0     H51681   7.141   3.281   2.244 -0.3159 -0.5437 -1.7923
  383MOL0     H51682   7.090   3.403   2.349  1.4433 -1.1722  0.5874
  383MOL0     H51683   7.303   3.544   2.297  1.8559 -0.6627  0.1004
  383MOL0     H51684   7.321   3.399   2.379 -4.4418  0.3963  1.4265
  383MOL0     H51685   6.413   3.801   1.581 -2.3514 -0.1437  2.0899
  383MOL0     H51686   6.226   3.722   1.417 -1.9962 -1.7695 -0.9656
  383MOL0     H51687   6.265   3.145   1.072 -1.2138 -0.7856  0.1238
  383MOL0     H51688   6.133   3.101   0.872  4.4673  1.6057  1.4974
  383MOL0     H51689   4.748   3.239   1.309 -0.2500  0.1352  1.3951
  383MOL0     H51690   4.625   3.384   1.478  1.1800 -1.0515  0.4983
  383MOL0     H51691   4.242   3.621   1.559  0.1057  1.1756  0.3366
  383MOL0     H51692   4.063   3.739   1.673 -2.5263  0.0652  1.3544
  383MOL0     H51693   3.810   3.603   1.585 -0.6084 -0.5283 -0.3560
  383MOL0     H51694   3.786   3.760   1.651  0.6125 -0.2594 -0.7343
  383MOL0     H51695   3.606   3.522   1.743 -0.2819 -0.4827 -0.8000
  383MOL0     H51696   3.554   3.643   1.618 -0.4962  0.4347  0.1200
  383MOL0     H51697   3.575   3.824   1.789 -0.8869 -0.0377 -0.7797
  383MOL0     H51698   3.633   3.714   1.916 -0.7374 -1.5401  0.3725
  383MOL0     H51699   3.417   3.621   1.944  0.4766  0.5943  0.2548
  383MOL0     H51700   3.395   3.788   1.933 -1.2851 -1.2584  1.1647
  383MOL0     H51701   3.156   3.628   1.625 -1.1569  0.6742  1.8699
  383MOL0     H51702   3.914   3.366   1.826  0.1963 -1.1309  0.0018
  383MOL0     H51703   4.156   3.183   1.825 -2.6440 -4.0049  1.9091
  383MOL0     H51704   3.985   3.171   1.765  0.2739 -1.2043  0.2158
  383MOL0     H51705   4.124   3.146   1.661  0.2770 -1.4745  1.5236
  384MOL0     O51706  10.612   5.897   6.681 -0.5131  0.4459  0.4518
  384MOL0     C51707  10.512   5.970   6.676  0.1922 -0.6744 -0.4357
  384MOL0     O51708  10.386   5.935   6.714 -0.3618  0.2350  0.3874
  384MOL0     C51709  10.344   5.816   6.763 -0.6932 -0.6643  1.0568
  384MOL0     C51710  10.221   5.820   6.831 -0.2252 -0.2857 -0.1750
  384MOL0     C51711  10.180   5.707   6.885 -0.0578  0.6725  0.4296
  384MOL0     C51712  10.241   5.587   6.877 -0.6867  0.1654 -0.0801
  384MOL0     O51713  10.185   5.471   6.930  0.0975 -0.4860  0.1971
  384MOL0     C51714  10.057   5.473   6.997  0.0242  0.0853 -0.9150
  384MOL0     C51715  10.007   5.329   7.018 -0.7783 -0.7260  0.1888
  384MOL0     C51716   9.997   5.248   6.884  0.2198  0.5302  0.2465
  384MOL0     C51717   9.908   5.123   6.907 -0.0473 -0.5953 -0.7152
  384MOL0     C51718   9.920   5.010   6.796  0.8752  0.1021  1.2087
  384MOL0     C51719   9.832   5.047   6.672  0.2332  0.6284 -0.3798
  384MOL0     C51720   9.890   4.980   6.538 -0.2545 -0.7295  0.2520
  384MOL0     C51721  10.004   5.030   6.472 -0.4194  0.5527 -0.6919
  384MOL0     N51722  10.001   5.169   6.431 -0.5891 -0.2833 -0.4749
  384MOL0     C51723  10.035   5.273   6.512 -1.0528  0.4541 -0.5277
  384MOL0     C51724  10.041   5.384   6.437  0.0856  0.6076  0.1916
  384MOL0     C51725  10.091   5.516   6.490 -0.4183 -0.1211 -0.1555
  384MOL0     C51726  10.124   5.611   6.383  0.8397 -1.0199  0.3634
  384MOL0     C51727  10.169   5.735   6.457  0.1152  0.2528  0.5906
  384MOL0     C51728  10.181   5.855   6.365  0.0050  0.3584  0.3781
  384MOL0     O51729  10.259   5.814   6.253  0.6056  0.0697 -0.8656
  384MOL0     C51730  10.396   5.812   6.249  0.5359 -0.7058 -0.3981
  384MOL0     C51731  10.440   5.749   6.133  0.2426 -1.3119 -1.0098
  384MOL0     C51732  10.577   5.724   6.115 -0.4080 -0.4623 -1.2099
  384MOL0     C51733  10.669   5.778   6.212  0.5691  0.6806 -0.1012
  384MOL0     C51734  10.809   5.779   6.182 -0.2527  0.0882 -0.5063
  384MOL0     O51735  10.853   5.709   6.074  0.8383 -0.0514 -0.1496
  384MOL0     C51736  10.989   5.702   6.034 -0.1555  0.0628  0.5178
  384MOL0     C51737  11.071   5.815   6.015 -0.7158 -0.2502 -0.3011
  384MOL0     C51738  11.200   5.809   5.983 -0.1037 -0.5419 -0.2234
  384MOL0     C51739  11.263   5.691   5.953  0.7682  0.4906 -0.7898
  384MOL0     O51740  11.396   5.671   5.934 -0.6659  0.1474  0.2794
  384MOL0     C51741  11.486   5.777   5.959 -0.1130  0.2359 -0.1737
  384MOL0     C51742  11.625   5.732   5.926  0.3003 -0.0215  0.4172
  384MOL0     C51743  11.738   5.827   5.964  0.2628  0.4292 -0.0474
  384MOL0     C51744  11.873   5.785   5.913 -0.3901 -0.3604  1.0371
  384MOL0     C51745  11.928   5.653   5.974 -0.4224  0.1706  0.0180
  384MOL0     C51746  12.076   5.644   5.956 -0.7452 -0.3069 -0.9125
  384MOL0     C51747  12.137   5.626   5.820  0.0201  0.3606 -0.2226
  384MOL0     C51748  12.273   5.693   5.817  0.0480 -0.4318  0.0555
  384MOL0    Cl51749  12.392   5.620   5.925 -0.0204  0.0432  0.6692
  384MOL0     C51750  11.180   5.578   5.952  0.3086 -1.0172 -0.1205
  384MOL0     C51751  11.045   5.583   5.996  0.0686  0.5207 -1.0240
  384MOL0     O51752  10.880   5.838   6.262 -0.1509  0.1572 -0.8183
  384MOL0     C51753  10.619   5.823   6.334  0.0966  0.3825  0.4142
  384MOL0     C51754  10.480   5.841   6.354 -0.3058  1.0230 -0.3892
  384MOL0     N51755  10.005   5.350   6.311  0.4047  0.4279  0.3547
  384MOL0     N51756   9.972   5.223   6.314  0.6642  0.4732 -0.0039
  384MOL0     C51757  10.364   5.578   6.805 -0.3179 -0.5781 -0.6060
  384MOL0     C51758  10.414   5.697   6.748  0.3854  0.3570  0.3380
  384MOL0     C51759  10.527   6.116   6.634  0.2786 -0.2828  0.0218
  384MOL0     C51760  10.417   6.190   6.644  0.4289  0.3674  0.3551
  384MOL0     C51761  10.419   6.323   6.617  0.3862  0.0226  0.1698
  384MOL0     C51762  10.533   6.383   6.562 -0.0298 -0.6860 -0.7952
  384MOL0     O51763  10.535   6.514   6.522  0.2197 -0.0436 -0.3189
  384MOL0     C51764  10.578   6.614   6.619  0.2746 -0.4424 -0.7253
  384MOL0     C51765  10.646   6.733   6.553 -0.4434 -0.8860  0.7172
  384MOL0     C51766  10.759   6.680   6.457  0.5292 -0.4891 -0.6012
  384MOL0     C51767  10.859   6.788   6.399  0.1257 -0.1611 -0.5682
  384MOL0     C51768  10.791   6.879   6.311 -0.1331  1.0339 -0.4191
  384MOL0     C51769  10.722   6.950   6.245  0.7965  1.2659 -0.5081
  384MOL0     C51770  10.645   6.304   6.548 -0.1438 -0.5679  0.5647
  384MOL0     C51771  10.647   6.173   6.580  0.9539  0.7504 -1.2445
  384MOL0     C51772  10.784   6.104   6.573  0.1503 -0.6570  0.0870
  384MOL0     H51773  10.188   5.924   6.835  3.4114  1.1612 -2.1875
  384MOL0     H51774  10.086   5.723   6.935  0.5846  0.1120  1.8713
  384MOL0     H51775  10.057   5.524   7.094 -1.2577 -0.9898 -0.3222
  384MOL0     H51776   9.986   5.521   6.928 -0.6700 -0.7358 -0.7872
  384MOL0     H51777   9.910   5.350   7.064 -1.5088  2.5668 -2.4759
  384MOL0     H51778  10.074   5.282   7.091  0.0001 -0.9461 -0.6407
  384MOL0     H51779  10.102   5.219   6.868 -0.1619 -2.2198  1.9629
  384MOL0     H51780   9.959   5.313   6.806 -1.6816 -0.5648  0.1982
  384MOL0     H51781   9.932   5.080   7.005 -0.6611  0.9926  0.1628
  384MOL0     H51782   9.801   5.146   6.910 -0.0760 -0.8154  0.0891
  384MOL0     H51783  10.022   4.995   6.759  0.9807 -1.5950  2.0562
  384MOL0     H51784   9.891   4.909   6.827  0.4015  0.1732  1.0011
  384MOL0     H51785   9.734   5.010   6.703 -1.1183  2.4595 -2.2099
  384MOL0     H51786   9.819   5.156   6.675 -1.1989  0.4649  2.2375
  384MOL0     H51787   9.809   5.002   6.468  1.1616  0.2219 -1.1576
  384MOL0     H51788   9.914   4.874   6.552  1.0379 -0.3646  0.8817
  384MOL0     H51789  10.094   5.015   6.534 -0.9483  1.1904  0.2510
  384MOL0     H51790  10.015   4.977   6.377  1.2199  0.8109 -0.6756
  384MOL0     H51791  10.061   5.264   6.617 -4.1479 -1.0525  0.2188
  384MOL0     H51792  10.025   5.555   6.568 -2.4791 -2.7135 -0.4700
  384MOL0     H51793  10.171   5.481   6.556 -1.4948 -2.5401 -0.0161
  384MOL0     H51794  10.188   5.583   6.299  0.6972  0.0714 -0.1271
  384MOL0     H51795  10.030   5.642   6.338  1.0632  0.2035  0.6832
  384MOL0     H51796  10.267   5.700   6.492  0.6470  1.3318  0.2149
  384MOL0     H51797  10.103   5.755   6.543 -0.6214  2.4551 -0.4227
  384MOL0     H51798  10.208   5.949   6.413 -0.3306  1.3191 -1.2731
  384MOL0     H51799  10.082   5.869   6.320 -1.4381 -1.2683  2.8087
  384MOL0     H51800  10.379   5.721   6.048 -0.9442  0.0578 -0.6452
  384MOL0     H51801  10.618   5.675   6.027  0.7893 -0.2681 -0.7780
  384MOL0     H51802  11.027   5.912   6.039 -0.0288 -0.0394  0.1468
  384MOL0     H51803  11.256   5.902   5.979  1.3301 -1.3940 -0.5711
  384MOL0     H51804  11.461   5.866   5.901 -0.1932 -0.8866 -1.9369
  384MOL0     H51805  11.483   5.801   6.066  2.8468  2.5034 -0.4792
  384MOL0     H51806  11.642   5.633   5.970 -0.5628 -1.4680 -2.2951
  384MOL0     H51807  11.638   5.719   5.818 -2.3893  1.4276 -0.1838
  384MOL0     H51808  11.717   5.928   5.927  1.0866  0.9557  0.8671
  384MOL0     H51809  11.745   5.843   6.072 -2.1182  2.9678 -0.1535
  384MOL0     H51810  11.946   5.866   5.925 -0.7269  0.4983 -1.9231
  384MOL0     H51811  11.857   5.763   5.807  0.5556  0.9426  0.5949
  384MOL0     H51812  11.879   5.569   5.925  0.2697 -0.4530  0.3694
  384MOL0     H51813  11.911   5.650   6.082 -0.1939 -1.8189  0.0323
  384MOL0     H51814  12.117   5.727   6.014 -3.3250 -0.4768  1.3572
  384MOL0     H51815  12.101   5.551   6.008  2.4265 -0.2457 -2.0963
  384MOL0     H51816  12.075   5.671   5.742  1.3402  0.3614 -1.3135
  384MOL0     H51817  12.141   5.517   5.804 -1.9572 -0.3893  3.3370
  384MOL0     H51818  12.317   5.690   5.717  3.3620 -1.3153  1.4046
  384MOL0     H51819  12.255   5.799   5.836 -1.0623 -0.0498 -2.6954
  384MOL0     H51820  11.227   5.483   5.932 -0.0708 -1.1397 -0.4428
  384MOL0     H51821  10.979   5.497   5.996  3.0829 -2.0870  2.6914
  384MOL0     H51822  10.694   5.835   6.411  1.6932 -2.1869 -0.5898
  384MOL0     H51823  10.449   5.886   6.449  1.4360  2.9108 -0.6424
  384MOL0     H51824  10.410   5.480   6.790  0.7480 -0.2960  0.6397
  384MOL0     H51825  10.495   5.695   6.676  0.4685  2.0867  0.3478
  384MOL0     H51826  10.328   6.147   6.689  1.3720  0.1237  2.0863
  384MOL0     H51827  10.332   6.388   6.620 -0.4078 -1.0677  2.4932
  384MOL0     H51828  10.641   6.570   6.696 -0.1732  0.2883  0.0841
  384MOL0     H51829  10.494   6.653   6.678 -0.3820 -0.0410 -1.8825
  384MOL0     H51830  10.701   6.792   6.627  1.3609  1.8355 -2.5331
  384MOL0     H51831  10.576   6.797   6.497 -0.0518 -1.0693  0.0062
  384MOL0     H51832  10.711   6.615   6.383 -1.5392 -1.3013  1.3336
  384MOL0     H51833  10.818   6.608   6.515  1.1027  2.1339  2.3215
  384MOL0     H51834  10.914   6.834   6.482  0.5001 -0.9332 -0.3757
  384MOL0     H51835  10.942   6.755   6.336  3.2211  4.3338  0.6317
  384MOL0     H51836  10.660   7.016   6.189 -2.2883 -1.2017 -0.2716
  384MOL0     H51837  10.731   6.355   6.504  1.2059 -2.7664  0.5251
  384MOL0     H51838  10.782   5.999   6.542  1.7330 -1.0842  1.2649
  384MOL0     H51839  10.836   6.155   6.491  1.2882 -4.0716 -1.4994
  384MOL0     H51840  10.832   6.110   6.671  0.3269  0.0980 -0.0443
  385MOL0     O51841  11.042   1.068   9.670 -0.0839 -0.1901  0.7303
  385MOL0     C51842  10.996   0.956   9.674 -0.0597 -0.8893 -0.2329
  385MOL0     O51843  11.040   0.854   9.604 -0.1520  0.3241  0.4961
  385MOL0     C51844  11.166   0.857   9.563 -0.4144  0.1943  0.3287
  385MOL0     C51845  11.191   0.862   9.426 -0.2635  1.1523  0.8841
  385MOL0     C51846  11.317   0.834   9.368 -0.7115 -1.6349 -1.1326
  385MOL0     C51847  11.419   0.793   9.455  1.0656  0.4824  0.1113
  385MOL0     O51848  11.542   0.754   9.417 -0.4332  0.1987  0.0226
  385MOL0     C51849  11.596   0.766   9.280  0.0825  0.1047  0.1310
  385MOL0     C51850  11.741   0.711   9.244 -0.5696  0.6667 -0.5340
  385MOL0     C51851  11.849   0.792   9.311 -0.4436 -0.1889  0.0769
  385MOL0     C51852  11.977   0.770   9.231 -0.0923  0.5259  0.1542
  385MOL0     C51853  12.102   0.818   9.299 -0.3947 -0.2582 -0.4494
  385MOL0     C51854  12.149   0.727   9.407  0.8300  0.2545 -0.2687
  385MOL0     C51855  12.259   0.792   9.488  0.7158 -0.1913 -0.5759
  385MOL0     C51856  12.391   0.804   9.408 -0.7159 -0.6235 -0.1360
  385MOL0     N51857  12.508   0.864   9.479 -0.2641 -0.3273  0.2989
  385MOL0     C51858  12.637   0.808   9.496 -0.4792 -0.0983 -0.0187
  385MOL0     C51859  12.706   0.913   9.557 -0.1573 -0.4258  0.4323
  385MOL0     C51860  12.851   0.912   9.604  0.0675 -0.1584 -0.8565
  385MOL0     C51861  12.952   0.963   9.495  0.1574  0.0501 -0.8532
  385MOL0     C51862  13.092   0.921   9.535  0.3309 -0.0062  0.3362
  385MOL0     C51863  13.204   0.998   9.459  0.0143 -0.7509  0.2496
  385MOL0     O51864  13.325   0.942   9.502  0.1267 -0.5702 -0.5966
  385MOL0     C51865  13.449   1.006   9.476 -0.0483 -0.6554  0.3544
  385MOL0     C51866  13.551   0.944   9.542  0.3332  0.2236  0.7784
  385MOL0     C51867  13.681   0.991   9.528 -0.0953  0.4291  0.1610
  385MOL0     C51868  13.708   1.097   9.434 -0.5472  0.1387  0.2054
  385MOL0     C51869  13.846   1.139   9.401 -0.2091 -0.2761  0.6899
  385MOL0     O51870  13.939   1.098   9.490  0.6282 -0.1555  0.3261
  385MOL0     C51871  14.075   1.112   9.466 -0.1129 -0.1085  0.1321
  385MOL0     C51872  14.134   1.059   9.357 -0.1102 -0.1998  0.1740
  385MOL0     C51873  14.270   1.070   9.337  0.3031  0.2509  0.4805
  385MOL0     C51874  14.351   1.129   9.432 -0.4413 -0.1958  0.0629
  385MOL0     O51875  14.485   1.132   9.416 -0.4027 -0.2095 -0.9450
  385MOL0     C51876  14.556   1.034   9.345  0.2648  0.2181 -0.7138
  385MOL0     C51877  14.707   1.055   9.345  0.0950 -0.2166 -0.8958
  385MOL0     C51878  14.742   1.203   9.310  0.6123 -0.1504  0.1009
  385MOL0     C51879  14.710   1.241   9.166 -0.2575 -0.0491 -0.4387
  385MOL0     C51880  14.668   1.394   9.146  0.6934 -0.3994 -0.1432
  385MOL0     C51881  14.518   1.441   9.197 -0.8879  0.4816  0.3688
  385MOL0     C51882  14.411   1.356   9.150  0.3319  0.7614 -0.5647
  385MOL0     C51883  14.278   1.437   9.125 -0.3837  0.2843  0.2312
  385MOL0    Cl51884  14.294   1.553   8.982  0.3270 -0.1210  0.1536
  385MOL0     C51885  14.297   1.181   9.543 -0.2845 -0.0092 -0.4450
  385MOL0     C51886  14.155   1.176   9.563 -0.4530  0.5440  0.2681
  385MOL0     O51887  13.877   1.200   9.297  0.1533 -0.7500 -0.1243
  385MOL0     C51888  13.604   1.161   9.376 -0.0988  0.0125  0.3903
  385MOL0     C51889  13.474   1.121   9.394  0.3145 -0.3926  0.4741
  385MOL0     N51890  12.615   1.011   9.593 -0.1319  0.6766  0.1098
  385MOL0     N51891  12.497   0.980   9.545 -0.0127 -0.0465  0.0714
  385MOL0     C51892  11.397   0.790   9.602  0.0385  0.4354  0.5777
  385MOL0     C51893  11.267   0.816   9.641  0.2567  0.1158 -0.3429
  385MOL0     C51894  10.879   0.943   9.756  0.7804  0.5471 -0.6487
  385MOL0     C51895  10.866   0.814   9.810 -0.3990 -0.1448 -0.5682
  385MOL0     C51896  10.755   0.780   9.895 -0.0548 -0.6180  0.4281
  385MOL0     C51897  10.658   0.876   9.926 -0.1685 -0.6486 -0.8069
  385MOL0     O51898  10.546   0.856   9.999 -0.1060 -0.1535 -0.6540
  385MOL0     C51899  10.551   0.735  10.085 -0.6685 -0.1766 -0.4412
  385MOL0     C51900  10.439   0.745  10.191  0.2338  0.6890  0.1553
  385MOL0     C51901  10.295   0.739  10.137  0.6103 -0.9814  0.1331
  385MOL0     C51902  10.185   0.804  10.220  0.8171 -0.5181 -0.2113
  385MOL0     C51903  10.178   0.730  10.340 -1.3745  0.3829 -0.2919
  385MOL0     C51904  10.186   0.674  10.446 -0.8846 -0.3686  0.3040
  385MOL0     C51905  10.681   1.001   9.875 -0.6730 -0.1654  0.5293
  385MOL0     C51906  10.789   1.040   9.794  0.4470  0.2323  0.4593
  385MOL0     C51907  10.798   1.194   9.767  0.4285  1.3848  0.0951
  385MOL0     H51908  11.112   0.889   9.356  1.9463 -1.2434 -2.8766
  385MOL0     H51909  11.326   0.848   9.261 -0.0476  1.3483 -0.7698
  385MOL0     H51910  11.526   0.716   9.212  0.9663 -1.3051  0.2097
  385MOL0     H51911  11.603   0.870   9.248  0.4667  0.4903  1.3852
  385MOL0     H51912  11.748   0.712   9.135  1.0636  3.3375 -0.4906
  385MOL0     H51913  11.747   0.605   9.270 -2.7665  0.9463  1.4375
  385MOL0     H51914  11.857   0.751   9.412  0.6834 -1.1444 -0.3656
  385MOL0     H51915  11.821   0.897   9.308 -1.8783 -0.5631 -0.3026
  385MOL0     H51916  11.982   0.665   9.204 -0.3062  0.8180 -1.0974
  385MOL0     H51917  11.968   0.830   9.140 -0.4935  0.6248  0.2567
  385MOL0     H51918  12.184   0.847   9.233 -1.9594  0.4674 -2.1745
  385MOL0     H51919  12.089   0.917   9.345  2.2051 -0.5698  1.1332
  385MOL0     H51920  12.065   0.703   9.474  0.2247  2.1702 -0.2647
  385MOL0     H51921  12.183   0.633   9.363  0.1561 -1.1709  2.0844
  385MOL0     H51922  12.284   0.731   9.575  1.5942 -0.4977 -1.0347
  385MOL0     H51923  12.229   0.894   9.512 -0.6598 -0.7244  0.1336
  385MOL0     H51924  12.422   0.700   9.392  1.3907 -0.0542  0.0342
  385MOL0     H51925  12.370   0.860   9.317 -0.4294 -0.8327 -0.3286
  385MOL0     H51926  12.677   0.720   9.448  2.1840  0.7524  0.4527
  385MOL0     H51927  12.859   0.968   9.698  1.9635 -2.3041  0.3488
  385MOL0     H51928  12.873   0.808   9.626 -0.1018  0.1072  0.6708
  385MOL0     H51929  12.930   0.908   9.403 -1.7221 -2.5816  1.0344
  385MOL0     H51930  12.943   1.071   9.478 -1.4776 -0.0534 -0.8523
  385MOL0     H51931  13.103   0.812   9.525  2.8307  0.2189  0.0040
  385MOL0     H51932  13.105   0.950   9.639 -1.2536  1.7223  0.1088
  385MOL0     H51933  13.208   1.102   9.494  0.9242 -0.9374  0.7398
  385MOL0     H51934  13.192   0.990   9.351 -1.9540 -2.9307  0.5459
  385MOL0     H51935  13.509   0.862   9.599 -0.5321  1.7488  2.4097
  385MOL0     H51936  13.761   0.944   9.584  2.5534  3.1574 -1.0609
  385MOL0     H51937  14.082   1.004   9.280 -0.9126  0.9247 -0.1231
  385MOL0     H51938  14.317   1.033   9.247  1.4186  1.1315  0.6798
  385MOL0     H51939  14.530   0.938   9.390 -0.4187 -1.0208 -3.5846
  385MOL0     H51940  14.517   1.020   9.244 -0.3845 -0.3709 -0.3879
  385MOL0     H51941  14.736   1.042   9.450 -1.2060  0.6850 -0.3988
  385MOL0     H51942  14.761   0.989   9.277 -0.6948 -4.3002  2.0948
  385MOL0     H51943  14.689   1.268   9.380 -0.5167 -0.6636 -0.2590
  385MOL0     H51944  14.845   1.235   9.330  0.0849  0.8202  1.4214
  385MOL0     H51945  14.626   1.176   9.141  2.1950 -3.9953  0.6710
  385MOL0     H51946  14.795   1.207   9.107  0.1635 -0.4680  0.3925
  385MOL0     H51947  14.657   1.419   9.040 -0.7172  1.7709  0.4405
  385MOL0     H51948  14.743   1.462   9.187 -0.2847  0.5377  0.1336
  385MOL0     H51949  14.511   1.438   9.306 -1.8412 -0.8674  0.2960
  385MOL0     H51950  14.510   1.545   9.167  1.6491  0.4325 -0.7232
  385MOL0     H51951  14.383   1.283   9.226 -1.7629  1.4754 -0.6032
  385MOL0     H51952  14.440   1.306   9.057 -0.9104 -0.3969 -0.3498
  385MOL0     H51953  14.197   1.366   9.106 -0.1636  0.0280  0.2543
  385MOL0     H51954  14.249   1.494   9.214 -0.4760 -0.9457  1.0039
  385MOL0     H51955  14.354   1.222   9.626 -0.3360 -2.4464  0.8788
  385MOL0     H51956  14.116   1.203   9.661  1.8696 -1.2783  1.7856
  385MOL0     H51957  13.623   1.245   9.310  1.7971  1.6544  2.8265
  385MOL0     H51958  13.397   1.178   9.344 -0.1017  0.6754  2.2528
  385MOL0     H51959  11.460   0.733   9.670 -0.9038 -1.4377 -0.0252
  385MOL0     H51960  11.246   0.783   9.743  2.3273 -1.4146 -0.3314
  385MOL0     H51961  10.956   0.754   9.802 -0.5635 -0.3859 -0.6151
  385MOL0     H51962  10.754   0.677   9.931  1.2226 -0.9397 -0.3784
  385MOL0     H51963  10.638   0.738  10.151 -0.7195  1.0537 -0.3959
  385MOL0     H51964  10.543   0.644  10.024 -2.2090 -0.9807  0.8749
  385MOL0     H51965  10.450   0.828  10.262 -4.6450  1.2205  0.6747
  385MOL0     H51966  10.449   0.652  10.247 -2.3330  1.2062  1.6719
  385MOL0     H51967  10.267   0.634  10.129  0.3074 -1.0817  2.0188
  385MOL0     H51968  10.298   0.788  10.040 -0.8454  0.0908  0.5897
  385MOL0     H51969  10.227   0.903  10.240 -0.9437 -0.0241  1.3091
  385MOL0     H51970  10.089   0.811  10.168 -1.1490  0.3298  3.2459
  385MOL0     H51971  10.192   0.629  10.542 -0.8820 -3.0827 -0.8839
  385MOL0     H51972  10.620   1.085   9.908  0.8061  1.5381 -0.8494
  385MOL0     H51973  10.710   1.250   9.801  0.3258  1.1611  0.2004
  385MOL0     H51974  10.882   1.240   9.819 -0.2358 -0.5610  3.0782
  385MOL0     H51975  10.809   1.209   9.659  1.5736 -0.9162 -0.1652
  386MOL0     O51976   3.560   0.580   6.869 -0.0408  0.5977  0.5164
  386MOL0     C51977   3.514   0.687   6.848 -0.5287 -0.4461 -0.3354
  386MOL0     O51978   3.580   0.805   6.860  0.1235 -0.4011 -0.0205
  386MOL0     C51979   3.719   0.792   6.842 -0.9898 -0.4075  0.0442
  386MOL0     C51980   3.792   0.807   6.718 -0.1108  0.4022 -0.0855
  386MOL0     C51981   3.931   0.810   6.707 -0.6476  0.1240 -0.1902
  386MOL0     C51982   4.012   0.792   6.818  0.7051  0.2871  0.4520
  386MOL0     O51983   4.148   0.785   6.810 -0.4229  0.1121  0.2233
  386MOL0     C51984   4.197   0.703   6.702  0.2938 -0.6220 -0.1337
  386MOL0     C51985   4.333   0.643   6.726  0.1405  0.7011 -0.0780
  386MOL0     C51986   4.448   0.751   6.729  0.1167  0.1752  0.5074
  386MOL0     C51987   4.553   0.702   6.635 -0.3941 -0.1090 -0.2098
  386MOL0     C51988   4.679   0.799   6.638  0.6742 -0.2187 -0.4153
  386MOL0     C51989   4.804   0.728   6.601 -1.1947  0.4936 -0.4605
  386MOL0     C51990   4.926   0.826   6.588  1.0012  0.4518  0.1344
  386MOL0     C51991   4.920   0.908   6.458  0.1538 -0.2029 -0.2794
  386MOL0     N51992   5.035   1.002   6.450  0.6588 -0.2470  0.6754
  386MOL0     C51993   5.163   0.972   6.418  0.5959  1.0661  0.8746
  386MOL0     C51994   5.219   1.087   6.406  0.0150 -0.5420  0.0248
  386MOL0     C51995   5.352   1.106   6.336  0.0772  0.2147 -0.4798
  386MOL0     C51996   5.477   1.044   6.407 -0.5141  0.0714 -0.4845
  386MOL0     C51997   5.476   1.082   6.556 -0.5446 -0.4470  0.3166
  386MOL0     C51998   5.604   1.036   6.633 -0.7302 -0.1009 -0.4221
  386MOL0     O51999   5.588   0.916   6.702  0.0021 -1.1475 -0.1434
  386MOL0     C52000   5.696   0.850   6.756  0.8296 -0.8263 -0.8830
  386MOL0     C52001   5.819   0.914   6.782  0.4870 -0.7701  0.9795
  386MOL0     C52002   5.930   0.833   6.820  0.2003  0.1708  0.6903
  386MOL0     C52003   5.917   0.689   6.815  0.1808 -0.5892  0.0083
  386MOL0     C52004   6.035   0.598   6.833  0.6838 -0.7583 -0.1448
  386MOL0     O52005   6.009   0.468   6.804  0.5188  0.0772  0.6178
  386MOL0     C52006   6.110   0.383   6.782  0.0281 -0.0730 -0.1577
  386MOL0     C52007   6.196   0.349   6.881 -0.8188 -0.6556 -0.9129
  386MOL0     C52008   6.312   0.272   6.856 -0.5647 -0.3679 -0.2981
  386MOL0     C52009   6.331   0.229   6.721 -0.4070  0.1515  0.3690
  386MOL0     O52010   6.443   0.160   6.682  0.1331  0.3732 -0.1158
  386MOL0     C52011   6.499   0.053   6.766 -0.2348 -0.2810  0.1163
  386MOL0     C52012   6.653   0.079   6.778 -0.5197 -0.5898  1.2847
  386MOL0     C52013   6.727  -0.011   6.877  0.5095 -0.2703  0.4975
  386MOL0     C52014   6.882   0.013   6.882  0.0930  0.0329  0.9864
  386MOL0     C52015   6.965  -0.079   6.784 -0.1717 -1.0615 -0.1242
  386MOL0     C52016   6.975  -0.220   6.833  0.1477 -0.0216  0.5037
  386MOL0     C52017   7.100  -0.300   6.791 -0.4510  0.2655  0.2183
  386MOL0     C52018   7.227  -0.232   6.836  0.6073  0.9536  0.0879
  386MOL0    Cl52019   7.218  -0.162   7.005  0.3799  0.2441 -0.2581
  386MOL0     C52020   6.234   0.248   6.618 -0.3774 -0.2886 -0.8459
  386MOL0     C52021   6.120   0.326   6.653 -0.5291 -0.3849 -0.0018
  386MOL0     O52022   6.146   0.644   6.862 -0.0159  0.8820 -0.4612
  386MOL0     C52023   5.793   0.635   6.789  0.3877 -0.1848  0.4280
  386MOL0     C52024   5.675   0.717   6.774 -0.3235  1.2967  0.1944
  386MOL0     N52025   5.139   1.195   6.446  0.5825 -0.2760 -0.1164
  386MOL0     N52026   5.022   1.137   6.466 -0.4265  0.2584 -0.1320
  386MOL0     C52027   3.949   0.786   6.941 -0.0312 -0.8004  0.0044
  386MOL0     C52028   3.811   0.774   6.953 -0.6001  0.0666  0.0752
  386MOL0     C52029   3.362   0.703   6.860  0.6706 -0.0604  0.2127
  386MOL0     C52030   3.300   0.624   6.967  0.7681 -0.3751  0.2526
  386MOL0     C52031   3.167   0.639   6.998 -0.1462 -0.1156 -0.4377
  386MOL0     C52032   3.088   0.726   6.929  0.1039 -0.3028  0.5684
  386MOL0     O52033   2.958   0.725   6.966 -0.1285 -0.3315 -0.4386
  386MOL0     C52034   2.853   0.730   6.870  0.4604  0.2389 -0.5220
  386MOL0     C52035   2.752   0.830   6.925 -0.6602  0.5755 -0.5537
  386MOL0     C52036   2.816   0.957   6.990 -0.2509  0.3400  0.0343
  386MOL0     C52037   2.719   1.062   7.038 -0.0623 -0.4973 -0.5987
  386MOL0     C52038   2.654   1.013   7.159  0.2788  0.5552  0.3713
  386MOL0     C52039   2.592   0.968   7.250 -0.6500 -0.5849 -0.4736
  386MOL0     C52040   3.146   0.804   6.830 -1.2265  0.3791  0.2372
  386MOL0     C52041   3.279   0.798   6.788 -1.1079  0.1623 -0.7082
  386MOL0     C52042   3.336   0.893   6.684  0.2840  0.1934  0.3429
  386MOL0     H52043   3.735   0.843   6.633 -3.0036 -0.8475  1.2237
  386MOL0     H52044   3.964   0.838   6.607  0.4576 -1.5794 -0.3599
  386MOL0     H52045   4.120   0.626   6.688 -0.2670 -0.5278  2.0988
  386MOL0     H52046   4.189   0.744   6.601 -2.5170  0.3244  0.4078
  386MOL0     H52047   4.349   0.568   6.647 -2.4792  0.0604 -0.0928
  386MOL0     H52048   4.328   0.582   6.817  0.8476  4.1789  2.4740
  386MOL0     H52049   4.473   0.774   6.833 -1.7434 -0.8015  1.2270
  386MOL0     H52050   4.420   0.837   6.668 -3.2652 -2.2767 -1.7342
  386MOL0     H52051   4.583   0.601   6.666  2.3579  1.1578  1.7784
  386MOL0     H52052   4.515   0.702   6.533 -0.7554  2.5588 -0.1427
  386MOL0     H52053   4.663   0.890   6.580  0.2862  0.9523  1.4327
  386MOL0     H52054   4.699   0.821   6.744  0.6987 -1.1848 -0.2077
  386MOL0     H52055   4.836   0.656   6.677  0.6950  0.7636 -0.9271
  386MOL0     H52056   4.788   0.662   6.516 -0.2327 -0.8415  0.3608
  386MOL0     H52057   5.012   0.758   6.582 -0.7946 -1.8876 -0.5656
  386MOL0     H52058   4.936   0.889   6.676 -4.0587  2.6987 -0.5609
  386MOL0     H52059   4.907   0.842   6.372 -0.8594 -0.4582  0.0429
  386MOL0     H52060   4.828   0.965   6.441 -0.1923 -1.3514 -2.6439
  386MOL0     H52061   5.193   0.878   6.373 -1.7613  0.6630  0.0130
  386MOL0     H52062   5.339   1.056   6.240 -0.4084  0.8736 -0.7616
  386MOL0     H52063   5.357   1.214   6.318 -1.1305  0.0788 -1.6967
  386MOL0     H52064   5.491   0.938   6.385 -0.1821  0.1958 -0.8908
  386MOL0     H52065   5.567   1.080   6.356  1.6358 -2.0739  1.5425
  386MOL0     H52066   5.389   1.044   6.610  0.9639 -1.6082  2.0401
  386MOL0     H52067   5.490   1.191   6.558  2.8246 -0.7673  1.8118
  386MOL0     H52068   5.633   1.112   6.706 -1.1211 -1.2380  0.9547
  386MOL0     H52069   5.689   1.029   6.565  0.7407  2.1638  1.0555
  386MOL0     H52070   5.828   1.021   6.766 -0.7794 -0.9477 -1.4256
  386MOL0     H52071   6.026   0.880   6.837  0.5609 -1.2753  3.1355
  386MOL0     H52072   6.175   0.396   6.976  0.7693  1.0651 -1.3539
  386MOL0     H52073   6.398   0.261   6.921  0.2186  0.0507 -1.2328
  386MOL0     H52074   6.451   0.042   6.864  0.8829 -5.0924  0.3562
  386MOL0     H52075   6.492  -0.043   6.714  1.2321 -0.3531  0.0345
  386MOL0     H52076   6.692   0.055   6.679  0.2745  1.4234  1.0567
  386MOL0     H52077   6.683   0.181   6.802 -0.3253 -0.3379  0.0332
  386MOL0     H52078   6.688   0.019   6.974 -1.4062 -2.6500  0.5593
  386MOL0     H52079   6.707  -0.114   6.846 -2.6971  1.0654 -2.7223
  386MOL0     H52080   6.907  -0.010   6.986 -0.3461 -0.0715  1.0698
  386MOL0     H52081   6.895   0.119   6.856 -0.7120 -0.2458 -0.7086
  386MOL0     H52082   7.068  -0.042   6.789  0.4676 -2.7389 -0.3934
  386MOL0     H52083   6.932  -0.062   6.681  1.5742 -0.6783 -0.6489
  386MOL0     H52084   6.954  -0.235   6.940  0.2549  0.0772  0.5391
  386MOL0     H52085   6.901  -0.282   6.781  1.7341 -1.4707 -0.1488
  386MOL0     H52086   7.101  -0.316   6.682 -1.1042 -1.7205  0.4598
  386MOL0     H52087   7.095  -0.400   6.835  0.6756  0.3273  0.5123
  386MOL0     H52088   7.312  -0.301   6.841 -1.0472 -1.0934  2.9143
  386MOL0     H52089   7.252  -0.162   6.756 -3.0318  1.0726 -1.1382
  386MOL0     H52090   6.243   0.213   6.516  0.2355  3.3518 -2.1990
  386MOL0     H52091   6.049   0.370   6.583  2.3636  2.4666 -1.4133
  386MOL0     H52092   5.771   0.529   6.792 -0.2935 -0.1119  4.9523
  386MOL0     H52093   5.589   0.660   6.742  1.0351 -1.6321  1.4157
  386MOL0     H52094   4.001   0.807   7.034 -3.9431  1.1983  1.9629
  386MOL0     H52095   3.775   0.760   7.054 -2.0008  2.3657 -0.0166
  386MOL0     H52096   3.363   0.549   7.013  2.2474 -0.2397 -1.4450
  386MOL0     H52097   3.122   0.599   7.088 -2.8353  0.6190 -1.3419
  386MOL0     H52098   2.804   0.636   6.846 -1.0629  0.9036 -0.1280
  386MOL0     H52099   2.892   0.775   6.778  1.9204  3.5829  1.5371
  386MOL0     H52100   2.688   0.770   6.991  0.9102 -1.7970 -1.0523
  386MOL0     H52101   2.685   0.860   6.844  0.7662 -2.2979 -2.9996
  386MOL0     H52102   2.882   1.004   6.917  0.0057 -0.1670 -0.0666
  386MOL0     H52103   2.877   0.919   7.073  0.5216  1.0463 -0.1972
  386MOL0     H52104   2.768   1.154   7.070 -0.9392 -0.7657  1.6784
  386MOL0     H52105   2.647   1.088   6.960 -1.9656 -1.8920  0.6164
  386MOL0     H52106   2.535   0.917   7.326 -1.0374  1.7209  0.8645
  386MOL0     H52107   3.089   0.869   6.765 -1.8374 -0.4559 -0.0803
  386MOL0     H52108   3.381   0.979   6.735  0.9899 -0.8850  1.5998
  386MOL0     H52109   3.414   0.842   6.628  0.8513  1.2359  0.1605
  386MOL0     H52110   3.261   0.937   6.617 -0.5186 -2.1289 -0.3641
  387MOL0     O52111   1.325  11.191   0.213  0.1620 -0.0420 -0.3163
  387MOL0     C52112   1.258  11.292   0.205 -0.1690 -0.2117 -0.3275
  387MOL0     O52113   1.302  11.409   0.144  0.3037 -0.0616  0.1052
  387MOL0     C52114   1.435  11.414   0.108 -0.3192  0.3877 -0.4851
  387MOL0     C52115   1.508  11.527   0.155 -0.4254  1.0610  0.2259
  387MOL0     C52116   1.647  11.540   0.138  0.8476 -0.0995 -0.0495
  387MOL0     C52117   1.712  11.439   0.064 -0.0189 -0.3041  0.0900
  387MOL0     O52118   1.844  11.450   0.052 -0.2130 -0.1571 -0.0573
  387MOL0     C52119   1.926  11.329   0.019 -0.0934 -1.1763 -0.2098
  387MOL0     C52120   2.008  11.366  -0.110  0.4922  0.7094 -0.2549
  387MOL0     C52121   2.150  11.306  -0.118 -0.5973 -0.5630  0.3278
  387MOL0     C52122   2.202  11.331  -0.248  0.3349 -0.0084 -0.0195
  387MOL0     C52123   2.345  11.270  -0.264 -0.3735  0.1802 -0.5161
  387MOL0     C52124   2.399  11.301  -0.400 -0.5166  0.0531 -0.3134
  387MOL0     C52125   2.543  11.232  -0.413  1.3466  0.0443 -0.2747
  387MOL0     C52126   2.588  11.238  -0.556  0.5850  1.1106  0.2529
  387MOL0     N52127   2.681  11.127  -0.584  0.0298  0.0802 -0.5887
  387MOL0     C52128   2.812  11.151  -0.593  0.8025  1.0045  0.6162
  387MOL0     C52129   2.855  11.034  -0.641 -0.1399  0.3320  0.7481
  387MOL0     C52130   2.998  10.993  -0.663 -0.5400 -0.0128 -0.6424
  387MOL0     C52131   3.096  11.040  -0.556 -0.1562 -0.1605 -0.2825
  387MOL0     C52132   3.067  10.984  -0.410 -0.0054  0.2103  0.0971
  387MOL0     C52133   3.037  10.831  -0.402 -0.5764 -0.4420 -0.3264
  387MOL0     O52134   3.159  10.766  -0.441  0.1777 -0.2334 -0.2549
  387MOL0     C52135   3.183  10.635  -0.412 -0.1115  0.2792 -0.6729
  387MOL0     C52136   3.101  10.545  -0.354 -0.4652 -0.3390  0.0973
  387MOL0     C52137   3.148  10.417  -0.329  0.5823  0.9119 -0.0778
  387MOL0     C52138   3.277  10.384  -0.341  0.7512 -0.3455  0.1204
  387MOL0     C52139   3.324  10.250  -0.299 -1.0265  0.1626  1.0650
  387MOL0     O52140   3.231  10.146  -0.287 -0.0926 -0.6050 -0.6049
  387MOL0     C52141   3.265  10.020  -0.255 -0.2743 -0.2658 -1.4498
  387MOL0     C52142   3.385   9.949  -0.269  0.7876 -0.1583  0.4405
  387MOL0     C52143   3.399   9.815  -0.236  0.3738  0.5420  0.3170
  387MOL0     C52144   3.286   9.754  -0.187  0.1892 -0.4766 -1.1682
  387MOL0     O52145   3.303   9.632  -0.140  0.1501  0.0952 -0.3372
  387MOL0     C52146   3.272   9.608   0.005 -0.2796  0.1485  0.0368
  387MOL0     C52147   3.362   9.683   0.101 -0.4770  0.6388  0.2657
  387MOL0     C52148   3.507   9.651   0.085  0.3367  0.0009 -0.2068
  387MOL0     C52149   3.545   9.509   0.127  0.0051 -0.6900  0.3316
  387MOL0     C52150   3.686   9.472   0.072  0.3604 -0.8407 -0.0059
  387MOL0     C52151   3.737   9.335   0.121  0.1609 -0.6613 -0.0252
  387MOL0     C52152   3.871   9.301   0.058 -0.0700 -0.0743  0.5230
  387MOL0     C52153   3.911   9.156   0.107 -0.0636 -0.3748 -0.0574
  387MOL0    Cl52154   3.926   9.144   0.278 -0.2332 -0.1529  0.0321
  387MOL0     C52155   3.160   9.815  -0.193 -0.0587 -0.6095 -0.4167
  387MOL0     C52156   3.149   9.947  -0.229 -0.2831 -0.1561 -1.1216
  387MOL0     O52157   3.440  10.245  -0.274 -0.0635 -0.1774 -1.1869
  387MOL0     C52158   3.365  10.481  -0.404 -0.2454  0.4617  0.5962
  387MOL0     C52159   3.313  10.600  -0.450 -0.7746 -0.2113 -0.6126
  387MOL0     N52160   2.753  10.945  -0.652  0.2372 -0.3022  0.5009
  387MOL0     N52161   2.645  11.002  -0.608  0.4249 -0.4269 -0.0837
  387MOL0     C52162   1.637  11.343   0.002 -0.4337  1.0786  0.2098
  387MOL0     C52163   1.500  11.325   0.023 -1.4200 -0.6015 -0.1957
  387MOL0     C52164   1.112  11.295   0.266 -0.1491  0.1406  0.3096
  387MOL0     C52165   1.037  11.415   0.262 -0.4146  0.7456  0.0223
  387MOL0     C52166   0.905  11.426   0.309 -0.1230 -0.0192  0.2352
  387MOL0     C52167   0.857  11.317   0.378  0.3433 -0.2470 -0.5123
  387MOL0     O52168   0.740  11.344   0.437  0.3698 -0.4272 -0.2404
  387MOL0     C52169   0.657  11.241   0.503 -0.8275  0.2415  0.2880
  387MOL0     C52170   0.526  11.303   0.549 -1.1553  0.0287  0.6486
  387MOL0     C52171   0.446  11.374   0.436 -0.0283  0.3561  1.0515
  387MOL0     C52172   0.428  11.293   0.309  0.1988  0.3118 -0.2933
  387MOL0     C52173   0.337  11.177   0.328  0.0626  0.0757 -0.4341
  387MOL0     C52174   0.247  11.096   0.331  0.1357 -0.3366 -0.1672
  387MOL0     C52175   0.928  11.202   0.394 -0.0950  0.8214  0.4512
  387MOL0     C52176   1.051  11.181   0.336 -0.4680  0.2926  0.8349
  387MOL0     C52177   1.110  11.042   0.344  0.4235 -0.3525 -0.4073
  387MOL0     H52178   1.459  11.595   0.223  1.3061  2.8914 -0.2521
  387MOL0     H52179   1.694  11.623   0.189 -0.0508  1.4785 -1.7121
  387MOL0     H52180   2.005  11.316   0.094 -2.1643 -0.3835  2.2779
  387MOL0     H52181   1.868  11.237   0.024 -3.3216  0.7541  1.4061
  387MOL0     H52182   2.004  11.474  -0.128  1.5113  1.0742  1.4842
  387MOL0     H52183   1.948  11.316  -0.186  1.2821 -2.6113  1.1211
  387MOL0     H52184   2.153  11.199  -0.099  4.5495 -0.7853 -0.3257
  387MOL0     H52185   2.217  11.344  -0.040  0.4673 -1.9463  0.1201
  387MOL0     H52186   2.139  11.285  -0.324 -0.8378  1.6561 -0.1239
  387MOL0     H52187   2.205  11.440  -0.263  0.7317  0.1618  1.1709
  387MOL0     H52188   2.410  11.310  -0.185  0.6312  0.1923 -1.3295
  387MOL0     H52189   2.347  11.161  -0.257  1.6077 -0.1210 -3.8341
  387MOL0     H52190   2.332  11.274  -0.482 -0.5047  1.7924 -0.9286
  387MOL0     H52191   2.403  11.410  -0.408  1.0200  0.5582  4.2868
  387MOL0     H52192   2.533  11.126  -0.385 -1.1826 -0.3950 -2.5260
  387MOL0     H52193   2.620  11.288  -0.359  2.9330 -1.2294 -1.1255
  387MOL0     H52194   2.502  11.230  -0.623  0.4275  1.1912  0.4441
  387MOL0     H52195   2.630  11.336  -0.583 -0.6878  1.5484 -0.2056
  387MOL0     H52196   2.875  11.237  -0.575  3.6998 -0.7593 -0.3517
  387MOL0     H52197   2.994  10.883  -0.666  1.0480 -0.0730 -2.8036
  387MOL0     H52198   3.035  11.020  -0.762  1.9795 -1.4143 -0.1704
  387MOL0     H52199   3.200  11.014  -0.577  0.6747  1.9296  0.9671
  387MOL0     H52200   3.091  11.149  -0.556  1.4694 -0.0473  0.8588
  387MOL0     H52201   2.985  11.041  -0.364  0.8137  2.6064 -1.2139
  387MOL0     H52202   3.156  10.992  -0.347  1.1475 -2.8834 -0.9632
  387MOL0     H52203   2.956  10.807  -0.472  0.4499 -1.1027 -1.3143
  387MOL0     H52204   3.014  10.802  -0.299  1.6968 -0.8016  0.1351
  387MOL0     H52205   2.997  10.570  -0.335 -0.7344  0.7023 -2.3480
  387MOL0     H52206   3.080  10.343  -0.290  0.1851 -0.6146 -3.3392
  387MOL0     H52207   3.477   9.998  -0.301 -0.5336  1.3012 -1.3336
  387MOL0     H52208   3.497   9.770  -0.235  0.2267 -0.0218  4.1401
  387MOL0     H52209   3.167   9.628   0.031  0.1473 -1.6596  3.9133
  387MOL0     H52210   3.290   9.501   0.014 -1.4509 -0.2088 -1.4216
  387MOL0     H52211   3.342   9.785   0.068 -0.0708  0.1930 -1.4611
  387MOL0     H52212   3.327   9.666   0.204 -0.6242  2.9188  0.6386
  387MOL0     H52213   3.530   9.662  -0.021  0.0396 -0.3869 -0.3169
  387MOL0     H52214   3.564   9.731   0.133  1.3791  0.3228 -1.9007
  387MOL0     H52215   3.472   9.439   0.086 -1.4473  1.3142 -0.6694
  387MOL0     H52216   3.539   9.496   0.235 -0.6410  0.0226  0.3917
  387MOL0     H52217   3.745   9.555   0.112  0.1891 -1.1342  0.8911
  387MOL0     H52218   3.692   9.470  -0.037  2.2817  2.7405 -0.1282
  387MOL0     H52219   3.741   9.337   0.230  1.0716 -0.7047 -0.0497
  387MOL0     H52220   3.670   9.254   0.090 -0.0677 -0.2962 -0.4894
  387MOL0     H52221   3.950   9.368   0.092 -0.6535 -1.0717  4.2892
  387MOL0     H52222   3.869   9.309  -0.051 -3.7584  1.7194  0.5604
  387MOL0     H52223   3.837   9.085   0.068 -0.7826 -0.1814  0.9205
  387MOL0     H52224   4.005   9.120   0.064 -1.1182 -4.3941  0.5981
  387MOL0     H52225   3.071   9.758  -0.170 -1.2715  2.2381  3.0047
  387MOL0     H52226   3.045   9.978  -0.224 -0.7778 -1.8611  2.1547
  387MOL0     H52227   3.468  10.454  -0.427 -0.4943  0.7229 -0.9024
  387MOL0     H52228   3.370  10.665  -0.514 -1.5751 -0.7721 -1.9340
  387MOL0     H52229   1.679  11.273  -0.069 -1.6552 -0.7920  1.2515
  387MOL0     H52230   1.451  11.238  -0.020  1.8318 -2.2589 -0.8795
  387MOL0     H52231   1.077  11.510   0.228 -2.0422  1.4979  0.1214
  387MOL0     H52232   0.843  11.515   0.307 -2.5049 -1.6099 -1.0828
  387MOL0     H52233   0.699  11.206   0.598 -1.6458  0.8205  0.8743
  387MOL0     H52234   0.632  11.156   0.438 -1.3963  0.7087 -0.1205
  387MOL0     H52235   0.544  11.384   0.621  1.3328  1.2861 -1.2146
  387MOL0     H52236   0.465  11.227   0.599 -2.6990  0.6625 -0.2126
  387MOL0     H52237   0.504  11.464   0.412 -0.2032  0.5943  1.5010
  387MOL0     H52238   0.346  11.403   0.472 -0.0002  3.5462 -1.0105
  387MOL0     H52239   0.385  11.353   0.228  2.1998  0.5895 -1.2189
  387MOL0     H52240   0.524  11.258   0.270 -1.0371 -3.0198 -0.6892
  387MOL0     H52241   0.177  11.016   0.317 -2.3370  1.0831  2.9703
  387MOL0     H52242   0.890  11.120   0.455  0.1289  1.6400  1.7273
  387MOL0     H52243   1.029  10.969   0.330 -1.2775  1.8859 -3.4724
  387MOL0     H52244   1.177  11.012   0.263 -0.2602 -0.7125 -0.8581
  387MOL0     H52245   1.160  11.027   0.440 -1.4409 -4.1342  0.1626
  388MOL0     O52246   8.237   1.096   0.849 -0.2612  0.8438 -0.1181
  388MOL0     C52247   8.215   1.127   0.964  0.6104 -0.4139 -0.1533
  388MOL0     O52248   8.303   1.173   1.054  0.3087 -0.7042 -0.1183
  388MOL0     C52249   8.425   1.205   1.006 -0.4386  0.2877  0.7366
  388MOL0     C52250   8.538   1.132   1.037  0.4694  0.3841  0.2559
  388MOL0     C52251   8.663   1.174   0.989 -0.0120 -0.4847 -0.0897
  388MOL0     C52252   8.677   1.283   0.906 -0.5231  0.3436 -0.1607
  388MOL0     O52253   8.809   1.312   0.867  0.4150 -0.2955 -1.2774
  388MOL0     C52254   8.831   1.274   0.730  0.6503 -1.1510  0.2122
  388MOL0     C52255   8.893   1.128   0.720  0.7878 -0.2799 -0.3497
  388MOL0     C52256   8.963   1.117   0.586  0.3115 -0.6515  0.6525
  388MOL0     C52257   9.062   0.996   0.578 -0.5835 -0.3252 -0.4893
  388MOL0     C52258   9.187   1.024   0.661 -0.1644 -0.1250  0.1367
  388MOL0     C52259   9.313   0.971   0.583 -0.1637 -0.0329 -0.1355
  388MOL0     C52260   9.440   0.946   0.660  0.2076 -0.7139  0.4260
  388MOL0     C52261   9.536   0.866   0.583  0.6069 -1.4801  0.6183
  388MOL0     N52262   9.613   0.936   0.479 -0.4775 -0.2635 -0.4919
  388MOL0     C52263   9.626   0.898   0.347 -0.2593  0.0803 -0.0130
  388MOL0     C52264   9.729   0.979   0.294 -0.3733 -0.2058 -0.0005
  388MOL0     C52265   9.775   0.984   0.155  0.2403 -0.0237 -0.6019
  388MOL0     C52266   9.891   0.874   0.120  0.9701  0.6370 -0.8609
  388MOL0     C52267  10.002   0.879   0.221  0.2195 -0.1728  0.0457
  388MOL0     C52268  10.133   0.815   0.179 -0.2193 -0.4488 -0.6322
  388MOL0     O52269  10.159   0.851   0.038 -0.0527  0.3450 -1.0238
  388MOL0     C52270  10.288   0.847  -0.006  0.4439  0.5585  0.6808
  388MOL0     C52271  10.395   0.797   0.079 -0.2347  0.1794 -0.0876
  388MOL0     C52272  10.529   0.789   0.032 -0.0865  0.3910 -0.6355
  388MOL0     C52273  10.554   0.825  -0.100  0.2242 -0.5073  0.8335
  388MOL0     C52274  10.688   0.824  -0.156  0.2377 -0.0718 -0.7691
  388MOL0     O52275  10.716   0.882  -0.275 -0.5922 -0.7606  0.7546
  388MOL0     C52276  10.847   0.877  -0.322  1.4566 -0.2462 -0.1724
  388MOL0     C52277  10.923   0.991  -0.321  0.1374  0.3319  0.3951
  388MOL0     C52278  11.052   0.994  -0.350 -0.3536  0.2627  0.4761
  388MOL0     C52279  11.120   0.869  -0.384 -0.1049 -0.1805  0.4705
  388MOL0     O52280  11.256   0.858  -0.413 -1.0308 -0.3712  0.4667
  388MOL0     C52281  11.345   0.974  -0.398 -0.1754 -1.0167  0.6655
  388MOL0     C52282  11.486   0.947  -0.422  0.4418 -0.2447  0.5959
  388MOL0     C52283  11.550   1.090  -0.447 -0.4334 -0.4512  0.3903
  388MOL0     C52284  11.706   1.079  -0.460 -0.3636 -0.3628 -0.4467
  388MOL0     C52285  11.779   1.074  -0.325 -0.3204  0.4324  0.4169
  388MOL0     C52286  11.931   1.117  -0.334  0.0667  0.4378 -0.3209
  388MOL0     C52287  11.992   1.140  -0.192 -0.4777 -0.5751  1.4283
  388MOL0     C52288  12.109   1.243  -0.201 -0.9153 -1.0720  0.8349
  388MOL0    Cl52289  12.257   1.173  -0.268 -0.2633 -0.2763  0.0724
  388MOL0     C52290  11.045   0.748  -0.397  0.4237  0.4517 -0.9377
  388MOL0     C52291  10.904   0.760  -0.376 -0.5454 -0.7892  1.0481
  388MOL0     O52292  10.773   0.760  -0.088  0.3067 -0.0355  0.0343
  388MOL0     C52293  10.446   0.881  -0.178  0.2361  0.0461  0.5764
  388MOL0     C52294  10.317   0.892  -0.135 -0.2192  1.1234 -0.0116
  388MOL0     N52295   9.776   1.055   0.398  0.4744  0.1039 -0.7224
  388MOL0     N52296   9.712   1.024   0.509  0.2865 -0.0371  0.1532
  388MOL0     C52297   8.563   1.358   0.867  0.2389 -0.1966  0.3115
  388MOL0     C52298   8.443   1.321   0.928  0.1684 -0.1511  0.3029
  388MOL0     C52299   8.077   1.105   1.017  0.1520  0.5503  0.7022
  388MOL0     C52300   8.073   1.035   1.141  0.6412  0.0898 -0.4045
  388MOL0     C52301   7.950   0.985   1.194  0.7428 -0.4350 -0.3674
  388MOL0     C52302   7.833   1.029   1.137  0.3405 -0.5102 -0.0093
  388MOL0     O52303   7.710   0.988   1.183  0.4825 -0.6572 -0.0392
  388MOL0     C52304   7.689   0.961   1.324 -0.8011  0.3065  0.1792
  388MOL0     C52305   7.728   1.096   1.406  0.1004  1.1185 -0.6361
  388MOL0     C52306   7.736   1.071   1.560  0.4603 -0.3607  0.0133
  388MOL0     C52307   7.861   1.007   1.622 -0.0526  0.1464  0.2966
  388MOL0     C52308   7.992   1.069   1.587  0.3370  0.0255 -0.9620
  388MOL0     C52309   8.099   1.114   1.559 -0.0618  0.8292  0.1441
  388MOL0     C52310   7.841   1.118   1.028  0.2291 -1.2014 -0.9928
  388MOL0     C52311   7.959   1.151   0.963  0.4271  0.0345 -0.4167
  388MOL0     C52312   7.956   1.232   0.832  0.7035  0.4358  0.3692
  388MOL0     H52313   8.526   1.048   1.106  2.0622 -0.1036 -0.0323
  388MOL0     H52314   8.754   1.120   1.014 -0.9610 -1.8097  0.6128
  388MOL0     H52315   8.743   1.286   0.666 -0.1447  1.2749  1.6650
  388MOL0     H52316   8.897   1.353   0.693 -1.6511  2.6449  3.5342
  388MOL0     H52317   8.814   1.053   0.730  1.4060 -0.7375  1.3983
  388MOL0     H52318   8.970   1.119   0.797  1.2982  2.1571 -0.4826
  388MOL0     H52319   9.012   1.208   0.550  0.2727  0.3354  2.8975
  388MOL0     H52320   8.887   1.097   0.510  0.7384 -0.7063  0.2347
  388MOL0     H52321   9.025   0.905   0.625 -0.7412 -0.5683 -1.0810
  388MOL0     H52322   9.082   0.973   0.473  1.8235 -0.2207 -0.1216
  388MOL0     H52323   9.194   1.128   0.696  0.2035 -0.5077  1.2278
  388MOL0     H52324   9.181   0.963   0.751  0.9307  0.7273  0.8103
  388MOL0     H52325   9.282   0.872   0.547  3.0217 -2.0188  2.0189
  388MOL0     H52326   9.334   1.038   0.499 -1.9485  0.7592  0.0023
  388MOL0     H52327   9.426   0.898   0.757  0.5179  1.5694  1.6802
  388MOL0     H52328   9.483   1.043   0.687  1.2682 -1.0462 -0.0281
  388MOL0     H52329   9.609   0.824   0.652 -0.1395 -1.1640  1.6355
  388MOL0     H52330   9.476   0.784   0.544 -2.6697  0.6880  0.7044
  388MOL0     H52331   9.574   0.820   0.293 -1.1926 -0.0679  1.0627
  388MOL0     H52332   9.684   0.955   0.102  0.0279 -1.6491  0.5517
  388MOL0     H52333   9.808   1.085   0.130 -1.4998  0.3502 -1.5371
  388MOL0     H52334   9.854   0.771   0.122 -1.1834  1.2871 -2.7020
  388MOL0     H52335   9.935   0.894   0.022  0.6510  0.3693 -1.0601
  388MOL0     H52336   9.974   0.839   0.319  0.8346  0.4503  0.4883
  388MOL0     H52337  10.020   0.986   0.235 -4.5487  0.9716 -0.6040
  388MOL0     H52338  10.111   0.708   0.190 -4.8596  0.2228 -1.4565
  388MOL0     H52339  10.207   0.844   0.254  1.0137 -0.9272 -1.6133
  388MOL0     H52340  10.374   0.768   0.181  2.9902 -1.2277  0.2982
  388MOL0     H52341  10.606   0.755   0.101 -1.1412 -2.0078 -0.5263
  388MOL0     H52342  10.887   1.091  -0.298  0.4454  0.9805 -1.7325
  388MOL0     H52343  11.109   1.086  -0.361  2.0047 -1.3096 -1.8514
  388MOL0     H52344  11.302   1.044  -0.470 -0.7079 -0.6810  1.2980
  388MOL0     H52345  11.348   1.010  -0.295  0.4752  0.9567 -0.0141
  388MOL0     H52346  11.527   0.898  -0.333  0.4205  0.5614  1.0558
  388MOL0     H52347  11.508   0.879  -0.505  2.4009 -0.2636  1.0812
  388MOL0     H52348  11.510   1.137  -0.537  0.5499 -0.9147 -0.3114
  388MOL0     H52349  11.518   1.161  -0.370 -0.5400 -1.2835  1.1336
  388MOL0     H52350  11.739   1.167  -0.517 -0.8210  0.6954  0.8479
  388MOL0     H52351  11.721   0.987  -0.516 -0.2294  1.4309 -3.5820
  388MOL0     H52352  11.767   0.977  -0.276 -0.7498  1.5006  2.5556
  388MOL0     H52353  11.720   1.140  -0.260 -2.2105 -0.9802  0.2343
  388MOL0     H52354  11.994   1.047  -0.390 -1.0796 -1.0205  0.1620
  388MOL0     H52355  11.942   1.204  -0.400  0.0423 -1.1410 -2.5437
  388MOL0     H52356  12.029   1.044  -0.154 -0.6804 -2.6772 -2.9726
  388MOL0     H52357  11.913   1.182  -0.129 -2.0097  1.2729 -1.5126
  388MOL0     H52358  12.084   1.327  -0.266  2.9432 -1.6522 -1.6990
  388MOL0     H52359  12.132   1.286  -0.103 -0.2712  2.4174 -0.7105
  388MOL0     H52360  11.089   0.652  -0.424  0.2553 -0.5662  2.0138
  388MOL0     H52361  10.837   0.675  -0.380 -1.2888 -0.1451 -1.1785
  388MOL0     H52362  10.474   0.913  -0.278 -3.0270 -0.8555 -0.7489
  388MOL0     H52363  10.234   0.926  -0.196 -1.0615 -1.8499 -0.6601
  388MOL0     H52364   8.571   1.445   0.802 -2.9678  1.2254  1.6060
  388MOL0     H52365   8.359   1.388   0.912  1.0178  0.7970 -0.3858
  388MOL0     H52366   8.160   1.005   1.199  1.5995  3.7541  0.2577
  388MOL0     H52367   7.965   0.921   1.281  1.6977 -0.0402 -0.2366
  388MOL0     H52368   7.748   0.877   1.360  0.4388  1.9178  2.1677
  388MOL0     H52369   7.581   0.956   1.339 -0.7807  1.6168  0.9284
  388MOL0     H52370   7.657   1.175   1.384  0.4626  0.9532 -2.5243
  388MOL0     H52371   7.827   1.131   1.375  1.0857 -0.4363  0.5701
  388MOL0     H52372   7.647   1.014   1.588  0.3534  0.1503  0.7292
  388MOL0     H52373   7.719   1.172   1.598  0.9859 -0.8070  1.5274
  388MOL0     H52374   7.841   1.017   1.729  0.2418 -1.0101  0.4761
  388MOL0     H52375   7.870   0.901   1.597 -2.1536 -0.2453  1.0554
  388MOL0     H52376   8.187   1.170   1.536 -0.2065  0.6219 -0.9916
  388MOL0     H52377   7.747   1.164   0.997 -0.1654 -1.8976 -0.8441
  388MOL0     H52378   7.922   1.178   0.743  0.9460 -0.4096  0.7873
  388MOL0     H52379   7.895   1.321   0.848 -2.4722 -1.9486  2.6215
  388MOL0     H52380   8.059   1.265   0.813  2.2500 -1.3391  4.5781
  389MOL0     O52381   6.297   0.853  10.582  0.6288 -0.0645  0.5077
  389MOL0     C52382   6.251   0.967  10.586 -0.7549  0.4056  0.0843
  389MOL0     O52383   6.320   1.083  10.630 -0.0037 -0.2015 -0.2881
  389MOL0     C52384   6.448   1.054  10.676  0.0448  0.0775  0.0726
  389MOL0     C52385   6.459   1.041  10.809  0.4933  0.0955  0.2370
  389MOL0     C52386   6.585   1.022  10.869 -0.2599 -0.5973 -0.1089
  389MOL0     C52387   6.701   1.002  10.797 -0.1520  1.6066  0.3202
  389MOL0     O52388   6.814   0.965  10.859 -0.5926 -0.0824  0.1290
  389MOL0     C52389   6.926   0.934  10.782 -0.0174  0.6346 -0.8350
  389MOL0     C52390   7.040   0.897  10.880  0.1702  0.2432 -0.4296
  389MOL0     C52391   7.156   0.828  10.810 -0.3222  0.1307  0.4674
  389MOL0     C52392   7.255   0.938  10.766 -0.0597  0.7893  0.1954
  389MOL0     C52393   7.398   0.883  10.766  0.6341 -0.3226  0.3752
  389MOL0     C52394   7.491   0.996  10.799  0.4280 -0.1422 -0.3215
  389MOL0     C52395   7.638   0.967  10.802  0.9807  0.2987 -0.6710
  389MOL0     C52396   7.695   0.978  10.660  0.2629  0.3417  0.3068
  389MOL0     N52397   7.840   0.949  10.665 -0.1426  0.2503 -0.0823
  389MOL0     C52398   7.941   1.028  10.624  0.4682 -1.3315 -0.4023
  389MOL0     C52399   8.059   0.959  10.636  0.2649  0.6241 -0.4061
  389MOL0     C52400   8.187   1.019  10.589  0.1597 -0.5110  0.2501
  389MOL0     C52401   8.277   1.054  10.709 -0.1667  0.1874  0.7370
  389MOL0     C52402   8.340   0.932  10.787  0.1364 -0.3494  0.1350
  389MOL0     C52403   8.422   0.962  10.918  0.1934  0.1614 -0.9603
  389MOL0     O52404   8.492   1.090  10.926 -0.5881  0.0217 -0.3459
  389MOL0     C52405   8.627   1.097  10.890  0.1053  0.2403  0.3253
  389MOL0     C52406   8.689   0.999  10.805 -0.0771 -0.6755  0.9457
  389MOL0     C52407   8.815   1.020  10.770 -0.8884  0.4703 -0.1752
  389MOL0     C52408   8.889   1.128  10.808 -0.6505 -1.1736  0.0207
  389MOL0     C52409   9.029   1.143  10.766 -0.3795 -0.5260 -0.5326
  389MOL0     O52410   9.085   1.031  10.721  0.5156 -0.1230  0.3996
  389MOL0     C52411   9.226   1.011  10.731 -0.2602 -0.3182 -0.6124
  389MOL0     C52412   9.262   0.881  10.691 -0.0174 -0.1678  0.4203
  389MOL0     C52413   9.393   0.840  10.693 -0.3420 -1.1739 -0.9468
  389MOL0     C52414   9.496   0.919  10.747  0.4056 -0.2413 -0.2100
  389MOL0     O52415   9.628   0.888  10.759  0.3756 -0.2287  0.0761
  389MOL0     C52416   9.678   0.811  10.647  0.0207  0.3209  0.3213
  389MOL0     C52417   9.831   0.800  10.634 -0.2976  0.5809 -0.1759
  389MOL0     C52418   9.900   0.931  10.594  0.5584 -0.4944 -0.2640
  389MOL0     C52419   9.873   0.967  10.437 -0.3242 -0.6647 -0.3198
  389MOL0     C52420   9.946   1.105  10.399 -0.5429  0.5902 -0.9997
  389MOL0     C52421   9.985   1.119  10.255 -0.6323 -0.1351 -0.1296
  389MOL0     C52422   9.873   1.167  10.159 -0.1609 -0.9074 -0.5773
  389MOL0     C52423   9.926   1.182  10.017  0.4408  0.3216  0.1647
  389MOL0    Cl52424  10.064   1.288  10.026  0.0098  0.5966  0.2003
  389MOL0     C52425   9.462   1.055  10.769  0.3817  0.6470 -0.3201
  389MOL0     C52426   9.332   1.099  10.761 -0.5789  1.2046  0.0568
  389MOL0     O52427   9.081   1.253  10.788  0.1720  0.2014 -0.6078
  389MOL0     C52428   8.830   1.223  10.898 -0.3523  0.0675  1.9201
  389MOL0     C52429   8.698   1.204  10.931 -0.3400 -0.7284  0.0516
  389MOL0     N52430   8.031   0.823  10.670  0.2514  0.2213  0.1826
  389MOL0     N52431   7.899   0.824  10.688  0.8713 -0.3697 -0.0749
  389MOL0     C52432   6.686   1.000  10.650  0.0407 -0.5171  0.4204
  389MOL0     C52433   6.561   1.032  10.591 -0.1585 -0.0778 -0.1621
  389MOL0     C52434   6.114   0.989  10.545 -0.2402  0.7325  0.3458
  389MOL0     C52435   6.062   1.118  10.565 -0.1090  0.0749 -0.4869
  389MOL0     C52436   5.946   1.164  10.510 -0.0700  0.8235  0.4828
  389MOL0     C52437   5.867   1.078  10.439  0.6557  0.5286 -0.1489
  389MOL0     O52438   5.760   1.107  10.365  0.2494  0.4628  0.5657
  389MOL0     C52439   5.694   1.229  10.367 -0.3930  0.7331  0.4103
  389MOL0     C52440   5.611   1.225  10.501  0.5419 -0.8352  0.3414
  389MOL0     C52441   5.580   1.367  10.544 -0.6282  0.3488  0.4152
  389MOL0     C52442   5.537   1.381  10.693  1.4860 -0.0387  0.3992
  389MOL0     C52443   5.510   1.521  10.726  0.4314 -0.5453  0.7765
  389MOL0     C52444   5.500   1.641  10.756 -0.6791  0.1329 -0.0760
  389MOL0     C52445   5.904   0.939  10.432  0.1736 -0.3083 -0.4223
  389MOL0     C52446   6.026   0.895  10.492 -0.7737  0.5137 -0.6541
  389MOL0     C52447   6.057   0.739  10.490 -0.7388 -0.3857 -1.1124
  389MOL0     H52448   6.374   1.057  10.874  1.2666  0.5732  1.1511
  389MOL0     H52449   6.577   1.020  10.977 -2.5649  2.4455 -0.0857
  389MOL0     H52450   6.910   0.854  10.709 -0.4644 -0.5820  0.5646
  389MOL0     H52451   6.964   1.020  10.725  0.4074  1.5909  0.8326
  389MOL0     H52452   7.000   0.827  10.954 -1.4487 -0.8516 -2.2822
  389MOL0     H52453   7.072   0.990  10.929  0.8257  0.8128 -1.8805
  389MOL0     H52454   7.130   0.769  10.722 -3.0432 -0.5559  1.6209
  389MOL0     H52455   7.202   0.760  10.882  0.0562 -0.8960 -0.7128
  389MOL0     H52456   7.239   0.988  10.670 -1.8000 -0.7295 -0.3671
  389MOL0     H52457   7.257   1.018  10.840  0.6286  0.8937  0.0721
  389MOL0     H52458   7.423   0.800  10.832 -1.6601 -0.6557  0.9272
  389MOL0     H52459   7.413   0.845  10.664 -0.6354 -0.3251  0.1679
  389MOL0     H52460   7.477   1.073  10.723  0.2452  1.5278  1.3173
  389MOL0     H52461   7.461   1.044  10.893  0.0305 -0.4707 -0.2811
  389MOL0     H52462   7.651   0.864  10.839 -0.6035  0.0232 -0.8364
  389MOL0     H52463   7.692   1.036  10.867  0.8878 -1.1255  0.9994
  389MOL0     H52464   7.650   0.898  10.602 -1.4240 -0.0601  2.0873
  389MOL0     H52465   7.682   1.076  10.613  1.6503 -0.2157 -1.3715
  389MOL0     H52466   7.931   1.122  10.572 -1.3472 -0.5107  1.3105
  389MOL0     H52467   8.242   0.948  10.525  0.9107  0.1541  0.1400
  389MOL0     H52468   8.170   1.112  10.535 -0.8279 -0.0241  1.3492
  389MOL0     H52469   8.363   1.117  10.684 -0.3920  0.6222  1.0377
  389MOL0     H52470   8.213   1.109  10.778 -1.0910  1.1453 -0.8251
  389MOL0     H52471   8.411   0.886  10.718  1.7132  0.8884  0.8582
  389MOL0     H52472   8.269   0.859  10.825 -0.2091  1.5254  3.4830
  389MOL0     H52473   8.500   0.887  10.937  1.0531  1.0218 -1.0417
  389MOL0     H52474   8.356   0.957  11.005  1.7907  2.0371  0.4793
  389MOL0     H52475   8.630   0.916  10.767 -0.2343  0.8186 -2.3680
  389MOL0     H52476   8.866   0.948  10.706 -1.4936 -1.4725  1.4123
  389MOL0     H52477   9.183   0.814  10.656 -0.0765 -0.0756  0.3765
  389MOL0     H52478   9.420   0.740  10.660 -1.9259 -1.9109 -0.1394
  389MOL0     H52479   9.626   0.715  10.657 -0.2082  0.6267  2.5123
  389MOL0     H52480   9.632   0.860  10.560 -0.2992  2.5790  1.7043
  389MOL0     H52481   9.869   0.760  10.728 -3.1372 -3.5824 -0.5848
  389MOL0     H52482   9.855   0.727  10.557 -2.3554 -0.1631 -0.1506
  389MOL0     H52483   9.868   1.006  10.668 -0.5830  0.2750 -1.4962
  389MOL0     H52484  10.008   0.924  10.611  0.7501  0.1162 -1.1685
  389MOL0     H52485   9.767   0.973  10.411 -0.2216  2.0392 -0.3961
  389MOL0     H52486   9.924   0.889  10.379  2.9544  0.4107  0.8784
  389MOL0     H52487  10.044   1.094  10.448 -0.7161  2.7385 -0.0805
  389MOL0     H52488   9.894   1.189  10.446  3.1667  2.2515  0.5811
  389MOL0     H52489  10.064   1.195  10.257 -0.6424 -0.1277  0.1296
  389MOL0     H52490  10.034   1.029  10.219 -0.5004  0.5532 -1.7503
  389MOL0     H52491   9.845   1.271  10.180  1.7055 -0.1714 -1.5147
  389MOL0     H52492   9.788   1.099  10.174  1.1215 -1.9237  3.2089
  389MOL0     H52493   9.951   1.085   9.974 -0.0325  1.3836 -2.7045
  389MOL0     H52494   9.847   1.228   9.957 -0.3380 -0.5974  0.4757
  389MOL0     H52495   9.541   1.124  10.797  1.3653  0.2090 -1.8943
  389MOL0     H52496   9.317   1.204  10.783  0.6668  1.8656 -2.0019
  389MOL0     H52497   8.894   1.294  10.949  0.4139 -0.1623  1.3040
  389MOL0     H52498   8.644   1.274  10.995 -0.3274 -0.7901  0.1310
  389MOL0     H52499   6.768   0.992  10.580 -2.1987 -0.8922 -2.3299
  389MOL0     H52500   6.546   1.044  10.484 -1.2011 -4.0711 -0.5977
  389MOL0     H52501   6.111   1.206  10.607 -0.4984 -1.4594  3.6727
  389MOL0     H52502   5.908   1.265  10.524 -3.0957 -0.3775  1.9216
  389MOL0     H52503   5.627   1.236  10.281  1.9215  1.3056 -1.4557
  389MOL0     H52504   5.765   1.312  10.359 -3.0108  3.4716  2.8274
  389MOL0     H52505   5.667   1.174  10.580  0.3501 -1.6001 -0.0071
  389MOL0     H52506   5.520   1.166  10.491  0.9516 -1.2372 -1.3785
  389MOL0     H52507   5.510   1.410  10.472 -2.5313  0.0188  1.9768
  389MOL0     H52508   5.679   1.413  10.545  0.8699 -2.5350  2.4501
  389MOL0     H52509   5.437   1.338  10.701  1.3492  0.3394  0.7347
  389MOL0     H52510   5.619   1.350  10.758  1.2820 -0.4311  0.4742
  389MOL0     H52511   5.498   1.744  10.785 -0.6147 -0.3612  1.7785
  389MOL0     H52512   5.840   0.874  10.373 -0.9375 -0.7153  1.1948
  389MOL0     H52513   5.974   0.668  10.483  1.1570 -2.7815 -0.6643
  389MOL0     H52514   6.118   0.706  10.406  0.5327 -0.0537 -0.3465
  389MOL0     H52515   6.114   0.724  10.583  1.5533 -1.7211 -2.6499
  390MOL0     O52516   3.923   4.436   4.358  0.0868  0.2945 -0.2458
  390MOL0     C52517   3.866   4.538   4.325  1.1752  0.4713 -0.2390
  390MOL0     O52518   3.890   4.662   4.381  0.2641 -0.1279 -0.0834
  390MOL0     C52519   4.005   4.685   4.463  0.7058  1.1522 -0.6178
  390MOL0     C52520   3.983   4.760   4.578 -0.1866 -0.1923  0.0599
  390MOL0     C52521   4.072   4.795   4.673 -1.0780 -0.3820 -0.7418
  390MOL0     C52522   4.199   4.730   4.674  0.0216  0.1274  0.4505
  390MOL0     O52523   4.299   4.742   4.770  0.1450  0.1381 -0.2964
  390MOL0     C52524   4.273   4.805   4.901  0.0268 -0.1205  0.0572
  390MOL0     C52525   4.408   4.786   4.977  0.6548  0.6778  0.0677
  390MOL0     C52526   4.517   4.859   4.900 -0.7300  0.0728  0.0027
  390MOL0     C52527   4.643   4.854   4.989 -0.2291 -0.4901 -0.1048
  390MOL0     C52528   4.760   4.918   4.914  0.1514 -0.0305  0.0442
  390MOL0     C52529   4.884   4.930   5.003 -0.9321  0.0959 -0.6698
  390MOL0     C52530   5.004   4.986   4.927  0.0231  0.0523  0.0794
  390MOL0     C52531   5.116   5.002   5.034 -0.0055 -0.2104  0.7342
  390MOL0     N52532   5.239   5.069   4.997 -0.3996 -0.9840  0.4072
  390MOL0     C52533   5.312   5.046   4.878 -0.2648  0.0164  0.6937
  390MOL0     C52534   5.428   5.099   4.901 -0.1999 -1.0575 -0.8300
  390MOL0     C52535   5.545   5.070   4.809 -0.4624 -0.4913  0.2669
  390MOL0     C52536   5.678   5.123   4.863  0.5241  0.0699 -0.3173
  390MOL0     C52537   5.720   5.267   4.820  1.1818  0.2856  0.0891
  390MOL0     C52538   5.853   5.305   4.873 -0.4508 -0.8082 -0.0327
  390MOL0     O52539   5.954   5.199   4.869 -0.1092 -0.1930  0.2679
  390MOL0     C52540   6.087   5.226   4.894  0.0914 -0.5325  0.8906
  390MOL0     C52541   6.176   5.121   4.889  0.5463  0.1351  0.3181
  390MOL0     C52542   6.317   5.134   4.905 -0.2589  0.2092  0.0873
  390MOL0     C52543   6.368   5.262   4.909 -0.6776  0.5239  0.1563
  390MOL0     C52544   6.518   5.286   4.896 -1.5110  0.0888  0.4926
  390MOL0     O52545   6.595   5.175   4.893 -1.4399  0.6678  0.5374
  390MOL0     C52546   6.726   5.202   4.930 -0.3559 -0.3939  0.2059
  390MOL0     C52547   6.767   5.198   5.063 -0.2841  0.3989  0.9009
  390MOL0     C52548   6.894   5.223   5.097 -0.9151  0.0504 -0.0066
  390MOL0     C52549   6.989   5.270   5.000 -0.5338 -0.4693  0.7191
  390MOL0     O52550   7.120   5.301   5.030  0.0443 -0.6711  0.5183
  390MOL0     C52551   7.221   5.257   4.934  0.0533 -0.3705 -0.9720
  390MOL0     C52552   7.366   5.275   4.993  0.1700 -1.3057 -1.1618
  390MOL0     C52553   7.403   5.422   5.021 -0.2991  0.1883 -0.8895
  390MOL0     C52554   7.552   5.440   5.057  0.0676 -0.1834  0.0511
  390MOL0     C52555   7.657   5.419   4.947  0.1261  0.2117 -0.0228
  390MOL0     C52556   7.800   5.454   4.980  0.1640 -1.2322 -0.4842
  390MOL0     C52557   7.842   5.421   5.122 -0.5772 -0.3039  0.1560
  390MOL0     C52558   7.970   5.500   5.166 -0.6573  0.7776  0.7379
  390MOL0    Cl52559   7.950   5.687   5.178 -0.2164  0.2007  0.2213
  390MOL0     C52560   6.939   5.284   4.868  0.5644  0.6943  0.1577
  390MOL0     C52561   6.810   5.245   4.834  0.1284 -0.6946 -0.3897
  390MOL0     O52562   6.557   5.406   4.905 -0.3576 -0.3007  0.1392
  390MOL0     C52563   6.276   5.371   4.925  0.1448 -0.6874  0.1616
  390MOL0     C52564   6.138   5.354   4.918  0.7533  0.3242  0.3852
  390MOL0     N52565   5.433   5.162   5.020 -0.2533 -0.9306  0.2526
  390MOL0     N52566   5.315   5.142   5.079 -0.2730  0.3013  0.4458
  390MOL0     C52567   4.218   4.644   4.562 -0.5248 -0.0657 -0.7626
  390MOL0     C52568   4.134   4.628   4.454  0.0417  0.3221 -0.0881
  390MOL0     C52569   3.740   4.530   4.251 -0.1304  0.1835  0.4263
  390MOL0     C52570   3.652   4.641   4.270  0.0536  0.4137 -0.7742
  390MOL0     C52571   3.530   4.644   4.207  0.1010 -0.0468  0.6717
  390MOL0     C52572   3.495   4.537   4.121  0.1648 -0.6681  0.6265
  390MOL0     O52573   3.363   4.555   4.078  0.6705  0.1424  0.0470
  390MOL0     C52574   3.305   4.457   3.985  0.7542 -0.1262  0.4956
  390MOL0     C52575   3.184   4.373   4.040 -0.9662 -0.0436  0.1982
  390MOL0     C52576   3.059   4.449   4.074 -0.2963  0.4840  0.1002
  390MOL0     C52577   2.962   4.350   4.147  0.0513 -0.1132 -0.7796
  390MOL0     C52578   3.011   4.294   4.277 -0.0806 -0.3499  0.2884
  390MOL0     C52579   3.049   4.270   4.384  0.3275 -1.1481 -0.2488
  390MOL0     C52580   3.580   4.437   4.085  0.1690  0.1437 -0.8015
  390MOL0     C52581   3.713   4.436   4.147  0.1358  0.2977 -0.1032
  390MOL0     C52582   3.821   4.334   4.097  0.7787 -0.8674  0.4029
  390MOL0     H52583   3.882   4.799   4.590 -0.7920 -0.4791 -3.1445
  390MOL0     H52584   4.048   4.869   4.749  0.8974  0.2845 -0.7226
  390MOL0     H52585   4.260   4.913   4.893  3.7595  0.3920 -1.3194
  390MOL0     H52586   4.196   4.751   4.958 -1.3165  1.5238 -0.1323
  390MOL0     H52587   4.432   4.680   4.987 -0.1319  0.1001 -3.0246
  390MOL0     H52588   4.400   4.832   5.076  3.8985  0.0968  0.7192
  390MOL0     H52589   4.481   4.957   4.868  1.0360  1.2469  1.3747
  390MOL0     H52590   4.533   4.814   4.802 -3.1854 -0.3242 -0.2618
  390MOL0     H52591   4.631   4.897   5.089  2.6334  0.3963 -0.0717
  390MOL0     H52592   4.656   4.748   5.016 -4.9001 -1.3990 -0.5075
  390MOL0     H52593   4.776   4.865   4.819 -1.8886  1.8800 -1.4673
  390MOL0     H52594   4.719   5.017   4.890 -0.7956 -0.1368  1.1740
  390MOL0     H52595   4.869   4.989   5.094  1.4047  0.6463 -0.5928
  390MOL0     H52596   4.920   4.833   5.040 -1.8920  0.2566  0.7665
  390MOL0     H52597   4.991   5.085   4.884 -1.1205  0.9129  2.2534
  390MOL0     H52598   5.031   4.914   4.849 -2.8824  0.6904 -1.6567
  390MOL0     H52599   5.082   5.060   5.120  3.7361  0.7345  1.7617
  390MOL0     H52600   5.132   4.899   5.066 -0.3107 -0.3122  0.5609
  390MOL0     H52601   5.277   4.992   4.791  0.6825 -1.0326  0.9385
  390MOL0     H52602   5.569   4.964   4.800  0.7497 -0.2127 -0.0141
  390MOL0     H52603   5.534   5.126   4.715  0.2067 -2.6025 -1.1286
  390MOL0     H52604   5.692   5.125   4.971  3.3201 -1.7423 -0.5232
  390MOL0     H52605   5.757   5.054   4.829  1.0128  1.4468 -2.1300
  390MOL0     H52606   5.645   5.329   4.869  1.2972  0.9922 -0.6158
  390MOL0     H52607   5.713   5.271   4.711 -0.8680 -1.6102  0.0623
  390MOL0     H52608   5.827   5.328   4.977 -0.2670 -1.1772  0.0982
  390MOL0     H52609   5.897   5.393   4.825 -1.5478  0.6069  1.4418
  390MOL0     H52610   6.123   5.027   4.878 -2.1286  1.3732  1.5530
  390MOL0     H52611   6.375   5.043   4.909 -1.4568 -0.5877 -0.2304
  390MOL0     H52612   6.690   5.145   5.118 -0.3863 -2.4884 -1.7747
  390MOL0     H52613   6.917   5.213   5.203 -0.1448  0.1204 -0.1648
  390MOL0     H52614   7.212   5.150   4.915  2.2074 -1.0793  1.4742
  390MOL0     H52615   7.212   5.316   4.842  1.4201 -1.0477 -1.5735
  390MOL0     H52616   7.370   5.206   5.079  3.6504 -0.6333 -0.6427
  390MOL0     H52617   7.432   5.240   4.913  0.1117  1.2509 -2.4057
  390MOL0     H52618   7.369   5.481   4.935 -3.2423 -1.5613 -1.0784
  390MOL0     H52619   7.345   5.461   5.106 -1.2061  1.5174 -2.0628
  390MOL0     H52620   7.577   5.368   5.136 -0.7468  0.3622  0.8220
  390MOL0     H52621   7.557   5.546   5.081  1.7573  0.0382 -1.0970
  390MOL0     H52622   7.629   5.473   4.856 -0.2673 -0.4789 -0.3195
  390MOL0     H52623   7.656   5.314   4.918 -0.4996  0.8374 -2.5451
  390MOL0     H52624   7.876   5.410   4.915  1.1576  2.0581 -1.7253
  390MOL0     H52625   7.813   5.562   4.975 -0.0651 -0.8847  3.3748
  390MOL0     H52626   7.854   5.313   5.127  0.7956 -0.2345 -0.9744
  390MOL0     H52627   7.773   5.457   5.199  1.8827 -0.9489  2.8484
  390MOL0     H52628   7.997   5.446   5.257  1.9530 -1.8316 -1.3708
  390MOL0     H52629   8.048   5.478   5.092 -0.8664  4.4000 -0.7595
  390MOL0     H52630   6.999   5.337   4.794 -0.2888  1.0894 -0.2631
  390MOL0     H52631   6.764   5.240   4.736  0.9880  0.5898 -0.8804
  390MOL0     H52632   6.306   5.475   4.924 -1.8139 -0.0865  0.0783
  390MOL0     H52633   6.069   5.437   4.916  0.7579  0.4011  2.1374
  390MOL0     H52634   4.315   4.596   4.553  0.7476  2.1828  0.2386
  390MOL0     H52635   4.162   4.557   4.376  0.9137  1.2762 -0.6713
  390MOL0     H52636   3.663   4.722   4.341 -1.9143  0.2621 -0.2402
  390MOL0     H52637   3.464   4.729   4.222 -0.1750  0.5252 -2.8411
  390MOL0     H52638   3.383   4.389   3.947  1.6200  1.1370 -0.0566
  390MOL0     H52639   3.279   4.508   3.892 -0.3777  0.1983  0.9799
  390MOL0     H52640   3.220   4.318   4.128 -2.5740  1.1271  1.6610
  390MOL0     H52641   3.163   4.298   3.963 -0.9782  2.0607 -1.9554
  390MOL0     H52642   3.006   4.481   3.984  0.7355  0.6421 -0.4678
  390MOL0     H52643   3.082   4.539   4.131  2.0744  1.0808 -1.6428
  390MOL0     H52644   2.875   4.406   4.184 -0.5416 -1.4013 -0.1554
  390MOL0     H52645   2.925   4.265   4.089 -0.5358 -0.2380 -0.2413
  390MOL0     H52646   3.081   4.237   4.480 -1.8774 -5.5544 -0.7721
  390MOL0     H52647   3.564   4.352   4.020  2.1740 -0.3541 -0.7009
  390MOL0     H52648   3.835   4.351   3.990  0.0990 -3.2341 -0.1084
  390MOL0     H52649   3.921   4.329   4.143  0.2659  0.7096  1.8101
  390MOL0     H52650   3.775   4.236   4.107 -0.8090 -0.2056 -0.1029
  391MOL0     O52651   4.721   6.861   1.520 -0.1240  0.0164  1.1680
  391MOL0     C52652   4.801   6.782   1.571  0.3334  0.1643  1.2277
  391MOL0     O52653   4.801   6.733   1.697  0.0004  0.8854 -0.1356
  391MOL0     C52654   4.715   6.784   1.781 -0.6472  0.9968  0.2669
  391MOL0     C52655   4.734   6.906   1.844  0.2512  0.3635  0.1552
  391MOL0     C52656   4.647   6.950   1.944  0.1461 -0.6733 -0.5621
  391MOL0     C52657   4.567   6.860   1.999 -0.0176  0.4642 -0.0532
  391MOL0     O52658   4.507   6.896   2.121 -0.6353  0.1927 -0.1486
  391MOL0     C52659   4.432   6.782   2.177  0.1126  0.1426  0.7401
  391MOL0     C52660   4.400   6.811   2.317  0.0821  0.0950  0.2697
  391MOL0     C52661   4.508   6.779   2.420 -0.0545  0.6575 -1.0424
  391MOL0     C52662   4.628   6.872   2.426 -0.4515  0.2869 -0.2875
  391MOL0     C52663   4.599   7.030   2.427 -0.3614 -0.0187 -1.2875
  391MOL0     C52664   4.692   7.104   2.527  0.3127  0.3881 -0.2795
  391MOL0     C52665   4.835   7.088   2.494  0.7036  0.4954 -0.6888
  391MOL0     C52666   4.908   7.131   2.623  0.1412  0.1539  0.7514
  391MOL0     N52667   5.051   7.147   2.580  0.1080  0.9469  0.6574
  391MOL0     C52668   5.130   7.047   2.534 -0.2606  0.4013 -0.0658
  391MOL0     C52669   5.245   7.110   2.488  0.4069 -0.0447  0.2293
  391MOL0     C52670   5.352   7.041   2.419  0.7146 -0.0620 -0.2777
  391MOL0     C52671   5.291   6.961   2.308  0.5619 -0.2208  0.9971
  391MOL0     C52672   5.410   6.915   2.216  0.5329 -0.2742 -0.2081
  391MOL0     C52673   5.489   7.017   2.142 -0.3979  0.1636 -0.6948
  391MOL0     O52674   5.543   6.955   2.020  0.9162 -0.0524 -0.6808
  391MOL0     C52675   5.665   6.904   2.016 -0.3821 -0.9181  0.3652
  391MOL0     C52676   5.712   6.895   1.882  1.5643  0.5702 -0.0717
  391MOL0     C52677   5.838   6.832   1.856 -0.4803  0.0025 -0.2627
  391MOL0     C52678   5.918   6.787   1.965 -0.2553  0.1903  0.8052
  391MOL0     C52679   6.056   6.735   1.936 -0.0810  0.0345  0.1170
  391MOL0     O52680   6.113   6.657   2.025 -0.2123 -0.6222 -0.4190
  391MOL0     C52681   6.234   6.591   2.007 -0.3574  0.0429  0.3116
  391MOL0     C52682   6.357   6.657   2.016  0.0387 -0.9233  0.3977
  391MOL0     C52683   6.478   6.589   2.000 -0.1809 -0.3799 -0.2035
  391MOL0     C52684   6.477   6.448   1.969  0.1304  0.0987  0.0500
  391MOL0     O52685   6.595   6.393   1.941  0.4893 -0.3490 -0.2266
  391MOL0     C52686   6.687   6.380   2.053  0.3982 -0.1043 -0.4473
  391MOL0     C52687   6.788   6.269   2.020  0.2225 -0.5858  0.4565
  391MOL0     C52688   6.904   6.279   2.108  0.2170  0.3443  0.3114
  391MOL0     C52689   6.987   6.150   2.077 -0.5768 -0.0861  0.0414
  391MOL0     C52690   7.110   6.132   2.168 -0.2177  0.4382 -0.3776
  391MOL0     C52691   7.062   6.122   2.314  0.7064  0.2487  0.4168
  391MOL0     C52692   7.151   6.048   2.411 -0.2471 -0.4461 -0.0590
  391MOL0     C52693   7.271   6.134   2.462 -0.2553  0.5980  0.7221
  391MOL0    Cl52694   7.328   6.090   2.625  0.5719 -0.0460  0.2829
  391MOL0     C52695   6.357   6.385   1.971  0.6006  0.7545 -0.0191
  391MOL0     C52696   6.232   6.455   1.973  0.7986  0.3573 -0.1813
  391MOL0     O52697   6.099   6.754   1.822 -0.9029 -0.1392 -0.4918
  391MOL0     C52698   5.870   6.799   2.093  0.4852  0.0359  0.0391
  391MOL0     C52699   5.747   6.856   2.115  0.2777  0.7415 -0.5039
  391MOL0     N52700   5.227   7.256   2.494 -0.1214  0.9221 -0.0219
  391MOL0     N52701   5.114   7.268   2.550  0.7727  0.1365  0.4020
  391MOL0     C52702   4.544   6.731   1.939  0.4723 -0.3929  0.7764
  391MOL0     C52703   4.615   6.694   1.827  0.2408 -0.3780 -0.2826
  391MOL0     C52704   4.905   6.717   1.479  0.1452 -1.1025 -0.7620
  391MOL0     C52705   5.008   6.650   1.550  0.5623  1.2463 -0.6706
  391MOL0     C52706   5.117   6.603   1.478  0.0057  0.0299  0.6399
  391MOL0     C52707   5.117   6.597   1.342 -0.2582 -0.0078 -0.4712
  391MOL0     O52708   5.223   6.534   1.282 -0.8609  0.0500 -0.8733
  391MOL0     C52709   5.202   6.448   1.172  0.0301 -0.3483 -0.8360
  391MOL0     C52710   5.333   6.402   1.115 -0.2958 -1.0010  0.4218
  391MOL0     C52711   5.437   6.369   1.228 -0.2908  0.2394 -0.4952
  391MOL0     C52712   5.571   6.341   1.159 -0.4980  0.8378 -0.3153
  391MOL0     C52713   5.682   6.312   1.258 -0.0567  0.2399  1.1830
  391MOL0     C52714   5.775   6.291   1.342 -0.8789  0.2859 -0.2560
  391MOL0     C52715   5.015   6.657   1.266 -0.3188 -0.5551  0.1060
  391MOL0     C52716   4.903   6.719   1.334  0.1497 -0.4360  0.3610
  391MOL0     C52717   4.787   6.772   1.248 -0.3967 -0.1682  0.3303
  391MOL0     H52718   4.821   6.956   1.803  0.8291 -1.7633 -1.3794
  391MOL0     H52719   4.659   7.050   1.985  0.1513 -0.4590 -1.0804
  391MOL0     H52720   4.344   6.777   2.112 -0.3452 -3.0459  1.4438
  391MOL0     H52721   4.485   6.687   2.172 -0.3460 -0.0780 -2.5974
  391MOL0     H52722   4.316   6.746   2.345  1.6281 -1.3094  1.8858
  391MOL0     H52723   4.371   6.915   2.334 -0.2285 -0.3991  3.4547
  391MOL0     H52724   4.549   6.678   2.410 -2.3040 -0.3068 -1.1825
  391MOL0     H52725   4.465   6.784   2.521 -2.1664  0.8310 -1.8974
  391MOL0     H52726   4.692   6.836   2.507  0.1476 -0.6513 -1.1379
  391MOL0     H52727   4.683   6.854   2.333 -1.3137  2.0958 -1.2042
  391MOL0     H52728   4.604   7.073   2.326  0.5115 -2.2100 -2.2373
  391MOL0     H52729   4.502   7.053   2.472  0.2913  0.2098  0.0348
  391MOL0     H52730   4.668   7.211   2.519  2.2809  0.8077 -1.0968
  391MOL0     H52731   4.676   7.057   2.625 -0.9264  0.3140 -0.4999
  391MOL0     H52732   4.848   7.143   2.400 -0.3026 -0.1488 -1.2294
  391MOL0     H52733   4.859   6.986   2.462  0.2508  0.2143 -0.1598
  391MOL0     H52734   4.870   7.220   2.674 -0.1350 -1.0501  2.7564
  391MOL0     H52735   4.904   7.052   2.699  1.3305 -1.2265 -0.5753
  391MOL0     H52736   5.106   6.942   2.547 -2.6523  0.9933  0.7495
  391MOL0     H52737   5.418   7.117   2.376 -1.1869  1.7652 -0.1264
  391MOL0     H52738   5.405   6.975   2.489 -4.4572 -3.8547  0.6362
  391MOL0     H52739   5.239   6.876   2.353  1.0780 -0.5336  1.0131
  391MOL0     H52740   5.224   7.019   2.243 -1.1157 -0.5896  2.3457
  391MOL0     H52741   5.365   6.843   2.148  2.5193 -2.0505  0.2608
  391MOL0     H52742   5.487   6.865   2.276  1.2700  2.8087  1.6635
  391MOL0     H52743   5.573   7.063   2.196 -0.2360  2.5406 -2.7688
  391MOL0     H52744   5.419   7.100   2.125  0.6271  1.0787 -0.6187
  391MOL0     H52745   5.652   6.928   1.798  1.0189 -0.8147 -0.2612
  391MOL0     H52746   5.867   6.822   1.752 -2.6627  1.2711 -1.0623
  391MOL0     H52747   6.353   6.764   2.036  0.8042 -0.6017 -1.0328
  391MOL0     H52748   6.570   6.647   2.001  1.8248 -3.3148 -1.4625
  391MOL0     H52749   6.730   6.476   2.082 -1.1686  0.4889  0.0133
  391MOL0     H52750   6.627   6.344   2.137 -0.1011 -0.0681 -0.7844
  391MOL0     H52751   6.737   6.173   2.032 -1.6582  0.3341  0.2641
  391MOL0     H52752   6.820   6.275   1.916 -0.3668 -1.7766  0.1905
  391MOL0     H52753   6.958   6.370   2.080 -1.7590  1.1752 -1.0036
  391MOL0     H52754   6.861   6.279   2.208 -2.1269 -0.1405 -0.6376
  391MOL0     H52755   7.025   6.149   1.975 -0.2272  2.2738  0.1092
  391MOL0     H52756   6.921   6.063   2.088 -0.0291 -0.7980 -1.9077
  391MOL0     H52757   7.181   6.212   2.146  0.6672  0.0162  0.7935
  391MOL0     H52758   7.156   6.038   2.136 -0.3422 -0.9100  2.9928
  391MOL0     H52759   7.049   6.227   2.342  0.9828  1.4311 -3.3295
  391MOL0     H52760   6.961   6.080   2.317  0.0750  1.7341  1.3290
  391MOL0     H52761   7.194   5.965   2.354 -0.7323  0.2977 -1.5527
  391MOL0     H52762   7.091   6.020   2.498 -0.4715  2.7143  0.9210
  391MOL0     H52763   7.348   6.124   2.385  1.5254  0.1213  2.5045
  391MOL0     H52764   7.231   6.235   2.449 -1.7898 -0.1463 -0.7349
  391MOL0     H52765   6.361   6.280   1.945 -1.8691  0.4624  0.5470
  391MOL0     H52766   6.142   6.398   1.954  0.2470  1.3191 -0.4915
  391MOL0     H52767   5.920   6.779   2.187  0.4273 -0.6866 -0.0830
  391MOL0     H52768   5.721   6.873   2.219 -0.5524 -0.4690 -0.4952
  391MOL0     H52769   4.473   6.651   1.961  2.7843 -3.3548 -1.6093
  391MOL0     H52770   4.602   6.601   1.773  1.3240 -1.1022  0.6570
  391MOL0     H52771   5.013   6.656   1.658  0.7832  1.9536 -0.7097
  391MOL0     H52772   5.189   6.558   1.544  0.0354  1.7859  1.8871
  391MOL0     H52773   5.149   6.496   1.089 -0.8982 -3.0723 -1.9377
  391MOL0     H52774   5.136   6.364   1.193  2.4329 -1.8079  1.6021
  391MOL0     H52775   5.372   6.487   1.058 -3.0684  0.5873  0.7165
  391MOL0     H52776   5.307   6.316   1.053 -1.0956 -1.3550  1.2218
  391MOL0     H52777   5.413   6.279   1.285  0.4597 -0.0036 -0.5526
  391MOL0     H52778   5.448   6.443   1.307  0.0184 -1.7010  1.3595
  391MOL0     H52779   5.568   6.254   1.092  0.1341  0.5705 -0.0079
  391MOL0     H52780   5.597   6.425   1.094 -3.3358  0.4291 -2.1690
  391MOL0     H52781   5.851   6.279   1.416 -0.5749  0.1923 -0.5805
  391MOL0     H52782   5.019   6.662   1.158 -1.2966 -0.3184  0.0762
  391MOL0     H52783   4.779   6.881   1.251 -2.8006 -0.2243 -1.4412
  391MOL0     H52784   4.794   6.738   1.144 -1.8884 -2.6141  0.9313
  391MOL0     H52785   4.698   6.730   1.294 -2.5126  1.1087 -2.3273
  392MOL0     O52786   1.739   9.913  10.123 -0.5246 -0.1679 -0.4602
  392MOL0     C52787   1.747  10.017  10.185 -1.0781 -0.9518  0.8900
  392MOL0     O52788   1.867  10.066  10.234 -0.4726 -0.4552  0.2774
  392MOL0     C52789   1.978   9.984  10.239  0.0309  0.6273 -0.4024
  392MOL0     C52790   2.106  10.022  10.194 -0.1727 -0.2433 -0.6387
  392MOL0     C52791   2.215   9.933  10.219  0.8640 -0.4753  0.6628
  392MOL0     C52792   2.196   9.804  10.263 -0.0273 -0.0222 -0.4039
  392MOL0     O52793   2.302   9.721  10.265 -0.2119 -0.2222  0.1675
  392MOL0     C52794   2.350   9.668  10.144  0.5911  0.5527 -0.1590
  392MOL0     C52795   2.429   9.762  10.059 -0.9643  0.4309  0.2393
  392MOL0     C52796   2.513   9.669   9.968 -0.5418 -0.5085 -0.2800
  392MOL0     C52797   2.576   9.769   9.871  0.4976  0.4963  0.0881
  392MOL0     C52798   2.665   9.697   9.764  0.6405  0.2974 -0.7458
  392MOL0     C52799   2.771   9.608   9.841  0.0568  0.3288  0.5758
  392MOL0     C52800   2.838   9.537   9.715 -0.1346  0.9810  0.3177
  392MOL0     C52801   2.969   9.463   9.751  0.4254 -0.1218 -0.6712
  392MOL0     N52802   3.080   9.556   9.750  0.7771 -0.4305 -0.6139
  392MOL0     C52803   3.152   9.590   9.641 -0.7738  1.0021  0.1626
  392MOL0     C52804   3.266   9.642   9.689  0.0517  0.2556 -0.0313
  392MOL0     C52805   3.387   9.686   9.599  0.1721 -0.2290  0.1866
  392MOL0     C52806   3.391   9.845   9.606  0.1887 -1.1173 -0.0474
  392MOL0     C52807   3.509   9.905   9.528 -0.1336  0.4537 -0.3564
  392MOL0     C52808   3.650   9.843   9.569 -0.3644  0.5284  0.6864
  392MOL0     O52809   3.752   9.910   9.499 -0.8561  0.1094  0.6486
  392MOL0     C52810   3.888   9.888   9.532  0.4227 -0.0226  0.3135
  392MOL0     C52811   3.939   9.762   9.582 -0.3215 -0.1807 -0.7130
  392MOL0     C52812   4.072   9.747   9.615  0.5912 -0.9182  0.4257
  392MOL0     C52813   4.163   9.845   9.586 -1.0639 -0.0973  0.3422
  392MOL0     C52814   4.309   9.841   9.606  0.1116 -0.0835  0.0842
  392MOL0     O52815   4.355   9.720   9.647 -0.0592  0.8782 -0.5858
  392MOL0     C52816   4.491   9.693   9.652  0.2417 -0.3690 -0.0564
  392MOL0     C52817   4.530   9.569   9.590  0.0162  0.3792 -0.3465
  392MOL0     C52818   4.670   9.533   9.607  0.1612  1.0706 -0.4128
  392MOL0     C52819   4.762   9.605   9.670  0.3607 -0.8632 -0.9980
  392MOL0     O52820   4.893   9.572   9.679 -0.1991  0.3098 -0.1556
  392MOL0     C52821   4.935   9.440   9.630 -0.9449  0.4961 -0.4378
  392MOL0     C52822   5.095   9.429   9.643  0.7377 -0.7522  1.0475
  392MOL0     C52823   5.149   9.446   9.782 -0.0059 -0.7324  0.5346
  392MOL0     C52824   5.303   9.453   9.795 -0.0228  0.5885 -0.0136
  392MOL0     C52825   5.363   9.494   9.929  0.0903 -0.1965  1.3221
  392MOL0     C52826   5.514   9.459   9.925 -0.0941 -0.3666 -0.0739
  392MOL0     C52827   5.597   9.515   9.803 -0.9158 -0.4142  0.1700
  392MOL0     C52828   5.745   9.462   9.816 -0.2044  0.2948 -1.0110
  392MOL0    Cl52829   5.735   9.285   9.812  0.2854 -0.1772  0.0071
  392MOL0     C52830   4.715   9.736   9.725 -0.1219 -0.4542  0.0277
  392MOL0     C52831   4.581   9.770   9.722 -0.4685 -0.2260 -0.9903
  392MOL0     O52832   4.380   9.946   9.597 -0.2928  0.4157  0.4341
  392MOL0     C52833   4.118   9.968   9.541 -0.4926  0.4888 -0.0457
  392MOL0     C52834   3.978   9.989   9.515 -1.1472 -0.5798 -0.3998
  392MOL0     N52835   3.259   9.645   9.822 -0.0467 -0.2417 -0.4405
  392MOL0     N52836   3.144   9.597   9.859  0.1365  0.5751 -0.5266
  392MOL0     C52837   2.077   9.758  10.315  0.5595  0.5893  0.0882
  392MOL0     C52838   1.965   9.854  10.300  0.1879 -0.0815  0.1004
  392MOL0     C52839   1.624  10.098  10.187 -0.0792  0.1483  0.2034
  392MOL0     C52840   1.504  10.043  10.130 -0.5099  0.5262  0.1289
  392MOL0     C52841   1.384  10.104  10.124  0.1696 -0.8852 -0.3391
  392MOL0     C52842   1.371  10.234  10.174 -0.0775  0.0578  0.7108
  392MOL0     O52843   1.246  10.285  10.193  0.7507  0.1130 -0.0020
  392MOL0     C52844   1.225  10.426  10.208 -0.7824  0.3026 -0.1375
  392MOL0     C52845   1.081  10.453  10.231 -0.3877 -0.1549  0.1672
  392MOL0     C52846   1.044  10.406  10.371 -0.4058  0.0061  0.2034
  392MOL0     C52847   1.077  10.509  10.483 -0.1018 -0.4775  0.5170
  392MOL0     C52848   1.001  10.632  10.461  0.0931 -0.5979  0.0324
  392MOL0     C52849   0.938  10.735  10.462 -0.7301 -0.1892 -0.3924
  392MOL0     C52850   1.490  10.293  10.225 -0.5299  0.0197 -0.0497
  392MOL0     C52851   1.618  10.234  10.218  0.5308 -0.3631  0.1468
  392MOL0     C52852   1.744  10.316  10.253  0.4922 -0.2537 -0.3215
  392MOL0     H52853   2.116  10.121  10.150 -2.3518  0.5511  0.5280
  392MOL0     H52854   2.316   9.958  10.187 -0.3363 -1.1507 -4.4808
  392MOL0     H52855   2.421   9.593  10.181 -1.1222 -0.0461  2.1526
  392MOL0     H52856   2.275   9.611  10.089  0.0097  0.6332  0.5401
  392MOL0     H52857   2.493   9.824  10.123 -0.5103 -1.2272  1.4842
  392MOL0     H52858   2.353   9.821  10.008 -2.1339  0.7376  2.2283
  392MOL0     H52859   2.448   9.592   9.925  1.0839  0.0456 -4.1147
  392MOL0     H52860   2.585   9.615  10.030 -0.1296  0.3111 -0.0356
  392MOL0     H52861   2.489   9.812   9.821  0.5059  1.0289  0.5292
  392MOL0     H52862   2.633   9.846   9.922  0.9588  1.9463 -2.4432
  392MOL0     H52863   2.605   9.627   9.705  0.7554 -2.0132  1.6717
  392MOL0     H52864   2.703   9.772   9.694 -0.3611  0.2037 -1.4016
  392MOL0     H52865   2.836   9.667   9.907  1.8311 -0.2510 -0.5900
  392MOL0     H52866   2.734   9.527   9.905  1.2915  0.5925  1.6702
  392MOL0     H52867   2.856   9.597   9.626  0.2901  1.5710  0.7902
  392MOL0     H52868   2.774   9.453   9.686  2.1507 -1.9711  2.9539
  392MOL0     H52869   2.949   9.421   9.849 -3.1787  1.5507 -0.5503
  392MOL0     H52870   2.990   9.387   9.676 -0.1770 -0.5394 -0.4155
  392MOL0     H52871   3.131   9.559   9.539  0.8230  0.4818 -0.0299
  392MOL0     H52872   3.481   9.637   9.629  2.4387  1.3686 -3.5993
  392MOL0     H52873   3.386   9.673   9.491  0.4110 -0.8053  0.2470
  392MOL0     H52874   3.309   9.907   9.567  0.8543 -0.0429  0.1944
  392MOL0     H52875   3.403   9.883   9.707  0.4153  1.5529 -0.9897
  392MOL0     H52876   3.519  10.013   9.542 -1.8986  0.5689  0.3102
  392MOL0     H52877   3.490   9.893   9.421 -0.7213  0.4890 -0.2630
  392MOL0     H52878   3.646   9.737   9.543  1.8343  0.6204 -0.2070
  392MOL0     H52879   3.663   9.867   9.675 -0.2597 -1.4280  1.1485
  392MOL0     H52880   3.872   9.678   9.598  1.2594 -1.3368  0.0637
  392MOL0     H52881   4.104   9.656   9.666 -1.4221 -2.0676 -0.2397
  392MOL0     H52882   4.454   9.500   9.559  0.1835 -0.4780  1.0579
  392MOL0     H52883   4.700   9.430   9.587  1.9098  1.8543 -2.1642
  392MOL0     H52884   4.884   9.366   9.693 -2.5860  0.9521 -1.1786
  392MOL0     H52885   4.909   9.429   9.525 -1.2223  1.3052 -0.4609
  392MOL0     H52886   5.121   9.332   9.600 -1.2705 -0.6502 -0.5852
  392MOL0     H52887   5.143   9.507   9.582  1.6207 -0.2330  2.3653
  392MOL0     H52888   5.121   9.540   9.829 -3.0272  0.3005 -2.8641
  392MOL0     H52889   5.101   9.361   9.830 -3.4878 -1.3039 -3.3565
  392MOL0     H52890   5.325   9.526   9.717 -1.9019  1.8810  0.5926
  392MOL0     H52891   5.342   9.355   9.766  1.9943  2.2858 -3.7935
  392MOL0     H52892   5.302   9.438  10.000 -1.7445  0.5370  0.3825
  392MOL0     H52893   5.343   9.601   9.927 -5.0513 -0.9059 -0.3497
  392MOL0     H52894   5.563   9.509  10.009 -0.8927 -2.7438  1.9253
  392MOL0     H52895   5.516   9.350   9.926 -0.6975 -0.3823 -0.0365
  392MOL0     H52896   5.586   9.623   9.810  1.8418 -0.1810  2.4558
  392MOL0     H52897   5.567   9.483   9.703  1.6100  1.0278 -1.1418
  392MOL0     H52898   5.818   9.496   9.742 -1.3768  1.5853 -1.6415
  392MOL0     H52899   5.771   9.502   9.914 -0.7718 -1.5825 -0.0496
  392MOL0     H52900   4.794   9.793   9.772  0.9560  1.0878 -3.3362
  392MOL0     H52901   4.549   9.862   9.771 -0.4729 -1.1236  0.7575
  392MOL0     H52902   4.186  10.051   9.525  0.8776 -0.5156  0.3519
  392MOL0     H52903   3.942  10.085   9.479 -0.0342  0.5311  1.3127
  392MOL0     H52904   2.068   9.659  10.359  0.5209  1.6285  2.5743
  392MOL0     H52905   1.863   9.829  10.326  0.0523 -1.1660 -1.3725
  392MOL0     H52906   1.512   9.945  10.084  0.5500  1.8540 -2.7884
  392MOL0     H52907   1.296  10.053  10.085  1.0849 -2.5800 -0.2841
  392MOL0     H52908   1.271  10.494  10.137  2.2538 -2.5316 -1.1085
  392MOL0     H52909   1.276  10.449  10.302 -1.1521  1.7124 -0.2674
  392MOL0     H52910   1.020  10.409  10.151 -0.9224 -0.9775  1.0108
  392MOL0     H52911   1.056  10.559  10.222 -0.2429 -0.0058  1.3469
  392MOL0     H52912   1.091  10.309  10.390 -0.7105 -0.5517 -1.6639
  392MOL0     H52913   0.935  10.395  10.374 -0.6247  1.8759  3.0787
  392MOL0     H52914   1.050  10.468  10.580  0.1708 -0.1364  0.7397
  392MOL0     H52915   1.184  10.531  10.492 -0.0862  0.3525 -1.1850
  392MOL0     H52916   0.874  10.821  10.458 -0.2640  0.1264 -2.0650
  392MOL0     H52917   1.488  10.393  10.267 -0.6805  0.3187 -0.7422
  392MOL0     H52918   1.763  10.283  10.355  2.0189 -0.5684 -0.6858
  392MOL0     H52919   1.828  10.292  10.188  2.0023  0.6404  1.2263
  392MOL0     H52920   1.721  10.423  10.248  0.6356 -0.2074 -0.0050
  393MOL0     O52921  10.734   9.167   1.837  0.3935  0.7597  0.4253
  393MOL0     C52922  10.699   9.063   1.780 -0.8230 -0.7623  0.1570
  393MOL0     O52923  10.771   8.982   1.688  0.0523  0.0019 -0.1904
  393MOL0     C52924  10.900   9.014   1.654 -1.8237 -0.0359  0.1597
  393MOL0     C52925  10.998   8.915   1.633 -1.0925 -0.0355 -0.5978
  393MOL0     C52926  11.127   8.952   1.587  0.0110  0.7361  0.6863
  393MOL0     C52927  11.153   9.085   1.568  0.2977 -0.3973  0.0989
  393MOL0     O52928  11.275   9.106   1.521 -1.1208  0.6234  0.0247
  393MOL0     C52929  11.314   9.229   1.462 -0.1344 -0.1635 -0.7732
  393MOL0     C52930  11.456   9.214   1.403  0.0718  0.4707  0.8742
  393MOL0     C52931  11.569   9.230   1.504 -0.5966  0.1500 -0.1504
  393MOL0     C52932  11.592   9.374   1.556 -0.7464  0.1951 -0.5192
  393MOL0     C52933  11.738   9.399   1.607 -0.5442 -0.6895 -0.0593
  393MOL0     C52934  11.745   9.533   1.684 -0.5210 -0.4562 -0.0920
  393MOL0     C52935  11.879   9.567   1.749 -0.2350 -0.8246 -0.3721
  393MOL0     C52936  11.980   9.589   1.643 -0.1829 -0.6749 -0.5473
  393MOL0     N52937  12.100   9.638   1.705  0.2446 -0.4000  0.6573
  393MOL0     C52938  12.169   9.592   1.816 -0.2929 -0.3613  1.1558
  393MOL0     C52939  12.282   9.666   1.819 -0.4491  0.2392  1.0479
  393MOL0     C52940  12.392   9.659   1.913  0.0899 -0.0012 -0.4191
  393MOL0     C52941  12.506   9.606   1.830 -0.0931  0.3445 -0.8527
  393MOL0     C52942  12.612   9.560   1.925  0.6363  0.1712  0.1451
  393MOL0     C52943  12.734   9.519   1.843  0.9589 -0.2524 -0.2237
  393MOL0     O52944  12.826   9.458   1.935 -0.3034  0.3393  0.1158
  393MOL0     C52945  12.948   9.422   1.880  0.4971 -0.8056 -0.1866
  393MOL0     C52946  13.054   9.423   1.973  0.3875 -0.4175 -0.8187
  393MOL0     C52947  13.177   9.381   1.941  0.3180 -0.1675 -0.2115
  393MOL0     C52948  13.211   9.344   1.808  0.0270 -1.3793 -0.0111
  393MOL0     C52949  13.355   9.314   1.773  0.8351  0.0623 -0.2258
  393MOL0     O52950  13.457   9.344   1.861 -0.1926 -0.5403 -0.1530
  393MOL0     C52951  13.585   9.314   1.830 -0.2029 -0.6141 -0.0588
  393MOL0     C52952  13.683   9.304   1.937 -0.1818  0.1944  0.7803
  393MOL0     C52953  13.815   9.259   1.914 -0.5142 -0.3434  0.2811
  393MOL0     C52954  13.862   9.214   1.790  0.0541 -0.1771 -0.6378
  393MOL0     O52955  13.999   9.177   1.789 -0.3639  0.3472  0.5927
  393MOL0     C52956  14.044   9.167   1.651 -0.8057 -0.6939  0.0548
  393MOL0     C52957  14.188   9.109   1.645 -0.7815  1.1226 -0.7151
  393MOL0     C52958  14.294   9.201   1.694 -0.5907  0.0369 -0.3829
  393MOL0     C52959  14.417   9.119   1.745 -0.9692  0.5138 -0.2370
  393MOL0     C52960  14.546   9.207   1.759  0.6081 -0.3015  0.7678
  393MOL0     C52961  14.673   9.124   1.786 -0.5552  0.3390 -0.0701
  393MOL0     C52962  14.791   9.210   1.789 -0.4027  0.2690 -0.2913
  393MOL0     C52963  14.924   9.154   1.837 -0.2993  0.3384 -0.7046
  393MOL0    Cl52964  14.903   9.066   1.995 -0.2515  0.2003 -0.0185
  393MOL0     C52965  13.769   9.229   1.688  0.1371 -0.6642 -0.8097
  393MOL0     C52966  13.635   9.271   1.706 -0.0626  0.1705  0.4005
  393MOL0     O52967  13.364   9.247   1.674 -0.7012 -0.3335  0.1430
  393MOL0     C52968  13.111   9.360   1.711  0.3237 -0.1108 -0.2774
  393MOL0     C52969  12.977   9.385   1.746  0.6524 -0.0872  1.1213
  393MOL0     N52970  12.276   9.766   1.721 -0.0271 -0.3850  0.0111
  393MOL0     N52971  12.180   9.734   1.649  0.1546 -0.5288 -0.0539
  393MOL0     C52972  11.060   9.185   1.578 -0.4033  0.8267  0.3536
  393MOL0     C52973  10.931   9.152   1.619  0.4671 -0.6654  0.4014
  393MOL0     C52974  10.567   9.011   1.811 -0.6456 -0.5895 -0.1606
  393MOL0     C52975  10.510   8.911   1.735 -0.4816  0.0481  0.0783
  393MOL0     C52976  10.404   8.837   1.766  0.2390  0.1731  0.8166
  393MOL0     C52977  10.334   8.855   1.883  0.0615  0.0845  0.3805
  393MOL0     O52978  10.235   8.761   1.912 -0.4161 -0.3273 -0.2303
  393MOL0     C52979  10.158   8.712   1.802 -0.5851  0.0795  0.7494
  393MOL0     C52980  10.011   8.691   1.837 -0.4921 -0.2326  0.5601
  393MOL0     C52981   9.922   8.714   1.722  0.3528 -0.0611 -0.1142
  393MOL0     C52982   9.808   8.613   1.716  0.3050 -0.8930 -0.4184
  393MOL0     C52983   9.725   8.626   1.594  0.2820  0.3162 -0.0196
  393MOL0     C52984   9.652   8.639   1.494 -0.2893 -0.2408  0.3271
  393MOL0     C52985  10.378   8.958   1.965 -0.5620 -0.5111  0.1576
  393MOL0     C52986  10.493   9.034   1.934 -1.1083 -0.0175  0.4448
  393MOL0     C52987  10.535   9.128   2.044  0.2325  0.1039 -0.1562
  393MOL0     H52988  10.974   8.809   1.634  1.9880 -0.9253 -3.2218
  393MOL0     H52989  11.205   8.880   1.563 -0.9870  0.3847 -1.7475
  393MOL0     H52990  11.249   9.261   1.381 -0.5475 -0.1544 -0.4378
  393MOL0     H52991  11.313   9.307   1.539 -0.6464  0.4890 -1.4308
  393MOL0     H52992  11.463   9.281   1.318 -1.7418  4.3099  3.4617
  393MOL0     H52993  11.453   9.109   1.371 -3.4097 -0.2088  2.8653
  393MOL0     H52994  11.657   9.201   1.446 -0.9984 -1.7767  0.1409
  393MOL0     H52995  11.556   9.162   1.588  0.3526  0.1519  0.0100
  393MOL0     H52996  11.576   9.435   1.467 -0.9138  2.6162  1.0894
  393MOL0     H52997  11.516   9.401   1.630 -1.3091  0.8861 -1.3426
  393MOL0     H52998  11.768   9.318   1.675 -1.2277 -3.3298 -2.6692
  393MOL0     H52999  11.795   9.401   1.514 -1.2427  1.5853 -0.4847
  393MOL0     H53000  11.712   9.616   1.621 -1.1332  3.1058  4.4197
  393MOL0     H53001  11.669   9.544   1.762 -1.4253 -0.7282 -0.9085
  393MOL0     H53002  11.918   9.483   1.806 -0.4408 -1.3803 -1.0312
  393MOL0     H53003  11.873   9.658   1.808  0.2053 -1.0076 -0.0410
  393MOL0     H53004  11.999   9.496   1.589 -0.6630 -1.6813  0.9634
  393MOL0     H53005  11.943   9.670   1.580  1.3596  1.1139  0.7208
  393MOL0     H53006  12.142   9.511   1.883 -2.1432 -1.3553 -0.6782
  393MOL0     H53007  12.424   9.753   1.957  1.7172 -1.5850  2.0454
  393MOL0     H53008  12.372   9.585   1.991  1.1012 -0.0620 -0.2061
  393MOL0     H53009  12.470   9.523   1.768  1.1130  1.0832 -2.6299
  393MOL0     H53010  12.538   9.688   1.764 -0.3803  2.9639  2.0380
  393MOL0     H53011  12.572   9.475   1.981  0.2810  1.0964  1.3267
  393MOL0     H53012  12.640   9.637   1.997  0.2642 -1.8807  2.6420
  393MOL0     H53013  12.779   9.604   1.791 -0.0483  0.6085  0.2778
  393MOL0     H53014  12.698   9.449   1.767 -2.0601 -0.7129  1.4942
  393MOL0     H53015  13.033   9.455   2.075 -0.1247 -2.2967 -0.3060
  393MOL0     H53016  13.249   9.373   2.022  1.3315  2.4546 -0.7698
  393MOL0     H53017  13.638   9.334   2.031 -2.5096  1.2345 -0.5602
  393MOL0     H53018  13.887   9.254   1.995  1.8961  3.5191 -1.3310
  393MOL0     H53019  13.985   9.099   1.588  1.7338 -2.3260 -0.7223
  393MOL0     H53020  14.044   9.264   1.601  1.8447 -0.3134  0.6851
  393MOL0     H53021  14.197   9.006   1.681  3.2822  0.9538 -1.7768
  393MOL0     H53022  14.211   9.099   1.539  2.0725 -1.9328  0.0355
  393MOL0     H53023  14.310   9.272   1.613 -2.1687  1.4636  0.5028
  393MOL0     H53024  14.262   9.267   1.775  0.8164  1.9370 -1.2864
  393MOL0     H53025  14.424   9.031   1.680 -2.5706  0.5491 -0.5191
  393MOL0     H53026  14.397   9.083   1.846  0.1598  2.5293  0.7791
  393MOL0     H53027  14.529   9.283   1.836  0.4430 -1.5089  1.9574
  393MOL0     H53028  14.567   9.255   1.662 -1.5025 -0.7523  0.0297
  393MOL0     H53029  14.664   9.085   1.888  2.0802 -0.4300 -0.0712
  393MOL0     H53030  14.681   9.037   1.721  2.8721 -0.1258  0.7626
  393MOL0     H53031  14.772   9.285   1.867  0.7586 -1.5362  1.8399
  393MOL0     H53032  14.817   9.254   1.693 -0.7546  0.9403 -0.0840
  393MOL0     H53033  14.973   9.086   1.767  1.1522  0.1537  0.4349
  393MOL0     H53034  14.978   9.248   1.852 -0.2491  0.8273 -3.4681
  393MOL0     H53035  13.797   9.196   1.589 -0.3537  0.0468 -1.1996
  393MOL0     H53036  13.573   9.275   1.617  2.1559  0.7183 -1.2029
  393MOL0     H53037  13.144   9.326   1.613 -2.1736 -1.3023 -0.7821
  393MOL0     H53038  12.909   9.391   1.662  2.3466 -1.3677 -0.4321
  393MOL0     H53039  11.081   9.287   1.548  0.7860  0.4359 -0.2088
  393MOL0     H53040  10.861   9.233   1.630 -0.7529 -1.6951  0.4098
  393MOL0     H53041  10.558   8.868   1.647  0.8479 -1.7094  1.5893
  393MOL0     H53042  10.389   8.761   1.690  0.6721  0.4933  0.4057
  393MOL0     H53043  10.191   8.614   1.767 -4.9390 -0.8043 -1.6454
  393MOL0     H53044  10.153   8.785   1.721 -1.9977  3.2607  3.4726
  393MOL0     H53045   9.973   8.751   1.920 -2.2026  0.6089 -0.7635
  393MOL0     H53046  10.016   8.586   1.867  1.4171 -0.8297 -1.5052
  393MOL0     H53047   9.974   8.709   1.626  1.9796 -1.2050  0.7660
  393MOL0     H53048   9.876   8.812   1.736  0.5989 -0.0619  0.7873
  393MOL0     H53049   9.841   8.511   1.737 -0.9169 -0.8871  1.9227
  393MOL0     H53050   9.733   8.635   1.793 -0.7871  0.9014 -1.9182
  393MOL0     H53051   9.580   8.636   1.415 -0.1525 -3.5769  0.1511
  393MOL0     H53052  10.317   8.960   2.055 -1.2452  2.3051 -0.2693
  393MOL0     H53053  10.633   9.102   2.085 -0.8597 -0.6483  2.1317
  393MOL0     H53054  10.533   9.234   2.016  4.3771  0.5484  0.6278
  393MOL0     H53055  10.471   9.128   2.133  0.6833 -2.4048  0.2430
  394MOL0     O53056   5.830   2.097   7.062 -0.3575 -0.0413  0.1640
  394MOL0     C53057   5.843   1.977   7.079 -0.0556 -0.2755 -0.1035
  394MOL0     O53058   5.952   1.913   7.125  0.0619 -0.5173  0.9102
  394MOL0     C53059   6.073   1.975   7.096  0.3009  0.5105 -0.7551
  394MOL0     C53060   6.099   2.039   6.976 -0.1129  0.1377 -0.0996
  394MOL0     C53061   6.224   2.094   6.939  0.2667  0.8124  0.2877
  394MOL0     C53062   6.327   2.089   7.025  0.8776  0.1222 -0.6114
  394MOL0     O53063   6.446   2.133   6.973 -1.0664  0.1179  0.4722
  394MOL0     C53064   6.566   2.149   7.055 -0.0978 -0.3364  0.2496
  394MOL0     C53065   6.630   2.280   7.024  0.1682  0.2982  0.0330
  394MOL0     C53066   6.662   2.295   6.877  0.4860 -0.1698 -0.0966
  394MOL0     C53067   6.727   2.436   6.847 -0.9060  0.2983  0.2636
  394MOL0     C53068   6.769   2.457   6.705 -0.1422  0.5068  0.3318
  394MOL0     C53069   6.867   2.351   6.649  0.0825  0.1398  0.4920
  394MOL0     C53070   6.897   2.378   6.500 -0.4783 -0.7644  0.3058
  394MOL0     C53071   6.992   2.274   6.446  0.7091 -0.0996 -0.6890
  394MOL0     N53072   7.036   2.301   6.305 -0.0544  0.4645  0.1501
  394MOL0     C53073   7.076   2.209   6.220  0.3382  0.5449  0.7943
  394MOL0     C53074   7.134   2.279   6.117 -0.3721  0.3080 -0.1600
  394MOL0     C53075   7.207   2.222   6.005 -0.6884  0.2667  0.1421
  394MOL0     C53076   7.347   2.264   5.978 -0.4549  0.2732  0.3229
  394MOL0     C53077   7.431   2.322   6.095  0.3961  0.0528 -0.4460
  394MOL0     C53078   7.580   2.325   6.064 -0.8475 -0.8696 -0.0715
  394MOL0     O53079   7.613   2.418   5.954  0.3272  0.7742 -0.2147
  394MOL0     C53080   7.747   2.437   5.933 -0.5443  0.8247 -0.4677
  394MOL0     C53081   7.783   2.493   5.806  0.1569  0.3815 -0.4261
  394MOL0     C53082   7.912   2.516   5.764 -0.9268 -0.5108  0.6773
  394MOL0     C53083   8.017   2.483   5.853  0.3937 -0.3317  0.3845
  394MOL0     C53084   8.159   2.508   5.802  0.4225  0.0088 -0.9329
  394MOL0     O53085   8.260   2.468   5.883  0.2954  0.5287  0.4549
  394MOL0     C53086   8.394   2.455   5.839 -0.7216  0.0666 -0.2320
  394MOL0     C53087   8.432   2.435   5.702 -0.0565  0.1046 -0.9726
  394MOL0     C53088   8.565   2.424   5.663  0.1926 -0.1564  1.3393
  394MOL0     C53089   8.665   2.419   5.759  0.4578  0.2923 -1.1337
  394MOL0     O53090   8.794   2.413   5.706 -0.0543  0.8994  0.3478
  394MOL0     C53091   8.891   2.460   5.793  0.2959  0.3399  0.5493
  394MOL0     C53092   9.014   2.481   5.705 -0.4853 -0.1780  0.0409
  394MOL0     C53093   9.127   2.546   5.783 -0.2145  0.6287 -0.3641
  394MOL0     C53094   9.259   2.555   5.710  0.0295 -0.2219  0.4749
  394MOL0     C53095   9.329   2.421   5.722 -1.0535  0.3706 -0.2858
  394MOL0     C53096   9.434   2.398   5.601 -0.1369 -1.0382  0.5229
  394MOL0     C53097   9.503   2.261   5.612  0.3546 -0.9670 -0.7429
  394MOL0     C53098   9.598   2.236   5.495 -0.2455  1.0940  0.3849
  394MOL0    Cl53099   9.528   2.208   5.334 -0.1083 -0.0694  0.0582
  394MOL0     C53100   8.639   2.445   5.896  0.8334  0.9450  0.8482
  394MOL0     C53101   8.499   2.454   5.934  0.3205  0.6689 -0.5970
  394MOL0     O53102   8.169   2.563   5.694 -0.0730 -0.6606 -0.3279
  394MOL0     C53103   7.994   2.442   5.979 -0.0665  1.2774 -0.6582
  394MOL0     C53104   7.859   2.410   6.015 -0.7179 -0.0455  0.0802
  394MOL0     N53105   7.125   2.416   6.138 -0.0925 -1.0011 -0.4023
  394MOL0     N53106   7.068   2.425   6.249 -0.6055  0.8872 -0.9318
  394MOL0     C53107   6.312   2.018   7.144 -0.1512  0.5491 -0.0492
  394MOL0     C53108   6.183   1.972   7.183 -0.1021  0.1781 -0.1363
  394MOL0     C53109   5.720   1.897   7.085 -0.2356  0.4877 -0.6008
  394MOL0     C53110   5.718   1.779   7.153  0.1306 -1.6238  0.0506
  394MOL0     C53111   5.606   1.705   7.170 -0.3018 -0.3280 -0.4138
  394MOL0     C53112   5.493   1.745   7.096  0.1992  0.1129  0.2102
  394MOL0     O53113   5.390   1.653   7.101 -0.0927 -0.8101 -0.5189
  394MOL0     C53114   5.269   1.686   7.029 -0.0466 -0.1982  0.3624
  394MOL0     C53115   5.166   1.584   7.077 -0.0085 -0.3857  0.7040
  394MOL0     C53116   5.011   1.624   7.047 -0.2830 -0.3514 -0.0091
  394MOL0     C53117   4.915   1.525   7.127 -0.3217 -0.5063 -0.0498
  394MOL0     C53118   4.773   1.557   7.110 -0.2395  0.6313  0.7084
  394MOL0     C53119   4.655   1.585   7.090 -0.2195 -0.7456 -0.0021
  394MOL0     C53120   5.496   1.864   7.020 -0.1515 -0.1917 -0.0915
  394MOL0     C53121   5.606   1.940   7.006 -0.1730  0.6651 -0.1806
  394MOL0     C53122   5.596   2.050   6.898  0.1846 -0.1227 -0.1342
  394MOL0     H53123   6.026   2.048   6.896  1.5830  2.3729 -1.5189
  394MOL0     H53124   6.251   2.137   6.844 -1.4272  1.3906  0.0248
  394MOL0     H53125   6.539   2.146   7.161  2.0578 -2.7671  0.8447
  394MOL0     H53126   6.646   2.075   7.040  1.8372  1.8906 -1.1206
  394MOL0     H53127   6.719   2.285   7.087  0.8994  0.0686 -0.9550
  394MOL0     H53128   6.557   2.356   7.050  0.5466  1.1214 -1.2112
  394MOL0     H53129   6.568   2.282   6.822  0.5562 -0.2884 -0.1879
  394MOL0     H53130   6.720   2.206   6.852 -2.6740 -2.0601 -1.3490
  394MOL0     H53131   6.661   2.518   6.879 -0.0603  2.2929 -2.6898
  394MOL0     H53132   6.813   2.441   6.914 -2.4123  0.2558  2.3210
  394MOL0     H53133   6.675   2.468   6.649  1.1036  2.8237 -1.5055
  394MOL0     H53134   6.827   2.550   6.694 -0.1047  0.3381 -1.1697
  394MOL0     H53135   6.956   2.349   6.712 -0.2745  3.7104  1.2962
  394MOL0     H53136   6.822   2.252   6.660  0.5335 -0.3410 -1.4935
  394MOL0     H53137   6.958   2.469   6.493 -1.8918  0.2302  0.6088
  394MOL0     H53138   6.806   2.385   6.441 -0.6118  1.4718  0.6606
  394MOL0     H53139   7.076   2.262   6.515 -0.3594 -4.5985  0.1732
  394MOL0     H53140   6.951   2.173   6.452 -0.4294  0.4543  3.4800
  394MOL0     H53141   7.089   2.102   6.233 -0.8985  0.1013 -1.2042
  394MOL0     H53142   7.218   2.114   6.021 -1.9312  0.2865  1.2853
  394MOL0     H53143   7.146   2.213   5.914 -0.1412 -2.0522 -0.0817
  394MOL0     H53144   7.402   2.176   5.942 -1.8953 -1.2969  1.7113
  394MOL0     H53145   7.350   2.331   5.893  0.6546  0.2243  0.3072
  394MOL0     H53146   7.415   2.257   6.181 -2.0082  0.9067 -0.1748
  394MOL0     H53147   7.391   2.422   6.111 -0.6776 -0.5593  0.8396
  394MOL0     H53148   7.623   2.227   6.044 -0.5553 -0.7492 -0.0438
  394MOL0     H53149   7.631   2.366   6.152  2.2142  1.4335 -2.6867
  394MOL0     H53150   7.700   2.525   5.743  1.2277  1.1830 -1.4732
  394MOL0     H53151   7.928   2.558   5.665  0.7066  1.0899  1.5611
  394MOL0     H53152   8.355   2.421   5.626 -3.2807  2.2775  1.6174
  394MOL0     H53153   8.584   2.402   5.558  0.3858  0.2246  1.2909
  394MOL0     H53154   8.860   2.554   5.839  1.2752  0.7060  0.4835
  394MOL0     H53155   8.907   2.387   5.873 -1.5982  1.2541  1.8382
  394MOL0     H53156   9.048   2.384   5.665  2.0232  0.2672  0.9267
  394MOL0     H53157   8.999   2.547   5.619  1.6243  0.4152  0.0878
  394MOL0     H53158   9.095   2.647   5.810 -2.0718  0.3675 -1.4029
  394MOL0     H53159   9.149   2.494   5.877 -0.7044 -0.0547 -0.6148
  394MOL0     H53160   9.319   2.634   5.756  0.1913  1.1209 -1.9021
  394MOL0     H53161   9.244   2.583   5.606  1.1843 -0.1501  0.3140
  394MOL0     H53162   9.263   2.335   5.719 -1.8830  0.8714  1.8825
  394MOL0     H53163   9.392   2.416   5.812 -0.0917 -1.6993 -1.0022
  394MOL0     H53164   9.389   2.409   5.502  2.8837  0.1973 -0.8334
  394MOL0     H53165   9.504   2.481   5.601 -1.0645 -0.1963 -1.2967
  394MOL0     H53166   9.426   2.185   5.630  2.9657 -3.1965  2.0291
  394MOL0     H53167   9.558   2.267   5.707  1.9518  3.4305 -1.7117
  394MOL0     H53168   9.675   2.312   5.481  1.6229 -0.3119  2.2499
  394MOL0     H53169   9.659   2.149   5.523 -0.1318  1.4070  1.1428
  394MOL0     H53170   8.708   2.435   5.979  0.2013  2.0767  1.5378
  394MOL0     H53171   8.467   2.444   6.037 -0.9350 -1.7230 -1.1415
  394MOL0     H53172   8.084   2.431   6.038  0.3652  1.0793 -1.3392
  394MOL0     H53173   7.845   2.373   6.116  2.1362 -1.8721 -0.0973
  394MOL0     H53174   6.393   2.006   7.215  0.3053  0.3303 -0.5918
  394MOL0     H53175   6.174   1.942   7.287 -1.1385  4.2000  1.1381
  394MOL0     H53176   5.807   1.744   7.204  0.1111 -0.2961  1.0520
  394MOL0     H53177   5.613   1.619   7.234  0.1362  1.6907  2.4304
  394MOL0     H53178   5.287   1.667   6.923  1.5177 -0.9281  0.7257
  394MOL0     H53179   5.223   1.783   7.047 -1.2873 -1.0888  2.2938
  394MOL0     H53180   5.171   1.572   7.186 -0.3559 -0.6525  0.6913
  394MOL0     H53181   5.190   1.486   7.036 -0.6779 -0.7810  1.2410
  394MOL0     H53182   4.988   1.619   6.941 -0.1534  2.2936 -0.2326
  394MOL0     H53183   4.982   1.725   7.078 -3.0794 -0.9906 -0.2697
  394MOL0     H53184   4.935   1.420   7.101  2.0864  0.0864 -0.8841
  394MOL0     H53185   4.937   1.543   7.232 -1.0985 -1.8142  0.3631
  394MOL0     H53186   4.548   1.589   7.099 -0.2918 -0.9264 -0.7859
  394MOL0     H53187   5.411   1.909   6.969 -0.0766  0.5145  0.3984
  394MOL0     H53188   5.545   2.139   6.936  0.8246 -0.3431  1.3442
  394MOL0     H53189   5.695   2.073   6.857  0.2758  0.3240  0.3250
  394MOL0     H53190   5.539   2.009   6.815  1.4573  0.9054 -1.5857
  395MOL0     O53191   0.885   1.267   0.340 -0.3904 -0.0680  0.0997
  395MOL0     C53192   0.889   1.227   0.457  0.8130  0.8426  0.6499
  395MOL0     O53193   1.001   1.186   0.525  0.2145  0.1469 -0.4249
  395MOL0     C53194   1.109   1.163   0.443 -0.1382  1.1525 -1.3061
  395MOL0     C53195   1.209   1.260   0.416  0.6953 -0.2932 -0.2678
  395MOL0     C53196   1.321   1.220   0.354  0.7603 -0.0364  0.6650
  395MOL0     C53197   1.345   1.090   0.306 -0.0918 -0.2420  0.1607
  395MOL0     O53198   1.469   1.041   0.268  0.0360 -0.8095  0.4127
  395MOL0     C53199   1.559   1.133   0.202 -0.2202 -0.1261 -0.4668
  395MOL0     C53200   1.677   1.200   0.271  0.5581  0.9421 -0.9329
  395MOL0     C53201   1.781   1.252   0.174 -0.3179  0.6024  0.3702
  395MOL0     C53202   1.903   1.295   0.266  0.6270 -0.0876 -0.4688
  395MOL0     C53203   1.993   1.376   0.168 -0.3465  0.3014 -0.1829
  395MOL0     C53204   2.127   1.415   0.235 -0.1932 -0.1444  0.3991
  395MOL0     C53205   2.116   1.509   0.349  0.6108 -0.1108  0.6059
  395MOL0     C53206   2.242   1.590   0.364 -0.7039  0.0219  0.3523
  395MOL0     N53207   2.371   1.519   0.376 -0.4353 -0.2148  0.4947
  395MOL0     C53208   2.490   1.574   0.332 -0.0892 -0.1477  0.2542
  395MOL0     C53209   2.584   1.497   0.388  0.6120  0.0851 -0.9968
  395MOL0     C53210   2.728   1.513   0.393  1.2504 -0.4531  0.7751
  395MOL0     C53211   2.763   1.659   0.342 -0.3036  0.0787 -0.1205
  395MOL0     C53212   2.904   1.698   0.390 -0.1818  0.4753  0.0447
  395MOL0     C53213   2.923   1.720   0.548 -1.0943  0.7191 -0.3295
  395MOL0     O53214   3.009   1.616   0.609  0.1149  0.0040  0.5892
  395MOL0     C53215   3.151   1.633   0.619  0.9402  0.2825 -0.1152
  395MOL0     C53216   3.222   1.705   0.516  0.0970  0.5727 -0.4622
  395MOL0     C53217   3.351   1.726   0.533 -0.6258 -0.6225  0.1018
  395MOL0     C53218   3.430   1.679   0.633 -0.0682 -1.2525 -0.3825
  395MOL0     C53219   3.573   1.708   0.644  0.9437  0.3007  0.2059
  395MOL0     O53220   3.645   1.620   0.723  0.0804  0.6301  0.0102
  395MOL0     C53221   3.783   1.637   0.702  0.0848  0.7720 -0.7025
  395MOL0     C53222   3.876   1.656   0.814  0.2645  0.6104  0.0240
  395MOL0     C53223   4.011   1.692   0.794  1.2692  0.5345 -0.6875
  395MOL0     C53224   4.066   1.702   0.668 -0.1562 -0.4902  0.6305
  395MOL0     O53225   4.200   1.734   0.647  0.3277  0.2724  1.0204
  395MOL0     C53226   4.263   1.828   0.729 -0.4573  0.7003  0.6320
  395MOL0     C53227   4.407   1.859   0.670  0.1058  1.4996 -0.1309
  395MOL0     C53228   4.502   1.746   0.692  0.7666  0.1548 -0.1706
  395MOL0     C53229   4.610   1.768   0.808 -0.2105  0.4317 -0.0269
  395MOL0     C53230   4.721   1.658   0.810 -0.5256  0.5302  0.1145
  395MOL0     C53231   4.836   1.711   0.890 -1.3062  0.1339 -0.6323
  395MOL0     C53232   4.805   1.711   1.041 -0.5780 -0.4036 -0.1802
  395MOL0     C53233   4.782   1.571   1.107  0.1900  0.2344 -0.3363
  395MOL0    Cl53234   4.921   1.460   1.091  0.2909 -0.6222  0.2677
  395MOL0     C53235   3.987   1.674   0.553 -0.5723 -0.4922 -0.9919
  395MOL0     C53236   3.851   1.643   0.581 -0.0424 -0.7175  0.1498
  395MOL0     O53237   3.616   1.806   0.581 -0.2177 -0.6105 -0.1603
  395MOL0     C53238   3.366   1.603   0.732  0.5938  0.8357  0.6177
  395MOL0     C53239   3.225   1.580   0.728  0.0245 -0.2739  0.2564
  395MOL0     N53240   2.524   1.398   0.465  0.6539 -0.4218  0.1590
  395MOL0     N53241   2.399   1.415   0.455 -0.9376 -0.4352  0.2173
  395MOL0     C53242   1.244   0.997   0.323  0.4154 -0.4694  0.6127
  395MOL0     C53243   1.118   1.035   0.379 -0.0597  0.6738 -0.7529
  395MOL0     C53244   0.756   1.221   0.529  0.6405  0.3359  1.2784
  395MOL0     C53245   0.758   1.203   0.673 -0.2918  0.0311  0.0247
  395MOL0     C53246   0.638   1.185   0.746 -2.2602  1.0966  0.6022
  395MOL0     C53247   0.521   1.184   0.677  0.0072 -0.5404  0.1109
  395MOL0     O53248   0.403   1.192   0.747 -0.2762  0.7587 -0.9950
  395MOL0     C53249   0.395   1.140   0.883  0.3557 -0.4058 -0.2765
  395MOL0     C53250   0.263   1.071   0.907  0.3964 -0.4884 -0.4173
  395MOL0     C53251   0.146   1.170   0.928 -0.2851  0.5438 -0.0115
  395MOL0     C53252   0.043   1.122   1.022  0.3486  0.4723 -0.4051
  395MOL0     C53253  -0.021   0.999   0.977  0.2099 -0.2769 -0.1090
  395MOL0     C53254  -0.059   0.893   0.926  0.1343 -0.6291  0.0188
  395MOL0     C53255   0.513   1.211   0.546  0.4449 -0.3032  0.2914
  395MOL0     C53256   0.619   1.222   0.466  0.0580  0.0061 -0.1854
  395MOL0     C53257   0.599   1.220   0.316  0.0743 -0.8625 -0.0823
  395MOL0     H53258   1.196   1.357   0.462  0.6703 -0.2609 -0.3430
  395MOL0     H53259   1.400   1.294   0.342  0.9917 -0.5451 -1.4908
  395MOL0     H53260   1.612   1.072   0.128 -0.1359 -1.5418  0.7069
  395MOL0     H53261   1.502   1.204   0.142 -1.3094 -1.5773 -1.1974
  395MOL0     H53262   1.714   1.129   0.346  0.1689  0.1891 -1.4482
  395MOL0     H53263   1.647   1.290   0.325 -0.1196  0.6267 -0.7832
  395MOL0     H53264   1.740   1.330   0.110 -0.7027 -0.5619 -0.8497
  395MOL0     H53265   1.807   1.166   0.112 -3.7737  0.1548 -0.6727
  395MOL0     H53266   1.868   1.359   0.348 -0.4807 -0.3058 -0.7563
  395MOL0     H53267   1.959   1.208   0.300  3.2914  1.2351 -1.2359
  395MOL0     H53268   2.024   1.305   0.091 -0.3914 -2.1538  1.9175
  395MOL0     H53269   1.939   1.462   0.128 -1.6442 -0.6362 -0.5120
  395MOL0     H53270   2.184   1.331   0.275  0.0030  0.5149  1.5579
  395MOL0     H53271   2.189   1.451   0.153 -2.5416 -0.2527 -1.5275
  395MOL0     H53272   2.091   1.458   0.442  4.6089  2.5728  3.5012
  395MOL0     H53273   2.034   1.580   0.337 -0.4432 -1.0094  2.1034
  395MOL0     H53274   2.249   1.655   0.276  0.1362  0.8712  1.0365
  395MOL0     H53275   2.226   1.651   0.453  0.2978  0.5635  0.1747
  395MOL0     H53276   2.508   1.659   0.266 -1.5609  0.9077  1.1409
  395MOL0     H53277   2.751   1.495   0.498 -0.9716  0.9225  1.5751
  395MOL0     H53278   2.773   1.435   0.330 -1.3992 -0.9136 -0.7121
  395MOL0     H53279   2.750   1.664   0.233  3.6484 -0.9212 -0.7911
  395MOL0     H53280   2.689   1.733   0.374 -2.5243 -1.4429 -1.4294
  395MOL0     H53281   2.926   1.798   0.349  0.9830 -0.6647 -2.3304
  395MOL0     H53282   2.979   1.624   0.359 -0.6472  0.6741 -1.6797
  395MOL0     H53283   2.828   1.726   0.602 -0.1730 -1.1146  1.6377
  395MOL0     H53284   2.966   1.820   0.563 -1.3000  0.7993 -0.2713
  395MOL0     H53285   3.176   1.759   0.434  2.1615  3.3274  0.0398
  395MOL0     H53286   3.401   1.795   0.466  1.5752 -0.3777  1.8691
  395MOL0     H53287   3.829   1.655   0.912 -0.3801  2.4229 -0.2321
  395MOL0     H53288   4.080   1.717   0.874  1.9390  2.3310 -1.7659
  395MOL0     H53289   4.202   1.919   0.734  1.0574  1.7914 -0.0104
  395MOL0     H53290   4.273   1.796   0.833  1.2966  2.8121  1.1884
  395MOL0     H53291   4.393   1.872   0.563 -0.6837 -0.3761 -0.2942
  395MOL0     H53292   4.443   1.953   0.715  0.2477  1.3755  0.0149
  395MOL0     H53293   4.449   1.651   0.701  1.0367 -0.2086 -2.0577
  395MOL0     H53294   4.557   1.732   0.599 -0.5109  1.6978 -1.2312
  395MOL0     H53295   4.559   1.759   0.904 -0.0812  0.8928  0.0849
  395MOL0     H53296   4.655   1.867   0.814 -0.0688  0.3937 -0.4110
  395MOL0     H53297   4.750   1.639   0.706  1.0469 -1.8824  0.9040
  395MOL0     H53298   4.688   1.559   0.844  0.1927  0.3583  0.3276
  395MOL0     H53299   4.926   1.649   0.880 -0.8287  0.9044 -1.2308
  395MOL0     H53300   4.865   1.815   0.874 -1.5749  0.2507 -0.3657
  395MOL0     H53301   4.718   1.777   1.052 -2.6719 -2.5881 -2.2174
  395MOL0     H53302   4.890   1.756   1.092  0.1581 -2.6322  0.7102
  395MOL0     H53303   4.759   1.588   1.212 -0.7161 -1.2109 -0.2718
  395MOL0     H53304   4.691   1.522   1.070 -0.9808  3.2786 -1.8737
  395MOL0     H53305   4.030   1.681   0.454  2.0449  3.2646  0.1646
  395MOL0     H53306   3.790   1.631   0.492  0.8377  1.1994 -0.7666
  395MOL0     H53307   3.421   1.552   0.810 -1.5120 -1.0423  0.9769
  395MOL0     H53308   3.175   1.517   0.801  2.0704 -2.4188 -0.0460
  395MOL0     H53309   1.271   0.898   0.288  2.5974  0.0887  0.5602
  395MOL0     H53310   1.029   0.972   0.378 -0.0115  0.5875 -2.5476
  395MOL0     H53311   0.848   1.199   0.735 -0.2403 -0.8489 -0.0890
  395MOL0     H53312   0.649   1.171   0.853  2.5736  0.1177  0.2232
  395MOL0     H53313   0.394   1.231   0.944  1.0214  1.1496 -2.4710
  395MOL0     H53314   0.474   1.071   0.914  0.7589  0.5847  1.0126
  395MOL0     H53315   0.285   1.023   1.003 -0.0810  1.6776  0.8371
  395MOL0     H53316   0.235   1.003   0.826  1.4025  0.1222 -1.2947
  395MOL0     H53317   0.110   1.190   0.826  2.9093  1.8783 -1.0114
  395MOL0     H53318   0.190   1.264   0.961  3.5342 -1.1503  0.1718
  395MOL0     H53319   0.085   1.110   1.122  1.6776 -1.3091 -1.1072
  395MOL0     H53320  -0.038   1.195   1.026 -0.3782 -0.0885 -2.9176
  395MOL0     H53321  -0.097   0.807   0.875 -1.8984  1.3149 -1.9809
  395MOL0     H53322   0.411   1.200   0.511  0.2462  1.0942  0.3910
  395MOL0     H53323   0.646   1.127   0.283  1.6711 -0.2951  0.5448
  395MOL0     H53324   0.492   1.211   0.291 -1.6441  2.5549  4.5914
  395MOL0     H53325   0.647   1.304   0.265 -3.2033  1.3282  0.1266
  396MOL0     O53326   2.778   7.337   6.354 -0.1272  0.1930  0.2883
  396MOL0     C53327   2.682   7.297   6.293  0.0118  0.0907 -0.1076
  396MOL0     O53328   2.689   7.204   6.191  0.3098 -0.0988  0.8366
  396MOL0     C53329   2.812   7.162   6.154 -0.2733 -0.4342  0.0798
  396MOL0     C53330   2.877   7.230   6.043  0.5638  0.0807 -0.4751
  396MOL0     C53331   2.999   7.198   6.003 -0.5000  0.0649  0.0035
  396MOL0     C53332   3.073   7.090   6.058 -0.2170 -0.9391  0.8822
  396MOL0     O53333   3.198   7.060   6.013 -0.5619 -0.3477 -0.5507
  396MOL0     C53334   3.294   7.037   6.114  0.4210  0.6125  0.4177
  396MOL0     C53335   3.434   7.054   6.068  1.0158 -0.6990 -0.3137
  396MOL0     C53336   3.485   6.928   5.985 -0.7868  0.4081  0.1133
  396MOL0     C53337   3.615   6.958   5.901  0.4856 -0.6743  0.3611
  396MOL0     C53338   3.612   6.867   5.779 -0.5904 -0.3318  0.2168
  396MOL0     C53339   3.627   6.725   5.818  0.1614  0.3011 -0.0258
  396MOL0     C53340   3.626   6.632   5.708  0.1716  0.2523 -0.2078
  396MOL0     C53341   3.632   6.481   5.748  1.1436  0.0630 -0.1695
  396MOL0     N53342   3.780   6.450   5.786  0.7936 -0.0175 -0.1141
  396MOL0     C53343   3.826   6.473   5.917  0.4022  0.5843  0.1859
  396MOL0     C53344   3.957   6.428   5.916 -0.0844  0.6689  0.1238
  396MOL0     C53345   4.046   6.437   6.043 -0.5540 -0.8930  0.2224
  396MOL0     C53346   4.155   6.542   6.028 -0.0522 -0.0112 -0.7385
  396MOL0     C53347   4.271   6.494   6.118 -0.2003  0.0494  0.5092
  396MOL0     C53348   4.375   6.602   6.126 -0.7522 -0.2278  0.1510
  396MOL0     O53349   4.501   6.533   6.118  0.4760 -0.6821 -0.3552
  396MOL0     C53350   4.620   6.584   6.156 -0.2190  0.5106  0.3289
  396MOL0     C53351   4.651   6.715   6.165  0.3856  0.2915 -0.8364
  396MOL0     C53352   4.784   6.759   6.186 -0.0972  0.4721  0.4689
  396MOL0     C53353   4.881   6.667   6.210  0.2895  0.3395 -0.9092
  396MOL0     C53354   5.023   6.702   6.224 -0.1380 -0.0672 -0.0364
  396MOL0     O53355   5.113   6.607   6.248  0.3436  0.1475  0.6446
  396MOL0     C53356   5.242   6.638   6.267  0.0908 -0.2877  0.5517
  396MOL0     C53357   5.297   6.608   6.388 -0.7655  0.4185 -0.9793
  396MOL0     C53358   5.426   6.654   6.423  0.5489 -0.3573  0.0388
  396MOL0     C53359   5.499   6.729   6.333  0.8282 -0.8770  0.7223
  396MOL0     O53360   5.614   6.784   6.379 -0.4007  0.1898 -0.1148
  396MOL0     C53361   5.725   6.730   6.304  0.2265  0.0371  0.8012
  396MOL0     C53362   5.868   6.719   6.358  0.0447 -0.3361  0.2095
  396MOL0     C53363   5.938   6.851   6.370 -0.5829  0.3159 -0.5218
  396MOL0     C53364   6.061   6.842   6.461 -0.7624 -0.7127  0.3212
  396MOL0     C53365   6.130   6.971   6.470 -0.7137  0.2469 -0.0008
  396MOL0     C53366   6.263   6.950   6.537  0.0152  0.3876 -0.3935
  396MOL0     C53367   6.341   7.081   6.530 -0.1947  0.3025 -0.0137
  396MOL0     C53368   6.468   7.094   6.614 -0.2128 -0.5732  0.6943
  396MOL0    Cl53369   6.432   7.019   6.776 -0.1235 -0.6089 -0.2801
  396MOL0     C53370   5.446   6.765   6.208 -0.5272  0.2584  1.1942
  396MOL0     C53371   5.320   6.713   6.169  0.0284 -0.1758 -0.6453
  396MOL0     O53372   5.049   6.819   6.221 -0.0937  0.0577  0.1323
  396MOL0     C53373   4.850   6.527   6.219  0.6685  1.0318  0.8917
  396MOL0     C53374   4.712   6.489   6.184  0.1403  0.1370 -0.4563
  396MOL0     N53375   3.985   6.394   5.780 -0.2839 -0.4054 -0.0927
  396MOL0     N53376   3.882   6.417   5.707  0.5293  0.5001  0.1427
  396MOL0     C53377   3.006   7.011   6.153 -0.4705  0.2224  0.5578
  396MOL0     C53378   2.879   7.048   6.205  1.0429 -0.2747 -0.1608
  396MOL0     C53379   2.553   7.335   6.353 -0.0303  0.5403  0.9298
  396MOL0     C53380   2.520   7.469   6.371  0.7919  0.7501 -0.1368
  396MOL0     C53381   2.397   7.509   6.416  0.0513  0.3978 -1.0847
  396MOL0     C53382   2.298   7.419   6.438 -0.4798  0.3859  0.1980
  396MOL0     O53383   2.174   7.457   6.481  0.4305 -0.1901 -0.0519
  396MOL0     C53384   2.095   7.378   6.568  0.2600  0.6201  0.5515
  396MOL0     C53385   1.988   7.307   6.498  0.8153  0.3455 -0.2722
  396MOL0     C53386   1.890   7.412   6.425 -0.5578  0.5929 -0.1513
  396MOL0     C53387   1.746   7.352   6.409  0.5010 -0.1536  0.5671
  396MOL0     C53388   1.643   7.457   6.391 -0.1903 -0.4996  1.3631
  396MOL0     C53389   1.555   7.538   6.376  0.2224  0.5702 -0.9610
  396MOL0     C53390   2.324   7.277   6.416 -0.4821 -0.4212  0.2106
  396MOL0     C53391   2.459   7.235   6.384  0.5163  0.2532  0.0282
  396MOL0     C53392   2.471   7.087   6.371  0.1582  0.1797  0.2183
  396MOL0     H53393   2.820   7.311   5.999 -1.9726 -0.4994  1.4890
  396MOL0     H53394   3.048   7.255   5.925  2.0485 -0.4225  1.1256
  396MOL0     H53395   3.282   7.090   6.209 -1.7178 -0.9087  1.0686
  396MOL0     H53396   3.275   6.935   6.149  1.0557 -0.6693 -2.6044
  396MOL0     H53397   3.500   7.076   6.152 -1.3652  1.0283  1.2437
  396MOL0     H53398   3.435   7.147   6.010 -0.0620 -0.1275  0.5592
  396MOL0     H53399   3.410   6.896   5.911  1.6806 -2.0877 -1.4966
  396MOL0     H53400   3.509   6.845   6.052 -0.2923  1.0772  0.7789
  396MOL0     H53401   3.632   7.061   5.869  2.0790 -0.2285  2.4572
  396MOL0     H53402   3.698   6.925   5.964  0.2733  1.0028  1.6075
  396MOL0     H53403   3.521   6.881   5.720 -0.5694 -5.0091 -1.3598
  396MOL0     H53404   3.697   6.881   5.711 -1.4881  1.2166 -0.6523
  396MOL0     H53405   3.707   6.699   5.889  0.4719 -1.3375 -0.9117
  396MOL0     H53406   3.543   6.696   5.881  0.2670 -1.5051 -0.6578
  396MOL0     H53407   3.714   6.641   5.643  0.7843 -4.8858 -0.5369
  396MOL0     H53408   3.534   6.642   5.651 -0.6232  3.0016  1.3817
  396MOL0     H53409   3.566   6.457   5.832  0.3189  0.3189 -0.7337
  396MOL0     H53410   3.608   6.408   5.670 -0.2076  0.0952  0.1972
  396MOL0     H53411   3.765   6.506   6.000  0.8548  0.7937  0.4369
  396MOL0     H53412   3.981   6.466   6.126 -3.1066  0.6999 -2.1474
  396MOL0     H53413   4.094   6.340   6.056  1.8505 -0.0108 -1.5245
  396MOL0     H53414   4.187   6.540   5.923 -0.1563 -1.1353 -0.7522
  396MOL0     H53415   4.116   6.639   6.063 -2.6583 -0.9698 -0.7901
  396MOL0     H53416   4.305   6.400   6.072 -1.3081  1.0100 -2.5434
  396MOL0     H53417   4.235   6.482   6.220 -0.2453  1.3411  0.6535
  396MOL0     H53418   4.367   6.647   6.226 -0.5015 -1.2178  0.6270
  396MOL0     H53419   4.370   6.673   6.043 -1.6312  2.0526  2.0396
  396MOL0     H53420   4.568   6.783   6.149  1.6855  1.9328 -0.9996
  396MOL0     H53421   4.815   6.863   6.194 -0.8930  0.8020 -0.6233
  396MOL0     H53422   5.241   6.564   6.470  0.0240 -1.1224 -1.2238
  396MOL0     H53423   5.483   6.636   6.513  1.2883  3.3862  0.4924
  396MOL0     H53424   5.700   6.633   6.260  1.2134  0.7828 -1.5538
  396MOL0     H53425   5.736   6.802   6.222  2.5856  0.5444  1.4761
  396MOL0     H53426   5.871   6.657   6.447 -1.5711  0.3647  0.7891
  396MOL0     H53427   5.927   6.663   6.285 -0.6162  0.2855 -0.8363
  396MOL0     H53428   5.962   6.899   6.275  2.0923 -0.1250 -0.1566
  396MOL0     H53429   5.881   6.918   6.435  1.4194  0.1252  1.5847
  396MOL0     H53430   6.129   6.758   6.441 -1.4653 -2.6563  4.8753
  396MOL0     H53431   6.030   6.815   6.562  0.5362 -0.5687  0.7680
  396MOL0     H53432   6.071   7.044   6.526  2.3906  1.6465  1.6561
  396MOL0     H53433   6.144   7.000   6.365 -0.3456  0.0672 -0.0043
  396MOL0     H53434   6.253   6.899   6.634 -1.0822  2.7359  0.8045
  396MOL0     H53435   6.326   6.878   6.484  2.2501  0.7698  1.5846
  396MOL0     H53436   6.275   7.157   6.572  0.8568  0.6458  1.0736
  396MOL0     H53437   6.356   7.094   6.422  4.1893  1.0595  0.5130
  396MOL0     H53438   6.557   7.052   6.566  1.3555  1.7587  1.3804
  396MOL0     H53439   6.499   7.195   6.644 -2.7161 -0.0878  1.8630
  396MOL0     H53440   5.504   6.831   6.144  0.9956 -0.1676  2.0774
  396MOL0     H53441   5.275   6.753   6.079 -1.3935 -5.0058 -2.3889
  396MOL0     H53442   4.923   6.454   6.251  2.2564  1.5583 -1.3065
  396MOL0     H53443   4.672   6.389   6.177 -1.3481  0.7233 -0.5120
  396MOL0     H53444   3.047   6.921   6.198 -1.4682 -0.4859  0.0914
  396MOL0     H53445   2.844   6.994   6.292 -0.9560 -0.5053 -1.0456
  396MOL0     H53446   2.597   7.539   6.341  1.8037 -1.1462 -2.2264
  396MOL0     H53447   2.370   7.614   6.426  0.2753  0.2361  3.5856
  396MOL0     H53448   2.047   7.443   6.642  1.5996  0.1520  1.8850
  396MOL0     H53449   2.154   7.304   6.624 -1.2853  0.3959  1.9702
  396MOL0     H53450   1.926   7.254   6.570  1.0804  1.6729  0.9639
  396MOL0     H53451   2.032   7.242   6.421 -0.9640  1.0145 -1.9548
  396MOL0     H53452   1.939   7.429   6.328  0.6897  0.3214  0.4100
  396MOL0     H53453   1.885   7.503   6.485  1.7732 -0.6793  2.1449
  396MOL0     H53454   1.753   7.291   6.319 -0.9527 -0.7650  0.8547
  396MOL0     H53455   1.722   7.291   6.497 -2.4536 -3.9103 -2.5366
  396MOL0     H53456   1.473   7.606   6.361 -1.6133 -0.9498  1.4808
  396MOL0     H53457   2.241   7.210   6.434 -0.9790  0.1958  0.2256
  396MOL0     H53458   2.373   7.041   6.358  1.1367 -1.5806 -1.4481
  396MOL0     H53459   2.524   7.054   6.281 -1.5711  0.0547 -0.7836
  396MOL0     H53460   2.529   7.038   6.450  1.0043 -1.8554 -1.5866
  397MOL0     O53461   0.551  10.578   5.332 -0.1419  0.1516 -0.2148
  397MOL0     C53462   0.522  10.628   5.226  0.3536 -0.0911  1.0654
  397MOL0     O53463   0.603  10.705   5.137 -0.0469  0.1740 -0.0307
  397MOL0     C53464   0.742  10.699   5.136  0.1908  0.4707 -0.5864
  397MOL0     C53465   0.819  10.804   5.082 -0.1670 -0.4893 -1.0279
  397MOL0     C53466   0.959  10.811   5.085  0.9863  0.2634  0.3691
  397MOL0     C53467   1.033  10.703   5.123  0.2557  0.2144 -0.1554
  397MOL0     O53468   1.170  10.704   5.117 -0.8487  0.1861 -0.0971
  397MOL0     C53469   1.250  10.615   5.201  0.6115  0.6129 -0.0169
  397MOL0     C53470   1.382  10.682   5.207 -0.9551 -0.4598 -0.1867
  397MOL0     C53471   1.485  10.577   5.261  0.0769 -0.7101  0.2799
  397MOL0     C53472   1.610  10.651   5.305  0.0571  0.0576  0.4612
  397MOL0     C53473   1.713  10.552   5.346 -1.0459  1.3057  0.1724
  397MOL0     C53474   1.832  10.630   5.409 -0.7640  0.2574  0.2573
  397MOL0     C53475   1.924  10.538   5.494  0.4482  0.6743 -0.4989
  397MOL0     C53476   2.004  10.624   5.593  0.8050  0.3577  0.6036
  397MOL0     N53477   2.125  10.553   5.637 -0.9158  0.0223 -0.6092
  397MOL0     C53478   2.132  10.415   5.659  0.0031 -0.8768  0.5134
  397MOL0     C53479   2.259  10.385   5.683  0.2076 -0.0708  0.2091
  397MOL0     C53480   2.309  10.246   5.724 -0.0193  0.4490 -0.1381
  397MOL0     C53481   2.435  10.219   5.636  0.3940 -0.3614  0.2509
  397MOL0     C53482   2.500  10.094   5.691 -0.0851 -0.4724  0.3576
  397MOL0     C53483   2.635  10.062   5.627  0.0497  0.2853  0.4155
  397MOL0     O53484   2.739  10.142   5.680 -0.2575  0.0634 -0.2506
  397MOL0     C53485   2.871  10.090   5.664 -0.1132 -0.9069 -0.2365
  397MOL0     C53486   2.964  10.116   5.763 -0.6673  0.3948 -0.9704
  397MOL0     C53487   3.095  10.059   5.761  0.4864 -0.1721 -0.2483
  397MOL0     C53488   3.134   9.979   5.654  0.0229 -0.3814 -0.0782
  397MOL0     C53489   3.264   9.910   5.654 -0.4462 -0.6539  0.4841
  397MOL0     O53490   3.351   9.955   5.749  0.8185  0.3139  0.2501
  397MOL0     C53491   3.478   9.907   5.758 -0.4865  0.3773 -1.0225
  397MOL0     C53492   3.573   9.905   5.660 -0.1661  0.5454  0.6626
  397MOL0     C53493   3.702   9.849   5.667 -0.3454 -0.1930 -0.0188
  397MOL0     C53494   3.740   9.785   5.788  0.6889  0.3843 -0.3118
  397MOL0     O53495   3.856   9.717   5.816 -0.1867  0.2290 -0.6359
  397MOL0     C53496   3.977   9.740   5.745  0.9595 -0.5012 -0.0519
  397MOL0     C53497   4.044   9.875   5.793  0.4145  1.2295  0.3889
  397MOL0     C53498   4.169   9.904   5.707 -0.6538  0.3854  0.2143
  397MOL0     C53499   4.201  10.059   5.722  0.2360 -0.6972  1.3278
  397MOL0     C53500   4.342  10.079   5.659  0.1183 -0.1140  0.4159
  397MOL0     C53501   4.410  10.207   5.710  0.6573 -0.0910 -0.1579
  397MOL0     C53502   4.560  10.183   5.685  0.8787  0.3289  0.7491
  397MOL0     C53503   4.630  10.317   5.690 -0.5498 -0.1559  0.0924
  397MOL0    Cl53504   4.667  10.342   5.867  0.1143  0.4574  0.1097
  397MOL0     C53505   3.641   9.773   5.888  0.2817 -0.2856  0.5941
  397MOL0     C53506   3.524   9.840   5.877 -0.0174 -0.1000  0.5884
  397MOL0     O53507   3.290   9.822   5.573 -0.0778  0.1539  0.6010
  397MOL0     C53508   3.039   9.951   5.553 -0.5207  0.1182  0.2355
  397MOL0     C53509   2.913  10.011   5.561  1.1657  0.4909 -0.7807
  397MOL0     N53510   2.330  10.502   5.670  0.0689 -0.3435  0.2382
  397MOL0     N53511   2.251  10.604   5.640 -0.3817  0.0241 -1.0434
  397MOL0     C53512   0.960  10.590   5.162  0.0496  0.7126 -0.5443
  397MOL0     C53513   0.820  10.583   5.176 -0.2504 -0.0876 -0.0992
  397MOL0     C53514   0.379  10.619   5.184 -0.5787 -0.4876 -0.3846
  397MOL0     C53515   0.329  10.725   5.103  0.4532 -0.4845  0.2468
  397MOL0     C53516   0.196  10.727   5.047  0.2306  0.0584  0.1508
  397MOL0     C53517   0.108  10.626   5.086  0.5123  0.2738  0.1686
  397MOL0     O53518  -0.022  10.597   5.038  0.2553  0.0277  0.5146
  397MOL0     C53519  -0.055  10.649   4.907 -0.3575 -0.2019  0.0631
  397MOL0     C53520  -0.198  10.616   4.873  0.7648  0.2071  0.3283
  397MOL0     C53521  -0.223  10.572   4.726  0.2820 -0.2819  0.3603
  397MOL0     C53522  -0.352  10.482   4.726 -0.7318  0.0946 -0.0800
  397MOL0     C53523  -0.307  10.348   4.756  0.1387  0.3974  0.6227
  397MOL0     C53524  -0.280  10.236   4.788  0.0803  0.6083  0.3250
  397MOL0     C53525   0.150  10.527   5.176  1.0911 -0.6668  0.5686
  397MOL0     C53526   0.285  10.521   5.220 -0.5347 -0.3853  0.2685
  397MOL0     C53527   0.324  10.406   5.319  0.1485 -0.1989 -0.5602
  397MOL0     H53528   0.776  10.899   5.051  1.1940  0.8926  1.0640
  397MOL0     H53529   1.007  10.898   5.043 -1.8972  0.1387 -3.7973
  397MOL0     H53530   1.206  10.598   5.299  2.2176 -0.7327  0.5232
  397MOL0     H53531   1.250  10.521   5.145 -2.8086  1.5930 -2.0069
  397MOL0     H53532   1.369  10.769   5.272 -3.3841 -0.3081 -0.7638
  397MOL0     H53533   1.409  10.732   5.114  1.1788 -0.6573  0.2765
  397MOL0     H53534   1.519  10.511   5.181 -0.9174 -0.8667 -0.0210
  397MOL0     H53535   1.439  10.516   5.338  2.0287 -0.6636  1.5559
  397MOL0     H53536   1.645  10.721   5.228 -0.6148  0.2490  0.3237
  397MOL0     H53537   1.595  10.720   5.389  4.2161  1.0946  0.6058
  397MOL0     H53538   1.663  10.489   5.420 -1.5164  0.4183 -0.8787
  397MOL0     H53539   1.759  10.492   5.267 -0.4528  2.6415 -0.5331
  397MOL0     H53540   1.886  10.672   5.324 -0.6767 -0.4124 -0.0211
  397MOL0     H53541   1.790  10.708   5.473  0.1875  1.9882 -1.1639
  397MOL0     H53542   1.995  10.487   5.428  3.7145  2.1789  1.5816
  397MOL0     H53543   1.861  10.462   5.542  1.6824 -0.5520 -0.7590
  397MOL0     H53544   2.045  10.711   5.540  0.3250 -0.3665 -1.0149
  397MOL0     H53545   1.938  10.656   5.674  1.3226  0.0455  1.1647
  397MOL0     H53546   2.046  10.350   5.651 -0.0758 -0.6573 -0.7435
  397MOL0     H53547   2.338  10.252   5.830  1.9478 -1.0724 -0.5389
  397MOL0     H53548   2.241  10.160   5.724 -0.1498  0.5526 -0.3498
  397MOL0     H53549   2.411  10.211   5.530 -1.3145 -1.4844  0.6728
  397MOL0     H53550   2.504  10.303   5.641 -1.6966  1.3879  2.0141
  397MOL0     H53551   2.435  10.009   5.670  1.1691 -1.3677 -0.0071
  397MOL0     H53552   2.517  10.106   5.798 -1.9914  1.9573  0.4825
  397MOL0     H53553   2.639  10.072   5.519  4.0615 -4.8221 -0.3404
  397MOL0     H53554   2.653   9.956   5.647 -1.2901 -0.3293 -1.4238
  397MOL0     H53555   2.943  10.188   5.842 -0.0804  1.2519 -1.5800
  397MOL0     H53556   3.173  10.092   5.830 -0.5359  0.4879  0.6223
  397MOL0     H53557   3.539   9.939   5.563  1.1030  2.3663  0.8024
  397MOL0     H53558   3.770   9.855   5.582 -0.3381  2.6500  0.0888
  397MOL0     H53559   4.038   9.652   5.768  0.5195 -0.1882  2.5710
  397MOL0     H53560   3.947   9.748   5.640 -3.5313 -2.1576  0.9061
  397MOL0     H53561   3.963   9.942   5.763  1.5771  1.6216 -2.0954
  397MOL0     H53562   4.055   9.871   5.902 -0.3971  0.9166  0.4627
  397MOL0     H53563   4.251   9.838   5.736 -0.5514  0.2135 -0.4504
  397MOL0     H53564   4.147   9.880   5.603 -1.2789  0.4213  0.3310
  397MOL0     H53565   4.189  10.088   5.827  1.4491  0.5777  1.1431
  397MOL0     H53566   4.128  10.113   5.662  0.9472  0.9274  1.8678
  397MOL0     H53567   4.318  10.101   5.554 -2.7270 -1.0388  0.7925
  397MOL0     H53568   4.402   9.988   5.659 -2.1503 -1.6766  0.2109
  397MOL0     H53569   4.376  10.298   5.661 -0.6330  2.9258  5.5191
  397MOL0     H53570   4.389  10.228   5.815 -1.6468  1.9534 -0.9335
  397MOL0     H53571   4.553  10.141   5.584 -1.0750 -0.3837  1.1407
  397MOL0     H53572   4.613  10.110   5.747 -0.6982 -1.9765 -0.4765
  397MOL0     H53573   4.727  10.306   5.642  0.3297  1.6996  1.3307
  397MOL0     H53574   4.580  10.404   5.647 -0.1289 -0.5549 -1.2330
  397MOL0     H53575   3.655   9.717   5.980 -1.1475 -0.5294  0.6883
  397MOL0     H53576   3.462   9.846   5.965  2.1551  0.5310  2.1525
  397MOL0     H53577   3.053   9.882   5.470 -3.6824 -1.9871  1.2438
  397MOL0     H53578   2.846   9.976   5.483  2.0674 -1.3336 -0.7961
  397MOL0     H53579   1.007  10.497   5.193 -1.3687 -0.2120 -1.0499
  397MOL0     H53580   0.784  10.488   5.216 -0.9149 -0.4922 -1.6178
  397MOL0     H53581   0.387  10.809   5.066 -3.4741  2.6392  0.5186
  397MOL0     H53582   0.163  10.796   4.970 -0.3645 -0.8164 -0.4110
  397MOL0     H53583  -0.001  10.610   4.820 -3.0473  0.6974 -2.1501
  397MOL0     H53584  -0.041  10.758   4.905  0.8610 -0.3131  1.0782
  397MOL0     H53585  -0.259  10.703   4.898  1.6439  0.6196  1.0978
  397MOL0     H53586  -0.229  10.543   4.947  0.0468  0.9565  0.7841
  397MOL0     H53587  -0.134  10.519   4.692  0.8503  0.3838  0.8096
  397MOL0     H53588  -0.249  10.663   4.671 -3.7887 -1.8605 -0.7614
  397MOL0     H53589  -0.428  10.512   4.799 -1.1198  2.4180 -1.3648
  397MOL0     H53590  -0.392  10.479   4.625  0.6127 -0.9092 -0.6096
  397MOL0     H53591  -0.259  10.133   4.808 -1.7958  0.2177  0.4720
  397MOL0     H53592   0.076  10.460   5.218 -0.8935  1.1325  0.1026
  397MOL0     H53593   0.335  10.443   5.421  0.8014 -1.5213 -0.1319
  397MOL0     H53594   0.240  10.336   5.319 -1.1230  1.0034  3.7307
  397MOL0     H53595   0.416  10.355   5.291 -0.0201 -1.2465  0.6914
  398MOL0     O53596   1.701   6.978   5.832  0.8599 -0.1770  0.4584
  398MOL0     C53597   1.653   6.929   5.729 -0.4394 -0.3001  0.0667
  398MOL0     O53598   1.733   6.864   5.637 -0.1093 -0.4032 -0.4049
  398MOL0     C53599   1.861   6.894   5.634 -0.2740 -0.1898  0.4416
  398MOL0     C53600   1.913   7.018   5.666  0.7213 -0.3689 -0.4922
  398MOL0     C53601   2.045   7.047   5.644 -0.8546 -0.1639  0.0487
  398MOL0     C53602   2.132   6.954   5.588 -0.3012  0.0277 -0.1567
  398MOL0     O53603   2.264   6.975   5.569  0.3207 -0.7855  0.4028
  398MOL0     C53604   2.337   7.013   5.686  0.0690 -0.5160  0.4043
  398MOL0     C53605   2.483   7.001   5.650 -0.4032  0.0890  0.2230
  398MOL0     C53606   2.585   7.044   5.746 -0.6799  0.3455 -1.0399
  398MOL0     C53607   2.722   6.960   5.747  0.0832  0.5706 -0.1186
  398MOL0     C53608   2.792   6.966   5.610  1.1874  0.1077  0.2155
  398MOL0     C53609   2.941   6.925   5.616 -0.0187 -0.5125 -0.0711
  398MOL0     C53610   2.979   6.816   5.718 -0.2912  0.4589 -0.0278
  398MOL0     C53611   3.117   6.765   5.690 -0.3538  0.0483  0.1818
  398MOL0     N53612   3.181   6.674   5.795  0.2017 -0.6499 -0.0787
  398MOL0     C53613   3.185   6.700   5.929  1.0884 -0.2809 -0.0151
  398MOL0     C53614   3.265   6.604   5.975 -0.9187  0.1713  1.2449
  398MOL0     C53615   3.301   6.578   6.116  0.7067 -0.3284  0.0316
  398MOL0     C53616   3.442   6.534   6.143 -0.5076  1.1103 -0.2014
  398MOL0     C53617   3.496   6.577   6.287  0.4288 -0.5673 -0.3939
  398MOL0     C53618   3.636   6.533   6.321 -0.6821 -0.0033  0.0950
  398MOL0     O53619   3.736   6.619   6.245  0.1017  0.3266  0.1062
  398MOL0     C53620   3.856   6.646   6.295 -0.4890  0.5396  0.1298
  398MOL0     C53621   3.928   6.565   6.386  0.0770 -0.8364  0.6648
  398MOL0     C53622   4.050   6.601   6.442 -0.1146 -0.6096  0.8479
  398MOL0     C53623   4.112   6.722   6.396 -0.5373  1.3035  0.2084
  398MOL0     C53624   4.244   6.766   6.448  0.2988 -1.0851  0.4158
  398MOL0     O53625   4.301   6.671   6.528 -0.0378  0.1270  1.1503
  398MOL0     C53626   4.418   6.699   6.585 -0.4512  0.2289  0.2964
  398MOL0     C53627   4.535   6.658   6.517  0.3908 -0.4673  0.7370
  398MOL0     C53628   4.655   6.685   6.578 -0.6631 -0.3268 -0.2628
  398MOL0     C53629   4.668   6.749   6.704 -1.1516  0.2081 -1.3718
  398MOL0     O53630   4.792   6.782   6.749  1.4167 -0.2232 -0.0195
  398MOL0     C53631   4.808   6.875   6.848  0.0514  0.0778  0.6438
  398MOL0     C53632   4.958   6.900   6.890  0.4663 -0.0827  0.3314
  398MOL0     C53633   5.067   6.900   6.785 -0.5080 -0.3534 -0.2264
  398MOL0     C53634   5.034   7.017   6.691  0.8398  0.1928  0.1174
  398MOL0     C53635   5.156   7.087   6.632  0.1832  0.0821  0.2894
  398MOL0     C53636   5.249   7.000   6.539 -0.0632  0.0210 -0.0948
  398MOL0     C53637   5.381   7.055   6.509 -0.8008 -0.3640  0.1801
  398MOL0     C53638   5.471   7.030   6.641  1.3627 -0.8764  0.4691
  398MOL0    Cl53639   5.640   7.068   6.620 -0.0977 -0.1750 -0.0475
  398MOL0     C53640   4.550   6.787   6.769  0.5624 -0.3304 -0.3658
  398MOL0     C53641   4.422   6.763   6.713  0.5928  0.8114  0.4018
  398MOL0     O53642   4.289   6.879   6.425 -0.2216  1.3340 -0.6712
  398MOL0     C53643   4.043   6.809   6.310  1.0112  0.8850  0.3832
  398MOL0     C53644   3.913   6.766   6.255 -0.1244  0.2843 -0.4709
  398MOL0     N53645   3.324   6.532   5.866 -0.6344  0.5843  1.4053
  398MOL0     N53646   3.273   6.586   5.761  0.3937 -0.3822  0.4918
  398MOL0     C53647   2.077   6.831   5.554  0.3912  0.7913 -0.1435
  398MOL0     C53648   1.943   6.802   5.578  0.1208  0.2135 -0.5543
  398MOL0     C53649   1.504   6.917   5.717  0.0779 -0.5354 -0.5592
  398MOL0     C53650   1.435   6.976   5.826  0.0608  0.5758  0.2580
  398MOL0     C53651   1.297   6.987   5.829  0.1842 -0.9994  0.8463
  398MOL0     C53652   1.222   6.921   5.730 -0.2962  0.4933  0.4637
  398MOL0     O53653   1.083   6.919   5.720  0.2411 -0.6118 -0.6566
  398MOL0     C53654   1.011   6.900   5.847 -0.5876  0.0902 -1.1278
  398MOL0     C53655   0.951   7.034   5.886  0.6609  0.4606 -0.1123
  398MOL0     C53656   0.846   7.087   5.788 -1.0171 -0.3364 -0.5242
  398MOL0     C53657   0.717   7.006   5.809 -0.1508  1.3593 -0.0076
  398MOL0     C53658   0.608   7.036   5.720 -0.4493 -0.5857 -0.3360
  398MOL0     C53659   0.515   7.062   5.650  0.2502 -0.2959 -0.0631
  398MOL0     C53660   1.292   6.853   5.624  0.3576 -0.2050 -0.4102
  398MOL0     C53661   1.432   6.842   5.620  0.0005  0.3104  1.2650
  398MOL0     C53662   1.489   6.771   5.500  0.1622 -1.0932 -0.0374
  398MOL0     H53663   1.845   7.092   5.707  0.6960  0.5663 -2.1132
  398MOL0     H53664   2.097   7.135   5.681 -0.3585  0.1343 -1.3310
  398MOL0     H53665   2.328   7.115   5.724 -0.4299 -0.4453  0.1043
  398MOL0     H53666   2.315   6.953   5.775  1.2791 -0.5125  0.7172
  398MOL0     H53667   2.491   7.065   5.562 -0.2631 -0.2358  0.0006
  398MOL0     H53668   2.509   6.897   5.629  0.1864  0.2004  0.3644
  398MOL0     H53669   2.542   7.026   5.845  2.0812 -1.3778 -0.0065
  398MOL0     H53670   2.610   7.148   5.723 -1.6399  0.5819 -1.0575
  398MOL0     H53671   2.785   7.007   5.823 -1.2234  1.3629  0.5116
  398MOL0     H53672   2.688   6.863   5.783  0.2353  1.2456  1.9231
  398MOL0     H53673   2.741   6.899   5.540  0.8212 -0.8164  1.3221
  398MOL0     H53674   2.787   7.070   5.577 -0.7453  0.1715  0.6007
  398MOL0     H53675   2.967   6.890   5.515  0.3971 -2.1896  0.5852
  398MOL0     H53676   3.006   7.013   5.626  0.0489 -0.7168  1.4133
  398MOL0     H53677   2.904   6.737   5.725  1.5232 -1.2146  3.6563
  398MOL0     H53678   2.985   6.855   5.820 -2.4362  0.0859  0.2915
  398MOL0     H53679   3.132   6.705   5.599  0.2170 -0.2611  0.4740
  398MOL0     H53680   3.189   6.845   5.675  2.1581 -2.4101 -2.2417
  398MOL0     H53681   3.128   6.776   5.981 -4.7967 -3.5171 -0.9222
  398MOL0     H53682   3.278   6.670   6.170  0.9738 -0.0862 -0.2625
  398MOL0     H53683   3.235   6.498   6.148 -2.5860  0.7882 -3.1558
  398MOL0     H53684   3.441   6.427   6.121 -2.2716  1.6332 -3.4539
  398MOL0     H53685   3.508   6.571   6.064  1.7501 -2.2341 -0.0673
  398MOL0     H53686   3.429   6.543   6.366 -0.9526  1.3458 -0.6831
  398MOL0     H53687   3.486   6.685   6.301  0.8543 -0.7247  1.4428
  398MOL0     H53688   3.660   6.428   6.303  1.2796 -0.2120  3.2426
  398MOL0     H53689   3.650   6.551   6.428 -1.5675 -0.9018  0.3764
  398MOL0     H53690   3.895   6.468   6.422  0.0231 -0.7002  0.9854
  398MOL0     H53691   4.088   6.535   6.519  0.3765 -0.7540  0.4838
  398MOL0     H53692   4.529   6.594   6.430 -2.7368  0.4697  0.1071
  398MOL0     H53693   4.754   6.657   6.544 -0.6653  1.1115 -1.5474
  398MOL0     H53694   4.780   6.975   6.814  1.2552  0.9082  2.0298
  398MOL0     H53695   4.745   6.854   6.935  0.4997  2.0765  1.5108
  398MOL0     H53696   4.976   6.998   6.933 -0.1239  0.8299 -1.3875
  398MOL0     H53697   4.977   6.831   6.973  1.2800 -0.6130 -0.2798
  398MOL0     H53698   5.164   6.917   6.833 -0.6055  0.4083 -0.2834
  398MOL0     H53699   5.073   6.804   6.732  0.4477 -0.5764  0.2694
  398MOL0     H53700   4.972   7.097   6.731 -1.8795 -1.7569  0.1025
  398MOL0     H53701   4.971   6.988   6.606  1.8426  1.7077 -1.1889
  398MOL0     H53702   5.211   7.138   6.712 -0.3249  1.6338 -0.3179
  398MOL0     H53703   5.132   7.178   6.577  0.1917 -0.0644  0.0453
  398MOL0     H53704   5.262   6.896   6.570 -0.6428  0.1709  0.6768
  398MOL0     H53705   5.200   6.987   6.441 -1.0293  0.8817  0.2538
  398MOL0     H53706   5.380   7.162   6.487  0.9746 -0.1195  1.0304
  398MOL0     H53707   5.430   6.992   6.433  0.6666  0.4197  0.4280
  398MOL0     H53708   5.427   7.067   6.734 -1.2933 -2.2375 -0.1438
  398MOL0     H53709   5.457   6.924   6.665  0.0002 -0.8896 -0.2579
  398MOL0     H53710   4.544   6.840   6.863  0.9048 -1.0671  0.0819
  398MOL0     H53711   4.327   6.797   6.752 -0.3918 -1.2621 -0.0487
  398MOL0     H53712   4.088   6.902   6.278  2.3600  0.0906 -0.1395
  398MOL0     H53713   3.860   6.826   6.182  0.4720 -1.9299 -2.8766
  398MOL0     H53714   2.141   6.751   5.520  1.9695 -0.2700  4.5997
  398MOL0     H53715   1.909   6.701   5.561  2.1875 -0.8221  1.0475
  398MOL0     H53716   1.480   7.018   5.915  2.9657  0.5951 -1.1120
  398MOL0     H53717   1.241   7.041   5.905 -0.2709 -1.3039  0.7282
  398MOL0     H53718   1.081   6.863   5.922 -1.0558 -1.2692 -1.3365
  398MOL0     H53719   0.941   6.817   5.834 -1.1909  0.8445 -3.1520
  398MOL0     H53720   1.023   7.115   5.900 -1.7149  2.6551  0.1939
  398MOL0     H53721   0.905   7.008   5.982  2.2782 -0.2857  0.4941
  398MOL0     H53722   0.878   7.079   5.683 -1.3413 -2.3580 -0.5040
  398MOL0     H53723   0.835   7.195   5.800  0.0068 -0.3217  0.4526
  398MOL0     H53724   0.734   6.898   5.808 -2.2065  0.9125  2.4159
  398MOL0     H53725   0.674   7.021   5.909 -0.1853 -2.0553  0.6203
  398MOL0     H53726   0.433   7.094   5.589  0.7532 -0.2077 -0.7040
  398MOL0     H53727   1.232   6.830   5.536  0.0822  1.1659 -0.6153
  398MOL0     H53728   1.407   6.725   5.444 -1.5683  1.5030  0.2107
  398MOL0     H53729   1.538   6.840   5.431  2.4828 -3.0308 -0.4604
  398MOL0     H53730   1.555   6.690   5.533  2.0537  1.2257  2.2980
  399MOL0     O53731   2.954   9.359   5.464 -0.0987 -0.4647 -0.2951
  399MOL0     C53732   2.889   9.423   5.385  0.0644 -1.3766 -0.6017
  399MOL0     O53733   2.940   9.494   5.283  0.0432 -0.0155  0.9947
  399MOL0     C53734   3.078   9.487   5.266  0.1347 -0.1254  0.1016
  399MOL0     C53735   3.143   9.381   5.208 -0.1390 -0.0680 -1.7023
  399MOL0     C53736   3.279   9.385   5.191 -0.2983 -0.2863 -0.3643
  399MOL0     C53737   3.354   9.500   5.211 -0.1822  0.4965 -0.5050
  399MOL0     O53738   3.490   9.508   5.184 -0.4336 -0.0339  0.1572
  399MOL0     C53739   3.576   9.392   5.167 -0.3426 -0.2851  0.3022
  399MOL0     C53740   3.728   9.439   5.160  0.3933  0.6226  0.0116
  399MOL0     C53741   3.824   9.325   5.151  0.0335  0.0923  0.1986
  399MOL0     C53742   3.970   9.351   5.182  0.2644 -0.6490  0.6800
  399MOL0     C53743   4.083   9.244   5.156  0.5309  0.9959 -0.1797
  399MOL0     C53744   4.203   9.282   5.240 -0.7399  0.4457  0.6703
  399MOL0     C53745   4.336   9.203   5.207 -0.2724 -1.1875 -0.4692
  399MOL0     C53746   4.398   9.233   5.070 -0.7524  0.1828 -0.2444
  399MOL0     N53747   4.490   9.128   5.022  0.4392  1.0974 -0.8870
  399MOL0     C53748   4.606   9.116   5.076 -0.0270  1.1386  0.6261
  399MOL0     C53749   4.673   9.027   5.004  0.3297 -0.0775  0.2161
  399MOL0     C53750   4.809   8.975   5.027 -0.1145  0.6826  0.1396
  399MOL0     C53751   4.907   9.001   4.911 -1.3624  1.3057 -0.1082
  399MOL0     C53752   5.046   8.960   4.957 -0.6810  0.0372  0.2819
  399MOL0     C53753   5.147   9.032   4.872 -0.2018 -0.5973 -0.4666
  399MOL0     O53754   5.156   9.180   4.888 -0.4267 -0.2219  0.3980
  399MOL0     C53755   5.282   9.210   4.941 -1.0291 -0.1731  0.2281
  399MOL0     C53756   5.317   9.212   5.068 -0.9345  0.8832 -0.5941
  399MOL0     C53757   5.452   9.243   5.119  0.2025 -1.0104 -0.6342
  399MOL0     C53758   5.559   9.263   5.030 -0.5117  0.6589  0.4731
  399MOL0     C53759   5.691   9.284   5.079  0.2375  0.1094  0.0732
  399MOL0     O53760   5.793   9.305   4.998  0.2001  0.5791  1.2727
  399MOL0     C53761   5.926   9.317   5.037 -0.1183 -0.6913 -0.6192
  399MOL0     C53762   6.012   9.336   4.931  0.0682  0.0240  0.4234
  399MOL0     C53763   6.153   9.344   4.947  0.4494  0.1860 -0.3444
  399MOL0     C53764   6.209   9.339   5.077 -0.7415  0.1195  0.1113
  399MOL0     O53765   6.338   9.348   5.115  0.3588 -0.1092  0.1785
  399MOL0     C53766   6.439   9.277   5.040  0.7797 -0.1673  0.6665
  399MOL0     C53767   6.570   9.279   5.116 -0.1455 -0.3971  0.0888
  399MOL0     C53768   6.647   9.152   5.079 -0.6694  0.1402  0.1083
  399MOL0     C53769   6.770   9.144   5.155 -0.0938  0.0349 -0.2499
  399MOL0     C53770   6.828   9.009   5.158 -0.2501  0.2574  0.1647
  399MOL0     C53771   6.926   8.969   5.272  0.7826  0.4973 -0.3612
  399MOL0     C53772   7.068   9.025   5.255  0.1176 -0.8158  0.2498
  399MOL0     C53773   7.140   9.023   5.389  0.0946  0.7888  0.5242
  399MOL0    Cl53774   7.184   8.851   5.444  0.0290 -0.3792 -0.1864
  399MOL0     C53775   6.118   9.326   5.180  0.3206 -0.0760 -0.5858
  399MOL0     C53776   5.980   9.317   5.162 -0.2351  0.4017  0.4837
  399MOL0     O53777   5.692   9.291   5.201  0.2986 -0.0152 -0.1336
  399MOL0     C53778   5.514   9.262   4.897  0.1746 -0.9154 -0.2765
  399MOL0     C53779   5.384   9.239   4.856 -0.5296  1.4565  0.6596
  399MOL0     N53780   4.597   8.993   4.895 -0.5625  0.0554  0.5661
  399MOL0     N53781   4.481   9.044   4.909  0.8022  0.7022  0.0555
  399MOL0     C53782   3.287   9.606   5.283  0.9940  0.1440 -0.4575
  399MOL0     C53783   3.150   9.594   5.311 -0.7059  0.1493  0.1909
  399MOL0     C53784   2.736   9.406   5.384 -0.4059 -0.0840 -0.7231
  399MOL0     C53785   2.671   9.302   5.319  0.7558 -0.0972 -0.4178
  399MOL0     C53786   2.530   9.297   5.306 -0.3479  0.5063 -0.6823
  399MOL0     C53787   2.454   9.395   5.376  0.0154  0.7942 -0.2524
  399MOL0     O53788   2.315   9.388   5.364  0.0997 -0.3451  0.0068
  399MOL0     C53789   2.255   9.397   5.492  1.1245  0.0660 -0.4473
  399MOL0     C53790   2.099   9.367   5.476  0.2708 -0.4217  0.3113
  399MOL0     C53791   2.029   9.445   5.370  0.3674 -0.7284 -0.1459
  399MOL0     C53792   1.878   9.398   5.346 -0.3040 -0.6138  0.2773
  399MOL0     C53793   1.795   9.413   5.472  0.3799  0.3024  0.4040
  399MOL0     C53794   1.721   9.428   5.564 -0.6379  0.5384 -0.6623
  399MOL0     C53795   2.514   9.502   5.441  0.3208  0.0360  0.1949
  399MOL0     C53796   2.657   9.505   5.452  0.0134 -0.2682  0.6242
  399MOL0     C53797   2.717   9.623   5.521  0.4619 -0.2487 -0.5866
  399MOL0     H53798   3.086   9.303   5.159 -0.5249 -0.0749 -1.2426
  399MOL0     H53799   3.319   9.298   5.141  0.6087 -1.3717  2.1325
  399MOL0     H53800   3.576   9.313   5.242  1.1359 -0.2501  0.3669
  399MOL0     H53801   3.546   9.337   5.077 -0.3357  0.3574 -0.1037
  399MOL0     H53802   3.757   9.492   5.252 -0.1641  0.3557  0.3448
  399MOL0     H53803   3.737   9.500   5.070  0.6034  2.0409  0.9549
  399MOL0     H53804   3.811   9.289   5.049 -1.5255 -0.5728  0.6005
  399MOL0     H53805   3.797   9.244   5.220  0.5111 -0.0585  0.2184
  399MOL0     H53806   4.004   9.445   5.137 -1.3210 -0.1243  0.5296
  399MOL0     H53807   3.991   9.375   5.287 -2.0352  1.4642  0.7227
  399MOL0     H53808   4.057   9.141   5.182  2.1040  0.1073 -1.9236
  399MOL0     H53809   4.101   9.232   5.049 -2.3606 -0.7474 -0.5922
  399MOL0     H53810   4.221   9.388   5.217 -0.1353  0.0395 -0.9027
  399MOL0     H53811   4.183   9.266   5.346  0.1945 -1.1408  0.6449
  399MOL0     H53812   4.320   9.095   5.217  0.1879 -1.3920 -1.7638
  399MOL0     H53813   4.413   9.227   5.281 -1.0086  0.8462 -0.3208
  399MOL0     H53814   4.320   9.244   4.994 -2.6898 -3.3283  1.0152
  399MOL0     H53815   4.457   9.325   5.069  1.8061 -1.3676 -1.7026
  399MOL0     H53816   4.644   9.168   5.163 -0.0966 -0.4743  1.6695
  399MOL0     H53817   4.844   9.019   5.120  0.9301  1.6196 -0.6736
  399MOL0     H53818   4.799   8.869   5.053 -0.6826  0.5297 -0.6601
  399MOL0     H53819   4.881   8.935   4.828 -1.2055 -0.4416  1.1821
  399MOL0     H53820   4.908   9.107   4.884  1.8917  2.0769  2.3559
  399MOL0     H53821   5.058   8.852   4.969 -0.9300 -0.0434 -0.1830
  399MOL0     H53822   5.060   9.009   5.054 -2.6970  2.1516 -0.4097
  399MOL0     H53823   5.120   9.021   4.766  0.9987  0.2588 -0.8880
  399MOL0     H53824   5.245   8.987   4.893 -1.7815 -3.3950  1.3973
  399MOL0     H53825   5.248   9.190   5.149  1.2379  1.9299  1.6889
  399MOL0     H53826   5.454   9.246   5.227 -0.0623 -0.8995 -0.6309
  399MOL0     H53827   5.962   9.334   4.834 -4.1227 -2.1307  2.3356
  399MOL0     H53828   6.211   9.340   4.855  1.2856  2.0729  0.0704
  399MOL0     H53829   6.403   9.174   5.036  3.3772 -1.1011 -1.2977
  399MOL0     H53830   6.456   9.308   4.937 -0.4854  3.2397  1.3580
  399MOL0     H53831   6.624   9.367   5.079 -0.7622  0.3832  1.0126
  399MOL0     H53832   6.558   9.289   5.224 -2.7612  1.3222 -0.2616
  399MOL0     H53833   6.585   9.064   5.098  0.5184 -0.5063  1.1286
  399MOL0     H53834   6.667   9.148   4.971  0.2654  1.3002  0.2227
  399MOL0     H53835   6.758   9.174   5.259  2.7109  1.0675 -0.1553
  399MOL0     H53836   6.842   9.218   5.121 -0.6005  0.6293 -0.0488
  399MOL0     H53837   6.883   8.996   5.064 -0.0636  1.2299  0.1346
  399MOL0     H53838   6.747   8.935   5.159 -1.1109  1.1828  0.2276
  399MOL0     H53839   6.879   8.998   5.367 -0.0712  2.6448 -1.3948
  399MOL0     H53840   6.945   8.861   5.271 -0.6886  0.2315 -1.0743
  399MOL0     H53841   7.055   9.131   5.230  0.5699 -1.2503 -1.9642
  399MOL0     H53842   7.125   8.974   5.177  0.2787 -1.6562  0.9095
  399MOL0     H53843   7.228   9.089   5.382  1.5280 -0.6010  3.6213
  399MOL0     H53844   7.073   9.069   5.462 -2.7964  0.0845 -1.5059
  399MOL0     H53845   6.150   9.338   5.283  1.2152  1.1372 -0.9890
  399MOL0     H53846   5.916   9.304   5.250 -3.4854  1.3926 -1.5544
  399MOL0     H53847   5.587   9.272   4.818  0.1884  1.5032 -0.0597
  399MOL0     H53848   5.368   9.237   4.749  2.8646  1.5494  0.0393
  399MOL0     H53849   3.343   9.690   5.324 -1.8618  1.2828  1.3881
  399MOL0     H53850   3.096   9.665   5.372 -2.1801 -0.5419 -0.2733
  399MOL0     H53851   2.737   9.242   5.258  1.1663  0.1572 -0.2270
  399MOL0     H53852   2.474   9.212   5.268  2.2728 -0.6386 -2.2393
  399MOL0     H53853   2.264   9.496   5.536 -2.8479 -0.2318  1.4908
  399MOL0     H53854   2.300   9.325   5.560  0.7309  0.8348  0.6580
  399MOL0     H53855   2.050   9.387   5.572 -0.7218  0.9882 -0.4536
  399MOL0     H53856   2.084   9.262   5.449 -0.9059 -0.7132  1.9654
  399MOL0     H53857   2.081   9.430   5.275 -4.4056 -2.8060 -2.7334
  399MOL0     H53858   2.032   9.549   5.405 -1.8420 -0.4083 -0.7722
  399MOL0     H53859   1.825   9.460   5.273  1.8609  1.1237  0.0809
  399MOL0     H53860   1.877   9.295   5.309  1.0666 -0.1697 -1.1341
  399MOL0     H53861   1.674   9.441   5.659  2.7308  1.2454  1.0904
  399MOL0     H53862   2.458   9.590   5.470  1.7431  0.7878  0.8114
  399MOL0     H53863   2.641   9.701   5.533 -1.0104 -1.7539  0.4564
  399MOL0     H53864   2.746   9.588   5.620  1.4275 -3.0969 -1.7860
  399MOL0     H53865   2.806   9.661   5.471 -1.9684 -0.0095 -5.3313
  400MOL0     O53866   7.195   4.662   6.309 -0.1788 -0.0931 -0.2381
  400MOL0     C53867   7.117   4.640   6.226 -0.2832 -0.1578  0.2050
  400MOL0     O53868   7.128   4.678   6.097  0.4005  0.2321  1.2755
  400MOL0     C53869   7.237   4.729   6.031 -0.0938  0.4506 -0.3443
  400MOL0     C53870   7.231   4.730   5.895 -0.0080 -0.5946 -0.0160
  400MOL0     C53871   7.332   4.794   5.821 -0.3974 -0.0691 -0.4673
  400MOL0     C53872   7.426   4.876   5.892  0.0112 -0.8045 -0.0787
  400MOL0     O53873   7.520   4.933   5.811 -0.0977 -0.4610 -0.2443
  400MOL0     C53874   7.657   4.915   5.848 -0.6757 -0.4601 -0.1620
  400MOL0     C53875   7.761   4.950   5.737 -0.7209 -0.4172 -0.2189
  400MOL0     C53876   7.907   4.945   5.785 -0.3287 -0.1752 -0.9040
  400MOL0     C53877   8.008   5.016   5.691  0.6645  0.5161 -0.5234
  400MOL0     C53878   8.148   4.953   5.715  0.3411 -0.7645 -0.0435
  400MOL0     C53879   8.222   5.012   5.840  0.8904  0.7063 -0.3425
  400MOL0     C53880   8.350   4.943   5.866 -0.3763 -0.6326 -0.9882
  400MOL0     C53881   8.436   4.926   5.744  0.8500  0.0282  0.5227
  400MOL0     N53882   8.567   4.876   5.779 -0.0457  0.0508  0.1077
  400MOL0     C53883   8.623   4.759   5.743 -0.3530  0.4865  0.6361
  400MOL0     C53884   8.748   4.776   5.770 -0.1446  0.2249 -0.2476
  400MOL0     C53885   8.848   4.668   5.756 -0.1869 -0.2407  0.3771
  400MOL0     C53886   8.837   4.574   5.880  0.2363  0.5613 -0.4414
  400MOL0     C53887   8.954   4.473   5.887 -0.2418  0.0565 -0.7480
  400MOL0     C53888   8.958   4.398   6.031  0.1143 -0.4251  1.3339
  400MOL0     O53889   8.925   4.253   6.022  0.7099 -0.2044  0.1244
  400MOL0     C53890   8.836   4.197   6.113 -0.7938  0.9346 -0.3528
  400MOL0     C53891   8.851   4.061   6.150  0.1197 -0.6670 -0.3097
  400MOL0     C53892   8.758   3.982   6.217  0.2561 -0.1942 -1.3508
  400MOL0     C53893   8.641   4.038   6.269  0.2486 -0.2663  0.0804
  400MOL0     C53894   8.544   3.957   6.337 -0.7662 -0.0647  0.3664
  400MOL0     O53895   8.436   4.023   6.370 -0.2244 -0.4511 -0.8189
  400MOL0     C53896   8.333   3.951   6.414 -0.0680  0.8935 -0.4839
  400MOL0     C53897   8.340   3.869   6.528 -0.2419  0.0964  0.4059
  400MOL0     C53898   8.225   3.791   6.566 -0.9105  0.3400 -0.1099
  400MOL0     C53899   8.097   3.804   6.510 -1.0147 -1.3099  0.4688
  400MOL0     O53900   7.988   3.749   6.568 -0.2251 -0.6066  0.2904
  400MOL0     C53901   7.870   3.724   6.482 -0.7308 -0.3351 -0.1602
  400MOL0     C53902   7.769   3.839   6.499 -0.2345 -0.4136  0.0573
  400MOL0     C53903   7.621   3.806   6.492 -0.1474 -0.0846 -0.0815
  400MOL0     C53904   7.583   3.741   6.356 -0.1733 -0.5172 -0.1568
  400MOL0     C53905   7.434   3.742   6.324  0.2014  0.1969 -0.1771
  400MOL0     C53906   7.351   3.625   6.377 -0.4903 -0.0051  0.9202
  400MOL0     C53907   7.268   3.655   6.495  0.8146  0.4613 -0.5428
  400MOL0     C53908   7.190   3.528   6.537 -0.6434  0.1676  0.6980
  400MOL0    Cl53909   7.084   3.590   6.667  0.5447  0.2130  0.1930
  400MOL0     C53910   8.091   3.889   6.397 -0.1086 -0.4675 -0.3282
  400MOL0     C53911   8.201   3.962   6.355 -0.8119 -0.4355  0.1389
  400MOL0     O53912   8.572   3.841   6.361  0.0081 -0.0743  0.0116
  400MOL0     C53913   8.621   4.179   6.239  0.6998  0.4847 -0.8618
  400MOL0     C53914   8.715   4.250   6.163 -0.4191  0.5873  0.1099
  400MOL0     N53915   8.781   4.902   5.832 -0.0882 -0.0989 -0.2700
  400MOL0     N53916   8.664   4.959   5.826  0.5043  0.0697 -0.4905
  400MOL0     C53917   7.434   4.877   6.033  0.1741 -0.8941  0.4355
  400MOL0     C53918   7.335   4.807   6.099 -0.1275 -0.1729 -0.4055
  400MOL0     C53919   6.992   4.574   6.266 -0.4285  0.1164 -0.5411
  400MOL0     C53920   6.927   4.513   6.163  0.0578  0.8609 -0.7169
  400MOL0     C53921   6.811   4.438   6.191  0.6496  0.2194 -0.0313
  400MOL0     C53922   6.745   4.439   6.315  0.5574  0.3955 -0.1693
  400MOL0     O53923   6.626   4.373   6.327  0.1423 -0.0575  0.3826
  400MOL0     C53924   6.563   4.354   6.461 -0.6319 -0.5566  0.5353
  400MOL0     C53925   6.451   4.260   6.458  0.0970  0.2027  0.3970
  400MOL0     C53926   6.435   4.210   6.596  0.2222  0.0305  0.1547
  400MOL0     C53927   6.336   4.098   6.609  0.2951 -0.6142 -0.6353
  400MOL0     C53928   6.205   4.130   6.555  0.0578  0.5352  0.0424
  400MOL0     C53929   6.089   4.149   6.517 -0.1188 -0.0123 -1.2288
  400MOL0     C53930   6.813   4.497   6.426 -0.2755 -0.4121  0.2962
  400MOL0     C53931   6.940   4.557   6.400  0.2114  0.1898 -0.4420
  400MOL0     C53932   7.010   4.606   6.527  0.6251 -0.2505  0.2701
  400MOL0     H53933   7.144   4.686   5.846  0.1284 -0.5284 -0.3179
  400MOL0     H53934   7.324   4.787   5.713  1.2478  0.0474 -0.6222
  400MOL0     H53935   7.673   4.978   5.936 -0.3315 -0.3118 -0.3283
  400MOL0     H53936   7.680   4.811   5.872 -1.2603 -0.3778  0.7777
  400MOL0     H53937   7.741   5.054   5.709  1.9566  0.5418  1.0995
  400MOL0     H53938   7.745   4.891   5.646 -1.2321  3.1663 -2.6688
  400MOL0     H53939   7.940   4.845   5.818 -0.8772  0.8586  3.4900
  400MOL0     H53940   7.905   5.000   5.880 -1.7704  0.0877 -1.0729
  400MOL0     H53941   7.973   5.002   5.589 -0.9081  0.7544 -0.0404
  400MOL0     H53942   8.008   5.124   5.704  2.3656  0.7182 -1.9473
  400MOL0     H53943   8.133   4.845   5.718 -1.9072 -0.5724 -1.6091
  400MOL0     H53944   8.203   4.976   5.623 -2.9754 -0.1623 -2.0439
  400MOL0     H53945   8.238   5.119   5.835 -0.3752  0.9482  0.1981
  400MOL0     H53946   8.166   4.993   5.933 -1.8143 -0.0723 -2.0195
  400MOL0     H53947   8.343   4.844   5.913  2.7222 -0.4922 -0.0138
  400MOL0     H53948   8.385   5.006   5.948 -3.1310 -1.8346  1.3273
  400MOL0     H53949   8.390   4.857   5.671 -0.6837  1.2496  0.2783
  400MOL0     H53950   8.446   5.024   5.697  1.9213  0.1067  0.9007
  400MOL0     H53951   8.567   4.669   5.717 -0.7390  1.2702 -1.4725
  400MOL0     H53952   8.847   4.611   5.663  1.0215 -2.2274  1.5186
  400MOL0     H53953   8.944   4.721   5.748 -0.1753 -0.4912 -1.8240
  400MOL0     H53954   8.828   4.644   5.964 -2.3570 -0.5810  0.3582
  400MOL0     H53955   8.745   4.514   5.871  2.1570 -2.3970 -1.8038
  400MOL0     H53956   9.048   4.528   5.884 -1.0275  1.5714  0.4967
  400MOL0     H53957   8.952   4.404   5.802 -0.0691 -0.6898 -0.1560
  400MOL0     H53958   8.890   4.449   6.101 -0.6600  1.9485 -0.9632
  400MOL0     H53959   9.058   4.410   6.073  1.0722  2.5454 -1.3552
  400MOL0     H53960   8.948   4.031   6.111  0.0933  1.7768 -2.5407
  400MOL0     H53961   8.772   3.879   6.249 -0.5856  0.3490  0.9598
  400MOL0     H53962   8.431   3.865   6.587 -2.3636 -2.0637  3.8705
  400MOL0     H53963   8.223   3.728   6.654 -0.7356 -0.2485 -0.5167
  400MOL0     H53964   7.893   3.729   6.375 -2.4441  2.0550 -0.5099
  400MOL0     H53965   7.829   3.626   6.508 -0.5661 -0.4530 -0.3430
  400MOL0     H53966   7.787   3.892   6.593 -1.6849  2.9189 -1.3896
  400MOL0     H53967   7.788   3.913   6.420 -0.0134  0.4004  0.8586
  400MOL0     H53968   7.596   3.726   6.563  2.1371  0.0736  0.9735
  400MOL0     H53969   7.555   3.891   6.512 -1.9931 -1.7897  1.5678
  400MOL0     H53970   7.619   3.637   6.350 -1.5658 -1.0002 -0.5638
  400MOL0     H53971   7.640   3.801   6.285  1.9654 -0.0303  1.8192
  400MOL0     H53972   7.421   3.742   6.216  0.0667 -1.9368 -0.1895
  400MOL0     H53973   7.394   3.842   6.347  1.1050  1.2920 -2.9058
  400MOL0     H53974   7.303   3.583   6.287  1.7090  0.9744 -0.8099
  400MOL0     H53975   7.421   3.546   6.406 -1.3124 -0.6842  1.1119
  400MOL0     H53976   7.196   3.728   6.457  1.2189  0.7212 -0.8258
  400MOL0     H53977   7.334   3.688   6.575  2.1112  0.6731 -1.6537
  400MOL0     H53978   7.137   3.483   6.452 -1.0851 -1.5486  1.8496
  400MOL0     H53979   7.260   3.454   6.576 -1.6009 -0.5448  1.0930
  400MOL0     H53980   8.004   3.919   6.339 -0.1506  1.6805  0.7496
  400MOL0     H53981   8.185   4.039   6.280  0.8068 -0.7385 -0.5792
  400MOL0     H53982   8.540   4.235   6.285  0.7779 -0.7406  0.8904
  400MOL0     H53983   8.691   4.353   6.139 -0.2639  0.2948 -1.3967
  400MOL0     H53984   7.514   4.933   6.081 -1.0631  2.8488 -1.4684
  400MOL0     H53985   7.340   4.808   6.208 -0.6621  0.4070 -0.3810
  400MOL0     H53986   6.966   4.507   6.062  0.0645 -1.7703 -0.6244
  400MOL0     H53987   6.757   4.390   6.110 -2.1168  2.5258  0.2788
  400MOL0     H53988   6.513   4.447   6.490 -0.8098 -0.3501 -0.3985
  400MOL0     H53989   6.640   4.327   6.533 -0.8221  0.0650  0.9715
  400MOL0     H53990   6.491   4.175   6.401 -1.5412 -0.1649 -0.2588
  400MOL0     H53991   6.356   4.295   6.416  0.0436 -0.0739  0.2813
  400MOL0     H53992   6.401   4.289   6.663  0.7239  0.8476 -0.5326
  400MOL0     H53993   6.528   4.174   6.641 -0.2033 -2.6694 -0.8984
  400MOL0     H53994   6.370   4.005   6.563  2.1691 -1.5313  2.3184
  400MOL0     H53995   6.323   4.073   6.715  0.3277 -0.6854 -0.6482
  400MOL0     H53996   5.988   4.163   6.484 -0.6201  0.3307  0.3403
  400MOL0     H53997   6.768   4.504   6.525 -1.0246 -0.3117 -0.0417
  400MOL0     H53998   6.997   4.523   6.597  2.3589  0.3931  1.4111
  400MOL0     H53999   7.111   4.647   6.527  0.2277  1.1490 -3.6761
  400MOL0     H54000   6.954   4.692   6.566 -1.4067 -1.4491  0.1352
  401MOL0     O54001   8.080   8.395   7.232  0.5896  0.9576  0.7361
  401MOL0     C54002   7.999   8.410   7.139 -0.3413  0.7920  0.4546
  401MOL0     O54003   8.042   8.413   7.004 -0.2849 -0.2106  0.7799
  401MOL0     C54004   8.177   8.428   6.974  0.1691  0.0435  0.0479
  401MOL0     C54005   8.242   8.359   6.868 -0.1179 -0.7534 -0.2048
  401MOL0     C54006   8.376   8.370   6.843 -0.3237 -0.2583  0.2095
  401MOL0     C54007   8.456   8.468   6.910  0.0750  0.5433  0.1980
  401MOL0     O54008   8.582   8.480   6.855  0.4787 -0.0842  0.6918
  401MOL0     C54009   8.676   8.578   6.901  0.5805 -0.9981 -0.3034
  401MOL0     C54010   8.804   8.580   6.820  0.4141  0.2805  0.1807
  401MOL0     C54011   8.916   8.667   6.864  0.0733 -0.4664 -0.7026
  401MOL0     C54012   9.045   8.661   6.771 -0.2842  0.4342 -0.0417
  401MOL0     C54013   9.143   8.772   6.815 -0.0970 -0.4840 -0.2328
  401MOL0     C54014   9.252   8.805   6.711 -0.0456 -0.5417 -0.9646
  401MOL0     C54015   9.376   8.709   6.704 -0.4937  0.5684 -0.0800
  401MOL0     C54016   9.479   8.756   6.604 -0.1052  0.1771  0.3326
  401MOL0     N54017   9.586   8.662   6.596  0.0253 -0.0373  0.2386
  401MOL0     C54018   9.697   8.657   6.678  0.0152  0.5425  0.8265
  401MOL0     C54019   9.777   8.565   6.618 -1.0226  0.3524 -0.8285
  401MOL0     C54020   9.913   8.532   6.671  0.2652  0.1961  0.0221
  401MOL0     C54021  10.000   8.660   6.697 -0.0737  0.2883  0.5393
  401MOL0     C54022  10.021   8.737   6.561 -0.1897  0.7124  0.3351
  401MOL0     C54023  10.096   8.658   6.461  0.2072 -0.6983 -0.1154
  401MOL0     O54024  10.149   8.752   6.363  0.3367  0.2614 -0.8255
  401MOL0     C54025  10.276   8.807   6.376  0.7438  1.2398 -0.1820
  401MOL0     C54026  10.326   8.880   6.267 -0.5202 -0.0954  0.0021
  401MOL0     C54027  10.448   8.948   6.266 -0.2106 -0.2907  0.5769
  401MOL0     C54028  10.526   8.938   6.384 -1.1751 -0.4266 -0.0071
  401MOL0     C54029  10.643   9.020   6.397 -0.1742 -0.1451 -0.1726
  401MOL0     O54030  10.663   9.109   6.293  0.5711  0.0253  0.2406
  401MOL0     C54031  10.770   9.180   6.276 -0.1323 -0.3999  0.0965
  401MOL0     C54032  10.816   9.279   6.367  0.0288  0.1119 -0.3399
  401MOL0     C54033  10.919   9.366   6.333  0.6737 -0.0386 -1.1281
  401MOL0     C54034  10.984   9.358   6.213  0.1668  0.5878  0.1751
  401MOL0     O54035  11.101   9.425   6.200 -0.0605 -0.6298  0.0451
  401MOL0     C54036  11.191   9.416   6.310 -0.1974 -0.6342 -1.0374
  401MOL0     C54037  11.222   9.286   6.386 -0.6387  0.5745  1.1478
  401MOL0     C54038  11.341   9.305   6.482 -0.3812  0.0435 -0.0729
  401MOL0     C54039  11.300   9.412   6.593 -1.3657 -0.0248  0.7267
  401MOL0     C54040  11.395   9.398   6.717  0.7302 -0.0944 -0.1118
  401MOL0     C54041  11.405   9.259   6.785 -0.2390 -0.3463  0.2769
  401MOL0     C54042  11.268   9.199   6.833  0.5114 -0.0105 -0.2724
  401MOL0     C54043  11.275   9.061   6.891  0.2542  0.2953 -0.4263
  401MOL0    Cl54044  11.129   9.010   6.984  0.2780 -0.1877 -0.3613
  401MOL0     C54045  10.937   9.260   6.123  0.2131 -0.0436  0.0958
  401MOL0     C54046  10.831   9.174   6.145  0.8098 -0.2744 -0.5492
  401MOL0     O54047  10.720   9.007   6.496  0.2287 -0.2067 -0.5283
  401MOL0     C54048  10.486   8.852   6.484 -0.4507  0.3152 -0.2407
  401MOL0     C54049  10.361   8.792   6.488  0.3398  0.7068 -0.0232
  401MOL0     N54050   9.717   8.520   6.504  0.3241  0.0648  0.2886
  401MOL0     N54051   9.600   8.567   6.497  0.0186 -0.0072  0.1075
  401MOL0     C54052   8.396   8.547   7.012 -0.2076  0.6066 -0.2644
  401MOL0     C54053   8.258   8.524   7.041 -0.9481 -1.2540 -0.0244
  401MOL0     C54054   7.846   8.412   7.162 -0.8114 -0.5031 -0.5138
  401MOL0     C54055   7.759   8.394   7.058 -1.2668 -0.4111 -0.3563
  401MOL0     C54056   7.621   8.404   7.069 -0.5865 -0.0256  0.6396
  401MOL0     C54057   7.557   8.427   7.187  0.4649  0.0606  0.4136
  401MOL0     O54058   7.420   8.422   7.189  0.1275 -0.7888  0.0406
  401MOL0     C54059   7.344   8.465   7.303 -1.0016  0.0790  0.2537
  401MOL0     C54060   7.355   8.622   7.317 -0.8778  0.1325  0.2331
  401MOL0     C54061   7.302   8.690   7.188  0.0736 -0.4631 -0.2553
  401MOL0     C54062   7.146   8.673   7.172  0.6270  0.0984 -0.0113
  401MOL0     C54063   7.076   8.773   7.251  0.4251 -0.6786  0.5618
  401MOL0     C54064   7.018   8.855   7.314  0.2871  0.2818 -0.2075
  401MOL0     C54065   7.639   8.435   7.297 -0.5132  0.3908 -0.3252
  401MOL0     C54066   7.781   8.437   7.290 -0.3418  0.1646  0.7687
  401MOL0     C54067   7.865   8.476   7.412  0.3377  0.5392 -0.4731
  401MOL0     H54068   8.198   8.284   6.804  1.2270 -1.0971 -0.7699
  401MOL0     H54069   8.419   8.304   6.768 -3.1441 -1.8447 -0.1118
  401MOL0     H54070   8.634   8.678   6.887  0.4615 -0.8030  1.2673
  401MOL0     H54071   8.695   8.559   7.008 -0.4560  0.6659  0.2056
  401MOL0     H54072   8.769   8.617   6.723 -0.2823  0.0785  0.3482
  401MOL0     H54073   8.844   8.480   6.800  2.6848  1.4851 -1.8029
  401MOL0     H54074   8.943   8.647   6.968 -0.3510  0.5165 -0.3864
  401MOL0     H54075   8.881   8.770   6.854 -1.0961 -0.6137  1.3260
  401MOL0     H54076   9.091   8.564   6.793 -1.0153  0.1069  0.0949
  401MOL0     H54077   9.021   8.662   6.665 -3.5466 -1.3336  0.5256
  401MOL0     H54078   9.089   8.864   6.838  2.1002  0.7785  0.1903
  401MOL0     H54079   9.195   8.744   6.907 -0.8141 -2.6578 -0.4283
  401MOL0     H54080   9.204   8.816   6.613 -0.3845 -1.5301 -0.9161
  401MOL0     H54081   9.298   8.901   6.736 -0.7723  0.1623 -2.2164
  401MOL0     H54082   9.341   8.612   6.668  0.7908  0.0082  0.1138
  401MOL0     H54083   9.428   8.703   6.801  2.1223 -0.0812 -1.4371
  401MOL0     H54084   9.438   8.769   6.504  2.6103  0.1947 -0.8873
  401MOL0     H54085   9.524   8.848   6.643  0.8456 -0.6253  1.2042
  401MOL0     H54086   9.726   8.727   6.755  0.7937  0.9042  0.2221
  401MOL0     H54087   9.888   8.474   6.760  2.9722  0.9520  1.3646
  401MOL0     H54088   9.959   8.461   6.601  0.1727  0.8897 -0.7511
  401MOL0     H54089   9.945   8.728   6.763 -1.2507  0.5411 -0.6479
  401MOL0     H54090  10.098   8.633   6.737  0.2287  1.1083  0.3661
  401MOL0     H54091  10.054   8.840   6.580 -4.0724  2.3444 -0.8854
  401MOL0     H54092   9.924   8.763   6.520 -1.4027 -0.3318  2.3607
  401MOL0     H54093  10.027   8.590   6.410 -2.5359  0.3991  1.8339
  401MOL0     H54094  10.183   8.604   6.500 -0.8716 -2.2347  0.2640
  401MOL0     H54095  10.269   8.893   6.175  0.8810  1.0938 -0.7368
  401MOL0     H54096  10.478   9.014   6.185  3.6272  1.7233  3.3020
  401MOL0     H54097  10.757   9.303   6.455  0.1667  0.4898 -0.3484
  401MOL0     H54098  10.939   9.445   6.405 -0.4598  0.7129 -1.6026
  401MOL0     H54099  11.277   9.467   6.265  0.1951  0.2957  0.6826
  401MOL0     H54100  11.163   9.499   6.376  2.3599 -0.2417 -0.3384
  401MOL0     H54101  11.141   9.245   6.447 -0.3237 -0.5231  0.8502
  401MOL0     H54102  11.251   9.212   6.310  0.0885 -0.0154  1.9763
  401MOL0     H54103  11.371   9.211   6.529 -1.2960  0.2513  0.9679
  401MOL0     H54104  11.428   9.340   6.426 -0.8019 -0.6887 -1.2127
  401MOL0     H54105  11.196   9.393   6.623 -1.2343 -0.0208  1.1895
  401MOL0     H54106  11.304   9.514   6.554  1.3124 -0.6293 -0.8456
  401MOL0     H54107  11.357   9.459   6.799  1.7152  0.5995 -0.1528
  401MOL0     H54108  11.495   9.439   6.701  1.6775 -2.4931 -0.6807
  401MOL0     H54109  11.452   9.187   6.717 -0.3494  0.1567 -0.3439
  401MOL0     H54110  11.476   9.267   6.868  1.9476  1.3761 -1.6237
  401MOL0     H54111  11.193   9.205   6.753  2.7697  0.5949 -2.4937
  401MOL0     H54112  11.229   9.274   6.902 -0.5635 -0.3919 -0.4349
  401MOL0     H54113  11.297   8.986   6.815  1.8949  2.1988 -1.9426
  401MOL0     H54114  11.361   9.057   6.958 -0.0950 -1.1827 -0.0208
  401MOL0     H54115  11.005   9.248   6.039  1.5246 -1.0770  1.2648
  401MOL0     H54116  10.785   9.113   6.068 -1.6622  0.4071  0.2998
  401MOL0     H54117  10.553   8.839   6.568  0.0291  0.3666 -0.6144
  401MOL0     H54118  10.335   8.730   6.574  0.1715  1.9119  0.8128
  401MOL0     H54119   8.450   8.630   7.056 -0.1213  1.6936 -2.2789
  401MOL0     H54120   8.219   8.586   7.121 -1.8075 -0.0009 -1.3569
  401MOL0     H54121   7.798   8.366   6.961 -1.0209 -1.8278  0.1304
  401MOL0     H54122   7.549   8.391   6.989 -1.2200  1.9396  0.8360
  401MOL0     H54123   7.380   8.419   7.395 -0.4392 -1.0645 -0.5117
  401MOL0     H54124   7.238   8.438   7.306 -1.4953  1.7065  4.9206
  401MOL0     H54125   7.457   8.660   7.321 -0.9259  1.1013 -3.8328
  401MOL0     H54126   7.302   8.659   7.405  0.7147  1.2188  0.7825
  401MOL0     H54127   7.351   8.655   7.097 -1.5865 -1.4296 -0.8195
  401MOL0     H54128   7.325   8.797   7.191 -0.4519 -0.2763 -1.7681
  401MOL0     H54129   7.116   8.682   7.067 -1.3629 -1.2249  0.4139
  401MOL0     H54130   7.115   8.572   7.200  0.1199 -0.2096 -1.5796
  401MOL0     H54131   6.959   8.914   7.381  0.4823 -1.2153  1.3479
  401MOL0     H54132   7.594   8.454   7.394 -1.0196  2.0290 -0.8515
  401MOL0     H54133   7.789   8.503   7.486 -1.2894  0.8044 -2.1837
  401MOL0     H54134   7.936   8.401   7.448 -0.7880 -0.4617 -0.2738
  401MOL0     H54135   7.912   8.571   7.382  0.1482  0.6313 -0.4837
  402MOL0     O54136  10.727  10.411   9.822 -0.3338 -0.7610  0.0322
  402MOL0     C54137  10.712  10.297   9.781  0.6751  0.4728 -0.2808
  402MOL0     O54138  10.807  10.220   9.720 -0.5187  0.8201  0.0263
  402MOL0     C54139  10.936  10.281   9.720 -0.2455  0.5027 -1.1330
  402MOL0     C54140  11.007  10.300   9.838  0.1255  0.1889 -0.1563
  402MOL0     C54141  11.129  10.357   9.842 -0.2163 -0.4102  0.0082
  402MOL0     C54142  11.183  10.409   9.728  0.0521 -0.1997 -0.3805
  402MOL0     O54143  11.298  10.494   9.720  0.0318 -0.0855  0.1146
  402MOL0     C54144  11.346  10.570   9.837  0.8189  1.0848 -0.5655
  402MOL0     C54145  11.478  10.639   9.800 -0.1973 -0.2186 -0.1393
  402MOL0     C54146  11.594  10.538   9.799 -0.3428 -0.4078  0.7753
  402MOL0     C54147  11.718  10.576   9.717 -1.0088  0.6155 -0.4616
  402MOL0     C54148  11.754  10.716   9.733  0.7262 -0.3346  0.0024
  402MOL0     C54149  11.880  10.756   9.670 -0.6709 -0.5025 -0.6265
  402MOL0     C54150  11.906  10.907   9.697  0.2187 -0.6309 -0.0215
  402MOL0     C54151  12.037  10.955   9.624 -0.4792 -0.7093  0.3029
  402MOL0     N54152  12.159  10.871   9.652 -0.0555  0.6289  0.4410
  402MOL0     C54153  12.226  10.794   9.555 -0.1918 -0.2974  0.3140
  402MOL0     C54154  12.343  10.757   9.611  0.5037  0.7317  0.2010
  402MOL0     C54155  12.445  10.676   9.530 -0.4808  0.1995  0.7755
  402MOL0     C54156  12.571  10.755   9.505  0.2135 -0.2145  0.1673
  402MOL0     C54157  12.671  10.665   9.431 -0.8833  0.3232 -0.3126
  402MOL0     C54158  12.802  10.724   9.390 -0.1866  0.0537  0.1242
  402MOL0     O54159  12.909  10.722   9.491 -0.8618 -0.2327 -0.4469
  402MOL0     C54160  13.037  10.753   9.463 -0.8034  0.1845 -0.0841
  402MOL0     C54161  13.145  10.722   9.553  0.6921  0.6212  0.1516
  402MOL0     C54162  13.279  10.742   9.520  0.3315 -0.2236  0.8864
  402MOL0     C54163  13.305  10.819   9.409 -0.6455 -1.5019 -0.3550
  402MOL0     C54164  13.450  10.850   9.375 -0.2117 -0.2456 -0.4236
  402MOL0     O54165  13.551  10.810   9.455  0.6493  0.4942 -0.9623
  402MOL0     C54166  13.676  10.839   9.405  0.9907  0.2769  0.8117
  402MOL0     C54167  13.746  10.949   9.452 -0.3329 -0.8875  0.0451
  402MOL0     C54168  13.876  10.964   9.413 -0.0678  0.1267  0.2621
  402MOL0     C54169  13.942  10.884   9.311  0.3664  0.7445 -0.2629
  402MOL0     O54170  14.064  10.919   9.254  0.4292  0.5627 -0.0893
  402MOL0     C54171  14.114  11.057   9.266  0.2912 -0.0682  0.6093
  402MOL0     C54172  14.206  11.081   9.139 -0.5388 -0.3561 -0.1839
  402MOL0     C54173  14.344  11.012   9.157  0.0060 -0.6676  0.2046
  402MOL0     C54174  14.440  11.075   9.266  0.2090 -0.2520  0.0575
  402MOL0     C54175  14.558  10.988   9.303 -0.0414  0.3360 -0.7484
  402MOL0     C54176  14.689  11.066   9.340  0.5653  0.2231  0.2932
  402MOL0     C54177  14.815  10.980   9.328 -0.0580  0.0817  0.2790
  402MOL0     C54178  14.822  10.871   9.438 -0.2744  0.7457  0.0382
  402MOL0    Cl54179  14.956  10.766   9.386  0.2295  0.0088 -0.3584
  402MOL0     C54180  13.868  10.780   9.261 -0.2069 -0.6716  0.0647
  402MOL0     C54181  13.739  10.753   9.310 -0.1641 -0.5580 -0.3217
  402MOL0     O54182  13.458  10.918   9.268 -0.2584  0.0308 -0.3234
  402MOL0     C54183  13.198  10.862   9.318 -0.2260  0.7240 -1.1543
  402MOL0     C54184  13.066  10.819   9.340 -0.5202  0.2940  0.8665
  402MOL0     N54185  12.354  10.818   9.736  0.0784  0.3269 -0.4313
  402MOL0     N54186  12.244  10.884   9.762  0.3818  0.1337 -0.2230
  402MOL0     C54187  11.118  10.385   9.603  0.4335  0.1263 -0.8867
  402MOL0     C54188  10.987  10.327   9.603 -0.4740 -0.4180 -0.3104
  402MOL0     C54189  10.576  10.232   9.786  0.4147 -0.6017  0.0103
  402MOL0     C54190  10.568  10.093   9.817  0.6555 -0.6298  0.4892
  402MOL0     C54191  10.436  10.035   9.824 -0.2609  0.3316 -0.8412
  402MOL0     C54192  10.327  10.115   9.793 -0.9713  0.4043  0.2968
  402MOL0     O54193  10.204  10.057   9.803 -0.3641  0.0520 -0.1537
  402MOL0     C54194  10.109  10.128   9.886 -0.8273 -0.0553  0.3632
  402MOL0     C54195  10.000  10.044   9.931 -0.4675  0.1437 -0.0896
  402MOL0     C54196  10.037   9.893   9.961  0.4878  0.1168 -0.6107
  402MOL0     C54197   9.927   9.814  10.032 -0.4238 -0.1207 -0.7841
  402MOL0     C54198   9.796   9.843   9.989 -0.4387 -0.4466  0.2593
  402MOL0     C54199   9.686   9.866   9.950 -0.5004  0.0149 -0.0156
  402MOL0     C54200  10.334  10.257   9.768  0.1235  0.0716  0.2404
  402MOL0     C54201  10.462  10.314   9.765  1.2586  0.3286 -0.5591
  402MOL0     C54202  10.468  10.463   9.741 -0.9580 -0.0016 -0.7864
  402MOL0     H54203  10.963  10.255   9.927  1.4724 -0.0452  0.4167
  402MOL0     H54204  11.181  10.365   9.937  0.4698 -3.0055 -0.0787
  402MOL0     H54205  11.271  10.646   9.861  0.4597  0.0959  1.6140
  402MOL0     H54206  11.361  10.516   9.931 -3.4152 -1.2485 -0.9639
  402MOL0     H54207  11.503  10.701   9.887 -0.4882 -0.6612  0.2672
  402MOL0     H54208  11.471  10.705   9.713 -0.7987  1.4048  1.0674
  402MOL0     H54209  11.554  10.448   9.752 -0.8691  0.5848 -0.7490
  402MOL0     H54210  11.625  10.512   9.901 -1.0012 -1.5518  0.7037
  402MOL0     H54211  11.809  10.522   9.746 -0.0155  3.1429  1.5369
  402MOL0     H54212  11.693  10.548   9.614  1.8597  2.1332 -1.7020
  402MOL0     H54213  11.675  10.772   9.683  0.5720  0.4991  1.1538
  402MOL0     H54214  11.764  10.733   9.840 -1.7227 -2.8686  0.7560
  402MOL0     H54215  11.965  10.696   9.703  0.2461  0.1358 -1.7180
  402MOL0     H54216  11.872  10.738   9.562  0.8786 -3.4979 -0.3564
  402MOL0     H54217  11.908  10.913   9.806  1.3481  1.2456 -0.1041
  402MOL0     H54218  11.821  10.967   9.663  1.0827  0.9233  0.4889
  402MOL0     H54219  12.028  10.951   9.515  1.1747 -2.2849  0.1831
  402MOL0     H54220  12.060  11.057   9.656  2.2688 -0.7699 -1.1680
  402MOL0     H54221  12.202  10.757   9.456  0.5914 -1.0735  0.4111
  402MOL0     H54222  12.473  10.598   9.602 -0.6294  0.7977  1.4849
  402MOL0     H54223  12.397  10.638   9.439  0.3111  2.0686 -0.4894
  402MOL0     H54224  12.537  10.833   9.436  1.8890 -0.8325 -1.4092
  402MOL0     H54225  12.600  10.800   9.601  0.3574  0.8607 -0.3630
  402MOL0     H54226  12.612  10.621   9.350 -1.2551  1.3146 -0.5962
  402MOL0     H54227  12.694  10.579   9.495  0.2201 -1.1712 -2.5911
  402MOL0     H54228  12.787  10.827   9.357  2.2799  0.2804 -0.5312
  402MOL0     H54229  12.834  10.657   9.309 -3.6076 -2.7762  0.8580
  402MOL0     H54230  13.127  10.674   9.648  1.9202  3.0794  1.7284
  402MOL0     H54231  13.366  10.704   9.573  1.1371 -1.4562 -1.1824
  402MOL0     H54232  13.706  11.015   9.529 -2.0906 -1.5708 -0.2422
  402MOL0     H54233  13.931  11.047   9.455 -1.1366  0.3441  1.2595
  402MOL0     H54234  14.033  11.129   9.254  1.3775  0.7989 -2.6203
  402MOL0     H54235  14.158  11.058   9.366 -2.0745 -2.2353  1.7908
  402MOL0     H54236  14.157  11.064   9.043  1.8800 -0.1402 -1.5374
  402MOL0     H54237  14.232  11.188   9.139 -0.0348 -0.4708  0.8977
  402MOL0     H54238  14.331  10.907   9.183  0.5288 -0.8444 -0.2542
  402MOL0     H54239  14.396  10.999   9.062  0.2000  0.9788  0.0523
  402MOL0     H54240  14.376  11.093   9.353 -1.4329 -1.1873 -0.8886
  402MOL0     H54241  14.479  11.170   9.230  0.6676  0.5313  2.4985
  402MOL0     H54242  14.581  10.936   9.210  0.8611 -1.5524  0.4651
  402MOL0     H54243  14.535  10.928   9.392  0.4445  2.0109  0.5625
  402MOL0     H54244  14.704  11.136   9.257  1.1712 -0.7367 -0.4294
  402MOL0     H54245  14.683  11.119   9.436 -0.8907 -2.4299  1.7675
  402MOL0     H54246  14.900  11.047   9.342  0.3127  0.4976 -3.0231
  402MOL0     H54247  14.812  10.922   9.235  0.5433 -0.6614  0.7090
  402MOL0     H54248  14.838  10.905   9.540 -1.4536  1.4387  0.0091
  402MOL0     H54249  14.732  10.809   9.434  0.5644 -0.6341  1.3999
  402MOL0     H54250  13.912  10.709   9.191  0.9807  0.5777 -0.4848
  402MOL0     H54251  13.687  10.669   9.265 -0.0318 -1.9498  1.9740
  402MOL0     H54252  13.227  10.906   9.223  0.1204 -0.7859 -1.7853
  402MOL0     H54253  12.985  10.822   9.268 -0.9942 -3.6974  0.9866
  402MOL0     H54254  11.170  10.427   9.517  1.5799  0.5534 -0.0105
  402MOL0     H54255  10.944  10.314   9.504  1.1717 -2.0416 -0.8765
  402MOL0     H54256  10.651  10.024   9.830  0.2714 -0.7859  2.5852
  402MOL0     H54257  10.425   9.928   9.839 -0.6090  0.3781 -0.7491
  402MOL0     H54258  10.068  10.216   9.834 -0.3465 -0.8811 -1.5080
  402MOL0     H54259  10.162  10.164   9.975 -1.8865 -1.1353  1.4642
  402MOL0     H54260   9.922  10.041   9.855 -0.6408  3.8125 -0.2537
  402MOL0     H54261   9.963  10.086  10.025  2.4636  0.2661  1.0976
  402MOL0     H54262  10.127   9.875  10.020 -0.6033  0.5528  1.3177
  402MOL0     H54263  10.052   9.849   9.862  2.3679  1.0282 -0.7657
  402MOL0     H54264   9.942   9.708  10.014 -0.6651  0.2856 -3.9156
  402MOL0     H54265   9.924   9.827  10.140 -0.9613 -0.6262 -0.7320
  402MOL0     H54266   9.587   9.904   9.933 -0.6585  1.4267  3.3190
  402MOL0     H54267  10.238  10.305   9.757  0.7533  1.1711 -0.7217
  402MOL0     H54268  10.503  10.515   9.831  0.4597  1.2145 -1.9835
  402MOL0     H54269  10.541  10.477   9.661 -1.7507  0.9544 -1.3713
  402MOL0     H54270  10.373  10.513   9.719 -0.5616  2.1966  1.8403
  403MOL0     O54271  10.413   1.408   4.738  0.0196 -0.7299  0.5449
  403MOL0     C54272  10.388   1.517   4.770 -0.3138  0.6677 -0.4236
  403MOL0     O54273  10.447   1.636   4.723  0.4144 -0.2475  0.5532
  403MOL0     C54274  10.532   1.615   4.620 -0.3968  0.6932  0.8390
  403MOL0     C54275  10.490   1.618   4.487  0.6296  0.2076 -0.5848
  403MOL0     C54276  10.578   1.586   4.379 -0.0680  0.3299 -0.0737
  403MOL0     C54277  10.709   1.553   4.401 -0.8236  0.3077  0.1738
  403MOL0     O54278  10.799   1.536   4.295  0.1914  0.6039  0.1670
  403MOL0     C54279  10.884   1.646   4.263  0.4889 -1.1717 -1.0115
  403MOL0     C54280  11.029   1.605   4.288 -0.3547  0.4317 -0.4826
  403MOL0     C54281  11.079   1.500   4.188  0.4199 -0.3433 -0.3329
  403MOL0     C54282  11.232   1.499   4.191  0.1438 -0.0287 -0.0690
  403MOL0     C54283  11.286   1.426   4.073 -0.4110  0.2648  0.4958
  403MOL0     C54284  11.434   1.438   4.069  0.5261  0.1118  0.8057
  403MOL0     C54285  11.510   1.389   4.195  0.2054  0.5424  0.0586
  403MOL0     C54286  11.660   1.362   4.167 -0.0818  0.3997  0.5623
  403MOL0     N54287  11.732   1.477   4.096 -0.8799  0.0932  0.2117
  403MOL0     C54288  11.820   1.477   3.987  0.2720 -0.0058  0.2577
  403MOL0     C54289  11.847   1.611   3.971  0.4298  0.2134 -0.0654
  403MOL0     C54290  11.954   1.676   3.885  0.5921  0.1079 -0.2392
  403MOL0     C54291  12.087   1.616   3.877 -0.9915 -0.5154 -0.3309
  403MOL0     C54292  12.164   1.645   4.007 -0.4635 -0.3292  0.2479
  403MOL0     C54293  12.291   1.574   4.014 -0.3575  0.4609 -0.1675
  403MOL0     O54294  12.260   1.435   4.051 -0.2377 -0.1030  0.3988
  403MOL0     C54295  12.368   1.349   4.068 -0.1664 -0.4716 -0.5388
  403MOL0     C54296  12.455   1.322   3.968 -0.4323 -0.7618  0.4027
  403MOL0     C54297  12.564   1.232   3.994  0.3965  0.6979  0.6618
  403MOL0     C54298  12.595   1.176   4.118  0.5157  0.7605 -0.2460
  403MOL0     C54299  12.726   1.103   4.138  0.0148 -0.5433  0.8700
  403MOL0     O54300  12.762   1.087   4.264  0.1702  0.5253  0.2094
  403MOL0     C54301  12.880   1.024   4.302  0.5132  0.5234 -0.9241
  403MOL0     C54302  12.963   1.077   4.402 -0.0178 -0.3296  0.0471
  403MOL0     C54303  13.079   1.014   4.437  0.5865  0.0300  0.4233
  403MOL0     C54304  13.122   0.903   4.363 -0.4192 -0.8558  0.4922
  403MOL0     O54305  13.236   0.853   4.408  0.0752  0.1954  0.1282
  403MOL0     C54306  13.285   0.738   4.336 -0.8367 -0.4665  0.4207
  403MOL0     C54307  13.416   0.680   4.406 -0.0918 -0.8949 -0.5561
  403MOL0     C54308  13.536   0.770   4.387 -0.9441 -0.0268 -0.5673
  403MOL0     C54309  13.667   0.700   4.440 -0.0419  0.1411  0.3918
  403MOL0     C54310  13.787   0.794   4.440 -0.3888 -0.3254 -0.6815
  403MOL0     C54311  13.770   0.925   4.511  0.1161  0.0245  0.4696
  403MOL0     C54312  13.904   1.000   4.551  0.2313  0.1169  0.8827
  403MOL0     C54313  13.970   1.050   4.418 -0.0472  0.7138 -0.5711
  403MOL0    Cl54314  14.137   1.104   4.438 -0.3824 -0.2753  0.0019
  403MOL0     C54315  13.039   0.848   4.264 -0.0861 -0.4908  1.0793
  403MOL0     C54316  12.914   0.905   4.235  0.0800 -0.1654  0.6066
  403MOL0     O54317  12.800   1.085   4.039  0.4568  0.7252 -0.8960
  403MOL0     C54318  12.503   1.208   4.216 -0.1074  0.6965 -0.6311
  403MOL0     C54319  12.390   1.291   4.197  0.1323  0.0284  0.6200
  403MOL0     N54320  11.769   1.683   4.059 -0.1493 -0.0312 -0.2312
  403MOL0     N54321  11.697   1.605   4.128  0.3370 -0.3827 -0.7432
  403MOL0     C54322  10.756   1.554   4.532  0.0063  0.8665 -0.7160
  403MOL0     C54323  10.671   1.591   4.639  0.5084  0.2147  0.4502
  403MOL0     C54324  10.289   1.531   4.879  0.5000 -0.0710  0.1337
  403MOL0     C54325  10.282   1.653   4.943  0.6692  0.2696 -0.1049
  403MOL0     C54326  10.190   1.679   5.043  0.2590 -0.4038 -0.4455
  403MOL0     C54327  10.097   1.584   5.081  0.4343 -0.4153 -0.5550
  403MOL0     O54328  10.014   1.603   5.182  0.1749 -0.5602 -0.4976
  403MOL0     C54329  10.005   1.717   5.259  0.7008 -0.4035 -1.1312
  403MOL0     C54330   9.932   1.827   5.183  0.4409 -0.6623 -0.6862
  403MOL0     C54331   9.909   1.954   5.262  0.0792  0.6539  0.4090
  403MOL0     C54332  10.027   2.047   5.255  0.1956 -0.0019 -0.4094
  403MOL0     C54333   9.993   2.156   5.170  0.7618 -0.0889  0.6347
  403MOL0     C54334   9.974   2.254   5.105  0.1695 -0.1639  0.0777
  403MOL0     C54335  10.098   1.458   5.018  0.0289  0.5602  0.5136
  403MOL0     C54336  10.190   1.430   4.914  0.7095 -0.1730  0.4614
  403MOL0     C54337  10.190   1.284   4.861 -0.1174 -0.5595  0.0788
  403MOL0     H54338  10.386   1.635   4.461  1.0082 -1.0368 -3.2970
  403MOL0     H54339  10.543   1.597   4.277  1.6709  0.8639 -0.6496
  403MOL0     H54340  10.875   1.672   4.157  0.6544 -0.1945 -0.7908
  403MOL0     H54341  10.864   1.735   4.322  4.5665 -0.3516 -0.5607
  403MOL0     H54342  11.035   1.562   4.388 -2.3516 -0.9536 -0.8862
  403MOL0     H54343  11.095   1.691   4.275  1.5268 -1.0556 -1.1879
  403MOL0     H54344  11.042   1.538   4.092  0.2793  1.0891  0.2571
  403MOL0     H54345  11.029   1.408   4.218  1.1050 -0.5972  0.0347
  403MOL0     H54346  11.266   1.602   4.179  0.3556 -0.3307 -2.4797
  403MOL0     H54347  11.270   1.458   4.285 -2.5485 -0.2163  1.0392
  403MOL0     H54348  11.256   1.322   4.082  1.2366 -0.3762 -0.9053
  403MOL0     H54349  11.245   1.476   3.985  0.4233  0.5852  0.2765
  403MOL0     H54350  11.460   1.375   3.984  0.4112  1.0876  0.0254
  403MOL0     H54351  11.461   1.539   4.037 -3.1789  0.5338 -1.5726
  403MOL0     H54352  11.467   1.296   4.233  2.3805  0.2158  1.9358
  403MOL0     H54353  11.493   1.461   4.276 -3.1921 -1.3631  1.2424
  403MOL0     H54354  11.700   1.345   4.267  1.2772  2.2535  0.3917
  403MOL0     H54355  11.669   1.270   4.110 -0.0940 -1.1273  2.8847
  403MOL0     H54356  11.861   1.391   3.936  0.2271 -1.0588  1.9082
  403MOL0     H54357  11.908   1.682   3.786  0.3565  1.1656 -0.0790
  403MOL0     H54358  11.967   1.781   3.911  0.1634  0.0611  0.1987
  403MOL0     H54359  12.083   1.508   3.865  0.5187 -0.7875  1.2501
  403MOL0     H54360  12.146   1.661   3.796 -0.1064  1.1055  1.1283
  403MOL0     H54361  12.099   1.627   4.093 -1.6175 -0.8596 -0.6948
  403MOL0     H54362  12.198   1.749   4.004 -0.6133 -0.2800  0.2506
  403MOL0     H54363  12.347   1.618   4.097  1.9394 -0.8548 -0.9014
  403MOL0     H54364  12.353   1.597   3.927 -0.5999  4.6488  0.5523
  403MOL0     H54365  12.443   1.358   3.867  3.0421 -2.6335 -0.8447
  403MOL0     H54366  12.621   1.213   3.904  0.6081 -0.1216  0.9594
  403MOL0     H54367  12.937   1.169   4.454 -3.5703 -1.0254 -0.2355
  403MOL0     H54368  13.125   1.056   4.526 -0.4591  2.5699 -0.1628
  403MOL0     H54369  13.205   0.665   4.322 -1.8126  0.6540 -0.0147
  403MOL0     H54370  13.310   0.778   4.237 -0.0925  1.3733  1.2950
  403MOL0     H54371  13.402   0.662   4.513  2.7871 -2.9362 -0.3952
  403MOL0     H54372  13.429   0.578   4.369  1.5055 -0.8164 -0.2905
  403MOL0     H54373  13.556   0.801   4.284 -1.9872  0.4693 -0.6373
  403MOL0     H54374  13.513   0.864   4.438  1.1495  0.0929  0.2731
  403MOL0     H54375  13.704   0.615   4.380 -1.7276 -0.3437 -0.0257
  403MOL0     H54376  13.656   0.651   4.537  0.3019  2.2637  1.5427
  403MOL0     H54377  13.816   0.832   4.342 -2.3700  2.8983 -0.1772
  403MOL0     H54378  13.871   0.740   4.483 -0.6281 -0.1698 -0.0101
  403MOL0     H54379  13.708   0.990   4.449  1.3637 -1.3393 -2.3423
  403MOL0     H54380  13.702   0.909   4.595  0.2024  1.6613  0.8912
  403MOL0     H54381  13.965   0.923   4.599 -1.6049 -2.8223 -1.1744
  403MOL0     H54382  13.877   1.084   4.616 -0.3764 -0.8561  1.9360
  403MOL0     H54383  13.970   0.962   4.352  1.6984  1.2387 -1.3381
  403MOL0     H54384  13.911   1.126   4.365 -0.1113 -0.5223 -2.3542
  403MOL0     H54385  13.058   0.755   4.212  0.0375  0.1490 -0.0622
  403MOL0     H54386  12.848   0.859   4.162 -0.8203 -0.0963  1.3470
  403MOL0     H54387  12.522   1.168   4.315  1.0603 -1.3790 -1.6309
  403MOL0     H54388  12.325   1.328   4.275 -1.5740  0.2932 -0.8464
  403MOL0     H54389  10.859   1.530   4.555 -0.0666  1.9502  0.8880
  403MOL0     H54390  10.698   1.594   4.744 -0.0662  0.6930  0.5880
  403MOL0     H54391  10.349   1.732   4.911 -0.8283  1.8818  0.6065
  403MOL0     H54392  10.197   1.776   5.092 -2.3132  0.4112 -1.4906
  403MOL0     H54393  10.107   1.744   5.288  0.1834  0.6010 -0.2057
  403MOL0     H54394   9.948   1.701   5.351 -0.9404 -0.3790 -2.1036
  403MOL0     H54395   9.832   1.794   5.155 -1.1078  1.2148  2.1259
  403MOL0     H54396   9.982   1.857   5.090 -0.5135 -0.6779 -1.2100
  403MOL0     H54397   9.895   1.934   5.369 -1.2533  1.0142  0.3102
  403MOL0     H54398   9.816   1.994   5.221  0.1954  2.1683  1.5463
  403MOL0     H54399  10.025   2.097   5.353 -1.0891  2.3294 -1.5354
  403MOL0     H54400  10.112   1.995   5.210  1.2244 -0.5768  2.0628
  403MOL0     H54401   9.973   2.350   5.058 -1.3492 -0.1967 -0.0153
  403MOL0     H54402  10.033   1.379   5.055 -0.4813  0.5772 -0.3212
  403MOL0     H54403  10.097   1.229   4.871 -0.2433  0.0563  3.7309
  403MOL0     H54404  10.207   1.276   4.753 -2.0687 -4.2980 -0.1094
  403MOL0     H54405  10.263   1.225   4.916 -0.4656  0.9044  2.2387
  404MOL0     O54406   1.524   6.724   0.657 -0.4415  0.2905 -0.3552
  404MOL0     C54407   1.451   6.816   0.694  0.2243  0.1591  0.6135
  404MOL0     O54408   1.480   6.945   0.681 -0.6311 -0.1455 -0.1773
  404MOL0     C54409   1.608   6.976   0.645 -0.0641  0.1840  0.3754
  404MOL0     C54410   1.688   7.036   0.736 -0.8473 -1.2362 -0.2006
  404MOL0     C54411   1.817   7.084   0.711  0.7518  0.1251 -0.4906
  404MOL0     C54412   1.880   7.038   0.597 -0.9249 -0.7712 -0.0712
  404MOL0     O54413   2.007   7.074   0.575 -0.0515 -0.0546 -0.3625
  404MOL0     C54414   2.086   6.999   0.477 -0.7129 -0.0925 -0.2027
  404MOL0     C54415   2.248   6.996   0.489  0.3783 -0.1889  0.4946
  404MOL0     C54416   2.309   7.140   0.503  0.2246 -0.0203 -0.4367
  404MOL0     C54417   2.311   7.226   0.374 -0.0030 -0.0268  0.5598
  404MOL0     C54418   2.418   7.341   0.387  0.8385 -0.8126 -0.3784
  404MOL0     C54419   2.399   7.435   0.269 -0.2531 -0.1270 -0.3859
  404MOL0     C54420   2.506   7.538   0.246 -0.8777 -0.0518 -0.6089
  404MOL0     C54421   2.503   7.590   0.108  0.8854  0.2585  0.5825
  404MOL0     N54422   2.594   7.704   0.094 -0.3900  0.0173 -0.1977
  404MOL0     C54423   2.556   7.837   0.097 -0.4262 -0.1148 -0.2134
  404MOL0     C54424   2.677   7.902   0.073 -0.7845  0.0842 -0.3413
  404MOL0     C54425   2.710   8.047   0.079 -0.2141  0.6948 -0.0479
  404MOL0     C54426   2.800   8.079   0.192  0.7511  0.7573 -0.3712
  404MOL0     C54427   2.829   8.226   0.202  0.0124 -0.3642 -0.0976
  404MOL0     C54428   2.920   8.284   0.097  0.5716 -0.2208  0.4779
  404MOL0     O54429   3.041   8.216   0.080  0.4875  0.6446  0.5113
  404MOL0     C54430   3.144   8.265   0.002 -0.6490 -0.5837  1.3924
  404MOL0     C54431   3.151   8.401  -0.043 -1.0538 -0.7163  0.0228
  404MOL0     C54432   3.256   8.449  -0.129 -0.1328  0.3949 -0.0270
  404MOL0     C54433   3.359   8.364  -0.167  0.3450  0.4657 -0.0705
  404MOL0     C54434   3.463   8.420  -0.254  0.0208  0.1690 -0.1571
  404MOL0     O54435   3.574   8.337  -0.277 -0.4953  0.7543 -0.3951
  404MOL0     C54436   3.684   8.363  -0.351  0.0948 -0.5306  0.4179
  404MOL0     C54437   3.765   8.255  -0.398 -0.5331  0.1386 -0.1192
  404MOL0     C54438   3.883   8.273  -0.473  0.2328 -0.3920 -0.1508
  404MOL0     C54439   3.912   8.400  -0.515 -0.0156 -1.1015 -0.1737
  404MOL0     O54440   4.020   8.429  -0.593  0.0613  0.3230  0.6033
  404MOL0     C54441   4.142   8.357  -0.580  0.7944  0.3024  0.3194
  404MOL0     C54442   4.265   8.429  -0.641  0.5467  0.0920 -0.0568
  404MOL0     C54443   4.391   8.355  -0.609  0.4701 -0.4463  0.1831
  404MOL0     C54444   4.497   8.410  -0.702 -0.3112 -0.5943 -0.3677
  404MOL0     C54445   4.633   8.349  -0.666  0.1248 -0.0467  0.0338
  404MOL0     C54446   4.739   8.378  -0.777  0.6846  0.0896 -0.2730
  404MOL0     C54447   4.709   8.312  -0.913  0.4761  0.5623  1.2165
  404MOL0     C54448   4.816   8.357  -1.010 -0.5141  0.3767 -0.0043
  404MOL0    Cl54449   4.796   8.249  -1.152  0.7093 -0.2480  0.2120
  404MOL0     C54450   3.829   8.514  -0.481  0.6221 -0.2348 -0.1637
  404MOL0     C54451   3.712   8.495  -0.397  0.3403 -0.2587  1.3095
  404MOL0     O54452   3.438   8.528  -0.302  0.0781 -0.4648 -0.5736
  404MOL0     C54453   3.359   8.235  -0.114 -0.1014 -0.0393 -0.4020
  404MOL0     C54454   3.252   8.183  -0.034 -0.1174 -0.3658  0.5895
  404MOL0     N54455   2.774   7.800   0.073  0.5734 -0.3534 -0.2495
  404MOL0     N54456   2.723   7.685   0.083  0.9040 -0.4481  0.3825
  404MOL0     C54457   1.809   6.974   0.499  0.6234  0.4853  0.2854
  404MOL0     C54458   1.674   6.940   0.524 -0.5454 -0.4453  0.3919
  404MOL0     C54459   1.306   6.787   0.720 -0.3490  0.3300  0.0409
  404MOL0     C54460   1.211   6.876   0.670 -0.8790  0.0214  0.5455
  404MOL0     C54461   1.082   6.830   0.658  1.0277 -0.7030 -0.4100
  404MOL0     C54462   1.031   6.707   0.697 -0.1173  0.8109  1.3397
  404MOL0     O54463   0.895   6.690   0.678 -0.5673 -0.1695 -0.7447
  404MOL0     C54464   0.841   6.563   0.712 -0.6218 -0.0111 -0.6814
  404MOL0     C54465   0.692   6.573   0.694 -0.0047  0.2435 -0.3629
  404MOL0     C54466   0.648   6.588   0.553 -0.4011 -0.2496  0.5084
  404MOL0     C54467   0.505   6.563   0.522 -0.6407  0.1626 -0.3132
  404MOL0     C54468   0.415   6.668   0.551  0.5221  0.2189  0.1858
  404MOL0     C54469   0.329   6.740   0.578  1.1421 -0.5046  0.3676
  404MOL0     C54470   1.128   6.620   0.761  0.4904 -0.9986  0.5720
  404MOL0     C54471   1.269   6.662   0.768  0.2385 -0.4354 -0.3547
  404MOL0     C54472   1.361   6.552   0.817  0.1957  0.4155  0.8093
  404MOL0     H54473   1.632   7.062   0.825 -1.3706  1.8986 -1.2907
  404MOL0     H54474   1.874   7.133   0.789  1.3327  1.0139 -1.4339
  404MOL0     H54475   2.072   6.891   0.485  1.9136 -0.5311 -0.6536
  404MOL0     H54476   2.063   7.021   0.372 -1.5882 -3.4349 -0.8138
  404MOL0     H54477   2.284   6.944   0.399  1.8112  0.8231  0.4482
  404MOL0     H54478   2.275   6.941   0.579 -0.1434 -0.8397  0.2606
  404MOL0     H54479   2.412   7.124   0.538 -1.0113  1.5550  4.7492
  404MOL0     H54480   2.271   7.190   0.592  1.6425  0.1309  0.1094
  404MOL0     H54481   2.327   7.156   0.292 -5.3160 -0.0413 -0.8652
  404MOL0     H54482   2.211   7.263   0.348  1.1819  2.7790 -0.4009
  404MOL0     H54483   2.392   7.402   0.474  3.9799 -1.3489  1.0967
  404MOL0     H54484   2.525   7.324   0.403  1.4333  2.3581 -0.4493
  404MOL0     H54485   2.397   7.367   0.183  1.5757  0.3441 -0.8496
  404MOL0     H54486   2.307   7.494   0.265  0.5142  1.0415 -2.0243
  404MOL0     H54487   2.604   7.489   0.256 -1.9973 -1.8725  4.7572
  404MOL0     H54488   2.496   7.624   0.311 -1.9192 -1.0734  0.6225
  404MOL0     H54489   2.532   7.506   0.044 -0.3970  0.4866 -0.3264
  404MOL0     H54490   2.399   7.620   0.100  0.8372 -0.3163 -1.3647
  404MOL0     H54491   2.461   7.884   0.119  0.7375  2.5799 -0.5141
  404MOL0     H54492   2.748   8.087  -0.015  0.6234  2.1541  0.8669
  404MOL0     H54493   2.614   8.098   0.098 -2.6023 -3.3565 -0.0840
  404MOL0     H54494   2.742   8.041   0.276 -0.5775 -0.4786 -1.7743
  404MOL0     H54495   2.898   8.031   0.199  0.9235  1.3342  1.4653
  404MOL0     H54496   2.879   8.236   0.299 -0.0610 -0.9259  0.0004
  404MOL0     H54497   2.741   8.291   0.204  0.3391  0.1413  3.2156
  404MOL0     H54498   2.939   8.387   0.131 -1.5966  0.1108  0.8727
  404MOL0     H54499   2.867   8.289   0.001  0.0443  0.0422  0.7772
  404MOL0     H54500   3.066   8.464  -0.017 -0.7164  0.2766 -1.1457
  404MOL0     H54501   3.247   8.555  -0.152 -0.2925 -0.0611 -2.2656
  404MOL0     H54502   3.735   8.154  -0.370  1.8392 -0.4557  0.5430
  404MOL0     H54503   3.939   8.190  -0.514  1.8454 -0.5001  2.0982
  404MOL0     H54504   4.162   8.337  -0.474  2.3708  0.7845  0.1331
  404MOL0     H54505   4.134   8.256  -0.622 -0.5540  1.1291 -1.5376
  404MOL0     H54506   4.250   8.435  -0.749 -0.9026 -1.2276  0.0337
  404MOL0     H54507   4.278   8.525  -0.590  1.5911  0.2346 -0.5736
  404MOL0     H54508   4.420   8.368  -0.504  0.8233 -1.4497  0.2226
  404MOL0     H54509   4.386   8.246  -0.616  2.3894 -0.5063 -0.8834
  404MOL0     H54510   4.492   8.519  -0.695 -1.3970 -0.6085 -0.7197
  404MOL0     H54511   4.469   8.397  -0.807  1.6329 -0.4726 -0.9368
  404MOL0     H54512   4.636   8.240  -0.667 -0.0486 -0.0823  1.4546
  404MOL0     H54513   4.669   8.389  -0.571 -0.7817  1.1986 -0.1158
  404MOL0     H54514   4.749   8.486  -0.790 -0.4453  0.5914  2.3640
  404MOL0     H54515   4.829   8.333  -0.735  1.5169  1.0215 -1.0028
  404MOL0     H54516   4.615   8.338  -0.963  0.3055 -1.4949  0.3841
  404MOL0     H54517   4.723   8.204  -0.912  1.1868  0.5258 -1.9644
  404MOL0     H54518   4.827   8.464  -1.034  1.9824 -0.3760 -2.8934
  404MOL0     H54519   4.913   8.327  -0.970 -0.2582 -2.6515 -2.5316
  404MOL0     H54520   3.845   8.615  -0.518  0.8959 -0.1676  0.1402
  404MOL0     H54521   3.650   8.580  -0.371  1.7862  0.5006  2.4640
  404MOL0     H54522   3.440   8.167  -0.139  0.9141  0.9948 -0.0251
  404MOL0     H54523   3.264   8.088   0.017  3.7404 -0.2751  0.1336
  404MOL0     H54524   1.852   6.952   0.402 -0.2828  0.5131 -0.1317
  404MOL0     H54525   1.616   6.880   0.456 -1.5356  1.6666 -0.7413
  404MOL0     H54526   1.227   6.977   0.635 -0.6029 -0.4303 -0.6781
  404MOL0     H54527   1.005   6.904   0.636 -0.0056 -0.7564  2.5849
  404MOL0     H54528   0.854   6.537   0.818  1.7914 -1.5532 -1.2897
  404MOL0     H54529   0.896   6.485   0.659  3.8357  0.2118  2.9908
  404MOL0     H54530   0.654   6.652   0.758 -1.7281 -0.4754 -0.4345
  404MOL0     H54531   0.651   6.478   0.731  0.5433 -1.4447 -3.6246
  404MOL0     H54532   0.700   6.514   0.492  1.3359  0.4255  1.1027
  404MOL0     H54533   0.675   6.690   0.523 -1.5722 -0.5532 -1.7930
  404MOL0     H54534   0.502   6.550   0.413  0.8300 -1.1638 -0.2257
  404MOL0     H54535   0.479   6.469   0.570 -1.0851  1.5536  2.3375
  404MOL0     H54536   0.241   6.786   0.616  1.0860 -0.1481 -0.1894
  404MOL0     H54537   1.103   6.517   0.788 -0.1330 -0.7002  1.1546
  404MOL0     H54538   1.310   6.461   0.851 -0.3305  1.3164  2.5885
  404MOL0     H54539   1.417   6.532   0.725 -0.1822  0.8359  0.4862
  404MOL0     H54540   1.430   6.587   0.895  0.3276 -0.9297  1.3186
  405MOL0     O54541   5.079   4.489   1.702  0.2979  0.6827  0.1675
  405MOL0     C54542   4.970   4.462   1.745  0.6919  0.3878 -0.4479
  405MOL0     O54543   4.934   4.473   1.881 -0.2510  0.4002 -0.4573
  405MOL0     C54544   5.024   4.539   1.963 -0.3949 -0.2141  0.4856
  405MOL0     C54545   5.015   4.677   2.001  0.3617  0.1385 -0.6658
  405MOL0     C54546   5.114   4.745   2.062 -0.4400 -1.1059  0.4444
  405MOL0     C54547   5.241   4.687   2.079 -0.2958 -0.6026 -0.1640
  405MOL0     O54548   5.347   4.769   2.115 -0.8308  0.0088  0.2492
  405MOL0     C54549   5.482   4.722   2.132 -0.3650  0.2217 -0.0803
  405MOL0     C54550   5.572   4.821   2.211  0.5327 -0.0135  0.2573
  405MOL0     C54551   5.514   4.866   2.347 -0.2960  0.4213  0.8703
  405MOL0     C54552   5.583   4.986   2.407 -0.0549 -0.3299  0.3893
  405MOL0     C54553   5.515   5.022   2.536  0.4822 -0.8170  0.1587
  405MOL0     C54554   5.563   4.946   2.652  0.0754 -1.1451  0.2886
  405MOL0     C54555   5.495   4.993   2.783  0.1445 -0.7342  0.5275
  405MOL0     C54556   5.495   5.149   2.799 -0.2760 -1.0673  0.6874
  405MOL0     N54557   5.639   5.183   2.806 -0.5530  0.3176 -0.6259
  405MOL0     C54558   5.708   5.171   2.917  0.6629  0.2394 -0.5619
  405MOL0     C54559   5.821   5.241   2.901  0.3783 -1.1787  0.9091
  405MOL0     C54560   5.934   5.250   3.001 -1.6203 -0.1430 -0.5297
  405MOL0     C54561   6.060   5.174   2.959 -0.0545 -0.5998 -0.2958
  405MOL0     C54562   6.142   5.266   2.862  0.1552  0.5324  1.4075
  405MOL0     C54563   6.293   5.228   2.858  0.2883 -0.3650  1.2404
  405MOL0     O54564   6.346   5.270   2.982  0.4213  0.0382 -0.8206
  405MOL0     C54565   6.477   5.250   3.014  0.3581 -0.1967 -0.2192
  405MOL0     C54566   6.526   5.293   3.138 -0.1340  0.4497 -1.6758
  405MOL0     C54567   6.666   5.280   3.169  0.0456 -0.2302  0.0484
  405MOL0     C54568   6.757   5.238   3.075  0.6068  0.1901  0.6119
  405MOL0     C54569   6.906   5.257   3.098 -0.2212  0.0509  0.3688
  405MOL0     O54570   6.988   5.193   3.001 -0.7037  0.5995  0.8322
  405MOL0     C54571   7.125   5.229   3.010 -0.0939 -1.0122  0.9996
  405MOL0     C54572   7.169   5.354   2.984  0.1714  0.1780  0.5065
  405MOL0     C54573   7.304   5.391   2.989 -0.3196  0.3635  0.1063
  405MOL0     C54574   7.403   5.297   3.003  0.1403 -1.0452 -0.3871
  405MOL0     O54575   7.539   5.324   3.011  0.2981  0.0828 -0.1586
  405MOL0     C54576   7.569   5.434   3.095 -0.8590 -0.3142 -0.0312
  405MOL0     C54577   7.688   5.403   3.181  0.3382  0.5119 -1.2008
  405MOL0     C54578   7.806   5.344   3.115 -0.4272  0.5352 -0.2027
  405MOL0     C54579   7.896   5.440   3.039  0.8297 -0.2609  0.4436
  405MOL0     C54580   7.997   5.359   2.950  0.4585 -0.0067 -0.6966
  405MOL0     C54581   8.111   5.451   2.908  0.1640 -0.5206 -0.3615
  405MOL0     C54582   8.213   5.366   2.837  0.5967  0.1850 -0.0782
  405MOL0     C54583   8.330   5.445   2.772 -0.4994 -0.5109 -0.1436
  405MOL0    Cl54584   8.467   5.470   2.890  0.3342  0.2909  0.1478
  405MOL0     C54585   7.360   5.169   3.036 -0.5448 -0.0934 -0.3025
  405MOL0     C54586   7.216   5.131   3.036 -1.6075 -0.0840  0.8611
  405MOL0     O54587   6.954   5.310   3.200  0.0884 -0.4734 -0.4468
  405MOL0     C54588   6.702   5.198   2.952  0.0218  0.9634 -0.1390
  405MOL0     C54589   6.570   5.200   2.916 -0.2618  0.2234 -0.0961
  405MOL0     N54590   5.815   5.289   2.768 -0.9721  0.3844  0.1333
  405MOL0     N54591   5.709   5.252   2.717  1.3845  0.4116 -0.1088
  405MOL0     C54592   5.259   4.553   2.043  0.9059  0.0877 -0.6643
  405MOL0     C54593   5.148   4.483   1.991  0.2570 -0.3180  0.1070
  405MOL0     C54594   4.873   4.385   1.650  0.3697  0.1527 -0.4512
  405MOL0     C54595   4.896   4.408   1.515 -0.0143  0.0606  0.3490
  405MOL0     C54596   4.811   4.361   1.415  0.1059  1.3316 -0.8581
  405MOL0     C54597   4.700   4.291   1.455 -0.5638  0.4603  0.9847
  405MOL0     O54598   4.617   4.236   1.361 -0.1833  0.3758 -0.7880
  405MOL0     C54599   4.632   4.094   1.370  0.5074  0.5290 -0.9329
  405MOL0     C54600   4.506   4.032   1.323  0.2535 -0.1480 -0.4416
  405MOL0     C54601   4.394   4.062   1.415 -0.1841 -0.0288  0.6676
  405MOL0     C54602   4.273   3.972   1.372 -0.2133 -0.6555 -0.0119
  405MOL0     C54603   4.228   4.016   1.239 -0.0415  0.0329  1.4450
  405MOL0     C54604   4.196   4.044   1.121 -0.1857 -0.8053 -0.8149
  405MOL0     C54605   4.673   4.260   1.593 -0.0682 -0.3227 -0.4126
  405MOL0     C54606   4.757   4.314   1.691 -1.6222 -0.1551 -0.9210
  405MOL0     C54607   4.743   4.261   1.836 -0.4397  0.2926  0.6183
  405MOL0     H54608   4.921   4.725   1.977  0.5104 -0.6779 -3.2113
  405MOL0     H54609   5.091   4.845   2.099  0.3292 -1.1908  1.1700
  405MOL0     H54610   5.486   4.627   2.187  1.0952 -0.0323 -0.5987
  405MOL0     H54611   5.516   4.706   2.030 -1.0085  1.9165 -0.5970
  405MOL0     H54612   5.586   4.911   2.149  0.3606  0.4766  0.9277
  405MOL0     H54613   5.668   4.770   2.225  2.4086  2.2693 -2.8266
  405MOL0     H54614   5.532   4.779   2.411  1.7238 -0.4254 -0.7630
  405MOL0     H54615   5.406   4.879   2.331 -0.2348 -0.8883 -0.8061
  405MOL0     H54616   5.688   4.958   2.420  0.9683  3.2447  0.7561
  405MOL0     H54617   5.588   5.066   2.333  1.7873  0.8609  1.7122
  405MOL0     H54618   5.541   5.127   2.550 -0.0194 -0.6410 -0.1827
  405MOL0     H54619   5.406   5.014   2.527  0.1574  0.0462  2.6965
  405MOL0     H54620   5.549   4.838   2.640 -0.1601 -1.1421  0.5350
  405MOL0     H54621   5.670   4.961   2.667 -0.2578 -0.6779  2.5695
  405MOL0     H54622   5.549   4.943   2.864 -0.2035 -0.3991  0.9725
  405MOL0     H54623   5.392   4.961   2.797 -0.4900  1.5739  1.6147
  405MOL0     H54624   5.451   5.208   2.718  0.8402 -1.9352 -0.5868
  405MOL0     H54625   5.445   5.177   2.893  0.1550  0.6611  0.4317
  405MOL0     H54626   5.666   5.122   3.004 -1.2596  3.2354  0.3505
  405MOL0     H54627   5.964   5.350   3.034 -2.4128 -1.1374  3.7739
  405MOL0     H54628   5.892   5.203   3.091  1.8943  1.0826  1.9280
  405MOL0     H54629   6.126   5.155   3.044 -1.8911 -1.3744  1.0339
  405MOL0     H54630   6.037   5.080   2.908  0.8786  0.1105 -2.0982
  405MOL0     H54631   6.145   5.370   2.895 -2.3085  1.4227 -0.8724
  405MOL0     H54632   6.099   5.256   2.762 -0.7220 -1.7357  1.9622
  405MOL0     H54633   6.339   5.273   2.769 -0.3344 -2.6178 -0.3018
  405MOL0     H54634   6.306   5.123   2.831  2.6691  0.7795 -2.9988
  405MOL0     H54635   6.458   5.326   3.216  0.3613 -1.9213 -0.1053
  405MOL0     H54636   6.694   5.307   3.270 -2.4361 -1.1104  1.0305
  405MOL0     H54637   7.082   5.419   2.977 -1.0129 -1.2872  1.0422
  405MOL0     H54638   7.327   5.496   2.976 -2.2389  0.6467 -1.3491
  405MOL0     H54639   7.588   5.519   3.029  0.7576 -0.1593  0.5781
  405MOL0     H54640   7.492   5.461   3.168 -0.0185 -0.6916  1.0100
  405MOL0     H54641   7.717   5.497   3.228  0.7662  0.0939 -0.6169
  405MOL0     H54642   7.656   5.328   3.254  1.8976 -1.6118 -2.5724
  405MOL0     H54643   7.869   5.296   3.190 -2.8180 -0.2763  1.4180
  405MOL0     H54644   7.773   5.264   3.047  2.0574 -2.3099  1.6818
  405MOL0     H54645   7.958   5.498   3.108 -2.1754  2.3371  1.1886
  405MOL0     H54646   7.831   5.513   2.991 -0.2814 -0.3135  1.8157
  405MOL0     H54647   7.945   5.317   2.863  0.3470  1.5218 -1.3951
  405MOL0     H54648   8.031   5.277   3.014  0.3097 -0.1234 -0.7662
  405MOL0     H54649   8.075   5.537   2.852 -1.1615 -0.5702  0.3809
  405MOL0     H54650   8.164   5.503   2.989 -0.0147 -0.2142 -0.4412
  405MOL0     H54651   8.174   5.288   2.771  1.0911 -0.1131 -0.0295
  405MOL0     H54652   8.261   5.308   2.916  2.0009  0.7288 -0.5000
  405MOL0     H54653   8.372   5.398   2.683  0.6397  1.8583 -0.9497
  405MOL0     H54654   8.300   5.541   2.728  1.3202 -0.4969 -1.4862
  405MOL0     H54655   7.434   5.094   3.060  0.7637  0.7873 -1.4430
  405MOL0     H54656   7.197   5.027   3.060  2.9442 -1.2659  0.1231
  405MOL0     H54657   6.757   5.153   2.871 -2.6773  0.9853 -2.0986
  405MOL0     H54658   6.540   5.163   2.818 -0.4847  2.6270 -1.0041
  405MOL0     H54659   5.352   4.497   2.051  0.0430 -1.3646 -0.4085
  405MOL0     H54660   5.160   4.383   1.949 -1.9519  0.2794 -2.1673
  405MOL0     H54661   4.985   4.458   1.480  0.5926 -0.5996  0.9084
  405MOL0     H54662   4.832   4.362   1.309 -0.9591  1.4162 -1.0859
  405MOL0     H54663   4.668   4.051   1.464 -0.4283  0.7276 -0.4764
  405MOL0     H54664   4.706   4.067   1.294  0.4669  0.1338 -0.8324
  405MOL0     H54665   4.512   3.924   1.308  1.0376 -0.4469  1.6207
  405MOL0     H54666   4.486   4.079   1.226  2.6527 -4.8305 -3.5828
  405MOL0     H54667   4.360   4.166   1.405 -2.8576 -0.8277  0.5621
  405MOL0     H54668   4.428   4.038   1.516  0.6186 -1.7407  0.0272
  405MOL0     H54669   4.303   3.867   1.374 -0.7987 -0.8501 -0.7719
  405MOL0     H54670   4.182   3.976   1.433 -1.4210  0.9924 -1.7797
  405MOL0     H54671   4.142   4.064   1.030 -2.6290 -0.3198  0.6433
  405MOL0     H54672   4.586   4.198   1.617 -2.5043  3.2526  0.7470
  405MOL0     H54673   4.841   4.248   1.881 -0.0413  0.5240 -0.1619
  405MOL0     H54674   4.680   4.330   1.894 -0.2075 -0.1894  1.4617
  405MOL0     H54675   4.695   4.163   1.833 -1.6561  0.8440  1.0861
  406MOL0     O54676   9.960   6.043   9.598 -0.5791  0.1118  0.8910
  406MOL0     C54677   9.879   6.129   9.622 -0.2782 -0.5334  0.1956
  406MOL0     O54678   9.891   6.259   9.601  0.5697 -0.1013 -0.0397
  406MOL0     C54679  10.008   6.307   9.557 -0.2273  0.4987 -0.6706
  406MOL0     C54680  10.136   6.273   9.609 -0.4465 -0.6043  0.6034
  406MOL0     C54681  10.251   6.338   9.566  0.5476 -0.0364  0.8707
  406MOL0     C54682  10.253   6.422   9.459 -0.0055  0.3791  0.0207
  406MOL0     O54683  10.362   6.489   9.404  0.0852 -0.1562 -0.0760
  406MOL0     C54684  10.448   6.554   9.498 -0.1920  0.1890 -0.2927
  406MOL0     C54685  10.472   6.692   9.458 -0.9258 -0.4717  0.0027
  406MOL0     C54686  10.585   6.761   9.530  0.6235  0.9857  0.3127
  406MOL0     C54687  10.608   6.900   9.471 -0.2362  0.3547  0.7469
  406MOL0     C54688  10.710   6.972   9.549 -0.1402 -0.3933 -0.3748
  406MOL0     C54689  10.767   7.094   9.473 -0.3671 -0.0512  0.0952
  406MOL0     C54690  10.860   7.169   9.566  0.9786  0.1529  0.5851
  406MOL0     C54691  10.914   7.290   9.508  0.6434 -0.1342 -0.3221
  406MOL0     N54692  11.010   7.344   9.604 -0.3773  0.6764 -0.1483
  406MOL0     C54693  10.986   7.410   9.720  0.8019 -0.2928 -0.2539
  406MOL0     C54694  11.104   7.454   9.765  0.8558 -0.5417 -0.1068
  406MOL0     C54695  11.105   7.549   9.880 -1.0021  0.0102 -0.0610
  406MOL0     C54696  11.131   7.481  10.020  1.1867 -1.4053  0.5954
  406MOL0     C54697  11.270   7.423  10.048  0.3719 -0.0156  0.6605
  406MOL0     C54698  11.375   7.532  10.055  0.4006 -1.0035  1.4840
  406MOL0     O54699  11.516   7.487  10.040 -0.0905  0.4264 -0.4572
  406MOL0     C54700  11.611   7.587  10.038  0.3066  0.1506  0.3050
  406MOL0     C54701  11.582   7.722  10.033 -0.7061  0.3000 -0.3437
  406MOL0     C54702  11.679   7.822  10.034 -0.8842 -0.3926 -0.3981
  406MOL0     C54703  11.810   7.788  10.020 -0.4699  0.7868 -0.4997
  406MOL0     C54704  11.905   7.894  10.025 -0.7413 -0.3374  0.3393
  406MOL0     O54705  12.030   7.855   9.986 -0.1912 -0.8718  0.1829
  406MOL0     C54706  12.134   7.945   9.995 -0.3764 -0.3104  0.1427
  406MOL0     C54707  12.149   8.055  10.082 -0.7961  0.6425  0.2255
  406MOL0     C54708  12.251   8.149  10.062 -0.2659 -0.0235 -0.7003
  406MOL0     C54709  12.349   8.135   9.957  0.5963  0.1764 -0.3005
  406MOL0     O54710  12.453   8.218   9.941 -0.3109  0.0250 -0.1301
  406MOL0     C54711  12.510   8.296  10.040 -0.2823  0.9368 -0.9566
  406MOL0     C54712  12.619   8.388   9.985  0.1702  0.0860  0.2511
  406MOL0     C54713  12.746   8.303   9.949  0.1782 -0.2664 -1.1861
  406MOL0     C54714  12.857   8.406   9.907  0.1315 -0.5550  0.3048
  406MOL0     C54715  12.920   8.495  10.008 -0.9048 -0.7029 -0.4625
  406MOL0     C54716  13.024   8.591   9.938 -0.8884  0.3242  0.7989
  406MOL0     C54717  13.085   8.689  10.030 -0.6863  0.2265  0.2162
  406MOL0     C54718  13.199   8.635  10.108  0.2153  0.0677 -0.2927
  406MOL0    Cl54719  13.339   8.616  10.017 -0.3582 -0.4181 -0.2699
  406MOL0     C54720  12.330   8.029   9.871  0.8085  0.8620 -0.4042
  406MOL0     C54721  12.223   7.936   9.887 -0.0119  0.1599 -0.8359
  406MOL0     O54722  11.875   7.998  10.079  0.7215 -0.8250  0.0662
  406MOL0     C54723  11.843   7.654  10.039 -0.4381  0.0342 -0.2553
  406MOL0     C54724  11.743   7.555  10.037 -0.2080 -0.4892 -0.1913
  406MOL0     N54725  11.205   7.418   9.686  0.2461 -0.2522  0.2580
  406MOL0     N54726  11.142   7.348   9.589 -0.7937 -0.2236  0.7846
  406MOL0     C54727  10.132   6.459   9.411 -0.5042  0.1673  0.2279
  406MOL0     C54728  10.009   6.411   9.462 -0.5443  0.4030  0.0998
  406MOL0     C54729   9.766   6.090   9.714 -2.1149 -0.3122  0.3964
  406MOL0     C54730   9.659   6.177   9.715  0.1626  0.2110 -0.6234
  406MOL0     C54731   9.547   6.147   9.796 -0.4810  0.3262  0.4750
  406MOL0     C54732   9.547   6.036   9.878  0.5572 -1.1003  0.3560
  406MOL0     O54733   9.451   6.007   9.975 -0.3252  0.5283 -0.1464
  406MOL0     C54734   9.348   6.107   9.994 -0.3411  0.0875  0.2512
  406MOL0     C54735   9.243   6.066  10.096 -0.0561 -0.0298  0.3245
  406MOL0     C54736   9.163   6.184  10.157  0.3555 -0.0506 -1.1710
  406MOL0     C54737   9.080   6.145  10.272 -0.4075 -0.7424 -0.0848
  406MOL0     C54738   9.162   6.101  10.384  0.6437  0.0838  0.0372
  406MOL0     C54739   9.247   6.052  10.454 -0.0371 -0.4244  0.1855
  406MOL0     C54740   9.659   5.953   9.885 -0.0445  0.1307 -0.0213
  406MOL0     C54741   9.763   5.982   9.801 -0.0131 -0.7835 -0.3038
  406MOL0     C54742   9.889   5.901   9.841 -0.2072  0.3427  0.5354
  406MOL0     H54743  10.152   6.197   9.685  2.5009 -0.9206 -0.2038
  406MOL0     H54744  10.345   6.297   9.601  1.8401  3.0569  1.3555
  406MOL0     H54745  10.419   6.543   9.602  0.8172 -1.8303 -0.1664
  406MOL0     H54746  10.540   6.495   9.493 -1.1709 -1.5345  1.1022
  406MOL0     H54747  10.385   6.751   9.488  1.2626  1.6531  2.6183
  406MOL0     H54748  10.486   6.696   9.349 -3.3282 -0.3168 -0.3623
  406MOL0     H54749  10.674   6.698   9.523  1.2607  1.6743  1.8444
  406MOL0     H54750  10.575   6.761   9.639  2.0843  1.9406  0.4643
  406MOL0     H54751  10.646   6.883   9.370  2.4706 -2.9729  2.1624
  406MOL0     H54752  10.513   6.954   9.467 -0.3507  0.1328  0.3148
  406MOL0     H54753  10.681   6.997   9.652  0.9627  0.2794 -0.2021
  406MOL0     H54754  10.801   6.914   9.571  1.1943  2.2904  1.9142
  406MOL0     H54755  10.815   7.064   9.379 -1.3343  1.5211 -0.9682
  406MOL0     H54756  10.689   7.161   9.435  1.0834  0.3008 -2.4986
  406MOL0     H54757  10.940   7.101   9.596  0.4835 -1.2959 -1.1627
  406MOL0     H54758  10.797   7.194   9.651 -0.2887  0.8846 -0.5281
  406MOL0     H54759  10.964   7.269   9.413  2.9952  1.8676  0.3418
  406MOL0     H54760  10.831   7.359   9.487 -0.4205 -1.3987 -0.3794
  406MOL0     H54761  10.891   7.444   9.762  2.1253  1.4701  1.4532
  406MOL0     H54762  11.178   7.627   9.856 -0.8295 -1.1997 -4.1071
  406MOL0     H54763  11.013   7.608   9.872  0.3182  2.3765  0.9639
  406MOL0     H54764  11.102   7.553  10.097  2.7793  0.3720 -0.3983
  406MOL0     H54765  11.056   7.402  10.033  0.1560 -0.6018 -0.3237
  406MOL0     H54766  11.304   7.368   9.960 -1.0623 -2.0896  1.3361
  406MOL0     H54767  11.278   7.353  10.131 -3.4982 -1.4377  0.0273
  406MOL0     H54768  11.375   7.588  10.149 -1.1920  0.6129  0.5748
  406MOL0     H54769  11.346   7.600   9.974 -1.5291 -1.1601  1.9823
  406MOL0     H54770  11.480   7.759  10.037 -0.9483 -0.4590  1.2324
  406MOL0     H54771  11.650   7.925  10.053  2.2435  0.5272  0.0058
  406MOL0     H54772  12.078   8.072  10.162  0.7709  1.7187  1.4568
  406MOL0     H54773  12.261   8.229  10.134 -2.7288 -1.3236  1.2556
  406MOL0     H54774  12.428   8.360  10.075  1.9223  3.5365 -0.1725
  406MOL0     H54775  12.537   8.232  10.124 -4.3139  1.0461  0.6471
  406MOL0     H54776  12.577   8.441   9.898  1.0815  1.3358  0.5432
  406MOL0     H54777  12.636   8.457  10.069  4.5257 -1.7816  1.1275
  406MOL0     H54778  12.783   8.249  10.036 -0.0506  1.9123  0.3551
  406MOL0     H54779  12.732   8.242   9.859 -0.4434 -0.2724 -1.0925
  406MOL0     H54780  12.812   8.476   9.836  0.1719 -0.0127  0.8054
  406MOL0     H54781  12.935   8.350   9.855  0.4077  1.4865 -1.6075
  406MOL0     H54782  12.980   8.442  10.083 -0.9228 -0.7702 -0.4960
  406MOL0     H54783  12.843   8.547  10.065  1.7457  0.5654  2.2116
  406MOL0     H54784  13.093   8.521   9.890 -0.5288  0.7903  0.6293
  406MOL0     H54785  12.968   8.651   9.865 -1.6926 -0.9508  0.3340
  406MOL0     H54786  13.012   8.723  10.104 -1.5211  1.0405 -0.9473
  406MOL0     H54787  13.104   8.779   9.970 -0.6719 -0.2341 -0.4875
  406MOL0     H54788  13.217   8.710  10.186  0.3645 -1.1004  0.8420
  406MOL0     H54789  13.170   8.541  10.156 -0.7085 -0.6688 -2.1970
  406MOL0     H54790  12.390   8.003   9.784  0.9855 -0.2987  0.0394
  406MOL0     H54791  12.191   7.854   9.823 -4.2999 -0.9082  2.2715
  406MOL0     H54792  11.946   7.623  10.038 -0.5188 -0.3128  0.7232
  406MOL0     H54793  11.772   7.451  10.046 -1.0331 -0.5723  2.3533
  406MOL0     H54794  10.126   6.521   9.322  0.2151  0.3948  0.3387
  406MOL0     H54795   9.915   6.444   9.419 -1.1262 -2.5563 -1.1108
  406MOL0     H54796   9.651   6.250   9.636 -0.7857  0.9716  0.1599
  406MOL0     H54797   9.467   6.220   9.797 -2.0596 -1.3283  0.2603
  406MOL0     H54798   9.297   6.138   9.902  2.7006  2.5489 -0.7621
  406MOL0     H54799   9.392   6.198  10.035 -2.7839  1.0330  0.9597
  406MOL0     H54800   9.289   6.002  10.173 -0.4661  0.1080  0.6920
  406MOL0     H54801   9.170   6.000  10.048  0.6800 -2.8208  2.6771
  406MOL0     H54802   9.090   6.228  10.090 -0.2110  0.1162 -0.4616
  406MOL0     H54803   9.237   6.258  10.191 -0.8947  0.1755  1.3629
  406MOL0     H54804   9.021   6.235  10.292 -1.1184 -0.9889 -0.9934
  406MOL0     H54805   9.010   6.068  10.239 -0.5098  0.1430 -2.0405
  406MOL0     H54806   9.328   6.000  10.501  2.2213 -0.6245 -3.5758
  406MOL0     H54807   9.652   5.864   9.946 -3.8944  0.9411  0.9431
  406MOL0     H54808   9.976   5.964   9.859  3.2508 -3.2924 -1.8177
  406MOL0     H54809   9.872   5.830   9.922 -0.4946  0.6792  0.7712
  406MOL0     H54810   9.931   5.845   9.757  2.0821  2.0007  0.4718
  407MOL0     O54811   2.320   3.368   7.884  0.7461  0.0625 -0.3485
  407MOL0     C54812   2.241   3.445   7.836 -0.1322 -1.3117  0.2531
  407MOL0     O54813   2.276   3.540   7.733 -0.5892  0.3358  0.0514
  407MOL0     C54814   2.403   3.538   7.667  0.3881  0.1319  0.1307
  407MOL0     C54815   2.524   3.531   7.733  0.3928 -0.5660 -0.3084
  407MOL0     C54816   2.648   3.542   7.666  0.2602  0.5187 -0.0949
  407MOL0     C54817   2.641   3.546   7.528 -0.5527 -0.7135 -1.1319
  407MOL0     O54818   2.758   3.578   7.457 -0.2599  0.0984  0.4445
  407MOL0     C54819   2.870   3.496   7.480 -0.0283 -0.3201  0.1545
  407MOL0     C54820   2.970   3.523   7.371 -0.0262  0.2784  1.2016
  407MOL0     C54821   3.100   3.445   7.380 -0.4134  1.0867 -0.6183
  407MOL0     C54822   3.086   3.292   7.354 -0.6171  0.2761  0.8929
  407MOL0     C54823   3.201   3.212   7.408  1.0742  0.2108  0.1582
  407MOL0     C54824   3.324   3.222   7.321  0.1185  0.9619 -0.2683
  407MOL0     C54825   3.412   3.100   7.323  0.4178  0.7396 -0.6757
  407MOL0     C54826   3.546   3.129   7.256 -1.0516  0.3395  0.0981
  407MOL0     N54827   3.655   3.050   7.319  0.0921 -1.2925 -0.4437
  407MOL0     C54828   3.744   2.957   7.262 -0.3008 -0.0946 -0.1326
  407MOL0     C54829   3.823   2.936   7.369 -0.0344 -0.4167 -0.8321
  407MOL0     C54830   3.945   2.836   7.369  0.2082  0.5702  0.3466
  407MOL0     C54831   4.077   2.894   7.424 -0.1964  0.5521 -0.1253
  407MOL0     C54832   4.113   3.026   7.350  0.7815  0.4880  0.6707
  407MOL0     C54833   4.254   3.069   7.379  0.1987 -0.1354 -0.5974
  407MOL0     O54834   4.341   2.987   7.303 -0.3886  0.1811 -0.1385
  407MOL0     C54835   4.471   3.034   7.296  0.1226 -0.3285  0.3665
  407MOL0     C54836   4.545   2.990   7.180 -0.3339 -0.5305 -0.1800
  407MOL0     C54837   4.680   3.029   7.166 -0.4207 -0.8601 -0.2255
  407MOL0     C54838   4.743   3.112   7.261 -0.4642  0.7167  0.2811
  407MOL0     C54839   4.893   3.139   7.235  0.2683  0.3348  0.8307
  407MOL0     O54840   4.953   3.217   7.332 -1.0645 -0.0815 -0.1630
  407MOL0     C54841   5.086   3.243   7.304  0.1042 -0.2919  1.0397
  407MOL0     C54842   5.184   3.185   7.378  0.4915 -0.0998 -0.4371
  407MOL0     C54843   5.319   3.227   7.363  0.4599 -0.1937 -0.6880
  407MOL0     C54844   5.351   3.340   7.285 -0.2562 -0.9381  0.0602
  407MOL0     O54845   5.469   3.405   7.273  0.6521 -0.6203 -0.1166
  407MOL0     C54846   5.565   3.363   7.363 -0.2348 -0.3216 -0.1665
  407MOL0     C54847   5.696   3.438   7.329  0.2517 -0.0223 -0.6169
  407MOL0     C54848   5.730   3.437   7.184 -0.6118 -0.5638 -0.1923
  407MOL0     C54849   5.839   3.540   7.150 -0.0825 -0.3458 -0.7045
  407MOL0     C54850   5.865   3.536   6.997  0.3592  0.1042  0.0761
  407MOL0     C54851   5.954   3.647   6.946 -0.0375  0.2697  0.3801
  407MOL0     C54852   5.953   3.657   6.793  1.1230 -0.5573 -0.5980
  407MOL0     C54853   6.041   3.774   6.735  0.0268  1.1808 -1.0126
  407MOL0    Cl54854   6.220   3.773   6.766 -0.1387 -0.0875  0.5401
  407MOL0     C54855   5.250   3.400   7.215  0.0699  0.9457 -0.6076
  407MOL0     C54856   5.118   3.353   7.227  0.5110 -0.0094  0.2906
  407MOL0     O54857   4.949   3.079   7.152  0.3795  0.1626 -0.1156
  407MOL0     C54858   4.667   3.162   7.369  0.2319 -0.8519 -0.6776
  407MOL0     C54859   4.537   3.122   7.389  0.3015  0.1279  0.3482
  407MOL0     N54860   3.790   3.003   7.481  0.3799  0.4577 -0.0238
  407MOL0     N54861   3.694   3.079   7.445  0.2511  0.2144  0.0540
  407MOL0     C54862   2.519   3.535   7.459 -0.0560 -1.0344  0.4249
  407MOL0     C54863   2.397   3.538   7.524  0.0763  0.0285  0.5846
  407MOL0     C54864   2.099   3.428   7.885 -0.4911 -0.0669 -0.1352
  407MOL0     C54865   2.082   3.359   8.004 -0.2658 -0.3594  0.7670
  407MOL0     C54866   1.955   3.323   8.047  0.3517 -0.9124 -0.0499
  407MOL0     C54867   1.840   3.356   7.982  0.2420  0.3866  0.0315
  407MOL0     O54868   1.720   3.316   8.040 -0.9139 -0.8036  0.0579
  407MOL0     C54869   1.606   3.366   7.980  0.2334  0.0846  0.7532
  407MOL0     C54870   1.567   3.508   8.003 -0.6607  0.1802 -0.1210
  407MOL0     C54871   1.450   3.538   7.901 -0.0588  1.0743  0.2136
  407MOL0     C54872   1.503   3.540   7.756 -0.5548  0.5217  0.0047
  407MOL0     C54873   1.580   3.655   7.732 -0.9289 -0.9757  0.0840
  407MOL0     C54874   1.648   3.757   7.701  0.6242 -0.4909 -0.0425
  407MOL0     C54875   1.858   3.426   7.865  0.7823  0.0858 -0.2743
  407MOL0     C54876   1.982   3.468   7.816 -0.0013 -0.8616  1.2156
  407MOL0     C54877   1.987   3.544   7.684 -0.2306  0.3031 -0.2519
  407MOL0     H54878   2.506   3.520   7.839 -2.2969  0.6822 -0.5563
  407MOL0     H54879   2.740   3.568   7.717 -0.1203  1.6360  0.0455
  407MOL0     H54880   2.927   3.524   7.569  0.2214  0.7895 -0.3427
  407MOL0     H54881   2.842   3.390   7.478 -0.8429 -0.1127  0.2378
  407MOL0     H54882   2.992   3.629   7.384 -0.5680  0.4402  0.8499
  407MOL0     H54883   2.914   3.519   7.277 -2.0100 -0.4984  2.3649
  407MOL0     H54884   3.139   3.470   7.479  1.3077  4.8531 -2.0409
  407MOL0     H54885   3.183   3.479   7.316  2.0488 -1.5935  0.9319
  407MOL0     H54886   2.988   3.252   7.383 -1.2615  1.4185  0.3657
  407MOL0     H54887   3.085   3.279   7.245  0.5133 -4.1477  1.1979
  407MOL0     H54888   3.228   3.246   7.508  2.0635  0.3581 -0.1561
  407MOL0     H54889   3.176   3.105   7.415  0.8300  0.3821  3.1903
  407MOL0     H54890   3.289   3.242   7.219 -2.1071  2.1976  0.6662
  407MOL0     H54891   3.374   3.316   7.350 -0.1341  1.5234 -1.5752
  407MOL0     H54892   3.359   3.018   7.274 -0.9475  1.6917 -0.8382
  407MOL0     H54893   3.423   3.063   7.425 -1.0864  0.1646 -0.6912
  407MOL0     H54894   3.545   3.114   7.148 -1.2016 -0.8840  0.2528
  407MOL0     H54895   3.565   3.234   7.280  1.6969 -0.3433  1.2317
  407MOL0     H54896   3.732   2.907   7.167 -2.1412  1.3281 -0.7159
  407MOL0     H54897   3.916   2.750   7.430 -0.8858 -0.9233 -2.1424
  407MOL0     H54898   3.967   2.793   7.271 -2.0465  0.0460  0.0097
  407MOL0     H54899   4.061   2.919   7.529 -0.7852  0.4505 -0.1887
  407MOL0     H54900   4.157   2.822   7.405 -1.7952 -0.7649 -2.3533
  407MOL0     H54901   4.044   3.107   7.375  1.9050  1.2916  1.2183
  407MOL0     H54902   4.102   3.014   7.242 -1.4035  0.1043  0.8856
  407MOL0     H54903   4.273   3.076   7.487  2.3656 -1.1564 -0.8578
  407MOL0     H54904   4.279   3.171   7.348  2.8082 -0.6152 -0.3443
  407MOL0     H54905   4.497   2.926   7.107 -0.6635 -1.3842  0.7636
  407MOL0     H54906   4.733   2.998   7.077 -0.0461  1.6478 -0.9679
  407MOL0     H54907   5.166   3.098   7.441  1.0557 -0.4415 -0.7470
  407MOL0     H54908   5.389   3.170   7.423  0.4842 -2.0598 -2.3789
  407MOL0     H54909   5.539   3.386   7.467  1.3098 -0.8468  0.3616
  407MOL0     H54910   5.587   3.257   7.350  0.2450 -0.0704 -1.5241
  407MOL0     H54911   5.683   3.542   7.357 -1.4684 -0.4870  0.4819
  407MOL0     H54912   5.777   3.391   7.387 -0.5868 -1.5126 -0.6051
  407MOL0     H54913   5.762   3.335   7.159  0.7417 -0.6487  1.6555
  407MOL0     H54914   5.644   3.461   7.121 -0.6086 -1.5233 -0.5845
  407MOL0     H54915   5.932   3.521   7.204  0.5760 -1.3996 -2.1277
  407MOL0     H54916   5.806   3.638   7.185  1.1657  0.6610 -2.1855
  407MOL0     H54917   5.770   3.544   6.944  0.7199 -0.2624 -0.6463
  407MOL0     H54918   5.922   3.447   6.968  1.7750  1.4591 -1.5467
  407MOL0     H54919   5.910   3.741   6.981 -0.1694  0.2888  0.1655
  407MOL0     H54920   6.049   3.639   7.000 -1.5002 -0.8239  2.9380
  407MOL0     H54921   5.851   3.665   6.754 -0.2280 -1.6342  2.4272
  407MOL0     H54922   5.986   3.557   6.761 -1.0705 -3.4662  4.8103
  407MOL0     H54923   6.020   3.790   6.629 -0.4092  0.4475 -1.0413
  407MOL0     H54924   6.009   3.865   6.787 -1.4102 -1.0283  2.2644
  407MOL0     H54925   5.264   3.479   7.142 -0.4548  0.0717 -1.6887
  407MOL0     H54926   5.030   3.398   7.182 -0.3272 -0.4921  1.4098
  407MOL0     H54927   4.714   3.244   7.423 -0.2083 -2.4139  2.2741
  407MOL0     H54928   4.479   3.162   7.471  2.8486  0.4729  2.0981
  407MOL0     H54929   2.508   3.533   7.351  0.6599 -2.3729  0.3565
  407MOL0     H54930   2.310   3.533   7.460  1.2884  2.5196 -1.4618
  407MOL0     H54931   2.164   3.325   8.067 -0.7416 -0.2303  1.4595
  407MOL0     H54932   1.948   3.261   8.136 -0.4879 -2.4361 -1.1227
  407MOL0     H54933   1.519   3.309   8.014 -2.0441  4.3073  2.7749
  407MOL0     H54934   1.609   3.339   7.874 -1.2732 -1.1195  0.9753
  407MOL0     H54935   1.651   3.569   7.969 -0.0141 -1.4002 -1.5892
  407MOL0     H54936   1.541   3.530   8.106 -0.9506  1.5383 -0.4709
  407MOL0     H54937   1.397   3.631   7.925 -3.5952 -1.1540  1.8816
  407MOL0     H54938   1.366   3.469   7.900  1.1315 -0.4454 -0.8881
  407MOL0     H54939   1.561   3.458   7.712 -0.0062  1.1268 -0.4139
  407MOL0     H54940   1.414   3.554   7.694  0.2228  0.0049 -1.2678
  407MOL0     H54941   1.692   3.851   7.672  0.8816 -0.0358  1.7013
  407MOL0     H54942   1.780   3.456   7.796  0.9611  2.5817  0.5071
  407MOL0     H54943   2.038   3.490   7.604 -0.1675 -1.0540  0.6708
  407MOL0     H54944   1.883   3.569   7.657 -1.0416 -1.3249  1.2142
  407MOL0     H54945   2.027   3.642   7.713 -0.4809  0.1537  0.6142
  408MOL0     O54946   6.098   1.280  11.009 -0.3090  0.7144 -0.2223
  408MOL0     C54947   6.073   1.344  11.117  0.2186 -0.5141  0.8753
  408MOL0     O54948   6.155   1.371  11.227 -0.3971 -0.1151  0.8627
  408MOL0     C54949   6.284   1.321  11.222 -0.2567 -0.3491 -0.7598
  408MOL0     C54950   6.372   1.334  11.110 -0.4279  0.0187 -0.8395
  408MOL0     C54951   6.501   1.281  11.116  0.5819 -1.2456  0.3643
  408MOL0     C54952   6.544   1.228  11.238 -0.2809 -0.2271 -0.2012
  408MOL0     O54953   6.673   1.176  11.266 -1.0150 -0.6123  0.2734
  408MOL0     C54954   6.779   1.220  11.177  0.3469 -0.6109  0.5853
  408MOL0     C54955   6.918   1.150  11.206 -0.5764 -0.3261 -0.1350
  408MOL0     C54956   6.996   1.200  11.334  0.1522 -0.5841  0.0339
  408MOL0     C54957   7.058   1.343  11.331  0.4527  0.6165  1.6988
  408MOL0     C54958   7.131   1.387  11.455 -0.1493  0.8754  0.3334
  408MOL0     C54959   7.159   1.541  11.468 -0.0930  0.3455 -0.2608
  408MOL0     C54960   7.229   1.597  11.346 -0.7172 -0.4127 -0.0951
  408MOL0     C54961   7.306   1.727  11.383 -0.3685  0.1305 -0.4060
  408MOL0     N54962   7.447   1.695  11.433  0.2178  0.5319  0.5617
  408MOL0     C54963   7.536   1.632  11.350  0.5311 -0.1543 -0.0315
  408MOL0     C54964   7.648   1.616  11.424 -0.2201 -0.1176  0.2388
  408MOL0     C54965   7.762   1.544  11.362 -0.4710 -0.4612  0.3533
  408MOL0     C54966   7.889   1.573  11.418 -0.5094  1.0109  0.1403
  408MOL0     C54967   8.000   1.502  11.353 -0.6293 -0.1335  0.3083
  408MOL0     C54968   8.139   1.517  11.431  0.3847 -0.3658 -0.2612
  408MOL0     O54969   8.230   1.436  11.354  0.1054  0.1984  0.3585
  408MOL0     C54970   8.356   1.484  11.345  0.3437 -0.5511 -0.9154
  408MOL0     C54971   8.431   1.526  11.461 -0.0964 -0.3255 -0.1008
  408MOL0     C54972   8.559   1.566  11.447  0.8095 -0.4392  0.3195
  408MOL0     C54973   8.627   1.535  11.331  0.4511 -0.0663  0.6848
  408MOL0     C54974   8.774   1.554  11.326 -0.4652 -0.1226  1.1931
  408MOL0     O54975   8.843   1.553  11.202  0.4235  0.3750 -0.9936
  408MOL0     C54976   8.977   1.584  11.201  0.1161  0.9881  1.0236
  408MOL0     C54977   9.066   1.478  11.175  0.9390  0.3539  0.1420
  408MOL0     C54978   9.198   1.499  11.156  0.0381  0.6495 -0.0376
  408MOL0     C54979   9.252   1.623  11.169 -0.4271  0.0528 -0.3352
  408MOL0     O54980   9.381   1.658  11.147  0.2421 -0.1243  0.2503
  408MOL0     C54981   9.465   1.549  11.125 -0.4185 -0.2520 -0.4203
  408MOL0     C54982   9.605   1.608  11.143 -1.4634 -0.2377 -0.7809
  408MOL0     C54983   9.704   1.526  11.064  0.6310 -0.1028 -0.8566
  408MOL0     C54984   9.855   1.547  11.109  0.0747 -0.2548  0.2218
  408MOL0     C54985   9.884   1.693  11.143 -0.1141  0.2832 -0.2832
  408MOL0     C54986  10.034   1.705  11.178  0.1451 -0.2607  0.2669
  408MOL0     C54987  10.080   1.851  11.197 -0.7035 -0.1714  0.4741
  408MOL0     C54988  10.237   1.846  11.185  0.5199  0.0076  0.5204
  408MOL0    Cl54989  10.304   1.787  11.341 -0.0100 -0.0786  0.1374
  408MOL0     C54990   9.173   1.728  11.203 -0.8700 -0.3481 -0.1641
  408MOL0     C54991   9.037   1.708  11.212  0.8886  0.1531  0.9112
  408MOL0     O54992   8.832   1.561  11.436  0.8787  0.7913 -0.3475
  408MOL0     C54993   8.558   1.492  11.215  0.5131  0.1881 -0.3122
  408MOL0     C54994   8.421   1.474  11.217  0.5940  0.2299 -0.3941
  408MOL0     N54995   7.613   1.655  11.551 -0.4501 -0.0235 -0.8858
  408MOL0     N54996   7.496   1.708  11.558  0.2150 -0.3551 -0.1256
  408MOL0     C54997   6.460   1.224  11.348 -0.1097  0.0802 -0.4084
  408MOL0     C54998   6.329   1.272  11.339 -0.7925  0.1869 -0.5377
  408MOL0     C54999   5.937   1.403  11.119 -0.2085 -0.5311 -0.1317
  408MOL0     C55000   5.833   1.324  11.065 -0.4164  0.5305 -0.8586
  408MOL0     C55001   5.700   1.370  11.083  0.2236  0.8462  0.6712
  408MOL0     C55002   5.670   1.498  11.141 -0.0635 -0.0692  0.3334
  408MOL0     O55003   5.551   1.566  11.152  0.4450  0.1140 -0.4293
  408MOL0     C55004   5.419   1.507  11.112  0.2803 -0.7528  0.4457
  408MOL0     C55005   5.307   1.616  11.120 -0.4184 -0.3420  0.6100
  408MOL0     C55006   5.162   1.566  11.073  0.5506 -0.1131 -0.2940
  408MOL0     C55007   5.056   1.672  11.050  0.1757  0.0294 -1.0839
  408MOL0     C55008   5.030   1.758  11.166 -0.4419 -0.2907 -0.0841
  408MOL0     C55009   5.010   1.849  11.247  0.3974  0.2487 -0.0024
  408MOL0     C55010   5.780   1.576  11.179 -0.2371 -0.0407 -0.3263
  408MOL0     C55011   5.904   1.531  11.175 -0.2526 -0.0422 -0.4770
  408MOL0     C55012   6.018   1.626  11.230 -0.8572  0.0367  0.5933
  408MOL0     H55013   6.331   1.381  11.020 -0.9875  0.8123 -0.1860
  408MOL0     H55014   6.570   1.290  11.033  0.8393 -3.1062  0.3360
  408MOL0     H55015   6.768   1.190  11.072  0.7566 -0.6255  0.5442
  408MOL0     H55016   6.804   1.326  11.183 -0.6145 -0.4540  2.5349
  408MOL0     H55017   6.990   1.154  11.123 -0.4464 -1.3785 -0.0872
  408MOL0     H55018   6.888   1.045  11.209  0.5380 -0.6351  2.0756
  408MOL0     H55019   7.071   1.121  11.345  0.4568 -0.0847  1.8685
  408MOL0     H55020   6.923   1.197  11.415 -0.8298 -2.2173 -0.8439
  408MOL0     H55021   7.129   1.346  11.247 -0.3839 -0.3489  0.9313
  408MOL0     H55022   6.976   1.411  11.305  2.9817  2.8021 -1.3679
  408MOL0     H55023   7.080   1.350  11.545  0.1365 -0.1716  0.0864
  408MOL0     H55024   7.230   1.342  11.442  0.0351  1.9188 -2.5012
  408MOL0     H55025   7.068   1.599  11.483 -1.0010 -1.4099  1.4592
  408MOL0     H55026   7.228   1.558  11.550 -1.8366 -0.2101  1.3863
  408MOL0     H55027   7.160   1.627  11.267 -0.1400  1.2957 -0.0063
  408MOL0     H55028   7.297   1.524  11.301 -1.3758  0.8287 -3.3837
  408MOL0     H55029   7.335   1.791  11.299 -0.2336 -1.0294 -1.2602
  408MOL0     H55030   7.251   1.792  11.452 -1.1503 -1.4071  0.4774
  408MOL0     H55031   7.526   1.625  11.242  1.6712  1.3873 -0.2769
  408MOL0     H55032   7.739   1.438  11.378 -0.1028 -0.3876  1.3927
  408MOL0     H55033   7.751   1.568  11.255  0.4064 -0.6464  0.2124
  408MOL0     H55034   7.908   1.679  11.406 -1.8240  1.0883 -1.7650
  408MOL0     H55035   7.875   1.548  11.523  0.0008  1.8391  0.4142
  408MOL0     H55036   8.007   1.541  11.251 -0.0915  0.2493  0.4858
  408MOL0     H55037   7.980   1.396  11.338  0.6401  0.0039 -3.2583
  408MOL0     H55038   8.130   1.472  11.531 -1.2536 -1.2269 -0.7505
  408MOL0     H55039   8.171   1.620  11.447  1.5404 -0.2474 -2.9142
  408MOL0     H55040   8.385   1.537  11.559 -0.1316 -1.6819  0.0511
  408MOL0     H55041   8.604   1.609  11.536  0.5494  2.0185 -0.6832
  408MOL0     H55042   9.025   1.379  11.165 -3.2003  1.6816  1.8835
  408MOL0     H55043   9.251   1.409  11.126  0.5494  1.0349 -0.2903
  408MOL0     H55044   9.439   1.480  11.205 -1.8114  1.7927  0.9791
  408MOL0     H55045   9.452   1.500  11.028 -2.9230 -2.2604  0.8190
  408MOL0     H55046   9.614   1.707  11.097  1.2201  0.0006  0.0331
  408MOL0     H55047   9.619   1.608  11.252  0.3064  0.6196 -0.9756
  408MOL0     H55048   9.692   1.418  11.079 -0.3020  0.2975  1.7045
  408MOL0     H55049   9.693   1.555  10.959 -0.6590 -0.6363 -0.8886
  408MOL0     H55050   9.916   1.514  11.025  2.8312  0.5893  1.7694
  408MOL0     H55051   9.878   1.486  11.196  1.7293  0.5898  0.4325
  408MOL0     H55052   9.820   1.722  11.226 -1.4641  1.6298 -1.7353
  408MOL0     H55053   9.863   1.762  11.060  0.1331  1.4599  0.6100
  408MOL0     H55054  10.056   1.643  11.265 -1.6580 -0.3359  0.7145
  408MOL0     H55055  10.089   1.665  11.093  0.2086  1.1157 -0.3618
  408MOL0     H55056  10.042   1.900  11.287  0.4149  0.5179  0.5894
  408MOL0     H55057  10.042   1.915  11.116 -4.0536 -1.4423  0.8705
  408MOL0     H55058  10.272   1.790  11.098 -2.9413  2.8308 -3.1043
  408MOL0     H55059  10.276   1.947  11.167 -0.7666  0.5326  0.5480
  408MOL0     H55060   9.223   1.823  11.211 -0.3534 -0.5158 -1.3201
  408MOL0     H55061   8.966   1.787  11.234  0.5438  1.7628 -4.5498
  408MOL0     H55062   8.609   1.461  11.124 -1.8325 -0.4945 -1.4680
  408MOL0     H55063   8.361   1.431  11.138  0.1378 -2.8682  1.4216
  408MOL0     H55064   6.491   1.184  11.444 -0.2336 -1.8287 -1.1094
  408MOL0     H55065   6.258   1.267  11.421 -1.6092 -2.4990 -1.3126
  408MOL0     H55066   5.853   1.225  11.025 -0.3664  0.7749 -1.4485
  408MOL0     H55067   5.620   1.314  11.036  1.6378 -2.8977  2.3699
  408MOL0     H55068   5.399   1.426  11.183 -0.4592 -0.1297  0.9722
  408MOL0     H55069   5.424   1.471  11.009  0.9434  0.7092 -0.0609
  408MOL0     H55070   5.324   1.700  11.052 -2.4358 -1.3811 -1.3258
  408MOL0     H55071   5.301   1.662  11.218  0.5040  0.9630  0.0783
  408MOL0     H55072   5.113   1.499  11.145 -0.4921  1.6590  0.7164
  408MOL0     H55073   5.190   1.518  10.979 -0.5106  1.4968 -1.4818
  408MOL0     H55074   5.078   1.731  10.960 -1.6922  1.1112 -0.8678
  408MOL0     H55075   4.962   1.624  11.021 -0.9278  1.4092  0.0964
  408MOL0     H55076   4.982   1.913  11.328 -1.9600  0.9325 -1.2629
  408MOL0     H55077   5.766   1.676  11.218 -2.8316  0.4210 -2.2062
  408MOL0     H55078   6.115   1.615  11.181 -1.5969 -5.3249 -0.3187
  408MOL0     H55079   6.000   1.733  11.217 -0.0095  0.2172  0.8784
  408MOL0     H55080   6.045   1.599  11.332  1.9563 -0.1235 -0.1089
  409MOL0     O55081   2.863   2.847   2.770 -0.5700  0.4737  0.9749
  409MOL0     C55082   2.856   2.763   2.680  0.1882 -0.0542  0.0973
  409MOL0     O55083   2.734   2.718   2.630  0.8635 -0.0635 -0.1193
  409MOL0     C55084   2.629   2.812   2.625 -0.3553 -0.4367  0.3114
  409MOL0     C55085   2.658   2.949   2.592  0.8004 -0.2908  1.0683
  409MOL0     C55086   2.554   3.041   2.573 -0.1794 -0.4558  0.2371
  409MOL0     C55087   2.424   3.002   2.596 -0.4109 -0.7612 -0.9938
  409MOL0     O55088   2.333   3.088   2.556 -0.0753  0.2513  0.3342
  409MOL0     C55089   2.192   3.064   2.569 -0.2384 -0.3206 -0.1514
  409MOL0     C55090   2.116   3.188   2.515 -0.2201 -0.3270  0.6723
  409MOL0     C55091   1.971   3.143   2.477  0.2195 -0.0897 -0.3977
  409MOL0     C55092   1.884   3.272   2.439 -0.0569 -0.3053 -0.0266
  409MOL0     C55093   1.746   3.248   2.390  0.7076  0.1079  0.3986
  409MOL0     C55094   1.667   3.175   2.499  0.1801 -0.0255 -0.0882
  409MOL0     C55095   1.518   3.147   2.461  0.5700  0.5953 -0.0812
  409MOL0     C55096   1.443   3.288   2.452 -0.2164  0.7612 -0.1721
  409MOL0     N55097   1.305   3.278   2.399  0.1623  0.3783 -0.9681
  409MOL0     C55098   1.260   3.309   2.281  0.3968 -0.9437  0.4279
  409MOL0     C55099   1.127   3.274   2.284  0.4441  0.4633 -1.5125
  409MOL0     C55100   1.024   3.310   2.173 -0.1667 -0.5350 -0.7286
  409MOL0     C55101   1.001   3.464   2.174 -0.8631 -0.2622  0.8151
  409MOL0     C55102   0.912   3.493   2.290  0.2672 -0.3225  0.1495
  409MOL0     C55103   0.891   3.643   2.311 -0.1532  0.7076 -0.0091
  409MOL0     O55104   0.997   3.742   2.297 -0.0591 -0.3651  0.5953
  409MOL0     C55105   1.124   3.728   2.335 -0.2655 -0.6807 -0.1592
  409MOL0     C55106   1.163   3.639   2.433 -0.0785 -0.0706 -1.1430
  409MOL0     C55107   1.288   3.633   2.483 -0.2805  0.6248 -0.4864
  409MOL0     C55108   1.389   3.704   2.417 -0.3873 -0.0491 -0.2379
  409MOL0     C55109   1.526   3.689   2.463 -0.3135 -0.1455  0.3973
  409MOL0     O55110   1.613   3.795   2.445  0.2454 -0.0597  0.4116
  409MOL0     C55111   1.746   3.792   2.462 -0.2127  0.0444  0.5109
  409MOL0     C55112   1.831   3.706   2.395 -0.3746  0.6105 -0.6967
  409MOL0     C55113   1.964   3.699   2.425 -0.4659 -0.0277 -0.3574
  409MOL0     C55114   2.018   3.789   2.526  0.1156  0.6158  0.3912
  409MOL0     O55115   2.151   3.785   2.548 -0.3984 -0.2977 -0.1799
  409MOL0     C55116   2.194   3.695   2.657 -0.2765  0.3783  0.7855
  409MOL0     C55117   2.229   3.552   2.599  1.0105 -0.4173  0.7212
  409MOL0     C55118   2.352   3.568   2.514 -0.4094  0.2966 -0.1474
  409MOL0     C55119   2.372   3.456   2.411  0.3769  0.3189 -0.5910
  409MOL0     C55120   2.511   3.465   2.366 -0.3680  0.7601  0.0765
  409MOL0     C55121   2.532   3.354   2.254 -0.0883  0.8259  0.5590
  409MOL0     C55122   2.676   3.337   2.205  0.9245  0.5432 -0.7404
  409MOL0     C55123   2.771   3.311   2.320  0.6008 -0.2146 -0.1138
  409MOL0    Cl55124   2.926   3.300   2.238 -0.1230 -0.0664  0.7493
  409MOL0     C55125   1.933   3.873   2.597  0.0975 -0.4825  0.5846
  409MOL0     C55126   1.800   3.882   2.556  0.3550 -1.1251 -0.6307
  409MOL0     O55127   1.557   3.573   2.498  0.4462  0.5822  0.2750
  409MOL0     C55128   1.359   3.791   2.313  0.0271  1.0490 -0.2291
  409MOL0     C55129   1.224   3.810   2.275  0.1818  0.1220 -0.3698
  409MOL0     N55130   1.100   3.227   2.419  0.1354  0.6734  0.2211
  409MOL0     N55131   1.207   3.231   2.486  0.0365  0.4410  0.7843
  409MOL0     C55132   2.400   2.877   2.652 -0.2081  0.1337 -0.3250
  409MOL0     C55133   2.497   2.782   2.665 -0.2061 -0.3946  0.9369
  409MOL0     C55134   2.975   2.686   2.643 -0.1908 -0.1701 -0.6910
  409MOL0     C55135   2.969   2.547   2.634 -0.2613  0.3146 -0.0777
  409MOL0     C55136   3.075   2.471   2.593 -0.1513  0.0337 -0.5127
  409MOL0     C55137   3.196   2.532   2.564 -0.3520  0.6735 -0.0679
  409MOL0     O55138   3.305   2.448   2.548  0.7052  0.1757  0.4871
  409MOL0     C55139   3.307   2.328   2.472  0.4883  0.3420  0.2062
  409MOL0     C55140   3.458   2.296   2.448  0.1695 -0.1333 -0.8412
  409MOL0     C55141   3.533   2.263   2.573  0.0020  0.6207  0.3592
  409MOL0     C55142   3.689   2.246   2.554  0.6194 -0.6646  0.5601
  409MOL0     C55143   3.722   2.159   2.446  0.7211  0.0863  0.5025
  409MOL0     C55144   3.742   2.114   2.335 -0.0238  0.0869  0.3086
  409MOL0     C55145   3.216   2.664   2.608 -0.0202  0.0554  0.5785
  409MOL0     C55146   3.108   2.743   2.631 -0.5663  0.1580  0.7170
  409MOL0     C55147   3.134   2.885   2.651  1.2841 -0.5804  0.1259
  409MOL0     H55148   2.753   2.995   2.567 -0.8742  3.1676  0.5346
  409MOL0     H55149   2.569   3.141   2.535 -2.4048 -0.4509 -0.7957
  409MOL0     H55150   2.158   2.971   2.523 -1.6797  0.8466 -1.5706
  409MOL0     H55151   2.161   3.071   2.674 -1.7600  0.2757 -0.6175
  409MOL0     H55152   2.151   3.229   2.420 -3.1563  1.5800  0.3005
  409MOL0     H55153   2.103   3.267   2.589  0.8844  1.1125 -0.6034
  409MOL0     H55154   1.917   3.096   2.560 -1.0165 -0.8694 -1.6001
  409MOL0     H55155   1.970   3.072   2.394  0.2730  0.4079 -0.8229
  409MOL0     H55156   1.890   3.346   2.519 -0.6066  0.6891 -0.8646
  409MOL0     H55157   1.933   3.329   2.360  2.5096 -0.1983  1.5515
  409MOL0     H55158   1.703   3.345   2.363  0.4782 -0.3755 -1.0524
  409MOL0     H55159   1.743   3.190   2.297  1.6059  1.4134 -0.4895
  409MOL0     H55160   1.702   3.073   2.521 -0.7059  0.0791  2.1550
  409MOL0     H55161   1.670   3.222   2.598  1.0471 -3.8590  1.9574
  409MOL0     H55162   1.463   3.084   2.531  1.0181 -3.0428 -2.7622
  409MOL0     H55163   1.517   3.092   2.367  0.5702  1.6869 -0.7376
  409MOL0     H55164   1.446   3.340   2.548 -2.3133 -1.5822  1.2572
  409MOL0     H55165   1.507   3.344   2.382  1.2061  1.1437  1.3673
  409MOL0     H55166   1.308   3.367   2.203 -2.1245  0.9422  0.1679
  409MOL0     H55167   1.065   3.285   2.075 -0.2972 -0.0919 -0.9002
  409MOL0     H55168   0.931   3.254   2.187 -0.0117 -0.2629  1.8819
  409MOL0     H55169   1.091   3.525   2.189  0.2873 -1.6744 -0.0072
  409MOL0     H55170   0.948   3.489   2.081  1.7950 -0.9699 -1.0093
  409MOL0     H55171   0.960   3.446   2.376  1.1929 -2.1066 -1.2525
  409MOL0     H55172   0.818   3.442   2.265  0.6588 -1.7478  1.4381
  409MOL0     H55173   0.837   3.652   2.405  0.7583 -0.0838  0.6165
  409MOL0     H55174   0.812   3.666   2.239 -1.8678 -2.3723  0.7109
  409MOL0     H55175   1.088   3.572   2.476  3.3009 -3.0136  0.7581
  409MOL0     H55176   1.316   3.558   2.555  0.5403  0.7797 -0.6305
  409MOL0     H55177   1.795   3.651   2.309 -2.7521 -1.3761  1.3869
  409MOL0     H55178   2.032   3.627   2.380  2.5795  0.4746  2.9994
  409MOL0     H55179   2.274   3.738   2.718  1.2973  2.4920 -2.4728
  409MOL0     H55180   2.105   3.682   2.720  0.0139  1.5483  1.4820
  409MOL0     H55181   2.228   3.475   2.676 -0.5935  0.2377  1.4005
  409MOL0     H55182   2.145   3.532   2.531 -0.2101 -1.5746  2.5145
  409MOL0     H55183   2.347   3.666   2.465 -2.8714  1.3410  1.9627
  409MOL0     H55184   2.435   3.563   2.585 -1.2987  1.0470  0.9725
  409MOL0     H55185   2.297   3.469   2.332  0.6130  1.0282 -0.7017
  409MOL0     H55186   2.350   3.364   2.466 -1.8190  1.0748 -0.0887
  409MOL0     H55187   2.579   3.445   2.449  0.1477 -1.7741 -0.8496
  409MOL0     H55188   2.535   3.563   2.324  0.1437  0.1183 -1.1691
  409MOL0     H55189   2.508   3.252   2.287  0.8875  0.9533  1.7429
  409MOL0     H55190   2.479   3.366   2.160  0.2680  0.1185  0.2566
  409MOL0     H55191   2.709   3.434   2.165  2.3652  0.1706 -0.4994
  409MOL0     H55192   2.684   3.250   2.139 -0.0054 -0.0250 -0.1229
  409MOL0     H55193   2.766   3.396   2.388 -2.7291 -0.2042 -0.2037
  409MOL0     H55194   2.745   3.221   2.376 -0.2793 -0.7321 -1.3009
  409MOL0     H55195   1.965   3.953   2.664 -3.0366  1.5330 -0.0703
  409MOL0     H55196   1.746   3.970   2.588  2.1126  0.9987 -3.0895
  409MOL0     H55197   1.440   3.849   2.268  1.6371 -0.3206  0.7803
  409MOL0     H55198   1.201   3.883   2.198 -2.3796  0.3248  0.5025
  409MOL0     H55199   2.307   2.858   2.705  0.2124 -0.1521  0.3264
  409MOL0     H55200   2.474   2.679   2.692 -1.2715 -0.0222  1.5104
  409MOL0     H55201   2.871   2.504   2.649 -1.3261  1.5168 -2.7910
  409MOL0     H55202   3.074   2.363   2.590  1.1194  0.0197 -1.6491
  409MOL0     H55203   3.259   2.345   2.376  3.0352 -2.4967 -1.7581
  409MOL0     H55204   3.256   2.243   2.519 -1.1834  0.8453 -0.6427
  409MOL0     H55205   3.502   2.388   2.407 -1.1090  0.6920 -0.4361
  409MOL0     H55206   3.465   2.210   2.380  1.4035 -0.0561 -0.8382
  409MOL0     H55207   3.492   2.177   2.626  2.5056 -0.4482  0.7127
  409MOL0     H55208   3.515   2.336   2.652 -2.1955  0.0544  0.4296
  409MOL0     H55209   3.738   2.341   2.532  0.8759 -1.1965 -1.3640
  409MOL0     H55210   3.735   2.208   2.646  1.3686  0.1412  0.5343
  409MOL0     H55211   3.752   2.070   2.238  0.8363  1.7119 -0.3689
  409MOL0     H55212   3.312   2.713   2.616 -0.1006  0.4210 -0.6182
  409MOL0     H55213   3.235   2.921   2.632  1.4835 -0.0982  1.9610
  409MOL0     H55214   3.070   2.937   2.579  1.8270  0.6321  0.4916
  409MOL0     H55215   3.105   2.922   2.750  2.9606  1.1421  0.0386
  410MOL0     O55216   8.749   5.833   6.550 -0.4518  0.5231 -0.1923
  410MOL0     C55217   8.742   5.766   6.653  1.0357 -0.4485  0.1446
  410MOL0     O55218   8.816   5.783   6.768  0.0650  0.7961  0.1107
  410MOL0     C55219   8.893   5.894   6.792  0.6555  0.4659 -0.0959
  410MOL0     C55220   9.026   5.898   6.750  0.6470  0.5532 -0.1703
  410MOL0     C55221   9.119   5.986   6.796 -0.3360 -0.5311  0.9049
  410MOL0     C55222   9.077   6.084   6.886  0.0111  0.2873  0.1225
  410MOL0     O55223   9.171   6.171   6.941 -0.0862 -0.2640  0.9989
  410MOL0     C55224   9.161   6.309   6.905  0.2920  0.0398  0.5056
  410MOL0     C55225   9.262   6.354   6.807 -0.4515  0.3687  0.6817
  410MOL0     C55226   9.291   6.252   6.687  0.1879 -0.2571  0.3131
  410MOL0     C55227   9.378   6.333   6.587  0.7559 -0.1623 -0.8956
  410MOL0     C55228   9.411   6.255   6.466 -0.1201  0.0751 -0.1474
  410MOL0     C55229   9.300   6.228   6.366 -0.6824 -0.3011  0.2079
  410MOL0     C55230   9.355   6.196   6.222  0.4574  0.6886  0.1330
  410MOL0     C55231   9.238   6.141   6.128  0.1583 -1.1133 -0.1268
  410MOL0     N55232   9.264   6.104   5.989 -0.1696 -0.9183  0.1684
  410MOL0     C55233   9.362   6.020   5.950 -0.8811 -0.1658  0.4906
  410MOL0     C55234   9.353   6.018   5.812 -0.1666 -0.7621  0.0845
  410MOL0     C55235   9.449   5.956   5.714  0.2608 -0.2938  0.1990
  410MOL0     C55236   9.594   5.955   5.770  0.2542  0.2009  0.0952
  410MOL0     C55237   9.692   5.940   5.656  0.0957  0.1589 -0.3944
  410MOL0     C55238   9.842   5.948   5.698  0.5560 -0.1999 -0.5452
  410MOL0     O55239   9.893   5.816   5.741  0.2539 -0.1779 -0.5135
  410MOL0     C55240  10.030   5.799   5.762  0.3190 -0.1477  0.3599
  410MOL0     C55241  10.128   5.894   5.749  0.2599 -0.8602 -0.1651
  410MOL0     C55242  10.259   5.870   5.761 -0.0738 -0.2490  0.1709
  410MOL0     C55243  10.310   5.739   5.767  0.6025 -0.5816  0.3709
  410MOL0     C55244  10.449   5.712   5.735  0.5562 -0.2625  0.5408
  410MOL0     O55245  10.533   5.812   5.697 -0.3578 -0.6734  0.2263
  410MOL0     C55246  10.652   5.773   5.634 -1.1084 -0.2993  0.3162
  410MOL0     C55247  10.681   5.808   5.500 -0.5957  0.1401  0.1206
  410MOL0     C55248  10.804   5.772   5.444  0.6457 -0.4033 -0.3211
  410MOL0     C55249  10.909   5.719   5.511  0.3042 -0.4845  0.2879
  410MOL0     O55250  11.024   5.694   5.445  0.3483 -0.6722  0.8936
  410MOL0     C55251  11.127   5.645   5.521 -1.3520  0.5191 -0.8821
  410MOL0     C55252  11.267   5.659   5.445 -0.1433 -0.3604  0.9056
  410MOL0     C55253  11.392   5.652   5.529 -0.2886  0.7968 -0.7546
  410MOL0     C55254  11.510   5.592   5.453  0.6719  0.4582  0.2358
  410MOL0     C55255  11.619   5.566   5.551 -0.5552  0.9095 -0.0816
  410MOL0     C55256  11.745   5.521   5.481  0.1238 -0.1724  0.4315
  410MOL0     C55257  11.857   5.494   5.577 -0.6884 -0.5562  0.3623
  410MOL0     C55258  11.996   5.474   5.517  0.2893  0.9948  0.4526
  410MOL0    Cl55259  12.069   5.644   5.467 -0.0925 -0.2037 -0.1806
  410MOL0     C55260  10.884   5.675   5.649  0.5133 -0.1454  0.8922
  410MOL0     C55261  10.759   5.702   5.705 -0.0873  0.4239 -0.8133
  410MOL0     O55262  10.484   5.596   5.754 -0.1624 -0.8277  0.3084
  410MOL0     C55263  10.208   5.642   5.785 -0.1004 -0.0234  0.2493
  410MOL0     C55264  10.071   5.672   5.784 -0.2263  1.0828 -0.6377
  410MOL0     N55265   9.249   6.095   5.773  0.2501 -0.7615 -0.0198
  410MOL0     N55266   9.209   6.162   5.875  1.1527 -0.1729  0.1455
  410MOL0     C55267   8.943   6.080   6.926 -0.6569  0.1909 -0.5449
  410MOL0     C55268   8.850   5.985   6.885  0.5206 -0.3223  0.3721
  410MOL0     C55269   8.635   5.654   6.658  0.2903 -0.8293 -0.4758
  410MOL0     C55270   8.592   5.622   6.786 -0.2589 -0.8799 -0.0430
  410MOL0     C55271   8.493   5.528   6.815  0.4292  0.7820 -0.2243
  410MOL0     C55272   8.417   5.473   6.710 -0.2914 -0.6199  0.0271
  410MOL0     O55273   8.309   5.391   6.724 -0.2503  0.0098 -0.3444
  410MOL0     C55274   8.275   5.349   6.861  0.5986 -0.5674  0.7390
  410MOL0     C55275   8.159   5.246   6.848  0.1694 -1.0066  0.8125
  410MOL0     C55276   8.033   5.287   6.767 -0.4726  0.2038 -0.0796
  410MOL0     C55277   7.928   5.175   6.765  0.7425 -0.4758 -0.0181
  410MOL0     C55278   7.873   5.166   6.903 -0.8530 -0.1323 -0.7379
  410MOL0     C55279   7.815   5.149   7.010 -0.2926 -0.2143 -0.3067
  410MOL0     C55280   8.455   5.515   6.581 -0.0587 -0.3096  0.0630
  410MOL0     C55281   8.560   5.610   6.548 -0.0918  0.2332  0.6385
  410MOL0     C55282   8.602   5.640   6.402  0.6090 -0.1426  0.3273
  410MOL0     H55283   9.065   5.817   6.689  0.6329  2.6481 -3.1932
  410MOL0     H55284   9.222   5.964   6.771 -0.0987  0.5745  0.8867
  410MOL0     H55285   9.059   6.330   6.869  0.6029  1.3411  0.3454
  410MOL0     H55286   9.167   6.359   7.002  0.6684 -1.2427  1.1558
  410MOL0     H55287   9.357   6.362   6.862 -0.1895 -0.8230  0.4282
  410MOL0     H55288   9.236   6.449   6.761 -2.2695  0.4806  1.8457
  410MOL0     H55289   9.199   6.221   6.637 -0.0869  3.0320 -1.4784
  410MOL0     H55290   9.344   6.162   6.718  2.8655  0.8226 -0.8552
  410MOL0     H55291   9.329   6.426   6.555  2.4730  0.2798 -2.3551
  410MOL0     H55292   9.468   6.359   6.643  0.7978 -0.9004 -0.6091
  410MOL0     H55293   9.488   6.318   6.420  2.0000  0.2529  3.2589
  410MOL0     H55294   9.467   6.165   6.493 -1.6374 -1.4210 -1.7128
  410MOL0     H55295   9.232   6.150   6.400 -1.2925  0.4345  0.7126
  410MOL0     H55296   9.248   6.323   6.352  0.2624 -0.1475 -3.0386
  410MOL0     H55297   9.431   6.118   6.224 -1.2190 -1.0873 -0.9842
  410MOL0     H55298   9.406   6.280   6.174  1.3094 -0.3064 -0.7735
  410MOL0     H55299   9.203   6.046   6.169 -3.0330 -0.0842 -0.2262
  410MOL0     H55300   9.157   6.214   6.127 -0.0721 -1.3661 -0.1246
  410MOL0     H55301   9.435   5.970   6.012 -0.1249 -1.2548 -1.1927
  410MOL0     H55302   9.415   5.852   5.701  1.7322 -0.4372 -4.2089
  410MOL0     H55303   9.442   5.999   5.614  3.5667  0.4096  0.1804
  410MOL0     H55304   9.628   6.044   5.823 -1.0450 -0.2095  1.7248
  410MOL0     H55305   9.603   5.867   5.836  2.7269 -0.8992 -1.5797
  410MOL0     H55306   9.686   6.021   5.582  0.4929 -1.8319 -2.7289
  410MOL0     H55307   9.680   5.840   5.615 -0.3288  0.9343 -2.2880
  410MOL0     H55308   9.863   6.030   5.767  0.8921 -0.8726  0.1638
  410MOL0     H55309   9.893   5.979   5.606 -1.3370  0.0207 -1.5739
  410MOL0     H55310  10.106   5.997   5.722  0.5683 -1.0409 -1.1178
  410MOL0     H55311  10.325   5.955   5.743  1.5268 -1.8508 -2.0916
  410MOL0     H55312  10.606   5.866   5.448  0.0370  0.7845 -0.0948
  410MOL0     H55313  10.813   5.790   5.337  1.1780 -0.5903 -0.3099
  410MOL0     H55314  11.131   5.715   5.604  3.4233 -2.6875  2.1258
  410MOL0     H55315  11.115   5.544   5.562  1.8734  0.1678 -0.5368
  410MOL0     H55316  11.271   5.606   5.349 -0.0721 -0.6555  1.0738
  410MOL0     H55317  11.263   5.766   5.421  1.7886  0.7624  4.8321
  410MOL0     H55318  11.406   5.754   5.565  1.9255  1.2006 -2.5303
  410MOL0     H55319  11.387   5.577   5.608 -2.9472  0.2018 -1.4081
  410MOL0     H55320  11.533   5.664   5.374  2.7742  1.8772  2.0095
  410MOL0     H55321  11.490   5.496   5.406  0.3659  1.4759 -1.8296
  410MOL0     H55322  11.592   5.491   5.626  0.9650  0.9942  0.5847
  410MOL0     H55323  11.628   5.661   5.604 -2.1224  1.8933 -1.4617
  410MOL0     H55324  11.723   5.439   5.412  0.3656  2.3992 -2.9418
  410MOL0     H55325  11.776   5.607   5.421 -2.5097  0.7154  0.2288
  410MOL0     H55326  11.824   5.408   5.636  0.2796 -1.9381 -1.0262
  410MOL0     H55327  11.863   5.585   5.637 -1.1835 -0.9107  0.9655
  410MOL0     H55328  12.056   5.411   5.583  0.3813 -0.5833 -1.0746
  410MOL0     H55329  11.985   5.422   5.421 -0.7818  3.3684 -0.8017
  410MOL0     H55330  10.950   5.623   5.717 -1.3548  2.5311  5.2788
  410MOL0     H55331  10.739   5.677   5.808 -1.3075 -0.8688 -1.3310
  410MOL0     H55332  10.232   5.537   5.766  1.0944  0.7977 -3.6954
  410MOL0     H55333   9.998   5.592   5.788 -0.3257  1.2299  1.4330
  410MOL0     H55334   8.902   6.147   7.000 -1.0956 -0.7463  0.0678
  410MOL0     H55335   8.750   5.986   6.926  1.0849 -0.1083  1.8370
  410MOL0     H55336   8.640   5.671   6.870  0.6170  1.1232 -1.6210
  410MOL0     H55337   8.466   5.529   6.920 -0.0889  2.3234 -0.3413
  410MOL0     H55338   8.246   5.437   6.919  0.9282 -0.2429  0.4156
  410MOL0     H55339   8.359   5.304   6.915  1.4066 -0.7358 -0.6203
  410MOL0     H55340   8.132   5.217   6.950  2.4732 -1.0533  1.4652
  410MOL0     H55341   8.212   5.165   6.797 -1.0507  0.0402 -2.3263
  410MOL0     H55342   8.054   5.322   6.666 -2.0905 -0.7988 -0.8029
  410MOL0     H55343   7.994   5.381   6.808 -0.2247  0.9251 -1.4339
  410MOL0     H55344   7.847   5.193   6.693 -0.6334 -0.9161  1.3547
  410MOL0     H55345   7.987   5.089   6.732 -1.2105 -1.9070  0.0353
  410MOL0     H55346   7.749   5.143   7.094 -0.6851  3.1080 -0.2100
  410MOL0     H55347   8.395   5.466   6.505  5.0300 -4.0970 -2.1638
  410MOL0     H55348   8.542   5.578   6.335 -2.2037  0.2652  2.3097
  410MOL0     H55349   8.587   5.746   6.384  0.0417 -0.1653  0.6567
  410MOL0     H55350   8.708   5.618   6.386  0.4721  0.2676 -1.2740
  411MOL0     O55351   0.497   5.340   4.037 -0.0491  0.6068 -0.5501
  411MOL0     C55352   0.430   5.433   3.993  0.5211  0.0691  0.1851
  411MOL0     O55353   0.481   5.541   3.925  0.4498  0.1156  0.5097
  411MOL0     C55354   0.615   5.549   3.927  0.2036 -0.8929  0.1446
  411MOL0     C55355   0.699   5.448   3.871  0.1733  0.0821  0.0664
  411MOL0     C55356   0.842   5.461   3.874  0.2730  0.1076  0.0469
  411MOL0     C55357   0.901   5.587   3.911 -0.3109  1.0839 -0.3012
  411MOL0     O55358   1.038   5.594   3.895  0.1660 -0.2876  0.4492
  411MOL0     C55359   1.109   5.696   3.973 -0.9295  0.2909 -0.1336
  411MOL0     C55360   1.257   5.668   3.955  0.5233  0.6077 -0.5213
  411MOL0     C55361   1.298   5.537   4.025 -0.1566 -0.9158 -0.8469
  411MOL0     C55362   1.445   5.485   4.010 -0.4150  1.2456  0.5579
  411MOL0     C55363   1.476   5.356   4.090  0.0986  0.7227 -0.5013
  411MOL0     C55364   1.361   5.246   4.090 -0.7162  0.2523  0.9643
  411MOL0     C55365   1.266   5.254   4.204 -0.9416 -0.1314  0.0558
  411MOL0     C55366   1.160   5.127   4.218 -0.7361 -0.8481 -0.0227
  411MOL0     N55367   1.217   5.003   4.265  0.2580 -0.5219 -0.3187
  411MOL0     C55368   1.296   4.909   4.203 -0.5047 -0.7445  0.5916
  411MOL0     C55369   1.298   4.798   4.282 -0.0432 -0.1969 -0.4933
  411MOL0     C55370   1.348   4.662   4.249 -0.6899 -0.2420  0.5386
  411MOL0     C55371   1.385   4.649   4.095 -0.1421  0.4709 -0.4517
  411MOL0     C55372   1.428   4.508   4.062  0.3642  0.4242  0.0599
  411MOL0     C55373   1.543   4.459   4.137  0.1590 -0.0114  0.6091
  411MOL0     O55374   1.570   4.323   4.107 -0.4583 -0.2230  0.5837
  411MOL0     C55375   1.687   4.286   4.167  0.4566  0.7926 -0.5694
  411MOL0     C55376   1.723   4.314   4.300 -0.1078  0.0690 -0.2420
  411MOL0     C55377   1.851   4.289   4.354 -0.1040  0.3641  0.8934
  411MOL0     C55378   1.950   4.236   4.271  0.1290 -0.0980  0.8860
  411MOL0     C55379   2.089   4.223   4.315 -0.6429 -0.5443 -0.4917
  411MOL0     O55380   2.123   4.286   4.431 -0.0433  0.2636  0.3017
  411MOL0     C55381   2.250   4.264   4.484  0.0166  0.5391 -0.0508
  411MOL0     C55382   2.262   4.193   4.601 -0.6169  0.0305 -0.7431
  411MOL0     C55383   2.391   4.183   4.666  0.4650  0.1090  0.1087
  411MOL0     C55384   2.501   4.255   4.619 -0.4422  0.3481  0.8851
  411MOL0     O55385   2.620   4.222   4.688  0.1039 -0.3858  0.0790
  411MOL0     C55386   2.701   4.335   4.736  0.9681 -0.0124 -0.0025
  411MOL0     C55387   2.847   4.308   4.736  0.0362  1.0196 -1.6478
  411MOL0     C55388   2.899   4.198   4.829  0.0729  0.2299 -0.5390
  411MOL0     C55389   2.830   4.191   4.965 -0.7861  0.2968 -0.1918
  411MOL0     C55390   2.904   4.076   5.043  0.1664  0.0639  0.0042
  411MOL0     C55391   2.839   4.047   5.185  0.5573  0.3384  0.2734
  411MOL0     C55392   2.882   3.917   5.255  0.6410  0.9368 -0.3551
  411MOL0     C55393   2.857   3.924   5.407 -1.3718  0.0300 -0.3100
  411MOL0    Cl55394   2.983   4.022   5.471 -0.6546  0.4381 -0.1933
  411MOL0     C55395   2.488   4.324   4.495  0.5012  0.6248 -1.0510
  411MOL0     C55396   2.366   4.324   4.429 -0.2363  0.3070 -0.9221
  411MOL0     O55397   2.164   4.162   4.242 -1.0249 -0.1871  0.0218
  411MOL0     C55398   1.910   4.193   4.143 -0.8593  0.4858 -0.5858
  411MOL0     C55399   1.783   4.211   4.095 -0.0629  0.9040  0.0546
  411MOL0     N55400   1.252   4.844   4.404  0.2647 -0.4349  0.0726
  411MOL0     N55401   1.202   4.963   4.392  0.7976 -0.1550  0.4237
  411MOL0     C55402   0.817   5.681   3.967 -0.6858  0.2526 -0.9831
  411MOL0     C55403   0.685   5.662   3.983  0.7699 -0.4388  0.0380
  411MOL0     C55404   0.282   5.424   3.993  0.6358 -0.4607  0.4329
  411MOL0     C55405   0.214   5.441   3.868  0.2989 -0.0155 -0.1451
  411MOL0     C55406   0.081   5.408   3.866  0.7904 -0.1369 -0.7094
  411MOL0     C55407   0.003   5.374   3.973  0.8451 -0.4081 -0.3376
  411MOL0     O55408  -0.127   5.341   3.936 -0.4776 -0.4441 -0.1385
  411MOL0     C55409  -0.216   5.292   4.030 -0.3876 -0.4090 -0.2106
  411MOL0     C55410  -0.347   5.252   3.953  0.2049 -0.4987 -0.4865
  411MOL0     C55411  -0.438   5.373   3.929 -0.0726  0.2066 -0.2285
  411MOL0     C55412  -0.548   5.330   3.853  0.6632  0.5215 -0.2590
  411MOL0     C55413  -0.645   5.439   3.822  0.3420 -0.8329  0.3482
  411MOL0     C55414  -0.721   5.531   3.803  0.4928 -0.1728  0.0858
  411MOL0     C55415   0.071   5.354   4.095  0.1361  0.3456 -0.5353
  411MOL0     C55416   0.207   5.384   4.106 -0.6787 -0.1919 -1.2375
  411MOL0     C55417   0.270   5.369   4.246 -0.0338  0.3705 -0.0559
  411MOL0     H55418   0.651   5.358   3.835 -1.4715 -0.3629  2.9935
  411MOL0     H55419   0.887   5.375   3.824 -0.2182 -1.3987  2.0576
  411MOL0     H55420   1.082   5.794   3.932  2.6235  2.0793  1.3404
  411MOL0     H55421   1.082   5.689   4.079 -0.4557  0.6951  0.0190
  411MOL0     H55422   1.323   5.750   3.982  0.1130  1.5460 -2.2085
  411MOL0     H55423   1.288   5.657   3.851  3.6637 -1.2789  0.4700
  411MOL0     H55424   1.232   5.458   3.988 -1.4443 -0.1085 -0.3719
  411MOL0     H55425   1.269   5.547   4.130  0.8438 -0.5576 -0.5964
  411MOL0     H55426   1.472   5.482   3.904 -1.1112 -0.5203  0.3997
  411MOL0     H55427   1.502   5.571   4.046 -1.2847  0.4455  4.2860
  411MOL0     H55428   1.563   5.322   4.034 -0.5413  5.0336 -4.8275
  411MOL0     H55429   1.499   5.387   4.193 -2.2499  2.9174 -0.5289
  411MOL0     H55430   1.319   5.239   3.989  2.4391  1.0403 -0.5148
  411MOL0     H55431   1.423   5.157   4.103  1.3544  0.6681 -4.1137
  411MOL0     H55432   1.212   5.348   4.193  1.0833  0.9310 -1.6231
  411MOL0     H55433   1.312   5.257   4.303 -0.7116 -0.2263 -0.0479
  411MOL0     H55434   1.081   5.167   4.282 -0.2464 -0.3351  0.2650
  411MOL0     H55435   1.122   5.125   4.115  1.1128  1.0517 -0.8141
  411MOL0     H55436   1.355   4.901   4.112 -1.3087  1.6975 -0.2279
  411MOL0     H55437   1.437   4.643   4.309  1.1274  0.3148 -1.8254
  411MOL0     H55438   1.276   4.583   4.272  0.4006 -1.2605  0.5496
  411MOL0     H55439   1.294   4.678   4.042 -1.4778  0.6644  1.8019
  411MOL0     H55440   1.468   4.719   4.082  0.8976  0.0449  2.9132
  411MOL0     H55441   1.447   4.490   3.955  0.9233 -3.2790  0.6223
  411MOL0     H55442   1.346   4.443   4.093 -0.4744  1.0761 -0.7540
  411MOL0     H55443   1.534   4.465   4.246  0.5902 -0.3846  0.6690
  411MOL0     H55444   1.634   4.519   4.125 -0.2850  0.4609 -0.5948
  411MOL0     H55445   1.650   4.349   4.373  1.6060  1.3532  0.9340
  411MOL0     H55446   1.878   4.319   4.455  1.7622  2.2090 -0.0675
  411MOL0     H55447   2.191   4.142   4.665  3.5006 -0.6455  3.8723
  411MOL0     H55448   2.403   4.138   4.764 -3.6588  0.9601  1.2073
  411MOL0     H55449   2.679   4.418   4.669  0.0580  0.3679  0.7426
  411MOL0     H55450   2.671   4.364   4.837  0.3892 -0.2694 -0.0973
  411MOL0     H55451   2.877   4.270   4.638  2.2819  2.9866 -1.8143
  411MOL0     H55452   2.904   4.394   4.773 -2.4083  2.1122 -0.1681
  411MOL0     H55453   2.867   4.113   4.768  1.6999  0.6722 -2.0973
  411MOL0     H55454   3.008   4.196   4.828  0.0616 -1.4253 -0.7729
  411MOL0     H55455   2.723   4.170   4.965 -0.5163 -1.1786 -1.0329
  411MOL0     H55456   2.850   4.282   5.024  0.2556 -0.9225  1.4057
  411MOL0     H55457   3.008   4.109   5.054  0.4092 -0.9850  1.0988
  411MOL0     H55458   2.916   3.981   4.990  1.8151 -1.3416  2.6348
  411MOL0     H55459   2.854   4.140   5.242  1.7130 -0.7597  1.8418
  411MOL0     H55460   2.732   4.035   5.163  0.8633 -0.2097 -0.9876
  411MOL0     H55461   2.986   3.892   5.230  0.5539 -0.8001  0.7825
  411MOL0     H55462   2.811   3.845   5.214  2.3116  0.7707 -3.2295
  411MOL0     H55463   2.762   3.968   5.439 -0.4536  0.9135  1.3024
  411MOL0     H55464   2.861   3.826   5.455  0.3162  1.3457  2.4538
  411MOL0     H55465   2.576   4.373   4.454 -0.3471 -0.9808 -5.4019
  411MOL0     H55466   2.361   4.367   4.329 -3.3234 -0.0485 -1.0105
  411MOL0     H55467   1.991   4.142   4.091 -2.2069  0.3569 -2.6592
  411MOL0     H55468   1.747   4.181   3.998 -2.0661  0.8590  0.7742
  411MOL0     H55469   0.857   5.775   4.003 -0.5121 -0.6162  1.2131
  411MOL0     H55470   0.633   5.740   4.037 -0.2865  0.4337 -2.1360
  411MOL0     H55471   0.257   5.481   3.777 -0.7359 -0.6235 -0.9184
  411MOL0     H55472   0.040   5.417   3.765 -0.6979 -1.1990 -0.2508
  411MOL0     H55473  -0.225   5.349   4.123 -0.5178 -1.6364  0.5582
  411MOL0     H55474  -0.177   5.198   4.071  1.8490  0.8176  0.6127
  411MOL0     H55475  -0.402   5.188   4.022  0.2964  1.8452  1.9470
  411MOL0     H55476  -0.337   5.198   3.858  0.1620  0.6111 -1.1458
  411MOL0     H55477  -0.378   5.454   3.886  1.0848 -0.5266 -0.0608
  411MOL0     H55478  -0.476   5.396   4.029  0.7363 -0.5957  0.2818
  411MOL0     H55479  -0.514   5.285   3.759 -0.2109 -0.7097 -0.0165
  411MOL0     H55480  -0.607   5.262   3.914 -1.2036  1.2106 -1.2217
  411MOL0     H55481  -0.798   5.604   3.789 -1.5422 -2.4104 -1.0958
  411MOL0     H55482   0.011   5.336   4.184  0.1205 -1.2631 -0.8527
  411MOL0     H55483   0.202   5.325   4.319 -0.5992  0.7440 -0.3515
  411MOL0     H55484   0.363   5.311   4.237 -0.8590 -1.3311  1.6937
  411MOL0     H55485   0.308   5.464   4.286  0.1600 -0.0456  0.7644
  412MOL0     O55486   9.745   6.985   4.141 -0.2964  0.0076 -0.6717
  412MOL0     C55487   9.712   6.956   4.249  0.7918  0.6503 -0.5058
  412MOL0     O55488   9.791   6.892   4.347  0.3164 -0.3475  0.6289
  412MOL0     C55489   9.927   6.874   4.324  0.6384 -0.2073 -0.7414
  412MOL0     C55490  10.006   6.938   4.227 -0.1842  0.0645  0.4534
  412MOL0     C55491  10.140   6.895   4.214 -0.1548  0.2640 -0.4371
  412MOL0     C55492  10.204   6.810   4.309 -0.7845 -0.0046  0.1482
  412MOL0     O55493  10.340   6.791   4.312  0.4128  0.0167  0.4765
  412MOL0     C55494  10.432   6.851   4.225 -0.1682  0.1519  0.3295
  412MOL0     C55495  10.544   6.751   4.222 -0.8623  1.0040  0.2191
  412MOL0     C55496  10.671   6.825   4.166  0.0693 -0.2354  0.8834
  412MOL0     C55497  10.772   6.723   4.116  0.5230 -0.2045  0.5634
  412MOL0     C55498  10.905   6.795   4.082 -0.4821  0.8745 -0.9086
  412MOL0     C55499  11.014   6.685   4.077  0.4070 -0.1700  0.4637
  412MOL0     C55500  11.144   6.754   4.065  0.0659 -0.2640  0.1350
  412MOL0     C55501  11.245   6.672   3.984 -0.6972 -0.1582 -0.3747
  412MOL0     N55502  11.382   6.736   3.963  0.2629  0.6535  0.7724
  412MOL0     C55503  11.507   6.685   4.005 -0.2102  0.2230  0.0209
  412MOL0     C55504  11.594   6.788   3.990 -0.4403  0.3534 -0.7904
  412MOL0     C55505  11.743   6.774   4.026 -0.1226 -1.0297 -0.6537
  412MOL0     C55506  11.839   6.858   3.946  0.3030 -0.1116 -0.2740
  412MOL0     C55507  11.862   6.777   3.815 -0.0400 -0.2451 -0.0633
  412MOL0     C55508  11.928   6.876   3.719  0.3122  0.3379  0.0241
  412MOL0     O55509  12.040   6.945   3.768  0.4135 -0.2512 -0.1132
  412MOL0     C55510  12.164   6.884   3.767  0.0397  0.9006  1.0145
  412MOL0     C55511  12.257   6.965   3.833  0.4703  0.0828  0.1602
  412MOL0     C55512  12.390   6.933   3.845  0.1659 -1.0886  0.2540
  412MOL0     C55513  12.437   6.810   3.793 -0.2188 -0.0069  0.0596
  412MOL0     C55514  12.582   6.755   3.801  0.4208  0.2519  0.2647
  412MOL0     O55515  12.603   6.632   3.856  0.4998 -0.4228  0.2204
  412MOL0     C55516  12.729   6.598   3.879 -0.0974  0.0535  0.1529
  412MOL0     C55517  12.798   6.523   3.782  0.9760 -0.0502  0.5209
  412MOL0     C55518  12.931   6.477   3.800  0.5116  0.0535 -0.3544
  412MOL0     C55519  12.998   6.511   3.919 -0.1963  0.8993 -0.5966
  412MOL0     O55520  13.121   6.452   3.943  0.4218  0.7123 -0.1751
  412MOL0     C55521  13.231   6.539   3.974 -0.4357 -0.5308  0.2935
  412MOL0     C55522  13.243   6.655   3.869  0.8847  0.8123  0.1957
  412MOL0     C55523  13.377   6.727   3.901  0.2466  0.0780 -0.2009
  412MOL0     C55524  13.498   6.643   3.929 -0.0091  0.5089 -0.4042
  412MOL0     C55525  13.635   6.714   3.930 -0.4215  0.3378  0.4556
  412MOL0     C55526  13.663   6.790   3.800  0.5637 -0.9902 -0.8340
  412MOL0     C55527  13.779   6.884   3.808  0.0913 -1.1021  0.3999
  412MOL0     C55528  13.914   6.813   3.809  0.0382  0.9080 -0.7049
  412MOL0    Cl55529  14.027   6.922   3.890 -0.1218  0.1645 -0.2291
  412MOL0     C55530  12.930   6.591   4.016  0.2144  0.9291 -0.0900
  412MOL0     C55531  12.801   6.635   3.995 -0.1165  1.7006  0.8854
  412MOL0     O55532  12.666   6.825   3.751  1.2015 -0.4497  0.5429
  412MOL0     C55533  12.343   6.724   3.726 -0.4270 -0.2756 -0.9855
  412MOL0     C55534  12.211   6.760   3.723  0.4117 -1.1782  0.7771
  412MOL0     N55535  11.525   6.909   3.947  0.2518  0.4194 -0.5138
  412MOL0     N55536  11.397   6.870   3.934  0.0930 -0.3524  0.5719
  412MOL0     C55537  10.118   6.746   4.398 -0.0143  0.1525  0.4094
  412MOL0     C55538   9.982   6.773   4.404 -0.0583  0.1624  0.4482
  412MOL0     C55539   9.568   6.982   4.286 -0.1363  0.0355  0.3485
  412MOL0     C55540   9.543   6.990   4.427 -0.7127 -1.0750  0.6031
  412MOL0     C55541   9.413   7.024   4.477  0.5937  0.2224 -0.2521
  412MOL0     C55542   9.310   7.054   4.397  0.6906 -0.2537 -0.1375
  412MOL0     O55543   9.188   7.091   4.452  0.0039 -0.2530 -0.5260
  412MOL0     C55544   9.070   7.102   4.379  0.2548  0.2191  0.1295
  412MOL0     C55545   9.003   6.967   4.367 -0.5343  0.0974  0.6017
  412MOL0     C55546   8.902   6.936   4.474 -0.0908  0.9574 -0.3350
  412MOL0     C55547   8.826   6.805   4.463 -0.4206 -0.1375 -0.4498
  412MOL0     C55548   8.897   6.683   4.430 -0.6159 -0.2772 -0.3190
  412MOL0     C55549   8.954   6.580   4.409  0.2009 -0.4224  0.1775
  412MOL0     C55550   9.325   7.026   4.260 -0.5270 -0.1371 -1.0748
  412MOL0     C55551   9.455   7.000   4.204 -0.8815  0.6495 -0.6908
  412MOL0     C55552   9.465   6.980   4.053 -0.8433 -0.0420 -0.2595
  412MOL0     H55553   9.967   7.020   4.167 -0.6716 -0.5939 -0.1471
  412MOL0     H55554  10.194   6.949   4.137 -0.8980  0.2486 -0.9869
  412MOL0     H55555  10.382   6.858   4.127 -0.9227 -0.7948  0.6269
  412MOL0     H55556  10.463   6.953   4.250  2.0627 -0.1475 -0.9958
  412MOL0     H55557  10.513   6.679   4.146 -1.0195  0.1264  1.0847
  412MOL0     H55558  10.568   6.707   4.320  0.6215  3.3666  0.9944
  412MOL0     H55559  10.724   6.886   4.239  2.9521  0.9584 -1.9558
  412MOL0     H55560  10.637   6.881   4.078  2.4108 -0.4434 -0.2167
  412MOL0     H55561  10.797   6.646   4.189 -1.0168 -2.1945 -0.8809
  412MOL0     H55562  10.734   6.678   4.024  0.1673  0.9173  0.1378
  412MOL0     H55563  10.894   6.848   3.987 -1.8252  0.1612 -1.1791
  412MOL0     H55564  10.930   6.869   4.157  2.8604  1.4469 -2.3894
  412MOL0     H55565  11.009   6.619   4.165  0.3005  1.1967  1.5130
  412MOL0     H55566  10.992   6.619   3.992  0.2364 -0.5066  0.7644
  412MOL0     H55567  11.177   6.755   4.169 -0.5242 -4.0898  0.4923
  412MOL0     H55568  11.141   6.855   4.023  1.2651 -1.2715 -2.5848
  412MOL0     H55569  11.248   6.573   4.030 -3.7425 -0.4764 -0.6398
  412MOL0     H55570  11.206   6.660   3.882 -0.9054  3.5606 -0.8790
  412MOL0     H55571  11.527   6.584   4.041  2.1060  0.6239 -0.0201
  412MOL0     H55572  11.752   6.808   4.130  0.0107  1.4291 -1.3977
  412MOL0     H55573  11.780   6.672   4.036 -1.8828 -1.4878  2.0001
  412MOL0     H55574  11.799   6.957   3.922  0.4006  0.1066  0.4649
  412MOL0     H55575  11.930   6.862   4.007  0.2019  0.3280 -0.1490
  412MOL0     H55576  11.769   6.744   3.768  1.9956 -3.2976 -2.3810
  412MOL0     H55577  11.940   6.702   3.826  0.6019  0.2980 -0.7644
  412MOL0     H55578  11.845   6.942   3.692 -1.5613 -1.2617  1.5947
  412MOL0     H55579  11.961   6.814   3.635 -0.9148 -0.9043  0.4355
  412MOL0     H55580  12.216   7.060   3.866  3.6460  2.2535 -1.6002
  412MOL0     H55581  12.462   7.004   3.884 -1.8366  1.4475 -0.3963
  412MOL0     H55582  12.740   6.488   3.697 -2.3871  2.9933  1.2832
  412MOL0     H55583  12.968   6.408   3.725  0.4217  0.3975 -0.7202
  412MOL0     H55584  13.234   6.581   4.075 -0.8274  2.5394 -0.8661
  412MOL0     H55585  13.320   6.476   3.979  0.4247  0.6573  0.1439
  412MOL0     H55586  13.249   6.626   3.764  0.5330  2.3171 -0.2655
  412MOL0     H55587  13.160   6.727   3.868 -0.2046 -0.3901  0.3358
  412MOL0     H55588  13.390   6.813   3.834  2.9659 -0.3332 -0.3428
  412MOL0     H55589  13.367   6.774   4.000 -1.0363  0.6167 -0.5633
  412MOL0     H55590  13.504   6.567   3.850  0.4793  1.0431 -0.8904
  412MOL0     H55591  13.481   6.598   4.027 -0.9234 -0.2301 -0.8850
  412MOL0     H55592  13.711   6.638   3.947  0.4634  0.2791 -3.0836
  412MOL0     H55593  13.640   6.784   4.014  0.0386 -0.9768  1.5662
  412MOL0     H55594  13.679   6.726   3.713 -1.3883  0.4632 -2.3544
  412MOL0     H55595  13.580   6.856   3.776  1.4298  1.6728  2.6580
  412MOL0     H55596  13.768   6.935   3.904 -4.1191  1.0530 -0.9785
  412MOL0     H55597  13.774   6.951   3.722  0.0293  2.3061  2.8641
  412MOL0     H55598  13.915   6.721   3.868  2.4197  0.8908 -0.7006
  412MOL0     H55599  13.942   6.786   3.707  3.5998  0.7124  0.2085
  412MOL0     H55600  12.979   6.614   4.110 -0.5230 -0.9651  0.8159
  412MOL0     H55601  12.755   6.689   4.076 -0.3968  2.2736  0.3499
  412MOL0     H55602  12.378   6.626   3.695  0.3809 -0.3779  0.1801
  412MOL0     H55603  12.143   6.690   3.676 -0.8999 -0.4371  1.5134
  412MOL0     H55604  10.167   6.671   4.460 -0.2495 -0.8430 -0.5854
  412MOL0     H55605   9.926   6.710   4.472 -0.9162 -1.3952 -1.5890
  412MOL0     H55606   9.614   6.962   4.505  0.7072  0.2276 -0.1604
  412MOL0     H55607   9.400   7.033   4.584 -1.5489 -2.5417 -0.1490
  412MOL0     H55608   9.104   7.150   4.287 -1.1218 -0.4706 -0.7626
  412MOL0     H55609   9.003   7.175   4.425 -1.0143 -0.7475 -0.1386
  412MOL0     H55610   9.080   6.889   4.365 -1.9267 -1.3504  1.1522
  412MOL0     H55611   8.948   6.980   4.273  0.6221  3.8035  0.2911
  412MOL0     H55612   8.828   7.017   4.473 -2.5791 -1.1459  1.3446
  412MOL0     H55613   8.961   6.940   4.566 -2.1379  1.8589  1.0362
  412MOL0     H55614   8.763   6.789   4.551  1.8110  0.8783  1.4520
  412MOL0     H55615   8.756   6.827   4.381 -0.8331 -1.1704 -0.3907
  412MOL0     H55616   8.992   6.486   4.374  1.7520  0.5137 -0.7279
  412MOL0     H55617   9.234   7.030   4.201 -0.2275  3.1020 -1.4934
  412MOL0     H55618   9.464   6.873   4.033 -2.9566 -0.0083 -0.6445
  412MOL0     H55619   9.375   7.017   4.003  0.1044  1.8397 -0.6864
  412MOL0     H55620   9.543   7.036   4.000 -1.6700 -0.7801 -2.3788
  413MOL0     O55621   0.688   0.909   8.315  0.4943 -0.0456 -0.2028
  413MOL0     C55622   0.764   0.881   8.221  0.3809 -0.5298  0.7379
  413MOL0     O55623   0.731   0.801   8.116 -0.3523  0.2439  0.3397
  413MOL0     C55624   0.596   0.801   8.088  0.6421 -0.2838  0.0989
  413MOL0     C55625   0.522   0.696   8.136 -0.7739  0.2794 -0.5290
  413MOL0     C55626   0.381   0.702   8.135  0.3645 -0.2781 -0.7377
  413MOL0     C55627   0.314   0.816   8.083 -0.1804 -0.1115 -0.1694
  413MOL0     O55628   0.181   0.831   8.085 -0.4705  0.6590  0.3513
  413MOL0     C55629   0.101   0.720   8.133  0.4919  0.0928 -0.2433
  413MOL0     C55630  -0.047   0.756   8.109 -0.1955 -0.3009 -0.1161
  413MOL0     C55631  -0.146   0.653   8.168  0.3547 -0.6575  0.1437
  413MOL0     C55632  -0.294   0.689   8.143  0.1257 -0.6781  0.2273
  413MOL0     C55633  -0.395   0.576   8.188  0.4001 -0.5615 -0.3366
  413MOL0     C55634  -0.537   0.619   8.154 -0.4545  0.3923  0.6262
  413MOL0     C55635  -0.625   0.498   8.150  0.7546  0.4428 -0.2470
  413MOL0     C55636  -0.775   0.541   8.146  0.1638 -0.2139 -0.6106
  413MOL0     N55637  -0.861   0.425   8.173 -0.1103  0.0848  0.4971
  413MOL0     C55638  -0.914   0.385   8.292 -0.6112  0.0613 -0.1704
  413MOL0     C55639  -0.988   0.279   8.255 -0.2357 -0.3418 -0.0988
  413MOL0     C55640  -1.066   0.193   8.350  0.8542 -0.6043 -0.0346
  413MOL0     C55641  -1.215   0.221   8.352  0.2369  1.0156  0.4150
  413MOL0     C55642  -1.271   0.172   8.219  0.2466 -0.6755  0.0048
  413MOL0     C55643  -1.420   0.123   8.245 -0.4266 -0.0585  0.1964
  413MOL0     O55644  -1.465   0.070   8.120 -0.2178 -0.2823 -0.2442
  413MOL0     C55645  -1.599   0.062   8.094  0.7509  0.2553  0.7100
  413MOL0     C55646  -1.696   0.073   8.200  0.4385  1.0443  0.0269
  413MOL0     C55647  -1.833   0.051   8.177 -0.0420  0.0039 -1.0046
  413MOL0     C55648  -1.876   0.025   8.044 -1.0164  0.0506  0.2680
  413MOL0     C55649  -2.020  -0.012   8.014 -0.6353 -0.3581  0.1753
  413MOL0     O55650  -2.098  -0.062   8.121 -0.3338 -0.3402  0.0895
  413MOL0     C55651  -2.235  -0.066   8.115 -0.0046 -0.2320  0.2491
  413MOL0     C55652  -2.308  -0.190   8.125 -0.8540 -0.3754  0.4403
  413MOL0     C55653  -2.452  -0.178   8.131 -0.4351  1.1846  0.3040
  413MOL0     C55654  -2.530  -0.062   8.110  0.5735  0.5432 -0.0833
  413MOL0     O55655  -2.668  -0.074   8.120  0.2529 -0.8032 -0.2942
  413MOL0     C55656  -2.741   0.047   8.148  1.2446  0.1377  0.9416
  413MOL0     C55657  -2.860   0.020   8.240  0.3833  0.0442 -0.0685
  413MOL0     C55658  -2.976  -0.057   8.187 -0.4995  0.2229 -0.2159
  413MOL0     C55659  -3.098  -0.024   8.277  0.2270  0.2129  0.0291
  413MOL0     C55660  -3.207  -0.120   8.255 -0.3074 -0.0334 -1.0728
  413MOL0     C55661  -3.349  -0.058   8.250  0.4287  0.0089  0.4614
  413MOL0     C55662  -3.449  -0.180   8.235 -0.8192 -0.6301 -0.4627
  413MOL0     C55663  -3.589  -0.141   8.218  0.3301 -0.3465  0.4368
  413MOL0    Cl55664  -3.652  -0.090   8.378 -0.2591  0.2242  0.2210
  413MOL0     C55665  -2.450   0.054   8.099  0.2426  0.3648  0.1347
  413MOL0     C55666  -2.315   0.053   8.116  0.2482 -0.0993 -0.3131
  413MOL0     O55667  -2.070   0.018   7.910 -0.5811  0.1827  0.0450
  413MOL0     C55668  -1.786   0.032   7.936  0.9453  0.1676 -0.0839
  413MOL0     C55669  -1.647   0.048   7.958 -0.7000  0.2875 -0.6949
  413MOL0     N55670  -0.962   0.233   8.125 -0.0052  0.1741  0.1990
  413MOL0     N55671  -0.886   0.332   8.076  0.8566  0.2586 -0.5979
  413MOL0     C55672   0.389   0.915   8.026  0.1401  0.8072  0.1215
  413MOL0     C55673   0.535   0.910   8.020  0.0762 -0.5152  0.3786
  413MOL0     C55674   0.892   0.952   8.199 -0.4908 -0.4830  0.2726
  413MOL0     C55675   0.956   0.958   8.068 -0.4874  0.6334 -0.7829
  413MOL0     C55676   1.077   1.018   8.058  0.8025 -0.3905 -0.0300
  413MOL0     C55677   1.139   1.087   8.162 -0.6760 -0.1810 -0.5920
  413MOL0     O55678   1.268   1.142   8.154 -0.1168  0.1029 -0.0003
  413MOL0     C55679   1.304   1.217   8.040  0.2341 -0.5326  0.0943
  413MOL0     C55680   1.423   1.313   8.054 -0.1837 -0.9163  0.3597
  413MOL0     C55681   1.562   1.256   8.097  0.1703  0.1125  0.0171
  413MOL0     C55682   1.605   1.138   8.005 -0.1008  0.4137  0.8553
  413MOL0     C55683   1.723   1.072   8.069  0.7741  0.4023  0.7142
  413MOL0     C55684   1.826   1.034   8.121  0.1265  0.1272  0.1445
  413MOL0     C55685   1.087   1.074   8.284  0.0599 -0.3687 -0.5005
  413MOL0     C55686   0.965   1.011   8.309  0.9657 -0.4817  0.1487
  413MOL0     C55687   0.922   1.006   8.448  0.3240  0.4945 -0.0637
  413MOL0     H55688   0.567   0.604   8.171 -2.0279  0.7012  2.4306
  413MOL0     H55689   0.321   0.620   8.172  2.0810 -1.0958  0.3725
  413MOL0     H55690   0.134   0.632   8.077  2.0148  0.6893 -0.3440
  413MOL0     H55691   0.112   0.711   8.241  0.4094 -3.3057 -0.4271
  413MOL0     H55692  -0.059   0.758   8.000  4.0455  2.3096 -0.7841
  413MOL0     H55693  -0.074   0.850   8.159 -0.1102  0.2663 -1.0994
  413MOL0     H55694  -0.140   0.646   8.276  1.2511 -0.7974  0.0900
  413MOL0     H55695  -0.127   0.560   8.113 -2.4965 -1.8106  0.9222
  413MOL0     H55696  -0.312   0.788   8.187 -1.5189 -0.7389 -0.2693
  413MOL0     H55697  -0.313   0.696   8.036  0.3275 -1.3255  0.1476
  413MOL0     H55698  -0.363   0.478   8.151  4.0984 -0.3506  1.8199
  413MOL0     H55699  -0.393   0.569   8.297 -1.0538 -2.0714 -0.3770
  413MOL0     H55700  -0.561   0.689   8.235  1.4517 -0.6021  2.1515
  413MOL0     H55701  -0.530   0.659   8.052  2.5074 -0.1875  0.4871
  413MOL0     H55702  -0.596   0.428   8.228 -3.3567 -1.2867 -0.0154
  413MOL0     H55703  -0.617   0.438   8.059 -2.6230  2.4292 -2.1036
  413MOL0     H55704  -0.801   0.622   8.216  1.6712 -0.5387  0.3769
  413MOL0     H55705  -0.786   0.584   8.046  3.1028  3.1805  0.2972
  413MOL0     H55706  -0.907   0.427   8.392  1.8268 -0.0213 -0.2541
  413MOL0     H55707  -1.049   0.087   8.333 -0.2336 -1.0367  1.4121
  413MOL0     H55708  -1.026   0.215   8.449  0.1204  0.4576  0.0469
  413MOL0     H55709  -1.274   0.179   8.434  1.1469 -0.3220  0.4031
  413MOL0     H55710  -1.231   0.329   8.363 -0.5915  0.7664  1.9112
  413MOL0     H55711  -1.213   0.100   8.161  0.4307  0.0440 -0.7257
  413MOL0     H55712  -1.275   0.255   8.148  1.6923  0.8737  1.6436
  413MOL0     H55713  -1.485   0.206   8.274 -1.1306 -0.7180  0.5079
  413MOL0     H55714  -1.431   0.048   8.323 -1.6495 -0.9990 -0.8341
  413MOL0     H55715  -1.663   0.100   8.299 -0.3444  0.1894  0.5329
  413MOL0     H55716  -1.896   0.050   8.265  0.9646 -1.3385 -0.2635
  413MOL0     H55717  -2.258  -0.287   8.126  0.5481  0.3384  0.8507
  413MOL0     H55718  -2.503  -0.272   8.146  0.5358  0.6279  0.1503
  413MOL0     H55719  -2.682   0.127   8.194  1.0687  1.0705 -0.3824
  413MOL0     H55720  -2.780   0.082   8.052  1.8626  0.3614  0.7663
  413MOL0     H55721  -2.818  -0.028   8.329  2.8454  0.0906 -1.1345
  413MOL0     H55722  -2.893   0.121   8.264  0.7278 -0.0872  1.0389
  413MOL0     H55723  -2.996  -0.042   8.080 -3.6872  0.9085  0.3568
  413MOL0     H55724  -2.947  -0.162   8.196 -1.1450  0.1100  0.7993
  413MOL0     H55725  -3.132   0.075   8.243  0.2613 -0.3604 -1.7986
  413MOL0     H55726  -3.067  -0.014   8.381 -0.8868 -1.3818  0.5507
  413MOL0     H55727  -3.191  -0.180   8.345 -1.7458  1.9088  0.5576
  413MOL0     H55728  -3.183  -0.176   8.164 -2.2785 -0.7287 -1.2207
  413MOL0     H55729  -3.352  -0.007   8.346  0.1861 -1.4201  1.2379
  413MOL0     H55730  -3.369   0.013   8.169  1.1974  2.0457  1.9904
  413MOL0     H55731  -3.442  -0.238   8.328  1.9864  0.3897  0.0366
  413MOL0     H55732  -3.417  -0.234   8.146 -0.7845  0.7001 -1.2805
  413MOL0     H55733  -3.607  -0.071   8.135  2.3949 -1.1848 -0.7910
  413MOL0     H55734  -3.630  -0.241   8.199 -0.1324 -0.1031  0.1353
  413MOL0     H55735  -2.499   0.149   8.080 -2.6473 -0.2861  3.2374
  413MOL0     H55736  -2.265   0.149   8.109 -0.3985  0.1107 -2.9366
  413MOL0     H55737  -1.830   0.008   7.840 -0.9823 -1.3371  1.1024
  413MOL0     H55738  -1.577   0.025   7.879 -0.0727 -1.7636  0.3733
  413MOL0     H55739   0.330   0.990   7.976  0.9037  1.4496  0.1550
  413MOL0     H55740   0.596   0.990   7.981  2.1453 -2.2122 -0.0274
  413MOL0     H55741   0.917   0.904   7.982 -0.3125 -0.1543 -0.3704
  413MOL0     H55742   1.122   1.022   7.959  1.8064  0.1978  0.4371
  413MOL0     H55743   1.215   1.269   8.003  0.1785  0.1549  1.1421
  413MOL0     H55744   1.329   1.141   7.965  0.4659 -1.5134  1.1503
  413MOL0     H55745   1.397   1.389   8.129  2.0669  2.1300 -1.7408
  413MOL0     H55746   1.437   1.371   7.963 -3.4030 -2.2383 -1.1512
  413MOL0     H55747   1.559   1.220   8.200  0.6164 -0.8954 -0.3109
  413MOL0     H55748   1.640   1.332   8.092 -1.0777  1.4623  0.3682
  413MOL0     H55749   1.523   1.068   7.985  0.9657 -1.0233  1.3581
  413MOL0     H55750   1.630   1.175   7.905 -2.2282 -0.3054 -0.0003
  413MOL0     H55751   1.922   1.014   8.165  0.8407  0.1781 -1.3394
  413MOL0     H55752   1.159   1.102   8.360  1.2342 -0.3699 -1.5732
  413MOL0     H55753   0.830   1.065   8.452  0.4173  0.7026 -0.8273
  413MOL0     H55754   0.900   0.904   8.481 -1.7472  0.4857 -1.3535
  413MOL0     H55755   0.999   1.040   8.519  1.2990  1.4551 -1.5279
  414MOL0     O55756  10.982  10.377   4.353 -0.1177  0.7353 -0.6487
  414MOL0     C55757  11.028  10.271   4.397 -0.6769  0.2976  0.6319
  414MOL0     O55758  11.150  10.244   4.443  0.1750 -0.7303  1.1181
  414MOL0     C55759  11.255  10.335   4.460  0.4107  0.4166  0.5760
  414MOL0     C55760  11.268  10.463   4.407 -0.6561  0.3213  0.0687
  414MOL0     C55761  11.392  10.534   4.408  0.3548 -0.3676 -0.9759
  414MOL0     C55762  11.505  10.482   4.473  0.1413  0.2480 -0.9903
  414MOL0     O55763  11.614  10.559   4.487 -0.1484  0.8058 -0.3417
  414MOL0     C55764  11.734  10.515   4.563  0.1059  0.7703  0.0264
  414MOL0     C55765  11.826  10.630   4.590 -0.1277 -0.5107  0.1118
  414MOL0     C55766  11.954  10.599   4.666 -0.1873  0.8803 -0.6318
  414MOL0     C55767  12.047  10.726   4.652 -0.0216  0.7060 -0.6366
  414MOL0     C55768  12.183  10.689   4.679  0.8459 -0.2486  0.8716
  414MOL0     C55769  12.294  10.796   4.654 -0.3371 -0.5510 -0.0552
  414MOL0     C55770  12.442  10.743   4.651  0.7916  0.4025  0.2472
  414MOL0     C55771  12.472  10.665   4.783 -0.0508 -1.1290  0.2506
  414MOL0     N55772  12.603  10.608   4.805  0.4866  0.2987 -0.1929
  414MOL0     C55773  12.710  10.695   4.813  0.0612 -0.0899 -0.4149
  414MOL0     C55774  12.809  10.633   4.887 -0.2941 -0.2946 -0.4378
  414MOL0     C55775  12.946  10.696   4.924 -0.6757 -0.0607 -0.7084
  414MOL0     C55776  13.024  10.737   4.805 -0.8468  0.4843 -0.2005
  414MOL0     C55777  13.171  10.714   4.811  0.0271  0.3676 -0.9089
  414MOL0     C55778  13.212  10.588   4.733  0.5949  0.3386 -0.7114
  414MOL0     O55779  13.338  10.547   4.784  0.2199  0.3078  0.7981
  414MOL0     C55780  13.439  10.494   4.703  0.8230  0.2020  0.4861
  414MOL0     C55781  13.558  10.454   4.763 -0.5111  0.0150  0.2999
  414MOL0     C55782  13.652  10.380   4.694  0.1821 -0.4310  0.4332
  414MOL0     C55783  13.622  10.343   4.563  0.3944  0.5717  0.2923
  414MOL0     C55784  13.720  10.254   4.497 -0.4390  0.0669  0.3169
  414MOL0     O55785  13.801  10.191   4.585 -0.1004 -0.2767  0.4574
  414MOL0     C55786  13.927  10.157   4.535  0.8097 -0.8291  0.4823
  414MOL0     C55787  13.977  10.026   4.503 -0.1498 -0.7930  0.1808
  414MOL0     C55788  14.105  10.001   4.459 -0.1009 -0.9353  0.0280
  414MOL0     C55789  14.193  10.112   4.453 -0.1352  0.3395  0.0724
  414MOL0     O55790  14.327  10.104   4.421 -1.3190  0.0731 -0.3304
  414MOL0     C55791  14.395   9.989   4.452  0.1202 -0.4593 -0.3676
  414MOL0     C55792  14.542  10.032   4.496 -0.2331 -0.9362  0.9039
  414MOL0     C55793  14.608   9.919   4.560 -0.2656  0.8037 -0.6818
  414MOL0     C55794  14.726   9.971   4.639 -0.0483  0.9596  0.3307
  414MOL0     C55795  14.787   9.856   4.718  0.5249  0.0031 -0.4406
  414MOL0     C55796  14.912   9.895   4.792  0.1608 -0.7624 -0.3777
  414MOL0     C55797  15.006   9.776   4.799 -0.2597 -0.7360  0.5940
  414MOL0     C55798  15.143   9.821   4.851 -0.9628  0.5705  0.1252
  414MOL0    Cl55799  15.147   9.881   5.017  0.0276  0.1437 -0.1954
  414MOL0     C55800  14.141  10.241   4.481 -0.1948 -0.4850 -1.1329
  414MOL0     C55801  14.010  10.263   4.518 -0.6718 -0.3999 -0.1416
  414MOL0     O55802  13.719  10.237   4.378  0.1921  0.0154 -0.2329
  414MOL0     C55803  13.504  10.376   4.499  0.4437  0.1654 -0.1924
  414MOL0     C55804  13.418  10.460   4.564  0.2511  0.1187  0.0244
  414MOL0     N55805  12.753  10.506   4.922 -0.6704 -0.6068 -0.0270
  414MOL0     N55806  12.637  10.489   4.873 -0.1542  0.1464  0.2220
  414MOL0     C55807  11.493  10.353   4.529 -0.3968  0.0005  0.4048
  414MOL0     C55808  11.372  10.280   4.521 -0.7256  0.6429  0.7288
  414MOL0     C55809  10.928  10.153   4.405 -0.9411 -0.5413  0.5214
  414MOL0     C55810  10.961  10.051   4.496 -0.2185  0.4997 -0.1688
  414MOL0     C55811  10.898   9.931   4.492 -0.1993  0.3798  0.4211
  414MOL0     C55812  10.778   9.912   4.419 -0.1861  0.2931 -0.1043
  414MOL0     O55813  10.729   9.788   4.430  0.5421  0.2188 -0.1461
  414MOL0     C55814  10.598   9.764   4.365  0.0873  0.2365  0.3251
  414MOL0     C55815  10.514   9.647   4.421  0.0520  0.5023  0.2079
  414MOL0     C55816  10.475   9.671   4.567  0.0384  0.2451 -0.3849
  414MOL0     C55817  10.415   9.543   4.636 -0.2452 -0.2272 -1.0389
  414MOL0     C55818  10.313   9.492   4.553 -0.4732  0.2260 -0.0214
  414MOL0     C55819  10.239   9.423   4.491  0.7145 -0.6666 -0.1624
  414MOL0     C55820  10.740  10.017   4.339 -0.0133  0.0046 -0.0510
  414MOL0     C55821  10.812  10.137   4.325  0.8483  0.0086 -0.7797
  414MOL0     C55822  10.742  10.248   4.244 -0.2724  0.8463  0.3451
  414MOL0     H55823  11.177  10.515   4.378 -2.0154 -0.8671  1.9055
  414MOL0     H55824  11.374  10.638   4.383 -0.7792  1.5008  5.7047
  414MOL0     H55825  11.716  10.469   4.660  0.3255 -3.1601 -1.6056
  414MOL0     H55826  11.785  10.446   4.495  1.6527 -0.0658  1.9282
  414MOL0     H55827  11.770  10.702   4.650 -0.6271 -0.3374 -0.5600
  414MOL0     H55828  11.849  10.681   4.496 -0.7803 -1.6467 -0.6905
  414MOL0     H55829  11.997  10.508   4.622  0.2896 -0.3439  2.1564
  414MOL0     H55830  11.936  10.563   4.768  3.2600  1.0648  0.1590
  414MOL0     H55831  12.048  10.765   4.550 -1.6415 -1.7513 -1.6608
  414MOL0     H55832  12.015  10.806   4.720 -0.2363 -0.5618  0.8193
  414MOL0     H55833  12.188  10.637   4.775  1.5545 -1.6771  0.0945
  414MOL0     H55834  12.206  10.609   4.609  1.1137  0.0907  0.5686
  414MOL0     H55835  12.277  10.841   4.556  0.5975 -1.0264 -0.4518
  414MOL0     H55836  12.284  10.877   4.727 -0.1449  1.1420 -1.8580
  414MOL0     H55837  12.509  10.830   4.648  0.0419  1.1173  2.2590
  414MOL0     H55838  12.457  10.682   4.562 -1.2226  1.3696 -0.8382
  414MOL0     H55839  12.457  10.739   4.862 -0.3193  0.1953 -0.9985
  414MOL0     H55840  12.392  10.592   4.794 -0.6794 -0.9824 -2.6810
  414MOL0     H55841  12.729  10.791   4.765  1.3333 -0.6747 -1.1281
  414MOL0     H55842  12.920  10.776   4.994 -2.0295  0.0599 -1.3246
  414MOL0     H55843  12.999  10.618   4.980  0.3063  0.8283 -0.3681
  414MOL0     H55844  12.985  10.685   4.717  0.4536 -0.3791 -0.2851
  414MOL0     H55845  13.002  10.843   4.786 -1.7931  0.2996 -0.1635
  414MOL0     H55846  13.201  10.704   4.916 -0.1633 -1.4177 -0.9879
  414MOL0     H55847  13.228  10.797   4.770  1.4222 -0.2552 -0.3148
  414MOL0     H55848  13.227  10.619   4.630  0.2885  0.2604 -0.7822
  414MOL0     H55849  13.134  10.512   4.731  0.6730  0.2462 -0.2883
  414MOL0     H55850  13.573  10.486   4.866 -0.6038  1.6572 -0.1689
  414MOL0     H55851  13.754  10.372   4.729  0.8506  3.3153 -0.1857
  414MOL0     H55852  13.904   9.948   4.524 -1.3684  0.5652  1.1663
  414MOL0     H55853  14.134   9.902   4.427 -1.0369 -1.7763  1.6507
  414MOL0     H55854  14.352   9.924   4.529 -0.8665  1.9080  1.2244
  414MOL0     H55855  14.408   9.936   4.358  0.5067  1.1727 -1.2732
  414MOL0     H55856  14.594  10.062   4.404  1.1873 -0.1868  1.8959
  414MOL0     H55857  14.539  10.117   4.565 -1.4856 -0.8918  0.8109
  414MOL0     H55858  14.546   9.859   4.628 -0.5318  1.4771 -0.3155
  414MOL0     H55859  14.623   9.847   4.479 -0.5432  0.1323 -0.1503
  414MOL0     H55860  14.699  10.043   4.716  1.0070  0.4737  1.1800
  414MOL0     H55861  14.799  10.010   4.567 -1.7408  0.8297 -1.5419
  414MOL0     H55862  14.816   9.780   4.645  2.3615 -0.4895  0.7494
  414MOL0     H55863  14.718   9.818   4.794  0.8836  3.0665  1.6028
  414MOL0     H55864  14.962   9.968   4.728 -1.8449  1.4657  0.4461
  414MOL0     H55865  14.896   9.940   4.890  1.5205 -2.1788  0.5460
  414MOL0     H55866  15.014   9.733   4.699 -0.9336 -0.6038  0.4776
  414MOL0     H55867  14.964   9.694   4.859 -2.3553 -2.0679 -2.4375
  414MOL0     H55868  15.201   9.728   4.856 -0.6381  0.6469 -1.4753
  414MOL0     H55869  15.194   9.883   4.777  2.4754 -3.0120 -0.8701
  414MOL0     H55870  14.213  10.323   4.480 -2.3038  1.4412 -2.0438
  414MOL0     H55871  13.986  10.363   4.552  1.9582 -0.9709  4.0536
  414MOL0     H55872  13.475  10.344   4.399  2.0839  0.2901 -0.7443
  414MOL0     H55873  13.324  10.486   4.518 -1.1309  0.3932  2.7614
  414MOL0     H55874  11.573  10.299   4.578  0.0062 -1.8934 -2.1292
  414MOL0     H55875  11.368  10.178   4.557 -0.1664  0.5778  0.6250
  414MOL0     H55876  11.051  10.062   4.557 -0.1209 -0.5585 -0.0966
  414MOL0     H55877  10.942   9.854   4.555 -1.3330  0.0646  0.8459
  414MOL0     H55878  10.620   9.738   4.261  3.1310 -2.3160  1.4367
  414MOL0     H55879  10.537   9.854   4.369  0.3873  0.3952  2.4446
  414MOL0     H55880  10.586   9.565   4.428  1.5773  1.9397  3.2089
  414MOL0     H55881  10.426   9.630   4.359 -0.8357 -2.5486  2.0953
  414MOL0     H55882  10.404   9.754   4.564 -0.2182  0.2880  2.9936
  414MOL0     H55883  10.560   9.705   4.627 -0.2958 -0.1910  0.3533
  414MOL0     H55884  10.499   9.476   4.658  1.1168  1.6267 -0.3119
  414MOL0     H55885  10.366   9.579   4.727  1.0537 -0.0870 -0.3749
  414MOL0     H55886  10.160   9.384   4.430  0.0177 -1.5214  1.2401
  414MOL0     H55887  10.654   9.996   4.276  1.3783 -1.3709 -1.5894
  414MOL0     H55888  10.726  10.328   4.318  0.2303 -0.0726  1.4772
  414MOL0     H55889  10.812  10.277   4.166  0.8279 -2.9156 -0.2617
  414MOL0     H55890  10.647  10.215   4.200  0.5301  1.3949 -1.9477
  415MOL0     O55891   8.973   4.379   9.793  0.2426  0.6003 -0.0338
  415MOL0     C55892   8.910   4.297   9.853  0.0862 -0.2784 -0.4486
  415MOL0     O55893   8.966   4.191   9.933  0.2351 -0.6545 -0.3469
  415MOL0     C55894   9.095   4.195   9.964 -1.0939 -0.7061  0.2261
  415MOL0     C55895   9.176   4.088   9.909  0.0472 -0.1594  0.0226
  415MOL0     C55896   9.312   4.088   9.952 -0.1966 -0.3789  0.6956
  415MOL0     C55897   9.370   4.183  10.036  0.2939  0.4822 -0.8484
  415MOL0     O55898   9.503   4.197  10.062 -0.8071  0.1390  0.1378
  415MOL0     C55899   9.594   4.124   9.988 -0.0138  0.5792 -0.1937
  415MOL0     C55900   9.743   4.169   9.996  0.3250 -1.3466  0.8954
  415MOL0     C55901   9.803   4.166  10.140 -1.0696  0.1615  0.4544
  415MOL0     C55902   9.957   4.181  10.141 -0.8664 -0.3669  0.0391
  415MOL0     C55903  10.032   4.193  10.278 -0.1411 -0.9551 -0.4413
  415MOL0     C55904  10.187   4.231  10.263  0.6284  0.1851  0.1144
  415MOL0     C55905  10.252   4.311  10.380 -0.0390  0.1205 -0.6340
  415MOL0     C55906  10.400   4.319  10.352 -0.6916  0.2465  0.6127
  415MOL0     N55907  10.429   4.436  10.269  0.1920 -0.2441 -0.0020
  415MOL0     C55908  10.484   4.552  10.321 -0.0038 -0.2492  0.6118
  415MOL0     C55909  10.543   4.611  10.215  0.0668 -0.1649  0.0688
  415MOL0     C55910  10.612   4.739  10.223 -0.6332 -0.0319 -0.5303
  415MOL0     C55911  10.760   4.737  10.188  0.2151  0.2587  0.2479
  415MOL0     C55912  10.826   4.868  10.230  0.1722 -0.0073 -0.8139
  415MOL0     C55913  10.979   4.878  10.218  0.9531 -1.0411 -1.0540
  415MOL0     O55914  11.045   4.764  10.281  0.0667 -0.2225  0.0181
  415MOL0     C55915  11.183   4.754  10.293 -0.2517 -0.0260  0.4937
  415MOL0     C55916  11.274   4.857  10.262  0.7077 -0.8196  0.2921
  415MOL0     C55917  11.406   4.836  10.283 -1.0009  0.5639 -0.4630
  415MOL0     C55918  11.461   4.716  10.328  0.0141  0.3999 -0.6145
  415MOL0     C55919  11.605   4.694  10.343  0.2492  0.7738  0.0580
  415MOL0     O55920  11.698   4.800  10.312 -0.4622  0.7150 -0.5859
  415MOL0     C55921  11.832   4.761  10.311  0.2378  0.2184  0.5377
  415MOL0     C55922  11.910   4.755  10.193  0.2784  0.1298 -0.2486
  415MOL0     C55923  12.043   4.717  10.199 -0.0002 -0.4158  0.1701
  415MOL0     C55924  12.109   4.702  10.321  0.7299 -0.2148 -0.5627
  415MOL0     O55925  12.244   4.688  10.338 -0.2485  0.4807  0.1002
  415MOL0     C55926  12.310   4.585  10.263 -0.2481 -0.5913 -1.1191
  415MOL0     C55927  12.464   4.612  10.266 -0.2084  0.0032 -0.0089
  415MOL0     C55928  12.531   4.546  10.383  0.2703 -0.4200  0.1523
  415MOL0     C55929  12.683   4.537  10.366  0.6863 -0.9698 -0.3581
  415MOL0     C55930  12.738   4.509  10.505  0.0348  0.4350  0.3300
  415MOL0     C55931  12.884   4.454  10.497  0.0218 -0.0119  0.0147
  415MOL0     C55932  12.918   4.417  10.639  0.2125  0.0131 -0.0613
  415MOL0     C55933  13.062   4.441  10.675 -0.2933 -0.6037 -0.2023
  415MOL0    Cl55934  13.162   4.325  10.575  0.2765 -0.0094 -0.3376
  415MOL0     C55935  12.030   4.726  10.440  0.3288  0.1118 -0.4052
  415MOL0     C55936  11.891   4.745  10.437 -0.1546 -0.3492  0.3910
  415MOL0     O55937  11.640   4.578  10.379 -0.1166 -0.3656 -0.3299
  415MOL0     C55938  11.367   4.618  10.355 -0.2910  0.9965 -0.0241
  415MOL0     C55939  11.231   4.630  10.331 -1.0346  0.7961  0.7781
  415MOL0     N55940  10.501   4.545  10.100 -0.9543 -0.8494  0.4032
  415MOL0     N55941  10.431   4.440  10.133 -0.0757 -0.3282 -0.2521
  415MOL0     C55942   9.285   4.284  10.093  0.2557 -0.4514 -0.1088
  415MOL0     C55943   9.149   4.295  10.049  0.0472  0.0304  0.5799
  415MOL0     C55944   8.765   4.293   9.835  1.4309 -0.2051 -0.0009
  415MOL0     C55945   8.709   4.359   9.720 -0.5570  0.3989 -0.2373
  415MOL0     C55946   8.567   4.354   9.704 -0.3397 -1.1180 -0.5287
  415MOL0     C55947   8.478   4.303   9.799  0.0214 -0.0169 -0.0019
  415MOL0     O55948   8.341   4.289   9.783  0.0081  0.2588  0.2627
  415MOL0     C55949   8.274   4.315   9.655 -0.3693  0.3037  0.3879
  415MOL0     C55950   8.125   4.318   9.661  0.3440  0.0632  0.1222
  415MOL0     C55951   8.072   4.446   9.738  0.0307 -0.2980 -0.6254
  415MOL0     C55952   7.997   4.544   9.643 -1.0890  1.5309 -0.8137
  415MOL0     C55953   8.096   4.580   9.540 -0.5085  1.2114 -0.2653
  415MOL0     C55954   8.173   4.623   9.453  0.7670 -0.5583 -0.6519
  415MOL0     C55955   8.533   4.244   9.911 -0.2238 -0.1048 -0.0449
  415MOL0     C55956   8.677   4.231   9.926 -0.5404  0.0788 -0.3193
  415MOL0     C55957   8.719   4.156  10.047 -0.0701  0.4615  0.5025
  415MOL0     H55958   9.133   4.017   9.840 -0.3953  0.9466 -0.8652
  415MOL0     H55959   9.382   4.014   9.915 -0.4897 -0.8055  0.9870
  415MOL0     H55960   9.603   4.020  10.024  0.9260  1.6365  3.0043
  415MOL0     H55961   9.565   4.130   9.883  1.6210 -1.9951 -0.9023
  415MOL0     H55962   9.748   4.270   9.954 -1.3621 -1.4928  0.2592
  415MOL0     H55963   9.787   4.104   9.920  0.9184  0.1501 -0.0842
  415MOL0     H55964   9.768   4.072  10.185 -0.9589  0.1979  0.6184
  415MOL0     H55965   9.753   4.242  10.201 -3.7117  0.5440 -1.9723
  415MOL0     H55966  10.014   4.102  10.090 -0.1035  0.2303 -0.0551
  415MOL0     H55967   9.980   4.266  10.077 -2.9560 -0.2085 -0.5703
  415MOL0     H55968   9.985   4.250  10.358 -1.6971 -3.6321  0.6793
  415MOL0     H55969  10.032   4.093  10.322  1.6198 -0.0500  1.8363
  415MOL0     H55970  10.251   4.144  10.247  1.4746  0.7877  0.2061
  415MOL0     H55971  10.200   4.296  10.176  1.1546  1.2884  0.9901
  415MOL0     H55972  10.237   4.251  10.470  1.8198 -1.3436 -1.2531
  415MOL0     H55973  10.211   4.409  10.408 -0.5743 -1.0151  3.1356
  415MOL0     H55974  10.456   4.329  10.445  0.2466  2.0235 -0.0935
  415MOL0     H55975  10.435   4.238  10.288 -0.5646  1.3234 -0.7267
  415MOL0     H55976  10.469   4.587  10.423  1.1658 -0.1299  0.7564
  415MOL0     H55977  10.571   4.816  10.158  3.1633  0.9373 -2.0335
  415MOL0     H55978  10.595   4.785  10.321 -0.5982  0.4761 -0.7575
  415MOL0     H55979  10.811   4.655  10.239  2.4534  1.7236  0.5207
  415MOL0     H55980  10.766   4.722  10.080  1.6990 -1.5016  0.5255
  415MOL0     H55981  10.802   4.896  10.333  2.0167  1.0838 -0.6254
  415MOL0     H55982  10.781   4.950  10.174 -1.0157 -0.9544 -1.2745
  415MOL0     H55983  11.012   4.975  10.258 -2.1824 -0.0782 -0.4870
  415MOL0     H55984  10.995   4.864  10.111  0.3611  3.3385 -1.9253
  415MOL0     H55985  11.251   4.954  10.220  0.2742 -0.5297  1.1757
  415MOL0     H55986  11.477   4.916  10.261  1.1904 -0.6840  1.5513
  415MOL0     H55987  11.862   4.776  10.097 -1.8974 -1.3451  0.4497
  415MOL0     H55988  12.099   4.722  10.106 -1.7647  0.0021 -0.9191
  415MOL0     H55989  12.282   4.489  10.308 -0.2889  0.4213  1.1650
  415MOL0     H55990  12.283   4.592  10.158  2.1794 -0.5941 -1.7993
  415MOL0     H55991  12.510   4.552  10.186  1.8869 -1.8434  2.4232
  415MOL0     H55992  12.490   4.717  10.254  1.9867 -0.4245  0.6134
  415MOL0     H55993  12.505   4.608  10.469  2.3221  3.0397 -1.5129
  415MOL0     H55994  12.487   4.446  10.393  0.2672 -1.1428 -4.5796
  415MOL0     H55995  12.723   4.630  10.326 -1.0606  1.0832  2.3125
  415MOL0     H55996  12.691   4.442  10.312 -1.8389 -1.5038  0.0591
  415MOL0     H55997  12.672   4.438  10.556  0.5862 -0.7344 -0.5236
  415MOL0     H55998  12.733   4.596  10.570  1.0961 -0.4045  1.5880
  415MOL0     H55999  12.890   4.371  10.426  2.7485 -0.2712  0.4375
  415MOL0     H56000  12.950   4.529  10.452  0.0757 -0.7941 -1.2466
  415MOL0     H56001  12.899   4.312  10.662  3.0262  0.3104  5.2676
  415MOL0     H56002  12.862   4.479  10.709 -0.0218 -0.6160  0.3085
  415MOL0     H56003  13.091   4.544  10.653  1.7643 -1.0258  0.2564
  415MOL0     H56004  13.089   4.419  10.779  3.0962  0.2307 -0.7829
  415MOL0     H56005  12.074   4.707  10.538 -0.4626  0.4085  0.0190
  415MOL0     H56006  11.827   4.764  10.523 -0.2354  1.1167  0.0261
  415MOL0     H56007  11.403   4.528  10.403 -2.3127  0.8237  1.2895
  415MOL0     H56008  11.177   4.537  10.343  2.7487 -1.5699  1.1580
  415MOL0     H56009   9.328   4.359  10.159  2.6898 -3.6343  2.2310
  415MOL0     H56010   9.083   4.376  10.078  0.7902  0.2851  1.6328
  415MOL0     H56011   8.774   4.403   9.645 -1.1779 -1.8070 -2.1791
  415MOL0     H56012   8.518   4.409   9.625  3.0081  3.5931  0.2394
  415MOL0     H56013   8.297   4.227   9.594 -1.6582 -0.8276  1.4883
  415MOL0     H56014   8.313   4.402   9.601 -0.8592 -0.7353 -1.7330
  415MOL0     H56015   8.097   4.230   9.720  1.9364 -1.3808 -1.1765
  415MOL0     H56016   8.087   4.310   9.559  1.4566 -1.4781 -0.2241
  415MOL0     H56017   8.156   4.487   9.794  0.2696  2.2274 -2.6366
  415MOL0     H56018   8.006   4.400   9.813 -0.8305 -0.6426 -1.5675
  415MOL0     H56019   7.906   4.493   9.611  0.3540 -1.5814 -0.2588
  415MOL0     H56020   7.960   4.632   9.696 -3.3316 -0.1368  0.5735
  415MOL0     H56021   8.233   4.669   9.377 -1.0120  0.6214 -1.4103
  415MOL0     H56022   8.470   4.191   9.982 -2.5691  0.5957 -1.4836
  415MOL0     H56023   8.638   4.120  10.112  0.1654  1.7176  1.5076
  415MOL0     H56024   8.789   4.075  10.022  2.9140  3.2088 -0.6691
  415MOL0     H56025   8.778   4.225  10.107 -2.5497  1.3733  2.0588
  416MOL0     O56026   4.044  10.857   9.207  0.4341 -0.5600 -0.2918
  416MOL0     C56027   4.011  10.882   9.323 -0.4925 -0.9017  0.3518
  416MOL0     O56028   4.027  10.793   9.435  0.8665 -0.1912  0.1378
  416MOL0     C56029   4.124  10.694   9.435 -0.4527 -1.1044  0.2129
  416MOL0     C56030   4.099  10.613   9.549 -0.2798 -1.0059  0.0806
  416MOL0     C56031   4.198  10.510   9.579  0.4208  0.3655  0.2603
  416MOL0     C56032   4.309  10.488   9.493  0.5035 -0.1025 -0.4587
  416MOL0     O56033   4.404  10.398   9.533 -0.3311  0.1501  0.0953
  416MOL0     C56034   4.538  10.405   9.483 -0.1497 -1.0489  0.0706
  416MOL0     C56035   4.641  10.352   9.576 -0.6564 -0.6542 -0.7495
  416MOL0     C56036   4.622  10.195   9.603  0.4120 -0.0395 -0.7904
  416MOL0     C56037   4.718  10.136   9.714  0.0136 -0.9119 -0.6800
  416MOL0     C56038   4.705  10.205   9.847 -0.0678 -0.1730 -0.3224
  416MOL0     C56039   4.807  10.147   9.954 -0.0598 -0.1734  0.4688
  416MOL0     C56040   4.760  10.234  10.080  1.1287 -0.3777  0.0005
  416MOL0     C56041   4.815  10.179  10.210  0.2341  0.4439 -0.6803
  416MOL0     N56042   4.954  10.228  10.218  0.0536  0.1436  0.7011
  416MOL0     C56043   4.984  10.364  10.237  0.5382 -0.4170 -0.0940
  416MOL0     C56044   5.117  10.358  10.233 -0.8458  0.0728 -0.9543
  416MOL0     C56045   5.201  10.470  10.272 -0.0607  0.5868  0.3472
  416MOL0     C56046   5.352  10.456  10.261 -0.0005  0.2667 -0.2735
  416MOL0     C56047   5.400  10.352  10.367  0.3117 -0.5893 -0.5354
  416MOL0     C56048   5.549  10.312  10.358 -0.2478 -0.2748  0.6769
  416MOL0     O56049   5.632  10.432  10.360 -0.2496 -0.6561 -0.0544
  416MOL0     C56050   5.757  10.418  10.308 -0.2709 -0.2242  0.0983
  416MOL0     C56051   5.816  10.310  10.248  0.0812  0.7910 -0.0862
  416MOL0     C56052   5.952  10.304  10.213  0.1203  0.3305 -1.1151
  416MOL0     C56053   6.034  10.419  10.233  0.2627 -0.0751  0.4274
  416MOL0     C56054   6.177  10.400  10.210 -0.1064 -0.7851 -0.2911
  416MOL0     O56055   6.247  10.517  10.208  0.2540 -0.0841  1.2162
  416MOL0     C56056   6.385  10.531  10.192 -0.0560  0.5863  0.6539
  416MOL0     C56057   6.483  10.449  10.240  0.6219  0.3399 -0.1515
  416MOL0     C56058   6.617  10.486  10.218  0.6835 -0.0972  0.6922
  416MOL0     C56059   6.658  10.598  10.149 -0.5483 -1.2701  0.4705
  416MOL0     O56060   6.788  10.630  10.103  0.7541 -0.2142  0.6478
  416MOL0     C56061   6.910  10.561  10.114 -0.9241  0.1697  0.4631
  416MOL0     C56062   7.008  10.659  10.043  0.5037  0.3398 -0.3631
  416MOL0     C56063   7.148  10.591  10.015 -1.4893 -0.5725 -0.4734
  416MOL0     C56064   7.246  10.709   9.990  0.6289 -0.0919 -0.1091
  416MOL0     C56065   7.385  10.653   9.986 -0.8212 -0.5964 -0.4911
  416MOL0     C56066   7.493  10.754   9.931 -0.5332  0.9737  0.1524
  416MOL0     C56067   7.645  10.714   9.961 -0.9048  0.0336  0.1011
  416MOL0     C56068   7.733  10.829   9.964  0.8013 -0.8152  0.2898
  416MOL0    Cl56069   7.737  10.902   9.795  0.7335 -0.1905 -0.5907
  416MOL0     C56070   6.557  10.682  10.091 -0.0262  0.2706 -0.7300
  416MOL0     C56071   6.423  10.641  10.113 -0.2423 -0.2465  0.0227
  416MOL0     O56072   6.227  10.289  10.203  0.3105 -0.5978  0.2370
  416MOL0     C56073   5.976  10.544  10.286  0.8388  0.2323  0.5149
  416MOL0     C56074   5.836  10.533  10.320 -0.5108 -0.6094 -0.5506
  416MOL0     N56075   5.169  10.232  10.194  0.0528  0.3067  0.4239
  416MOL0     N56076   5.068  10.159  10.174  0.0871 -0.6479 -0.6132
  416MOL0     C56077   4.327  10.578   9.384 -0.0239  0.1637  0.6039
  416MOL0     C56078   4.237  10.678   9.357  0.3496 -0.8830 -0.4301
  416MOL0     C56079   3.932  11.011   9.343 -0.3326  0.1255 -0.0259
  416MOL0     C56080   3.860  11.028   9.466 -0.3041 -1.1701 -0.1413
  416MOL0     C56081   3.781  11.143   9.488 -0.5811 -0.1755  1.0490
  416MOL0     C56082   3.777  11.250   9.393 -0.2662  0.4498 -0.0848
  416MOL0     O56083   3.716  11.367   9.404 -0.0403  0.4815 -0.5042
  416MOL0     C56084   3.598  11.380   9.484 -0.0554  0.0716 -0.3733
  416MOL0     C56085   3.532  11.519   9.478 -0.9225  0.0464  0.0633
  416MOL0     C56086   3.414  11.529   9.566 -0.4213  0.1104 -0.2995
  416MOL0     C56087   3.344  11.660   9.545 -0.1459  0.4821  0.3869
  416MOL0     C56088   3.250  11.665   9.426 -0.0521 -0.2161 -0.2396
  416MOL0     C56089   3.179  11.655   9.326 -0.3167 -0.7790  0.5268
  416MOL0     C56090   3.862  11.246   9.283 -1.0675  0.4402  0.3309
  416MOL0     C56091   3.937  11.132   9.257  0.4088  0.2404  0.1309
  416MOL0     C56092   4.026  11.134   9.141 -0.5908  0.9927  0.7458
  416MOL0     H56093   4.010  10.630   9.609 -1.2529 -1.5900 -1.1352
  416MOL0     H56094   4.175  10.454   9.669 -1.7850  1.8247  0.6930
  416MOL0     H56095   4.552  10.347   9.391  0.0526  0.1694 -0.6812
  416MOL0     H56096   4.567  10.509   9.465  1.3516 -1.4359  0.1174
  416MOL0     H56097   4.644  10.412   9.667  2.6708 -1.3573 -0.2817
  416MOL0     H56098   4.739  10.376   9.533 -0.3444 -0.4054  0.0876
  416MOL0     H56099   4.633  10.138   9.511  1.1559  1.0332 -1.3834
  416MOL0     H56100   4.519  10.187   9.641  0.7762 -0.0718  0.2222
  416MOL0     H56101   4.692  10.031   9.731  1.3568 -0.5781  6.2993
  416MOL0     H56102   4.823  10.146   9.687  0.5947 -1.2563  1.3075
  416MOL0     H56103   4.725  10.312   9.837 -0.2819  0.0475  1.3367
  416MOL0     H56104   4.605  10.193   9.888  0.5378 -0.3179  1.1807
  416MOL0     H56105   4.800  10.038   9.966  3.2594 -0.9352 -2.6552
  416MOL0     H56106   4.912  10.173   9.935 -0.1885  0.6509  0.8219
  416MOL0     H56107   4.652  10.229  10.091  0.9225 -1.1840 -1.9962
  416MOL0     H56108   4.791  10.339  10.087  1.7757 -0.6501  2.5470
  416MOL0     H56109   4.758  10.222  10.292 -3.0312 -1.1523 -1.9474
  416MOL0     H56110   4.798  10.072  10.223 -2.5782  0.6312 -2.1422
  416MOL0     H56111   4.922  10.449  10.265 -0.4567 -0.8758 -0.8479
  416MOL0     H56112   5.176  10.539  10.190  1.3623 -1.2118 -1.7117
  416MOL0     H56113   5.170  10.514  10.367  0.7852 -0.4009  1.1028
  416MOL0     H56114   5.385  10.423  10.162 -1.1321 -0.6017 -0.3886
  416MOL0     H56115   5.391  10.553  10.290  0.7140 -0.6485  2.0437
  416MOL0     H56116   5.337  10.263  10.375 -1.2478  0.5125 -0.1368
  416MOL0     H56117   5.384  10.392  10.468  2.1802 -2.4224  0.5684
  416MOL0     H56118   5.553  10.275  10.255 -0.7764  0.1325  0.5052
  416MOL0     H56119   5.588  10.235  10.425  1.2100 -0.7171 -0.6151
  416MOL0     H56120   5.768  10.212  10.247 -1.2485  1.3946  1.3151
  416MOL0     H56121   5.999  10.212  10.181  0.2635 -1.3602  3.3117
  416MOL0     H56122   6.468  10.362  10.303 -1.2938  1.1844  0.6260
  416MOL0     H56123   6.695  10.418  10.251  0.4226  0.5897  2.8105
  416MOL0     H56124   6.938  10.533  10.216  0.4782  1.6248  0.5007
  416MOL0     H56125   6.898  10.473  10.050  0.5868 -2.5536  3.6035
  416MOL0     H56126   6.964  10.697   9.951  0.3030 -2.4628 -1.5158
  416MOL0     H56127   7.029  10.731  10.123 -1.8596 -0.9327  1.5221
  416MOL0     H56128   7.190  10.525  10.092  0.2510  0.7098 -0.2749
  416MOL0     H56129   7.147  10.539   9.918  2.3912 -3.6108  0.8442
  416MOL0     H56130   7.238  10.777  10.076 -1.6773 -2.1024  1.4137
  416MOL0     H56131   7.228  10.764   9.897  3.6366  2.1096  0.4719
  416MOL0     H56132   7.383  10.561   9.925  0.8749 -1.0018  0.0131
  416MOL0     H56133   7.410  10.629  10.089 -1.1646  0.5843 -0.1251
  416MOL0     H56134   7.478  10.764   9.823 -1.3267 -1.8625 -0.0956
  416MOL0     H56135   7.463  10.847   9.979 -0.7376  0.1325  1.7375
  416MOL0     H56136   7.693  10.646   9.889  0.0891  0.5556  0.2530
  416MOL0     H56137   7.654  10.661  10.056  2.8054  1.2993  0.6089
  416MOL0     H56138   7.687  10.901  10.033  0.9796 -0.3779 -0.0412
  416MOL0     H56139   7.835  10.805   9.993  1.1540 -0.2564 -0.4592
  416MOL0     H56140   6.584  10.770  10.034  0.6556  1.1701  0.8988
  416MOL0     H56141   6.347  10.710  10.081  0.5922  1.3923  1.3708
  416MOL0     H56142   6.034  10.634  10.304  1.8816  0.3163 -2.6825
  416MOL0     H56143   5.790  10.613  10.378 -2.0940  0.5632 -3.2373
  416MOL0     H56144   4.403  10.548   9.313  1.4628 -2.0649  2.9496
  416MOL0     H56145   4.245  10.743   9.271 -0.4687 -3.3701 -2.5196
  416MOL0     H56146   3.862  10.955   9.547  2.5685  0.6215  1.6071
  416MOL0     H56147   3.728  11.159   9.581 -0.8880  1.7537  0.5700
  416MOL0     H56148   3.622  11.349   9.586  0.9396  1.5576 -0.1104
  416MOL0     H56149   3.526  11.305   9.451  1.0280 -2.5158  2.7008
  416MOL0     H56150   3.499  11.535   9.375 -1.1175  0.7951  0.2359
  416MOL0     H56151   3.603  11.599   9.501  0.5057 -1.0977 -0.2214
  416MOL0     H56152   3.451  11.536   9.668 -1.9837  0.0898  0.2969
  416MOL0     H56153   3.344  11.447   9.547 -0.9841  0.9201 -1.9977
  416MOL0     H56154   3.288  11.665   9.639  1.3900 -3.0636  1.6829
  416MOL0     H56155   3.414  11.744   9.544  0.2600  0.3866  4.4056
  416MOL0     H56156   3.105  11.643   9.250 -0.1070 -0.4245  0.2657
  416MOL0     H56157   3.873  11.339   9.229  3.2367  0.1633  0.3200
  416MOL0     H56158   3.982  11.077   9.058  0.5551  1.9485 -0.5834
  416MOL0     H56159   4.050  11.236   9.107  3.4884  0.3481  1.1796
  416MOL0     H56160   4.122  11.085   9.159 -1.9373 -1.6298  1.2671
  417MOL0     O56161   7.176   0.936   4.101 -0.5147 -0.5641 -0.4999
  417MOL0     C56162   7.243   0.844   4.049  0.4122 -1.2331  0.3265
  417MOL0     O56163   7.193   0.759   3.955  0.1493  0.2425  0.3716
  417MOL0     C56164   7.063   0.774   3.922  0.0957  0.1211 -0.0498
  417MOL0     C56165   7.026   0.852   3.816 -0.8436 -1.2109  0.0535
  417MOL0     C56166   6.892   0.869   3.783  0.5163  0.4100 -0.2787
  417MOL0     C56167   6.794   0.807   3.852 -0.0085  1.0405  0.3315
  417MOL0     O56168   6.660   0.805   3.798 -0.5403  0.2510  0.0238
  417MOL0     C56169   6.546   0.820   3.886 -0.1597 -0.8088  0.5103
  417MOL0     C56170   6.410   0.789   3.803 -0.3179 -0.0192 -0.0451
  417MOL0     C56171   6.291   0.752   3.897 -0.1265 -0.0610  0.0068
  417MOL0     C56172   6.166   0.784   3.829 -0.2965  0.3608 -0.7111
  417MOL0     C56173   6.047   0.743   3.930 -0.4679 -1.2407 -0.9216
  417MOL0     C56174   5.913   0.760   3.864  0.4158  0.0687  0.2970
  417MOL0     C56175   5.801   0.729   3.970 -0.2366  1.1640 -0.2755
  417MOL0     C56176   5.700   0.625   3.919 -0.4530  0.7084  0.1362
  417MOL0     N56177   5.565   0.636   3.984 -0.2091  0.2208  0.9031
  417MOL0     C56178   5.440   0.660   3.922 -0.6323  0.8952 -1.2435
  417MOL0     C56179   5.348   0.647   4.020  0.5402  0.5952 -0.1556
  417MOL0     C56180   5.206   0.672   3.982 -0.4380 -0.6983 -0.9552
  417MOL0     C56181   5.143   0.569   3.891 -0.1258  1.0538 -0.5533
  417MOL0     C56182   5.148   0.611   3.748 -0.0017  0.5119  0.1260
  417MOL0     C56183   5.127   0.502   3.642 -0.0767 -0.5993  1.2703
  417MOL0     O56184   5.221   0.395   3.665  0.4410  0.9052  0.4802
  417MOL0     C56185   5.354   0.420   3.649 -0.9547 -0.3572  0.0341
  417MOL0     C56186   5.403   0.501   3.549  0.5882 -0.2237 -1.0478
  417MOL0     C56187   5.539   0.515   3.527  0.1494 -0.6835 -0.1440
  417MOL0     C56188   5.633   0.459   3.604 -0.2303  0.7003 -0.8497
  417MOL0     C56189   5.775   0.474   3.580  0.5639  0.0098 -0.1335
  417MOL0     O56190   5.851   0.374   3.627 -0.0435  0.2253  0.4143
  417MOL0     C56191   5.981   0.392   3.651 -0.2933 -0.5134  0.3257
  417MOL0     C56192   6.027   0.335   3.768 -1.2828  0.0086  0.4938
  417MOL0     C56193   6.159   0.342   3.811 -0.3215  0.6575  0.3030
  417MOL0     C56194   6.251   0.399   3.722  0.8239  0.7686  0.1872
  417MOL0     O56195   6.384   0.403   3.742 -0.0026 -0.3660  0.2759
  417MOL0     C56196   6.434   0.336   3.863 -0.6062 -0.3311  0.2563
  417MOL0     C56197   6.582   0.361   3.882  0.2509 -0.1965 -0.1894
  417MOL0     C56198   6.672   0.334   3.760 -0.1256 -0.1235 -0.7311
  417MOL0     C56199   6.816   0.386   3.782 -0.7309 -0.0134  1.2675
  417MOL0     C56200   6.909   0.346   3.657 -0.1737  0.4997 -0.6192
  417MOL0     C56201   7.055   0.372   3.695  0.2397 -0.3336 -0.3519
  417MOL0     C56202   7.134   0.388   3.564 -0.2249 -0.9664 -0.3871
  417MOL0     C56203   7.141   0.533   3.524 -0.7258  1.1896  1.0591
  417MOL0    Cl56204   7.244   0.541   3.382  0.4540  0.2119  0.2315
  417MOL0     C56205   6.205   0.452   3.601 -0.3230 -0.5969 -0.3163
  417MOL0     C56206   6.073   0.456   3.567 -0.5827 -0.1802 -0.1963
  417MOL0     O56207   5.823   0.572   3.524  0.3773  0.7348 -0.5010
  417MOL0     C56208   5.579   0.374   3.706 -0.2848  0.3426  0.3039
  417MOL0     C56209   5.448   0.351   3.725 -0.8942  0.6667  0.1667
  417MOL0     N56210   5.422   0.636   4.140  0.6046  0.0512 -0.3330
  417MOL0     N56211   5.551   0.624   4.112  0.4152  0.1753 -0.7540
  417MOL0     C56212   6.828   0.737   3.962 -0.5180  0.0760 -0.6823
  417MOL0     C56213   6.964   0.717   4.001 -0.4796  0.4734  0.6770
  417MOL0     C56214   7.384   0.813   4.096  0.1138 -1.1521  0.1436
  417MOL0     C56215   7.440   0.691   4.055  0.2962 -0.4928  0.1041
  417MOL0     C56216   7.562   0.650   4.107  0.9222  0.3937  0.1358
  417MOL0     C56217   7.635   0.723   4.204  0.0157 -1.2214  0.4753
  417MOL0     O56218   7.746   0.681   4.278 -0.1700 -0.2416  0.0882
  417MOL0     C56219   7.791   0.544   4.267 -0.0763  1.0308  0.7011
  417MOL0     C56220   7.881   0.515   4.146  0.0557 -0.0674  1.2597
  417MOL0     C56221   7.999   0.609   4.139  1.1129 -0.6161 -1.1557
  417MOL0     C56222   8.122   0.548   4.067 -0.8027  0.0030 -0.5707
  417MOL0     C56223   8.248   0.631   4.074  0.0927 -0.2303 -0.5154
  417MOL0     C56224   8.349   0.694   4.089  0.2507  0.0908  1.3740
  417MOL0     C56225   7.575   0.847   4.235 -0.8107  0.6406 -0.3770
  417MOL0     C56226   7.455   0.898   4.180 -0.2859 -0.3112 -0.0249
  417MOL0     C56227   7.406   1.036   4.215  0.0677  0.7917  0.1734
  417MOL0     H56228   7.099   0.916   3.769 -1.2124 -2.3342 -2.1892
  417MOL0     H56229   6.863   0.918   3.690 -0.6427  0.4050  0.0604
  417MOL0     H56230   6.545   0.751   3.971 -0.0140  0.0697  1.2344
  417MOL0     H56231   6.552   0.918   3.933  3.3333 -0.2787 -0.7620
  417MOL0     H56232   6.438   0.706   3.737  1.4700  1.8657 -1.7719
  417MOL0     H56233   6.381   0.872   3.738  1.4952 -0.3016 -1.2881
  417MOL0     H56234   6.293   0.803   3.994 -1.9190 -1.3535  0.7817
  417MOL0     H56235   6.287   0.644   3.919 -3.0697 -0.3598 -1.5288
  417MOL0     H56236   6.157   0.893   3.818 -1.5692  0.2721 -0.6843
  417MOL0     H56237   6.164   0.734   3.732  2.2799 -2.8549  0.7265
  417MOL0     H56238   6.051   0.639   3.964  3.6404 -0.1345  2.8886
  417MOL0     H56239   6.058   0.796   4.025 -2.0311 -0.6463 -1.0495
  417MOL0     H56240   5.901   0.858   3.817  1.3423  0.1920  0.2986
  417MOL0     H56241   5.891   0.685   3.788  1.1344 -1.5772  1.6295
  417MOL0     H56242   5.742   0.816   4.000 -0.9535  0.7189 -0.3777
  417MOL0     H56243   5.844   0.678   4.057  2.0406  1.9508 -0.8653
  417MOL0     H56244   5.686   0.628   3.811  2.3351 -0.2081 -0.3124
  417MOL0     H56245   5.744   0.528   3.941  1.2730  1.7653  1.7024
  417MOL0     H56246   5.426   0.674   3.816  2.6690  0.2907 -1.8939
  417MOL0     H56247   5.170   0.674   4.086  2.4701  2.3999  0.1680
  417MOL0     H56248   5.177   0.774   3.956 -1.6114 -0.3832  1.3097
  417MOL0     H56249   5.184   0.470   3.912  1.1343  1.3344 -1.6009
  417MOL0     H56250   5.036   0.576   3.915  0.1783 -1.4077  1.9794
  417MOL0     H56251   5.245   0.654   3.721 -0.9697  1.8207 -1.4071
  417MOL0     H56252   5.082   0.697   3.747  1.5859  1.9843  3.6271
  417MOL0     H56253   5.131   0.553   3.545  0.0752 -0.2531  1.4574
  417MOL0     H56254   5.026   0.460   3.640 -0.4937  0.3474 -1.2686
  417MOL0     H56255   5.333   0.540   3.475 -0.3177 -0.7173 -0.4595
  417MOL0     H56256   5.569   0.590   3.455  0.4875 -0.5300  0.1497
  417MOL0     H56257   5.957   0.281   3.831 -2.3494  0.4112 -0.3007
  417MOL0     H56258   6.189   0.282   3.897  0.1916  0.0894 -0.2639
  417MOL0     H56259   6.379   0.368   3.952 -1.1880 -0.6013  0.0017
  417MOL0     H56260   6.425   0.227   3.859  0.7938 -0.4509 -0.0637
  417MOL0     H56261   6.595   0.462   3.921 -0.3296 -0.7048  1.4154
  417MOL0     H56262   6.623   0.291   3.955 -0.8383  0.8915  1.5324
  417MOL0     H56263   6.678   0.227   3.742  0.2920 -0.3046  0.3896
  417MOL0     H56264   6.630   0.387   3.674 -1.4712  0.6135  0.3087
  417MOL0     H56265   6.855   0.336   3.870  2.5103 -0.1074 -0.0951
  417MOL0     H56266   6.802   0.491   3.805 -1.3365 -0.2150  1.8369
  417MOL0     H56267   6.880   0.391   3.562 -0.3151  0.2029 -0.7185
  417MOL0     H56268   6.894   0.238   3.647 -1.9076  0.7819 -1.5735
  417MOL0     H56269   7.071   0.457   3.762 -2.0535 -0.6586  0.7081
  417MOL0     H56270   7.087   0.285   3.753 -0.5830  1.0980  2.4257
  417MOL0     H56271   7.087   0.329   3.484 -3.3686  2.3086 -1.2297
  417MOL0     H56272   7.232   0.346   3.585 -0.1954 -1.4860 -1.4661
  417MOL0     H56273   7.041   0.569   3.500  0.9576  4.2193 -2.5299
  417MOL0     H56274   7.178   0.591   3.609 -0.5568 -1.4887  2.9288
  417MOL0     H56275   6.277   0.508   3.543  0.3480 -1.2267 -0.1099
  417MOL0     H56276   6.039   0.493   3.470 -1.0602  1.2950  0.5074
  417MOL0     H56277   5.643   0.315   3.772 -1.8435  0.2412  1.7941
  417MOL0     H56278   5.409   0.282   3.799 -0.7964  1.4253  0.9315
  417MOL0     H56279   6.759   0.698   4.036  1.3001  1.8050  2.1139
  417MOL0     H56280   6.978   0.649   4.084  0.9429 -0.6710 -0.4431
  417MOL0     H56281   7.391   0.619   3.989  0.3169 -0.1516 -0.2850
  417MOL0     H56282   7.607   0.555   4.078 -1.0691 -0.0870 -1.6130
  417MOL0     H56283   7.715   0.467   4.250  2.2381 -1.1454 -0.4808
  417MOL0     H56284   7.844   0.514   4.358 -0.8639 -1.2908  0.4447
  417MOL0     H56285   7.826   0.525   4.052 -0.1712 -2.9301  1.0118
  417MOL0     H56286   7.909   0.410   4.157 -0.3880 -0.4794 -1.0177
  417MOL0     H56287   8.038   0.630   4.239  2.7031  1.2997 -2.0981
  417MOL0     H56288   7.975   0.704   4.092  2.5136  0.3692  0.0192
  417MOL0     H56289   8.144   0.449   4.108 -1.4467  1.3953  3.5785
  417MOL0     H56290   8.095   0.541   3.961 -2.6959  0.4248 -0.1660
  417MOL0     H56291   8.433   0.755   4.118  0.3395  0.6492  0.0410
  417MOL0     H56292   7.644   0.917   4.282  1.4994 -0.7868 -1.4732
  417MOL0     H56293   7.333   1.031   4.296 -1.7192  1.8547 -1.3040
  417MOL0     H56294   7.485   1.104   4.248  1.7068  0.2999 -2.4320
  417MOL0     H56295   7.358   1.084   4.129 -0.4193 -0.5213 -0.3124
  418MOL0     O56296  10.344   7.356   8.123  0.0664  0.0847  0.6170
  418MOL0     C56297  10.336   7.341   8.002  0.0813  0.0797  0.7202
  418MOL0     O56298  10.441   7.302   7.921 -0.1405 -0.4551  0.6295
  418MOL0     C56299  10.558   7.248   7.966 -0.2214  0.4002 -0.1544
  418MOL0     C56300  10.680   7.292   7.919 -0.1584 -0.2703  0.3932
  418MOL0     C56301  10.799   7.231   7.949 -0.4417  0.0573 -0.1639
  418MOL0     C56302  10.810   7.136   8.044  0.4379  1.2169 -1.3023
  418MOL0     O56303  10.928   7.061   8.071  0.2393  0.6774 -0.1893
  418MOL0     C56304  11.025   7.150   8.127  0.9690 -0.0587 -0.3609
  418MOL0     C56305  11.053   7.110   8.268  0.0597  0.1106 -0.0864
  418MOL0     C56306  11.148   7.192   8.347  0.4346 -1.0900  0.1269
  418MOL0     C56307  11.290   7.196   8.298 -0.5156 -0.4562  0.1672
  418MOL0     C56308  11.385   7.283   8.375 -0.1098 -0.2236  0.4391
  418MOL0     C56309  11.516   7.317   8.308  0.1750 -0.1901 -0.0194
  418MOL0     C56310  11.619   7.375   8.416 -0.2406 -0.2600  0.4586
  418MOL0     C56311  11.743   7.427   8.344  0.4205  0.5067 -0.7978
  418MOL0     N56312  11.866   7.443   8.425 -0.4276 -0.5060  0.1419
  418MOL0     C56313  11.935   7.335   8.480  0.1736 -0.8962  0.9035
  418MOL0     C56314  12.052   7.388   8.525  0.8919  0.6651  1.0271
  418MOL0     C56315  12.145   7.305   8.612 -0.1992  0.6634  0.3027
  418MOL0     C56316  12.281   7.263   8.555  0.8335  0.4833 -0.2731
  418MOL0     C56317  12.383   7.383   8.563 -0.3490 -0.4814  0.2685
  418MOL0     C56318  12.408   7.441   8.705 -0.1512  0.6289  0.3834
  418MOL0     O56319  12.524   7.528   8.708 -0.0266 -0.3439  0.1590
  418MOL0     C56320  12.649   7.472   8.720  0.0499 -0.1503  0.0292
  418MOL0     C56321  12.754   7.564   8.711  0.3598 -0.1234 -0.2681
  418MOL0     C56322  12.883   7.523   8.723  0.0317  0.0696  0.8726
  418MOL0     C56323  12.917   7.391   8.735 -0.6038 -0.6845 -0.0080
  418MOL0     C56324  13.060   7.350   8.740  0.1527 -0.7226  0.0112
  418MOL0     O56325  13.082   7.216   8.750 -0.2317  0.4861  0.7442
  418MOL0     C56326  13.202   7.152   8.775  0.1469 -0.4277  0.0951
  418MOL0     C56327  13.308   7.220   8.840 -0.0693  0.6704 -0.1015
  418MOL0     C56328  13.424   7.147   8.867  0.6507 -0.1243  0.1221
  418MOL0     C56329  13.434   7.011   8.850  0.3055 -0.3389  0.4714
  418MOL0     O56330  13.542   6.942   8.889  0.0213 -0.4256 -0.2210
  418MOL0     C56331  13.529   6.805   8.932  0.6775 -0.6759 -0.6220
  418MOL0     C56332  13.671   6.741   8.944  0.7234  0.9777  0.3022
  418MOL0     C56333  13.785   6.833   9.011  0.5623  0.0004  0.4852
  418MOL0     C56334  13.907   6.750   9.044 -0.4448 -1.0304  0.4313
  418MOL0     C56335  14.015   6.845   9.092  0.3440 -0.9218  0.5510
  418MOL0     C56336  14.144   6.760   9.104  0.4751  0.1957  0.5459
  418MOL0     C56337  14.261   6.852   9.148  0.4367 -0.6748  0.5293
  418MOL0     C56338  14.377   6.762   9.187 -0.7674  0.9439 -0.2073
  418MOL0    Cl56339  14.533   6.853   9.217  0.0879 -0.1250  0.3531
  418MOL0     C56340  13.336   6.957   8.772 -0.0782 -0.0386  0.4417
  418MOL0     C56341  13.219   7.021   8.737  0.1654  0.0650 -0.3770
  418MOL0     O56342  13.142   7.438   8.733 -0.4492 -0.4458  0.0804
  418MOL0     C56343  12.812   7.296   8.750  0.5094  0.2818  0.1057
  418MOL0     C56344  12.680   7.335   8.749  0.6664 -0.3687 -0.2720
  418MOL0     N56345  12.049   7.526   8.500 -0.0581  0.2845  0.1899
  418MOL0     N56346  11.944   7.555   8.434 -0.4583 -0.1056  0.0688
  418MOL0     C56347  10.691   7.099   8.106  0.1661  0.4919 -0.2901
  418MOL0     C56348  10.566   7.148   8.063  0.3767  0.3293 -0.1077
  418MOL0     C56349  10.210   7.374   7.934  1.2380 -0.2952 -0.7621
  418MOL0     C56350  10.219   7.410   7.795 -0.1181 -0.6362  0.3257
  418MOL0     C56351  10.097   7.444   7.728 -0.8797 -0.3247 -0.8457
  418MOL0     C56352   9.969   7.432   7.784 -0.1375 -0.9090  0.7618
  418MOL0     O56353   9.853   7.466   7.714  1.2598  0.4946 -0.6247
  418MOL0     C56354   9.720   7.447   7.770 -0.6561 -0.0722  0.2124
  418MOL0     C56355   9.671   7.306   7.763  1.0297 -1.6092 -0.7607
  418MOL0     C56356   9.657   7.239   7.634 -0.0531  0.1476 -0.6937
  418MOL0     C56357   9.558   7.321   7.546 -0.8647  0.2092  0.3839
  418MOL0     C56358   9.477   7.256   7.439  0.4423  1.1051  0.3442
  418MOL0     C56359   9.399   7.200   7.365 -0.1278 -0.6032 -1.2155
  418MOL0     C56360   9.973   7.392   7.917 -0.6259 -0.3699  0.3620
  418MOL0     C56361  10.084   7.370   7.993  0.2682  0.7920  0.0072
  418MOL0     C56362  10.059   7.325   8.140  0.0978  0.7088 -0.3809
  418MOL0     H56363  10.687   7.376   7.851  0.9995 -2.1865 -1.9782
  418MOL0     H56364  10.892   7.280   7.924 -0.2763  0.2863  0.8727
  418MOL0     H56365  11.110   7.135   8.060  0.4810 -0.1060 -0.9806
  418MOL0     H56366  10.998   7.256   8.129  0.2511 -0.0745 -3.6540
  418MOL0     H56367  11.085   7.005   8.274  2.3626  0.8039  0.5915
  418MOL0     H56368  10.955   7.120   8.316 -0.4291  1.7251 -1.3302
  418MOL0     H56369  11.164   7.157   8.449  0.4943 -0.3595  0.3736
  418MOL0     H56370  11.111   7.295   8.348  0.6407 -0.9937 -0.9614
  418MOL0     H56371  11.334   7.097   8.281 -0.2569 -0.0301 -1.9168
  418MOL0     H56372  11.289   7.252   8.204 -1.8551  0.4624  0.7046
  418MOL0     H56373  11.330   7.375   8.395 -1.0601 -0.3276 -1.4864
  418MOL0     H56374  11.410   7.226   8.465 -1.3186 -0.6142  0.5528
  418MOL0     H56375  11.556   7.227   8.260 -0.5919 -0.1665 -0.7217
  418MOL0     H56376  11.499   7.387   8.226 -1.4010 -2.2158 -1.5043
  418MOL0     H56377  11.667   7.296   8.475  0.6235 -1.4571 -1.7603
  418MOL0     H56378  11.566   7.451   8.474 -0.6392  1.1268 -1.6362
  418MOL0     H56379  11.766   7.352   8.267  0.7584 -1.1695  0.8641
  418MOL0     H56380  11.723   7.525   8.300 -1.5985 -0.2251 -1.6309
  418MOL0     H56381  11.895   7.234   8.489 -0.0155 -0.8107  1.0194
  418MOL0     H56382  12.150   7.364   8.704 -3.2770  2.3635 -0.4792
  418MOL0     H56383  12.091   7.214   8.638  0.4148  0.0831 -0.4371
  418MOL0     H56384  12.324   7.173   8.599  0.1977 -0.8745 -2.2856
  418MOL0     H56385  12.264   7.244   8.448  0.2747  0.0980 -0.1208
  418MOL0     H56386  12.340   7.463   8.501  0.0995  0.0243  0.5984
  418MOL0     H56387  12.480   7.350   8.524  0.4076 -2.0447  3.1947
  418MOL0     H56388  12.414   7.364   8.782  0.9189 -0.4288 -0.7142
  418MOL0     H56389  12.325   7.510   8.718  0.5787  1.3554  1.3682
  418MOL0     H56390  12.735   7.662   8.668  2.1342  1.2041  1.7971
  418MOL0     H56391  12.961   7.597   8.713 -0.8502  1.1698  1.8782
  418MOL0     H56392  13.310   7.325   8.867 -0.8864  0.5069  0.6564
  418MOL0     H56393  13.515   7.189   8.911 -0.1002 -0.9055  2.6026
  418MOL0     H56394  13.489   6.799   9.033  0.8240 -0.8542 -0.5725
  418MOL0     H56395  13.465   6.750   8.863 -0.1938  1.3989 -1.5395
  418MOL0     H56396  13.664   6.641   8.986 -1.3375  0.0639 -1.9634
  418MOL0     H56397  13.712   6.711   8.847  0.4170 -1.6103  0.9065
  418MOL0     H56398  13.800   6.926   8.955  0.0097  1.3413  2.4815
  418MOL0     H56399  13.742   6.875   9.102  0.3640  0.9100 -0.0154
  418MOL0     H56400  13.936   6.707   8.948 -1.6066 -1.4249  0.2392
  418MOL0     H56401  13.890   6.668   9.114 -0.4526 -2.0038 -0.6743
  418MOL0     H56402  13.987   6.896   9.185 -0.8000 -0.3355 -0.0818
  418MOL0     H56403  14.027   6.923   9.017 -1.2075  0.1869  1.3955
  418MOL0     H56404  14.108   6.697   9.186  1.1995 -0.3585  0.4451
  418MOL0     H56405  14.158   6.698   9.015 -2.3956  0.6131 -0.3238
  418MOL0     H56406  14.225   6.911   9.234 -2.2200 -2.3057  0.6646
  418MOL0     H56407  14.292   6.915   9.064  3.0299 -0.4569  1.5540
  418MOL0     H56408  14.351   6.707   9.279 -1.0347  4.2293  1.8291
  418MOL0     H56409  14.392   6.690   9.106 -0.7233 -0.1315  0.7241
  418MOL0     H56410  13.333   6.851   8.746 -3.2814  0.6339 -2.8113
  418MOL0     H56411  13.142   6.963   8.688  0.6743  0.5601 -1.8195
  418MOL0     H56412  12.843   7.193   8.770  2.7059  1.3042  2.6073
  418MOL0     H56413  12.612   7.256   8.779  0.8864 -0.8903 -1.0935
  418MOL0     H56414  10.694   7.015   8.174  0.3000 -0.5151 -1.5050
  418MOL0     H56415  10.473   7.105   8.100  1.5100  0.2028  2.7964
  418MOL0     H56416  10.313   7.419   7.741 -1.4218 -0.1988 -1.9873
  418MOL0     H56417  10.095   7.483   7.626  0.9278 -0.5125 -0.9811
  418MOL0     H56418   9.658   7.520   7.716  0.3830  2.3616  2.0883
  418MOL0     H56419   9.719   7.475   7.876  1.3727 -0.5933  0.4132
  418MOL0     H56420   9.574   7.313   7.815  1.4103  1.7040 -0.2949
  418MOL0     H56421   9.726   7.242   7.832  1.4430 -1.6252 -1.0989
  418MOL0     H56422   9.606   7.143   7.647  1.1155 -0.4432 -0.4050
  418MOL0     H56423   9.760   7.223   7.601  0.0957  0.1680 -0.2433
  418MOL0     H56424   9.484   7.365   7.614  0.4526  0.6615  1.5827
  418MOL0     H56425   9.613   7.410   7.514 -1.0548  0.4660  0.7564
  418MOL0     H56426   9.341   7.136   7.301 -0.3749 -1.4146 -0.1927
  418MOL0     H56427   9.879   7.369   7.966  1.6135 -4.8907  3.2829
  418MOL0     H56428  10.097   7.409   8.198  1.8767 -0.7624  0.6856
  418MOL0     H56429   9.951   7.318   8.156 -0.3657 -0.2799 -3.2129
  418MOL0     H56430  10.115   7.236   8.171 -0.0042  1.3852  1.8681
  419MOL0     O56431   8.450   4.925  10.664  0.5581  0.6765  1.1632
  419MOL0     C56432   8.383   4.934  10.562  0.9827 -0.6130  1.2560
  419MOL0     O56433   8.434   4.925  10.433 -0.7662  0.3690 -0.0326
  419MOL0     C56434   8.572   4.922  10.416  0.2829 -1.0185  0.1755
  419MOL0     C56435   8.648   5.028  10.457 -0.0627 -0.6525 -0.9626
  419MOL0     C56436   8.790   5.028  10.438 -0.5252  0.0838  0.2645
  419MOL0     C56437   8.858   4.921  10.371  0.2670 -0.2787  0.0929
  419MOL0     O56438   8.995   4.916  10.342 -0.0647  0.5847 -0.1661
  419MOL0     C56439   9.071   5.043  10.352 -0.8419 -0.0394 -0.0329
  419MOL0     C56440   9.170   5.059  10.234  0.2118  0.2279 -0.0367
  419MOL0     C56441   9.267   5.178  10.253 -0.6707 -0.7614 -0.1869
  419MOL0     C56442   9.351   5.154  10.383  0.0798  0.4145 -0.3552
  419MOL0     C56443   9.485   5.236  10.380  0.2467  0.3176  0.0515
  419MOL0     C56444   9.538   5.265  10.517 -0.4765  0.8051  0.7148
  419MOL0     C56445   9.684   5.304  10.501 -0.4485  0.3618  0.1137
  419MOL0     C56446   9.735   5.321  10.637 -0.4989  0.0642 -0.6757
  419MOL0     N56447   9.881   5.341  10.640 -0.2100  0.4440 -0.5577
  419MOL0     C56448   9.967   5.233  10.678 -0.1896  0.4233  0.7294
  419MOL0     C56449  10.087   5.303  10.677  0.1413 -0.0224  1.0441
  419MOL0     C56450  10.220   5.245  10.723  0.7976 -0.3722  0.2786
  419MOL0     C56451  10.325   5.363  10.745 -0.1785  1.0134  0.4847
  419MOL0     C56452  10.470   5.315  10.781  0.5232 -0.2057 -0.9427
  419MOL0     C56453  10.566   5.435  10.774 -0.6817  0.7137 -0.7306
  419MOL0     O56454  10.708   5.402  10.785 -0.1139  0.5758 -0.0008
  419MOL0     C56455  10.795   5.501  10.764  0.3303 -0.7106  0.4662
  419MOL0     C56456  10.780   5.633  10.815  0.1013  0.1086  0.0840
  419MOL0     C56457  10.877   5.736  10.803 -0.7595  0.7259 -0.2806
  419MOL0     C56458  11.000   5.703  10.737  0.0752  0.1629 -0.4480
  419MOL0     C56459  11.093   5.811  10.712  0.2860 -0.3388 -0.3407
  419MOL0     O56460  11.089   5.926  10.792  0.0521 -0.1698  0.7826
  419MOL0     C56461  11.181   6.026  10.759  0.6906 -0.5884 -0.2368
  419MOL0     C56462  11.223   6.065  10.631  1.2228 -0.0554 -0.0809
  419MOL0     C56463  11.334   6.148  10.603  0.4835  0.1136 -1.4343
  419MOL0     C56464  11.403   6.199  10.717  0.6244  0.2906 -0.1640
  419MOL0     O56465  11.523   6.265  10.715  0.1059 -0.2134  0.3710
  419MOL0     C56466  11.555   6.324  10.584 -0.8218  0.3272  0.1748
  419MOL0     C56467  11.706   6.375  10.581 -0.2208  1.0205 -0.2543
  419MOL0     C56468  11.720   6.510  10.655 -0.0404 -0.6412 -1.0468
  419MOL0     C56469  11.858   6.575  10.645  0.1819  0.5980 -0.1806
  419MOL0     C56470  11.980   6.483  10.710  0.1972 -0.4670  0.1805
  419MOL0     C56471  12.106   6.561  10.744  0.1596 -0.0311 -0.1950
  419MOL0     C56472  12.155   6.639  10.624 -0.0374 -0.6362 -0.6766
  419MOL0     C56473  12.309   6.685  10.628 -0.1376  0.4314 -0.2590
  419MOL0    Cl56474  12.405   6.539  10.639 -0.5730  0.0869  0.5855
  419MOL0     C56475  11.339   6.187  10.838  0.7620  0.5705 -0.7658
  419MOL0     C56476  11.242   6.090  10.865  0.5157 -0.2631  1.1293
  419MOL0     O56477  11.182   5.782  10.633  0.3036  0.3163  1.0181
  419MOL0     C56478  11.013   5.569  10.690 -0.5307 -0.0233  0.1488
  419MOL0     C56479  10.920   5.470  10.712  0.0016 -1.1746  0.1188
  419MOL0     N56480  10.064   5.443  10.661 -0.0609 -0.3814  0.3008
  419MOL0     N56481   9.939   5.468  10.639 -0.3617 -0.1935  0.1838
  419MOL0     C56482   8.785   4.812  10.343  0.0317  0.2504 -0.3255
  419MOL0     C56483   8.646   4.807  10.364 -0.1483  0.0757  0.0999
  419MOL0     C56484   8.236   4.955  10.581 -0.5509  0.5165  0.5367
  419MOL0     C56485   8.160   4.893  10.477  0.5064 -0.7083  0.2006
  419MOL0     C56486   8.020   4.900  10.483  0.1510  0.3117 -0.3188
  419MOL0     C56487   7.951   4.955  10.589  1.1805  0.1285  0.1143
  419MOL0     O56488   7.812   4.949  10.592  0.5818 -0.3342 -0.4764
  419MOL0     C56489   7.719   5.022  10.671  0.1143 -0.1954  0.6857
  419MOL0     C56490   7.671   4.930  10.785 -0.2258  0.4564 -0.3402
  419MOL0     C56491   7.612   4.787  10.737  0.3785 -0.4391  0.4309
  419MOL0     C56492   7.518   4.799  10.611  0.2464 -0.4874 -0.2350
  419MOL0     C56493   7.390   4.875  10.636  0.3245  0.5096 -0.1099
  419MOL0     C56494   7.281   4.922  10.643  0.3048  0.3906  0.3192
  419MOL0     C56495   8.029   5.025  10.680 -0.6022 -0.0198  1.5223
  419MOL0     C56496   8.174   5.020  10.682  0.5372 -0.8122 -0.0734
  419MOL0     C56497   8.245   5.105  10.796 -0.1395 -0.1640  0.3424
  419MOL0     H56498   8.606   5.112  10.512 -0.0604  0.0662 -2.0353
  419MOL0     H56499   8.843   5.116  10.475 -0.4209 -0.5727  1.7132
  419MOL0     H56500   9.003   5.128  10.360 -2.9633 -1.8023  1.4915
  419MOL0     H56501   9.126   5.037  10.446 -1.1806 -1.6706  0.0743
  419MOL0     H56502   9.118   5.087  10.142  1.4148  1.6852 -0.3076
  419MOL0     H56503   9.223   4.966  10.211 -2.9153 -1.1234 -2.4602
  419MOL0     H56504   9.215   5.273  10.247  0.7204 -0.0207 -1.1667
  419MOL0     H56505   9.346   5.181  10.178  2.1266 -2.5769  2.4327
  419MOL0     H56506   9.283   5.193  10.460  1.1635  2.5126 -0.3911
  419MOL0     H56507   9.367   5.046  10.389 -1.3667  0.2365  0.7996
  419MOL0     H56508   9.558   5.180  10.322  1.2392  1.3404  0.2954
  419MOL0     H56509   9.484   5.334  10.332  0.3145 -0.5019 -1.6761
  419MOL0     H56510   9.473   5.346  10.553 -1.0575  0.5430  0.2591
  419MOL0     H56511   9.528   5.175  10.580 -1.4413 -1.0217 -1.8913
  419MOL0     H56512   9.700   5.394  10.441  2.5285 -0.1624 -0.0057
  419MOL0     H56513   9.735   5.233  10.436 -0.6051 -0.3924  0.7881
  419MOL0     H56514   9.676   5.404  10.676 -1.8721 -0.6152 -1.2541
  419MOL0     H56515   9.709   5.243  10.709  0.8818 -0.3202 -0.5674
  419MOL0     H56516   9.947   5.129  10.700 -0.9897  0.3586 -0.2063
  419MOL0     H56517  10.207   5.185  10.813 -1.1986  1.9439  1.6281
  419MOL0     H56518  10.266   5.186  10.643  0.8682  2.2012 -1.7096
  419MOL0     H56519  10.337   5.413  10.648 -1.0135 -0.1553 -0.2368
  419MOL0     H56520  10.294   5.433  10.823 -1.6729 -1.0859  1.8802
  419MOL0     H56521  10.501   5.247  10.701  0.9013 -0.2541 -0.7611
  419MOL0     H56522  10.475   5.263  10.878  0.8458  2.4389  0.5414
  419MOL0     H56523  10.545   5.497  10.862 -0.0155  0.0416 -0.0940
  419MOL0     H56524  10.543   5.492  10.683  0.5639  0.2305 -1.3669
  419MOL0     H56525  10.691   5.659  10.871 -0.1200 -1.7390  0.6297
  419MOL0     H56526  10.852   5.832  10.846 -0.2527  1.1250 -0.8609
  419MOL0     H56527  11.164   6.023  10.550  0.4253 -0.9219  0.9242
  419MOL0     H56528  11.367   6.164  10.501  1.7558 -0.6884 -1.1706
  419MOL0     H56529  11.548   6.255  10.499 -3.5819  2.9295 -1.9733
  419MOL0     H56530  11.482   6.403  10.564 -1.0637 -0.5292 -2.8779
  419MOL0     H56531  11.775   6.300  10.621  0.2844  1.8898  0.5504
  419MOL0     H56532  11.723   6.402  10.476 -0.3355  0.0668 -0.5271
  419MOL0     H56533  11.639   6.574  10.617  0.1084 -0.3908 -0.9456
  419MOL0     H56534  11.693   6.490  10.759  0.0837 -0.0656 -0.9016
  419MOL0     H56535  11.844   6.649  10.724 -2.4004 -0.4860  0.4694
  419MOL0     H56536  11.882   6.626  10.551  0.7146 -1.3076 -1.1164
  419MOL0     H56537  12.008   6.405  10.640  2.4033 -0.2847  0.7829
  419MOL0     H56538  11.953   6.440  10.807  2.7295 -1.3373  0.5890
  419MOL0     H56539  12.073   6.632  10.821 -1.0952 -0.3404 -0.4258
  419MOL0     H56540  12.180   6.485  10.769  1.4700  0.0695 -3.2652
  419MOL0     H56541  12.084   6.722  10.615 -1.5224 -1.6785  0.7666
  419MOL0     H56542  12.150   6.573  10.536 -2.6811 -0.6648 -0.5832
  419MOL0     H56543  12.339   6.744  10.541  0.3507 -0.6178 -0.8206
  419MOL0     H56544  12.335   6.743  10.717  2.8809  1.1106 -1.4678
  419MOL0     H56545  11.395   6.231  10.920  0.5490 -0.2929 -0.1458
  419MOL0     H56546  11.211   6.054  10.962 -0.2012 -0.9003  0.6693
  419MOL0     H56547  11.104   5.539  10.639  0.3343 -0.1209  1.7021
  419MOL0     H56548  10.943   5.367  10.689 -1.0762 -1.4892  0.3619
  419MOL0     H56549   8.833   4.734  10.285 -0.6655 -1.0403  0.7838
  419MOL0     H56550   8.590   4.721  10.329 -1.7370  1.2232 -0.2984
  419MOL0     H56551   8.217   4.838  10.403  4.5837  1.9838  0.9923
  419MOL0     H56552   7.962   4.848  10.408 -0.8343  0.4688  0.3235
  419MOL0     H56553   7.644   5.067  10.605 -0.1457 -1.0248  0.4067
  419MOL0     H56554   7.774   5.110  10.706  0.4168  1.6220 -3.7922
  419MOL0     H56555   7.593   4.974  10.848  1.0668  0.7502  1.1302
  419MOL0     H56556   7.755   4.902  10.850 -1.3827 -3.6585 -0.3625
  419MOL0     H56557   7.559   4.743  10.822 -0.2678 -4.7267 -1.9071
  419MOL0     H56558   7.692   4.721  10.702 -0.9474 -2.2884  0.7577
  419MOL0     H56559   7.567   4.850  10.527  3.4745 -2.3672  0.3348
  419MOL0     H56560   7.498   4.702  10.564 -0.5591  1.2393 -3.8952
  419MOL0     H56561   7.178   4.947  10.659  0.3975  3.3996 -2.6447
  419MOL0     H56562   7.983   5.082  10.760 -0.7971  0.4013  1.1104
  419MOL0     H56563   8.291   5.194  10.753 -0.3351  0.2544  0.9752
  419MOL0     H56564   8.178   5.141  10.875  0.3833  3.2392 -0.6176
  419MOL0     H56565   8.319   5.038  10.842  1.7274  1.5708  0.0086
  420MOL0     O56566   8.835   7.496   3.702  0.4508  0.3882 -0.4742
  420MOL0     C56567   8.803   7.461   3.593  0.0843  0.2865  0.3457
  420MOL0     O56568   8.892   7.454   3.482 -0.5426  0.5076  0.7674
  420MOL0     C56569   9.020   7.494   3.506 -0.0622  0.3391  0.7890
  420MOL0     C56570   9.124   7.405   3.486  0.0713  0.4116  0.0437
  420MOL0     C56571   9.260   7.449   3.518  0.2862  0.2264 -1.0018
  420MOL0     C56572   9.286   7.580   3.564 -0.2093 -0.1064 -0.4675
  420MOL0     O56573   9.417   7.624   3.586 -0.6469 -0.8755 -0.5177
  420MOL0     C56574   9.441   7.665   3.723 -0.4585  1.4855  0.0899
  420MOL0     C56575   9.579   7.724   3.736 -0.6444 -0.9729  0.1226
  420MOL0     C56576   9.612   7.744   3.888  0.4606 -0.1528 -0.1194
  420MOL0     C56577   9.751   7.796   3.904 -0.4629 -0.7074  0.9071
  420MOL0     C56578   9.791   7.826   4.045  0.6413  0.6403  0.1040
  420MOL0     C56579   9.730   7.959   4.083  0.1347  0.6173  0.2316
  420MOL0     C56580   9.733   7.971   4.232  0.5291 -0.6771 -0.1564
  420MOL0     C56581   9.618   7.887   4.291 -0.6057 -0.8219 -0.7108
  420MOL0     N56582   9.617   7.908   4.434 -0.6267  0.0383  0.3425
  420MOL0     C56583   9.703   7.837   4.519  0.4031  0.4046 -0.6439
  420MOL0     C56584   9.641   7.878   4.643  0.4854 -0.2175 -0.6425
  420MOL0     C56585   9.683   7.829   4.777  0.1984 -0.4505 -0.4586
  420MOL0     C56586   9.678   7.942   4.872  0.8508 -0.0520  0.7563
  420MOL0     C56587   9.758   8.065   4.849 -0.9577 -0.5713 -0.4700
  420MOL0     C56588   9.905   8.041   4.814 -0.7927 -1.8528  0.9659
  420MOL0     O56589   9.972   7.955   4.909 -0.0210  0.6924  0.1068
  420MOL0     C56590  10.111   7.961   4.921 -0.3971 -0.4464 -0.4134
  420MOL0     C56591  10.193   7.857   4.870  0.5281  0.9154  1.0459
  420MOL0     C56592  10.333   7.855   4.883 -0.1823  0.1237  0.7398
  420MOL0     C56593  10.388   7.955   4.958 -0.0552 -0.2012 -0.4774
  420MOL0     C56594  10.538   7.964   4.996 -0.0693  0.0719  0.1342
  420MOL0     O56595  10.611   7.856   4.960 -0.6033 -0.3927 -0.4175
  420MOL0     C56596  10.746   7.866   4.951  0.6605  1.1871  0.1424
  420MOL0     C56597  10.823   7.975   4.912 -0.0278  1.0617  0.1328
  420MOL0     C56598  10.969   7.957   4.912  0.1923 -0.2952  0.1469
  420MOL0     C56599  11.030   7.837   4.961  0.5616  0.2730  0.0727
  420MOL0     O56600  11.168   7.839   4.965 -0.0742  0.5371  0.2404
  420MOL0     C56601  11.249   7.723   4.995  0.0351  0.2042 -0.1474
  420MOL0     C56602  11.390   7.738   4.941  0.0282  0.2425 -0.0788
  420MOL0     C56603  11.495   7.815   5.029 -0.3254  0.2237  0.0282
  420MOL0     C56604  11.464   7.966   5.017 -0.0914  0.4608  0.0746
  420MOL0     C56605  11.573   8.062   5.083 -0.0680 -0.3066 -1.2235
  420MOL0     C56606  11.700   8.074   4.994  0.3032  0.8157 -0.2985
  420MOL0     C56607  11.796   8.178   5.047 -1.2635 -0.6974 -1.2292
  420MOL0     C56608  11.850   8.149   5.185 -0.3203  1.3157 -0.0263
  420MOL0    Cl56609  11.956   8.283   5.248  0.1688 -0.0937  0.1007
  420MOL0     C56610  10.951   7.730   4.989  1.1503  0.3409  0.2071
  420MOL0     C56611  10.812   7.747   4.980 -0.1830  0.3839 -0.4990
  420MOL0     O56612  10.583   8.072   5.040  0.1464 -0.3465 -0.7750
  420MOL0     C56613  10.303   8.058   5.007 -0.6851  0.1825 -0.9012
  420MOL0     C56614  10.164   8.060   4.999 -0.8617  0.2441  0.5011
  420MOL0     N56615   9.527   7.957   4.616 -0.1853 -0.0214  0.2919
  420MOL0     N56616   9.516   7.968   4.489 -0.4821  0.3626  0.4159
  420MOL0     C56617   9.185   7.666   3.575 -0.5436  0.7645  0.0503
  420MOL0     C56618   9.052   7.626   3.549  0.4533  0.0649 -0.7515
  420MOL0     C56619   8.659   7.424   3.577  0.5440  0.0344 -0.0843
  420MOL0     C56620   8.582   7.385   3.690 -0.9632 -0.3100  0.2699
  420MOL0     C56621   8.450   7.357   3.686 -0.9966  0.3468 -0.3483
  420MOL0     C56622   8.376   7.373   3.575  0.7170 -0.1235 -0.9832
  420MOL0     O56623   8.244   7.347   3.583  0.0458  0.6102 -0.4422
  420MOL0     C56624   8.192   7.219   3.628 -0.6384 -0.8820  0.4006
  420MOL0     C56625   8.113   7.224   3.760  0.2191  0.4404  0.7230
  420MOL0     C56626   7.980   7.295   3.732  0.5226 -0.7024 -0.3716
  420MOL0     C56627   7.901   7.306   3.862 -0.4625  0.4113  0.2538
  420MOL0     C56628   7.845   7.179   3.899 -0.2879  0.0914  0.4127
  420MOL0     C56629   7.785   7.089   3.951  0.4476 -0.2895 -0.6085
  420MOL0     C56630   8.444   7.396   3.458  0.4698 -0.0107 -0.2780
  420MOL0     C56631   8.579   7.434   3.459  0.4097  0.1384  0.3165
  420MOL0     C56632   8.637   7.488   3.326 -0.9472  0.0705 -0.3012
  420MOL0     H56633   9.097   7.313   3.434  3.1748 -0.6821  0.1459
  420MOL0     H56634   9.336   7.374   3.498  0.7299  1.1293 -2.8171
  420MOL0     H56635   9.366   7.733   3.765  0.6786  3.3468 -0.7466
  420MOL0     H56636   9.438   7.571   3.778 -0.2036 -0.3473 -2.8149
  420MOL0     H56637   9.582   7.815   3.674  0.6329 -1.6650 -0.8928
  420MOL0     H56638   9.648   7.648   3.698  0.9401  1.1763 -1.6540
  420MOL0     H56639   9.609   7.649   3.942  0.2929  0.4204  0.9121
  420MOL0     H56640   9.548   7.821   3.932  1.9096  1.5530 -0.8815
  420MOL0     H56641   9.822   7.719   3.871  2.5455  2.3041 -0.2792
  420MOL0     H56642   9.761   7.882   3.838  0.4539 -0.5546  1.2204
  420MOL0     H56643   9.754   7.743   4.107 -2.9789  1.3901 -0.8123
  420MOL0     H56644   9.899   7.837   4.061  0.5366 -0.3506  1.7861
  420MOL0     H56645   9.795   8.033   4.035  0.7954 -1.0221 -1.5264
  420MOL0     H56646   9.628   7.967   4.044  0.3427 -0.0353 -0.4745
  420MOL0     H56647   9.722   8.076   4.263  0.6354 -1.6097  3.4572
  420MOL0     H56648   9.831   7.935   4.264 -0.5815 -2.0581  1.8160
  420MOL0     H56649   9.526   7.926   4.246  0.8581  3.5536 -0.3125
  420MOL0     H56650   9.624   7.780   4.268 -3.0034 -1.1039 -0.3344
  420MOL0     H56651   9.792   7.778   4.502 -1.2434 -2.4124 -0.1379
  420MOL0     H56652   9.605   7.760   4.808 -3.1577  2.9542 -0.6167
  420MOL0     H56653   9.784   7.787   4.782  0.5278  0.4227  2.5301
  420MOL0     H56654   9.576   7.976   4.890  0.7369 -0.4810  0.9449
  420MOL0     H56655   9.710   7.892   4.964 -0.1433  0.6682  1.5078
  420MOL0     H56656   9.747   8.121   4.942 -0.3403  2.6763 -2.2226
  420MOL0     H56657   9.713   8.128   4.772 -0.4494 -1.4663 -1.5344
  420MOL0     H56658   9.951   8.139   4.827 -1.3912 -1.6310  1.4641
  420MOL0     H56659   9.927   8.008   4.712  4.3093 -3.7759  2.4081
  420MOL0     H56660  10.148   7.781   4.807  1.7668  2.3813 -1.8100
  420MOL0     H56661  10.396   7.776   4.843 -2.1245 -1.6195  0.9501
  420MOL0     H56662  10.783   8.068   4.875  0.1002  0.9759 -0.2198
  420MOL0     H56663  11.028   8.032   4.860 -1.1527  2.3255  2.1119
  420MOL0     H56664  11.253   7.711   5.104  1.1446 -0.1663 -0.2165
  420MOL0     H56665  11.204   7.628   4.964  0.2651 -1.2501  3.4686
  420MOL0     H56666  11.432   7.638   4.928  0.1284  0.3521 -0.6074
  420MOL0     H56667  11.395   7.772   4.837  1.6895 -1.4388 -0.6045
  420MOL0     H56668  11.478   7.783   5.132  1.6564  1.6357  0.8559
  420MOL0     H56669  11.594   7.792   4.989 -1.4440  0.6736 -3.3512
  420MOL0     H56670  11.372   7.978   5.075  0.0300 -0.3022  0.4319
  420MOL0     H56671  11.443   8.000   4.915  2.5209  0.9991 -0.3719
  420MOL0     H56672  11.588   8.025   5.184 -4.4621  0.4761 -0.0645
  420MOL0     H56673  11.529   8.160   5.102  0.2632 -0.2185 -0.9040
  420MOL0     H56674  11.744   7.977   4.969 -0.2925  1.2505 -3.4486
  420MOL0     H56675  11.661   8.110   4.898 -2.8819 -1.4648 -0.0166
  420MOL0     H56676  11.751   8.277   5.055 -1.8279 -0.9927 -0.7038
  420MOL0     H56677  11.878   8.184   4.974 -1.4876  0.3176 -1.4154
  420MOL0     H56678  11.773   8.128   5.259  1.6219  4.3112  3.1262
  420MOL0     H56679  11.911   8.058   5.174  1.1453  2.2109  0.4098
  420MOL0     H56680  10.979   7.628   5.015 -1.6801 -0.5018  0.3402
  420MOL0     H56681  10.744   7.663   4.993 -0.5483  0.4736 -1.6773
  420MOL0     H56682  10.345   8.143   5.058 -0.5433 -0.0300 -0.6620
  420MOL0     H56683  10.094   8.131   5.041  0.9774  2.3434  0.2460
  420MOL0     H56684   9.202   7.766   3.615 -1.0157  1.1071 -0.5962
  420MOL0     H56685   8.973   7.701   3.543  2.1261  1.9732  0.0912
  420MOL0     H56686   8.633   7.368   3.785 -0.2176  0.7420  0.0701
  420MOL0     H56687   8.390   7.314   3.765  0.7262 -1.9650 -0.1652
  420MOL0     H56688   8.273   7.145   3.630  0.2874  0.0396 -0.9304
  420MOL0     H56689   8.125   7.179   3.552 -0.9619  2.2509 -1.1265
  420MOL0     H56690   8.168   7.278   3.838 -2.2441  2.1281  1.3838
  420MOL0     H56691   8.088   7.122   3.789  1.1340 -0.8591 -2.5935
  420MOL0     H56692   7.931   7.240   3.650  1.5615 -0.9605 -0.8410
  420MOL0     H56693   7.998   7.398   3.700  2.4992 -0.6869  0.6416
  420MOL0     H56694   7.959   7.350   3.944 -0.9433  1.3676  0.0993
  420MOL0     H56695   7.821   7.379   3.844  1.7175  2.3207 -2.5486
  420MOL0     H56696   7.726   7.014   3.999 -1.1710 -0.9494 -3.3534
  420MOL0     H56697   8.373   7.397   3.376  1.4165  1.6105 -1.1239
  420MOL0     H56698   8.567   7.480   3.242 -0.9665 -2.2012 -0.1222
  420MOL0     H56699   8.681   7.588   3.335 -0.5368 -0.0899 -0.4907
  420MOL0     H56700   8.712   7.413   3.298 -0.7470 -0.1034  0.6712
  421MOL0     O56701   3.797   0.528   5.874 -0.5033  0.3674 -0.0476
  421MOL0     C56702   3.709   0.605   5.835  0.2555 -0.6681 -0.1137
  421MOL0     O56703   3.734   0.713   5.757  0.8441 -0.0855 -0.4400
  421MOL0     C56704   3.847   0.716   5.678  0.2708  1.6338  0.0902
  421MOL0     C56705   3.875   0.617   5.589 -1.1207 -0.3280 -0.0699
  421MOL0     C56706   3.973   0.632   5.496  0.8279  0.1368  0.3943
  421MOL0     C56707   4.042   0.752   5.483 -0.4622 -0.8119  0.5474
  421MOL0     O56708   4.138   0.780   5.383 -0.7979 -0.3215  0.4717
  421MOL0     C56709   4.203   0.681   5.306 -0.0316 -0.0537 -1.0703
  421MOL0     C56710   4.311   0.619   5.393 -0.8029  0.4281  0.0877
  421MOL0     C56711   4.382   0.718   5.488 -0.1835 -0.9630 -0.2919
  421MOL0     C56712   4.509   0.665   5.559 -0.4964  0.4240 -0.4670
  421MOL0     C56713   4.563   0.769   5.651 -0.0333 -0.7750 -0.0856
  421MOL0     C56714   4.641   0.720   5.765  0.2268  0.1881  0.7029
  421MOL0     C56715   4.775   0.658   5.729 -0.8429  1.2050 -0.1674
  421MOL0     C56716   4.888   0.746   5.676 -0.3240 -0.7526 -0.3222
  421MOL0     N56717   4.980   0.659   5.605  0.6495 -0.0208 -0.7151
  421MOL0     C56718   4.982   0.617   5.473 -0.6535 -0.0157  0.5338
  421MOL0     C56719   5.069   0.513   5.485  0.3308  0.2644 -0.3623
  421MOL0     C56720   5.099   0.419   5.377  0.0758 -0.6753 -0.9180
  421MOL0     C56721   5.066   0.279   5.421  0.0802 -0.4041  0.2958
  421MOL0     C56722   4.925   0.271   5.478 -0.1985  0.0404  0.6984
  421MOL0     C56723   4.880   0.124   5.489  0.0555  0.2299 -0.4263
  421MOL0     O56724   4.818   0.075   5.365 -0.1181  0.3413  0.1892
  421MOL0     C56725   4.683   0.099   5.335 -0.2885 -0.0789 -0.0729
  421MOL0     C56726   4.602   0.182   5.411  0.5897  0.4879  0.0483
  421MOL0     C56727   4.466   0.188   5.383  0.7722 -0.5761 -0.4332
  421MOL0     C56728   4.413   0.124   5.274 -0.1370  0.1199 -0.0587
  421MOL0     C56729   4.269   0.127   5.237 -0.4610 -0.2704 -0.2792
  421MOL0     O56730   4.198   0.200   5.323  0.1839  0.2212  0.0772
  421MOL0     C56731   4.090   0.265   5.285 -0.1037 -0.2856  0.3136
  421MOL0     C56732   3.974   0.238   5.363  0.1786  0.5267 -0.0330
  421MOL0     C56733   3.854   0.304   5.329  0.1853  0.2398 -0.4770
  421MOL0     C56734   3.848   0.389   5.216 -0.0332  0.0702 -0.7801
  421MOL0     O56735   3.723   0.437   5.203 -0.0768  0.4925 -0.0040
  421MOL0     C56736   3.666   0.417   5.074 -0.1007  0.8084  0.0383
  421MOL0     C56737   3.511   0.420   5.079 -0.5904  0.4105  0.3234
  421MOL0     C56738   3.443   0.292   5.129  0.3496 -0.0807  0.1442
  421MOL0     C56739   3.295   0.338   5.151 -0.0307  0.4177  0.3656
  421MOL0     C56740   3.203   0.231   5.209 -0.3532 -0.3256  0.2408
  421MOL0     C56741   3.232   0.192   5.351 -0.5521 -0.3718  0.0750
  421MOL0     C56742   3.144   0.079   5.416  0.4518  0.7169  0.8799
  421MOL0     C56743   3.195   0.023   5.536 -0.1528  0.0788  0.2088
  421MOL0    Cl56744   3.100  -0.115   5.580 -0.4627 -0.1238  0.0568
  421MOL0     C56745   3.959   0.417   5.141 -0.0940 -0.7121  0.5229
  421MOL0     C56746   4.082   0.350   5.167 -0.5177 -0.2655 -0.0820
  421MOL0     O56747   4.232   0.085   5.134  0.1148 -0.2073 -0.2979
  421MOL0     C56748   4.504   0.060   5.188 -0.7163  0.3459 -0.0477
  421MOL0     C56749   4.635   0.042   5.221 -0.6016 -0.2358 -0.1344
  421MOL0     N56750   5.129   0.510   5.605  0.6353  0.2061 -0.7912
  421MOL0     N56751   5.079   0.606   5.680  0.1655  0.2380 -0.3565
  421MOL0     C56752   4.016   0.852   5.574  0.3170  0.3603 -0.3365
  421MOL0     C56753   3.920   0.836   5.677  0.5640  0.4887 -0.5300
  421MOL0     C56754   3.579   0.588   5.904  0.4693 -0.6160  0.1575
  421MOL0     C56755   3.569   0.490   6.012  0.1167  0.3289  0.8605
  421MOL0     C56756   3.440   0.455   6.061  0.0042  0.6229  0.6661
  421MOL0     C56757   3.327   0.507   6.016 -0.6112 -0.2966  0.7399
  421MOL0     O56758   3.213   0.461   6.080 -0.1713 -0.3663 -0.2831
  421MOL0     C56759   3.087   0.504   6.019 -0.4296  0.5399 -0.0387
  421MOL0     C56760   2.978   0.438   6.096 -0.2161 -0.2700  0.2915
  421MOL0     C56761   2.842   0.420   6.027  0.0677 -0.5554  0.7980
  421MOL0     C56762   2.730   0.380   6.124  0.2218  0.1166  0.0918
  421MOL0     C56763   2.605   0.359   6.060 -0.1045 -0.2752 -0.2555
  421MOL0     C56764   2.496   0.323   6.018  0.2076 -0.5457 -0.4648
  421MOL0     C56765   3.331   0.608   5.915  0.5839 -0.6750  0.4077
  421MOL0     C56766   3.454   0.653   5.861 -0.1984 -0.2504 -1.0373
  421MOL0     C56767   3.452   0.774   5.772  0.4780  0.5251  0.3930
  421MOL0     H56768   3.828   0.519   5.585 -0.7959 -0.4750 -0.4122
  421MOL0     H56769   3.992   0.546   5.432  1.4364 -0.1325  0.9296
  421MOL0     H56770   4.131   0.601   5.287 -1.6592  0.7064  1.5348
  421MOL0     H56771   4.231   0.723   5.209 -2.2074 -2.7881 -3.0552
  421MOL0     H56772   4.392   0.577   5.334  2.5926  4.4911  1.3210
  421MOL0     H56773   4.266   0.542   5.456 -0.9503  0.1828 -0.3188
  421MOL0     H56774   4.313   0.757   5.562  1.6371  0.8446  0.5512
  421MOL0     H56775   4.417   0.801   5.426 -1.1217  1.2915  2.0510
  421MOL0     H56776   4.476   0.572   5.607  1.0970  1.3269  2.6688
  421MOL0     H56777   4.585   0.634   5.486 -1.5158 -0.6071 -1.1162
  421MOL0     H56778   4.622   0.840   5.594 -0.2672  0.9708  1.7414
  421MOL0     H56779   4.472   0.811   5.695 -1.6640 -1.2903 -2.7317
  421MOL0     H56780   4.666   0.800   5.835  2.3176 -0.3749  0.6699
  421MOL0     H56781   4.582   0.644   5.817 -2.9243  1.9995  0.0120
  421MOL0     H56782   4.760   0.571   5.665  0.8390  0.1519  0.7916
  421MOL0     H56783   4.812   0.605   5.817  0.1615 -0.1879 -1.3733
  421MOL0     H56784   4.839   0.817   5.609 -1.8827 -2.4479 -1.0573
  421MOL0     H56785   4.927   0.802   5.762 -0.2073  0.8627 -1.3853
  421MOL0     H56786   4.902   0.620   5.399 -1.8627 -1.8197  1.6896
  421MOL0     H56787   5.047   0.457   5.289  2.4680  0.8410 -1.7872
  421MOL0     H56788   5.202   0.414   5.339 -0.3068  1.1953 -2.3658
  421MOL0     H56789   5.069   0.209   5.336  0.7046  0.1435 -0.1469
  421MOL0     H56790   5.151   0.246   5.482  0.6485  0.0423 -0.2380
  421MOL0     H56791   4.859   0.313   5.402  1.7518  0.2887 -0.9490
  421MOL0     H56792   4.920   0.333   5.568  1.3837  1.2664  0.0078
  421MOL0     H56793   4.801   0.131   5.564  1.1161  2.4482  0.5682
  421MOL0     H56794   4.955   0.059   5.535 -1.7555 -2.4962 -1.0637
  421MOL0     H56795   4.640   0.240   5.494  2.5828 -1.3701  0.5200
  421MOL0     H56796   4.400   0.235   5.455 -2.5622 -4.2745 -0.7152
  421MOL0     H56797   3.973   0.173   5.450 -3.5283  0.6833  0.1859
  421MOL0     H56798   3.767   0.282   5.390  1.1378 -1.5138  0.3147
  421MOL0     H56799   3.709   0.492   5.007  0.7452 -0.3697 -0.7820
  421MOL0     H56800   3.702   0.324   5.028 -0.0645  0.6343  0.4157
  421MOL0     H56801   3.473   0.511   5.127  0.6423  0.1277  1.9103
  421MOL0     H56802   3.475   0.435   4.976 -0.2520  3.7472  0.5687
  421MOL0     H56803   3.441   0.213   5.054 -1.6197 -1.0381  1.1214
  421MOL0     H56804   3.490   0.255   5.220  0.4152  1.2298  0.6695
  421MOL0     H56805   3.256   0.376   5.056  4.3142  1.2609 -1.3226
  421MOL0     H56806   3.288   0.417   5.227  0.2126 -0.9471  1.8712
  421MOL0     H56807   3.208   0.141   5.148  2.5968 -1.2190  1.5940
  421MOL0     H56808   3.104   0.275   5.217  0.4575  1.3461  2.0234
  421MOL0     H56809   3.337   0.159   5.356 -0.0202  0.6697 -2.4996
  421MOL0     H56810   3.222   0.281   5.413 -0.6449  0.5529 -1.2188
  421MOL0     H56811   3.141  -0.003   5.343  2.4228  0.9054  0.5172
  421MOL0     H56812   3.041   0.110   5.432 -1.0512 -1.1115 -3.6545
  421MOL0     H56813   3.292  -0.016   5.506 -0.0529  1.3483 -1.2387
  421MOL0     H56814   3.210   0.096   5.617 -0.4946  1.8809 -1.2871
  421MOL0     H56815   3.965   0.484   5.056 -1.0496  1.3557  1.9910
  421MOL0     H56816   4.176   0.375   5.118 -2.1557  4.5303 -1.2917
  421MOL0     H56817   4.476   0.020   5.091  2.0470 -2.9819  0.3003
  421MOL0     H56818   4.702   0.003   5.144  0.1778  1.8437 -0.5931
  421MOL0     H56819   4.067   0.947   5.561  0.2636  1.4253  4.8622
  421MOL0     H56820   3.890   0.916   5.744 -0.0977 -1.3171  1.4337
  421MOL0     H56821   3.653   0.432   6.049  0.4496 -0.1883 -0.6371
  421MOL0     H56822   3.443   0.370   6.128  1.4470 -0.6332 -0.8798
  421MOL0     H56823   3.080   0.479   5.913 -1.0340 -0.1453  0.1613
  421MOL0     H56824   3.075   0.613   6.023 -3.6149  0.2482  0.8299
  421MOL0     H56825   2.952   0.493   6.187 -1.3828  0.9416 -0.7281
  421MOL0     H56826   3.013   0.335   6.110  1.6112  0.1505 -0.9586
  421MOL0     H56827   2.848   0.347   5.945  4.8509 -1.0308  1.2860
  421MOL0     H56828   2.804   0.510   5.979  1.1869 -0.7698 -0.5787
  421MOL0     H56829   2.755   0.286   6.174  1.9477  2.2503  3.6653
  421MOL0     H56830   2.710   0.455   6.202  2.8908  1.1687 -0.1155
  421MOL0     H56831   2.407   0.294   5.966  0.2486  1.1737 -1.5408
  421MOL0     H56832   3.241   0.656   5.878  1.0073 -1.0638 -1.2155
  421MOL0     H56833   3.490   0.743   5.674 -2.1563  1.2298 -0.9515
  421MOL0     H56834   3.349   0.810   5.763  1.2141  2.5926 -0.1021
  421MOL0     H56835   3.518   0.854   5.806  0.9805  0.0434  0.5816
  422MOL0     O56836  10.836   8.595   7.374 -0.3120  0.3234 -0.5829
  422MOL0     C56837  10.713   8.610   7.398  0.0041 -0.8880 -0.0301
  422MOL0     O56838  10.661   8.724   7.436 -0.6629 -0.0770  0.3474
  422MOL0     C56839  10.742   8.837   7.443 -0.1890  0.3929  0.5682
  422MOL0     C56840  10.832   8.875   7.346 -0.2868 -0.1533 -0.6079
  422MOL0     C56841  10.911   8.991   7.368 -1.0580 -0.2726 -0.4545
  422MOL0     C56842  10.890   9.068   7.485  0.1753 -0.0610  0.5888
  422MOL0     O56843  10.963   9.179   7.527  0.2982 -0.8121  0.2107
  422MOL0     C56844  11.106   9.184   7.528 -0.0127  0.1396  0.0703
  422MOL0     C56845  11.158   9.259   7.650 -0.6513 -0.4581 -0.3157
  422MOL0     C56846  11.308   9.312   7.625  0.9087 -0.9547 -0.1196
  422MOL0     C56847  11.351   9.359   7.765 -0.2797  0.1002 -0.4118
  422MOL0     C56848  11.482   9.430   7.764 -0.1554  0.3380 -0.2170
  422MOL0     C56849  11.516   9.502   7.892 -0.4087 -0.2329  0.0145
  422MOL0     C56850  11.645   9.578   7.873 -0.6751  0.5997 -0.1728
  422MOL0     C56851  11.690   9.645   8.004  0.2265 -0.1088  0.0413
  422MOL0     N56852  11.808   9.730   8.011 -0.2413  0.2237  0.0377
  422MOL0     C56853  11.852   9.814   7.911 -0.9054 -0.8366  0.1821
  422MOL0     C56854  11.967   9.870   7.966  0.5850 -0.3300  0.3112
  422MOL0     C56855  12.049   9.972   7.896 -0.1169  0.4793  0.2534
  422MOL0     C56856  12.188   9.989   7.960  0.9852 -0.4333  0.5395
  422MOL0     C56857  12.261  10.116   7.922  0.8368  0.4991 -0.0508
  422MOL0     C56858  12.410  10.099   7.970  0.5414 -0.0591  0.1403
  422MOL0     O56859  12.481  10.217   7.964 -0.6518  0.1860  0.0964
  422MOL0     C56860  12.617  10.209   7.953 -0.1033  0.2979 -0.0743
  422MOL0     C56861  12.683  10.330   7.923  0.2831  0.3335 -0.0072
  422MOL0     C56862  12.815  10.328   7.888 -0.2493  0.8238 -0.0840
  422MOL0     C56863  12.895  10.210   7.905  0.1006 -0.1170  0.4266
  422MOL0     C56864  13.040  10.209   7.876  0.1979  0.7082  0.1740
  422MOL0     O56865  13.100  10.331   7.869 -0.2658  0.0593 -0.0513
  422MOL0     C56866  13.228  10.332   7.842 -0.4421 -0.3522  0.2453
  422MOL0     C56867  13.264  10.386   7.725 -0.1925  0.4033  0.6923
  422MOL0     C56868  13.397  10.378   7.680 -0.6982  0.0158 -0.4777
  422MOL0     C56869  13.500  10.318   7.763  0.5902  0.7639 -0.2097
  422MOL0     O56870  13.631  10.323   7.738 -0.5576  0.4677  0.5071
  422MOL0     C56871  13.668  10.318   7.601 -0.5365  0.4099  0.3440
  422MOL0     C56872  13.800  10.254   7.572  0.5528  0.8506  0.3986
  422MOL0     C56873  13.901  10.330   7.656 -1.0591 -0.5453  0.3681
  422MOL0     C56874  14.035  10.324   7.569 -0.1560 -0.1518  0.4029
  422MOL0     C56875  14.150  10.368   7.646  0.2643  0.7958 -0.0798
  422MOL0     C56876  14.279  10.371   7.563 -0.3711 -0.0258  0.7926
  422MOL0     C56877  14.404  10.445   7.617 -0.3682  0.6968 -0.6174
  422MOL0     C56878  14.544  10.380   7.591  0.0670 -0.1290 -0.3975
  422MOL0    Cl56879  14.597  10.407   7.414  0.1009  0.2392  0.1600
  422MOL0     C56880  13.461  10.264   7.885 -0.8103 -0.9129  0.0621
  422MOL0     C56881  13.330  10.277   7.927  1.2623  0.1418  0.0947
  422MOL0     O56882  13.088  10.099   7.852  0.6528 -0.7797  0.2651
  422MOL0     C56883  12.827  10.090   7.937  0.1261  0.4241 -0.4297
  422MOL0     C56884  12.692  10.087   7.964 -0.9931 -0.4577 -1.0775
  422MOL0     N56885  11.990   9.806   8.081 -0.7571  0.4371  0.6123
  422MOL0     N56886  11.899   9.723   8.113 -0.6580  0.1973  0.1994
  422MOL0     C56887  10.789   9.029   7.565  0.0351  0.8533 -0.4026
  422MOL0     C56888  10.722   8.912   7.554 -0.3885  0.2133  0.4574
  422MOL0     C56889  10.638   8.480   7.394  0.7769  0.1222  0.8189
  422MOL0     C56890  10.711   8.357   7.411  0.5569 -0.4298 -0.2273
  422MOL0     C56891  10.644   8.234   7.415  0.9118  0.8919 -0.3127
  422MOL0     C56892  10.501   8.231   7.389 -1.1470  0.5810 -1.1961
  422MOL0     O56893  10.446   8.104   7.391 -0.2090  0.0195  0.2368
  422MOL0     C56894  10.331   8.086   7.472  0.5388 -0.0686  0.5011
  422MOL0     C56895  10.339   7.948   7.513  0.7629  0.2436  0.1308
  422MOL0     C56896  10.446   7.915   7.622  0.6176 -0.1876  0.3838
  422MOL0     C56897  10.439   7.776   7.682 -0.0018  0.4822  0.6687
  422MOL0     C56898  10.445   7.666   7.590  0.3146 -0.5243 -0.5623
  422MOL0     C56899  10.434   7.566   7.524 -0.5043 -0.7528 -0.3023
  422MOL0     C56900  10.437   8.350   7.366 -0.4534 -0.0808 -0.0652
  422MOL0     C56901  10.498   8.473   7.372 -0.8196 -0.3857 -0.5627
  422MOL0     C56902  10.424   8.597   7.348 -0.5741  0.8123 -0.0386
  422MOL0     H56903  10.862   8.826   7.254  1.6588  0.2569 -0.2378
  422MOL0     H56904  10.992   9.009   7.299  2.8519  0.8219  3.8852
  422MOL0     H56905  11.144   9.081   7.532 -1.2861 -0.3231  0.7226
  422MOL0     H56906  11.151   9.215   7.433  1.4739 -1.5462  0.1738
  422MOL0     H56907  11.143   9.197   7.739 -1.1699  0.5339  0.3169
  422MOL0     H56908  11.082   9.337   7.667 -3.0737 -2.8189  0.5268
  422MOL0     H56909  11.296   9.397   7.557 -2.1471  0.3691  1.8334
  422MOL0     H56910  11.371   9.235   7.581  0.2563 -0.9900 -1.0134
  422MOL0     H56911  11.278   9.432   7.801  0.5767 -0.3075  2.3463
  422MOL0     H56912  11.346   9.267   7.824  2.0716  0.7302  0.8787
  422MOL0     H56913  11.562   9.360   7.739 -0.9883 -0.1722 -1.5864
  422MOL0     H56914  11.478   9.509   7.689  0.3431  0.0412 -0.5611
  422MOL0     H56915  11.431   9.560   7.927 -1.0121 -2.1865  2.0703
  422MOL0     H56916  11.532   9.423   7.966  1.4060 -0.5513 -0.6634
  422MOL0     H56917  11.642   9.653   7.794  1.0864 -0.5611 -1.4228
  422MOL0     H56918  11.724   9.512   7.836 -0.1873  2.0401 -1.8251
  422MOL0     H56919  11.604   9.709   8.027  1.2866  1.5615 -0.5111
  422MOL0     H56920  11.698   9.570   8.084  2.0487  2.2097  2.2081
  422MOL0     H56921  11.820   9.833   7.809  2.6444 -1.7999 -1.2525
  422MOL0     H56922  12.061   9.935   7.794 -0.2445  0.9146  0.0795
  422MOL0     H56923  12.002  10.070   7.885 -0.0267  0.8434  2.6513
  422MOL0     H56924  12.171   9.983   8.068 -1.3551 -2.1204  0.1551
  422MOL0     H56925  12.252   9.904   7.935 -0.7368 -1.6159 -0.0458
  422MOL0     H56926  12.223  10.204   7.975  2.4359  0.7047  0.7919
  422MOL0     H56927  12.253  10.124   7.814 -2.0737 -0.6650 -0.0280
  422MOL0     H56928  12.456  10.021   7.908 -1.0693 -1.2538  0.3873
  422MOL0     H56929  12.397  10.062   8.072 -1.1303  0.0999  0.0104
  422MOL0     H56930  12.631  10.425   7.926  0.2335  0.3560 -1.1919
  422MOL0     H56931  12.862  10.420   7.853  1.3738 -0.0788 -0.3855
  422MOL0     H56932  13.188  10.419   7.655  1.4007 -0.1823 -1.4490
  422MOL0     H56933  13.418  10.429   7.587 -0.5556 -0.8224 -0.9078
  422MOL0     H56934  13.597  10.269   7.534  1.2377 -1.5298 -0.2557
  422MOL0     H56935  13.685  10.416   7.557  2.5790 -1.0192 -2.0763
  422MOL0     H56936  13.797  10.149   7.601  0.9384  0.8409  0.4109
  422MOL0     H56937  13.827  10.268   7.467  0.1378  0.7302  0.2733
  422MOL0     H56938  13.870  10.435   7.665 -0.1445 -0.1803 -0.4868
  422MOL0     H56939  13.914  10.278   7.752  3.1333 -1.7818 -0.6618
  422MOL0     H56940  14.022  10.394   7.487 -0.5433  0.8200  1.2688
  422MOL0     H56941  14.042  10.222   7.530  0.0291 -0.8688  2.2231
  422MOL0     H56942  14.165  10.299   7.729 -3.4902 -2.2768 -1.6661
  422MOL0     H56943  14.119  10.468   7.678  2.8227  1.9407 -0.8668
  422MOL0     H56944  14.312  10.271   7.534 -1.5224 -0.3639  0.6277
  422MOL0     H56945  14.253  10.423   7.470  1.6150 -2.8268 -1.5247
  422MOL0     H56946  14.396  10.451   7.726  1.5038 -2.0596 -0.2310
  422MOL0     H56947  14.413  10.543   7.570  0.8386  1.5733  1.3435
  422MOL0     H56948  14.612  10.408   7.671  0.3678 -0.6258 -0.4750
  422MOL0     H56949  14.532  10.274   7.616  4.1016 -0.3488  1.3945
  422MOL0     H56950  13.531  10.210   7.948  1.4739 -0.0101 -1.5385
  422MOL0     H56951  13.287  10.219   8.007  0.4915  0.1721 -0.2933
  422MOL0     H56952  12.888  10.000   7.945 -1.6727 -0.6444  3.0036
  422MOL0     H56953  12.647   9.990   7.981  0.5068 -1.1971 -1.2333
  422MOL0     H56954  10.770   9.089   7.654 -1.4426 -0.4714  0.2379
  422MOL0     H56955  10.650   8.885   7.631  1.1517  1.0969  2.2858
  422MOL0     H56956  10.818   8.361   7.432  0.3690  0.2449  0.6775
  422MOL0     H56957  10.700   8.142   7.427 -1.9565 -0.9623 -0.3962
  422MOL0     H56958  10.242   8.096   7.409  0.6476 -0.1491  0.3375
  422MOL0     H56959  10.315   8.165   7.546  0.0633 -0.2257  0.5731
  422MOL0     H56960  10.349   7.878   7.429  1.6822  0.7348 -0.1858
  422MOL0     H56961  10.240   7.929   7.554  1.1649 -1.9852  0.1869
  422MOL0     H56962  10.430   7.989   7.701 -0.6925  0.5071 -0.4833
  422MOL0     H56963  10.542   7.941   7.575 -0.7427  0.6670 -2.1620
  422MOL0     H56964  10.512   7.786   7.763 -1.7590  1.8198  2.1719
  422MOL0     H56965  10.343   7.771   7.735  0.1189  1.1681  0.9608
  422MOL0     H56966  10.445   7.479   7.463 -3.5339  0.3714 -2.7106
  422MOL0     H56967  10.332   8.345   7.342 -0.2850 -3.7498 -0.7119
  422MOL0     H56968  10.385   8.636   7.442 -2.0699 -0.4121 -0.0968
  422MOL0     H56969  10.478   8.669   7.287 -1.7653 -0.0220 -2.1945
  422MOL0     H56970  10.341   8.583   7.278  0.1648 -0.1595 -0.7519
  423MOL0     O56971   7.597   4.516   2.556 -0.7553  0.4085  0.1419
  423MOL0     C56972   7.593   4.633   2.523  0.0516  0.1567  0.2157
  423MOL0     O56973   7.701   4.709   2.523 -0.4797 -0.1925  0.2048
  423MOL0     C56974   7.826   4.657   2.557  0.9716  0.8748  0.2986
  423MOL0     C56975   7.863   4.638   2.689 -0.7343  0.3448 -0.4717
  423MOL0     C56976   7.993   4.590   2.721  0.5741  0.5612  0.3499
  423MOL0     C56977   8.078   4.551   2.616 -0.2248 -0.1967 -0.0613
  423MOL0     O56978   8.212   4.512   2.638 -0.3278 -0.1103 -0.4901
  423MOL0     C56979   8.239   4.476   2.774 -0.1186  0.3542  0.0846
  423MOL0     C56980   8.388   4.433   2.774 -0.1624 -0.6816  0.0001
  423MOL0     C56981   8.481   4.551   2.796  0.4313 -0.2324 -0.2329
  423MOL0     C56982   8.586   4.559   2.682  0.0597 -0.0855 -0.0626
  423MOL0     C56983   8.684   4.670   2.714 -0.4548 -0.3422 -0.0684
  423MOL0     C56984   8.789   4.689   2.597 -0.0691  0.4473 -0.7412
  423MOL0     C56985   8.897   4.786   2.626  0.2315 -0.3815 -0.2975
  423MOL0     C56986   8.846   4.930   2.646 -0.4414  0.1263 -0.0161
  423MOL0     N56987   8.941   5.029   2.594 -0.1008  0.8077 -0.1497
  423MOL0     C56988   8.918   5.153   2.540 -0.1095 -0.1099 -0.4117
  423MOL0     C56989   9.044   5.211   2.536 -0.6622  0.4310 -0.3898
  423MOL0     C56990   9.066   5.346   2.466  0.1122  0.5254 -0.2429
  423MOL0     C56991   9.092   5.320   2.318  0.0275 -0.0951  0.5656
  423MOL0     C56992   9.209   5.225   2.292  0.1887 -0.4191  0.0464
  423MOL0     C56993   9.254   5.222   2.150 -0.6046  0.7044  0.2859
  423MOL0     O56994   9.361   5.125   2.137  0.4492 -0.3505  0.6464
  423MOL0     C56995   9.490   5.161   2.141 -0.3359  0.2231 -0.0593
  423MOL0     C56996   9.545   5.281   2.195  0.5329 -0.0646 -1.3270
  423MOL0     C56997   9.686   5.300   2.209  0.0351 -0.2121  0.9523
  423MOL0     C56998   9.771   5.201   2.151  0.5989 -0.6738 -0.4290
  423MOL0     C56999   9.921   5.208   2.161 -0.3324  0.5465 -0.1338
  423MOL0     O57000   9.993   5.092   2.163 -0.2203 -0.3606 -0.4682
  423MOL0     C57001  10.126   5.084   2.124  0.3621 -0.3978 -0.2385
  423MOL0     C57002  10.159   4.989   2.035  0.0937  0.3250  0.4172
  423MOL0     C57003  10.290   4.978   1.977 -0.0502 -0.2108 -0.3150
  423MOL0     C57004  10.397   5.058   2.028 -0.3572 -0.3184  0.3583
  423MOL0     O57005  10.525   5.032   1.981 -0.0673 -0.0109 -0.6129
  423MOL0     C57006  10.610   5.141   1.976 -0.6822 -0.5957  0.0310
  423MOL0     C57007  10.720   5.102   1.884 -0.9535  0.6355  0.1285
  423MOL0     C57008  10.815   5.217   1.859  0.2133 -0.7704  0.4674
  423MOL0     C57009  10.940   5.195   1.764 -0.2174 -0.2342 -0.5419
  423MOL0     C57010  11.043   5.307   1.798 -0.8430  1.0720 -0.7016
  423MOL0     C57011  11.157   5.287   1.700  0.4303 -0.4936  0.4038
  423MOL0     C57012  11.273   5.377   1.727  0.7729 -0.3134  0.3030
  423MOL0     C57013  11.406   5.296   1.695  0.0449  0.4661  0.5413
  423MOL0    Cl57014  11.539   5.399   1.738  0.2308  0.3916  0.0262
  423MOL0     C57015  10.359   5.150   2.130 -0.0298 -0.3331  0.1657
  423MOL0     C57016  10.229   5.166   2.177 -0.3214 -0.5287 -0.4780
  423MOL0     O57017   9.977   5.321   2.182  0.8739  1.1265  0.2865
  423MOL0     C57018   9.711   5.082   2.089  0.0024  0.0029  0.0618
  423MOL0     C57019   9.575   5.056   2.090  0.0963 -0.4106 -0.4157
  423MOL0     N57020   9.134   5.123   2.585  0.0609 -0.5003 -0.1325
  423MOL0     N57021   9.074   5.011   2.618  0.4766 -0.2240 -0.4519
  423MOL0     C57022   8.034   4.567   2.487 -1.2268  0.0187  0.6067
  423MOL0     C57023   7.910   4.621   2.457  0.3479  0.3442  0.1067
  423MOL0     C57024   7.465   4.700   2.477 -0.1141  0.0364  1.1430
  423MOL0     C57025   7.479   4.820   2.398  0.1712  0.6410 -0.8263
  423MOL0     C57026   7.373   4.881   2.347  0.2697  0.0708  0.2666
  423MOL0     C57027   7.239   4.830   2.372 -0.0677  0.2329  0.8511
  423MOL0     O57028   7.140   4.906   2.319 -0.3870 -0.4542  0.1911
  423MOL0     C57029   7.009   4.854   2.320 -0.2559 -0.5087 -0.1692
  423MOL0     C57030   6.923   4.930   2.219 -0.7072  0.3590 -0.5515
  423MOL0     C57031   6.938   5.081   2.231 -0.5664 -1.2997  0.2189
  423MOL0     C57032   6.830   5.139   2.136 -0.4893  0.4197 -0.9461
  423MOL0     C57033   6.857   5.278   2.124 -0.7956  0.4535 -1.3184
  423MOL0     C57034   6.892   5.396   2.135 -0.1240  0.2791 -0.0383
  423MOL0     C57035   7.224   4.721   2.451 -0.2449  0.0386 -0.2155
  423MOL0     C57036   7.333   4.649   2.505 -0.1921 -0.5355 -0.4208
  423MOL0     C57037   7.296   4.533   2.584  1.3103  0.1382 -0.6523
  423MOL0     H57038   7.796   4.663   2.771 -0.6256  0.7744 -0.5074
  423MOL0     H57039   8.015   4.579   2.826  1.7241 -0.5488  0.0128
  423MOL0     H57040   8.242   4.562   2.841 -0.1115 -0.0816  0.6448
  423MOL0     H57041   8.175   4.395   2.810 -1.4616 -0.3147 -3.4047
  423MOL0     H57042   8.414   4.391   2.677  2.3080 -0.7682  0.6433
  423MOL0     H57043   8.400   4.363   2.857 -0.5503 -0.8616 -0.0960
  423MOL0     H57044   8.534   4.521   2.888 -0.2081 -4.7168 -1.0714
  423MOL0     H57045   8.428   4.646   2.793  1.7676  0.6362  1.6911
  423MOL0     H57046   8.636   4.462   2.674 -0.0307 -0.2247  0.8944
  423MOL0     H57047   8.546   4.588   2.584  0.8107  1.8868  0.1770
  423MOL0     H57048   8.629   4.762   2.738  3.5716  1.8879  1.5763
  423MOL0     H57049   8.736   4.640   2.805 -0.9787 -1.5305 -0.1438
  423MOL0     H57050   8.834   4.590   2.581  0.2462  0.4665 -0.0060
  423MOL0     H57051   8.730   4.727   2.513 -0.2099  1.5072 -0.1832
  423MOL0     H57052   8.961   4.773   2.538 -1.2220  1.0301 -1.6162
  423MOL0     H57053   8.948   4.756   2.718 -0.1176  0.2734  0.1232
  423MOL0     H57054   8.743   4.943   2.610 -1.2622 -0.6832  1.9185
  423MOL0     H57055   8.823   4.939   2.752  1.2285 -0.9579  0.4784
  423MOL0     H57056   8.821   5.197   2.522  0.2819  1.6925  1.5409
  423MOL0     H57057   8.974   5.403   2.482  1.4229  2.3391  1.2862
  423MOL0     H57058   9.154   5.400   2.500 -0.2562  0.4442  0.8865
  423MOL0     H57059   9.007   5.275   2.267 -0.4424  0.7798  0.5585
  423MOL0     H57060   9.122   5.418   2.280  0.6538  0.2792  1.9664
  423MOL0     H57061   9.180   5.122   2.315 -0.5138  0.2446  2.4540
  423MOL0     H57062   9.297   5.256   2.349  2.3384  2.1144 -4.1192
  423MOL0     H57063   9.284   5.322   2.116 -0.6514 -0.0316 -2.1086
  423MOL0     H57064   9.165   5.194   2.092 -0.9572  2.1083  0.1125
  423MOL0     H57065   9.473   5.358   2.221  1.5329  0.4621  0.0310
  423MOL0     H57066   9.736   5.387   2.252  0.6879  0.1561 -0.4948
  423MOL0     H57067  10.081   4.929   1.989  1.1531 -0.6943 -0.1132
  423MOL0     H57068  10.300   4.911   1.892  0.1669  0.3255 -0.7217
  423MOL0     H57069  10.572   5.237   1.940  1.6633  0.5262  0.3337
  423MOL0     H57070  10.649   5.165   2.075 -2.5714 -0.8991  0.8883
  423MOL0     H57071  10.776   5.013   1.915  1.1850  2.7449  2.7843
  423MOL0     H57072  10.683   5.091   1.782  0.2355  3.4587 -0.6976
  423MOL0     H57073  10.749   5.297   1.821 -0.1877 -0.8539  0.9796
  423MOL0     H57074  10.848   5.249   1.958  0.4314  0.2066  0.0964
  423MOL0     H57075  10.906   5.189   1.660 -1.2085 -1.5058 -0.1704
  423MOL0     H57076  10.981   5.098   1.795 -1.1425 -0.0868  1.3174
  423MOL0     H57077  11.073   5.294   1.903 -1.2255 -0.3410 -0.7447
  423MOL0     H57078  11.005   5.409   1.784  3.3287  3.3276  2.3065
  423MOL0     H57079  11.198   5.187   1.685 -1.7955 -1.1680 -2.0435
  423MOL0     H57080  11.124   5.336   1.608  5.5768  1.6418 -0.6224
  423MOL0     H57081  11.268   5.410   1.832 -1.1122 -0.1398  0.1891
  423MOL0     H57082  11.260   5.472   1.673 -1.8771 -1.3565 -1.0502
  423MOL0     H57083  11.406   5.203   1.753  0.3163  0.1782  0.0884
  423MOL0     H57084  11.416   5.267   1.590 -0.5449 -1.3759  0.9632
  423MOL0     H57085  10.432   5.218   2.174  0.4630 -0.2786 -0.7028
  423MOL0     H57086  10.203   5.253   2.237 -1.5831 -0.9685 -0.3461
  423MOL0     H57087   9.782   5.009   2.051 -1.1679 -0.4708 -1.2824
  423MOL0     H57088   9.540   4.958   2.060 -2.2658  0.5498 -0.9890
  423MOL0     H57089   8.092   4.539   2.400 -2.2006 -0.1638  0.0032
  423MOL0     H57090   7.879   4.626   2.353 -0.7902 -0.4880  0.3793
  423MOL0     H57091   7.581   4.843   2.370  0.9715 -1.3585  0.2332
  423MOL0     H57092   7.381   4.967   2.281 -0.6115  1.2200  1.5785
  423MOL0     H57093   6.969   4.850   2.421  1.1681  0.3288  0.4629
  423MOL0     H57094   7.006   4.755   2.272  2.7998  0.3919 -2.5518
  423MOL0     H57095   6.820   4.895   2.217 -0.1542 -1.3979 -2.6385
  423MOL0     H57096   6.958   4.896   2.121 -2.5441  0.2053 -1.1915
  423MOL0     H57097   7.035   5.096   2.183 -1.5041 -3.6678 -2.7300
  423MOL0     H57098   6.940   5.105   2.338  0.7201  1.5701 -0.3576
  423MOL0     H57099   6.819   5.086   2.041 -3.7683  0.5085 -0.7191
  423MOL0     H57100   6.733   5.125   2.185 -0.6180  0.6268 -1.1438
  423MOL0     H57101   6.943   5.490   2.128  1.3112 -0.5119 -0.7345
  423MOL0     H57102   7.123   4.680   2.457 -0.2252  0.1042  0.8037
  423MOL0     H57103   7.298   4.453   2.510  1.6063 -1.1970  0.7445
  423MOL0     H57104   7.365   4.511   2.666  3.3761 -0.9828 -2.5907
  423MOL0     H57105   7.197   4.550   2.629  0.9732  1.2699 -1.7629
  424MOL0     O57106   4.927  10.204   4.005 -0.1831  0.2562 -0.4582
  424MOL0     C57107   4.937  10.136   4.105 -0.1854  0.0615 -0.7810
  424MOL0     O57108   5.042  10.058   4.136 -0.0340 -0.9736  0.5646
  424MOL0     C57109   5.146  10.051   4.041 -0.8108  0.2512 -0.3206
  424MOL0     C57110   5.129  10.001   3.907  0.0707 -0.7019  0.2030
  424MOL0     C57111   5.232   9.989   3.825 -0.0305 -0.2801 -0.2301
  424MOL0     C57112   5.362  10.032   3.871  0.1242 -0.2928 -1.5690
  424MOL0     O57113   5.473  10.039   3.798 -0.3257 -0.5189 -0.6486
  424MOL0     C57114   5.496   9.923   3.713 -0.2482 -0.2211 -0.1535
  424MOL0     C57115   5.632   9.871   3.733 -0.3908 -0.2663  0.4391
  424MOL0     C57116   5.736   9.966   3.672 -0.1735  0.9058  0.4963
  424MOL0     C57117   5.871   9.901   3.677  0.5277  0.6369  0.1564
  424MOL0     C57118   5.990   9.996   3.652  0.8666  0.1221  0.3137
  424MOL0     C57119   6.130   9.931   3.632  0.2911  0.5042 -0.4451
  424MOL0     C57120   6.237  10.026   3.595  0.0620 -0.0209 -0.3969
  424MOL0     C57121   6.374   9.962   3.628 -0.2511 -0.1471  0.2725
  424MOL0     N57122   6.407   9.846   3.556  0.3479  0.3374  0.4976
  424MOL0     C57123   6.444   9.840   3.427 -0.4700 -0.2962 -0.1079
  424MOL0     C57124   6.472   9.710   3.408  0.7259 -0.8178  0.5303
  424MOL0     C57125   6.501   9.647   3.277 -0.4436 -0.1722  0.0424
  424MOL0     C57126   6.645   9.666   3.232  0.3255  0.0700  0.4904
  424MOL0     C57127   6.736   9.550   3.281  0.2395 -0.2449  0.6539
  424MOL0     C57128   6.882   9.583   3.254  0.0770  0.0622  0.3110
  424MOL0     O57129   6.979   9.502   3.315  0.2895 -0.1189 -0.2639
  424MOL0     C57130   7.110   9.536   3.311 -0.2317  0.2601 -0.1530
  424MOL0     C57131   7.201   9.457   3.389  0.0382 -0.5743 -0.4618
  424MOL0     C57132   7.345   9.468   3.385  0.2105  0.7529 -0.3272
  424MOL0     C57133   7.397   9.562   3.297  0.3438  1.3643 -0.9950
  424MOL0     C57134   7.543   9.574   3.302  0.7870  0.0003  0.0346
  424MOL0     O57135   7.595   9.676   3.225  0.5990 -0.3255  0.0859
  424MOL0     C57136   7.731   9.686   3.207 -0.2315 -0.2531  1.1105
  424MOL0     C57137   7.828   9.642   3.303  0.6828 -0.1201  0.1568
  424MOL0     C57138   7.967   9.654   3.276 -0.6186  0.6652 -1.1281
  424MOL0     C57139   8.020   9.699   3.153  0.2198  0.1565 -0.0249
  424MOL0     O57140   8.156   9.716   3.133  0.9437  0.2173 -0.5081
  424MOL0     C57141   8.210   9.836   3.069 -1.1024  0.1729 -0.8546
  424MOL0     C57142   8.260   9.806   2.924  0.3829 -0.0533  0.1289
  424MOL0     C57143   8.395   9.730   2.931 -0.1611  0.1094  0.1867
  424MOL0     C57144   8.424   9.684   2.787 -0.0065  0.2061 -0.8222
  424MOL0     C57145   8.572   9.633   2.765 -0.1390  1.0514  0.1232
  424MOL0     C57146   8.673   9.726   2.701 -0.1004  0.4960 -0.4886
  424MOL0     C57147   8.744   9.808   2.809 -0.0808 -0.4366 -0.6932
  424MOL0     C57148   8.792   9.737   2.929  0.1820 -0.5478 -0.7789
  424MOL0    Cl57149   8.920   9.618   2.891  0.0568  0.1847 -0.0405
  424MOL0     C57150   7.924   9.745   3.063 -0.1884 -0.2015 -0.0195
  424MOL0     C57151   7.790   9.736   3.082  0.4322  0.8547 -0.1858
  424MOL0     O57152   7.612   9.494   3.369 -0.0202 -0.1308 -0.1510
  424MOL0     C57153   7.315   9.643   3.222  0.6203  0.5961 -1.1075
  424MOL0     C57154   7.170   9.640   3.236 -0.7114  0.6490  0.6241
  424MOL0     N57155   6.459   9.640   3.521  0.4713  0.4521 -0.1621
  424MOL0     N57156   6.411   9.723   3.610  0.1389  0.3201  0.5011
  424MOL0     C57157   5.379  10.088   4.000 -0.1926  0.2897  0.2340
  424MOL0     C57158   5.276  10.088   4.093 -0.0207 -1.1582 -0.4687
  424MOL0     C57159   4.831  10.152   4.209 -0.2589  0.1243 -0.3349
  424MOL0     C57160   4.850  10.085   4.330  0.1946  0.4162 -0.4940
  424MOL0     C57161   4.757  10.097   4.433  1.2755 -0.0174  0.3225
  424MOL0     C57162   4.636  10.164   4.420 -0.7976 -0.9071  0.3416
  424MOL0     O57163   4.559  10.173   4.534  0.3260  0.3478  0.1620
  424MOL0     C57164   4.425  10.230   4.522  0.1484  0.0700  0.1936
  424MOL0     C57165   4.358  10.215   4.658  0.2559  0.2846  0.4553
  424MOL0     C57166   4.230  10.295   4.661  1.0589  0.2714 -0.1430
  424MOL0     C57167   4.187  10.279   4.812 -0.0474  1.1642 -0.0929
  424MOL0     C57168   4.142  10.143   4.854 -0.3017  0.1107 -0.1819
  424MOL0     C57169   4.111  10.024   4.879 -0.2170 -0.8147 -0.6032
  424MOL0     C57170   4.611  10.231   4.295 -0.1617  0.2666  0.3216
  424MOL0     C57171   4.707  10.222   4.187 -0.3349  0.3207  0.3516
  424MOL0     C57172   4.671  10.282   4.062  0.1195 -0.4006  0.0037
  424MOL0     H57173   5.030   9.973   3.872 -0.3908  0.5502  0.4568
  424MOL0     H57174   5.226   9.951   3.724 -0.8895  1.3528 -0.8283
  424MOL0     H57175   5.430   9.837   3.733 -1.7460  0.1555 -2.9239
  424MOL0     H57176   5.472   9.950   3.610  2.8834 -0.0117 -0.8997
  424MOL0     H57177   5.652   9.768   3.700  4.4286 -0.2890  2.5129
  424MOL0     H57178   5.634   9.866   3.842 -0.0107  0.7793  0.4946
  424MOL0     H57179   5.734  10.061   3.727  2.6349 -0.0064  2.3912
  424MOL0     H57180   5.719   9.982   3.565  0.1643  0.4774  0.3738
  424MOL0     H57181   5.895   9.867   3.778  1.9895  0.9874 -0.0423
  424MOL0     H57182   5.871   9.809   3.619 -0.1800  1.0800 -0.5647
  424MOL0     H57183   5.968  10.059   3.566 -0.1670 -0.3597  0.2023
  424MOL0     H57184   6.005  10.075   3.727  1.6206  2.1378 -1.8406
  424MOL0     H57185   6.147   9.891   3.732 -2.1886 -0.6082 -0.3984
  424MOL0     H57186   6.122   9.855   3.554 -2.4407  0.7475 -0.5027
  424MOL0     H57187   6.220  10.116   3.654  1.1218  1.7864 -2.6989
  424MOL0     H57188   6.232  10.058   3.490  1.4656  2.8800  0.3175
  424MOL0     H57189   6.442  10.047   3.616 -1.3988  0.6656 -0.7296
  424MOL0     H57190   6.378   9.936   3.734  0.3809  1.9562  0.8175
  424MOL0     H57191   6.457   9.922   3.358  1.1518 -0.0743  0.4092
  424MOL0     H57192   6.480   9.540   3.283 -1.1549  0.0446  2.6686
  424MOL0     H57193   6.436   9.694   3.204 -0.9559 -1.4211 -0.3300
  424MOL0     H57194   6.643   9.656   3.123 -2.1240  1.9274  0.2633
  424MOL0     H57195   6.683   9.762   3.268  0.8601 -0.1029  0.3922
  424MOL0     H57196   6.712   9.454   3.233 -1.6434  0.2688  0.4736
  424MOL0     H57197   6.728   9.539   3.389 -0.9857  1.8841  0.8358
  424MOL0     H57198   6.903   9.685   3.285 -3.2791  0.8914  0.2462
  424MOL0     H57199   6.891   9.580   3.145  0.6452 -0.8765  0.3735
  424MOL0     H57200   7.159   9.386   3.460  0.3489 -1.4129 -1.1044
  424MOL0     H57201   7.414   9.421   3.455  1.1349 -0.0923 -1.7401
  424MOL0     H57202   7.803   9.610   3.403  2.4813  1.0694  1.0344
  424MOL0     H57203   8.037   9.623   3.352 -0.2664  0.3978 -1.5595
  424MOL0     H57204   8.136   9.917   3.070 -0.0936  1.1140  0.3816
  424MOL0     H57205   8.282   9.882   3.136 -3.1715  3.0927 -0.4556
  424MOL0     H57206   8.187   9.747   2.870  0.5919 -1.2113  1.0582
  424MOL0     H57207   8.286   9.900   2.875 -1.8865 -0.2272 -1.5631
  424MOL0     H57208   8.475   9.799   2.958  0.4534 -0.5496  0.0796
  424MOL0     H57209   8.395   9.642   2.996  0.7869 -0.1420 -0.1329
  424MOL0     H57210   8.429   9.770   2.720  4.2974  1.4054  0.6890
  424MOL0     H57211   8.346   9.613   2.756 -0.7234  0.2674  0.7476
  424MOL0     H57212   8.568   9.555   2.689  2.2990  1.7944 -0.8672
  424MOL0     H57213   8.609   9.580   2.853  2.6417 -0.7519 -1.9496
  424MOL0     H57214   8.744   9.661   2.650 -1.3973 -1.8203  0.4984
  424MOL0     H57215   8.629   9.781   2.618 -2.0124 -0.9828 -0.5131
  424MOL0     H57216   8.677   9.884   2.851  1.3680 -1.1356  3.3059
  424MOL0     H57217   8.829   9.863   2.768 -0.8584  1.5958  0.2584
  424MOL0     H57218   8.843   9.817   2.983 -2.5953  2.0176 -1.6609
  424MOL0     H57219   8.715   9.692   2.993  0.7914  1.9797  1.9680
  424MOL0     H57220   7.951   9.799   2.972  1.7887 -1.3618 -0.1778
  424MOL0     H57221   7.730   9.769   2.998 -2.1102 -0.5439  0.9534
  424MOL0     H57222   7.359   9.715   3.154  1.5968  2.0717  0.9753
  424MOL0     H57223   7.116   9.706   3.169 -1.8585 -1.7434 -0.9336
  424MOL0     H57224   5.477  10.126   4.026 -0.1990  0.1729  0.4231
  424MOL0     H57225   5.290  10.125   4.194  2.0018 -1.8133 -0.4546
  424MOL0     H57226   4.941  10.025   4.334 -0.4981 -0.6470 -0.3881
  424MOL0     H57227   4.778  10.044   4.525 -1.1912  0.2102  1.0965
  424MOL0     H57228   4.375  10.171   4.445 -1.4672  0.5329  0.8637
  424MOL0     H57229   4.437  10.333   4.486  4.8661 -0.1021  0.6653
  424MOL0     H57230   4.425  10.243   4.740  1.4870 -0.1934 -0.3533
  424MOL0     H57231   4.337  10.108   4.669 -0.2419  0.5416  2.2302
  424MOL0     H57232   4.154  10.263   4.589  1.5969 -0.0430 -0.5808
  424MOL0     H57233   4.240  10.402   4.641 -0.4219  0.3727 -0.4757
  424MOL0     H57234   4.275  10.302   4.873  0.5990 -1.6082  0.1824
  424MOL0     H57235   4.107  10.349   4.836  0.4176  0.9657  2.2643
  424MOL0     H57236   4.091   9.920   4.896 -1.3388 -0.5307 -0.1048
  424MOL0     H57237   4.527  10.299   4.294  0.4186  1.1217  2.6707
  424MOL0     H57238   4.670  10.214   3.976 -1.0538  1.8922 -1.9075
  424MOL0     H57239   4.568  10.319   4.069  1.1189  2.4426  1.1881
  424MOL0     H57240   4.738  10.367   4.053  0.8975 -1.1566 -2.1805
  425MOL0     O57241  10.199   9.390   0.943 -0.0822 -0.4089 -0.2747
  425MOL0     C57242  10.145   9.426   0.841  0.7462  0.2941  0.0712
  425MOL0     O57243  10.210   9.438   0.722 -0.3991  0.2797  0.3155
  425MOL0     C57244  10.343   9.464   0.710  0.0119  0.6405  0.5976
  425MOL0     C57245  10.439   9.492   0.813  0.2839  0.8596  0.2767
  425MOL0     C57246  10.574   9.503   0.794  0.2045  0.0817  0.2671
  425MOL0     C57247  10.615   9.506   0.658 -0.3237  1.3637  0.5030
  425MOL0     O57248  10.746   9.502   0.627  0.2507  0.1189 -0.4632
  425MOL0     C57249  10.822   9.592   0.707 -0.5673 -0.3846 -0.5205
  425MOL0     C57250  10.963   9.620   0.652  0.4221  0.6307  0.1246
  425MOL0     C57251  11.058   9.692   0.749 -0.5642  0.2097  0.0977
  425MOL0     C57252  11.204   9.674   0.703 -0.0050 -0.1946  0.8016
  425MOL0     C57253  11.241   9.780   0.592  0.1416  1.0019 -0.2494
  425MOL0     C57254  11.384   9.756   0.545 -0.0057 -0.3266 -0.3535
  425MOL0     C57255  11.374   9.664   0.428  0.2949 -0.3414 -0.0216
  425MOL0     C57256  11.509   9.658   0.359  1.2565  0.2046 -0.7991
  425MOL0     N57257  11.530   9.543   0.267 -0.5954  0.7301  0.6235
  425MOL0     C57258  11.564   9.417   0.308 -0.2738 -0.2018  0.0305
  425MOL0     C57259  11.603   9.358   0.190 -1.0272  0.2678 -0.1341
  425MOL0     C57260  11.645   9.212   0.177 -0.2008  0.2396  0.4450
  425MOL0     C57261  11.790   9.200   0.198  0.4923  0.6791 -0.1168
  425MOL0     C57262  11.832   9.057   0.165  1.0087 -0.3129 -1.3275
  425MOL0     C57263  11.986   9.057   0.158 -0.2341  0.2488  0.3471
  425MOL0     O57264  12.059   9.086   0.280  0.3368 -0.5815 -0.7133
  425MOL0     C57265  12.194   9.089   0.285 -1.0202 -0.5499  0.5658
  425MOL0     C57266  12.255   9.067   0.411  0.0213 -0.9870  0.2709
  425MOL0     C57267  12.393   9.061   0.422 -0.1510 -0.1458  0.5691
  425MOL0     C57268  12.475   9.070   0.310  0.2226  0.4003 -0.6443
  425MOL0     C57269  12.619   9.046   0.330 -0.6655 -0.8909  1.0555
  425MOL0     O57270  12.702   9.074   0.228 -0.1264 -0.1478  0.0282
  425MOL0     C57271  12.834   9.041   0.234  0.1831 -0.7272 -0.2759
  425MOL0     C57272  12.890   8.912   0.237  1.2125  0.9361 -0.0230
  425MOL0     C57273  13.031   8.882   0.250  0.7199 -0.1895  0.9263
  425MOL0     C57274  13.124   8.989   0.257  0.2550 -0.0300 -0.2716
  425MOL0     O57275  13.261   8.960   0.273  0.6805  0.4491  0.3113
  425MOL0     C57276  13.360   9.068   0.264 -0.5207  0.0020 -0.7037
  425MOL0     C57277  13.497   9.024   0.302  0.7646 -0.0101  0.1966
  425MOL0     C57278  13.588   9.154   0.303  0.1761  0.0914 -0.1865
  425MOL0     C57279  13.634   9.186   0.167  1.2829  0.1288  0.4556
  425MOL0     C57280  13.774   9.242   0.151 -0.2846 -0.2401 -0.0789
  425MOL0     C57281  13.888   9.139   0.182 -0.0293  0.7862  0.0794
  425MOL0     C57282  14.020   9.207   0.191  0.3136 -0.9929  0.2659
  425MOL0     C57283  14.134   9.121   0.237  0.3224  0.1903  0.6602
  425MOL0    Cl57284  14.146   9.124   0.421 -0.1861  0.3338 -0.4793
  425MOL0     C57285  13.072   9.120   0.240  0.0298  0.3797 -0.5378
  425MOL0     C57286  12.932   9.143   0.226  0.5823 -0.2626  0.2987
  425MOL0     O57287  12.654   9.009   0.447  0.1110 -0.7649 -0.3666
  425MOL0     C57288  12.417   9.097   0.185  0.2069 -0.0720  0.0848
  425MOL0     C57289  12.277   9.101   0.172 -0.7331  0.1695 -0.9359
  425MOL0     N57290  11.588   9.449   0.083 -0.1841 -0.2274  0.1747
  425MOL0     N57291  11.547   9.561   0.130 -0.6349  0.2023 -0.8827
  425MOL0     C57292  10.526   9.474   0.551  0.5213 -0.4669 -0.0090
  425MOL0     C57293  10.388   9.444   0.573  0.4459  0.5228 -0.8789
  425MOL0     C57294  10.000   9.436   0.834  0.3594 -1.2606 -0.8486
  425MOL0     C57295   9.927   9.436   0.954 -0.3545  0.0635 -0.2685
  425MOL0     C57296   9.785   9.451   0.962 -0.0220 -0.5858 -0.2113
  425MOL0     C57297   9.710   9.495   0.855 -0.1070 -0.7735  1.1861
  425MOL0     O57298   9.577   9.532   0.879  0.2257 -0.0038 -0.3239
  425MOL0     C57299   9.560   9.668   0.842 -0.4601 -0.0917 -0.1199
  425MOL0     C57300   9.441   9.733   0.913  0.0369  0.1346  0.4894
  425MOL0     C57301   9.316   9.727   0.820 -0.2839 -0.7238 -0.6134
  425MOL0     C57302   9.192   9.786   0.879  0.3702  0.5231 -0.3044
  425MOL0     C57303   9.084   9.778   0.782  0.0047  0.2065  0.4350
  425MOL0     C57304   9.003   9.752   0.694  0.0727  1.0458  0.5684
  425MOL0     C57305   9.778   9.494   0.733  0.0070  0.5578 -0.5448
  425MOL0     C57306   9.918   9.462   0.718  0.8879  0.0306 -0.3834
  425MOL0     C57307   9.978   9.475   0.576  0.2641  0.6963  0.0216
  425MOL0     H57308  10.396   9.508   0.912 -1.1084 -0.1298 -0.1316
  425MOL0     H57309  10.635   9.526   0.881  0.5821  2.2844 -0.5242
  425MOL0     H57310  10.771   9.689   0.713 -0.0390 -0.1101 -0.4791
  425MOL0     H57311  10.842   9.548   0.805 -4.5114  2.4517  1.8641
  425MOL0     H57312  10.953   9.658   0.550  0.0925 -0.2896 -0.2029
  425MOL0     H57313  11.014   9.525   0.632  2.2003  1.1517  1.7876
  425MOL0     H57314  11.052   9.635   0.842 -1.2302  0.5309  0.2528
  425MOL0     H57315  11.022   9.794   0.764  0.6729  0.5369  0.9540
  425MOL0     H57316  11.264   9.695   0.792  2.0020  0.2972 -0.6009
  425MOL0     H57317  11.226   9.572   0.669 -0.5526  0.4729 -1.8290
  425MOL0     H57318  11.168   9.779   0.511  0.1422  0.7545 -0.2473
  425MOL0     H57319  11.244   9.883   0.629  0.2243  0.5977  0.9013
  425MOL0     H57320  11.428   9.849   0.508  1.6660 -0.9891 -0.1259
  425MOL0     H57321  11.459   9.720   0.616 -0.5768  1.5845  1.2766
  425MOL0     H57322  11.294   9.689   0.358 -0.5695  0.8319  1.3350
  425MOL0     H57323  11.347   9.562   0.457  0.0973 -0.3545 -0.2498
  425MOL0     H57324  11.524   9.749   0.301  0.4446 -0.3118 -1.8632
  425MOL0     H57325  11.584   9.641   0.436 -0.0869  0.4566  0.6234
  425MOL0     H57326  11.567   9.385   0.411  0.7291  2.7608  1.0273
  425MOL0     H57327  11.583   9.150   0.243 -0.9223 -2.1791 -2.2935
  425MOL0     H57328  11.624   9.179   0.075  0.5161  0.6407  0.1548
  425MOL0     H57329  11.849   9.269   0.138  1.2102  2.4109  2.4179
  425MOL0     H57330  11.805   9.217   0.305 -1.8123  0.1049  0.3692
  425MOL0     H57331  11.792   9.025   0.069  4.3501 -2.6649 -2.1232
  425MOL0     H57332  11.800   8.992   0.247  0.6840  2.2649  0.7527
  425MOL0     H57333  12.024   9.122   0.078  0.7455 -3.6020 -2.6504
  425MOL0     H57334  12.009   8.959   0.115 -0.0896  0.6266 -0.4759
  425MOL0     H57335  12.200   9.073   0.503  0.3202 -1.0833  0.4590
  425MOL0     H57336  12.436   9.061   0.522  1.6164  2.7529 -0.0763
  425MOL0     H57337  12.815   8.833   0.232  2.7897 -0.7258  1.2313
  425MOL0     H57338  13.066   8.779   0.242 -0.9425 -0.6556 -2.3234
  425MOL0     H57339  13.367   9.105   0.161  1.8477 -1.8572 -1.3189
  425MOL0     H57340  13.334   9.148   0.333  1.0778  0.2638 -0.3701
  425MOL0     H57341  13.492   8.963   0.392  1.5840  0.1344  0.3458
  425MOL0     H57342  13.540   8.952   0.232 -0.8197  0.3769 -1.2457
  425MOL0     H57343  13.523   9.236   0.334 -0.4260 -0.7032  0.7491
  425MOL0     H57344  13.672   9.145   0.372 -0.1986  1.2028  0.4322
  425MOL0     H57345  13.550   9.248   0.136 -0.7614 -0.9781  3.3501
  425MOL0     H57346  13.631   9.097   0.104 -2.4250 -0.5045  1.3092
  425MOL0     H57347  13.784   9.333   0.211 -0.8117  0.7845 -1.4930
  425MOL0     H57348  13.781   9.275   0.047  0.7775  0.4166  0.1838
  425MOL0     H57349  13.871   9.090   0.278 -0.8247 -0.4276 -0.6626
  425MOL0     H57350  13.901   9.063   0.104 -1.4432 -0.6035  1.1357
  425MOL0     H57351  14.015   9.291   0.262  0.1836 -0.9694  0.2275
  425MOL0     H57352  14.047   9.246   0.092 -0.8155  1.6632  0.9059
  425MOL0     H57353  14.124   9.017   0.203  4.6521  1.0120 -4.7102
  425MOL0     H57354  14.226   9.152   0.186  0.2687  0.9859  1.0338
  425MOL0     H57355  13.131   9.210   0.239 -0.4834  0.7248 -1.5514
  425MOL0     H57356  12.900   9.247   0.224 -0.0550 -0.3915 -3.2323
  425MOL0     H57357  12.479   9.109   0.097 -1.8920 -3.2487 -2.0437
  425MOL0     H57358  12.246   9.116   0.069  2.7741  2.7506 -1.8308
  425MOL0     H57359  10.562   9.479   0.449  1.5086 -0.6450  0.3164
  425MOL0     H57360  10.323   9.423   0.489  1.8672 -0.1162 -1.8475
  425MOL0     H57361   9.977   9.424   1.049 -0.1694  0.6103 -0.2939
  425MOL0     H57362   9.734   9.434   1.056 -2.3241  1.8798 -0.8808
  425MOL0     H57363   9.551   9.682   0.734 -0.9359  2.2641  0.1527
  425MOL0     H57364   9.650   9.729   0.860 -0.4648 -0.4976  1.4334
  425MOL0     H57365   9.477   9.834   0.936  2.6958 -0.4200 -0.8634
  425MOL0     H57366   9.431   9.690   1.014 -2.3597  0.7546  0.5829
  425MOL0     H57367   9.300   9.623   0.789  1.7086 -0.9521 -1.0230
  425MOL0     H57368   9.335   9.787   0.730 -0.4454  0.5450  0.1769
  425MOL0     H57369   9.185   9.730   0.972  1.7823  1.0116  0.1136
  425MOL0     H57370   9.208   9.889   0.910 -2.0877  0.6314  0.8525
  425MOL0     H57371   8.932   9.732   0.617  2.3788  0.1503 -1.4336
  425MOL0     H57372   9.710   9.525   0.654 -2.2932 -0.4242  0.9594
  425MOL0     H57373  10.032   9.383   0.552  0.6396  0.5944  1.2126
  425MOL0     H57374   9.896   9.482   0.504 -0.9712 -0.2509  1.2818
  425MOL0     H57375  10.044   9.562   0.567 -3.0205  3.5401  1.0958
  426MOL0     O57376   5.002   9.606   6.481 -0.3284 -0.2687  0.1510
  426MOL0     C57377   4.957   9.673   6.384  1.1860  0.2672 -0.1752
  426MOL0     O57378   5.025   9.716   6.284  0.5605  0.0719  0.2444
  426MOL0     C57379   5.160   9.692   6.270  0.6099 -0.3123  0.1335
  426MOL0     C57380   5.255   9.733   6.372  0.9620 -0.4631 -0.4336
  426MOL0     C57381   5.390   9.721   6.356 -0.8859 -0.4303  0.5716
  426MOL0     C57382   5.442   9.663   6.240 -0.5606  1.0937  0.3901
  426MOL0     O57383   5.573   9.643   6.211 -0.1912 -1.1110  0.4164
  426MOL0     C57384   5.668   9.716   6.294  0.0664 -0.8638  0.4662
  426MOL0     C57385   5.819   9.680   6.269  0.4888  0.0572 -0.4769
  426MOL0     C57386   5.857   9.556   6.355 -0.5690 -0.5480 -0.5697
  426MOL0     C57387   6.008   9.525   6.324 -0.2765 -0.1844 -0.4357
  426MOL0     C57388   6.041   9.487   6.175 -0.1296 -0.1936 -1.0571
  426MOL0     C57389   6.193   9.461   6.147  0.6068  0.0221  0.0193
  426MOL0     C57390   6.215   9.468   5.993  0.1175 -0.0336 -1.2364
  426MOL0     C57391   6.363   9.443   5.963 -0.2552 -0.0358  0.2604
  426MOL0     N57392   6.461   9.539   6.017  0.5097  0.1936  0.1080
  426MOL0     C57393   6.550   9.517   6.125  0.2468 -0.0722  0.0755
  426MOL0     C57394   6.655   9.599   6.106 -0.6843  0.6937 -0.1224
  426MOL0     C57395   6.778   9.621   6.192  0.3944 -0.7039 -0.4137
  426MOL0     C57396   6.897   9.533   6.155  0.6656 -0.1417  0.0164
  426MOL0     C57397   6.953   9.555   6.016  0.5239  0.2836 -0.3279
  426MOL0     C57398   7.035   9.429   5.971  0.1457  0.6296 -0.8330
  426MOL0     O57399   7.158   9.405   6.038  0.0713 -0.2730 -0.5212
  426MOL0     C57400   7.280   9.448   5.980  0.4319  0.0898 -1.6327
  426MOL0     C57401   7.390   9.366   5.974 -0.6673 -0.2563  0.1061
  426MOL0     C57402   7.511   9.400   5.908 -1.0230 -0.7843  0.5716
  426MOL0     C57403   7.521   9.523   5.861 -0.5477 -0.9183  0.4154
  426MOL0     C57404   7.646   9.576   5.799  0.1040  0.7116  0.6714
  426MOL0     O57405   7.644   9.712   5.772 -0.0527  0.6874  0.0600
  426MOL0     C57406   7.753   9.770   5.718 -0.4039  0.0688  0.1751
  426MOL0     C57407   7.808   9.725   5.595 -0.2084  0.0969 -0.0928
  426MOL0     C57408   7.917   9.794   5.548  0.2684 -0.0588  0.0488
  426MOL0     C57409   7.966   9.917   5.598 -0.4392  0.0737 -0.5870
  426MOL0     O57410   8.062   9.994   5.559 -0.2213  0.6182 -0.4554
  426MOL0     C57411   8.162   9.938   5.472 -0.1232  0.2793 -0.2586
  426MOL0     C57412   8.244  10.054   5.422 -0.3956  0.9630  0.3034
  426MOL0     C57413   8.369   9.989   5.365  0.7627 -0.4722  0.4026
  426MOL0     C57414   8.444  10.093   5.277  0.3522  0.2962 -0.2624
  426MOL0     C57415   8.564  10.036   5.209  0.1535 -0.4018  0.3818
  426MOL0     C57416   8.660   9.960   5.295 -0.1615 -0.4675 -0.2972
  426MOL0     C57417   8.716  10.052   5.407 -0.0768 -0.4199  0.1514
  426MOL0     C57418   8.844   9.980   5.455  0.1952 -0.6616 -0.4486
  426MOL0    Cl57419   8.899  10.070   5.601  0.0347 -0.0230  0.3650
  426MOL0     C57420   7.899   9.960   5.712  0.1491  0.1390  0.2120
  426MOL0     C57421   7.801   9.885   5.776  0.0540  0.1941 -0.1295
  426MOL0     O57422   7.742   9.496   5.795  0.3369 -0.2596 -0.3410
  426MOL0     C57423   7.415   9.611   5.879  0.4700 -0.0858  0.1513
  426MOL0     C57424   7.293   9.578   5.935  0.8555 -0.1389  0.1601
  426MOL0     N57425   6.627   9.677   5.992  0.1907  0.7543  0.2786
  426MOL0     N57426   6.511   9.647   5.950  0.0679 -0.5412  0.0269
  426MOL0     C57427   5.357   9.635   6.139 -0.1980  0.2994  0.6128
  426MOL0     C57428   5.221   9.653   6.156  0.5982  1.4276 -0.6649
  426MOL0     C57429   4.808   9.670   6.373 -0.1516 -0.7116  0.6385
  426MOL0     C57430   4.731   9.566   6.426 -0.1279  0.2864 -1.2061
  426MOL0     C57431   4.591   9.562   6.427  0.5447  0.5608 -0.1062
  426MOL0     C57432   4.522   9.662   6.365  1.0118  0.1154 -0.3127
  426MOL0     O57433   4.384   9.658   6.359  0.0003 -0.4002 -0.3457
  426MOL0     C57434   4.314   9.743   6.269 -0.0230  0.6020 -0.6922
  426MOL0     C57435   4.168   9.710   6.284  0.0479  0.4898  0.1015
  426MOL0     C57436   4.096   9.729   6.148 -0.6770  0.3473 -0.2336
  426MOL0     C57437   3.950   9.686   6.153  0.5384  0.0991  0.1238
  426MOL0     C57438   3.872   9.767   6.250 -0.6264 -0.0285 -0.7787
  426MOL0     C57439   3.811   9.829   6.334  0.1059  0.7408  0.2618
  426MOL0     C57440   4.598   9.757   6.296  0.2799  0.0817  0.3401
  426MOL0     C57441   4.737   9.774   6.312  0.5149 -0.0791  0.8776
  426MOL0     C57442   4.801   9.898   6.260 -0.4901 -0.4478  0.8118
  426MOL0     H57443   5.222   9.766   6.470 -0.7995 -1.2975 -0.7149
  426MOL0     H57444   5.442   9.757   6.445  2.2029 -1.1896 -0.7844
  426MOL0     H57445   5.655   9.824   6.282 -1.2411 -0.8409  1.8420
  426MOL0     H57446   5.650   9.702   6.400 -1.7296  3.7298  0.9910
  426MOL0     H57447   5.888   9.763   6.290 -0.2732  0.3887  0.8372
  426MOL0     H57448   5.831   9.655   6.163  2.3523 -3.2379  0.3744
  426MOL0     H57449   5.793   9.473   6.325 -0.8661 -0.5189 -0.0258
  426MOL0     H57450   5.844   9.576   6.462 -1.8451 -1.5971 -0.5085
  426MOL0     H57451   6.062   9.617   6.345 -0.7789 -0.0790  0.4404
  426MOL0     H57452   6.043   9.442   6.386  1.1004  0.8141  0.1817
  426MOL0     H57453   5.976   9.401   6.157 -0.3922 -0.7357  1.8876
  426MOL0     H57454   6.019   9.578   6.119  0.8176  1.5101  1.1821
  426MOL0     H57455   6.259   9.524   6.208  0.1171 -0.4173  1.0218
  426MOL0     H57456   6.216   9.363   6.190 -1.5266  0.7870  3.2918
  426MOL0     H57457   6.199   9.574   5.970 -0.3794  1.1095  3.3280
  426MOL0     H57458   6.147   9.405   5.936 -0.2369 -0.5006 -0.3138
  426MOL0     H57459   6.390   9.342   5.994 -2.6646 -0.5774  0.8810
  426MOL0     H57460   6.363   9.448   5.854  1.5229  0.7113  0.2714
  426MOL0     H57461   6.529   9.445   6.203 -0.2099 -0.4691 -0.4017
  426MOL0     H57462   6.799   9.729   6.193 -1.0344 -0.4010 -0.6485
  426MOL0     H57463   6.745   9.603   6.294 -1.2391 -0.0715 -0.7966
  426MOL0     H57464   6.981   9.549   6.222  0.4754  2.5653 -0.2995
  426MOL0     H57465   6.866   9.428   6.150 -0.7644  0.1744 -5.8967
  426MOL0     H57466   7.014   9.645   6.005 -0.9747  1.2252 -1.2120
  426MOL0     H57467   6.866   9.572   5.952  0.4919 -1.0301 -0.6555
  426MOL0     H57468   7.046   9.421   5.862 -0.0482 -0.9280 -0.7610
  426MOL0     H57469   6.973   9.343   5.996 -1.5997  1.4647 -2.0655
  426MOL0     H57470   7.374   9.269   6.020  2.7057 -1.4862 -1.0792
  426MOL0     H57471   7.596   9.333   5.901 -0.5162 -0.2407  1.3232
  426MOL0     H57472   7.778   9.639   5.536  2.0462 -0.8383  0.0644
  426MOL0     H57473   7.970   9.762   5.459  0.7511  3.3432 -1.0428
  426MOL0     H57474   8.220   9.868   5.533 -1.8034 -0.4663  0.5584
  426MOL0     H57475   8.118   9.885   5.387  0.1829  0.2387 -0.3948
  426MOL0     H57476   8.193  10.116   5.347  0.2738  0.6874 -0.3964
  426MOL0     H57477   8.276  10.121   5.501 -0.2982  3.3860 -1.6568
  426MOL0     H57478   8.435   9.947   5.442  1.2609  0.8324  0.7144
  426MOL0     H57479   8.352   9.899   5.305 -1.1779 -0.8764  1.4910
  426MOL0     H57480   8.470  10.183   5.333  2.6000  0.9563 -2.1486
  426MOL0     H57481   8.371  10.129   5.204  2.2152  4.0157 -0.5497
  426MOL0     H57482   8.615  10.112   5.149 -0.4253 -2.1700 -2.5210
  426MOL0     H57483   8.533   9.948   5.153 -0.2686  0.3814 -0.6593
  426MOL0     H57484   8.627   9.862   5.328 -2.5513 -0.6125 -2.7487
  426MOL0     H57485   8.743   9.937   5.227  1.5652  0.9706  1.2201
  426MOL0     H57486   8.642  10.064   5.487 -1.0928  1.2506 -0.9735
  426MOL0     H57487   8.751  10.150   5.376 -0.8238 -0.6541 -1.5435
  426MOL0     H57488   8.822   9.876   5.478  3.2106 -1.3192 -0.0348
  426MOL0     H57489   8.929   9.977   5.386  1.9211  1.4598  1.4327
  426MOL0     H57490   7.927  10.057   5.751 -1.5876  0.1062  1.6468
  426MOL0     H57491   7.742   9.927   5.857 -0.0588 -0.1525 -0.0317
  426MOL0     H57492   7.418   9.712   5.840  1.8889 -0.9002 -2.0548
  426MOL0     H57493   7.206   9.642   5.943  0.7361 -0.3630  0.6999
  426MOL0     H57494   5.397   9.604   6.043 -1.7062  1.9514 -0.6028
  426MOL0     H57495   5.166   9.608   6.074  1.9658 -0.9454 -0.3647
  426MOL0     H57496   4.789   9.490   6.478  2.3036  1.6582 -1.7519
  426MOL0     H57497   4.524   9.496   6.481 -0.9801  2.1132 -0.0107
  426MOL0     H57498   4.358   9.714   6.173  2.4303  2.1809 -0.1413
  426MOL0     H57499   4.328   9.850   6.287 -1.8076  0.7217  0.1409
  426MOL0     H57500   4.129   9.778   6.360 -2.2155 -0.0289 -0.4932
  426MOL0     H57501   4.158   9.605   6.316  0.0920  1.0251  1.9747
  426MOL0     H57502   4.156   9.684   6.069 -0.4091  2.7275 -1.5021
  426MOL0     H57503   4.088   9.834   6.117 -0.1005 -0.6159 -4.1950
  426MOL0     H57504   3.898   9.697   6.057  0.6884  0.4587  0.0805
  426MOL0     H57505   3.943   9.581   6.180  0.3413 -0.1265 -0.7737
  426MOL0     H57506   3.754   9.870   6.415  0.1601 -0.3286  0.8687
  426MOL0     H57507   4.544   9.834   6.242 -2.5915 -1.3088  0.9947
  426MOL0     H57508   4.880   9.937   6.325 -1.1504  1.9144  0.2757
  426MOL0     H57509   4.847   9.887   6.161  2.0449  2.0061  1.5860
  426MOL0     H57510   4.731   9.980   6.246  1.1870  0.6128 -2.4995
  427MOL0     O57511   3.316  11.050   1.686 -0.4052  0.5125  0.1426
  427MOL0     C57512   3.311  11.011   1.806  0.5584  0.0575  0.0154
  427MOL0     O57513   3.424  11.001   1.888 -0.2210 -0.3291 -0.0093
  427MOL0     C57514   3.551  11.050   1.859 -0.4230  0.2903 -0.7735
  427MOL0     C57515   3.599  11.102   1.736 -0.0419  0.6385 -0.0020
  427MOL0     C57516   3.732  11.143   1.723 -0.1113  0.9081  0.1891
  427MOL0     C57517   3.830  11.114   1.829 -0.2492  0.4697 -0.0567
  427MOL0     O57518   3.965  11.138   1.809 -0.0399  0.2324  0.8663
  427MOL0     C57519   4.051  11.063   1.900 -0.4616  0.2074  0.2178
  427MOL0     C57520   4.195  11.064   1.849 -0.3819  1.0073 -0.4278
  427MOL0     C57521   4.274  11.195   1.844 -0.6004 -0.4499  0.8803
  427MOL0     C57522   4.262  11.281   1.704  0.0252 -0.2834  0.0413
  427MOL0     C57523   4.362  11.388   1.701 -1.2448 -0.0058  0.1168
  427MOL0     C57524   4.507  11.344   1.684  0.4957 -0.1702 -0.7237
  427MOL0     C57525   4.612  11.452   1.671 -0.2225 -0.3132  0.5842
  427MOL0     C57526   4.661  11.504   1.801 -0.3556 -0.3304 -0.9565
  427MOL0     N57527   4.789  11.579   1.782 -0.2457  0.1082  0.0888
  427MOL0     C57528   4.913  11.528   1.775  0.4113  0.1781 -0.6585
  427MOL0     C57529   4.996  11.633   1.795  0.3617 -0.3146 -1.6193
  427MOL0     C57530   5.149  11.645   1.801 -0.7075 -0.4520  0.7951
  427MOL0     C57531   5.195  11.642   1.650 -0.8447 -0.9462 -0.3989
  427MOL0     C57532   5.341  11.689   1.627 -0.2755  0.1571 -1.0018
  427MOL0     C57533   5.445  11.600   1.691 -0.1888 -0.2878  0.5727
  427MOL0     O57534   5.579  11.648   1.648  0.5982  0.0716 -0.3414
  427MOL0     C57535   5.685  11.568   1.674 -0.4345  0.0075  0.6282
  427MOL0     C57536   5.685  11.432   1.727  0.0361  0.3566  0.2268
  427MOL0     C57537   5.801  11.350   1.712  1.0833 -0.2751 -0.1106
  427MOL0     C57538   5.918  11.392   1.647  0.5166 -0.4983 -0.3900
  427MOL0     C57539   6.039  11.308   1.642 -0.2493  0.2165  0.3049
  427MOL0     O57540   6.147  11.362   1.569 -0.1353 -0.0199 -0.3337
  427MOL0     C57541   6.267  11.293   1.551  0.4071  0.9263  0.3205
  427MOL0     C57542   6.338  11.255   1.664  0.0557  0.5819  0.3634
  427MOL0     C57543   6.472  11.196   1.665  0.4674 -0.6311  0.0296
  427MOL0     C57544   6.536  11.192   1.543  0.2617 -0.0147  0.6081
  427MOL0     O57545   6.667  11.156   1.524 -0.3250 -0.2072  0.0528
  427MOL0     C57546   6.737  11.088   1.634 -0.6644  0.0935 -0.4373
  427MOL0     C57547   6.821  11.182   1.720  0.4390 -0.5896 -1.0760
  427MOL0     C57548   6.890  11.128   1.841 -0.3383 -0.8358 -0.6723
  427MOL0     C57549   6.795  11.145   1.966  0.3466  0.4812  0.9576
  427MOL0     C57550   6.835  11.046   2.072 -0.3310 -0.0607 -0.4983
  427MOL0     C57551   6.971  11.063   2.129  0.2055 -0.5244 -0.0364
  427MOL0     C57552   6.976  11.193   2.218 -0.3383  0.7844 -0.4337
  427MOL0     C57553   7.091  11.188   2.309  0.6147  0.0358  0.1750
  427MOL0    Cl57554   7.034  11.086   2.445 -0.2304  0.3343 -0.5276
  427MOL0     C57555   6.465  11.239   1.430 -0.4814  0.5080 -0.7208
  427MOL0     C57556   6.340  11.286   1.432 -0.0037  0.2015 -0.1456
  427MOL0     O57557   6.036  11.183   1.674  0.6598 -0.2805  0.0382
  427MOL0     C57558   5.917  11.520   1.585  0.5994  0.0937  0.4191
  427MOL0     C57559   5.808  11.604   1.604  0.6032  0.6580  0.7485
  427MOL0     N57560   4.923  11.755   1.805  0.5480 -0.2612  0.2335
  427MOL0     N57561   4.796  11.717   1.804 -0.1901 -0.4007  0.2123
  427MOL0     C57562   3.784  11.050   1.941  0.0308  0.8587 -0.4982
  427MOL0     C57563   3.650  11.016   1.954  0.4359  0.1461 -0.5820
  427MOL0     C57564   3.194  10.956   1.863  0.5020  0.1973  0.1730
  427MOL0     C57565   3.221  10.891   1.986  0.6575 -0.3065 -0.1598
  427MOL0     C57566   3.107  10.843   2.064  0.9903 -0.6531 -0.1693
  427MOL0     C57567   2.979  10.829   2.021  0.9936 -0.1807  0.3565
  427MOL0     O57568   2.881  10.768   2.098 -0.0519 -0.2623  0.5889
  427MOL0     C57569   2.889  10.790   2.242 -0.1968  0.4803  0.2159
  427MOL0     C57570   2.764  10.732   2.311  0.1062  0.0345 -0.0266
  427MOL0     C57571   2.747  10.586   2.263 -0.8762 -0.8287  0.6443
  427MOL0     C57572   2.632  10.524   2.344  1.0231  0.0582  0.4017
  427MOL0     C57573   2.506  10.598   2.315 -0.1030  1.3517 -1.1423
  427MOL0     C57574   2.411  10.663   2.294  1.1654  0.3994  0.2300
  427MOL0     C57575   2.963  10.874   1.889 -0.2880 -0.1395 -1.1231
  427MOL0     C57576   3.062  10.939   1.808 -0.1013  0.3003  0.1435
  427MOL0     C57577   3.032  10.997   1.674 -0.0742  0.3549  0.3239
  427MOL0     H57578   3.529  11.121   1.655  0.8444 -0.6045 -1.1138
  427MOL0     H57579   3.757  11.199   1.633  0.1130 -0.3279 -0.5388
  427MOL0     H57580   4.055  11.113   1.998 -0.0054 -0.3935  0.5104
  427MOL0     H57581   4.025  10.957   1.900  3.0270 -0.7857 -0.3651
  427MOL0     H57582   4.203  11.015   1.751 -0.1194 -1.3678  0.7325
  427MOL0     H57583   4.259  11.006   1.915  0.8915  0.7363 -1.8373
  427MOL0     H57584   4.379  11.170   1.865  1.4760  4.4326 -1.9265
  427MOL0     H57585   4.247  11.255   1.932 -0.5223 -0.4281  0.8892
  427MOL0     H57586   4.280  11.208   1.625  1.4233  0.9810 -0.8683
  427MOL0     H57587   4.161  11.324   1.699  0.7576  1.4724 -0.4959
  427MOL0     H57588   4.343  11.449   1.612  3.7868 -0.0529 -1.2643
  427MOL0     H57589   4.354  11.451   1.790 -1.0475 -0.1566  0.2405
  427MOL0     H57590   4.531  11.292   1.777  0.0761 -0.4163 -0.7505
  427MOL0     H57591   4.521  11.279   1.597  2.9581  0.4437 -0.8620
  427MOL0     H57592   4.575  11.535   1.609  0.5138 -2.6168 -3.2390
  427MOL0     H57593   4.689  11.406   1.609 -2.7736 -2.2279 -1.3767
  427MOL0     H57594   4.605  11.584   1.850 -1.1421 -0.7931 -1.0928
  427MOL0     H57595   4.680  11.422   1.871 -0.0008  0.9946  0.5482
  427MOL0     H57596   4.943  11.424   1.763 -1.2712 -0.5231  0.7620
  427MOL0     H57597   5.189  11.739   1.839 -1.6761  0.3375 -0.0832
  427MOL0     H57598   5.194  11.563   1.859  2.5595 -1.5966 -2.9623
  427MOL0     H57599   5.185  11.539   1.615  1.5679 -0.9342 -1.2257
  427MOL0     H57600   5.137  11.704   1.581  0.2496  0.6743  0.0637
  427MOL0     H57601   5.351  11.787   1.675 -0.3846 -0.6492  0.7472
  427MOL0     H57602   5.356  11.695   1.519  0.8029  0.4064 -0.8520
  427MOL0     H57603   5.444  11.496   1.656  1.0587 -0.6000  1.4086
  427MOL0     H57604   5.437  11.604   1.799  0.7549  0.9617  0.6203
  427MOL0     H57605   5.601  11.387   1.780  0.5217 -1.3196 -0.3562
  427MOL0     H57606   5.798  11.246   1.740 -2.8683 -0.4245 -0.5461
  427MOL0     H57607   6.291  11.263   1.761 -2.4466  0.0534 -0.7233
  427MOL0     H57608   6.518  11.179   1.762  1.9074 -0.3603 -0.5868
  427MOL0     H57609   6.673  11.023   1.694  1.2213 -0.8410  0.6247
  427MOL0     H57610   6.815  11.021   1.597  0.6934  1.3677  0.0322
  427MOL0     H57611   6.899  11.210   1.650  0.2213 -1.2374 -1.5812
  427MOL0     H57612   6.764  11.274   1.740 -1.1106 -1.8713  0.8921
  427MOL0     H57613   6.920  11.024   1.823  1.3269 -0.2214 -1.5806
  427MOL0     H57614   6.987  11.175   1.855  1.0900 -3.6551 -0.2970
  427MOL0     H57615   6.694  11.112   1.940  2.0889 -3.3779 -1.8238
  427MOL0     H57616   6.796  11.251   1.993 -0.1038  0.5484  0.7152
  427MOL0     H57617   6.845  10.942   2.038  3.0690  0.1813 -0.6172
  427MOL0     H57618   6.752  11.030   2.142 -0.9417  0.9845 -0.9658
  427MOL0     H57619   6.980  10.977   2.196 -7.2990 -0.5581  1.8452
  427MOL0     H57620   7.054  11.060   2.058  0.4933 -2.0724  0.3453
  427MOL0     H57621   6.887  11.190   2.283  1.1312  0.0765  1.6591
  427MOL0     H57622   6.976  11.272   2.143 -0.4987 -0.6527 -2.0049
  427MOL0     H57623   7.189  11.154   2.275  1.3436  0.9063  1.3000
  427MOL0     H57624   7.099  11.282   2.365 -2.0570  1.0473 -0.9888
  427MOL0     H57625   6.514  11.221   1.335 -2.4742 -3.0104 -1.2690
  427MOL0     H57626   6.296  11.323   1.340 -1.8276  1.9855  1.3622
  427MOL0     H57627   5.998  11.548   1.519 -1.3220  0.7998 -1.7762
  427MOL0     H57628   5.813  11.706   1.566 -0.4079 -0.4963 -2.8574
  427MOL0     H57629   3.841  11.014   2.025  0.5538  0.2541 -1.0992
  427MOL0     H57630   3.621  10.965   2.045  1.2930 -1.0442 -0.9588
  427MOL0     H57631   3.312  10.890   2.044 -0.4418  0.6784  1.6660
  427MOL0     H57632   3.130  10.817   2.167  0.2199 -1.9843 -0.3061
  427MOL0     H57633   2.901  10.898   2.252 -0.1675  0.4800  0.1771
  427MOL0     H57634   2.978  10.743   2.285 -0.6315  0.7265  1.4248
  427MOL0     H57635   2.678  10.795   2.285  0.3793  0.0032 -1.0362
  427MOL0     H57636   2.774  10.722   2.420  0.2892 -2.6037 -0.2185
  427MOL0     H57637   2.830  10.516   2.282 -2.6394 -2.8789  1.1520
  427MOL0     H57638   2.734  10.572   2.156  0.0151 -0.5852  0.4917
  427MOL0     H57639   2.625  10.417   2.320  0.2311  0.1635  0.1487
  427MOL0     H57640   2.670  10.530   2.446  1.1550 -0.2709  0.3733
  427MOL0     H57641   2.329  10.732   2.286  2.4381  1.8933 -0.5273
  427MOL0     H57642   2.863  10.867   1.848  0.8944 -1.6124 -4.0490
  427MOL0     H57643   3.037  11.106   1.690 -0.7574  0.1869  1.9053
  427MOL0     H57644   3.077  10.980   1.576 -1.1858  3.3184 -0.8342
  427MOL0     H57645   2.927  10.985   1.645  0.4311  1.0448 -2.0141
  428MOL0     O57646   2.422   4.067   2.764 -0.7650  0.1219 -0.1046
  428MOL0     C57647   2.409   4.045   2.642  0.1011 -0.2429 -0.1244
  428MOL0     O57648   2.507   3.990   2.561  0.3034  0.7408 -0.1420
  428MOL0     C57649   2.627   3.936   2.606 -0.2388  0.0124  0.5199
  428MOL0     C57650   2.650   3.900   2.744 -0.5279 -0.3212 -0.4445
  428MOL0     C57651   2.777   3.853   2.780  0.3644 -0.0873  0.6726
  428MOL0     C57652   2.882   3.832   2.683  0.1950  0.0843 -0.2274
  428MOL0     O57653   3.002   3.790   2.733 -0.1353 -0.7063 -0.1956
  428MOL0     C57654   3.110   3.755   2.653 -0.5496  1.5096  0.0794
  428MOL0     C57655   3.207   3.671   2.745  0.2841 -0.1098 -0.2295
  428MOL0     C57656   3.316   3.598   2.661  0.7632  0.6702  0.3563
  428MOL0     C57657   3.418   3.518   2.752 -0.0398  0.0270  0.7248
  428MOL0     C57658   3.555   3.501   2.686 -0.4466  0.5471  0.7576
  428MOL0     C57659   3.654   3.414   2.765  0.3984  0.0146 -0.3695
  428MOL0     C57660   3.796   3.455   2.714  0.0474 -0.6000  0.4112
  428MOL0     C57661   3.897   3.367   2.781  0.0412  0.3175 -0.6054
  428MOL0     N57662   4.035   3.396   2.729 -0.2440  0.4184 -0.6275
  428MOL0     C57663   4.141   3.454   2.800  0.4571  0.3333  0.7584
  428MOL0     C57664   4.242   3.455   2.709  0.0649 -0.3323  0.4574
  428MOL0     C57665   4.378   3.505   2.735 -0.2901 -0.3261 -0.1089
  428MOL0     C57666   4.488   3.393   2.739 -0.1590 -0.0582  0.1684
  428MOL0     C57667   4.561   3.393   2.600 -0.1224 -0.0409  0.3337
  428MOL0     C57668   4.660   3.274   2.605  0.5106 -0.3939  0.4126
  428MOL0     O57669   4.721   3.278   2.476 -0.4114  0.4015  0.5212
  428MOL0     C57670   4.836   3.210   2.468 -0.4457 -0.2749  0.2318
  428MOL0     C57671   4.891   3.116   2.563  0.6895 -0.2152 -0.9313
  428MOL0     C57672   5.019   3.068   2.546 -0.7171 -0.1905  0.4583
  428MOL0     C57673   5.085   3.085   2.427 -0.1466 -0.8410  0.6573
  428MOL0     C57674   5.217   3.025   2.408  0.2983  0.1312  0.8110
  428MOL0     O57675   5.298   3.094   2.320 -0.3444 -0.0771  0.5980
  428MOL0     C57676   5.434   3.066   2.331  0.0612 -0.1603  0.8408
  428MOL0     C57677   5.517   3.056   2.208  0.1392  0.3815 -0.2498
  428MOL0     C57678   5.654   3.048   2.223 -0.4896  0.0936 -0.4004
  428MOL0     C57679   5.716   3.017   2.342  0.0564  0.1901  0.3338
  428MOL0     O57680   5.852   3.006   2.342 -0.5778  0.1390  0.2700
  428MOL0     C57681   5.913   2.953   2.463  0.4398 -0.0334  0.2022
  428MOL0     C57682   6.051   2.904   2.436  0.1976  0.2197 -0.0495
  428MOL0     C57683   6.137   3.013   2.367  0.4318  0.2845 -0.2733
  428MOL0     C57684   6.211   3.111   2.469 -0.4085  0.5998  0.0945
  428MOL0     C57685   6.316   3.206   2.412 -0.6415  0.4106 -0.6695
  428MOL0     C57686   6.454   3.140   2.374  0.1607 -0.0700  0.4224
  428MOL0     C57687   6.543   3.131   2.497  0.5321 -0.5612  0.6036
  428MOL0     C57688   6.677   3.060   2.452  0.7217  1.0646 -0.4681
  428MOL0    Cl57689   6.754   3.159   2.339 -0.2269  0.0332  0.0583
  428MOL0     C57690   5.640   3.033   2.455  0.6130  0.3383  0.0721
  428MOL0     C57691   5.500   3.063   2.448 -0.4269 -0.6846 -0.3594
  428MOL0     O57692   5.246   2.923   2.475 -0.3233  0.0686  0.3140
  428MOL0     C57693   5.026   3.171   2.321 -0.1072  0.7195 -0.3273
  428MOL0     C57694   4.906   3.237   2.349 -0.4224 -0.3106 -0.8847
  428MOL0     N57695   4.199   3.392   2.589 -0.0258 -0.3554  0.4007
  428MOL0     N57696   4.074   3.363   2.605  0.5626  0.8263 -0.1932
  428MOL0     C57697   2.852   3.846   2.548  0.3079  0.5104 -0.0753
  428MOL0     C57698   2.726   3.899   2.516  0.4057  0.2631  0.5658
  428MOL0     C57699   2.276   4.089   2.586 -0.1150  0.0071  0.2885
  428MOL0     C57700   2.185   4.149   2.671  0.7377  0.3242 -0.1677
  428MOL0     C57701   2.061   4.190   2.619 -0.1257 -0.1729 -0.0307
  428MOL0     C57702   2.037   4.166   2.483  0.3980  0.3818 -0.0117
  428MOL0     O57703   1.909   4.209   2.452 -0.5892  0.1338  1.0322
  428MOL0     C57704   1.840   4.147   2.345  0.7928 -0.5636 -0.1216
  428MOL0     C57705   1.703   4.196   2.341  0.0584 -1.1371  0.5317
  428MOL0     C57706   1.621   4.115   2.237  0.1346 -0.0845 -0.3576
  428MOL0     C57707   1.487   4.179   2.201  0.0879 -0.2701  0.0565
  428MOL0     C57708   1.414   4.202   2.329  0.2605  0.6755  0.6423
  428MOL0     C57709   1.352   4.225   2.434  0.6073  0.3374 -0.5290
  428MOL0     C57710   2.124   4.104   2.398 -0.0553 -0.7196  0.5621
  428MOL0     C57711   2.248   4.073   2.444 -0.2996  0.3062  0.0834
  428MOL0     C57712   2.343   4.002   2.349 -0.3465  0.1503  0.9184
  428MOL0     H57713   2.574   3.909   2.820  0.2872 -2.2540  0.6623
  428MOL0     H57714   2.809   3.829   2.881 -0.9448 -0.6844  0.9601
  428MOL0     H57715   3.069   3.686   2.578  1.2445 -2.0584  2.0974
  428MOL0     H57716   3.164   3.837   2.606 -0.6283  1.4321 -0.1494
  428MOL0     H57717   3.146   3.596   2.794 -0.6957  0.2912 -0.8021
  428MOL0     H57718   3.251   3.736   2.821 -2.6931  2.0133 -0.1716
  428MOL0     H57719   3.369   3.682   2.615 -0.8268  1.4267 -0.1454
  428MOL0     H57720   3.291   3.528   2.580 -0.0259  0.3816  0.8391
  428MOL0     H57721   3.433   3.580   2.841 -1.9859  0.6996  0.6537
  428MOL0     H57722   3.388   3.417   2.781 -1.6444  0.0693 -0.5902
  428MOL0     H57723   3.533   3.446   2.595 -2.4705 -0.8898  2.0443
  428MOL0     H57724   3.596   3.597   2.652 -0.9531  0.1778 -0.9737
  428MOL0     H57725   3.643   3.440   2.870 -1.1222  1.7421 -0.9019
  428MOL0     H57726   3.629   3.308   2.756  1.3860 -0.3383  0.8520
  428MOL0     H57727   3.820   3.561   2.722 -0.6673 -0.4748  1.1333
  428MOL0     H57728   3.811   3.436   2.608 -0.1696  1.7082 -0.0846
  428MOL0     H57729   3.898   3.379   2.890 -0.9098 -0.5909 -0.4804
  428MOL0     H57730   3.883   3.264   2.749  1.7531  0.2439 -1.2157
  428MOL0     H57731   4.124   3.484   2.902 -0.7297  3.3782 -0.2230
  428MOL0     H57732   4.401   3.576   2.655 -2.2444  0.1797 -0.2842
  428MOL0     H57733   4.375   3.561   2.829  3.2618 -1.8959  1.1170
  428MOL0     H57734   4.561   3.419   2.815  0.6207 -0.7092 -0.3423
  428MOL0     H57735   4.448   3.294   2.763 -0.1321  0.3508  1.9801
  428MOL0     H57736   4.620   3.483   2.580  2.5426 -2.1632 -2.3267
  428MOL0     H57737   4.490   3.378   2.518  0.2697 -2.5382  0.3734
  428MOL0     H57738   4.612   3.177   2.618 -4.3273  1.9227  2.2004
  428MOL0     H57739   4.727   3.292   2.689 -0.4496  2.8830  0.6419
  428MOL0     H57740   4.844   3.078   2.653  0.3394  1.3733 -0.4096
  428MOL0     H57741   5.053   3.007   2.630  0.4343  2.6422  2.1912
  428MOL0     H57742   5.470   3.063   2.111  1.9886  0.1417 -1.2164
  428MOL0     H57743   5.719   3.068   2.138  2.8532 -0.1691  1.9033
  428MOL0     H57744   5.913   3.026   2.544  2.0682  0.1464  0.0750
  428MOL0     H57745   5.862   2.866   2.504  0.5236 -0.7592 -1.1747
  428MOL0     H57746   6.091   2.874   2.534 -0.2492 -2.4261 -0.6048
  428MOL0     H57747   6.045   2.810   2.381 -0.8345 -0.3763  1.0304
  428MOL0     H57748   6.211   2.956   2.310 -0.1525 -1.9045  1.0433
  428MOL0     H57749   6.078   3.081   2.304  0.0342  0.7640  0.6056
  428MOL0     H57750   6.257   3.044   2.542 -2.2383  0.3356  1.0747
  428MOL0     H57751   6.146   3.171   2.533 -0.9887 -0.2021  0.2719
  428MOL0     H57752   6.332   3.287   2.484  0.1341 -0.7594  0.5111
  428MOL0     H57753   6.272   3.248   2.321  0.6822 -1.5026 -2.2864
  428MOL0     H57754   6.441   3.045   2.321 -0.5773  1.1097 -1.6301
  428MOL0     H57755   6.491   3.211   2.299 -0.8827 -1.7323 -1.7703
  428MOL0     H57756   6.502   3.062   2.571  1.6486 -2.4143 -0.4264
  428MOL0     H57757   6.554   3.225   2.551 -0.1063 -0.1325 -0.0052
  428MOL0     H57758   6.732   3.057   2.546  0.7956  0.4687 -0.5249
  428MOL0     H57759   6.672   2.956   2.417  2.0003 -0.3639  3.1418
  428MOL0     H57760   5.693   3.034   2.550  1.2186 -1.8728 -0.2008
  428MOL0     H57761   5.445   3.066   2.542  0.1461  0.4065 -0.0441
  428MOL0     H57762   5.076   3.182   2.225  0.3825 -1.3237 -0.3446
  428MOL0     H57763   4.860   3.301   2.274  0.5023  0.8174 -0.5046
  428MOL0     H57764   2.917   3.819   2.465  0.9058 -0.3822  0.6589
  428MOL0     H57765   2.706   3.918   2.411  0.2868 -0.6882  0.4081
  428MOL0     H57766   2.207   4.161   2.777  1.1626  1.7561 -0.3998
  428MOL0     H57767   1.998   4.245   2.688  0.6574  0.2609  0.3473
  428MOL0     H57768   1.831   4.038   2.354 -0.8845 -0.4611 -0.1673
  428MOL0     H57769   1.895   4.158   2.251 -0.8955 -0.7926 -1.1891
  428MOL0     H57770   1.697   4.302   2.316 -0.8398 -1.3050 -0.0158
  428MOL0     H57771   1.662   4.173   2.440 -4.2057 -0.7163 -0.9403
  428MOL0     H57772   1.608   4.014   2.278 -1.4463  0.4735  0.5788
  428MOL0     H57773   1.678   4.110   2.143 -0.8493  1.8040 -1.0990
  428MOL0     H57774   1.513   4.274   2.153 -1.4008  1.2458  2.1050
  428MOL0     H57775   1.431   4.113   2.134 -0.4379 -0.6244  0.8254
  428MOL0     H57776   1.285   4.247   2.515  1.2118  0.1489  0.0308
  428MOL0     H57777   2.091   4.079   2.298 -0.4760 -0.8978  0.7444
  428MOL0     H57778   2.356   3.897   2.376 -2.6822 -0.6234 -0.6679
  428MOL0     H57779   2.309   4.002   2.245  0.6079 -0.7716  0.5994
  428MOL0     H57780   2.433   4.064   2.354 -0.2228 -0.1024  2.1881
  429MOL0     O57781  10.147   7.492   6.954 -0.1292  0.0944  0.6715
  429MOL0     C57782  10.197   7.378   6.976 -0.3379 -0.5971  0.2700
  429MOL0     O57783  10.121   7.267   6.991 -0.6800 -0.3675 -0.3053
  429MOL0     C57784   9.997   7.260   6.943 -0.1014  0.5742  0.2971
  429MOL0     C57785   9.899   7.187   7.020  0.0717 -1.1210 -0.1230
  429MOL0     C57786   9.774   7.154   6.964  0.5430 -0.7891 -0.0983
  429MOL0     C57787   9.740   7.198   6.835  0.0563 -0.0266  0.1422
  429MOL0     O57788   9.616   7.170   6.781  0.0792  0.3969  0.3397
  429MOL0     C57789   9.501   7.181   6.861 -0.4557  0.1302 -0.0974
  429MOL0     C57790   9.386   7.174   6.759  0.0599 -0.0376  0.2349
  429MOL0     C57791   9.244   7.169   6.813 -0.1502 -0.2393 -0.3375
  429MOL0     C57792   9.133   7.160   6.708 -0.1874 -0.5257  1.0836
  429MOL0     C57793   8.990   7.174   6.779  0.4042 -0.3922  0.0005
  429MOL0     C57794   8.937   7.042   6.835  0.7674 -0.6906 -0.0481
  429MOL0     C57795   8.808   7.041   6.920  1.1851 -0.7902 -0.0878
  429MOL0     C57796   8.813   7.132   7.048  0.9962 -0.3742  0.2392
  429MOL0     N57797   8.887   7.074   7.163 -0.7267  0.3121 -0.5721
  429MOL0     C57798   8.845   6.969   7.246  0.1006  1.1077  0.4754
  429MOL0     C57799   8.941   6.951   7.331 -1.2370  1.0480  0.2613
  429MOL0     C57800   8.920   6.867   7.453 -0.1017  0.5399 -0.2441
  429MOL0     C57801   9.040   6.855   7.540 -0.0095 -0.6970 -0.2084
  429MOL0     C57802   9.034   6.725   7.626  0.3925 -0.3203 -0.8392
  429MOL0     C57803   9.120   6.728   7.763 -0.2276 -0.4351  0.4205
  429MOL0     O57804   9.240   6.639   7.752  0.5115 -0.2053  0.2879
  429MOL0     C57805   9.347   6.699   7.696 -0.9022 -0.1388  0.3074
  429MOL0     C57806   9.389   6.831   7.693 -0.6131  0.2336 -0.0671
  429MOL0     C57807   9.507   6.866   7.634  0.2933  0.2007  0.3896
  429MOL0     C57808   9.595   6.778   7.575 -0.7038 -0.2673 -0.6018
  429MOL0     C57809   9.722   6.814   7.517  0.2041 -0.1717 -0.0746
  429MOL0     O57810   9.790   6.712   7.450 -0.8294  0.3940  0.0041
  429MOL0     C57811   9.899   6.737   7.372 -0.1323 -0.0947  0.1183
  429MOL0     C57812   9.913   6.852   7.296 -0.1481  0.4674  0.2687
  429MOL0     C57813  10.034   6.873   7.228  0.7972  0.1169 -0.4156
  429MOL0     C57814  10.145   6.783   7.243  0.1007 -0.5400  0.0148
  429MOL0     O57815  10.272   6.794   7.186 -0.6209  0.2596 -0.7397
  429MOL0     C57816  10.298   6.904   7.104 -0.3034 -0.2801 -0.1012
  429MOL0     C57817  10.447   6.935   7.109  0.1476  0.1068  0.1025
  429MOL0     C57818  10.520   6.820   7.026 -0.0755 -0.9611  0.1736
  429MOL0     C57819  10.659   6.872   7.008  0.4490 -0.2563  0.4021
  429MOL0     C57820  10.753   6.752   6.979 -0.0391  0.3997 -0.4816
  429MOL0     C57821  10.820   6.684   7.101 -1.2887 -0.0722  0.9049
  429MOL0     C57822  10.780   6.542   7.127 -0.2778  0.3608 -0.5728
  429MOL0     C57823  10.778   6.509   7.280  0.4768 -0.5730  0.6872
  429MOL0    Cl57824  10.944   6.525   7.356 -0.5308  0.1865  0.3509
  429MOL0     C57825  10.127   6.661   7.310  0.3315 -0.1011 -0.6332
  429MOL0     C57826  10.005   6.643   7.381  0.2294  0.1072 -0.5698
  429MOL0     O57827   9.761   6.928   7.539  0.0526  0.6132 -0.7935
  429MOL0     C57828   9.558   6.646   7.577 -0.0820 -0.1152  0.1237
  429MOL0     C57829   9.440   6.605   7.642  0.2303 -0.0411 -0.2060
  429MOL0     N57830   9.046   7.039   7.300 -0.1706 -0.3066 -0.7134
  429MOL0     N57831   9.013   7.103   7.197 -0.4509 -0.0822 -0.1807
  429MOL0     C57832   9.834   7.269   6.762 -0.3707 -0.6931 -0.1473
  429MOL0     C57833   9.963   7.300   6.820 -0.5334  0.5022  0.6782
  429MOL0     C57834  10.346   7.379   6.997 -0.3274  0.1895  0.1963
  429MOL0     C57835  10.389   7.310   7.102 -0.1613  0.6569 -0.4459
  429MOL0     C57836  10.518   7.321   7.147  0.2644  0.6393 -0.3820
  429MOL0     C57837  10.603   7.410   7.079 -0.1162 -1.2155 -1.4253
  429MOL0     O57838  10.737   7.418   7.103  0.9217 -0.0781  0.2580
  429MOL0     C57839  10.781   7.442   7.238  0.3195 -0.7896 -0.5362
  429MOL0     C57840  10.923   7.465   7.264 -0.2279  0.0510  0.8371
  429MOL0     C57841  11.014   7.352   7.226 -0.0720  0.6369 -0.2292
  429MOL0     C57842  11.154   7.394   7.263 -0.5430  0.1261  0.8216
  429MOL0     C57843  11.201   7.380   7.403 -0.5317  0.0458  0.4488
  429MOL0     C57844  11.259   7.365   7.507 -0.1763 -0.0287 -0.7236
  429MOL0     C57845  10.567   7.481   6.969  0.2478 -0.3788  0.5686
  429MOL0     C57846  10.440   7.463   6.924  0.5722  0.3456 -0.6425
  429MOL0     C57847  10.393   7.522   6.796  0.1958  0.3344  1.2803
  429MOL0     H57848   9.931   7.150   7.117  2.6854 -0.0017 -0.4752
  429MOL0     H57849   9.719   7.088   7.030  3.4611  0.0615  3.5671
  429MOL0     H57850   9.487   7.093   6.924  0.5046  1.0698  1.4860
  429MOL0     H57851   9.519   7.270   6.922  3.4245  2.3131 -3.8510
  429MOL0     H57852   9.404   7.097   6.683 -3.2319 -2.4716  1.6677
  429MOL0     H57853   9.388   7.260   6.691 -0.0724 -0.4738 -0.3261
  429MOL0     H57854   9.228   7.269   6.856  0.0025  0.8174 -2.5948
  429MOL0     H57855   9.229   7.091   6.888  0.0980  1.0485  1.1192
  429MOL0     H57856   9.142   7.240   6.635 -1.0583 -1.5426 -0.1979
  429MOL0     H57857   9.137   7.065   6.654 -1.4002  0.1813 -0.2982
  429MOL0     H57858   8.980   7.257   6.849 -2.4404 -0.3370 -0.3666
  429MOL0     H57859   8.923   7.199   6.696 -1.4408 -2.0841  0.8987
  429MOL0     H57860   8.920   6.979   6.748 -0.4603 -2.4459  1.3878
  429MOL0     H57861   9.011   6.993   6.899  0.6634 -2.1688 -1.0197
  429MOL0     H57862   8.777   6.941   6.948  0.7900 -1.9424 -3.9781
  429MOL0     H57863   8.721   7.069   6.860  0.0247 -3.3729  0.2992
  429MOL0     H57864   8.848   7.234   7.028 -1.9609  1.2268  2.4576
  429MOL0     H57865   8.710   7.158   7.074  1.5209  1.0533  0.9640
  429MOL0     H57866   8.756   6.906   7.246  2.1482 -1.9952  0.9538
  429MOL0     H57867   8.839   6.900   7.519 -2.2264 -0.8857 -1.9917
  429MOL0     H57868   8.890   6.766   7.424 -0.3189  0.9188 -1.4070
  429MOL0     H57869   9.132   6.858   7.481 -0.2828 -0.0802 -0.6216
  429MOL0     H57870   9.040   6.941   7.608  2.3306  1.3101 -2.5467
  429MOL0     H57871   9.068   6.641   7.565  2.0520 -1.2667  1.2504
  429MOL0     H57872   8.935   6.692   7.660  0.6336  0.9536  1.2460
  429MOL0     H57873   9.063   6.691   7.849  1.4950 -0.8805  1.4153
  429MOL0     H57874   9.148   6.829   7.792  0.2718 -0.8674  1.4902
  429MOL0     H57875   9.339   6.912   7.745 -2.1832 -2.0631  2.1861
  429MOL0     H57876   9.515   6.974   7.627 -0.7865  0.1959 -1.4551
  429MOL0     H57877   9.831   6.922   7.286 -0.2566  0.0485 -2.2857
  429MOL0     H57878  10.049   6.955   7.159  1.6724 -0.7010 -1.2240
  429MOL0     H57879  10.266   6.893   7.000  0.8533  1.9331 -0.7633
  429MOL0     H57880  10.250   6.994   7.143 -0.1301 -0.2341  0.0081
  429MOL0     H57881  10.466   7.031   7.060 -1.3501 -0.3153 -1.4149
  429MOL0     H57882  10.475   6.942   7.214  0.1743 -2.6716  0.3666
  429MOL0     H57883  10.526   6.727   7.084 -2.6127 -1.5302 -0.3288
  429MOL0     H57884  10.474   6.788   6.932  3.1338 -1.5563 -1.3162
  429MOL0     H57885  10.698   6.919   7.098  1.8765 -2.8140  1.2294
  429MOL0     H57886  10.650   6.940   6.923 -2.1868  2.3162  2.5406
  429MOL0     H57887  10.831   6.781   6.909  0.2897  1.2429  0.2124
  429MOL0     H57888  10.698   6.670   6.932 -0.1340 -1.2944  2.3693
  429MOL0     H57889  10.926   6.700   7.078 -1.1115 -3.8887 -1.8061
  429MOL0     H57890  10.809   6.743   7.192 -0.0195  1.5544  0.0549
  429MOL0     H57891  10.852   6.476   7.078 -1.2271  0.4193 -2.1034
  429MOL0     H57892  10.676   6.520   7.100 -0.1113 -1.5512  0.1427
  429MOL0     H57893  10.710   6.581   7.326  1.7035  2.0400 -1.3379
  429MOL0     H57894  10.741   6.407   7.295  0.0224 -0.6084 -0.5525
  429MOL0     H57895  10.208   6.590   7.322  0.5680  0.4930  1.6773
  429MOL0     H57896   9.993   6.554   7.443  0.5785 -0.9265 -1.9522
  429MOL0     H57897   9.634   6.578   7.541  0.2215  0.4238 -0.2715
  429MOL0     H57898   9.422   6.499   7.656  0.5601 -0.6159 -3.4397
  429MOL0     H57899   9.805   7.316   6.669  2.1671  0.5952 -0.3843
  429MOL0     H57900  10.040   7.343   6.756  0.6585 -0.9034  1.1303
  429MOL0     H57901  10.326   7.245   7.162  1.3724 -0.9846 -0.5280
  429MOL0     H57902  10.544   7.264   7.236 -1.1236 -0.0489 -0.3945
  429MOL0     H57903  10.756   7.350   7.293 -0.9375 -1.9969 -2.9452
  429MOL0     H57904  10.724   7.518   7.292  1.4913 -1.3982  1.6902
  429MOL0     H57905  10.938   7.482   7.371  1.2207  1.0791  0.4975
  429MOL0     H57906  10.952   7.558   7.213  0.5861  1.1223  3.1166
  429MOL0     H57907  11.014   7.320   7.121 -1.6474 -0.3502  0.0334
  429MOL0     H57908  10.980   7.267   7.287 -1.3086 -0.7083 -2.6632
  429MOL0     H57909  11.230   7.348   7.199  0.5466 -0.6434  2.5987
  429MOL0     H57910  11.160   7.501   7.243  1.6726 -0.0334  0.3609
  429MOL0     H57911  11.305   7.351   7.602 -2.6195 -0.0408  0.5187
  429MOL0     H57912  10.640   7.551   6.930 -0.2042 -1.3311 -2.2020
  429MOL0     H57913  10.475   7.543   6.726  0.1955  0.8680  1.4340
  429MOL0     H57914  10.314   7.455   6.764  1.9847 -1.7529  0.9703
  429MOL0     H57915  10.361   7.625   6.815 -1.2226  0.5587 -1.8594
  430MOL0     O57916   3.951   3.088   5.347 -0.0927  0.3613  0.3709
  430MOL0     C57917   4.007   3.165   5.427  0.8121 -0.8022  0.0582
  430MOL0     O57918   4.139   3.181   5.435  0.1345 -0.4945  0.0245
  430MOL0     C57919   4.228   3.108   5.355  0.4079  0.9832 -0.0290
  430MOL0     C57920   4.349   3.077   5.416 -0.2316  0.3683 -0.6101
  430MOL0     C57921   4.440   2.992   5.349 -0.9398 -0.3305  0.4131
  430MOL0     C57922   4.417   2.950   5.222 -0.5948 -0.4967  0.3150
  430MOL0     O57923   4.507   2.866   5.153  0.1378 -0.4498  0.1793
  430MOL0     C57924   4.621   2.830   5.219  0.4012  0.2404 -0.0871
  430MOL0     C57925   4.681   2.717   5.144 -0.2878  0.1869 -0.0729
  430MOL0     C57926   4.808   2.676   5.208  0.2134  0.6168 -0.0285
  430MOL0     C57927   4.888   2.572   5.127  0.2244 -0.1316 -0.2031
  430MOL0     C57928   5.016   2.540   5.203 -0.3814  0.7052 -0.3039
  430MOL0     C57929   5.131   2.459   5.137 -0.1104 -0.4053  0.3326
  430MOL0     C57930   5.078   2.320   5.097  0.7575 -0.6385  0.3193
  430MOL0     C57931   5.159   2.257   4.986 -0.0691 -0.3741 -0.4858
  430MOL0     N57932   5.294   2.233   5.034 -0.1798 -0.4091  0.2352
  430MOL0     C57933   5.334   2.184   5.159  0.1005  0.0435  0.2428
  430MOL0     C57934   5.467   2.197   5.154 -0.1722 -0.8471  0.5959
  430MOL0     C57935   5.542   2.155   5.274  0.0478 -0.0398  0.9136
  430MOL0     C57936   5.524   2.243   5.400  1.1390  0.1981  0.4800
  430MOL0     C57937   5.620   2.209   5.518 -0.0654  0.3472  0.0398
  430MOL0     C57938   5.663   2.345   5.582 -0.0606  0.2101 -0.6580
  430MOL0     O57939   5.720   2.315   5.715 -0.5087 -0.0687 -0.8788
  430MOL0     C57940   5.832   2.237   5.727  0.6097  0.3224  0.2413
  430MOL0     C57941   5.935   2.216   5.632  0.2020  0.4346  0.4994
  430MOL0     C57942   6.048   2.147   5.675 -0.4150  0.6393 -0.0624
  430MOL0     C57943   6.062   2.090   5.799 -0.4090 -0.0494 -1.3465
  430MOL0     C57944   6.179   2.009   5.838 -0.1568  0.0258  0.7546
  430MOL0     O57945   6.183   1.973   5.973  0.5043 -0.1117 -0.5026
  430MOL0     C57946   6.298   1.930   6.038 -0.0062 -0.1828  0.0790
  430MOL0     C57947   6.287   1.868   6.162 -0.3151  0.5064 -0.2579
  430MOL0     C57948   6.397   1.821   6.238  0.1674  0.5389  0.6362
  430MOL0     C57949   6.524   1.834   6.181 -1.0778  0.4749  0.1225
  430MOL0     O57950   6.624   1.784   6.261  0.1951 -0.5439 -0.5265
  430MOL0     C57951   6.751   1.764   6.199 -0.0815 -0.8219  0.0427
  430MOL0     C57952   6.838   1.669   6.296  0.2390 -1.0038  0.1923
  430MOL0     C57953   6.989   1.674   6.252 -0.1416  0.0056  0.2437
  430MOL0     C57954   7.080   1.601   6.333 -0.5727  0.3599  0.7849
  430MOL0     C57955   7.224   1.632   6.281  0.5179 -0.2865  0.1910
  430MOL0     C57956   7.330   1.567   6.364 -0.2748 -0.7255 -1.4157
  430MOL0     C57957   7.465   1.624   6.334 -0.1412  0.7235  0.0286
  430MOL0     C57958   7.572   1.543   6.419 -0.6904  0.7241  0.1867
  430MOL0    Cl57959   7.727   1.602   6.402 -0.3140 -0.1574  0.4111
  430MOL0     C57960   6.540   1.898   6.058  0.3415 -0.4185 -0.8703
  430MOL0     C57961   6.429   1.953   5.997  0.9126  1.0463  0.9849
  430MOL0     O57962   6.272   1.990   5.755  0.3011  0.2167 -0.2135
  430MOL0     C57963   5.952   2.108   5.886  0.0472 -0.3859  1.0660
  430MOL0     C57964   5.842   2.190   5.850 -0.2858  1.2538  0.3077
  430MOL0     N57965   5.508   2.249   5.027 -0.1791  0.1063 -0.6488
  430MOL0     N57966   5.409   2.272   4.965 -0.0059 -0.1341 -1.3160
  430MOL0     C57967   4.302   2.988   5.158  0.0173  1.1351  0.8429
  430MOL0     C57968   4.203   3.056   5.223 -0.1566  0.6238 -0.6786
  430MOL0     C57969   3.928   3.259   5.507 -0.3626 -0.3503 -0.2432
  430MOL0     C57970   3.968   3.276   5.642 -0.3379 -0.1562 -1.0308
  430MOL0     C57971   3.886   3.342   5.723 -0.0787  0.9308 -0.2192
  430MOL0     C57972   3.770   3.406   5.676  0.4933  0.3122 -0.6906
  430MOL0     O57973   3.697   3.485   5.753 -0.3434  0.0899 -0.2575
  430MOL0     C57974   3.767   3.573   5.850 -0.2578 -0.2548 -0.1018
  430MOL0     C57975   3.648   3.655   5.900 -0.3029 -0.5394  0.2878
  430MOL0     C57976   3.690   3.742   6.016 -0.7311  0.9064 -0.1340
  430MOL0     C57977   3.572   3.820   6.072  0.6290  0.4992 -0.1133
  430MOL0     C57978   3.476   3.737   6.131  0.7166 -0.8230 -0.3603
  430MOL0     C57979   3.393   3.675   6.196  0.0259  0.1784 -0.0687
  430MOL0     C57980   3.743   3.400   5.536  0.3066 -1.0971 -0.4685
  430MOL0     C57981   3.815   3.329   5.451 -0.1551 -0.0699 -0.6105
  430MOL0     C57982   3.783   3.326   5.302 -0.4279  0.2932 -0.3958
  430MOL0     H57983   4.366   3.120   5.514  1.2863  2.0574 -1.5440
  430MOL0     H57984   4.532   2.975   5.405 -0.3165  2.7593  0.4837
  430MOL0     H57985   4.694   2.910   5.236 -0.3220  0.9235 -0.1291
  430MOL0     H57986   4.601   2.797   5.322  2.2523  3.1425  1.3597
  430MOL0     H57987   4.697   2.745   5.039  0.1720 -0.1364 -0.0918
  430MOL0     H57988   4.606   2.638   5.146 -0.9430  0.5467 -3.6214
  430MOL0     H57989   4.788   2.628   5.304  0.7569 -2.1129 -1.1742
  430MOL0     H57990   4.864   2.769   5.219 -4.0250  3.2533  1.2361
  430MOL0     H57991   4.828   2.482   5.111 -0.1537  0.0096  0.3659
  430MOL0     H57992   4.912   2.604   5.026 -1.5645  1.1469 -0.2733
  430MOL0     H57993   5.067   2.633   5.230  3.2247 -1.3675  0.6538
  430MOL0     H57994   4.994   2.494   5.300 -1.2803 -0.0990 -0.8817
  430MOL0     H57995   5.157   2.516   5.048 -2.9435  0.2668 -0.1467
  430MOL0     H57996   5.204   2.451   5.218  0.0951  0.8070  0.2818
  430MOL0     H57997   4.979   2.346   5.060  0.1091 -0.6215  1.9586
  430MOL0     H57998   5.071   2.253   5.184 -0.1804  0.1796  0.8914
  430MOL0     H57999   5.110   2.163   4.957 -0.4567  0.5190 -3.0076
  430MOL0     H58000   5.157   2.316   4.893 -1.9273  0.3902 -0.0135
  430MOL0     H58001   5.272   2.165   5.246 -1.4923  1.2744 -0.5820
  430MOL0     H58002   5.516   2.051   5.297 -1.0510  0.3576  1.5739
  430MOL0     H58003   5.648   2.152   5.248  0.1899 -1.0929  1.5404
  430MOL0     H58004   5.537   2.349   5.377 -1.4497  0.3342 -0.6661
  430MOL0     H58005   5.419   2.231   5.426  1.0489  1.2795  0.6608
  430MOL0     H58006   5.708   2.167   5.469  1.2372  0.6246  2.0315
  430MOL0     H58007   5.577   2.135   5.585 -1.1683 -1.7834 -2.8287
  430MOL0     H58008   5.577   2.411   5.597  0.4248  0.0883  4.2667
  430MOL0     H58009   5.730   2.401   5.515 -0.7003 -0.4595 -1.8879
  430MOL0     H58010   5.928   2.248   5.528 -0.5702 -0.7366  0.1617
  430MOL0     H58011   6.135   2.122   5.614  1.0896 -3.8940  3.3608
  430MOL0     H58012   6.183   1.855   6.189 -1.1070  4.1544 -1.0000
  430MOL0     H58013   6.389   1.782   6.339  1.6176 -1.7945 -0.0533
  430MOL0     H58014   6.746   1.716   6.101 -0.0862 -2.2727  0.7240
  430MOL0     H58015   6.795   1.863   6.185  1.3402 -1.8083 -3.4219
  430MOL0     H58016   6.829   1.706   6.399  0.7320  0.7999 -0.3688
  430MOL0     H58017   6.793   1.571   6.281  0.7654 -0.9785 -1.8293
  430MOL0     H58018   7.008   1.647   6.148 -0.0413  2.6029 -0.4792
  430MOL0     H58019   7.013   1.780   6.247  2.6917 -0.5147  1.2371
  430MOL0     H58020   7.058   1.494   6.334 -2.0543  0.6422  2.0519
  430MOL0     H58021   7.057   1.632   6.435 -1.7721 -0.2143  0.7072
  430MOL0     H58022   7.237   1.740   6.273 -1.5580  0.0608  0.9016
  430MOL0     H58023   7.242   1.595   6.180  1.9375  0.0610  0.3077
  430MOL0     H58024   7.319   1.587   6.470  0.4636  0.7875 -1.6065
  430MOL0     H58025   7.323   1.458   6.360  1.2030 -0.8645 -0.8222
  430MOL0     H58026   7.462   1.727   6.373  0.1680  0.3261  1.1388
  430MOL0     H58027   7.478   1.612   6.226 -0.3760  2.1394 -0.1902
  430MOL0     H58028   7.536   1.544   6.523 -2.6516 -1.1004 -0.3863
  430MOL0     H58029   7.590   1.441   6.383  0.2821  1.2337 -0.7923
  430MOL0     H58030   6.641   1.908   6.020  0.7784  0.0246  0.3628
  430MOL0     H58031   6.454   2.007   5.906 -2.4217 -0.4204 -1.0072
  430MOL0     H58032   5.953   2.078   5.990  0.8346 -2.2287  0.5650
  430MOL0     H58033   5.756   2.201   5.916 -0.6582 -0.5808  0.1682
  430MOL0     H58034   4.286   2.970   5.053 -1.7490  0.7775  1.1350
  430MOL0     H58035   4.113   3.075   5.165 -0.3620  0.6089 -0.3673
  430MOL0     H58036   4.056   3.227   5.683  0.3018 -0.9308 -3.1823
  430MOL0     H58037   3.917   3.349   5.827  0.6585  0.4748 -0.4034
  430MOL0     H58038   3.837   3.640   5.800 -1.1457  1.8652  1.3447
  430MOL0     H58039   3.808   3.515   5.932 -1.7302 -2.1716 -0.6400
  430MOL0     H58040   3.580   3.576   5.933  0.6861 -1.6040 -0.1595
  430MOL0     H58041   3.598   3.716   5.823  0.7034  1.7984  1.4022
  430MOL0     H58042   3.778   3.803   5.993  1.2541 -0.6898  2.5695
  430MOL0     H58043   3.738   3.673   6.086 -2.1370  0.4345  0.4078
  430MOL0     H58044   3.601   3.892   6.149 -3.3004  0.0771  2.0050
  430MOL0     H58045   3.525   3.873   5.989 -2.6514 -0.3649  1.0667
  430MOL0     H58046   3.311   3.628   6.248  0.5049 -0.9929 -0.3432
  430MOL0     H58047   3.657   3.459   5.506 -0.0689 -0.3258  1.9193
  430MOL0     H58048   3.678   3.296   5.297 -0.3753 -0.5422  2.2079
  430MOL0     H58049   3.788   3.431   5.272 -2.3239  0.5338  0.0209
  430MOL0     H58050   3.851   3.269   5.238  0.1515  1.6064 -1.0050
  431MOL0     O58051   9.872   9.891   8.780 -0.1083  0.8238  0.3741
  431MOL0     C58052   9.809   9.785   8.757 -1.2639 -0.6801 -0.2443
  431MOL0     O58053   9.864   9.661   8.787 -0.5082 -0.2558  0.1059
  431MOL0     C58054   9.999   9.655   8.802 -0.3142 -0.5088 -0.6288
  431MOL0     C58055  10.058   9.718   8.917  0.4012 -1.1359  0.6573
  431MOL0     C58056  10.192   9.712   8.936  0.1623  0.4862  0.9533
  431MOL0     C58057  10.280   9.640   8.851 -0.1033 -0.6967  0.1436
  431MOL0     O58058  10.418   9.652   8.869  0.1319 -0.3283 -0.1937
  431MOL0     C58059  10.469   9.745   8.974 -0.4368  0.7069  0.6472
  431MOL0     C58060  10.625   9.768   8.948  0.9887  1.0089  0.3456
  431MOL0     C58061  10.690   9.630   8.919 -0.7458 -1.3104 -0.2550
  431MOL0     C58062  10.847   9.640   8.930  0.2897  0.7533  0.3914
  431MOL0     C58063  10.905   9.677   8.789  0.9795  0.1366  0.7732
  431MOL0     C58064  11.056   9.665   8.771 -1.3232 -0.0807  0.1197
  431MOL0     C58065  11.089   9.718   8.630 -0.9086 -1.2278 -0.5375
  431MOL0     C58066  11.243   9.704   8.610 -1.3347  0.3716  0.3996
  431MOL0     N58067  11.326   9.811   8.676  0.3471 -0.3215  0.0799
  431MOL0     C58068  11.415   9.801   8.787  0.5291 -1.4923 -0.4936
  431MOL0     C58069  11.442   9.934   8.822  0.1778  0.0428  0.7169
  431MOL0     C58070  11.509   9.972   8.943 -0.9765 -0.1521 -0.4887
  431MOL0     C58071  11.658  10.005   8.887  0.4090 -0.2287 -0.1882
  431MOL0     C58072  11.739  10.041   9.019  0.6808  0.5369 -0.3945
  431MOL0     C58073  11.892  10.070   8.998  0.1177  0.2535 -0.3868
  431MOL0     O58074  11.937   9.951   8.940  0.4827  0.5675 -0.3746
  431MOL0     C58075  12.075   9.939   8.904  0.3169 -0.5453 -0.2020
  431MOL0     C58076  12.160  10.046   8.877  0.7680 -0.3545 -0.0938
  431MOL0     C58077  12.288  10.036   8.825 -0.0430 -0.2867 -0.3429
  431MOL0     C58078  12.336   9.908   8.790  0.6238  0.5452 -0.1829
  431MOL0     C58079  12.467   9.871   8.729  0.3499 -0.3164  0.1574
  431MOL0     O58080  12.508   9.737   8.733 -0.1186  0.3924 -0.0136
  431MOL0     C58081  12.627   9.696   8.699 -0.6076  0.1519 -0.5406
  431MOL0     C58082  12.745   9.763   8.717 -0.1280 -0.3928 -0.9127
  431MOL0     C58083  12.870   9.707   8.686 -0.0431  0.0460 -0.0333
  431MOL0     C58084  12.871   9.583   8.616 -0.1574 -0.7298  0.2451
  431MOL0     O58085  12.973   9.519   8.562 -1.0778  0.1145 -0.0179
  431MOL0     C58086  13.113   9.556   8.575  0.1947 -0.3993  0.7336
  431MOL0     C58087  13.192   9.455   8.510  0.8620  0.4012 -0.2944
  431MOL0     C58088  13.342   9.496   8.504  0.7749 -0.4072 -0.3775
  431MOL0     C58089  13.388   9.589   8.399  0.6036 -0.9654  0.0886
  431MOL0     C58090  13.508   9.678   8.433  0.4749 -0.2411 -0.7563
  431MOL0     C58091  13.643   9.610   8.448 -0.1795 -0.5216  0.0360
  431MOL0     C58092  13.684   9.554   8.314 -0.6115 -0.8032  0.4079
  431MOL0     C58093  13.836   9.534   8.318  0.0198 -0.7781  0.5001
  431MOL0    Cl58094  13.896   9.395   8.412  0.0829  0.2199  0.0031
  431MOL0     C58095  12.749   9.517   8.595 -0.2406 -0.0815  0.6516
  431MOL0     C58096  12.629   9.575   8.631 -0.1021  0.4760 -0.4044
  431MOL0     O58097  12.536   9.969   8.687 -0.2160  0.3531  0.2252
  431MOL0     C58098  12.251   9.799   8.811  0.2858  0.7531  0.7518
  431MOL0     C58099  12.116   9.816   8.856 -0.5994 -0.2794  0.1528
  431MOL0     N58100  11.374  10.020   8.728 -0.9898  0.6263 -0.8890
  431MOL0     N58101  11.322   9.949   8.639  0.9976  1.4834 -0.5474
  431MOL0     C58102  10.226   9.579   8.736  0.2404  0.4621  0.4226
  431MOL0     C58103  10.083   9.581   8.715  0.3628 -0.6249 -0.4218
  431MOL0     C58104   9.678   9.795   8.698  0.3886 -0.8080 -0.4014
  431MOL0     C58105   9.660   9.906   8.611  0.0252  0.7539  0.0408
  431MOL0     C58106   9.526   9.929   8.552  0.7350 -0.3813  0.7150
  431MOL0     C58107   9.420   9.841   8.584 -0.1199  0.4903  0.2241
  431MOL0     O58108   9.283   9.858   8.548  0.1101 -0.0720  0.1074
  431MOL0     C58109   9.250   9.968   8.459  0.1679 -0.3044 -0.9347
  431MOL0     C58110   9.115   9.954   8.399  0.3717  1.0390  0.3917
  431MOL0     C58111   9.070   9.807   8.365 -0.3716  0.4340 -0.5549
  431MOL0     C58112   8.968   9.750   8.459  0.3150 -0.4037  0.0398
  431MOL0     C58113   8.845   9.818   8.447  0.4053  0.2651 -0.3402
  431MOL0     C58114   8.750   9.883   8.411  0.2497  0.1839 -0.4900
  431MOL0     C58115   9.447   9.725   8.653  0.5689 -0.6973  0.7371
  431MOL0     C58116   9.567   9.707   8.727 -0.9972  1.0452  0.3103
  431MOL0     C58117   9.566   9.592   8.821 -0.4385  0.4614 -0.0395
  431MOL0     H58118   9.994   9.771   8.988 -0.4876 -3.1914  1.4706
  431MOL0     H58119  10.232   9.754   9.028  1.1433  1.4328  0.1196
  431MOL0     H58120  10.421   9.843   8.976  0.3436  1.0845  1.5227
  431MOL0     H58121  10.466   9.691   9.069  0.1812 -1.6245 -0.5662
  431MOL0     H58122  10.663   9.832   9.028  1.3926 -0.9370  1.7630
  431MOL0     H58123  10.631   9.828   8.856  0.8503  1.4705  0.6344
  431MOL0     H58124  10.658   9.590   8.822 -1.0605  1.7416 -1.5062
  431MOL0     H58125  10.661   9.553   8.992  1.5938 -3.0635 -1.0453
  431MOL0     H58126  10.880   9.715   9.003  0.9224  0.6508  0.2141
  431MOL0     H58127  10.886   9.547   8.972 -1.3281  0.2779  0.9253
  431MOL0     H58128  10.857   9.609   8.718  2.0247 -1.2660  1.3820
  431MOL0     H58129  10.865   9.777   8.768  1.6578  0.1212 -0.6320
  431MOL0     H58130  11.108   9.720   8.850  0.4395 -0.4072 -0.7808
  431MOL0     H58131  11.076   9.558   8.781  0.8511  0.3171  0.4206
  431MOL0     H58132  11.061   9.823   8.614  1.4387 -0.3972  0.3894
  431MOL0     H58133  11.042   9.645   8.564  1.5043 -2.5979 -0.8464
  431MOL0     H58134  11.277   9.604   8.638 -0.3776 -0.2484 -2.5421
  431MOL0     H58135  11.273   9.703   8.504 -0.0138 -1.1898  0.7386
  431MOL0     H58136  11.453   9.711   8.834  1.1584 -1.0760 -0.1873
  431MOL0     H58137  11.451  10.043   9.003  0.0019 -1.0006  1.5765
  431MOL0     H58138  11.523   9.879   9.000  1.0757  0.5745  0.3100
  431MOL0     H58139  11.696   9.923   8.826  0.1207 -1.1596  0.8538
  431MOL0     H58140  11.656  10.097   8.828 -0.0005  1.0579  1.7382
  431MOL0     H58141  11.743   9.964   9.096  1.7565  0.2890 -0.6796
  431MOL0     H58142  11.685  10.119   9.073 -0.1591 -0.1860 -0.1678
  431MOL0     H58143  11.947  10.102   9.086  1.7546 -0.8881 -0.9531
  431MOL0     H58144  11.890  10.148   8.920  2.9027  0.8522  0.0454
  431MOL0     H58145  12.119  10.144   8.896 -0.5324 -0.5250 -1.7565
  431MOL0     H58146  12.339  10.126   8.792 -3.3171  1.7324 -0.2969
  431MOL0     H58147  12.741   9.859   8.766 -1.3742  0.1165 -1.9514
  431MOL0     H58148  12.966   9.757   8.700 -0.9564  1.2066  2.7220
  431MOL0     H58149  13.124   9.657   8.534 -2.7356 -0.3288 -0.1737
  431MOL0     H58150  13.129   9.552   8.683 -1.5859 -4.4783  1.0412
  431MOL0     H58151  13.179   9.356   8.555 -0.9392 -0.7046 -2.9517
  431MOL0     H58152  13.164   9.437   8.405  0.5567 -1.5728  0.0970
  431MOL0     H58153  13.372   9.534   8.602 -1.4325 -0.1189  0.2451
  431MOL0     H58154  13.405   9.408   8.495  1.6116  0.1902 -0.4769
  431MOL0     H58155  13.301   9.652   8.378  0.2268 -1.4940  0.0305
  431MOL0     H58156  13.410   9.530   8.310 -1.0263 -0.8585 -0.4225
  431MOL0     H58157  13.484   9.715   8.533 -3.5798  0.0535 -1.6563
  431MOL0     H58158  13.515   9.761   8.362 -0.9487  1.1055  0.6024
  431MOL0     H58159  13.715   9.686   8.482 -2.0096  2.8045 -2.8964
  431MOL0     H58160  13.627   9.538   8.529 -0.9802  2.9563  3.2696
  431MOL0     H58161  13.671   9.626   8.232  0.9430 -2.4876 -1.4422
  431MOL0     H58162  13.631   9.463   8.285 -2.2342  0.8260 -2.1551
  431MOL0     H58163  13.866   9.518   8.214 -2.0155 -0.4186 -0.1803
  431MOL0     H58164  13.894   9.624   8.338 -0.9907  0.4621 -1.8090
  431MOL0     H58165  12.737   9.427   8.536  1.8255  0.3857 -0.5957
  431MOL0     H58166  12.533   9.528   8.610 -0.5455  1.6368 -1.0759
  431MOL0     H58167  12.274   9.702   8.768  2.4137  1.5703 -0.0643
  431MOL0     H58168  12.052   9.729   8.845  1.0523 -1.6441  1.0815
  431MOL0     H58169  10.293   9.513   8.682  0.0883 -1.0482  2.0186
  431MOL0     H58170  10.025   9.534   8.636 -3.8101 -0.2114  2.0582
  431MOL0     H58171   9.742   9.969   8.578 -0.0435 -0.3045 -2.3935
  431MOL0     H58172   9.507  10.012   8.484 -0.3930 -0.7027  0.6178
  431MOL0     H58173   9.319   9.976   8.374  1.1889 -2.6435 -0.3969
  431MOL0     H58174   9.256  10.059   8.519  1.3291  0.4900 -2.1866
  431MOL0     H58175   9.115  10.022   8.314 -1.9365  0.3447 -0.2354
  431MOL0     H58176   9.046   9.989   8.476 -1.6561 -0.7439 -0.4948
  431MOL0     H58177   9.157   9.743   8.352 -0.3268  0.6571 -1.4269
  431MOL0     H58178   9.030   9.821   8.264 -1.7535 -0.0253 -0.1020
  431MOL0     H58179   8.953   9.647   8.425 -4.1203 -0.4235  1.4027
  431MOL0     H58180   8.999   9.760   8.563 -0.2926 -1.8378  0.3764
  431MOL0     H58181   8.666   9.941   8.380 -0.3589 -0.5439 -0.2530
  431MOL0     H58182   9.366   9.653   8.654  0.3161 -0.6591 -2.8785
  431MOL0     H58183   9.647   9.521   8.798  0.3784  1.2918  0.1971
  431MOL0     H58184   9.588   9.629   8.922  0.5298  1.7089 -0.6669
  431MOL0     H58185   9.470   9.544   8.840  1.3658 -2.2227  3.7078
  432MOL0     O58186   4.040   1.713   4.044  0.2493 -0.1796  0.3128
  432MOL0     C58187   3.956   1.632   4.082 -0.0120  0.0404  0.1267
  432MOL0     O58188   3.967   1.550   4.191 -0.5286  0.2196  0.1562
  432MOL0     C58189   4.072   1.566   4.270 -0.3731 -0.2251 -0.0480
  432MOL0     C58190   4.192   1.508   4.233  0.1723  0.2190  0.4836
  432MOL0     C58191   4.308   1.522   4.309 -0.1804  0.6089 -0.4835
  432MOL0     C58192   4.300   1.594   4.428 -0.1430  0.3226  0.3913
  432MOL0     O58193   4.414   1.612   4.496 -0.4234 -0.0593  0.0363
  432MOL0     C58194   4.470   1.745   4.482 -0.1354 -0.0649  0.5244
  432MOL0     C58195   4.587   1.769   4.581  0.5682  0.2522 -0.5668
  432MOL0     C58196   4.675   1.891   4.524 -0.0073 -0.2930 -0.3538
  432MOL0     C58197   4.774   1.935   4.638  0.2763  0.5822  0.4442
  432MOL0     C58198   4.847   2.058   4.591 -1.0637 -0.1757 -0.1499
  432MOL0     C58199   4.972   2.093   4.673 -0.3637  0.3033 -0.4519
  432MOL0     C58200   5.046   2.214   4.609  0.7758  0.9792 -0.5781
  432MOL0     C58201   5.140   2.160   4.506  0.1269  0.2582 -0.5825
  432MOL0     N58202   5.235   2.063   4.563 -0.1044 -0.7133 -0.1428
  432MOL0     C58203   5.313   2.083   4.680  0.0768 -0.5910  0.0936
  432MOL0     C58204   5.407   1.985   4.668 -0.1189  0.4289 -0.6832
  432MOL0     C58205   5.534   1.969   4.754  0.0923  0.3640  0.1277
  432MOL0     C58206   5.657   2.027   4.684  0.4599  0.8661 -0.0970
  432MOL0     C58207   5.691   1.979   4.542  0.8056  0.9392  1.1444
  432MOL0     C58208   5.709   1.828   4.530 -0.2990 -0.2278  0.5393
  432MOL0     O58209   5.814   1.775   4.608  0.7592 -0.4146  1.0102
  432MOL0     C58210   5.947   1.810   4.588  0.3312  1.1060 -0.1106
  432MOL0     C58211   5.995   1.848   4.465 -0.2367  0.3877  0.6192
  432MOL0     C58212   6.125   1.854   4.433 -0.1713  0.3488 -0.2395
  432MOL0     C58213   6.232   1.827   4.527  0.1069 -0.5217 -0.2410
  432MOL0     C58214   6.373   1.845   4.501 -0.7301 -0.6206 -0.7535
  432MOL0     O58215   6.471   1.780   4.587 -0.4149  0.5576  1.0391
  432MOL0     C58216   6.603   1.811   4.597 -0.3540  0.2482  0.1595
  432MOL0     C58217   6.668   1.754   4.710 -0.1897  0.5859 -0.5607
  432MOL0     C58218   6.804   1.760   4.722  0.4281 -0.1654 -0.2599
  432MOL0     C58219   6.878   1.842   4.634 -0.0009 -0.3447  0.4751
  432MOL0     O58220   7.009   1.869   4.665 -0.2621 -0.5265  0.7897
  432MOL0     C58221   7.082   1.766   4.738  0.7187 -0.5146  0.4601
  432MOL0     C58222   7.227   1.809   4.744 -0.2847 -0.5214  0.3861
  432MOL0     C58223   7.322   1.703   4.799  0.3811 -1.0090 -0.5950
  432MOL0     C58224   7.363   1.598   4.703 -1.1561 -0.2175  0.3408
  432MOL0     C58225   7.453   1.496   4.762  0.4638 -0.1259 -0.2706
  432MOL0     C58226   7.598   1.532   4.759 -0.1725  0.4559  0.8504
  432MOL0     C58227   7.685   1.408   4.787  0.2005 -0.3928  0.0546
  432MOL0     C58228   7.830   1.448   4.755  0.5181  0.2427 -0.4841
  432MOL0    Cl58229   7.884   1.589   4.851 -0.2303  0.0001 -0.0356
  432MOL0     C58230   6.814   1.895   4.523 -0.8106 -0.3272  0.4317
  432MOL0     C58231   6.680   1.881   4.508  0.8939  0.6813  0.8374
  432MOL0     O58232   6.402   1.898   4.392  0.2924  0.4403  0.6683
  432MOL0     C58233   6.182   1.786   4.656 -1.1708  0.8970  0.2038
  432MOL0     C58234   6.040   1.785   4.688 -0.4445 -0.2421 -0.1164
  432MOL0     N58235   5.377   1.904   4.558 -0.8853 -1.1001  0.4159
  432MOL0     N58236   5.273   1.953   4.495 -0.4516 -0.5257 -1.0845
  432MOL0     C58237   4.176   1.652   4.466  0.9252 -0.4220  0.1185
  432MOL0     C58238   4.058   1.633   4.391  0.4160  0.4175  0.0681
  432MOL0     C58239   3.829   1.615   4.005  0.5243 -0.3610 -0.3211
  432MOL0     C58240   3.720   1.550   4.069 -0.3830 -1.0565  0.5035
  432MOL0     C58241   3.599   1.543   4.009  0.3606  0.0756  0.1848
  432MOL0     C58242   3.577   1.580   3.882 -0.6875 -0.4092  0.2305
  432MOL0     O58243   3.450   1.567   3.848  0.4765 -0.5148  0.6851
  432MOL0     C58244   3.407   1.603   3.717  0.1592  0.1346 -1.0135
  432MOL0     C58245   3.256   1.608   3.738 -0.0105 -0.0008 -0.4113
  432MOL0     C58246   3.184   1.627   3.589  0.0502 -0.4952 -0.5380
  432MOL0     C58247   3.033   1.615   3.602  0.6847 -0.3142 -0.3119
  432MOL0     C58248   2.957   1.644   3.482 -0.5268  0.2853 -0.3844
  432MOL0     C58249   2.876   1.674   3.399  0.6363 -0.8009  0.1080
  432MOL0     C58250   3.688   1.630   3.812 -0.8825  0.0154 -0.1836
  432MOL0     C58251   3.823   1.636   3.866 -0.0732  0.3389 -0.8075
  432MOL0     C58252   3.931   1.654   3.759 -0.8585  0.0097 -0.0879
  432MOL0     H58253   4.190   1.458   4.137  0.4448 -2.6621  1.8741
  432MOL0     H58254   4.402   1.481   4.272 -0.6293 -1.6203  0.6686
  432MOL0     H58255   4.505   1.746   4.378 -1.1962 -1.4140  0.1313
  432MOL0     H58256   4.396   1.825   4.495 -0.2625 -0.0936  0.0178
  432MOL0     H58257   4.653   1.681   4.586  0.7657  0.4480  0.3961
  432MOL0     H58258   4.546   1.801   4.677 -2.0837  2.3582 -2.2724
  432MOL0     H58259   4.618   1.975   4.486 -0.8390 -1.5631 -2.0100
  432MOL0     H58260   4.740   1.857   4.443  0.4994  3.4144 -1.6732
  432MOL0     H58261   4.712   1.975   4.719 -0.6460  1.2675 -0.5725
  432MOL0     H58262   4.838   1.849   4.658  0.2819 -0.2878 -2.8012
  432MOL0     H58263   4.871   2.047   4.484 -3.2598 -1.8526 -0.5369
  432MOL0     H58264   4.781   2.145   4.601 -1.1049  0.0158 -1.7322
  432MOL0     H58265   4.934   2.125   4.771  1.4671  0.8403  0.1366
  432MOL0     H58266   5.035   2.006   4.693 -1.8106 -1.3827 -2.7667
  432MOL0     H58267   5.094   2.271   4.689  0.0731  2.4005 -1.1461
  432MOL0     H58268   4.977   2.283   4.560  0.9504  0.3314 -1.7850
  432MOL0     H58269   5.082   2.112   4.427 -1.5826  1.9988 -0.4580
  432MOL0     H58270   5.196   2.246   4.468  0.0164  0.7162  0.2703
  432MOL0     H58271   5.300   2.154   4.761 -0.4821 -0.4245 -0.1326
  432MOL0     H58272   5.516   2.023   4.847  3.3830  2.4368 -0.2710
  432MOL0     H58273   5.546   1.864   4.782 -1.4998  0.6138  1.9486
  432MOL0     H58274   5.641   2.135   4.680 -0.2873  0.7131 -1.7869
  432MOL0     H58275   5.745   2.023   4.749  1.8616  1.7001 -1.8720
  432MOL0     H58276   5.788   2.025   4.522  1.1176  0.0337  0.4884
  432MOL0     H58277   5.611   2.007   4.473  1.7212 -0.8239 -0.7424
  432MOL0     H58278   5.727   1.802   4.425 -0.5222  1.0475  0.1664
  432MOL0     H58279   5.617   1.775   4.557 -0.2255 -1.5488 -1.5347
  432MOL0     H58280   5.933   1.876   4.381  1.1510 -0.9663 -0.9128
  432MOL0     H58281   6.154   1.890   4.335  1.8954 -1.1048 -0.2349
  432MOL0     H58282   6.616   1.695   4.785 -0.0937  0.4283 -0.6176
  432MOL0     H58283   6.856   1.713   4.804  6.1852  0.7643 -2.8961
  432MOL0     H58284   7.046   1.770   4.842  2.0437  3.2713  0.9484
  432MOL0     H58285   7.070   1.666   4.696  1.7668 -1.1687  1.6341
  432MOL0     H58286   7.253   1.850   4.646  1.6198  1.1330  1.5176
  432MOL0     H58287   7.237   1.894   4.812 -0.7410  0.1423 -0.3587
  432MOL0     H58288   7.415   1.754   4.824  0.6729 -0.7017 -2.2054
  432MOL0     H58289   7.282   1.661   4.892 -1.2879  1.4123 -0.1408
  432MOL0     H58290   7.405   1.643   4.612 -0.1061  2.6873  2.1166
  432MOL0     H58291   7.270   1.551   4.671 -0.4441 -0.8498 -0.8592
  432MOL0     H58292   7.436   1.403   4.707 -1.6741 -1.0707  1.8424
  432MOL0     H58293   7.429   1.487   4.868  2.4148 -0.8176  0.1585
  432MOL0     H58294   7.611   1.567   4.656 -5.4539  0.2622 -0.1826
  432MOL0     H58295   7.618   1.622   4.817  1.2775  0.7564 -0.0510
  432MOL0     H58296   7.658   1.336   4.709 -0.2367 -0.8162  0.5975
  432MOL0     H58297   7.680   1.359   4.884 -0.3104  0.3386  0.4067
  432MOL0     H58298   7.905   1.371   4.777 -0.0558  0.0261  0.7931
  432MOL0     H58299   7.844   1.472   4.649  1.2970  1.7980 -0.0636
  432MOL0     H58300   6.877   1.936   4.445 -1.9571 -0.7919 -0.7876
  432MOL0     H58301   6.640   1.909   4.411  1.8570  0.5300  0.3867
  432MOL0     H58302   6.254   1.754   4.731  2.1713  2.0047 -2.3036
  432MOL0     H58303   6.000   1.755   4.784 -0.2113  3.0691  1.1285
  432MOL0     H58304   4.171   1.708   4.559 -3.3787 -0.0047 -0.1654
  432MOL0     H58305   3.961   1.658   4.431  0.1437 -0.4279 -0.0414
  432MOL0     H58306   3.735   1.512   4.169  1.3336  0.1366  0.7223
  432MOL0     H58307   3.512   1.521   4.070  1.2188  0.9550  1.7876
  432MOL0     H58308   3.427   1.525   3.642 -2.6778 -0.7617 -0.9462
  432MOL0     H58309   3.449   1.697   3.680  1.3358 -0.4517 -1.2350
  432MOL0     H58310   3.221   1.690   3.801 -1.0889  0.1986 -1.2489
  432MOL0     H58311   3.224   1.516   3.787 -0.4595  0.4307  0.1164
  432MOL0     H58312   3.216   1.544   3.525  2.1084 -2.0908  2.2821
  432MOL0     H58313   3.209   1.722   3.541 -3.1071  0.0758 -1.2685
  432MOL0     H58314   3.015   1.516   3.645  0.8706  0.4895  1.7049
  432MOL0     H58315   3.005   1.695   3.671  0.2553 -1.4786  0.8955
  432MOL0     H58316   2.805   1.685   3.320  1.3018 -1.4325 -0.6022
  432MOL0     H58317   3.685   1.631   3.703  0.9683 -3.8438 -0.4217
  432MOL0     H58318   4.027   1.603   3.774 -1.6371 -0.7341  3.2344
  432MOL0     H58319   3.898   1.613   3.663  2.8825 -0.0853 -1.4867
  432MOL0     H58320   3.956   1.760   3.750  0.3121 -0.2784 -0.3953
  433MOL0     O58321   6.199   8.595   8.113  0.4167 -0.1212  0.1808
  433MOL0     C58322   6.163   8.495   8.177 -0.2097  0.2177 -0.2707
  433MOL0     O58323   6.245   8.396   8.226  0.2365  0.6154 -0.3392
  433MOL0     C58324   6.371   8.389   8.197 -0.4077 -0.1513  0.2226
  433MOL0     C58325   6.469   8.477   8.248 -0.3064 -0.6202 -1.0511
  433MOL0     C58326   6.605   8.452   8.217  0.5673 -0.7711  0.8941
  433MOL0     C58327   6.639   8.336   8.149 -0.0943  0.2193  0.2939
  433MOL0     O58328   6.769   8.293   8.123 -0.3252  0.5974  0.5328
  433MOL0     C58329   6.871   8.390   8.150 -0.5207 -0.5429 -0.5920
  433MOL0     C58330   7.016   8.342   8.125 -0.0640 -0.3909 -0.4923
  433MOL0     C58331   7.107   8.462   8.144 -0.7337  0.0651  0.4792
  433MOL0     C58332   7.255   8.434   8.163 -0.4550  0.0814 -0.2513
  433MOL0     C58333   7.330   8.560   8.206  0.0030  0.1700  0.0178
  433MOL0     C58334   7.491   8.539   8.211  0.8276  0.7590  0.1509
  433MOL0     C58335   7.579   8.657   8.238  0.4545  0.2547  0.4643
  433MOL0     C58336   7.726   8.616   8.240  0.5052  1.1035  0.9443
  433MOL0     N58337   7.805   8.715   8.302 -0.4379 -0.7222 -0.4376
  433MOL0     C58338   7.851   8.818   8.227 -0.0115 -0.5091  0.1407
  433MOL0     C58339   7.938   8.889   8.304  0.5624 -0.2212 -0.4441
  433MOL0     C58340   8.020   9.004   8.267  0.7768 -0.6746 -0.3139
  433MOL0     C58341   8.171   8.983   8.285 -0.1940  0.6524  0.3649
  433MOL0     C58342   8.217   8.860   8.193 -0.1028 -0.2313  0.2602
  433MOL0     C58343   8.210   8.885   8.049  0.2234 -0.3668 -0.3928
  433MOL0     O58344   8.278   8.999   7.998 -0.4341 -0.8847  0.1903
  433MOL0     C58345   8.412   9.008   7.996  0.2216  1.4795 -1.4444
  433MOL0     C58346   8.462   9.133   7.966 -0.5125  0.4270 -0.0567
  433MOL0     C58347   8.584   9.157   7.912  0.1797  0.4873 -0.6538
  433MOL0     C58348   8.675   9.044   7.923 -0.1406 -0.3100 -0.5992
  433MOL0     C58349   8.826   9.056   7.893  0.5254  0.6240  0.2662
  433MOL0     O58350   8.870   9.181   7.873  0.1411 -0.4446  0.1670
  433MOL0     C58351   9.005   9.179   7.865 -0.8564 -0.8721  0.3403
  433MOL0     C58352   9.087   9.171   7.983  0.1629 -0.3194  0.2306
  433MOL0     C58353   9.226   9.166   7.968  0.0444  0.0632  0.7419
  433MOL0     C58354   9.286   9.184   7.840 -0.1275  0.0869  0.3744
  433MOL0     O58355   9.423   9.211   7.822  1.0307  0.1016 -0.2735
  433MOL0     C58356   9.503   9.273   7.923 -0.6179  0.3247 -0.0849
  433MOL0     C58357   9.641   9.296   7.863 -0.4470  0.5757  0.0138
  433MOL0     C58358   9.734   9.320   7.981 -0.8433  0.3502  0.2332
  433MOL0     C58359   9.874   9.336   7.934  0.2803 -0.4543  0.5291
  433MOL0     C58360   9.884   9.469   7.864  0.0917 -0.1588 -0.2180
  433MOL0     C58361  10.031   9.514   7.836  0.3623 -0.3506  0.3335
  433MOL0     C58362  10.095   9.418   7.737 -0.3726  0.8742  0.6249
  433MOL0     C58363  10.224   9.492   7.690  0.8112  0.3555  0.1134
  433MOL0    Cl58364  10.342   9.531   7.809  0.0222 -0.2251  0.0706
  433MOL0     C58365   9.209   9.193   7.723 -0.1760 -0.8258  0.0557
  433MOL0     C58366   9.069   9.187   7.730 -0.5799 -0.1018 -0.9312
  433MOL0     O58367   8.889   8.951   7.873  0.3110  0.1064  0.2688
  433MOL0     C58368   8.630   8.914   7.961  0.5717  0.3014  0.1645
  433MOL0     C58369   8.498   8.898   8.002  0.1653 -0.4466  1.1603
  433MOL0     N58370   7.944   8.824   8.429  0.0010 -0.1087 -0.2130
  433MOL0     N58371   7.878   8.710   8.415  0.4559 -0.6997  0.3103
  433MOL0     C58372   6.544   8.260   8.086  0.2932  0.1661 -0.3853
  433MOL0     C58373   6.406   8.275   8.120 -0.2067 -0.4995 -0.1276
  433MOL0     C58374   6.016   8.483   8.198  0.1481 -0.3418 -0.0097
  433MOL0     C58375   5.975   8.349   8.191 -0.1080  0.6095 -0.3196
  433MOL0     C58376   5.846   8.305   8.177  0.1598  0.0386  0.2971
  433MOL0     C58377   5.744   8.407   8.179 -0.5204  0.1607 -0.1574
  433MOL0     O58378   5.607   8.391   8.173 -0.4883  0.8588  0.3196
  433MOL0     C58379   5.568   8.305   8.064  0.1470 -0.7666  0.9963
  433MOL0     C58380   5.424   8.286   8.056 -0.4054  0.2984 -0.5947
  433MOL0     C58381   5.410   8.179   7.940  0.3364 -0.2581 -0.6809
  433MOL0     C58382   5.415   8.035   7.996  0.0775 -0.7768 -0.4760
  433MOL0     C58383   5.286   8.002   8.047 -0.1262  0.3973  0.0112
  433MOL0     C58384   5.178   7.981   8.103  0.8954  0.6339 -0.6822
  433MOL0     C58385   5.788   8.541   8.195 -0.6243  0.1877  0.1038
  433MOL0     C58386   5.921   8.582   8.197  0.3616 -0.0732 -0.9288
  433MOL0     C58387   5.947   8.730   8.194 -0.2470  0.0846  0.2012
  433MOL0     H58388   6.443   8.563   8.309 -1.2518 -3.5483  3.1024
  433MOL0     H58389   6.682   8.512   8.264  0.6315  1.0943 -1.4154
  433MOL0     H58390   6.853   8.475   8.083  0.4110 -2.5334 -3.5673
  433MOL0     H58391   6.860   8.426   8.253 -1.0080  1.3064 -1.2576
  433MOL0     H58392   7.019   8.303   8.023 -2.2393 -0.2443 -0.6674
  433MOL0     H58393   7.031   8.255   8.190 -0.8333 -1.1816 -1.3428
  433MOL0     H58394   7.071   8.514   8.234  0.5996  1.3739  0.3072
  433MOL0     H58395   7.084   8.525   8.058 -0.2311  0.0414  0.3231
  433MOL0     H58396   7.282   8.355   8.234 -0.5227 -0.6049 -0.9654
  433MOL0     H58397   7.289   8.402   8.064 -0.9669  2.6464 -1.3379
  433MOL0     H58398   7.309   8.643   8.138  1.4447  1.3826  0.9640
  433MOL0     H58399   7.283   8.584   8.302  0.5999  0.7241  0.1857
  433MOL0     H58400   7.509   8.461   8.286 -2.1787  1.2421  1.5229
  433MOL0     H58401   7.525   8.498   8.115  0.6474  4.0987 -1.5006
  433MOL0     H58402   7.560   8.699   8.337  1.0556 -2.2012  1.7055
  433MOL0     H58403   7.543   8.728   8.163 -0.9869 -0.3345  0.5501
  433MOL0     H58404   7.738   8.516   8.284 -2.7285 -0.0359 -0.4566
  433MOL0     H58405   7.765   8.604   8.139 -1.4614 -2.5198  0.4529
  433MOL0     H58406   7.816   8.837   8.126  1.3606  2.7890  0.1517
  433MOL0     H58407   8.002   9.050   8.170 -0.8965 -0.6492 -0.0156
  433MOL0     H58408   7.995   9.090   8.331  5.2287  0.4524  0.2947
  433MOL0     H58409   8.229   9.074   8.269  1.4875  0.3569  3.7658
  433MOL0     H58410   8.197   8.958   8.388 -0.0727  0.1001  0.2017
  433MOL0     H58411   8.162   8.770   8.221 -2.3214  1.1736  0.6520
  433MOL0     H58412   8.323   8.847   8.215  0.5417  1.7192 -1.3914
  433MOL0     H58413   8.106   8.885   8.015  0.9736 -0.1526 -2.9191
  433MOL0     H58414   8.256   8.797   8.003 -0.7809 -0.0168 -2.1660
  433MOL0     H58415   8.381   9.204   7.971 -1.3610 -0.3896 -1.6640
  433MOL0     H58416   8.612   9.258   7.884 -0.0657  0.8332  0.2768
  433MOL0     H58417   9.043   9.157   8.081  1.2346  1.0817  0.9554
  433MOL0     H58418   9.294   9.149   8.051  0.5729 -1.8715 -0.0330
  433MOL0     H58419   9.458   9.365   7.963  2.6234  0.4800  3.9970
  433MOL0     H58420   9.515   9.200   8.003 -0.1968 -2.0526 -2.2056
  433MOL0     H58421   9.678   9.211   7.804 -1.1357 -0.0487  0.4823
  433MOL0     H58422   9.642   9.375   7.786 -0.5223 -1.0546 -1.7411
  433MOL0     H58423   9.715   9.412   8.038 -0.7310  2.6932 -3.2276
  433MOL0     H58424   9.733   9.233   8.047 -1.4588  0.4946  0.4193
  433MOL0     H58425   9.898   9.263   7.856  0.1586  2.4112 -2.4345
  433MOL0     H58426   9.942   9.328   8.019 -0.0480 -0.5058  0.7904
  433MOL0     H58427   9.841   9.540   7.936 -3.0764 -3.6104  1.6657
  433MOL0     H58428   9.828   9.476   7.771  1.9979 -3.1529 -1.7391
  433MOL0     H58429  10.037   9.610   7.785 -2.2514  1.0107  2.3702
  433MOL0     H58430  10.091   9.508   7.927 -0.4527  1.2492  1.0118
  433MOL0     H58431  10.029   9.395   7.653  0.8531  0.8096 -0.3470
  433MOL0     H58432  10.122   9.322   7.782 -0.1072  0.1127 -1.1134
  433MOL0     H58433  10.270   9.427   7.615  2.6115  0.0614  1.4143
  433MOL0     H58434  10.219   9.590   7.640  2.1713  0.5799  0.3726
  433MOL0     H58435   9.252   9.213   7.625 -0.0386  0.6768  0.4017
  433MOL0     H58436   9.008   9.203   7.642 -2.8846 -1.6324  0.3139
  433MOL0     H58437   8.697   8.830   7.973  1.1344  1.0141  2.4801
  433MOL0     H58438   8.462   8.797   8.024 -2.6812 -0.1482 -1.4186
  433MOL0     H58439   6.577   8.186   8.013  0.1966  1.8844 -2.2303
  433MOL0     H58440   6.324   8.217   8.078 -1.7451  0.6845  1.1443
  433MOL0     H58441   6.050   8.270   8.194 -0.9293 -0.2082  3.0562
  433MOL0     H58442   5.823   8.200   8.166 -1.4664  0.4585 -0.7036
  433MOL0     H58443   5.624   8.211   8.064  0.8050 -0.4003 -0.4459
  433MOL0     H58444   5.609   8.353   7.975  0.1101 -0.6337  1.0510
  433MOL0     H58445   5.375   8.383   8.040  1.6978  2.3200  3.6976
  433MOL0     H58446   5.388   8.250   8.152 -0.6614  0.4388 -0.6360
  433MOL0     H58447   5.495   8.192   7.873  2.0074  0.6710  1.4811
  433MOL0     H58448   5.321   8.192   7.877 -0.1315 -2.6598 -0.5925
  433MOL0     H58449   5.443   7.976   7.909 -1.9408 -2.2226 -0.2286
  433MOL0     H58450   5.495   8.014   8.066  1.9777  2.5313 -1.4447
  433MOL0     H58451   5.097   7.943   8.161  2.5593 -0.8892  0.7705
  433MOL0     H58452   5.708   8.613   8.203 -0.1567  0.7257  0.0026
  433MOL0     H58453   5.952   8.768   8.092 -4.6751 -1.2134 -0.7069
  433MOL0     H58454   5.872   8.783   8.252 -0.2450 -1.7888  2.0511
  433MOL0     H58455   6.039   8.740   8.252  0.5239  2.7645 -1.3253
  434MOL0     O58456  10.017   3.211  10.132  0.5106 -0.0641 -0.2441
  434MOL0     C58457  10.004   3.320  10.182  0.0574  0.2431 -0.1789
  434MOL0     O58458  10.099   3.399  10.226 -0.2082 -0.4279 -0.5693
  434MOL0     C58459  10.227   3.369  10.224  0.0198  0.5133 -0.9921
  434MOL0     C58460  10.286   3.236  10.228  0.8954  0.1652  1.1961
  434MOL0     C58461  10.423   3.223  10.224  0.1865 -0.1876  0.3540
  434MOL0     C58462  10.504   3.341  10.225  1.1083  0.8415 -1.1960
  434MOL0     O58463  10.636   3.324  10.244  0.2576 -0.1000  1.3905
  434MOL0     C58464  10.727   3.432  10.250 -0.7547 -0.8632 -0.1177
  434MOL0     C58465  10.873   3.384  10.292 -0.5329  0.7442  0.0354
  434MOL0     C58466  10.961   3.325  10.173  0.0960 -0.0506 -1.0811
  434MOL0     C58467  10.950   3.175  10.166 -0.5980  0.0269 -0.6183
  434MOL0     C58468  11.076   3.124  10.094 -0.3776  0.7045  0.5405
  434MOL0     C58469  11.074   2.977  10.083 -0.3726  0.3255  1.1907
  434MOL0     C58470  11.148   2.939   9.957 -0.3644 -0.2769  1.2088
  434MOL0     C58471  11.300   2.979   9.952 -0.1582  0.6134 -0.6039
  434MOL0     N58472  11.367   2.950   9.822 -0.2081  0.3296 -0.3071
  434MOL0     C58473  11.425   2.830   9.794  0.2914  0.3107  1.0152
  434MOL0     C58474  11.505   2.855   9.686  0.3118  0.0081  0.3933
  434MOL0     C58475  11.596   2.770   9.606  0.0766  0.3040  0.2130
  434MOL0     C58476  11.745   2.790   9.648  0.5226  0.0764  0.0959
  434MOL0     C58477  11.836   2.717   9.546  0.5475  0.7229 -0.7599
  434MOL0     C58478  11.971   2.684   9.629  0.6070 -0.4355 -0.0291
  434MOL0     O58479  12.053   2.797   9.628 -0.5398  0.4881 -0.0407
  434MOL0     C58480  12.183   2.778   9.649 -0.4658  0.5318 -0.6370
  434MOL0     C58481  12.242   2.662   9.702 -0.0835  0.0743 -0.6130
  434MOL0     C58482  12.384   2.657   9.720  0.9215  0.9802  0.3501
  434MOL0     C58483  12.462   2.772   9.698 -0.2942  0.6610 -0.5373
  434MOL0     C58484  12.611   2.754   9.691  0.3212 -0.2556  0.7539
  434MOL0     O58485  12.667   2.657   9.764 -0.4226 -0.2851 -0.7292
  434MOL0     C58486  12.798   2.641   9.766 -0.7882  0.0191  0.3592
  434MOL0     C58487  12.893   2.742   9.747  0.0549 -0.0092 -0.0765
  434MOL0     C58488  13.033   2.721   9.763 -0.7558  0.9271 -0.5141
  434MOL0     C58489  13.078   2.597   9.804  0.2490  0.0762  0.3898
  434MOL0     O58490  13.215   2.579   9.818  0.0445 -0.7010  0.2135
  434MOL0     C58491  13.263   2.445   9.786 -0.1931  0.0429 -0.9098
  434MOL0     C58492  13.416   2.455   9.772  0.0526  0.0634 -0.3303
  434MOL0     C58493  13.491   2.312   9.767 -0.2881  0.3889 -0.2093
  434MOL0     C58494  13.499   2.254   9.622 -0.8948  0.5996  0.0751
  434MOL0     C58495  13.609   2.145   9.614  0.1417  0.1660 -0.1291
  434MOL0     C58496  13.743   2.192   9.635 -0.5984  0.0026  0.4054
  434MOL0     C58497  13.848   2.085   9.581  0.1446 -0.0325  0.7208
  434MOL0     C58498  13.990   2.129   9.537 -1.0806  0.1400 -0.2605
  434MOL0    Cl58499  14.075   2.178   9.686 -0.5158 -0.2439  0.4929
  434MOL0     C58500  12.986   2.503   9.847 -0.0628  0.0003  0.5155
  434MOL0     C58501  12.849   2.520   9.807  0.3676 -0.7355 -0.0888
  434MOL0     O58502  12.664   2.821   9.602 -0.1687  0.1056  0.0330
  434MOL0     C58503  12.400   2.884   9.656 -0.5660 -0.8219  1.1237
  434MOL0     C58504  12.268   2.881   9.628 -0.3250 -0.4431 -0.1649
  434MOL0     N58505  11.507   2.993   9.676 -0.1754  0.5614 -0.0324
  434MOL0     N58506  11.428   3.045   9.756  0.4668 -0.5405  0.1760
  434MOL0     C58507  10.447   3.466  10.237 -0.1536 -0.7487 -0.1603
  434MOL0     C58508  10.309   3.479  10.238  0.2913  0.7394 -0.4232
  434MOL0     C58509   9.862   3.371  10.195 -0.0799  0.5983  0.8323
  434MOL0     C58510   9.772   3.351  10.087  0.1500  0.4416  0.6076
  434MOL0     C58511   9.638   3.401  10.090 -0.1758  0.1555  0.8990
  434MOL0     C58512   9.585   3.452  10.205 -0.7053 -0.4883  0.3362
  434MOL0     O58513   9.457   3.495  10.201  0.2114 -0.3929  0.5949
  434MOL0     C58514   9.397   3.565  10.316 -0.4521 -0.8824  0.4576
  434MOL0     C58515   9.362   3.460  10.430  0.5470  0.4509 -1.0800
  434MOL0     C58516   9.230   3.379  10.407  0.3204 -0.1747  0.6341
  434MOL0     C58517   9.096   3.457  10.410  0.5869  0.2877  0.0671
  434MOL0     C58518   8.989   3.360  10.381 -0.8107 -0.9826  0.0598
  434MOL0     C58519   8.906   3.280  10.351 -0.4083  0.2969  0.5193
  434MOL0     C58520   9.672   3.462  10.318  0.0960  0.5084 -0.2223
  434MOL0     C58521   9.802   3.416  10.317 -0.0568 -0.1626  0.0602
  434MOL0     C58522   9.881   3.419  10.441 -0.1569  0.3536 -0.2198
  434MOL0     H58523  10.233   3.141  10.224  1.1016  0.0528  1.0747
  434MOL0     H58524  10.470   3.126  10.213  1.0340  0.4961 -3.8146
  434MOL0     H58525  10.732   3.487  10.156 -0.0126  3.6904  2.2803
  434MOL0     H58526  10.696   3.502  10.329 -1.0878 -1.6805  0.4917
  434MOL0     H58527  10.869   3.313  10.376  1.5488 -0.0024 -0.4170
  434MOL0     H58528  10.929   3.470  10.330 -1.0713  0.4254  1.6214
  434MOL0     H58529  11.064   3.341  10.204 -1.0596  1.9012  2.3344
  434MOL0     H58530  10.950   3.366  10.072  1.5404  0.6081 -0.9928
  434MOL0     H58531  10.939   3.137  10.268 -1.1311  0.6923 -0.4212
  434MOL0     H58532  10.858   3.149  10.112 -0.1381  2.3761 -2.7339
  434MOL0     H58533  11.083   3.168   9.994  1.6580  1.0473  0.7918
  434MOL0     H58534  11.169   3.146  10.147 -1.6688  2.9048  2.0913
  434MOL0     H58535  11.120   2.932  10.172 -0.7669  0.0713  1.2691
  434MOL0     H58536  10.974   2.934  10.082 -0.6254  0.9024  0.1993
  434MOL0     H58537  11.095   2.986   9.873  1.5410  2.4193  1.3643
  434MOL0     H58538  11.141   2.832   9.940 -1.4275  0.0765 -0.8646
  434MOL0     H58539  11.312   3.087   9.965 -2.1385  0.8396 -0.4061
  434MOL0     H58540  11.349   2.928  10.035  0.6963  1.3360 -0.6386
  434MOL0     H58541  11.415   2.732   9.840  1.2159 -0.3079 -0.0532
  434MOL0     H58542  11.561   2.668   9.620 -1.7711  1.1640  2.4604
  434MOL0     H58543  11.597   2.798   9.500  1.3251  0.4562  0.2475
  434MOL0     H58544  11.776   2.894   9.664  3.9888 -0.6959 -0.7676
  434MOL0     H58545  11.762   2.739   9.743 -1.5529 -0.5426  0.1874
  434MOL0     H58546  11.867   2.776   9.459  0.8381 -0.1962 -1.2981
  434MOL0     H58547  11.790   2.627   9.506  0.0845  0.6288 -0.0121
  434MOL0     H58548  12.022   2.615   9.561  0.0625  1.2919 -2.3243
  434MOL0     H58549  11.973   2.640   9.729  0.8147  0.6845  0.4790
  434MOL0     H58550  12.187   2.569   9.719  3.8932 -2.6443 -1.2626
  434MOL0     H58551  12.436   2.566   9.748 -1.8821 -1.0776 -0.6744
  434MOL0     H58552  12.872   2.846   9.725  1.2725  0.4350  0.7476
  434MOL0     H58553  13.114   2.787   9.734  0.2794 -0.4578 -0.8814
  434MOL0     H58554  13.237   2.381   9.871  0.8660  1.7700  0.7887
  434MOL0     H58555  13.223   2.412   9.690  3.2763 -1.3144 -2.0546
  434MOL0     H58556  13.442   2.526   9.693  0.1149 -1.9442 -2.1830
  434MOL0     H58557  13.437   2.500   9.870 -3.0728 -0.9654  0.9532
  434MOL0     H58558  13.592   2.341   9.796  0.0045  0.5899 -1.3766
  434MOL0     H58559  13.445   2.241   9.836 -0.1993  0.1184 -0.4318
  434MOL0     H58560  13.535   2.337   9.560  3.5938 -1.6017 -0.7289
  434MOL0     H58561  13.402   2.218   9.588 -0.6337 -0.5953  0.5584
  434MOL0     H58562  13.600   2.109   9.511 -1.3241  2.2516 -0.8223
  434MOL0     H58563  13.584   2.057   9.673 -1.5674  0.7522  0.0847
  434MOL0     H58564  13.763   2.285   9.581  2.9573 -1.0189 -0.3362
  434MOL0     H58565  13.766   2.223   9.737  2.1120 -0.0021 -0.1265
  434MOL0     H58566  13.803   2.035   9.494  0.5846 -3.7587  2.4527
  434MOL0     H58567  13.855   2.009   9.659 -0.1763 -1.3562 -0.4801
  434MOL0     H58568  14.050   2.050   9.492  0.4073  1.7142 -1.1649
  434MOL0     H58569  13.985   2.213   9.468  0.4727  0.3758 -0.1121
  434MOL0     H58570  13.021   2.406   9.880  3.1300  0.4136 -1.2727
  434MOL0     H58571  12.780   2.437   9.812  1.9765 -2.0757  1.3243
  434MOL0     H58572  12.459   2.973   9.637  1.3739 -2.1598  0.5400
  434MOL0     H58573  12.217   2.972   9.600 -1.7171 -0.3549  2.3653
  434MOL0     H58574  10.506   3.555  10.256  3.2331 -2.8417 -0.0669
  434MOL0     H58575  10.264   3.576  10.255 -1.9202 -0.6298  2.5033
  434MOL0     H58576   9.802   3.297   9.998 -1.0969  2.3601 -1.0718
  434MOL0     H58577   9.565   3.384  10.011 -2.2107 -3.7514  3.3127
  434MOL0     H58578   9.310   3.624  10.284 -1.2947 -0.1529  3.7059
  434MOL0     H58579   9.463   3.640  10.358 -0.7723 -0.3980  0.1135
  434MOL0     H58580   9.360   3.513  10.526  0.6926  0.4707 -1.0872
  434MOL0     H58581   9.438   3.382  10.439 -1.2270 -1.2072  0.1783
  434MOL0     H58582   9.218   3.305  10.486 -0.5534 -0.5195  0.2016
  434MOL0     H58583   9.248   3.325  10.314 -0.5752 -1.3308  1.1071
  434MOL0     H58584   9.082   3.506  10.507 -0.1510  0.2740 -0.0300
  434MOL0     H58585   9.081   3.528  10.328 -0.9430 -0.6777 -0.5341
  434MOL0     H58586   8.838   3.207  10.311 -0.5905  1.0719 -0.6388
  434MOL0     H58587   9.630   3.526  10.395 -0.3830  0.6263 -0.5766
  434MOL0     H58588   9.819   3.442  10.529 -1.8248  0.2098 -1.3094
  434MOL0     H58589   9.938   3.326  10.454  2.3299  1.8610  0.4119
  434MOL0     H58590   9.952   3.503  10.436  2.2431 -1.2954  2.7257
  435MOL0     O58591  11.272   8.186   9.295 -0.3979 -0.6161 -0.2252
  435MOL0     C58592  11.233   8.305   9.306  0.4151 -0.2457 -0.5255
  435MOL0     O58593  11.313   8.409   9.346 -0.4391 -0.3244 -0.4326
  435MOL0     C58594  11.447   8.385   9.328  0.5433 -0.1411  0.2760
  435MOL0     C58595  11.526   8.316   9.428  0.3971 -0.6446  0.6793
  435MOL0     C58596  11.660   8.298   9.426 -0.3673 -0.1366 -0.4627
  435MOL0     C58597  11.721   8.362   9.313 -0.6976  0.2940  0.6256
  435MOL0     O58598  11.860   8.351   9.283  0.1596 -0.0860 -0.4599
  435MOL0     C58599  11.951   8.366   9.391  0.1851  0.2556  0.2973
  435MOL0     C58600  12.065   8.466   9.356  0.0910  0.3565  0.3872
  435MOL0     C58601  12.148   8.412   9.236 -0.2054 -0.4234 -0.5639
  435MOL0     C58602  12.267   8.502   9.203 -0.0449 -0.6696  0.5377
  435MOL0     C58603  12.364   8.425   9.114 -0.0244 -0.8364  0.1236
  435MOL0     C58604  12.455   8.317   9.172 -0.2900  0.8278 -0.4876
  435MOL0     C58605  12.585   8.285   9.098  0.4121  0.0432 -0.8720
  435MOL0     C58606  12.706   8.268   9.185  0.3143 -0.1208 -0.0301
  435MOL0     N58607  12.830   8.268   9.107  0.0039 -0.2842  0.5252
  435MOL0     C58608  12.960   8.214   9.137  0.3880 -0.1115 -0.4083
  435MOL0     C58609  13.035   8.222   9.023  0.3593 -0.0809 -0.1365
  435MOL0     C58610  13.174   8.174   9.020  0.2905  0.5717 -1.2024
  435MOL0     C58611  13.265   8.241   9.113  0.1641 -0.3984  0.3206
  435MOL0     C58612  13.405   8.190   9.093  0.0639  0.3865 -0.2024
  435MOL0     C58613  13.493   8.239   9.200  0.1095  0.9960  0.4100
  435MOL0     O58614  13.510   8.382   9.178  0.4596  0.3166  0.1957
  435MOL0     C58615  13.640   8.423   9.160  0.2712 -0.5380 -0.6256
  435MOL0     C58616  13.691   8.420   9.036  0.1214  0.0631  0.9953
  435MOL0     C58617  13.822   8.459   9.003  0.4711 -0.7627 -0.1451
  435MOL0     C58618  13.896   8.516   9.105  1.1313  0.6929 -0.1599
  435MOL0     C58619  14.042   8.560   9.095  0.2474 -0.3998 -0.7014
  435MOL0     O58620  14.108   8.514   8.987 -0.1836  0.9113  0.5148
  435MOL0     C58621  14.244   8.532   8.982  0.1224 -0.2702 -0.0692
  435MOL0     C58622  14.300   8.658   8.972 -0.2215  0.1010  0.4969
  435MOL0     C58623  14.440   8.660   8.960 -0.0178  0.7178  0.3119
  435MOL0     C58624  14.510   8.534   8.961  0.0575  0.4691 -0.8155
  435MOL0     O58625  14.644   8.528   8.955  0.9348 -0.3478 -0.0954
  435MOL0     C58626  14.697   8.611   8.852 -0.0428 -0.7780 -0.2666
  435MOL0     C58627  14.846   8.592   8.876  0.1090  0.4128  0.7010
  435MOL0     C58628  14.937   8.645   8.756  0.2830 -0.1994 -0.1993
  435MOL0     C58629  15.074   8.677   8.816 -0.3852 -0.2822  0.2832
  435MOL0     C58630  15.187   8.719   8.720  0.5693  0.3486 -0.0485
  435MOL0     C58631  15.292   8.795   8.792 -0.0947 -0.0202 -0.4026
  435MOL0     C58632  15.376   8.860   8.676 -0.2633 -0.1303 -0.2636
  435MOL0     C58633  15.488   8.945   8.733 -0.3405 -0.0886 -0.6561
  435MOL0    Cl58634  15.599   9.018   8.602 -0.4094 -0.2869  0.4515
  435MOL0     C58635  14.451   8.409   8.969  0.7887 -0.1084 -1.1426
  435MOL0     C58636  14.316   8.413   8.971 -0.2752 -0.1039  0.6091
  435MOL0     O58637  14.098   8.618   9.192  0.6697 -0.5086 -0.0348
  435MOL0     C58638  13.849   8.512   9.238  0.3288 -1.0547 -0.5216
  435MOL0     C58639  13.722   8.463   9.264  0.2467 -0.0815  0.6420
  435MOL0     N58640  12.961   8.285   8.922  0.0537  0.4407 -0.1395
  435MOL0     N58641  12.845   8.305   8.973  0.4337  0.0766 -0.3505
  435MOL0     C58642  11.642   8.422   9.208 -0.0221  0.0205  0.2197
  435MOL0     C58643  11.502   8.438   9.221 -1.1494 -0.5715  0.4616
  435MOL0     C58644  11.093   8.339   9.270 -0.2563 -0.0443 -0.4958
  435MOL0     C58645  11.005   8.370   9.376 -0.0676  0.3296 -0.1832
  435MOL0     C58646  10.876   8.408   9.351  0.6592  0.3823  0.0303
  435MOL0     C58647  10.829   8.426   9.220  0.2315  0.2450  1.2291
  435MOL0     O58648  10.697   8.469   9.192  0.5284  0.0468 -0.2549
  435MOL0     C58649  10.637   8.433   9.066  0.2932  0.3248 -0.1462
  435MOL0     C58650  10.492   8.472   9.071  0.5395  0.1714 -0.3756
  435MOL0     C58651  10.430   8.419   9.206 -0.0959  0.2473  0.7350
  435MOL0     C58652  10.276   8.441   9.213  0.0542  0.2767 -0.1831
  435MOL0     C58653  10.232   8.442   9.346  0.1303  0.0499 -1.1860
  435MOL0     C58654  10.182   8.466   9.457  1.2751  0.6192  0.0974
  435MOL0     C58655  10.912   8.389   9.112 -0.0194 -0.0505 -0.0094
  435MOL0     C58656  11.052   8.347   9.136  0.4680  0.0847 -0.5579
  435MOL0     C58657  11.145   8.325   9.023  0.6685 -0.9998 -0.2797
  435MOL0     H58658  11.461   8.289   9.510 -2.1003  0.8079 -0.7157
  435MOL0     H58659  11.716   8.238   9.498  1.4559  0.2887 -1.4609
  435MOL0     H58660  11.899   8.397   9.482  3.2427  1.6710  1.6976
  435MOL0     H58661  11.999   8.272   9.422 -0.0138 -0.0042 -0.1671
  435MOL0     H58662  12.128   8.486   9.444 -2.8327  2.8337  2.1006
  435MOL0     H58663  12.018   8.559   9.324 -2.3060  0.3948  3.5141
  435MOL0     H58664  12.090   8.422   9.144  0.2851 -0.0848 -0.8389
  435MOL0     H58665  12.178   8.308   9.252 -0.9241 -0.6750 -0.8509
  435MOL0     H58666  12.229   8.592   9.153 -1.4318 -1.3560  0.2920
  435MOL0     H58667  12.318   8.526   9.296  1.0163 -2.8242  0.5695
  435MOL0     H58668  12.311   8.379   9.030  2.0995 -3.3645  0.0200
  435MOL0     H58669  12.431   8.503   9.077 -2.8261  1.9384  0.4846
  435MOL0     H58670  12.476   8.342   9.276 -0.5572  0.9173 -0.4534
  435MOL0     H58671  12.393   8.227   9.182 -1.4083  1.5568 -0.6980
  435MOL0     H58672  12.607   8.370   9.033  1.8866  2.1722  2.1786
  435MOL0     H58673  12.561   8.190   9.050  0.7437 -1.3581  1.6155
  435MOL0     H58674  12.704   8.361   9.243 -2.0442  1.8104 -2.9188
  435MOL0     H58675  12.687   8.182   9.250 -3.3252  1.7710  1.7583
  435MOL0     H58676  12.992   8.165   9.229  0.0697  1.4916  0.6085
  435MOL0     H58677  13.174   8.065   9.033  2.4879  0.8874  3.7128
  435MOL0     H58678  13.221   8.196   8.924  1.2411  0.2835 -0.8189
  435MOL0     H58679  13.263   8.350   9.108  0.2615 -0.4555 -1.2215
  435MOL0     H58680  13.241   8.212   9.216  0.8119 -1.8585  0.0795
  435MOL0     H58681  13.448   8.225   8.999  0.1365 -4.5573 -2.3314
  435MOL0     H58682  13.405   8.080   9.091  1.2449  0.3870 -1.4281
  435MOL0     H58683  13.596   8.203   9.202  0.1038  0.5762 -2.3867
  435MOL0     H58684  13.454   8.215   9.299  0.4040 -1.5512 -0.0115
  435MOL0     H58685  13.619   8.400   8.957  0.7391 -0.7419  0.6222
  435MOL0     H58686  13.855   8.458   8.900  0.6631 -1.6683 -0.0908
  435MOL0     H58687  14.229   8.740   8.973 -1.3183 -0.8285  1.4850
  435MOL0     H58688  14.501   8.750   8.963  0.2996  0.4899  0.8004
  435MOL0     H58689  14.679   8.577   8.749  0.5272  2.1258 -1.4229
  435MOL0     H58690  14.684   8.720   8.852  4.1070 -0.0987 -1.7007
  435MOL0     H58691  14.879   8.650   8.962  2.3074  0.2904 -0.0043
  435MOL0     H58692  14.878   8.489   8.891 -0.1608  0.2018 -0.1010
  435MOL0     H58693  14.942   8.572   8.675 -2.2145 -1.4696  0.6942
  435MOL0     H58694  14.898   8.737   8.709 -0.4228 -0.3238  0.1249
  435MOL0     H58695  15.106   8.592   8.878 -1.4787 -1.3718 -0.6042
  435MOL0     H58696  15.052   8.763   8.879 -0.1781 -0.1199  0.1345
  435MOL0     H58697  15.134   8.780   8.646 -2.9384 -1.2363  0.9454
  435MOL0     H58698  15.232   8.633   8.670  1.8873 -1.2106  3.4979
  435MOL0     H58699  15.237   8.866   8.854 -0.1551 -1.3013  1.0995
  435MOL0     H58700  15.351   8.734   8.862  0.0741  2.4555  1.7540
  435MOL0     H58701  15.312   8.929   8.620 -1.3387  0.2019  1.3205
  435MOL0     H58702  15.416   8.780   8.613  2.4431 -1.4150  2.7814
  435MOL0     H58703  15.447   9.031   8.787  3.1963  1.3054  0.0967
  435MOL0     H58704  15.533   8.891   8.818 -3.9557 -1.3328  0.6474
  435MOL0     H58705  14.522   8.328   8.983  0.6215  0.0765  1.1306
  435MOL0     H58706  14.258   8.322   8.970 -0.1652 -0.1752  0.7277
  435MOL0     H58707  13.915   8.517   9.324  0.6382  0.0583 -0.8216
  435MOL0     H58708  13.692   8.464   9.368 -3.2805 -0.7064 -0.2154
  435MOL0     H58709  11.687   8.465   9.120  0.8645  3.3902  2.1264
  435MOL0     H58710  11.458   8.510   9.152  1.8379  0.4713 -0.5224
  435MOL0     H58711  11.033   8.347   9.478  0.0584 -2.1599 -0.7233
  435MOL0     H58712  10.801   8.427   9.428  0.3469 -3.7461  0.9276
  435MOL0     H58713  10.648   8.326   9.044 -0.0658 -0.2738  2.2780
  435MOL0     H58714  10.675   8.497   8.986  0.0711  0.4924 -0.1193
  435MOL0     H58715  10.446   8.429   8.982 -2.5413 -1.1467  1.6745
  435MOL0     H58716  10.480   8.581   9.070  1.9724  0.3462 -0.6618
  435MOL0     H58717  10.462   8.477   9.293 -2.2863 -0.6533  2.2474
  435MOL0     H58718  10.466   8.318   9.229  3.3914  1.1105 -0.3959
  435MOL0     H58719  10.259   8.544   9.178  4.6659  1.5916  0.6622
  435MOL0     H58720  10.231   8.358   9.158  0.8557  0.5055 -1.2130
  435MOL0     H58721  10.148   8.497   9.553  3.7285 -0.4518  1.4034
  435MOL0     H58722  10.880   8.399   9.009 -2.0916  2.2417  0.7689
  435MOL0     H58723  11.235   8.385   9.038  0.5160 -1.0412  0.8180
  435MOL0     H58724  11.169   8.220   9.002 -0.2038 -1.0466 -1.1580
  435MOL0     H58725  11.088   8.349   8.932 -1.2529 -0.3274  1.0452
  436MOL0     O58726   1.633   9.631   6.912  0.1942 -0.5890 -0.1401
  436MOL0     C58727   1.620   9.677   6.799 -0.0250 -0.3131  0.7668
  436MOL0     O58728   1.726   9.701   6.713  0.3518 -0.8916  0.4416
  436MOL0     C58729   1.854   9.682   6.767 -0.4522 -0.4681 -0.0610
  436MOL0     C58730   1.922   9.786   6.818 -0.7714 -0.2511 -0.0028
  436MOL0     C58731   2.044   9.763   6.881  0.1190  0.6823 -0.6938
  436MOL0     C58732   2.108   9.642   6.884  0.4614 -0.6976  0.5616
  436MOL0     O58733   2.226   9.612   6.942 -0.2586 -0.3639  0.1011
  436MOL0     C58734   2.311   9.727   6.959  0.0314  0.5534  0.1329
  436MOL0     C58735   2.458   9.670   6.975 -0.4821  0.1752  0.3608
  436MOL0     C58736   2.506   9.569   6.873  0.1131 -0.0702 -0.2350
  436MOL0     C58737   2.653   9.546   6.889 -0.2350  0.2729  0.1001
  436MOL0     C58738   2.715   9.438   6.797  0.4009  0.0182  1.2678
  436MOL0     C58739   2.836   9.368   6.866 -0.1692  0.5558  0.9075
  436MOL0     C58740   2.966   9.465   6.871  0.1045 -0.0651  0.2568
  436MOL0     C58741   3.086   9.410   6.955  0.4621  0.3708  0.3887
  436MOL0     N58742   3.209   9.495   6.942  0.6824 -0.5261 -0.3545
  436MOL0     C58743   3.256   9.575   7.037  0.6423  0.5031  0.8136
  436MOL0     C58744   3.359   9.642   6.974  0.7971  1.2592 -0.3059
  436MOL0     C58745   3.457   9.738   7.032 -0.4176 -0.3588 -0.2646
  436MOL0     C58746   3.604   9.713   6.993 -0.5892 -0.7184  0.0433
  436MOL0     C58747   3.657   9.570   7.014  0.6662 -0.0009  0.0507
  436MOL0     C58748   3.804   9.558   6.978  0.6882  0.0190 -0.1625
  436MOL0     O58749   3.875   9.665   7.035  0.6645  0.0109  0.4313
  436MOL0     C58750   4.014   9.657   7.025  0.2976 -0.1546  0.5070
  436MOL0     C58751   4.086   9.558   6.968 -0.3403  0.4659 -1.0128
  436MOL0     C58752   4.225   9.563   6.960 -0.0408  0.5655  0.2782
  436MOL0     C58753   4.298   9.669   7.009  0.0719  0.7060  0.5302
  436MOL0     C58754   4.449   9.673   7.014 -0.6351  0.5125  0.3817
  436MOL0     O58755   4.512   9.576   6.942 -0.0678 -0.0225 -0.5981
  436MOL0     C58756   4.651   9.580   6.939 -0.7943  0.1986 -0.6270
  436MOL0     C58757   4.739   9.607   7.050 -0.3520 -0.5205 -0.5727
  436MOL0     C58758   4.878   9.600   7.034 -0.1014  0.9732 -0.8545
  436MOL0     C58759   4.932   9.567   6.915 -0.7755 -0.2310 -0.2482
  436MOL0     O58760   5.074   9.568   6.914  0.3089  0.6041  0.0538
  436MOL0     C58761   5.119   9.433   6.900 -0.8683 -0.4673 -0.2796
  436MOL0     C58762   5.104   9.345   7.019  0.0954 -0.2958  0.2596
  436MOL0     C58763   5.214   9.228   7.026  0.5342 -0.3383 -0.3100
  436MOL0     C58764   5.350   9.277   7.070 -0.4902 -0.1234  0.7650
  436MOL0     C58765   5.460   9.171   7.093  0.2657 -0.0723 -0.5175
  436MOL0     C58766   5.602   9.217   7.100  0.4269  0.0290 -0.2983
  436MOL0     C58767   5.636   9.319   6.994  0.4803  0.5600 -0.0180
  436MOL0     C58768   5.786   9.331   6.975 -0.1423  0.1250  1.0536
  436MOL0    Cl58769   5.861   9.478   6.902 -0.3003  0.2991  0.4712
  436MOL0     C58770   4.847   9.532   6.806  0.1602  0.2870  0.1145
  436MOL0     C58771   4.710   9.544   6.820  0.5808  1.0438 -0.1498
  436MOL0     O58772   4.502   9.763   7.077 -0.7063  0.5729 -0.3661
  436MOL0     C58773   4.222   9.786   7.051  0.7591 -0.2728  0.2776
  436MOL0     C58774   4.083   9.775   7.058  0.5803  0.6395  0.5875
  436MOL0     N58775   3.359   9.592   6.842  0.2730 -0.5932 -0.3922
  436MOL0     N58776   3.273   9.510   6.830  0.0339  0.3011 -0.1812
  436MOL0     C58777   2.037   9.532   6.828 -1.5466 -0.3397  0.0933
  436MOL0     C58778   1.912   9.552   6.779 -0.2115  0.0428 -0.2391
  436MOL0     C58779   1.483   9.706   6.763  0.9455 -0.6276  0.2021
  436MOL0     C58780   1.457   9.816   6.674 -0.2723 -0.2699 -0.0484
  436MOL0     C58781   1.331   9.850   6.639  0.0261  0.0551 -0.0620
  436MOL0     C58782   1.222   9.763   6.661 -0.8457 -0.0973 -0.0799
  436MOL0     O58783   1.095   9.790   6.621  0.0046  1.0405 -0.0732
  436MOL0     C58784   1.053   9.927   6.619 -0.6651 -0.1475  0.4269
  436MOL0     C58785   0.909   9.942   6.568 -0.5840 -0.7643  0.1237
  436MOL0     C58786   0.813   9.901   6.684 -0.2337 -0.1405  0.5314
  436MOL0     C58787   0.672   9.863   6.642 -1.0235  0.7934  0.6616
  436MOL0     C58788   0.614   9.959   6.548  0.2786  0.8229  1.0200
  436MOL0     C58789   0.578  10.031   6.452 -0.1088 -0.0226  0.8066
  436MOL0     C58790   1.250   9.645   6.729 -0.5198  0.8305  0.4438
  436MOL0     C58791   1.372   9.617   6.786 -0.3897 -0.0680 -0.1386
  436MOL0     C58792   1.393   9.494   6.867 -0.1084  0.4028  0.5542
  436MOL0     H58793   1.890   9.890   6.817 -0.4438 -0.1117 -2.4135
  436MOL0     H58794   2.087   9.850   6.930  0.0309  0.5619 -0.4032
  436MOL0     H58795   2.306   9.794   6.872 -0.1146  1.1445  0.5927
  436MOL0     H58796   2.276   9.778   7.049  0.8531  0.2617  0.6273
  436MOL0     H58797   2.474   9.612   7.066  0.7163  1.1367  0.7761
  436MOL0     H58798   2.532   9.750   6.976 -0.4823  0.3037  4.2007
  436MOL0     H58799   2.476   9.604   6.774 -0.9962  0.3697  0.2442
  436MOL0     H58800   2.457   9.474   6.895 -0.5648  0.2569 -0.3156
  436MOL0     H58801   2.719   9.633   6.897  1.9585 -1.2285 -0.5275
  436MOL0     H58802   2.663   9.489   6.982 -1.2356 -0.5939 -0.3061
  436MOL0     H58803   2.635   9.365   6.785  0.1529  0.5005 -0.1138
  436MOL0     H58804   2.742   9.473   6.697 -4.8423 -0.7725 -0.7318
  436MOL0     H58805   2.807   9.324   6.961 -2.9231  0.9139  0.3186
  436MOL0     H58806   2.864   9.287   6.798  0.5416 -0.5432  2.4519
  436MOL0     H58807   2.937   9.561   6.915  0.9970  0.2078  0.2521
  436MOL0     H58808   2.996   9.471   6.766 -0.2883 -2.6926 -0.0928
  436MOL0     H58809   3.068   9.380   7.058  0.3753 -0.4936  0.1267
  436MOL0     H58810   3.116   9.315   6.911 -0.5031  0.4180 -0.4034
  436MOL0     H58811   3.225   9.578   7.141  1.3489 -1.1995  1.1215
  436MOL0     H58812   3.426   9.836   6.994 -0.1720  0.9325  2.5884
  436MOL0     H58813   3.445   9.753   7.139 -4.1914 -0.3289 -0.5585
  436MOL0     H58814   3.607   9.723   6.884  2.5194 -1.8462 -0.0714
  436MOL0     H58815   3.666   9.788   7.043 -2.2518 -0.8781  2.5249
  436MOL0     H58816   3.611   9.497   6.947  0.9869 -1.5095  1.4325
  436MOL0     H58817   3.640   9.539   7.117  0.9993  0.2500  0.1840
  436MOL0     H58818   3.806   9.567   6.869 -0.7600 -1.2395 -0.3303
  436MOL0     H58819   3.842   9.456   6.985 -0.2058 -0.8442 -4.7090
  436MOL0     H58820   4.036   9.469   6.931  0.2380 -0.1760 -0.2878
  436MOL0     H58821   4.288   9.481   6.927 -3.1780 -2.0226  0.3344
  436MOL0     H58822   4.703   9.613   7.152  2.0378 -2.8136  0.5135
  436MOL0     H58823   4.940   9.601   7.124  0.4067 -1.6363 -1.1049
  436MOL0     H58824   5.068   9.374   6.822  0.5249 -1.4871 -0.4471
  436MOL0     H58825   5.227   9.440   6.885 -1.2844  2.4527 -3.6308
  436MOL0     H58826   5.106   9.409   7.108 -0.3229  0.5588 -0.3350
  436MOL0     H58827   5.009   9.294   7.034  0.9459 -1.9002  0.4916
  436MOL0     H58828   5.170   9.152   7.091 -1.7354  0.5279 -0.7320
  436MOL0     H58829   5.217   9.177   6.930  2.3890 -3.0903  1.0943
  436MOL0     H58830   5.349   9.328   7.167  1.4110  0.6013  0.4526
  436MOL0     H58831   5.374   9.355   6.997 -2.8393  0.3157  0.3668
  436MOL0     H58832   5.449   9.088   7.023  0.0700 -1.6006  1.2595
  436MOL0     H58833   5.443   9.128   7.192  1.6046  0.3863 -0.0722
  436MOL0     H58834   5.623   9.275   7.190  1.8215  0.3037 -0.7749
  436MOL0     H58835   5.676   9.136   7.089 -0.6504 -0.7538 -2.3077
  436MOL0     H58836   5.602   9.414   7.034  2.0580  0.7169  1.0409
  436MOL0     H58837   5.584   9.302   6.899  3.0543 -1.6357 -1.1841
  436MOL0     H58838   5.831   9.311   7.073  0.8921 -4.8058 -0.1562
  436MOL0     H58839   5.813   9.241   6.920  0.2946  0.3161  0.9455
  436MOL0     H58840   4.887   9.499   6.711 -3.2554 -2.2674 -0.6240
  436MOL0     H58841   4.654   9.516   6.732  1.5478 -0.2958 -0.3698
  436MOL0     H58842   4.274   9.878   7.079 -1.9171  1.5245 -0.2668
  436MOL0     H58843   4.032   9.861   7.099 -1.5953 -0.6396  0.7250
  436MOL0     H58844   2.089   9.437   6.829 -0.7196  0.0285 -2.1583
  436MOL0     H58845   1.855   9.463   6.756 -0.8018  0.1205  0.8272
  436MOL0     H58846   1.533   9.883   6.637  1.9322 -1.7103  1.6055
  436MOL0     H58847   1.326   9.939   6.577  2.4857  0.0568 -0.3435
  436MOL0     H58848   1.105   9.979   6.538 -1.0215 -0.3234  0.0784
  436MOL0     H58849   1.073   9.981   6.712  2.2644 -1.3301  0.5938
  436MOL0     H58850   0.899   9.880   6.479  0.9523 -1.7562  0.5935
  436MOL0     H58851   0.903  10.050   6.551  1.2193 -0.9369 -2.0538
  436MOL0     H58852   0.801   9.985   6.754  0.4840  0.3319  0.0953
  436MOL0     H58853   0.864   9.820   6.738  0.3857 -0.2639 -0.2321
  436MOL0     H58854   0.680   9.770   6.587 -0.7648  1.8077 -1.0853
  436MOL0     H58855   0.613   9.850   6.733 -0.2771  0.5028  1.1182
  436MOL0     H58856   0.573  10.092   6.364  1.3610 -1.8447 -0.6343
  436MOL0     H58857   1.165   9.579   6.746  0.1223 -0.7566 -1.9686
  436MOL0     H58858   1.311   9.426   6.846 -2.3527  3.1892 -0.3315
  436MOL0     H58859   1.483   9.443   6.831 -0.3739  1.2542 -1.4668
  436MOL0     H58860   1.398   9.516   6.974 -0.3411  0.9550  0.4587
  437MOL0     O58861   7.633   6.799   7.121  0.0407  0.4072  0.2675
  437MOL0     C58862   7.581   6.729   7.206  0.3150  0.2814 -0.6549
  437MOL0     O58863   7.634   6.697   7.337  1.0394  0.3666 -0.5201
  437MOL0     C58864   7.768   6.715   7.351  0.2104  0.3597  0.9147
  437MOL0     C58865   7.859   6.609   7.326 -0.1968  0.1834 -0.5718
  437MOL0     C58866   7.987   6.627   7.370  0.3922 -0.2604  0.5464
  437MOL0     C58867   8.042   6.752   7.396  0.6379 -1.2462  0.4007
  437MOL0     O58868   8.179   6.750   7.422  0.4258  0.2947 -0.8734
  437MOL0     C58869   8.232   6.876   7.470  0.0503  0.0815 -0.4963
  437MOL0     C58870   8.370   6.865   7.532  0.3763 -0.4697 -0.2146
  437MOL0     C58871   8.447   7.003   7.549 -0.7184  0.9321 -0.3201
  437MOL0     C58872   8.491   7.076   7.419 -0.1473 -0.6867  0.3307
  437MOL0     C58873   8.567   7.203   7.463  0.5268 -0.0190 -0.1377
  437MOL0     C58874   8.684   7.187   7.563  1.3040  0.5559 -0.0209
  437MOL0     C58875   8.781   7.302   7.562 -0.4396  0.8564 -0.2479
  437MOL0     C58876   8.733   7.448   7.586  0.1610  0.0968 -0.6231
  437MOL0     N58877   8.841   7.542   7.602 -0.3727 -0.5455  0.1220
  437MOL0     C58878   8.972   7.525   7.587  0.1294 -0.2167  0.2474
  437MOL0     C58879   9.027   7.637   7.636 -0.2546  0.9947  0.5511
  437MOL0     C58880   9.176   7.656   7.643 -0.6546 -0.7009 -0.5739
  437MOL0     C58881   9.243   7.613   7.782 -0.6266 -0.7614 -0.6642
  437MOL0     C58882   9.383   7.672   7.778 -0.1259 -0.1179  0.4901
  437MOL0     C58883   9.436   7.705   7.918 -0.0561  0.3439  0.1665
  437MOL0     O58884   9.464   7.580   7.982 -0.3496 -0.6714 -0.0332
  437MOL0     C58885   9.548   7.591   8.089  0.0520  0.2666  0.2578
  437MOL0     C58886   9.586   7.465   8.146 -0.2181 -0.1628 -0.5766
  437MOL0     C58887   9.681   7.466   8.249  0.0555  0.7423 -0.6613
  437MOL0     C58888   9.743   7.580   8.291 -0.3593  0.1819 -1.0532
  437MOL0     C58889   9.851   7.566   8.392  0.4127 -0.3073  0.5338
  437MOL0     O58890   9.908   7.686   8.424 -0.1473  0.4949  0.1184
  437MOL0     C58891  10.005   7.686   8.524  0.6187  0.2034  0.3022
  437MOL0     C58892   9.976   7.736   8.651 -1.0648  0.2548  0.9649
  437MOL0     C58893  10.083   7.744   8.746 -0.2215 -0.1254 -0.1898
  437MOL0     C58894  10.213   7.718   8.711 -0.2699 -0.0135 -0.1746
  437MOL0     O58895  10.324   7.738   8.796  0.0270 -0.6027  0.5141
  437MOL0     C58896  10.307   7.660   8.917 -0.2283 -0.1212  0.3657
  437MOL0     C58897  10.437   7.660   9.006 -0.6206  0.0908 -0.6999
  437MOL0     C58898  10.404   7.587   9.143 -0.0247 -0.7691 -0.7418
  437MOL0     C58899  10.327   7.456   9.146  0.5124  0.4727 -0.2013
  437MOL0     C58900  10.402   7.347   9.067  0.3445 -0.2375 -0.8159
  437MOL0     C58901  10.341   7.203   9.080  0.8466 -0.0973  0.0182
  437MOL0     C58902  10.350   7.152   9.224 -0.0085  0.6263  0.5565
  437MOL0     C58903  10.273   7.021   9.236  0.7620  0.1709 -0.3663
  437MOL0    Cl58904  10.097   7.061   9.256 -0.5197 -0.2198 -0.2939
  437MOL0     C58905  10.240   7.658   8.582 -0.1737  0.3362 -0.4711
  437MOL0     C58906  10.134   7.646   8.488 -1.0894 -0.9166  0.1072
  437MOL0     O58907   9.893   7.458   8.425  0.8209  0.2896 -0.1422
  437MOL0     C58908   9.700   7.703   8.240  0.2746 -0.5414  0.1437
  437MOL0     C58909   9.601   7.711   8.145 -0.4592 -0.2780 -0.2341
  437MOL0     N58910   8.928   7.725   7.678  0.6708 -0.1516  0.1847
  437MOL0     N58911   8.818   7.671   7.646 -0.7875  0.2362 -0.3146
  437MOL0     C58912   7.954   6.859   7.404  0.4879 -0.6969  0.6589
  437MOL0     C58913   7.819   6.840   7.399 -0.0017  0.3574  0.0301
  437MOL0     C58914   7.434   6.720   7.202 -0.6676 -1.3097 -0.5255
  437MOL0     C58915   7.368   6.693   7.319  0.3079 -0.7483  0.9402
  437MOL0     C58916   7.242   6.636   7.324  0.6042 -0.0636  0.3747
  437MOL0     C58917   7.168   6.616   7.211 -0.1605 -0.2440  0.2340
  437MOL0     O58918   7.039   6.557   7.199 -0.2345 -0.7651  0.0983
  437MOL0     C58919   6.954   6.560   7.308  0.0935  0.1205 -0.3371
  437MOL0     C58920   6.838   6.646   7.264  0.2173  0.2880  0.3448
  437MOL0     C58921   6.762   6.586   7.138  0.4256  0.0493 -0.3166
  437MOL0     C58922   6.677   6.466   7.171 -0.5071  0.0460 -0.0668
  437MOL0     C58923   6.635   6.393   7.045  0.0450 -0.5126  0.1079
  437MOL0     C58924   6.582   6.351   6.939 -0.5534  0.1016 -0.2571
  437MOL0     C58925   7.230   6.656   7.090  0.0720  0.4807 -0.8370
  437MOL0     C58926   7.362   6.694   7.087 -0.6129 -1.2706 -0.3779
  437MOL0     C58927   7.420   6.721   6.945 -0.4769  0.1310  0.3636
  437MOL0     H58928   7.823   6.513   7.290  0.6446 -0.9776  1.5029
  437MOL0     H58929   8.051   6.540   7.384 -0.6363 -1.0725  0.4008
  437MOL0     H58930   8.243   6.932   7.377 -1.1446 -1.1308 -1.4066
  437MOL0     H58931   8.164   6.919   7.544  0.3191 -0.4781  0.0917
  437MOL0     H58932   8.428   6.798   7.467  1.6642  0.8523 -0.4861
  437MOL0     H58933   8.352   6.818   7.629 -3.4815  0.8167 -0.1279
  437MOL0     H58934   8.540   6.982   7.602 -2.0154 -0.6570  1.4589
  437MOL0     H58935   8.386   7.058   7.620 -0.7334  1.1375 -0.4919
  437MOL0     H58936   8.552   7.015   7.353  1.1809  2.1567 -1.2803
  437MOL0     H58937   8.402   7.102   7.360  0.0887  2.2673  1.0819
  437MOL0     H58938   8.599   7.257   7.373  0.5401 -0.5424 -0.4461
  437MOL0     H58939   8.497   7.265   7.521  1.4766 -0.4046  1.4978
  437MOL0     H58940   8.635   7.176   7.660  0.8517 -2.1761 -0.4784
  437MOL0     H58941   8.734   7.092   7.541 -2.8134 -2.0644  0.8447
  437MOL0     H58942   8.838   7.295   7.469  0.0190 -0.7057  0.1165
  437MOL0     H58943   8.852   7.281   7.643  2.9089  2.1099 -2.6140
  437MOL0     H58944   8.675   7.474   7.497 -0.0418  2.1166  0.0442
  437MOL0     H58945   8.667   7.462   7.673  2.9899  2.9900  1.2849
  437MOL0     H58946   9.024   7.433   7.561 -2.5437 -1.1090 -2.5079
  437MOL0     H58947   9.231   7.600   7.567 -0.7482 -0.0080 -1.1594
  437MOL0     H58948   9.202   7.757   7.612 -1.1971 -1.0215 -2.1783
  437MOL0     H58949   9.181   7.640   7.868  1.2548  1.9889 -0.0031
  437MOL0     H58950   9.250   7.504   7.781 -1.3027 -0.8110 -0.5012
  437MOL0     H58951   9.370   7.776   7.745 -1.7975 -0.9119 -1.5114
  437MOL0     H58952   9.450   7.611   7.718 -1.0631  0.3279 -1.0558
  437MOL0     H58953   9.369   7.769   7.976 -0.8510  0.7385 -1.1417
  437MOL0     H58954   9.529   7.759   7.899 -0.3885  1.2324  1.0221
  437MOL0     H58955   9.540   7.372   8.114  0.9156 -2.1116  2.9358
  437MOL0     H58956   9.708   7.365   8.279  0.8861  1.4323  1.0721
  437MOL0     H58957   9.874   7.752   8.683 -0.5953 -2.0980  4.1892
  437MOL0     H58958  10.059   7.782   8.845 -1.3661 -2.3833  0.4833
  437MOL0     H58959  10.227   7.702   8.979 -0.3588 -0.6786  0.5778
  437MOL0     H58960  10.280   7.559   8.885 -0.7175  0.3867 -0.9074
  437MOL0     H58961  10.514   7.605   8.951 -0.8704  1.7800 -2.8647
  437MOL0     H58962  10.482   7.757   9.029  2.0756 -1.4632  1.1188
  437MOL0     H58963  10.494   7.561   9.198 -0.9839 -0.0382  1.2739
  437MOL0     H58964  10.353   7.663   9.203 -0.7601 -2.3922  0.7874
  437MOL0     H58965  10.229   7.472   9.099  0.5869  1.5204 -0.0215
  437MOL0     H58966  10.306   7.432   9.251  1.6722 -2.4418 -0.5488
  437MOL0     H58967  10.507   7.347   9.095 -0.2483  0.7328  1.7624
  437MOL0     H58968  10.398   7.385   8.964  0.2312 -2.2220 -1.5765
  437MOL0     H58969  10.237   7.216   9.047  0.5863  1.0196  1.1990
  437MOL0     H58970  10.385   7.127   9.015 -1.2501  0.0284 -1.6656
  437MOL0     H58971  10.300   7.230   9.282  1.0733  1.4044  0.4737
  437MOL0     H58972  10.452   7.133   9.256 -0.1124 -1.2621 -0.1097
  437MOL0     H58973  10.285   6.944   9.159  2.1785  0.0939 -0.0964
  437MOL0     H58974  10.303   6.962   9.323 -1.2534  1.2161  1.0984
  437MOL0     H58975  10.343   7.629   8.568 -0.6536 -3.0925  1.8615
  437MOL0     H58976  10.170   7.605   8.394  0.9236 -1.0993  0.9139
  437MOL0     H58977   9.744   7.798   8.268  1.9666 -0.3645 -2.7290
  437MOL0     H58978   9.569   7.813   8.127  1.7539  0.5756  0.3812
  437MOL0     H58979   7.982   6.963   7.415 -1.8110  0.1363 -0.6023
  437MOL0     H58980   7.750   6.912   7.443  0.7719  2.6697 -2.2962
  437MOL0     H58981   7.423   6.693   7.413  0.3662 -1.2662  0.9118
  437MOL0     H58982   7.202   6.598   7.418 -3.3000  0.2627 -0.9624
  437MOL0     H58983   6.999   6.597   7.401  0.5342 -0.0524 -0.4797
  437MOL0     H58984   6.922   6.457   7.329  2.2582 -0.7409 -0.9752
  437MOL0     H58985   6.869   6.749   7.242 -1.3667  0.0921 -3.6597
  437MOL0     H58986   6.772   6.646   7.351  0.6069 -2.7904  0.7423
  437MOL0     H58987   6.826   6.554   7.055  2.5499  0.3671  1.1176
  437MOL0     H58988   6.695   6.665   7.103  1.6915  1.1531 -0.3399
  437MOL0     H58989   6.730   6.405   7.245 -0.9946  0.3603  0.5556
  437MOL0     H58990   6.588   6.487   7.231  1.8168  0.2564  3.6506
  437MOL0     H58991   6.518   6.323   6.858 -0.5480 -0.9326  0.0748
  437MOL0     H58992   7.185   6.625   6.996  0.1111 -0.3290 -0.5976
  437MOL0     H58993   7.516   6.669   6.952  0.8568  2.6248  4.2461
  437MOL0     H58994   7.359   6.682   6.863  3.3382 -0.6139 -2.4059
  437MOL0     H58995   7.414   6.827   6.921 -0.2711  0.3982  1.4428
  438MOL0     O58996   4.629   2.924   3.504 -0.1267  0.2507 -0.0265
  438MOL0     C58997   4.612   2.830   3.429 -0.2490 -0.5361  0.7990
  438MOL0     O58998   4.720   2.750   3.391 -0.3677 -0.0926  0.3677
  438MOL0     C58999   4.846   2.796   3.381 -0.1363 -0.7162 -0.1176
  438MOL0     C59000   4.880   2.936   3.346 -0.0359 -0.1161 -0.5143
  438MOL0     C59001   5.007   2.982   3.337 -0.4691 -0.1266 -0.1301
  438MOL0     C59002   5.116   2.896   3.360  0.4489 -0.0164  0.7273
  438MOL0     O59003   5.242   2.933   3.346  0.0828  0.0548 -0.5678
  438MOL0     C59004   5.286   3.039   3.432  0.2891  0.6363  0.1220
  438MOL0     C59005   5.435   3.021   3.442 -0.1555 -0.6755 -0.1069
  438MOL0     C59006   5.493   3.125   3.537  0.2076  0.4170  0.2946
  438MOL0     C59007   5.641   3.131   3.527 -0.3404  0.8243  0.4692
  438MOL0     C59008   5.710   3.252   3.586 -0.4840 -0.4346 -0.0581
  438MOL0     C59009   5.863   3.253   3.558  0.9560  0.4260 -0.5060
  438MOL0     C59010   5.934   3.380   3.606  0.0594  0.1354 -0.1922
  438MOL0     C59011   6.082   3.359   3.610 -0.6136  0.4422 -0.1006
  438MOL0     N59012   6.144   3.478   3.658  0.3721 -0.0168 -0.4234
  438MOL0     C59013   6.259   3.541   3.605 -0.0876 -0.5165 -0.0796
  438MOL0     C59014   6.304   3.629   3.699 -0.1450 -0.1360 -0.4412
  438MOL0     C59015   6.414   3.731   3.711 -0.8404 -0.9603  0.4848
  438MOL0     C59016   6.363   3.880   3.740 -0.2352  0.5483  0.2008
  438MOL0     C59017   6.260   3.934   3.633 -0.0021 -0.6898 -0.3411
  438MOL0     C59018   6.311   3.929   3.495 -0.2378  0.4075  0.3457
  438MOL0     O59019   6.199   3.952   3.403 -0.5934  0.0906  0.0242
  438MOL0     C59020   6.138   3.846   3.341  0.3805 -0.1872 -0.5926
  438MOL0     C59021   6.214   3.755   3.267 -0.4139  1.0648  0.5042
  438MOL0     C59022   6.157   3.653   3.187  0.1999 -0.2872  0.3019
  438MOL0     C59023   6.013   3.638   3.204 -0.3218  0.1295  0.4492
  438MOL0     C59024   5.951   3.524   3.131 -0.8682  0.1660 -0.9911
  438MOL0     O59025   6.027   3.414   3.103  0.1558 -0.6528  0.1568
  438MOL0     C59026   5.974   3.311   3.029  0.5685 -0.4563 -0.1064
  438MOL0     C59027   5.837   3.271   3.026  0.1209 -0.1803  0.0887
  438MOL0     C59028   5.800   3.157   2.949  0.7917 -0.1892 -0.3901
  438MOL0     C59029   5.893   3.076   2.886  0.4975 -0.5488  0.5733
  438MOL0     O59030   5.849   2.962   2.816  0.5133 -0.6421  0.9570
  438MOL0     C59031   5.913   2.834   2.852  0.5233 -0.1776  0.6109
  438MOL0     C59032   5.810   2.732   2.890 -0.2141  0.0454  0.1209
  438MOL0     C59033   5.773   2.633   2.781 -0.0165 -0.3353  1.2412
  438MOL0     C59034   5.687   2.699   2.681  0.0748  0.6978  0.5952
  438MOL0     C59035   5.615   2.598   2.596  0.5305  0.5345 -0.5437
  438MOL0     C59036   5.544   2.671   2.487  0.1024 -0.8810  0.3009
  438MOL0     C59037   5.461   2.585   2.385 -0.0569 -0.3037 -0.2188
  438MOL0     C59038   5.540   2.487   2.295 -0.6181  0.5925  0.4138
  438MOL0    Cl59039   5.663   2.578   2.210 -0.3973  0.1816  0.2057
  438MOL0     C59040   6.025   3.111   2.893 -0.5120 -0.4399 -0.7431
  438MOL0     C59041   6.068   3.232   2.963  0.3467 -0.7242 -0.0203
  438MOL0     O59042   5.831   3.535   3.113 -1.0290  0.1939  0.4468
  438MOL0     C59043   5.944   3.721   3.294  0.3507  0.4199  0.1644
  438MOL0     C59044   6.005   3.826   3.358  0.6455 -1.0740 -0.0833
  438MOL0     N59045   6.219   3.618   3.814  0.4294  0.3064  0.1897
  438MOL0     N59046   6.126   3.532   3.775  0.1722  0.1203 -1.2260
  438MOL0     C59047   5.086   2.758   3.400 -0.5939  0.1217  0.1708
  438MOL0     C59048   4.951   2.714   3.415 -0.9526  0.4935 -0.4692
  438MOL0     C59049   4.474   2.771   3.426 -0.3838 -0.4827 -0.4255
  438MOL0     C59050   4.467   2.637   3.406  0.0525  1.2498 -0.2641
  438MOL0     C59051   4.340   2.572   3.396 -0.4273 -0.3095  0.7203
  438MOL0     C59052   4.225   2.648   3.413 -0.3106 -0.0068 -0.1955
  438MOL0     O59053   4.102   2.605   3.405 -0.0221 -0.3153 -0.0343
  438MOL0     C59054   4.072   2.468   3.372  0.0992  0.1058 -0.0709
  438MOL0     C59055   3.921   2.443   3.371 -0.7932  0.2177 -0.7966
  438MOL0     C59056   3.865   2.451   3.512 -1.1358  0.5443 -0.6051
  438MOL0     C59057   3.710   2.442   3.521  0.5738  0.6320  0.0197
  438MOL0     C59058   3.662   2.323   3.459 -0.2375 -0.7228  0.7134
  438MOL0     C59059   3.607   2.226   3.400 -0.1141 -0.6147 -0.2605
  438MOL0     C59060   4.235   2.786   3.433  0.2007 -0.2341  0.7240
  438MOL0     C59061   4.358   2.848   3.448  0.0293  0.7465  0.3059
  438MOL0     C59062   4.360   2.996   3.459  0.0486 -0.7112 -0.6419
  438MOL0     H59063   4.799   3.009   3.341 -0.4426 -0.0570  3.7360
  438MOL0     H59064   5.039   3.084   3.320 -0.2623  0.2639  2.3350
  438MOL0     H59065   5.257   3.137   3.392 -2.1581  1.1077  2.7056
  438MOL0     H59066   5.232   3.030   3.527 -0.7080  3.4340 -0.0920
  438MOL0     H59067   5.480   3.025   3.342  1.0265 -0.9079  0.4005
  438MOL0     H59068   5.451   2.921   3.482 -1.7827 -1.2982 -0.9297
  438MOL0     H59069   5.458   3.102   3.639  1.4819 -0.0794  0.6367
  438MOL0     H59070   5.453   3.222   3.504 -2.6066 -0.7661 -0.0894
  438MOL0     H59071   5.683   3.038   3.567 -1.9637 -0.5746 -0.9264
  438MOL0     H59072   5.677   3.123   3.425  0.9829  0.5434  0.9399
  438MOL0     H59073   5.658   3.333   3.533  1.0888  0.3301 -0.4845
  438MOL0     H59074   5.698   3.248   3.695  0.4711 -0.0278  0.0714
  438MOL0     H59075   5.886   3.162   3.616 -3.1076  0.1497  0.9743
  438MOL0     H59076   5.889   3.232   3.454 -1.0033  1.2039 -1.1852
  438MOL0     H59077   5.895   3.394   3.707  0.4104  0.1407 -0.0591
  438MOL0     H59078   5.904   3.465   3.543  0.2344 -0.0339 -0.5022
  438MOL0     H59079   6.107   3.287   3.688 -3.3558 -0.2791  0.2260
  438MOL0     H59080   6.125   3.330   3.513 -0.9877  2.1703 -0.8186
  438MOL0     H59081   6.300   3.521   3.506  1.3504 -0.3903  0.4712
  438MOL0     H59082   6.474   3.703   3.798 -0.6676  0.2339  0.7702
  438MOL0     H59083   6.484   3.729   3.627 -1.7644  0.4182 -0.3648
  438MOL0     H59084   6.315   3.887   3.838  1.0928 -0.1037  0.9187
  438MOL0     H59085   6.451   3.943   3.748 -0.1796  0.5734 -0.5728
  438MOL0     H59086   6.241   4.037   3.665  1.3181 -0.4492 -0.2706
  438MOL0     H59087   6.164   3.884   3.640 -0.1328 -0.4737 -0.5773
  438MOL0     H59088   6.365   3.835   3.481 -1.7970 -0.7875  1.8577
  438MOL0     H59089   6.381   4.010   3.472  0.5205 -0.6182 -1.0828
  438MOL0     H59090   6.321   3.770   3.258 -0.7659  2.7581 -1.6485
  438MOL0     H59091   6.208   3.587   3.118 -2.3269  1.4858 -3.6038
  438MOL0     H59092   5.754   3.316   3.079 -0.3462  1.0800 -1.6010
  438MOL0     H59093   5.696   3.126   2.958 -0.0103  2.8120  3.6783
  438MOL0     H59094   5.980   2.794   2.775  2.2378  0.0534  1.9246
  438MOL0     H59095   5.969   2.845   2.946  2.3922 -1.7016 -0.2581
  438MOL0     H59096   5.854   2.674   2.971 -2.2464  2.2779  3.0300
  438MOL0     H59097   5.723   2.789   2.924  0.4180  1.3974 -0.4299
  438MOL0     H59098   5.859   2.583   2.736 -1.1879 -1.1967 -0.1015
  438MOL0     H59099   5.708   2.551   2.812  0.8749 -2.1783 -1.4057
  438MOL0     H59100   5.747   2.770   2.623  1.2185  0.8219  1.8816
  438MOL0     H59101   5.611   2.753   2.739 -0.5845 -0.2600  0.6496
  438MOL0     H59102   5.552   2.534   2.659  1.0799 -0.1119 -0.6447
  438MOL0     H59103   5.683   2.528   2.547  0.4661 -0.0623  0.1880
  438MOL0     H59104   5.481   2.746   2.535  2.0714  1.9322 -1.2137
  438MOL0     H59105   5.612   2.730   2.426 -2.5255  0.2428 -1.7557
  438MOL0     H59106   5.406   2.658   2.325  2.1454  2.0088  0.3801
  438MOL0     H59107   5.388   2.529   2.444  2.2525 -1.4081  1.7713
  438MOL0     H59108   5.586   2.410   2.357 -2.0291 -0.2349  0.4816
  438MOL0     H59109   5.482   2.432   2.220  0.5030  0.1517 -0.1589
  438MOL0     H59110   6.105   3.049   2.854 -1.2966 -1.5339 -0.6604
  438MOL0     H59111   6.173   3.256   2.962  0.8901 -2.8451 -1.8269
  438MOL0     H59112   5.840   3.692   3.297  0.7300 -0.9160  1.7045
  438MOL0     H59113   5.953   3.896   3.422  1.1652  0.1898 -1.0192
  438MOL0     H59114   5.168   2.690   3.421 -0.4055  0.3637  0.2179
  438MOL0     H59115   4.935   2.613   3.451 -1.3524  0.2949 -1.1890
  438MOL0     H59116   4.558   2.581   3.386 -1.4377 -1.5967  0.4825
  438MOL0     H59117   4.348   2.464   3.384  2.1818 -0.3700  2.1252
  438MOL0     H59118   4.118   2.401   3.444  3.1275  2.0025 -0.0674
  438MOL0     H59119   4.112   2.431   3.277  0.2002  0.0392 -0.0026
  438MOL0     H59120   3.909   2.346   3.323 -1.2744  0.1672 -0.5723
  438MOL0     H59121   3.874   2.514   3.302  0.3234 -0.3737 -2.2205
  438MOL0     H59122   3.895   2.546   3.555 -0.2859  0.7012 -1.5110
  438MOL0     H59123   3.914   2.365   3.559 -0.9092  0.8326 -0.3089
  438MOL0     H59124   3.670   2.426   3.621 -0.7788  1.6286 -0.3189
  438MOL0     H59125   3.655   2.527   3.479 -4.0809 -1.2803  1.6131
  438MOL0     H59126   3.555   2.156   3.338 -0.7699 -0.2237 -0.1619
  438MOL0     H59127   4.148   2.848   3.449  0.3454 -0.0023  0.6267
  438MOL0     H59128   4.438   3.037   3.394  1.2625 -1.5704  0.2293
  438MOL0     H59129   4.268   3.047   3.428 -0.5051 -2.0725 -1.3352
  438MOL0     H59130   4.380   3.025   3.562  2.3175 -0.1697 -1.1785
  439MOL0     O59131   1.067  10.360   5.379 -0.3778 -0.1441  0.3875
  439MOL0     C59132   0.953  10.336   5.427 -1.5130  0.1140 -0.0182
  439MOL0     O59133   0.888  10.413   5.519  0.0817  0.4095 -0.9855
  439MOL0     C59134   0.959  10.517   5.565  0.2126 -0.2494 -0.1474
  439MOL0     C59135   1.036  10.506   5.684 -1.0929 -0.6983  0.2271
  439MOL0     C59136   1.080  10.623   5.739 -0.2812  0.2039 -0.5591
  439MOL0     C59137   1.064  10.749   5.687 -0.8407 -1.0994 -0.6809
  439MOL0     O59138   1.099  10.871   5.749  0.2469  0.6010  0.1473
  439MOL0     C59139   1.166  10.860   5.872  0.1971  0.6064 -0.1118
  439MOL0     C59140   1.185  10.999   5.935 -0.0192 -0.2860  0.1908
  439MOL0     C59141   1.250  11.103   5.844  0.0238  0.7657 -0.2260
  439MOL0     C59142   1.211  11.241   5.894  0.8032 -0.1766  0.7618
  439MOL0     C59143   1.293  11.354   5.817  0.0494  0.1963 -0.0502
  439MOL0     C59144   1.448  11.351   5.845  0.9866  0.9159  0.1467
  439MOL0     C59145   1.509  11.487   5.818 -0.4135 -0.3090  0.5045
  439MOL0     C59146   1.658  11.477   5.828 -0.6121 -0.6142  0.2761
  439MOL0     N59147   1.689  11.495   5.965  0.4172  0.7984 -0.1464
  439MOL0     C59148   1.716  11.390   6.047  0.0777 -0.0879 -0.0467
  439MOL0     C59149   1.761  11.448   6.156  0.1769  0.3451 -0.2469
  439MOL0     C59150   1.803  11.378   6.284  0.1670 -0.3796 -0.6433
  439MOL0     C59151   1.953  11.356   6.294  0.6781  0.4518 -0.0430
  439MOL0     C59152   2.037  11.475   6.347  0.0580 -0.5965 -0.3618
  439MOL0     C59153   2.188  11.465   6.328  0.2852  0.2812  0.6100
  439MOL0     O59154   2.244  11.573   6.398 -0.6240  0.5747  0.0429
  439MOL0     C59155   2.378  11.558   6.425 -0.2201  0.1547  0.0154
  439MOL0     C59156   2.426  11.600   6.549  0.2188  0.5544 -0.6750
  439MOL0     C59157   2.559  11.590   6.583 -0.4832 -0.6076 -0.0222
  439MOL0     C59158   2.652  11.520   6.496  0.0247 -0.7174  0.3899
  439MOL0     C59159   2.789  11.488   6.525  0.1148  0.8861 -0.4205
  439MOL0     O59160   2.827  11.507   6.655  0.2081  0.0595 -0.1448
  439MOL0     C59161   2.956  11.499   6.696  0.3838  0.0722  0.0603
  439MOL0     C59162   3.035  11.388   6.667  0.0590  0.0444 -0.2975
  439MOL0     C59163   3.168  11.385   6.720 -0.5008  0.0259 -0.1725
  439MOL0     C59164   3.227  11.495   6.774 -0.3667 -0.3405  0.2620
  439MOL0     O59165   3.352  11.480   6.823  0.3447 -0.2865 -0.5904
  439MOL0     C59166   3.434  11.594   6.856  0.1289 -0.6161  0.2230
  439MOL0     C59167   3.558  11.524   6.915 -0.3691  0.6642  0.8964
  439MOL0     C59168   3.675  11.512   6.817 -0.3022  0.5552 -0.5957
  439MOL0     C59169   3.791  11.426   6.880 -0.8561  0.0495 -0.0430
  439MOL0     C59170   3.900  11.397   6.769 -0.2237  0.6932  0.6919
  439MOL0     C59171   3.995  11.508   6.767  0.2749 -0.0602  0.3186
  439MOL0     C59172   4.125  11.467   6.686 -0.2528 -0.3227 -1.0555
  439MOL0     C59173   4.235  11.566   6.718 -0.0196  0.7377  0.1077
  439MOL0    Cl59174   4.388  11.507   6.660  0.3889 -0.0049 -0.0217
  439MOL0     C59175   3.145  11.611   6.797  0.6684 -0.1155 -0.7974
  439MOL0     C59176   3.010  11.610   6.765  0.7001 -0.0974 -0.0161
  439MOL0     O59177   2.861  11.454   6.436  0.1415  0.5136  0.3639
  439MOL0     C59178   2.604  11.477   6.369  0.3024 -1.1467  0.2199
  439MOL0     C59179   2.469  11.505   6.331 -0.2007  0.3888  0.0696
  439MOL0     N59180   1.749  11.587   6.142  0.2718 -0.3229 -0.4766
  439MOL0     N59181   1.714  11.614   6.017  0.0494 -0.2808 -0.5239
  439MOL0     C59182   0.988  10.765   5.570  0.0819  0.1412  0.4973
  439MOL0     C59183   0.936  10.648   5.513 -0.6804 -0.5167  0.7555
  439MOL0     C59184   0.873  10.228   5.363  0.3441  0.6228 -0.4398
  439MOL0     C59185   0.940  10.145   5.276  0.3885 -0.4564  0.3041
  439MOL0     C59186   0.862  10.053   5.202  0.5266  0.5765 -0.0042
  439MOL0     C59187   0.725  10.037   5.216  0.9311  0.1769 -0.0971
  439MOL0     O59188   0.673   9.944   5.133  0.6003 -0.3086 -1.1136
  439MOL0     C59189   0.534   9.915   5.123 -0.3099  0.1308  0.4924
  439MOL0     C59190   0.511   9.868   4.981  0.0910 -0.5146  0.4135
  439MOL0     C59191   0.371   9.835   4.943  0.3071 -1.1509 -0.0672
  439MOL0     C59192   0.368   9.781   4.799  0.0820  0.2655 -0.6541
  439MOL0     C59193   0.264   9.676   4.793 -0.7958 -0.6462 -0.3039
  439MOL0     C59194   0.190   9.584   4.772 -0.0683  0.4367  0.1120
  439MOL0     C59195   0.658  10.126   5.309 -0.7897  0.1860 -0.5549
  439MOL0     C59196   0.731  10.215   5.386  0.1190  0.8893 -0.9963
  439MOL0     C59197   0.646  10.289   5.491 -0.5843  0.1291  1.0668
  439MOL0     H59198   1.036  10.419   5.749  0.0793  0.6210  2.0874
  439MOL0     H59199   1.141  10.610   5.829 -0.8481  0.0240 -0.1951
  439MOL0     H59200   1.103  10.797   5.935 -1.6001  0.0405 -2.3306
  439MOL0     H59201   1.269  10.823   5.864 -0.1148 -0.0605 -1.3289
  439MOL0     H59202   1.253  10.991   6.020  1.2084  0.4092 -0.6920
  439MOL0     H59203   1.088  11.038   5.968  0.9012  2.0599  0.3213
  439MOL0     H59204   1.212  11.089   5.743  1.3542  0.8299 -0.7519
  439MOL0     H59205   1.358  11.095   5.831 -0.0564  0.5162 -0.7203
  439MOL0     H59206   1.107  11.270   5.873  0.6609  0.1680  1.8532
  439MOL0     H59207   1.231  11.245   6.002 -0.6426 -2.8703  1.2084
  439MOL0     H59208   1.272  11.341   5.711 -1.8575  0.3431  0.2767
  439MOL0     H59209   1.254  11.450   5.852 -0.7931 -0.6867  1.5930
  439MOL0     H59210   1.471  11.322   5.948  1.0826  0.3006 -0.0463
  439MOL0     H59211   1.494  11.271   5.787  0.2395 -0.2609  1.1360
  439MOL0     H59212   1.456  11.547   5.893 -1.5365 -2.3508  1.4121
  439MOL0     H59213   1.482  11.521   5.718 -0.7616  0.0438  0.7149
  439MOL0     H59214   1.691  11.378   5.793 -1.5366 -1.3182  1.3189
  439MOL0     H59215   1.701  11.551   5.760 -3.3558  0.9657  0.1226
  439MOL0     H59216   1.682  11.290   6.022 -2.6222  1.3075 -2.5899
  439MOL0     H59217   1.762  11.442   6.363  1.1620  0.1398 -0.5277
  439MOL0     H59218   1.753  11.283   6.300  0.4622 -0.6963 -1.5377
  439MOL0     H59219   1.965  11.276   6.367  0.2690  0.5991  0.1859
  439MOL0     H59220   1.995  11.325   6.197  1.8504  1.4177  0.1246
  439MOL0     H59221   2.028  11.483   6.456 -0.0355  2.0428 -0.5067
  439MOL0     H59222   2.003  11.570   6.304  1.5701  0.0972 -0.0739
  439MOL0     H59223   2.217  11.470   6.223 -0.7793  1.8571  0.3684
  439MOL0     H59224   2.208  11.366   6.370 -0.2293  0.0056  0.2176
  439MOL0     H59225   2.358  11.640   6.624  0.1573  3.5463 -2.1590
  439MOL0     H59226   2.564  11.605   6.690 -1.4816  2.4211 -0.3019
  439MOL0     H59227   2.992  11.304   6.613 -2.2717 -0.1571  1.6645
  439MOL0     H59228   3.223  11.293   6.699  0.9692  1.2590 -1.9329
  439MOL0     H59229   3.463  11.645   6.763  3.0873 -0.2722  1.2534
  439MOL0     H59230   3.386  11.661   6.928  2.0403  0.8235  0.2222
  439MOL0     H59231   3.596  11.595   6.989  1.2259 -1.6290  2.4141
  439MOL0     H59232   3.530  11.429   6.962  1.0009 -0.4885 -0.5163
  439MOL0     H59233   3.640  11.454   6.731  0.9443 -1.9907  0.4969
  439MOL0     H59234   3.704  11.607   6.773 -0.3441  0.3896 -0.9860
  439MOL0     H59235   3.747  11.333   6.917 -0.1896 -0.1599  0.2400
  439MOL0     H59236   3.828  11.473   6.971 -1.2292 -1.6896  1.0559
  439MOL0     H59237   3.868  11.388   6.665 -0.7086 -2.1914  0.9848
  439MOL0     H59238   3.947  11.300   6.787 -0.0601  0.6261 -0.0452
  439MOL0     H59239   3.952  11.595   6.717  1.4456 -0.9786 -2.5010
  439MOL0     H59240   4.025  11.512   6.872  0.3969 -3.1802  0.5144
  439MOL0     H59241   4.093  11.488   6.584 -4.3508  2.6491  0.5832
  439MOL0     H59242   4.172  11.371   6.710 -1.1041 -0.4838  0.0461
  439MOL0     H59243   4.208  11.664   6.678  2.1611  1.3391 -0.0434
  439MOL0     H59244   4.246  11.578   6.827  1.1138 -2.7418  0.4897
  439MOL0     H59245   3.183  11.698   6.849  0.0324  0.0718 -0.6356
  439MOL0     H59246   2.955  11.701   6.787 -0.1755 -0.7347  0.5356
  439MOL0     H59247   2.661  11.427   6.291  0.5795  0.4833 -0.6779
  439MOL0     H59248   2.426  11.481   6.234 -1.2984 -3.0002  1.2547
  439MOL0     H59249   0.978  10.865   5.529  1.5004  0.8302  1.7180
  439MOL0     H59250   0.883  10.651   5.418  1.4528 -1.4892 -0.5461
  439MOL0     H59251   1.047  10.143   5.259  0.5507 -1.7773  1.3539
  439MOL0     H59252   0.914   9.980   5.140 -0.3776 -1.3231  1.3878
  439MOL0     H59253   0.482  10.010   5.137 -1.2303 -0.3926  0.6958
  439MOL0     H59254   0.506   9.838   5.196  0.2417  0.0455  0.6134
  439MOL0     H59255   0.559   9.770   4.969 -1.0669 -1.0580  0.1088
  439MOL0     H59256   0.557   9.936   4.909 -1.8612 -2.9725 -3.5553
  439MOL0     H59257   0.305   9.921   4.952  0.2409 -1.2177  0.0885
  439MOL0     H59258   0.331   9.763   5.016 -1.1376  0.1173  0.4410
  439MOL0     H59259   0.341   9.857   4.725  1.2665  0.7973 -0.5563
  439MOL0     H59260   0.468   9.753   4.766  0.7526  2.2783 -0.4396
  439MOL0     H59261   0.117   9.506   4.773  1.5219 -1.1234  1.6935
  439MOL0     H59262   0.549  10.121   5.313 -0.8299 -2.9749 -2.4151
  439MOL0     H59263   0.641  10.395   5.462  0.2729  0.1775  1.0531
  439MOL0     H59264   0.546  10.247   5.502 -0.0626 -1.0912  1.2926
  439MOL0     H59265   0.689  10.283   5.591 -1.9073  1.9566  1.7827
  440MOL0     O59266   4.636   8.400   0.667  0.0129  0.7366 -0.2168
  440MOL0     C59267   4.569   8.310   0.723 -0.8455 -0.0800  0.3206
  440MOL0     O59268   4.615   8.221   0.810 -0.4613  0.8244 -0.0317
  440MOL0     C59269   4.750   8.215   0.838  0.7731 -0.3101 -0.2671
  440MOL0     C59270   4.855   8.249   0.756  0.2135  0.8799  1.3003
  440MOL0     C59271   4.981   8.244   0.805 -1.0814  0.5315  0.3153
  440MOL0     C59272   5.011   8.199   0.936 -0.7165 -0.3751  0.2547
  440MOL0     O59273   5.139   8.190   0.994 -0.2228  0.7876 -0.0301
  440MOL0     C59274   5.261   8.193   0.906  0.0902 -0.1243 -0.8427
  440MOL0     C59275   5.379   8.226   1.006 -0.4142 -0.0674  0.0935
  440MOL0     C59276   5.515   8.217   0.939  0.1725  0.6631 -0.3197
  440MOL0     C59277   5.621   8.194   1.048 -0.1821  0.0599 -0.2049
  440MOL0     C59278   5.760   8.167   0.980  0.8128 -0.2372 -0.6617
  440MOL0     C59279   5.871   8.131   1.085 -0.4776  1.7728  1.0328
  440MOL0     C59280   6.005   8.103   1.009  0.0400 -0.1927 -0.8154
  440MOL0     C59281   6.103   8.210   1.042  0.2523 -0.6207 -0.7078
  440MOL0     N59282   6.232   8.189   0.972  1.1206  0.4211  1.0795
  440MOL0     C59283   6.277   8.066   0.933 -0.0482  0.6904 -0.2022
  440MOL0     C59284   6.403   8.082   0.887  0.3177 -1.0001  0.7581
  440MOL0     C59285   6.490   7.980   0.816 -0.3159  0.4245 -0.9411
  440MOL0     C59286   6.554   7.872   0.902 -0.3645  0.1665 -0.4405
  440MOL0     C59287   6.701   7.914   0.914  0.8381  0.1719  0.0547
  440MOL0     C59288   6.788   7.833   1.004  0.4815  1.1494  0.2320
  440MOL0     O59289   6.911   7.896   1.020  0.4275 -0.4284 -0.8657
  440MOL0     C59290   7.018   7.818   1.056 -0.2605  0.2756  1.1490
  440MOL0     C59291   7.016   7.678   1.093 -0.0923 -0.1292  0.5107
  440MOL0     C59292   7.135   7.611   1.124  0.2103 -0.2509 -0.6417
  440MOL0     C59293   7.254   7.683   1.123 -0.6368  0.2648  0.1690
  440MOL0     C59294   7.380   7.611   1.141 -0.7512 -0.1316  0.1191
  440MOL0     O59295   7.487   7.689   1.181 -0.3757  0.0105  0.0961
  440MOL0     C59296   7.612   7.640   1.213 -0.8655  0.2292 -0.7809
  440MOL0     C59297   7.627   7.531   1.302 -0.3369  0.3651 -0.0697
  440MOL0     C59298   7.756   7.479   1.324 -0.4677  0.1705 -0.3444
  440MOL0     C59299   7.862   7.547   1.284 -0.0749 -0.6266  0.1124
  440MOL0     O59300   7.985   7.507   1.327 -0.0144 -0.3391 -0.1862
  440MOL0     C59301   8.104   7.518   1.241  0.1612  0.2965  0.5762
  440MOL0     C59302   8.187   7.644   1.261  0.2776  1.0838  0.8586
  440MOL0     C59303   8.273   7.622   1.386  0.6794 -0.1363  0.6695
  440MOL0     C59304   8.416   7.670   1.369 -0.9173  0.7693 -0.3247
  440MOL0     C59305   8.503   7.684   1.495 -0.3689 -0.1945 -0.5110
  440MOL0     C59306   8.654   7.697   1.464 -0.0843 -0.1259 -0.3862
  440MOL0     C59307   8.744   7.690   1.588  0.4961 -0.1159 -0.1332
  440MOL0     C59308   8.892   7.734   1.579  0.5023 -0.5564  0.3236
  440MOL0    Cl59309   8.967   7.619   1.455  0.3515  0.4874 -0.3172
  440MOL0     C59310   7.849   7.652   1.190  0.4216  0.3329 -0.3063
  440MOL0     C59311   7.724   7.701   1.161  0.1939  0.6135 -0.1439
  440MOL0     O59312   7.379   7.492   1.147 -0.3554  0.5019  0.0142
  440MOL0     C59313   7.260   7.816   1.089  0.2470 -0.7877 -0.9701
  440MOL0     C59314   7.141   7.880   1.045 -0.0446  0.4263  0.5819
  440MOL0     N59315   6.435   8.214   0.883  0.2490 -0.7450 -0.5034
  440MOL0     N59316   6.335   8.275   0.951  0.3034 -0.6923  0.4371
  440MOL0     C59317   4.910   8.165   1.019 -0.2035 -0.1523 -0.4863
  440MOL0     C59318   4.776   8.176   0.967 -1.1480  0.8054 -0.3453
  440MOL0     C59319   4.431   8.305   0.693  0.0612 -0.0278 -0.0877
  440MOL0     C59320   4.343   8.231   0.785 -0.1295 -0.5895  0.4851
  440MOL0     C59321   4.204   8.237   0.767 -0.8760 -1.1058  0.3172
  440MOL0     C59322   4.149   8.313   0.659  0.2110 -0.5854 -0.5318
  440MOL0     O59323   4.011   8.316   0.662 -0.2629  0.7482  0.2036
  440MOL0     C59324   3.947   8.392   0.559  0.1383 -0.2035  0.9554
  440MOL0     C59325   3.801   8.361   0.547  0.5472 -0.2812 -0.1189
  440MOL0     C59326   3.712   8.404   0.663 -0.2342 -0.4253  0.6811
  440MOL0     C59327   3.616   8.522   0.635  0.6874  0.0716 -0.8354
  440MOL0     C59328   3.528   8.547   0.758 -0.2222  0.6500 -0.1538
  440MOL0     C59329   3.456   8.553   0.857  0.3763 -0.2953  0.0269
  440MOL0     C59330   4.227   8.370   0.560 -0.3997 -0.3410 -0.1168
  440MOL0     C59331   4.366   8.363   0.578  0.0046 -0.4376 -0.0440
  440MOL0     C59332   4.451   8.415   0.467  0.0429 -0.2585  0.2397
  440MOL0     H59333   4.840   8.276   0.652 -1.4910 -0.6366  1.0929
  440MOL0     H59334   5.061   8.287   0.745 -1.1637  1.2804  0.7283
  440MOL0     H59335   5.274   8.095   0.859 -0.5955 -0.5419 -0.1972
  440MOL0     H59336   5.248   8.272   0.831  1.6258  1.3003  0.3263
  440MOL0     H59337   5.376   8.146   1.081  1.4581  0.1726  0.4648
  440MOL0     H59338   5.354   8.321   1.054 -0.6574 -0.9805  1.8716
  440MOL0     H59339   5.533   8.311   0.886  1.9382  1.3723  1.4030
  440MOL0     H59340   5.517   8.131   0.873 -2.5760 -0.0198  0.3748
  440MOL0     H59341   5.629   8.283   1.112 -0.8033 -1.0691  1.5076
  440MOL0     H59342   5.592   8.121   1.124 -1.1655  1.8727  1.2523
  440MOL0     H59343   5.743   8.088   0.907  1.4285 -0.7133 -0.2978
  440MOL0     H59344   5.792   8.250   0.916  2.6956  1.3181  2.0834
  440MOL0     H59345   5.885   8.206   1.163 -1.6816  0.5242  2.5346
  440MOL0     H59346   5.843   8.040   1.138  2.6122  0.1970  0.2028
  440MOL0     H59347   5.980   8.104   0.902 -1.4355  0.5538 -0.4781
  440MOL0     H59348   6.051   8.008   1.038  1.4012  1.1094  1.5447
  440MOL0     H59349   6.064   8.307   1.010 -0.9456 -1.9114 -3.5502
  440MOL0     H59350   6.116   8.208   1.151  0.0755 -0.0142 -0.6723
  440MOL0     H59351   6.232   7.967   0.933  1.1297  0.0045  3.3088
  440MOL0     H59352   6.423   7.935   0.742  0.9578 -1.9234 -0.7656
  440MOL0     H59353   6.567   8.029   0.757  0.8362 -1.4002 -1.0370
  440MOL0     H59354   6.515   7.870   1.004 -1.9442  2.0302 -0.9583
  440MOL0     H59355   6.535   7.775   0.854 -0.0239 -0.2054  0.1537
  440MOL0     H59356   6.692   8.017   0.950 -4.0449 -0.5333  1.6082
  440MOL0     H59357   6.751   7.905   0.817  2.1756 -2.0543  0.8801
  440MOL0     H59358   6.808   7.738   0.953 -0.0190  0.5232  1.1458
  440MOL0     H59359   6.739   7.806   1.099 -1.2474 -1.1784 -1.2190
  440MOL0     H59360   6.920   7.628   1.096  0.6714 -1.6541  0.6077
  440MOL0     H59361   7.125   7.505   1.145  2.0456 -0.1706  0.9492
  440MOL0     H59362   7.540   7.479   1.340  0.0521 -1.5776 -1.6413
  440MOL0     H59363   7.767   7.382   1.371  0.8915  1.2180  1.6503
  440MOL0     H59364   8.166   7.432   1.266 -1.1035 -0.6323  0.6483
  440MOL0     H59365   8.071   7.502   1.138 -0.3376  0.0480  0.7694
  440MOL0     H59366   8.244   7.672   1.172  2.1763  1.3000  2.0689
  440MOL0     H59367   8.120   7.727   1.285  0.4611  1.5780 -0.2717
  440MOL0     H59368   8.224   7.690   1.455  2.0312 -1.0864  2.6514
  440MOL0     H59369   8.263   7.519   1.423  1.4562 -0.1736  0.7777
  440MOL0     H59370   8.408   7.771   1.329 -0.4223  0.5759 -0.9411
  440MOL0     H59371   8.471   7.614   1.292 -0.1479  4.2915 -2.5678
  440MOL0     H59372   8.479   7.609   1.570 -3.2788  1.4434  0.3501
  440MOL0     H59373   8.467   7.762   1.563  3.6661  0.2934  1.3961
  440MOL0     H59374   8.695   7.623   1.395  2.2778 -0.5942  1.3888
  440MOL0     H59375   8.675   7.797   1.424  2.5867 -0.1500  0.7401
  440MOL0     H59376   8.729   7.589   1.630 -0.4238  0.6317  1.4468
  440MOL0     H59377   8.706   7.757   1.665 -0.3726 -1.6254  0.8028
  440MOL0     H59378   8.895   7.832   1.531 -0.4345 -1.5376 -1.8863
  440MOL0     H59379   8.933   7.742   1.680 -2.9068  0.0576  1.7911
  440MOL0     H59380   7.936   7.707   1.155  2.0706 -1.6891  0.3534
  440MOL0     H59381   7.703   7.792   1.106 -0.2808  0.4850 -0.1788
  440MOL0     H59382   7.353   7.873   1.078 -1.0077  1.2354 -1.7878
  440MOL0     H59383   7.133   7.982   1.009 -0.1432  0.1603 -0.1837
  440MOL0     H59384   4.945   8.140   1.118  0.0290  0.7712 -0.3287
  440MOL0     H59385   4.696   8.145   1.034  0.5254 -1.7896  0.6111
  440MOL0     H59386   4.383   8.169   0.864  0.7929  0.8307  1.1576
  440MOL0     H59387   4.135   8.198   0.842 -2.4970  2.4449  0.8769
  440MOL0     H59388   3.980   8.370   0.457 -4.1201 -2.6746 -0.1219
  440MOL0     H59389   3.962   8.494   0.593 -0.2492 -0.5574  2.2246
  440MOL0     H59390   3.787   8.252   0.540 -1.1318 -0.0495 -0.8625
  440MOL0     H59391   3.776   8.414   0.455  0.4893 -0.1125 -0.0072
  440MOL0     H59392   3.775   8.436   0.747 -1.5686  1.5054  1.0151
  440MOL0     H59393   3.646   8.320   0.686  0.8158 -1.0325  1.5634
  440MOL0     H59394   3.654   8.618   0.597  1.5227 -0.3901 -1.1905
  440MOL0     H59395   3.552   8.481   0.556  1.9903  0.9393 -2.4149
  440MOL0     H59396   3.386   8.559   0.938 -1.4706  0.9197 -1.5698
  440MOL0     H59397   4.190   8.420   0.471 -1.6829 -0.0342  0.5528
  440MOL0     H59398   4.493   8.514   0.486 -1.5534  0.4236  0.3356
  440MOL0     H59399   4.525   8.339   0.438 -0.9289 -1.3097  0.4364
  440MOL0     H59400   4.381   8.417   0.383 -0.0590 -1.7295  0.2705
  441MOL0     O59401   7.505   0.175   9.716 -0.1869 -0.5266  0.0447
  441MOL0     C59402   7.486   0.084   9.792  0.1313  0.2472  0.8544
  441MOL0     O59403   7.577   0.002   9.836  0.1172  0.9322  0.3704
  441MOL0     C59404   7.715   0.025   9.823 -0.3850  0.0869 -0.1495
  441MOL0     C59405   7.780   0.134   9.882  0.5900  0.9643 -0.4456
  441MOL0     C59406   7.922   0.148   9.862  0.4791 -0.6343 -0.5451
  441MOL0     C59407   8.003   0.054   9.810 -0.0880  0.0723 -0.3115
  441MOL0     O59408   8.135   0.087   9.800 -0.3062 -0.7573  0.6411
  441MOL0     C59409   8.187   0.078   9.662  1.0125 -0.6947 -0.0270
  441MOL0     C59410   8.304   0.172   9.645  0.4821 -0.8175 -0.6065
  441MOL0     C59411   8.340   0.198   9.496 -0.2750 -0.1543  0.6297
  441MOL0     C59412   8.462   0.286   9.493 -0.5643  0.1367  0.1610
  441MOL0     C59413   8.518   0.295   9.359  0.0825  0.8074 -0.4241
  441MOL0     C59414   8.584   0.169   9.304  0.6171  0.5899 -0.1004
  441MOL0     C59415   8.659   0.188   9.175  0.6136  0.6387  0.0326
  441MOL0     C59416   8.703   0.052   9.112 -0.3833  0.6825  0.7057
  441MOL0     N59417   8.789   0.068   8.997  0.4568  0.0696 -0.4509
  441MOL0     C59418   8.750   0.075   8.867 -0.0381 -0.3738  0.4107
  441MOL0     C59419   8.873   0.061   8.804  1.1229  1.8937  0.0347
  441MOL0     C59420   8.899   0.056   8.655  0.2373  0.0407 -0.0414
  441MOL0     C59421   9.018   0.161   8.620 -0.1877  1.0099  0.7647
  441MOL0     C59422   9.056   0.150   8.471 -0.7478 -0.3214 -0.5619
  441MOL0     C59423   9.189   0.228   8.435 -0.1478 -0.0373 -0.1187
  441MOL0     O59424   9.294   0.143   8.482 -0.3203 -0.0576  0.3935
  441MOL0     C59425   9.417   0.199   8.509  1.3295  1.0683 -0.4259
  441MOL0     C59426   9.508   0.104   8.552  0.6313  0.0239 -0.7944
  441MOL0     C59427   9.637   0.145   8.589 -0.4050 -0.6301  0.2446
  441MOL0     C59428   9.685   0.273   8.548  0.7990 -0.0325  0.2519
  441MOL0     C59429   9.826   0.299   8.572 -0.8584  0.1587 -1.0290
  441MOL0     O59430   9.902   0.216   8.651 -0.1354 -0.6034 -0.4298
  441MOL0     C59431  10.033   0.251   8.692  0.3475 -0.3622 -0.1842
  441MOL0     C59432  10.072   0.377   8.723 -0.0763  0.5438 -0.0467
  441MOL0     C59433  10.204   0.401   8.765  0.1020 -0.4311 -0.3552
  441MOL0     C59434  10.292   0.293   8.774 -0.7350 -0.1355 -0.6816
  441MOL0     O59435  10.426   0.315   8.812 -0.0482 -0.5125  0.4825
  441MOL0     C59436  10.489   0.440   8.779 -0.0941 -0.3820  0.3581
  441MOL0     C59437  10.631   0.432   8.748 -0.0149  0.4570 -0.1515
  441MOL0     C59438  10.672   0.326   8.645  0.3330  0.3075  0.6791
  441MOL0     C59439  10.796   0.372   8.563  0.3318 -0.3990  0.2887
  441MOL0     C59440  10.917   0.370   8.653  0.0343 -0.8727 -0.2488
  441MOL0     C59441  11.050   0.382   8.567 -0.2242  0.2463 -0.0420
  441MOL0     C59442  11.168   0.440   8.632  0.0922  0.6310  0.1954
  441MOL0     C59443  11.283   0.477   8.536 -0.8445  0.5174  0.1241
  441MOL0    Cl59444  11.389   0.584   8.620  0.3581 -0.0896 -0.1925
  441MOL0     C59445  10.256   0.166   8.733  0.6217 -0.9822 -0.1204
  441MOL0     C59446  10.122   0.145   8.706 -0.0112  0.6615  0.5430
  441MOL0     O59447   9.874   0.391   8.511 -0.7875  0.0976  0.0907
  441MOL0     C59448   9.595   0.357   8.498  0.4541  0.5363  0.7433
  441MOL0     C59449   9.462   0.327   8.480 -0.5874 -0.0005  0.1142
  441MOL0     N59450   8.973   0.043   8.892  0.4603 -0.9827  0.3666
  441MOL0     N59451   8.921   0.057   9.007  0.6570  0.5858  0.0106
  441MOL0     C59452   7.938  -0.056   9.758 -0.6329 -0.7542 -0.4677
  441MOL0     C59453   7.801  -0.074   9.770 -0.0874  0.3899  0.1218
  441MOL0     C59454   7.338   0.048   9.811 -1.2257  0.2844  0.3003
  441MOL0     C59455   7.247   0.145   9.786  0.2262  0.2853 -1.0932
  441MOL0     C59456   7.113   0.116   9.808 -0.3413 -0.0321  0.4978
  441MOL0     C59457   7.066  -0.011   9.841  0.0540 -0.1435  1.1721
  441MOL0     O59458   6.925  -0.038   9.837 -0.5331  0.0379 -0.8156
  441MOL0     C59459   6.844   0.068   9.789  0.6904  0.1673  0.8446
  441MOL0     C59460   6.704   0.013   9.773 -0.0800  0.4212  0.3784
  441MOL0     C59461   6.624   0.123   9.706  0.3662 -0.5711 -0.0509
  441MOL0     C59462   6.482   0.084   9.658 -0.4628  0.6264 -0.4884
  441MOL0     C59463   6.384   0.065   9.762  0.1428  0.0324  0.3148
  441MOL0     C59464   6.309   0.052   9.861  0.2909  0.0372 -0.3713
  441MOL0     C59465   7.155  -0.118   9.848  0.2000 -1.3338  0.3657
  441MOL0     C59466   7.295  -0.079   9.837  0.9609 -0.2183 -0.1618
  441MOL0     C59467   7.391  -0.193   9.817 -0.6220  0.0608 -0.3044
  441MOL0     H59468   7.725   0.205   9.943 -1.0800 -1.0027  0.4357
  441MOL0     H59469   7.966   0.242   9.895 -2.8079  0.5088  0.9713
  441MOL0     H59470   8.209  -0.027   9.642 -0.6839 -1.1266  0.2661
  441MOL0     H59471   8.111   0.120   9.596  1.5838 -0.6344 -0.6613
  441MOL0     H59472   8.388   0.131   9.701  1.0768  2.4864  1.1982
  441MOL0     H59473   8.291   0.266   9.699  0.0022 -0.9524 -0.4795
  441MOL0     H59474   8.252   0.246   9.452 -0.2773  0.6609  1.4939
  441MOL0     H59475   8.363   0.103   9.445  1.8313  0.6797 -0.0725
  441MOL0     H59476   8.428   0.386   9.519 -0.0734  0.4490 -0.3792
  441MOL0     H59477   8.536   0.248   9.565 -2.2262  0.5499  2.1921
  441MOL0     H59478   8.434   0.320   9.294  1.2645  0.5480 -2.1073
  441MOL0     H59479   8.589   0.378   9.359  0.4878  0.5171  1.5233
  441MOL0     H59480   8.658   0.137   9.378  1.4754 -0.1451 -1.2377
  441MOL0     H59481   8.508   0.092   9.285  0.3967 -0.0846  2.9198
  441MOL0     H59482   8.741   0.259   9.191  2.2691 -1.0688 -0.4757
  441MOL0     H59483   8.582   0.234   9.112 -2.4934  0.0509  3.0505
  441MOL0     H59484   8.766   0.006   9.189  0.5427 -0.3200 -0.6010
  441MOL0     H59485   8.618  -0.011   9.083  0.2434  1.0066 -2.1344
  441MOL0     H59486   8.652   0.092   8.824 -0.1061 -1.2069  0.2095
  441MOL0     H59487   8.929  -0.044   8.621 -1.0854 -0.2939 -0.3024
  441MOL0     H59488   8.804   0.078   8.604 -0.2245  1.0113  1.1723
  441MOL0     H59489   8.985   0.261   8.650 -3.4905 -0.0039  0.8955
  441MOL0     H59490   9.098   0.129   8.686 -1.1862  0.6292  1.8237
  441MOL0     H59491   8.969   0.191   8.418 -0.1916  1.2553 -0.3328
  441MOL0     H59492   9.063   0.044   8.447 -1.5787 -0.4624 -0.2162
  441MOL0     H59493   9.192   0.325   8.485 -1.8313 -0.2206  0.3730
  441MOL0     H59494   9.200   0.227   8.326 -3.2140  0.2379 -0.5004
  441MOL0     H59495   9.479   0.002   8.577 -0.8002  1.0097  1.9431
  441MOL0     H59496   9.702   0.084   8.651 -1.3954  1.3182  3.3850
  441MOL0     H59497   9.998   0.456   8.731  0.0516  0.5333  1.6498
  441MOL0     H59498  10.228   0.505   8.786 -0.0365 -0.5682  0.5546
  441MOL0     H59499  10.431   0.484   8.697  0.7534  0.5944  0.2594
  441MOL0     H59500  10.482   0.507   8.865  3.0323 -1.3575  1.5183
  441MOL0     H59501  10.668   0.528   8.711  1.4817 -0.3893 -0.9291
  441MOL0     H59502  10.694   0.413   8.835 -0.3071 -1.0415 -0.2392
  441MOL0     H59503  10.702   0.225   8.676  1.1637  0.0082 -0.9956
  441MOL0     H59504  10.605   0.312   8.559  1.2423 -1.9589  0.2595
  441MOL0     H59505  10.780   0.465   8.508  0.2805 -1.1584 -1.0354
  441MOL0     H59506  10.804   0.294   8.486 -2.0648 -1.3915  0.9461
  441MOL0     H59507  10.912   0.278   8.712 -1.1091 -0.3283  0.5329
  441MOL0     H59508  10.917   0.452   8.724 -0.0452 -0.4412 -0.7426
  441MOL0     H59509  11.076   0.282   8.532 -3.2177 -0.7785  0.3726
  441MOL0     H59510  11.034   0.440   8.475  1.2287 -0.6210 -0.8822
  441MOL0     H59511  11.191   0.374   8.716 -1.6664  0.0297  0.2584
  441MOL0     H59512  11.137   0.536   8.675  1.6399  0.7802  1.0370
  441MOL0     H59513  11.339   0.393   8.495  1.7534  1.6095  1.1989
  441MOL0     H59514  11.239   0.534   8.454  0.7354  2.8304  0.7801
  441MOL0     H59515  10.327   0.085   8.743  0.5607 -0.7537  2.8569
  441MOL0     H59516  10.087   0.048   8.673 -0.3742  0.8797  0.2776
  441MOL0     H59517   9.618   0.456   8.461 -0.6704  0.7829  0.6481
  441MOL0     H59518   9.395   0.398   8.431 -2.5364 -1.4310  0.6275
  441MOL0     H59519   7.999  -0.128   9.705 -0.1307 -0.4541 -0.3015
  441MOL0     H59520   7.762  -0.163   9.720 -0.6595  1.8422 -2.1595
  441MOL0     H59521   7.282   0.246   9.770  0.8349  0.7564  2.4834
  441MOL0     H59522   7.053   0.205   9.792  1.3357  1.1436  0.4833
  441MOL0     H59523   6.893   0.111   9.701  0.2720 -1.1064 -0.0393
  441MOL0     H59524   6.842   0.144   9.868 -0.8180  1.1459 -0.0882
  441MOL0     H59525   6.662  -0.020   9.868 -1.6218  1.0683 -0.0474
  441MOL0     H59526   6.706  -0.075   9.709 -0.8308  1.1658 -0.7020
  441MOL0     H59527   6.675   0.163   9.618 -1.6915 -2.0910 -2.0574
  441MOL0     H59528   6.600   0.202   9.778  0.6147 -0.8371  0.3311
  441MOL0     H59529   6.437   0.166   9.602 -1.3789  1.7063  1.6900
  441MOL0     H59530   6.479   0.000   9.588 -1.3013 -0.7624  1.1223
  441MOL0     H59531   6.254   0.055   9.953  4.1754  0.9113  2.1423
  441MOL0     H59532   7.130  -0.223   9.864 -0.1265 -1.5479 -1.3104
  441MOL0     H59533   7.339  -0.288   9.801  1.3187 -1.1652  0.2168
  441MOL0     H59534   7.448  -0.177   9.725 -0.9236 -1.9663 -0.9087
  441MOL0     H59535   7.458  -0.207   9.903 -0.8874  3.6419  0.6407
  442MOL0     O59536   6.118   1.304   0.328  0.1640  0.3733  0.0744
  442MOL0     C59537   6.089   1.409   0.371  0.3136 -0.5272 -0.3596
  442MOL0     O59538   6.175   1.504   0.418  1.0463  0.0696  0.6720
  442MOL0     C59539   6.305   1.469   0.441 -0.1346  0.4283 -1.0731
  442MOL0     C59540   6.400   1.441   0.341 -0.1989 -0.5176  0.3392
  442MOL0     C59541   6.530   1.400   0.364  0.0496 -0.1052 -0.3796
  442MOL0     C59542   6.571   1.374   0.494  0.1785  0.2693  0.1280
  442MOL0     O59543   6.693   1.322   0.528  0.2969 -0.0652  0.2718
  442MOL0     C59544   6.746   1.233   0.437  0.0882  1.5583  0.3060
  442MOL0     C59545   6.843   1.135   0.500  0.4922  0.8963  0.8269
  442MOL0     C59546   6.976   1.209   0.549 -0.1393 -0.4230  0.3065
  442MOL0     C59547   7.100   1.155   0.476 -0.0602 -0.5097  0.2494
  442MOL0     C59548   7.208   1.255   0.485 -0.1048  0.3926 -0.7245
  442MOL0     C59549   7.323   1.233   0.392  0.3184  0.5463 -0.5338
  442MOL0     C59550   7.412   1.105   0.412  0.9143  0.3311  0.8650
  442MOL0     C59551   7.474   1.053   0.283 -0.4489  0.3446  0.0326
  442MOL0     N59552   7.605   1.119   0.255  0.8442  0.4167  0.3517
  442MOL0     C59553   7.694   1.039   0.180 -0.5736 -0.0487  0.2011
  442MOL0     C59554   7.797   1.126   0.154 -0.5849  0.2229  0.8596
  442MOL0     C59555   7.919   1.096   0.074 -0.6840  0.5370  0.5248
  442MOL0     C59556   8.048   1.066   0.150 -0.0094 -0.3971 -0.6484
  442MOL0     C59557   8.165   1.081   0.069  0.1068  0.2316  0.4856
  442MOL0     C59558   8.293   1.121   0.151 -0.3514  0.2387  0.4072
  442MOL0     O59559   8.400   1.123   0.054 -0.2255  0.1545  0.0086
  442MOL0     C59560   8.528   1.152   0.086 -0.2452  0.7913 -0.4583
  442MOL0     C59561   8.618   1.159  -0.025 -0.0755 -0.4523 -0.5867
  442MOL0     C59562   8.752   1.185  -0.015 -0.4626  0.2933  0.2670
  442MOL0     C59563   8.805   1.215   0.116 -0.0512  0.8127 -0.4531
  442MOL0     C59564   8.954   1.247   0.128  0.8184 -0.1773  0.3049
  442MOL0     O59565   8.998   1.277   0.254 -0.4439  0.0923 -0.0503
  442MOL0     C59566   9.131   1.319   0.252 -0.5140 -0.4805 -0.2286
  442MOL0     C59567   9.229   1.232   0.286  0.0131  0.6535  0.8913
  442MOL0     C59568   9.362   1.266   0.270  0.4173  0.9947  0.7292
  442MOL0     C59569   9.400   1.391   0.216 -0.2736 -0.1866  1.1089
  442MOL0     O59570   9.524   1.412   0.157 -0.0308  0.0837  0.3953
  442MOL0     C59571   9.637   1.355   0.218 -0.5084  0.2878 -0.3684
  442MOL0     C59572   9.752   1.456   0.219 -0.0058 -0.4202  0.4002
  442MOL0     C59573   9.871   1.375   0.284 -1.5950  0.1739 -0.2148
  442MOL0     C59574   9.973   1.463   0.352 -0.5246  0.5682 -0.2681
  442MOL0     C59575  10.099   1.379   0.399  0.2331 -0.7463  0.7182
  442MOL0     C59576  10.210   1.475   0.439 -0.2088 -0.0045  0.4861
  442MOL0     C59577  10.340   1.395   0.461  0.8603  0.0938 -0.7654
  442MOL0     C59578  10.460   1.493   0.488 -0.2279 -0.4436 -0.0997
  442MOL0    Cl59579  10.481   1.582   0.339  0.2353 -0.4365  0.0360
  442MOL0     C59580   9.300   1.483   0.187  0.2070 -0.1423 -0.1460
  442MOL0     C59581   9.163   1.451   0.207 -0.9623  0.2370  0.8662
  442MOL0     O59582   9.025   1.225   0.031  0.0277 -0.1531  0.1905
  442MOL0     C59583   8.719   1.223   0.228 -0.1732  0.1517  0.5279
  442MOL0     C59584   8.582   1.178   0.215 -0.1622 -0.2173 -0.3604
  442MOL0     N59585   7.768   1.252   0.206  0.5087  0.4235 -0.5768
  442MOL0     N59586   7.653   1.246   0.268  0.0707  0.0659 -0.4958
  442MOL0     C59587   6.472   1.385   0.601 -0.4658  0.3303  0.3128
  442MOL0     C59588   6.344   1.437   0.569 -0.0617 -0.0922  0.0754
  442MOL0     C59589   5.950   1.453   0.361 -0.8429  0.3403  0.0801
  442MOL0     C59590   5.909   1.534   0.468 -0.6291  0.1900 -0.3488
  442MOL0     C59591   5.782   1.583   0.478  1.0053 -0.2815  0.0387
  442MOL0     C59592   5.687   1.559   0.381  0.2076 -0.1245  0.0303
  442MOL0     O59593   5.555   1.608   0.382 -0.2412 -0.8399  0.9617
  442MOL0     C59594   5.532   1.724   0.466 -0.1055  0.3898  0.2875
  442MOL0     C59595   5.497   1.683   0.611 -0.1919 -0.6507  0.7860
  442MOL0     C59596   5.381   1.581   0.628 -0.5293  0.0122  0.5838
  442MOL0     C59597   5.366   1.554   0.781  0.3257 -0.5461  0.0411
  442MOL0     C59598   5.490   1.488   0.834  0.5269 -0.1321  0.7133
  442MOL0     C59599   5.593   1.435   0.879 -0.2334 -0.1050  0.7083
  442MOL0     C59600   5.720   1.463   0.284 -0.0291  0.4435 -0.0736
  442MOL0     C59601   5.854   1.414   0.269  1.1213 -0.3918 -0.2034
  442MOL0     C59602   5.889   1.331   0.136 -0.3668 -0.2599 -0.2353
  442MOL0     H59603   6.367   1.481   0.246 -0.4176  1.7160  1.2818
  442MOL0     H59604   6.591   1.384   0.275 -0.1248 -0.4647 -0.4363
  442MOL0     H59605   6.667   1.175   0.388  0.6909 -1.0821  2.2163
  442MOL0     H59606   6.807   1.285   0.364 -1.2520  1.9563 -0.5653
  442MOL0     H59607   6.866   1.053   0.432  1.5609  1.7207  0.1765
  442MOL0     H59608   6.789   1.078   0.577 -4.3541  3.4081 -0.2814
  442MOL0     H59609   6.979   1.187   0.656 -1.4607 -1.9622  0.0655
  442MOL0     H59610   6.962   1.315   0.527 -0.1975 -0.9759 -2.8535
  442MOL0     H59611   7.138   1.056   0.503 -0.2985 -0.0431  2.4586
  442MOL0     H59612   7.060   1.136   0.376 -1.5135 -1.0596  0.8940
  442MOL0     H59613   7.163   1.352   0.461  1.0187  0.5135 -2.5729
  442MOL0     H59614   7.246   1.266   0.587  0.5527  0.8802 -1.0135
  442MOL0     H59615   7.289   1.239   0.289  0.0467 -2.3081 -0.6793
  442MOL0     H59616   7.391   1.318   0.407  1.7993 -0.0751 -3.1114
  442MOL0     H59617   7.348   1.031   0.461  0.5007 -1.5801 -2.2680
  442MOL0     H59618   7.496   1.118   0.480 -0.9490 -2.5071  4.0345
  442MOL0     H59619   7.483   0.944   0.290 -3.0102  0.1291  0.9338
  442MOL0     H59620   7.397   1.061   0.207 -1.0655 -0.8255  0.5060
  442MOL0     H59621   7.688   0.935   0.151  0.8524  0.2359 -1.2587
  442MOL0     H59622   7.890   1.018   0.003 -0.8049  0.6528  0.4468
  442MOL0     H59623   7.945   1.185   0.016  0.2205 -0.4408 -0.6412
  442MOL0     H59624   8.047   1.146   0.224 -2.0745 -0.6416 -0.3529
  442MOL0     H59625   8.040   0.966   0.196 -0.8611  0.8317  2.1177
  442MOL0     H59626   8.158   1.163  -0.003  1.7063 -0.1532 -0.1361
  442MOL0     H59627   8.194   0.995   0.008  3.3232  1.3655  0.2592
  442MOL0     H59628   8.329   1.047   0.223  2.6090  0.3204 -0.8222
  442MOL0     H59629   8.282   1.216   0.204 -2.9744  1.3438 -1.8339
  442MOL0     H59630   8.571   1.137  -0.120  0.0721 -1.5531 -0.4170
  442MOL0     H59631   8.808   1.191  -0.107  1.2079  1.4078  1.3028
  442MOL0     H59632   9.210   1.136   0.334  3.0354  0.6141  2.2650
  442MOL0     H59633   9.447   1.204   0.297 -0.4109  0.3745  2.0126
  442MOL0     H59634   9.618   1.323   0.321  1.2476  1.7589  0.4762
  442MOL0     H59635   9.672   1.264   0.169  1.6814  1.1206 -0.4780
  442MOL0     H59636   9.782   1.504   0.125 -1.3467 -1.9333 -0.8470
  442MOL0     H59637   9.737   1.540   0.288  1.8252 -0.4655  0.9010
  442MOL0     H59638   9.837   1.303   0.359  0.3965 -0.0510  0.5300
  442MOL0     H59639   9.916   1.318   0.202 -0.2198  0.3059  0.4117
  442MOL0     H59640   9.933   1.507   0.444  0.5576  0.0971  0.4439
  442MOL0     H59641  10.005   1.544   0.287  0.3105 -0.9523 -1.8282
  442MOL0     H59642  10.142   1.321   0.317  2.3324 -0.8676  1.8212
  442MOL0     H59643  10.071   1.305   0.476 -2.9888 -0.3218  0.1100
  442MOL0     H59644  10.227   1.539   0.351  1.7134 -0.9600  0.1238
  442MOL0     H59645  10.186   1.527   0.532 -3.6541  0.6126 -0.5783
  442MOL0     H59646  10.368   1.340   0.371 -0.6655 -2.1277  0.0386
  442MOL0     H59647  10.335   1.322   0.542  1.6555  2.2599  1.3632
  442MOL0     H59648  10.450   1.560   0.574 -0.8395  0.1322 -0.6054
  442MOL0     H59649  10.553   1.437   0.507 -1.6016 -3.0004 -0.4749
  442MOL0     H59650   9.334   1.578   0.147  1.5043 -0.6733 -0.3637
  442MOL0     H59651   9.091   1.528   0.180  0.6170  0.4645 -3.4944
  442MOL0     H59652   8.752   1.271   0.319 -1.0899  1.4296  0.2099
  442MOL0     H59653   8.516   1.196   0.299  0.1277  1.9277 -0.5426
  442MOL0     H59654   6.498   1.357   0.703 -1.3091 -1.8688 -0.0279
  442MOL0     H59655   6.265   1.451   0.642 -0.6085  3.0961 -0.9754
  442MOL0     H59656   5.981   1.562   0.545 -0.2345  3.5776 -1.7688
  442MOL0     H59657   5.780   1.654   0.560  0.1281 -0.6600  0.3592
  442MOL0     H59658   5.454   1.789   0.426 -1.3311  0.2865  2.3573
  442MOL0     H59659   5.625   1.782   0.460 -0.6166  1.1237 -1.0253
  442MOL0     H59660   5.472   1.770   0.672  2.6669 -0.7938  2.3227
  442MOL0     H59661   5.586   1.650   0.664  0.8104  3.3407  1.9823
  442MOL0     H59662   5.401   1.490   0.570 -1.3086  0.0491  0.2466
  442MOL0     H59663   5.288   1.624   0.589 -2.1858 -2.0880  2.0521
  442MOL0     H59664   5.345   1.650   0.830 -0.2776  0.3588 -1.8802
  442MOL0     H59665   5.283   1.490   0.812 -0.2249  0.8290  1.5794
  442MOL0     H59666   5.682   1.402   0.929  0.4239  2.3611  1.3011
  442MOL0     H59667   5.652   1.430   0.206  0.6297  1.3696 -1.0583
  442MOL0     H59668   5.989   1.360   0.101 -0.1353 -0.2663  0.4103
  442MOL0     H59669   5.880   1.224   0.151  3.5565 -0.9115 -1.3282
  442MOL0     H59670   5.816   1.366   0.062 -0.9049  1.0393  0.8623
  443MOL0     O59671   5.487   0.439   5.996  0.5841  0.5548  0.7483
  443MOL0     C59672   5.440   0.344   6.058 -0.1836 -0.3828 -0.2721
  443MOL0     O59673   5.512   0.252   6.124 -0.3195 -0.5642  0.4549
  443MOL0     C59674   5.649   0.271   6.115  1.0469 -0.3174 -0.6897
  443MOL0     C59675   5.720   0.236   6.002  0.5915  0.1622 -0.0657
  443MOL0     C59676   5.857   0.259   5.997 -0.3290  0.7402  0.3421
  443MOL0     C59677   5.929   0.307   6.102  0.5244  1.4239 -0.6793
  443MOL0     O59678   6.062   0.338   6.092  0.2378  0.0105 -0.2250
  443MOL0     C59679   6.145   0.241   6.019 -0.6741 -0.3502  0.2926
  443MOL0     C59680   6.290   0.242   6.077 -0.4355 -0.3059  0.5781
  443MOL0     C59681   6.360   0.386   6.060  0.7539 -0.5298  0.0699
  443MOL0     C59682   6.392   0.420   5.920  0.2317  0.0537  1.0180
  443MOL0     C59683   6.519   0.349   5.883  0.3723  0.6006 -0.1988
  443MOL0     C59684   6.570   0.377   5.732  1.3560  0.1676 -1.1961
  443MOL0     C59685   6.712   0.351   5.730 -0.0355 -0.1511  0.3289
  443MOL0     C59686   6.776   0.381   5.594  0.1965 -0.2685 -0.1869
  443MOL0     N59687   6.906   0.307   5.597  0.2961  0.2946  0.4242
  443MOL0     C59688   6.994   0.299   5.708 -0.6507  0.5457  0.4559
  443MOL0     C59689   7.106   0.250   5.651 -0.0358 -0.1482  0.1240
  443MOL0     C59690   7.228   0.196   5.721 -0.0586  0.0456  0.1726
  443MOL0     C59691   7.353   0.261   5.677  0.7793 -0.1383  1.3204
  443MOL0     C59692   7.472   0.180   5.722  0.8259 -0.1599  0.0691
  443MOL0     C59693   7.610   0.245   5.701  0.0119  0.7957  0.4445
  443MOL0     O59694   7.616   0.374   5.767  1.0546 -0.3585 -0.4047
  443MOL0     C59695   7.733   0.440   5.750 -0.4191  0.0535 -0.2205
  443MOL0     C59696   7.855   0.382   5.800 -0.2089 -0.3624 -0.7002
  443MOL0     C59697   7.972   0.453   5.780 -0.0426 -0.1061  0.4937
  443MOL0     C59698   7.973   0.579   5.709  0.2849 -0.2576  0.0526
  443MOL0     C59699   8.103   0.652   5.692 -0.2960 -0.0622 -0.8418
  443MOL0     O59700   8.103   0.773   5.639  0.7650  0.6463  0.4267
  443MOL0     C59701   8.225   0.822   5.589 -0.0520  0.1271  0.1553
  443MOL0     C59702   8.329   0.868   5.663 -0.3167 -0.4134 -0.2090
  443MOL0     C59703   8.440   0.918   5.598 -0.4613  0.8270  0.0584
  443MOL0     C59704   8.454   0.916   5.459 -0.2471  0.4129  0.1620
  443MOL0     O59705   8.559   0.982   5.394  0.4733 -0.3985 -0.4533
  443MOL0     C59706   8.589   0.957   5.258 -0.9687 -0.8419  0.2342
  443MOL0     C59707   8.516   1.069   5.183  0.6486  0.0185  0.6179
  443MOL0     C59708   8.530   1.079   5.033  0.4214  0.1625 -0.4777
  443MOL0     C59709   8.486   1.219   4.994  0.8471 -0.5140  0.3712
  443MOL0     C59710   8.504   1.237   4.839  0.1946 -0.0626  0.0364
  443MOL0     C59711   8.481   1.386   4.792 -0.9864 -0.8836 -0.1919
  443MOL0     C59712   8.327   1.410   4.802 -0.5093  0.2139  0.0193
  443MOL0     C59713   8.294   1.555   4.785  1.2866  0.0156  0.9063
  443MOL0    Cl59714   8.328   1.626   4.618  0.1423  0.1729  0.2757
  443MOL0     C59715   8.347   0.860   5.392 -0.5127  0.8107  0.0110
  443MOL0     C59716   8.235   0.814   5.450  0.2751  0.1264 -0.1592
  443MOL0     O59717   8.204   0.589   5.722  0.0915 -0.1072 -0.1453
  443MOL0     C59718   7.852   0.636   5.659 -0.2323 -0.4822  0.1708
  443MOL0     C59719   7.733   0.559   5.676 -0.7403  0.5724  0.9470
  443MOL0     N59720   7.084   0.216   5.520  0.0897  0.2237  0.0352
  443MOL0     N59721   6.962   0.241   5.489 -0.1336 -0.3225  0.3299
  443MOL0     C59722   5.857   0.330   6.224 -0.4088  0.5077 -0.2452
  443MOL0     C59723   5.723   0.309   6.231 -0.4394  0.0693  0.3212
  443MOL0     C59724   5.298   0.319   6.050  0.0629  0.2076  0.0963
  443MOL0     C59725   5.224   0.369   5.939 -0.3603  0.4931  0.6406
  443MOL0     C59726   5.091   0.355   5.929  1.2953 -0.1512  0.2740
  443MOL0     C59727   5.017   0.273   6.019 -0.2432 -0.4593  0.2450
  443MOL0     O59728   4.876   0.251   6.006  0.0277 -0.4257  0.3254
  443MOL0     C59729   4.809   0.307   5.887 -0.4874 -0.5289 -0.1704
  443MOL0     C59730   4.661   0.305   5.902  1.2171 -0.0767 -0.3514
  443MOL0     C59731   4.617   0.151   5.924 -0.2636  0.5756  0.5827
  443MOL0     C59732   4.462   0.138   5.939 -0.1729 -0.3373 -0.3077
  443MOL0     C59733   4.403   0.220   6.047 -0.1687  0.1784 -0.3339
  443MOL0     C59734   4.356   0.288   6.141  0.1281 -0.1068  0.0623
  443MOL0     C59735   5.080   0.227   6.129 -0.6011  0.1982 -0.1112
  443MOL0     C59736   5.217   0.253   6.153 -0.2645  0.3751 -0.6850
  443MOL0     C59737   5.285   0.171   6.265 -1.1126 -0.0917 -0.5787
  443MOL0     H59738   5.672   0.202   5.911  1.7552  0.7388 -0.9258
  443MOL0     H59739   5.902   0.248   5.899 -2.2561  0.3897 -0.5525
  443MOL0     H59740   6.100   0.141   6.023 -1.7080  0.1181  0.6004
  443MOL0     H59741   6.145   0.269   5.913 -0.6988  0.5759  0.5291
  443MOL0     H59742   6.356   0.167   6.032 -1.2002  0.7572 -2.5938
  443MOL0     H59743   6.273   0.220   6.182 -1.1406 -0.2065  0.4875
  443MOL0     H59744   6.451   0.400   6.119  0.6777  1.1380 -0.1812
  443MOL0     H59745   6.293   0.460   6.104  1.1186  0.1354 -0.4875
  443MOL0     H59746   6.307   0.401   5.854  0.8832  1.2928 -0.2405
  443MOL0     H59747   6.415   0.527   5.921  2.8271 -0.3996 -0.0476
  443MOL0     H59748   6.598   0.369   5.957 -1.3156 -0.1814  1.9192
  443MOL0     H59749   6.503   0.242   5.900 -3.0229  1.5065  4.0376
  443MOL0     H59750   6.516   0.306   5.668  0.5528 -1.3270  1.0447
  443MOL0     H59751   6.557   0.479   5.694  1.5153 -0.1260 -2.0829
  443MOL0     H59752   6.718   0.244   5.750 -0.1254 -0.3251 -0.5424
  443MOL0     H59753   6.761   0.411   5.807 -0.7271  1.0716 -0.1477
  443MOL0     H59754   6.700   0.353   5.521 -3.3377  3.7643  1.5144
  443MOL0     H59755   6.790   0.490   5.587 -2.5125  0.1529 -0.1533
  443MOL0     H59756   6.980   0.338   5.808 -0.5489  1.3768  0.1543
  443MOL0     H59757   7.204   0.212   5.827 -1.2169 -0.0818 -0.0512
  443MOL0     H59758   7.236   0.087   5.710 -4.8387 -0.2791 -3.0305
  443MOL0     H59759   7.366   0.277   5.570  0.8678 -0.9411  1.2051
  443MOL0     H59760   7.364   0.358   5.725  1.2698  0.8141 -0.6068
  443MOL0     H59761   7.476   0.079   5.680  1.7760  0.3133 -1.0613
  443MOL0     H59762   7.461   0.168   5.830 -1.5333 -1.5530 -0.2512
  443MOL0     H59763   7.613   0.254   5.592 -0.8226 -0.4234  0.3071
  443MOL0     H59764   7.686   0.173   5.732 -0.1440 -0.4329 -1.8158
  443MOL0     H59765   7.858   0.281   5.840 -1.8297 -0.3889 -0.5798
  443MOL0     H59766   8.066   0.429   5.830  0.5724 -1.0301 -1.0288
  443MOL0     H59767   8.331   0.881   5.771  0.6871 -1.2688 -0.0976
  443MOL0     H59768   8.520   0.965   5.654  1.6637 -1.8883 -0.4972
  443MOL0     H59769   8.695   0.979   5.248 -1.2021  0.0685 -0.3859
  443MOL0     H59770   8.559   0.856   5.231 -0.9674 -0.1560 -2.6778
  443MOL0     H59771   8.410   1.051   5.205 -0.0303 -0.7637 -2.7233
  443MOL0     H59772   8.536   1.168   5.226  1.6329 -0.5332  1.4803
  443MOL0     H59773   8.629   1.056   4.992 -0.1181  0.4578 -2.0119
  443MOL0     H59774   8.458   1.010   4.989 -0.5796  0.8347  0.0610
  443MOL0     H59775   8.540   1.302   5.039 -4.2315  4.1905 -1.1034
  443MOL0     H59776   8.381   1.212   5.023  1.2062 -1.9661  1.3862
  443MOL0     H59777   8.446   1.164   4.783 -2.5246  2.2169 -0.3506
  443MOL0     H59778   8.611   1.223   4.820 -0.1487 -0.7011 -1.5311
  443MOL0     H59779   8.534   1.450   4.863 -1.2041 -1.6911  0.7166
  443MOL0     H59780   8.528   1.405   4.695 -1.5412 -2.1486 -0.7357
  443MOL0     H59781   8.295   1.372   4.899 -0.0157 -1.2143 -0.3512
  443MOL0     H59782   8.274   1.352   4.725 -0.6325 -0.5178  0.6502
  443MOL0     H59783   8.187   1.566   4.807  1.1895 -0.2723  0.5821
  443MOL0     H59784   8.344   1.612   4.864  0.6095  1.0104  0.6450
  443MOL0     H59785   8.334   0.838   5.287  0.1503 -2.4331  0.5138
  443MOL0     H59786   8.148   0.776   5.397 -1.1285 -1.3832  2.9109
  443MOL0     H59787   7.845   0.723   5.595 -1.6378 -0.0026  0.9220
  443MOL0     H59788   7.640   0.596   5.634 -2.0747 -0.4399  2.8156
  443MOL0     H59789   5.910   0.373   6.308 -1.0152  4.1950 -1.5397
  443MOL0     H59790   5.657   0.342   6.311 -1.9983  1.6803 -1.5434
  443MOL0     H59791   5.265   0.429   5.858 -3.2717 -0.6495 -1.9236
  443MOL0     H59792   5.043   0.394   5.840  2.3996 -0.2710 -0.3999
  443MOL0     H59793   4.832   0.243   5.802 -0.3835 -1.2571  0.3977
  443MOL0     H59794   4.829   0.411   5.862 -2.8842 -0.2168 -1.1348
  443MOL0     H59795   4.617   0.343   5.809  2.1017 -0.5589 -0.9827
  443MOL0     H59796   4.630   0.363   5.989  0.5671 -0.7748 -0.1084
  443MOL0     H59797   4.655   0.105   6.016 -0.6817 -1.9688 -0.4364
  443MOL0     H59798   4.655   0.094   5.840 -0.6460  1.6356 -0.3284
  443MOL0     H59799   4.413   0.154   5.843 -1.7717 -1.8223  0.2039
  443MOL0     H59800   4.443   0.037   5.977  1.6870 -0.5324  0.1790
  443MOL0     H59801   4.333   0.349   6.226 -4.2775  1.1256 -1.7653
  443MOL0     H59802   5.028   0.170   6.205  3.8069 -0.2674  2.9440
  443MOL0     H59803   5.211   0.155   6.345  0.0832  1.8395  1.0253
  443MOL0     H59804   5.322   0.072   6.237  1.6677  0.6913  0.0025
  443MOL0     H59805   5.371   0.228   6.301 -0.7665 -0.3382 -1.0242
  444MOL0     O59806   2.481  10.416   6.252  0.2320 -0.3418 -0.7949
  444MOL0     C59807   2.426  10.407   6.141 -0.4915 -0.2692  0.1201
  444MOL0     O59808   2.501  10.412   6.022  0.1836 -0.3010 -0.0636
  444MOL0     C59809   2.633  10.429   6.006 -0.4522 -0.6496  0.0591
  444MOL0     C59810   2.676  10.446   5.873  0.3437 -0.0483 -0.5414
  444MOL0     C59811   2.810  10.443   5.852  0.9177  0.1973  0.0652
  444MOL0     C59812   2.913  10.449   5.947 -0.6647  0.1463  1.0869
  444MOL0     O59813   3.045  10.452   5.900  0.1797 -0.3871 -0.3086
  444MOL0     C59814   3.147  10.438   6.004 -0.1401  0.6261 -1.3449
  444MOL0     C59815   3.285  10.409   5.942  0.3168 -0.2707  0.0952
  444MOL0     C59816   3.394  10.392   6.043  0.8105  0.0264  0.8378
  444MOL0     C59817   3.531  10.332   5.984  0.7261 -0.2468  0.2050
  444MOL0     C59818   3.583  10.403   5.854 -0.5816  0.0814 -0.1579
  444MOL0     C59819   3.720  10.339   5.807 -0.1756  0.0680 -0.2962
  444MOL0     C59820   3.764  10.351   5.656 -0.1906  0.5890 -0.2414
  444MOL0     C59821   3.774  10.491   5.603  0.2218  0.0254 -1.3595
  444MOL0     N59822   3.846  10.489   5.484 -0.3153  1.0191  0.0203
  444MOL0     C59823   3.977  10.451   5.472 -1.5519 -0.3433  0.0110
  444MOL0     C59824   3.995  10.448   5.338 -0.0060  0.6405 -0.1803
  444MOL0     C59825   4.135  10.425   5.288 -0.2358 -0.5867 -0.6518
  444MOL0     C59826   4.135  10.303   5.203  0.0188  1.0108  0.1035
  444MOL0     C59827   4.248  10.212   5.234 -0.7911  0.5753  0.3662
  444MOL0     C59828   4.391  10.242   5.184 -0.1778 -0.5617  0.1169
  444MOL0     O59829   4.475  10.132   5.185 -0.1831  0.2223  0.0320
  444MOL0     C59830   4.580  10.134   5.090  0.0822  0.2405  0.5641
  444MOL0     C59831   4.699  10.206   5.128  1.3926  0.4997 -0.2493
  444MOL0     C59832   4.815  10.212   5.053 -0.4293  0.1047  0.5718
  444MOL0     C59833   4.821  10.138   4.940 -0.0895  0.3581  0.7863
  444MOL0     C59834   4.951  10.143   4.864  0.5300 -0.5574 -0.1618
  444MOL0     O59835   4.948  10.088   4.739  0.3477 -0.2707 -0.4113
  444MOL0     C59836   5.059  10.086   4.657  0.1811 -0.3220 -0.2535
  444MOL0     C59837   5.104  10.192   4.584 -0.1717 -0.7570  0.0481
  444MOL0     C59838   5.231  10.187   4.527 -0.7760  0.2591 -1.0913
  444MOL0     C59839   5.303  10.069   4.515 -0.2257  0.9146 -0.1856
  444MOL0     O59840   5.420  10.068   4.438  0.3327  0.0785  0.6108
  444MOL0     C59841   5.536   9.992   4.489 -0.1631  0.2938  0.8854
  444MOL0     C59842   5.657  10.061   4.439 -0.3494  0.0308 -0.2220
  444MOL0     C59843   5.736   9.962   4.339  0.7948 -0.1409 -0.2105
  444MOL0     C59844   5.836  10.026   4.244  0.1303  0.4000 -0.0217
  444MOL0     C59845   5.957   9.943   4.218 -0.2151  1.0054 -0.0345
  444MOL0     C59846   6.057  10.009   4.131  0.8761  0.2227  0.5967
  444MOL0     C59847   6.178   9.925   4.092 -0.2808 -0.0167 -0.2191
  444MOL0     C59848   6.152   9.791   4.026  0.4796  0.2753  0.1547
  444MOL0    Cl59849   6.086   9.660   4.140 -0.2897  0.6516  0.3989
  444MOL0     C59850   5.249   9.955   4.568  0.1304 -0.5250 -0.8031
  444MOL0     C59851   5.127   9.964   4.645  0.2109 -0.2410 -0.1937
  444MOL0     O59852   5.054  10.183   4.916  0.1308  0.3230  0.1869
  444MOL0     C59853   4.709  10.071   4.891 -0.1025 -0.2328 -0.2100
  444MOL0     C59854   4.588  10.073   4.966 -0.9296  0.1571  1.3562
  444MOL0     N59855   3.882  10.494   5.284 -0.3307 -0.1448  0.3001
  444MOL0     N59856   3.787  10.513   5.367 -0.3757  0.6717 -0.3353
  444MOL0     C59857   2.869  10.453   6.074 -0.7283 -1.2706 -0.2642
  444MOL0     C59858   2.731  10.446   6.109  0.3070  0.0665  0.9712
  444MOL0     C59859   2.283  10.431   6.131  0.1604 -0.8779  0.8212
  444MOL0     C59860   2.227  10.487   6.011 -0.4719 -0.1879 -0.0654
  444MOL0     C59861   2.090  10.518   5.999  0.2710  0.0039 -0.4050
  444MOL0     C59862   1.998  10.496   6.108 -0.0630  1.2581 -0.5530
  444MOL0     O59863   1.865  10.510   6.098  0.9428 -0.6939 -0.3481
  444MOL0     C59864   1.805  10.547   5.969  0.3040  0.1986  0.1157
  444MOL0     C59865   1.757  10.422   5.889 -0.9496 -0.8727  0.0740
  444MOL0     C59866   1.670  10.456   5.769 -0.0612 -0.0529  0.4871
  444MOL0     C59867   1.529  10.461   5.817  0.4949 -0.0580 -0.8663
  444MOL0     C59868   1.436  10.469   5.706 -0.9959  0.0216  0.2084
  444MOL0     C59869   1.359  10.477   5.619 -0.3734  0.6904  1.1466
  444MOL0     C59870   2.059  10.447   6.225  0.6500 -1.0342  0.1515
  444MOL0     C59871   2.193  10.414   6.234 -0.6856  0.1280  0.1964
  444MOL0     C59872   2.226  10.351   6.369  0.6764  0.2876 -0.5833
  444MOL0     H59873   2.609  10.447   5.788  0.8443 -1.8075 -1.0080
  444MOL0     H59874   2.863  10.469   5.761  0.5614  1.7719  0.2814
  444MOL0     H59875   3.145  10.534   6.056 -2.4391  0.2329 -0.6052
  444MOL0     H59876   3.123  10.362   6.079  2.6302  1.2310  0.3352
  444MOL0     H59877   3.309  10.488   5.870 -0.7583  0.5263  0.5927
  444MOL0     H59878   3.270  10.320   5.881  1.5916  0.8203 -1.9233
  444MOL0     H59879   3.356  10.335   6.128 -2.0478 -1.1301 -1.0669
  444MOL0     H59880   3.418  10.488   6.089 -1.3517  0.3926  1.2906
  444MOL0     H59881   3.614  10.335   6.055  1.6278 -0.4790 -0.8024
  444MOL0     H59882   3.520  10.224   5.969 -3.0044 -0.1134  1.0209
  444MOL0     H59883   3.513  10.380   5.773 -0.4675 -0.4913 -0.1023
  444MOL0     H59884   3.594  10.510   5.871  3.2815 -0.6025  3.0745
  444MOL0     H59885   3.803  10.378   5.867 -0.0899 -1.8993  0.9777
  444MOL0     H59886   3.722  10.230   5.822  1.5313 -0.1680 -1.9089
  444MOL0     H59887   3.685  10.297   5.603 -1.8550  2.6587 -0.0182
  444MOL0     H59888   3.858  10.297   5.647  0.2438  1.0882  1.0222
  444MOL0     H59889   3.680  10.542   5.579 -0.2742  1.4359  2.8401
  444MOL0     H59890   3.828  10.548   5.679  0.9853 -0.5658 -1.4569
  444MOL0     H59891   4.051  10.441   5.551 -1.5992  4.2445  0.8870
  444MOL0     H59892   4.165  10.513   5.231 -0.7932  1.6235  2.2337
  444MOL0     H59893   4.211  10.412   5.366 -0.4505 -1.4392 -0.5764
  444MOL0     H59894   4.037  10.256   5.216  0.9994 -1.0753  0.3899
  444MOL0     H59895   4.149  10.337   5.100  0.7815 -0.6650 -0.3851
  444MOL0     H59896   4.215  10.112   5.203 -0.0668  0.2324  0.6820
  444MOL0     H59897   4.255  10.208   5.343 -5.0022  1.7038  0.8795
  444MOL0     H59898   4.437  10.315   5.251 -3.2836  1.9326 -0.1880
  444MOL0     H59899   4.402  10.292   5.087 -0.6328  1.5087  1.0705
  444MOL0     H59900   4.688  10.260   5.221  3.1035  0.7709 -0.1870
  444MOL0     H59901   4.898  10.278   5.077  1.5338 -2.4651  1.3020
  444MOL0     H59902   5.036  10.277   4.586 -0.8872 -1.1561  5.2021
  444MOL0     H59903   5.265  10.282   4.486  1.8648 -1.0726 -2.2387
  444MOL0     H59904   5.539   9.985   4.599 -1.9031  1.1700  1.0235
  444MOL0     H59905   5.521   9.886   4.468 -0.3944  0.5744 -0.4464
  444MOL0     H59906   5.636  10.157   4.391  0.5235  2.6184  4.0745
  444MOL0     H59907   5.719  10.085   4.526 -1.6593  0.1882  0.6952
  444MOL0     H59908   5.787   9.891   4.405  1.7545 -0.7299 -1.5395
  444MOL0     H59909   5.667   9.907   4.274  0.2809 -1.2284  1.1951
  444MOL0     H59910   5.867  10.118   4.296  2.8557 -0.9070  0.8371
  444MOL0     H59911   5.789  10.051   4.149 -1.1454  1.6866  0.9005
  444MOL0     H59912   5.925   9.856   4.160  2.2365  1.6880 -2.6528
  444MOL0     H59913   6.005   9.911   4.312  0.6630 -0.6181 -0.9828
  444MOL0     H59914   6.013  10.037   4.034  1.2350 -1.8827 -0.2163
  444MOL0     H59915   6.074  10.099   4.192  0.2961  2.3264 -2.1305
  444MOL0     H59916   6.253   9.905   4.169 -0.1433 -1.3185 -0.6609
  444MOL0     H59917   6.239   9.986   4.024  1.3932  0.3252  1.5114
  444MOL0     H59918   6.071   9.807   3.953 -1.5441 -1.0987  1.9571
  444MOL0     H59919   6.248   9.762   3.982  1.1988  1.5572  0.8311
  444MOL0     H59920   5.309   9.866   4.551 -0.1514 -0.5119 -1.9464
  444MOL0     H59921   5.100   9.883   4.712  2.2878 -1.1038 -0.3212
  444MOL0     H59922   4.725  10.022   4.795  1.1376  0.1177 -0.2112
  444MOL0     H59923   4.502  10.030   4.916  0.6702  1.2405 -2.7229
  444MOL0     H59924   2.940  10.470   6.155 -3.7259  0.1565  2.3172
  444MOL0     H59925   2.713  10.432   6.215 -1.4884 -1.4326  0.5349
  444MOL0     H59926   2.289  10.524   5.930  1.7178 -4.1381 -0.4859
  444MOL0     H59927   2.060  10.565   5.906 -0.1387 -2.1389 -1.4267
  444MOL0     H59928   1.873  10.612   5.914  1.8639  0.6886  2.4722
  444MOL0     H59929   1.717  10.607   5.995  1.3997  3.7128 -3.4518
  444MOL0     H59930   1.702  10.347   5.946 -0.4553 -0.5223  1.0305
  444MOL0     H59931   1.856  10.391   5.854  0.1310  2.1506  0.1717
  444MOL0     H59932   1.678  10.372   5.699 -1.0041 -1.1468  1.6620
  444MOL0     H59933   1.706  10.544   5.713  1.2929 -0.2039  1.0744
  444MOL0     H59934   1.500  10.380   5.883 -2.4040  0.6453 -1.1447
  444MOL0     H59935   1.531  10.545   5.887  0.9523 -0.9296  0.1725
  444MOL0     H59936   1.282  10.487   5.545 -0.2861 -1.3590  0.7086
  444MOL0     H59937   1.997  10.422   6.310 -2.0554  1.3014 -0.9164
  444MOL0     H59938   2.141  10.303   6.418 -0.0416  2.0464 -0.0306
  444MOL0     H59939   2.298  10.270   6.351 -0.6905 -1.2351  0.5133
  444MOL0     H59940   2.281  10.426   6.426  1.5150  1.5317 -2.8985
  445MOL0     O59941   9.965  10.186   4.346 -0.2584  0.0189 -0.4326
  445MOL0     C59942   9.973  10.248   4.453  0.5368 -0.8941  0.3878
  445MOL0     O59943   9.878  10.326   4.505  0.1612  0.1137  0.1034
  445MOL0     C59944   9.752  10.332   4.446  0.5115 -0.2768  0.6476
  445MOL0     C59945   9.727  10.424   4.346  0.2761  0.2731  0.3329
  445MOL0     C59946   9.601  10.432   4.290  0.1856  0.0440  0.3916
  445MOL0     C59947   9.497  10.353   4.323 -0.2887  1.3100 -0.1948
  445MOL0     O59948   9.369  10.378   4.268 -0.1843  0.5165 -0.0271
  445MOL0     C59949   9.257  10.297   4.296  0.3526 -0.2620 -0.0831
  445MOL0     C59950   9.153  10.342   4.197 -0.0313  0.0161  0.0765
  445MOL0     C59951   9.202  10.326   4.043  0.8373  0.3650  0.7932
  445MOL0     C59952   9.088  10.377   3.945  0.1883  0.6477  0.7556
  445MOL0     C59953   9.140  10.363   3.809 -0.4750  0.2400 -0.6732
  445MOL0     C59954   9.049  10.365   3.693  0.6360  0.4268 -0.0728
  445MOL0     C59955   9.108  10.372   3.557 -0.8367 -0.1972  0.1453
  445MOL0     C59956   9.237  10.291   3.534  0.2297  0.3458 -0.1779
  445MOL0     N59957   9.288  10.304   3.401 -0.0907  0.1676 -0.3385
  445MOL0     C59958   9.293  10.423   3.330  0.9571  0.3945  0.1452
  445MOL0     C59959   9.349  10.388   3.211  0.0790  0.2602 -0.6097
  445MOL0     C59960   9.371  10.491   3.095  0.0957  0.8954  0.2154
  445MOL0     C59961   9.525  10.514   3.076 -0.0096  0.5500 -0.4243
  445MOL0     C59962   9.555  10.599   2.963 -0.4702  0.3457  0.4025
  445MOL0     C59963   9.710  10.615   2.959  0.3332  0.0657  0.6948
  445MOL0     O59964   9.746  10.720   2.870 -0.0648 -0.7227 -0.0836
  445MOL0     C59965   9.872  10.752   2.850 -0.2618 -1.1880  0.6223
  445MOL0     C59966   9.977  10.739   2.945  0.0993  0.1713  0.2894
  445MOL0     C59967  10.106  10.752   2.906 -0.2293  0.2360 -0.4316
  445MOL0     C59968  10.145  10.793   2.777  0.7034 -1.0157  0.4925
  445MOL0     C59969  10.283  10.822   2.738  0.5488  0.0490  0.6736
  445MOL0     O59970  10.392  10.789   2.825 -0.9854  0.5294  0.2574
  445MOL0     C59971  10.521  10.788   2.765 -0.1164 -0.4450 -0.5463
  445MOL0     C59972  10.539  10.733   2.634  0.4380 -0.0768 -0.2778
  445MOL0     C59973  10.661  10.715   2.570  0.2439  0.8462 -0.3961
  445MOL0     C59974  10.769  10.744   2.647 -0.0441  0.0285  0.2885
  445MOL0     O59975  10.888  10.726   2.597 -0.5019 -0.2586  0.2902
  445MOL0     C59976  10.927  10.805   2.488  1.1351 -0.0090  0.0439
  445MOL0     C59977  11.070  10.840   2.515  0.4017 -0.5904 -0.9545
  445MOL0     C59978  11.143  10.922   2.410 -0.7819  0.1775 -0.6969
  445MOL0     C59979  11.284  10.950   2.447 -0.3074  0.2150  0.3590
  445MOL0     C59980  11.341  11.024   2.325  0.3438  1.0255  0.3551
  445MOL0     C59981  11.482  11.068   2.337 -0.3541 -0.1028 -0.0607
  445MOL0     C59982  11.544  11.132   2.212  0.7857 -0.4280  0.3636
  445MOL0     C59983  11.484  11.269   2.189 -0.2394 -0.3042  0.3501
  445MOL0    Cl59984  11.520  11.370   2.339  0.1254  0.1327  0.1231
  445MOL0     C59985  10.763  10.800   2.777 -0.3695  0.2555 -0.0231
  445MOL0     C59986  10.639  10.818   2.833  0.5073 -0.3625  0.5493
  445MOL0     O59987  10.296  10.865   2.627 -0.4919 -0.4214 -0.1165
  445MOL0     C59988  10.039  10.797   2.685 -0.2136  0.1881 -0.2819
  445MOL0     C59989   9.909  10.781   2.720  0.3892  1.1239 -0.2424
  445MOL0     N59990   9.385  10.252   3.217 -0.8835  0.0827  0.4767
  445MOL0     N59991   9.335  10.200   3.321 -0.3875 -0.1270 -0.3744
  445MOL0     C59992   9.519  10.262   4.430  0.3955 -0.3306  0.1581
  445MOL0     C59993   9.646  10.250   4.490 -0.0247 -0.6845 -0.0190
  445MOL0     C59994  10.115  10.264   4.512  1.0216  0.3683  0.1234
  445MOL0     C59995  10.123  10.318   4.641 -0.2384 -0.3873  0.6731
  445MOL0     C59996  10.247  10.347   4.693 -0.3960  0.3402 -0.1071
  445MOL0     C59997  10.358  10.298   4.630  0.1746 -0.3437  0.8316
  445MOL0     O59998  10.476  10.325   4.696  0.0935 -0.0027  0.2719
  445MOL0     C59999  10.600  10.274   4.643 -0.2424 -0.0197 -0.4480
  445MOL0     C60000  10.614  10.125   4.675 -0.3911 -0.1839 -0.1923
  445MOL0     C60001  10.651  10.080   4.818  0.3229 -1.2895  0.2621
  445MOL0     C60002  10.636   9.932   4.830 -0.5079 -0.0838 -0.1035
  445MOL0     C60003  10.689   9.889   4.958  0.9899 -0.4647 -0.0028
  445MOL0     C60004  10.708   9.875   5.074  0.4194  0.0298 -0.0466
  445MOL0     C60005  10.358  10.226   4.508 -0.8554 -1.1145 -0.1299
  445MOL0     C60006  10.237  10.218   4.443  0.1977 -1.2740 -1.1105
  445MOL0     C60007  10.240  10.193   4.292  0.1933 -0.5837  0.2013
  445MOL0     H60008   9.808  10.480   4.301  0.1440  0.7312  0.6541
  445MOL0     H60009   9.587  10.500   4.207  2.6608 -0.7288 -0.7468
  445MOL0     H60010   9.298  10.197   4.279 -0.0649 -0.0790 -2.5921
  445MOL0     H60011   9.214  10.314   4.395 -0.5998  3.7595 -1.0009
  445MOL0     H60012   9.120  10.444   4.221  0.9487  0.0824  1.2206
  445MOL0     H60013   9.068  10.275   4.212  0.5923 -0.4945  1.4819
  445MOL0     H60014   9.216  10.220   4.022 -0.0208 -0.1402  2.5859
  445MOL0     H60015   9.292  10.386   4.027  0.1319  1.0744 -0.7468
  445MOL0     H60016   8.997  10.319   3.963 -0.4659  1.6138  0.6703
  445MOL0     H60017   9.059  10.481   3.963 -0.5085  0.9556 -1.8050
  445MOL0     H60018   9.214  10.443   3.796 -0.3145  0.2869  0.4265
  445MOL0     H60019   9.191  10.267   3.802  0.7549  0.4344  3.0446
  445MOL0     H60020   8.980  10.280   3.692  2.4418 -1.2430  2.4233
  445MOL0     H60021   8.988  10.454   3.708  3.9453  2.6242  1.5576
  445MOL0     H60022   9.132  10.477   3.538 -0.4778  0.2295  2.6090
  445MOL0     H60023   9.036  10.345   3.479  1.2431  0.7514 -2.2213
  445MOL0     H60024   9.312  10.329   3.604 -0.1597 -0.6467  0.8134
  445MOL0     H60025   9.227  10.184   3.555  0.7795  0.4337  0.5901
  445MOL0     H60026   9.254  10.521   3.355 -1.4424 -0.5361  0.2940
  445MOL0     H60027   9.324  10.456   3.003 -1.8704  1.9138  0.7729
  445MOL0     H60028   9.314  10.580   3.123  0.2213  0.9471  0.3085
  445MOL0     H60029   9.562  10.564   3.166 -1.9622 -0.7890  1.2129
  445MOL0     H60030   9.584  10.423   3.065 -1.1606 -0.3590  0.6790
  445MOL0     H60031   9.515  10.701   2.966 -0.0767  0.5051  3.3676
  445MOL0     H60032   9.520  10.554   2.869  1.1885 -3.3942  1.3887
  445MOL0     H60033   9.765  10.523   2.935  1.1178  0.7512 -0.1701
  445MOL0     H60034   9.734  10.652   3.060  1.9172  0.9111  0.0479
  445MOL0     H60035   9.956  10.713   3.049  3.9625  0.9649  1.4334
  445MOL0     H60036  10.176  10.739   2.989 -2.0661  0.6138  1.2618
  445MOL0     H60037  10.459  10.695   2.573 -0.1888  0.3241  0.2834
  445MOL0     H60038  10.680  10.667   2.475  1.7467  3.6150 -1.6401
  445MOL0     H60039  10.939  10.748   2.396  1.5735 -2.0018  1.2825
  445MOL0     H60040  10.862  10.892   2.472  1.1997  0.4176  1.8489
  445MOL0     H60041  11.089  10.887   2.612  1.1861 -0.3207 -1.2268
  445MOL0     H60042  11.120  10.743   2.522 -1.0435 -1.2624  0.8823
  445MOL0     H60043  11.126  10.867   2.317 -0.8838 -1.4703  0.2461
  445MOL0     H60044  11.082  11.011   2.400 -0.9761  0.2445  0.7600
  445MOL0     H60045  11.346  10.863   2.470  2.3629  2.3590  1.7696
  445MOL0     H60046  11.301  11.018   2.531  2.4499  0.5566 -0.3692
  445MOL0     H60047  11.281  11.112   2.299  2.2820  1.8990 -1.5038
  445MOL0     H60048  11.337  10.964   2.234 -0.1579  3.2856 -1.2172
  445MOL0     H60049  11.504  11.128   2.426  2.1911  1.4971 -1.6523
  445MOL0     H60050  11.543  10.981   2.362 -0.2867 -0.2343 -0.6685
  445MOL0     H60051  11.523  11.064   2.128  0.1905 -0.2857  0.3924
  445MOL0     H60052  11.652  11.131   2.231  1.3209  1.1027 -2.1104
  445MOL0     H60053  11.528  11.316   2.101 -1.4753  0.9396  0.3676
  445MOL0     H60054  11.376  11.256   2.185 -0.3954  0.3654  1.7448
  445MOL0     H60055  10.857  10.808   2.831  0.2498 -0.1821 -1.0126
  445MOL0     H60056  10.627  10.865   2.930 -1.6385 -2.5808  1.4688
  445MOL0     H60057  10.060  10.791   2.579 -1.1932  0.1157 -0.4772
  445MOL0     H60058   9.824  10.780   2.652 -0.4361  2.0409  0.7346
  445MOL0     H60059   9.433  10.203   4.459  0.5508 -1.4473 -1.4994
  445MOL0     H60060   9.653  10.190   4.580  1.4711  0.3363  0.5976
  445MOL0     H60061  10.038  10.360   4.694  0.6321  2.0237  0.2986
  445MOL0     H60062  10.264  10.389   4.791 -0.2781 -2.4346  1.1798
  445MOL0     H60063  10.683  10.333   4.684  0.3601 -0.7218 -0.6349
  445MOL0     H60064  10.605  10.297   4.536 -0.3280 -1.1044 -0.6902
  445MOL0     H60065  10.699  10.095   4.614 -1.2507 -0.2425 -1.3817
  445MOL0     H60066  10.523  10.072   4.647 -0.0660 -1.1900  0.5871
  445MOL0     H60067  10.603  10.145   4.893  0.4462 -0.3307 -0.4665
  445MOL0     H60068  10.755  10.106   4.838 -0.1196 -2.1337  4.7165
  445MOL0     H60069  10.535   9.893   4.817 -0.0956 -1.7431  1.2821
  445MOL0     H60070  10.704   9.882   4.760 -0.3016 -1.1840  0.8560
  445MOL0     H60071  10.731   9.848   5.175 -0.6435 -2.8280 -0.4693
  445MOL0     H60072  10.446  10.181   4.462  1.5502  0.2858  2.6939
  445MOL0     H60073  10.182  10.101   4.286  1.0682 -1.2890  1.8645
  445MOL0     H60074  10.206  10.280   4.236 -1.9685 -0.4027  1.6762
  445MOL0     H60075  10.339  10.173   4.251  0.4302 -0.1043  0.5255
  446MOL0     O60076   8.845   1.417   8.629  0.2739 -0.5035  0.0780
  446MOL0     C60077   8.755   1.346   8.565 -0.2741 -1.1561 -0.3177
  446MOL0     O60078   8.771   1.299   8.431 -0.0500 -0.2449 -0.3223
  446MOL0     C60079   8.898   1.307   8.385  0.4969  0.0306  1.1506
  446MOL0     C60080   8.999   1.223   8.448  0.4590  0.2565  0.9649
  446MOL0     C60081   9.133   1.240   8.399  0.8105  0.8371  0.0106
  446MOL0     C60082   9.170   1.338   8.305 -0.5054 -0.0100 -0.5106
  446MOL0     O60083   9.302   1.370   8.268 -0.2625 -0.6844 -0.4260
  446MOL0     C60084   9.410   1.284   8.317  0.2987 -0.7777 -0.5992
  446MOL0     C60085   9.543   1.324   8.246  0.2546  0.7089  0.3395
  446MOL0     C60086   9.594   1.465   8.280 -0.0375 -0.1663  0.0055
  446MOL0     C60087   9.655   1.489   8.416  0.3559 -1.4914 -0.1062
  446MOL0     C60088   9.690   1.643   8.433 -0.1059  1.0979 -0.2029
  446MOL0     C60089   9.818   1.668   8.519  0.8053 -0.8109  0.2630
  446MOL0     C60090   9.847   1.814   8.495 -0.0176  0.2641  0.0743
  446MOL0     C60091   9.992   1.859   8.532 -0.0732 -1.6180 -0.4366
  446MOL0     N60092  10.018   2.000   8.495  0.3097 -0.6457  0.3276
  446MOL0     C60093   9.929   2.105   8.498  0.0100 -0.2775  0.1434
  446MOL0     C60094  10.003   2.211   8.485 -0.9898  0.1291  0.1803
  446MOL0     C60095   9.947   2.350   8.496  0.2282  0.7416  0.4335
  446MOL0     C60096  10.018   2.445   8.409  0.4321 -0.2485  0.3192
  446MOL0     C60097  10.002   2.425   8.258  0.2824  0.4466  0.0038
  446MOL0     C60098   9.856   2.433   8.209 -0.2652  0.3036 -0.7774
  446MOL0     O60099   9.800   2.565   8.237  0.3992 -0.0530 -0.3919
  446MOL0     C60100   9.668   2.580   8.218 -0.0823 -0.3913 -0.0201
  446MOL0     C60101   9.604   2.700   8.236  0.1395  0.3167 -0.4156
  446MOL0     C60102   9.468   2.713   8.227 -0.0690 -0.4688  0.4226
  446MOL0     C60103   9.386   2.606   8.192 -0.5217  0.7555  0.3466
  446MOL0     C60104   9.238   2.623   8.202  0.2339  1.0467  0.0028
  446MOL0     O60105   9.187   2.743   8.220 -0.3375 -0.1690 -0.3747
  446MOL0     C60106   9.057   2.767   8.206  0.3807 -0.6668 -0.3935
  446MOL0     C60107   9.014   2.887   8.268 -0.8421 -0.3195  0.4454
  446MOL0     C60108   8.879   2.927   8.274  0.0571 -0.1233 -0.0104
  446MOL0     C60109   8.781   2.849   8.204  0.1856  0.2996 -0.7023
  446MOL0     O60110   8.646   2.872   8.200 -0.5863 -0.2764  0.5082
  446MOL0     C60111   8.591   2.954   8.299 -0.5042 -0.7534  1.1701
  446MOL0     C60112   8.445   2.939   8.311 -0.5535 -0.4190  0.7421
  446MOL0     C60113   8.377   3.038   8.411  0.1949  0.8279 -0.3548
  446MOL0     C60114   8.234   2.980   8.439 -0.2356 -0.2917 -0.3307
  446MOL0     C60115   8.146   3.097   8.500 -0.4804  0.8279 -0.0762
  446MOL0     C60116   8.002   3.047   8.491 -0.1297  0.4614  0.1826
  446MOL0     C60117   7.912   3.157   8.539  0.6278 -0.6799 -0.4911
  446MOL0     C60118   7.765   3.129   8.508  0.9937 -0.0841 -0.2406
  446MOL0    Cl60119   7.754   3.117   8.336  0.0118  0.3140 -0.2974
  446MOL0     C60120   8.829   2.745   8.128  0.6655  0.2831 -0.4130
  446MOL0     C60121   8.959   2.700   8.129  0.0993 -0.7443 -0.2977
  446MOL0     O60122   9.175   2.519   8.188  0.4196  0.6828 -0.5316
  446MOL0     C60123   9.444   2.486   8.150  0.5235  0.2876 -0.2441
  446MOL0     C60124   9.583   2.476   8.164  0.3858 -0.4915 -0.5636
  446MOL0     N60125  10.140   2.175   8.486 -0.1373 -0.0480 -0.3451
  446MOL0     N60126  10.143   2.050   8.499  0.2791  0.6127 -0.5208
  446MOL0     C60127   9.071   1.419   8.250  0.1964 -0.2816 -0.6875
  446MOL0     C60128   8.931   1.406   8.283 -0.4291  0.1766 -0.2525
  446MOL0     C60129   8.639   1.298   8.649  0.1862 -0.3708  0.1882
  446MOL0     C60130   8.649   1.318   8.787 -0.2478 -0.3995 -0.6918
  446MOL0     C60131   8.556   1.263   8.875  0.6803 -0.3648  0.9507
  446MOL0     C60132   8.440   1.195   8.828 -0.1502 -0.2444  0.0484
  446MOL0     O60133   8.362   1.131   8.928 -0.8714  0.1161 -0.3653
  446MOL0     C60134   8.240   1.068   8.886 -0.3036 -0.3494  0.0047
  446MOL0     C60135   8.152   1.051   9.017  0.1169 -0.3266 -0.4064
  446MOL0     C60136   8.008   1.061   8.983  0.3342  0.7535  0.2028
  446MOL0     C60137   7.941   0.928   8.928  0.9366 -0.8471  0.5699
  446MOL0     C60138   7.807   0.958   8.873 -0.0062  0.3453 -0.4340
  446MOL0     C60139   7.702   0.992   8.817  0.6387  0.0006 -0.0861
  446MOL0     C60140   8.430   1.179   8.689 -0.3918 -0.6191 -0.1578
  446MOL0     C60141   8.533   1.224   8.601 -0.4786  1.5627 -0.1460
  446MOL0     C60142   8.516   1.171   8.465 -0.5960  0.1496 -0.4785
  446MOL0     H60143   8.994   1.145   8.524  0.9679 -1.9757 -1.1591
  446MOL0     H60144   9.215   1.173   8.425  3.0766  3.4411  0.0404
  446MOL0     H60145   9.419   1.297   8.426  1.1980 -1.1447 -0.6236
  446MOL0     H60146   9.396   1.177   8.297  0.3587 -0.9275  0.1184
  446MOL0     H60147   9.513   1.325   8.140 -2.3132  0.7688  0.9992
  446MOL0     H60148   9.621   1.252   8.269 -0.8896 -0.3742  0.9731
  446MOL0     H60149   9.508   1.533   8.273  0.4299  0.6186  1.3521
  446MOL0     H60150   9.666   1.487   8.201  0.2534  1.6954  0.7246
  446MOL0     H60151   9.601   1.456   8.505  3.2050  0.1213  2.4230
  446MOL0     H60152   9.745   1.427   8.414  0.1717 -1.7767 -2.4067
  446MOL0     H60153   9.701   1.694   8.336  0.1745  0.0481 -0.7350
  446MOL0     H60154   9.599   1.686   8.476 -1.2636 -0.6527 -0.7993
  446MOL0     H60155   9.798   1.655   8.625 -0.5397 -3.5777 -0.2588
  446MOL0     H60156   9.897   1.599   8.487  0.6649 -0.2146 -1.5234
  446MOL0     H60157   9.768   1.884   8.523 -2.0715 -1.6078 -0.6823
  446MOL0     H60158   9.852   1.835   8.388 -0.3956  0.5153  0.1033
  446MOL0     H60159  10.004   1.849   8.641 -1.5272 -0.0220 -0.0904
  446MOL0     H60160  10.063   1.790   8.486 -0.4241 -0.6381 -2.5281
  446MOL0     H60161   9.823   2.120   8.516  0.3346  3.5060 -0.2138
  446MOL0     H60162   9.843   2.342   8.463  0.5820 -1.7270 -0.2895
  446MOL0     H60163   9.954   2.377   8.601 -0.3169  1.2024  0.3552
  446MOL0     H60164   9.976   2.542   8.437 -3.0390 -2.0865  2.1042
  446MOL0     H60165  10.123   2.456   8.439 -0.3771  5.3816  2.4012
  446MOL0     H60166  10.034   2.327   8.220 -2.6241 -1.3802  1.8339
  446MOL0     H60167  10.050   2.509   8.209 -0.2176  0.1170 -1.0724
  446MOL0     H60168   9.797   2.355   8.257  1.4912  1.1314  3.0747
  446MOL0     H60169   9.855   2.409   8.102  1.1152  2.8524 -1.4542
  446MOL0     H60170   9.662   2.779   8.283 -0.2276  0.1222  0.3844
  446MOL0     H60171   9.433   2.806   8.272  0.8218  1.0397 -1.8040
  446MOL0     H60172   9.085   2.958   8.309 -0.7940 -1.2693  2.0676
  446MOL0     H60173   8.856   3.016   8.331  3.2161  1.2387 -0.6680
  446MOL0     H60174   8.643   2.941   8.394  1.0280  1.8923  0.7769
  446MOL0     H60175   8.602   3.055   8.257 -0.8649 -0.2471  2.2689
  446MOL0     H60176   8.406   2.956   8.210 -2.8759 -0.7041  1.5301
  446MOL0     H60177   8.424   2.835   8.338  0.6451 -1.5583 -2.2773
  446MOL0     H60178   8.421   3.050   8.510 -0.7782  0.4303  0.1373
  446MOL0     H60179   8.381   3.136   8.363  0.6141 -0.1306 -2.3892
  446MOL0     H60180   8.240   2.895   8.507 -0.0561 -0.3167 -0.3766
  446MOL0     H60181   8.183   2.956   8.345 -1.7277 -0.2585  0.4454
  446MOL0     H60182   8.172   3.190   8.449  0.6583  1.2287  1.1921
  446MOL0     H60183   8.174   3.106   8.605 -0.4943 -0.2343  0.0295
  446MOL0     H60184   7.979   3.020   8.387 -0.2118  0.7411  0.1257
  446MOL0     H60185   7.987   2.956   8.549 -0.6744 -0.0339 -0.7053
  446MOL0     H60186   7.940   3.254   8.498 -2.9302  1.6997  2.1272
  446MOL0     H60187   7.911   3.155   8.648  1.2454 -1.3399 -0.4916
  446MOL0     H60188   7.734   3.033   8.551  2.1818 -0.0959  0.6399
  446MOL0     H60189   7.700   3.205   8.553 -0.7660 -0.1625 -2.4769
  446MOL0     H60190   8.754   2.686   8.078  1.7940 -2.6244  1.1130
  446MOL0     H60191   8.984   2.608   8.077  2.1892 -0.5809  0.3171
  446MOL0     H60192   9.380   2.402   8.123  3.7080 -2.4526  0.0992
  446MOL0     H60193   9.620   2.375   8.147  1.4637 -0.5694  1.8208
  446MOL0     H60194   9.103   1.506   8.194 -1.3787  0.9556  0.2375
  446MOL0     H60195   8.860   1.480   8.247 -1.6233 -1.6805 -1.8762
  446MOL0     H60196   8.730   1.379   8.826 -0.1505 -0.9063 -0.0890
  446MOL0     H60197   8.570   1.266   8.982 -0.7996  0.5162  1.1503
  446MOL0     H60198   8.256   0.980   8.823 -1.3560  1.7258 -3.4567
  446MOL0     H60199   8.184   1.132   8.817 -1.5523 -0.7978  0.5697
  446MOL0     H60200   8.162   1.146   9.072 -0.9713 -1.2507  1.5068
  446MOL0     H60201   8.181   0.969   9.084 -3.0255 -1.0649  0.1918
  446MOL0     H60202   7.991   1.137   8.906 -0.8250 -2.3426 -2.8414
  446MOL0     H60203   7.952   1.090   9.072 -2.2841  3.1445 -1.9925
  446MOL0     H60204   8.011   0.899   8.849  2.4010  0.2250  1.4114
  446MOL0     H60205   7.946   0.843   8.997  3.0879 -1.1492  0.1197
  446MOL0     H60206   7.603   1.016   8.783  1.3088  3.3631  0.0007
  446MOL0     H60207   8.353   1.115   8.647 -1.7481  0.5391  0.4930
  446MOL0     H60208   8.597   1.100   8.445  1.1170  2.4054 -2.1836
  446MOL0     H60209   8.413   1.138   8.448  0.5921 -2.4436 -3.7399
  446MOL0     H60210   8.528   1.256   8.397 -2.1774  1.6838  1.0606
  447MOL0     O60211   1.781   3.171  10.150  0.5149  0.5579  0.2398
  447MOL0     C60212   1.686   3.214  10.215 -0.4848 -0.6808 -0.0405
  447MOL0     O60213   1.696   3.304  10.311 -0.2953  0.7680 -0.0572
  447MOL0     C60214   1.818   3.362  10.350 -0.1325  0.0080  0.1145
  447MOL0     C60215   1.835   3.503  10.339  0.3714 -0.2269  0.3982
  447MOL0     C60216   1.958   3.560  10.384 -0.1324  0.2929 -0.4996
  447MOL0     C60217   2.057   3.485  10.443 -0.1920 -0.6064 -0.5565
  447MOL0     O60218   2.183   3.535  10.457  0.2227  0.1739 -0.9964
  447MOL0     C60219   2.192   3.684  10.473 -0.3276 -0.1087  0.2075
  447MOL0     C60220   2.329   3.703  10.529  0.0905  0.3418  0.4130
  447MOL0     C60221   2.445   3.633  10.448 -0.4798  0.4337 -0.3513
  447MOL0     C60222   2.548   3.554  10.536 -0.4817 -0.5953 -0.2302
  447MOL0     C60223   2.669   3.505  10.452 -0.1734 -0.2026  0.4505
  447MOL0     C60224   2.782   3.444  10.535  0.6579 -0.1108  0.0701
  447MOL0     C60225   2.896   3.385  10.453  0.0074  0.5362 -0.7164
  447MOL0     C60226   2.991   3.489  10.404 -0.1514  0.6703  0.2311
  447MOL0     N60227   3.084   3.440  10.299  0.0934  0.5782 -0.0042
  447MOL0     C60228   3.212   3.399  10.326 -0.0299  0.1938  0.2527
  447MOL0     C60229   3.270   3.378  10.204  0.1106 -0.9311  0.8433
  447MOL0     C60230   3.412   3.345  10.178  0.2866 -1.0698 -0.3246
  447MOL0     C60231   3.437   3.198  10.149  0.3798  0.1582  0.4046
  447MOL0     C60232   3.587   3.172  10.133 -0.4592 -0.0758 -0.0044
  447MOL0     C60233   3.606   3.017  10.104  0.1800 -0.0962  0.0693
  447MOL0     O60234   3.729   2.973  10.168  0.5468  0.7187 -0.1960
  447MOL0     C60235   3.846   2.998  10.100 -0.2407 -0.1905 -0.0654
  447MOL0     C60236   3.959   3.005  10.184  0.0236  1.0751  0.3599
  447MOL0     C60237   4.089   3.019  10.129 -0.5530  0.0348  0.9365
  447MOL0     C60238   4.113   3.028   9.988  0.2630  0.0623 -0.4163
  447MOL0     C60239   4.243   3.026   9.933  0.2920  0.0341 -0.7494
  447MOL0     O60240   4.254   3.007   9.795  0.6823 -0.1508 -1.2224
  447MOL0     C60241   4.373   3.032   9.727 -0.8434 -0.3751 -0.7600
  447MOL0     C60242   4.377   2.979   9.599 -0.4309  0.7368 -0.0142
  447MOL0     C60243   4.483   3.003   9.510 -0.2761  0.1007  0.0909
  447MOL0     C60244   4.596   3.065   9.552  0.1717  0.5078 -0.1336
  447MOL0     O60245   4.706   3.075   9.467  0.4985 -0.3141 -0.1897
  447MOL0     C60246   4.790   3.189   9.475 -0.3616 -0.1649  0.0863
  447MOL0     C60247   4.863   3.209   9.340  0.1953 -0.1233  0.8270
  447MOL0     C60248   4.960   3.311   9.360 -0.6674 -0.0476  0.2300
  447MOL0     C60249   5.065   3.316   9.240  1.1119  0.0821 -0.2553
  447MOL0     C60250   5.166   3.428   9.265  0.2136  0.1911 -0.6993
  447MOL0     C60251   5.240   3.483   9.140  0.5175  0.6678 -0.7086
  447MOL0     C60252   5.287   3.367   9.041  0.8579  0.5989 -0.0341
  447MOL0     C60253   5.369   3.423   8.925 -0.2494  0.1405 -0.1176
  447MOL0    Cl60254   5.546   3.438   8.964 -0.2494 -0.1452 -0.3592
  447MOL0     C60255   4.600   3.129   9.683  0.4364 -0.8686 -0.4173
  447MOL0     C60256   4.495   3.107   9.775  0.5728 -0.1541  0.3022
  447MOL0     O60257   4.333   3.041  10.013  0.0653  0.3455  0.4856
  447MOL0     C60258   4.003   3.024   9.905  1.0217  0.4854  0.0042
  447MOL0     C60259   3.873   3.001   9.958 -0.5853 -0.9217  0.7441
  447MOL0     N60260   3.161   3.388  10.106 -0.2667  0.0522  0.1853
  447MOL0     N60261   3.057   3.431  10.168  0.0421 -0.2479  0.4718
  447MOL0     C60262   2.041   3.351  10.464  1.1175  0.2975  0.1497
  447MOL0     C60263   1.913   3.286  10.422 -0.5445 -0.2062  0.2072
  447MOL0     C60264   1.551   3.185  10.174  0.3742  0.2259  0.2006
  447MOL0     C60265   1.447   3.278  10.204 -1.0045  0.9753 -0.2571
  447MOL0     C60266   1.322   3.265  10.158  0.5953  0.5618  0.7836
  447MOL0     C60267   1.293   3.145  10.088  0.4701  0.4432  0.0865
  447MOL0     O60268   1.172   3.137  10.013  0.0032  0.0386 -0.1102
  447MOL0     C60269   1.111   3.257   9.974  0.0983  0.0448 -0.4053
  447MOL0     C60270   1.016   3.223   9.866  0.1447  0.6671 -0.5906
  447MOL0     C60271   0.941   3.349   9.828  0.0733  0.1397 -0.3243
  447MOL0     C60272   0.850   3.327   9.716 -0.3345  0.6535 -0.3849
  447MOL0     C60273   0.746   3.243   9.760 -0.1005  0.2080 -0.2614
  447MOL0     C60274   0.677   3.156   9.808  0.9299  0.0505  0.1811
  447MOL0     C60275   1.385   3.051  10.062  0.3277 -0.6047 -0.1335
  447MOL0     C60276   1.516   3.066  10.104 -0.7576 -0.0817 -0.4127
  447MOL0     C60277   1.616   2.958  10.070  0.3572 -0.2966  0.5177
  447MOL0     H60278   1.748   3.560  10.308 -0.6027 -2.0426 -0.3722
  447MOL0     H60279   1.970   3.668  10.375  2.2785  0.2973  1.7079
  447MOL0     H60280   2.179   3.749  10.386 -1.1447 -0.9048 -0.2815
  447MOL0     H60281   2.125   3.725  10.550  0.9277  0.0109  1.2805
  447MOL0     H60282   2.315   3.656  10.627  1.8893 -1.2503 -0.0239
  447MOL0     H60283   2.355   3.809  10.534  0.3161  0.2983  0.1877
  447MOL0     H60284   2.500   3.706  10.387 -2.2875  1.3679 -0.9201
  447MOL0     H60285   2.397   3.567  10.375 -2.7590  0.7022  0.8395
  447MOL0     H60286   2.578   3.623  10.615 -0.7190 -0.3401 -0.3603
  447MOL0     H60287   2.492   3.475  10.587  0.0563  0.0021  1.3483
  447MOL0     H60288   2.637   3.426  10.384  0.5950 -0.1888  0.0622
  447MOL0     H60289   2.712   3.590  10.398 -2.4278  0.4476 -0.4162
  447MOL0     H60290   2.818   3.518  10.607  1.8774  0.7827 -1.4063
  447MOL0     H60291   2.751   3.356  10.593  0.0142 -0.7378 -1.1921
  447MOL0     H60292   2.851   3.343  10.364  2.2254  0.3630 -1.8250
  447MOL0     H60293   2.945   3.307  10.512 -2.2099 -0.6176 -0.3114
  447MOL0     H60294   2.932   3.569  10.359 -0.3741 -0.2347 -1.1660
  447MOL0     H60295   3.039   3.536  10.490 -0.9260  0.3287  0.8674
  447MOL0     H60296   3.255   3.405  10.425  0.5014  4.3783 -0.0379
  447MOL0     H60297   3.440   3.408  10.094 -1.7886  0.4294  0.0380
  447MOL0     H60298   3.471   3.368  10.268  0.5679 -0.3247 -0.6871
  447MOL0     H60299   3.403   3.136  10.233  0.9383 -1.4114 -0.4917
  447MOL0     H60300   3.377   3.167  10.063 -5.2533  0.9926  3.5352
  447MOL0     H60301   3.649   3.208  10.216  1.0582 -0.2277 -1.0193
  447MOL0     H60302   3.626   3.212  10.039 -0.6881 -1.0808 -0.5364
  447MOL0     H60303   3.613   3.008   9.995  0.3351  0.4533  0.0296
  447MOL0     H60304   3.515   2.965  10.133 -1.0662 -0.6515 -4.1323
  447MOL0     H60305   3.942   2.992  10.290 -0.5582  0.7465  0.2321
  447MOL0     H60306   4.174   3.018  10.195 -1.0104 -1.0689  1.5414
  447MOL0     H60307   4.292   2.927   9.556 -2.2376  3.2523  0.2819
  447MOL0     H60308   4.464   2.957   9.413 -1.5326  0.6641  0.0530
  447MOL0     H60309   4.728   3.274   9.502 -0.5121 -1.1277  3.1244
  447MOL0     H60310   4.852   3.177   9.564 -1.6686  1.2837  1.2567
  447MOL0     H60311   4.901   3.107   9.329 -0.3609 -0.4466  1.7284
  447MOL0     H60312   4.797   3.228   9.254  1.7692  0.8464 -0.2119
  447MOL0     H60313   4.918   3.411   9.374 -1.9944 -0.1787 -2.3763
  447MOL0     H60314   5.019   3.280   9.447 -0.0691 -2.0555 -0.8138
  447MOL0     H60315   5.008   3.335   9.149 -1.1755  2.2046  1.4788
  447MOL0     H60316   5.123   3.224   9.243  2.1023  0.7165  1.1505
  447MOL0     H60317   5.238   3.380   9.331 -0.6368 -0.7831 -0.4664
  447MOL0     H60318   5.123   3.516   9.315  0.2115 -0.2198  0.0317
  447MOL0     H60319   5.173   3.553   9.089  0.3423  0.0804 -1.2821
  447MOL0     H60320   5.331   3.537   9.170  0.1795  0.1084  1.5599
  447MOL0     H60321   5.199   3.320   8.996  1.4735  1.9155 -2.8496
  447MOL0     H60322   5.350   3.286   9.079 -0.8986 -1.0762 -0.5549
  447MOL0     H60323   5.367   3.358   8.837  0.5796 -0.4983  0.3174
  447MOL0     H60324   5.320   3.512   8.885 -0.7906  0.2753  0.8319
  447MOL0     H60325   4.683   3.189   9.718 -0.1548 -0.7139  0.7916
  447MOL0     H60326   4.489   3.149   9.875 -1.1521  0.0310  0.1556
  447MOL0     H60327   4.007   3.045   9.799  0.8258  2.5243  0.3775
  447MOL0     H60328   3.791   2.992   9.887  0.8095 -0.0092 -1.0717
  447MOL0     H60329   2.122   3.299  10.515  1.1857  3.5473  3.7500
  447MOL0     H60330   1.892   3.181  10.439  1.1626 -0.4644  0.9396
  447MOL0     H60331   1.469   3.363  10.268  2.9300  2.5802 -3.2927
  447MOL0     H60332   1.242   3.334  10.185 -2.5076 -1.0122 -3.3739
  447MOL0     H60333   1.187   3.329   9.941  2.6306 -1.4977  1.6506
  447MOL0     H60334   1.050   3.282  10.061  1.9503  1.6129  0.5181
  447MOL0     H60335   0.940   3.152   9.900 -0.3716  1.9162  1.0051
  447MOL0     H60336   1.070   3.199   9.774 -1.7212  0.5753 -1.7314
  447MOL0     H60337   1.018   3.424   9.805  1.1290 -1.3375 -1.8974
  447MOL0     H60338   0.887   3.394   9.912  0.8149  0.2549  0.0979
  447MOL0     H60339   0.808   3.425   9.690  2.1135  0.8858 -4.3844
  447MOL0     H60340   0.898   3.298   9.622 -0.5951  0.2599 -0.4002
  447MOL0     H60341   0.617   3.082   9.858 -1.0273  1.1628 -0.4383
  447MOL0     H60342   1.356   2.969   9.997 -1.6788 -1.0016  1.1727
  447MOL0     H60343   1.685   2.937  10.152  0.2168  0.6071  0.8722
  447MOL0     H60344   1.569   2.861  10.052 -4.0551  1.6496  0.3582
  447MOL0     H60345   1.669   2.996   9.982 -1.6014 -0.6960 -0.9049
  448MOL0     O60346   9.910   6.642   6.425  0.0661  0.3857  0.0655
  448MOL0     C60347  10.010   6.584   6.463 -0.6364 -0.4486  0.0784
  448MOL0     O60348  10.143   6.623   6.438  0.2543 -0.7763 -0.2150
  448MOL0     C60349  10.178   6.729   6.352  0.2429  0.3916  0.1563
  448MOL0     C60350  10.104   6.765   6.246  0.0275 -0.3529 -0.4024
  448MOL0     C60351  10.168   6.865   6.165  0.0345  0.3521 -0.8240
  448MOL0     C60352  10.296   6.914   6.181 -0.0581 -0.4567 -0.4581
  448MOL0     O60353  10.365   7.010   6.106 -0.3777  0.3849  0.8636
  448MOL0     C60354  10.334   7.027   5.964  1.0452 -0.0912  0.0191
  448MOL0     C60355  10.413   7.140   5.898 -1.1415 -0.3148 -0.5796
  448MOL0     C60356  10.563   7.123   5.883  0.1202 -0.4185 -0.4859
  448MOL0     C60357  10.640   7.243   5.814 -0.1274 -0.6520 -0.1332
  448MOL0     C60358  10.781   7.210   5.777 -0.7076  0.0704  0.0596
  448MOL0     C60359  10.876   7.219   5.898  0.4853 -0.3388  0.7791
  448MOL0     C60360  11.021   7.211   5.846 -0.0529 -0.5007  1.7370
  448MOL0     C60361  11.116   7.185   5.958 -0.1918  0.6551 -0.7161
  448MOL0     N60362  11.252   7.169   5.900 -0.5421 -0.1844  0.1395
  448MOL0     C60363  11.300   7.056   5.851 -0.4664  0.0977  0.3955
  448MOL0     C60364  11.434   7.061   5.858  0.2693 -0.9025  0.0528
  448MOL0     C60365  11.503   6.951   5.803 -0.7260  0.4763  0.2154
  448MOL0     C60366  11.634   6.933   5.882 -0.2875 -0.0506 -0.1683
  448MOL0     C60367  11.606   6.907   6.028  0.5907  0.7187  0.1575
  448MOL0     C60368  11.729   6.882   6.117  0.1471  0.0619 -0.6051
  448MOL0     O60369  11.798   6.764   6.071 -0.0620 -0.9321 -0.1625
  448MOL0     C60370  11.939   6.752   6.085 -0.0417 -0.1783 -0.3763
  448MOL0     C60371  11.998   6.632   6.032  0.7686 -0.3638 -0.3823
  448MOL0     C60372  12.134   6.626   6.040  0.5271 -0.7275  0.1197
  448MOL0     C60373  12.219   6.714   6.116  1.0816 -0.0956  0.2269
  448MOL0     C60374  12.366   6.688   6.123 -0.4254 -0.0344  0.5031
  448MOL0     O60375  12.413   6.567   6.075  0.0517 -0.1917 -0.3116
  448MOL0     C60376  12.551   6.554   6.040  0.3682  0.1356 -0.6059
  448MOL0     C60377  12.616   6.607   5.932  0.4903 -0.2992 -0.7248
  448MOL0     C60378  12.749   6.587   5.914 -0.2158  0.3950 -0.1762
  448MOL0     C60379  12.822   6.505   6.010 -0.0442  0.9153  0.5843
  448MOL0     O60380  12.958   6.475   6.002 -0.6405  0.6645 -0.4196
  448MOL0     C60381  13.036   6.553   5.914 -0.6821 -0.0353 -0.1056
  448MOL0     C60382  13.189   6.508   5.913 -0.2321 -0.1248 -0.2997
  448MOL0     C60383  13.251   6.488   6.053  0.2409 -0.8845  0.1403
  448MOL0     C60384  13.397   6.455   6.035  0.8735 -0.0060  0.2345
  448MOL0     C60385  13.457   6.402   6.167  0.2570  0.1866  0.8449
  448MOL0     C60386  13.594   6.334   6.140  0.0203  0.8131 -0.1761
  448MOL0     C60387  13.659   6.274   6.263 -0.4083 -0.0676 -0.7676
  448MOL0     C60388  13.663   6.349   6.390 -0.4106  0.3939  0.0008
  448MOL0    Cl60389  13.791   6.477   6.378  0.2582 -0.1966 -0.1680
  448MOL0     C60390  12.754   6.450   6.120  1.0584  0.1639 -0.9633
  448MOL0     C60391  12.614   6.467   6.136  0.0705 -0.6447 -0.0077
  448MOL0     O60392  12.436   6.779   6.159 -0.2518  0.1290  0.1089
  448MOL0     C60393  12.151   6.815   6.180  0.2952 -0.5480  0.0137
  448MOL0     C60394  12.015   6.842   6.154 -0.3789 -0.3241 -0.9778
  448MOL0     N60395  11.473   7.189   5.896 -0.0249  0.5377  0.0039
  448MOL0     N60396  11.367   7.244   5.938 -0.6592  0.0850 -0.3489
  448MOL0     C60397  10.364   6.873   6.299  0.5509  0.3156 -0.4138
  448MOL0     C60398  10.317   6.768   6.373 -0.2632  0.7281  0.4132
  448MOL0     C60399   9.995   6.444   6.503  0.1329  1.4282  0.7191
  448MOL0     C60400  10.090   6.352   6.457  0.6499  0.2406 -0.1525
  448MOL0     C60401  10.082   6.216   6.485 -1.1807  0.5315 -0.1165
  448MOL0     C60402   9.986   6.163   6.573  0.2031  0.6263 -0.0590
  448MOL0     O60403   9.995   6.029   6.602 -0.0694 -0.2782  0.0786
  448MOL0     C60404   9.879   5.954   6.668 -0.2194 -0.0407 -0.1264
  448MOL0     C60405   9.763   5.939   6.567 -0.4753  0.0728 -0.1318
  448MOL0     C60406   9.815   5.878   6.427  0.6738 -0.3735 -0.1054
  448MOL0     C60407   9.705   5.850   6.335 -0.1632 -0.0952 -0.0037
  448MOL0     C60408   9.759   5.769   6.225  0.2996  0.6501  0.3824
  448MOL0     C60409   9.810   5.709   6.135 -0.2106  0.0466  0.7684
  448MOL0     C60410   9.897   6.256   6.630  0.0417 -0.2522 -0.7045
  448MOL0     C60411   9.886   6.396   6.588 -0.3484 -0.0353 -0.7979
  448MOL0     C60412   9.784   6.488   6.641 -0.3335 -0.1826  0.0675
  448MOL0     H60413  10.001   6.733   6.231 -0.6857  1.8837 -0.6897
  448MOL0     H60414  10.114   6.911   6.083 -0.4203 -0.6212 -1.0820
  448MOL0     H60415  10.352   6.933   5.912 -1.1494 -0.8711  0.5466
  448MOL0     H60416  10.227   7.045   5.948  1.0476  1.0574  1.0492
  448MOL0     H60417  10.401   7.222   5.970  2.8049 -1.9322  2.3070
  448MOL0     H60418  10.379   7.159   5.795  3.0054 -3.3883 -2.8456
  448MOL0     H60419  10.572   7.042   5.810  2.7450 -0.9670  0.3328
  448MOL0     H60420  10.627   7.109   5.970 -1.4618 -1.0236  0.6297
  448MOL0     H60421  10.575   7.270   5.730  0.6016  0.5317 -0.3421
  448MOL0     H60422  10.635   7.332   5.877 -1.8719 -2.7668  2.9760
  448MOL0     H60423  10.786   7.109   5.736  2.5341 -0.3582  1.2469
  448MOL0     H60424  10.806   7.280   5.698 -3.3533 -0.7538 -1.6394
  448MOL0     H60425  10.867   7.312   5.955  0.3567 -1.0494  1.9542
  448MOL0     H60426  10.861   7.140   5.972 -2.6819  0.3614  1.0326
  448MOL0     H60427  11.043   7.307   5.799  0.1649 -0.1105  2.6109
  448MOL0     H60428  11.027   7.136   5.767  0.0016 -0.5446  1.7830
  448MOL0     H60429  11.116   7.266   6.032 -0.4217 -0.0857  0.1137
  448MOL0     H60430  11.083   7.093   6.007 -1.3448  1.4990  0.1427
  448MOL0     H60431  11.241   6.971   5.818  1.7308 -1.1203 -0.6447
  448MOL0     H60432  11.444   6.860   5.817  2.3205 -2.0231 -1.7643
  448MOL0     H60433  11.513   6.946   5.694 -2.4467  1.2505 -0.0024
  448MOL0     H60434  11.689   6.848   5.841  1.9453  1.7422 -1.1197
  448MOL0     H60435  11.703   7.017   5.874  2.8639 -2.3446  1.0857
  448MOL0     H60436  11.545   6.816   6.021 -0.9074  1.7017 -0.0514
  448MOL0     H60437  11.543   6.982   6.077 -1.5142  0.2929 -1.7428
  448MOL0     H60438  11.692   6.856   6.216 -0.4851 -1.1316 -1.1432
  448MOL0     H60439  11.788   6.974   6.130 -1.3130  1.2853 -2.1545
  448MOL0     H60440  11.935   6.563   5.977  1.0302  0.1858 -1.4002
  448MOL0     H60441  12.187   6.553   5.979 -2.9157 -0.9664 -2.9524
  448MOL0     H60442  12.557   6.676   5.873 -2.5771  0.3040  2.6287
  448MOL0     H60443  12.794   6.633   5.826  0.1495 -1.2009 -0.8805
  448MOL0     H60444  12.999   6.555   5.811  3.3905  2.9863 -1.7522
  448MOL0     H60445  13.024   6.656   5.949 -0.3524  0.7007 -2.0502
  448MOL0     H60446  13.196   6.409   5.868  0.0502 -0.1055 -0.2975
  448MOL0     H60447  13.250   6.570   5.847 -1.6699 -0.4036 -1.9705
  448MOL0     H60448  13.246   6.573   6.121 -1.5459  0.9052 -2.1060
  448MOL0     H60449  13.200   6.408   6.108  1.6721 -1.4956  0.6457
  448MOL0     H60450  13.455   6.538   5.993 -0.9007  1.6190  0.8517
  448MOL0     H60451  13.408   6.372   5.965  5.1502  0.6591 -0.1749
  448MOL0     H60452  13.380   6.343   6.217 -1.2385  1.2466 -0.1039
  448MOL0     H60453  13.473   6.494   6.224  1.6889  0.9199 -0.6621
  448MOL0     H60454  13.575   6.257   6.065 -2.8415  0.6104  0.6575
  448MOL0     H60455  13.660   6.404   6.088  1.1713 -0.1327 -0.0632
  448MOL0     H60456  13.762   6.252   6.236 -1.0972 -1.5449 -2.3875
  448MOL0     H60457  13.618   6.173   6.270  2.6427 -1.3187  0.7073
  448MOL0     H60458  13.567   6.388   6.427 -1.1047 -0.9606 -0.3049
  448MOL0     H60459  13.697   6.278   6.466  2.5139  1.2851 -0.3771
  448MOL0     H60460  12.809   6.380   6.182  2.2744  0.2406 -1.9106
  448MOL0     H60461  12.552   6.424   6.214  1.0263  0.6192  1.5076
  448MOL0     H60462  12.201   6.886   6.245 -0.6775  0.6620 -0.5030
  448MOL0     H60463  11.970   6.926   6.205  0.6086 -2.1328  3.3741
  448MOL0     H60464  10.463   6.909   6.323  1.0379  0.9705 -3.0745
  448MOL0     H60465  10.380   6.710   6.440 -0.3817 -1.3812 -1.1996
  448MOL0     H60466  10.163   6.388   6.386  0.2606  2.1484  0.3653
  448MOL0     H60467  10.149   6.148   6.433 -1.7630 -0.9555  1.0102
  448MOL0     H60468   9.845   5.997   6.763  1.9932 -1.9059  1.6466
  448MOL0     H60469   9.922   5.856   6.693  1.3608  0.6478 -0.0064
  448MOL0     H60470   9.720   6.035   6.538  0.0404  0.0308 -1.0696
  448MOL0     H60471   9.687   5.871   6.605 -0.3899 -0.0950 -0.2577
  448MOL0     H60472   9.862   5.783   6.453  0.1641 -0.1422  1.8705
  448MOL0     H60473   9.896   5.938   6.384  0.2002 -0.0476 -0.5488
  448MOL0     H60474   9.625   5.793   6.384  0.2014 -2.1147 -1.6298
  448MOL0     H60475   9.665   5.946   6.302 -0.9145 -0.1326  0.7417
  448MOL0     H60476   9.859   5.667   6.049 -0.2302  2.6236 -0.6118
  448MOL0     H60477   9.850   6.210   6.716  1.4078  0.1457  0.2829
  448MOL0     H60478   9.719   6.525   6.561  0.0650  0.4544  0.0342
  448MOL0     H60479   9.709   6.434   6.699 -1.7502  1.1979 -0.4181
  448MOL0     H60480   9.818   6.572   6.702  2.8893  0.7732 -2.7339
  449MOL0     O60481   0.858   7.894   5.433 -0.0235  0.1691  0.5229
  449MOL0     C60482   0.783   7.888   5.336  0.7130 -0.1379  0.2874
  449MOL0     O60483   0.831   7.896   5.210 -0.4048 -0.0865 -0.0802
  449MOL0     C60484   0.961   7.923   5.202 -0.3163 -0.3737 -0.2751
  449MOL0     C60485   0.996   8.057   5.207 -0.2983  0.4703 -0.1894
  449MOL0     C60486   1.136   8.087   5.216  0.7347  0.4746 -0.1378
  449MOL0     C60487   1.228   7.989   5.222 -0.1860  0.5689 -0.2009
  449MOL0     O60488   1.363   8.028   5.232 -0.0457  0.0934 -0.5417
  449MOL0     C60489   1.461   7.935   5.286 -0.2938 -0.2458  0.1503
  449MOL0     C60490   1.580   8.008   5.356  0.3616  0.2258 -0.3860
  449MOL0     C60491   1.716   7.947   5.317  0.3353  0.2596  0.3963
  449MOL0     C60492   1.834   8.007   5.390 -0.4164 -0.1691  0.4993
  449MOL0     C60493   1.962   7.951   5.321 -0.3856 -0.7882 -0.2000
  449MOL0     C60494   2.086   7.986   5.397  0.1130 -0.6195  0.2400
  449MOL0     C60495   2.219   7.947   5.328 -0.1425  0.8457 -0.6849
  449MOL0     C60496   2.342   7.961   5.428  0.0908  0.3105 -0.6079
  449MOL0     N60497   2.456   7.900   5.354 -0.0566 -0.5157 -0.4537
  449MOL0     C60498   2.510   7.778   5.369 -0.1374  0.2387  0.1625
  449MOL0     C60499   2.621   7.777   5.289 -0.3969 -0.2318  0.2770
  449MOL0     C60500   2.705   7.652   5.261 -0.1022 -0.0954 -0.4127
  449MOL0     C60501   2.854   7.664   5.319  0.0004  0.0257  0.5540
  449MOL0     C60502   2.944   7.757   5.244 -0.2499 -0.4098  0.2966
  449MOL0     C60503   3.089   7.735   5.288 -0.2624 -0.1380  0.5259
  449MOL0     O60504   3.139   7.603   5.269 -0.4136  0.8469  0.3600
  449MOL0     C60505   3.274   7.573   5.257  0.1461 -1.0309 -0.3530
  449MOL0     C60506   3.312   7.446   5.250 -0.2089 -0.3149 -0.1728
  449MOL0     C60507   3.444   7.394   5.240  0.2714 -0.8093 -0.1297
  449MOL0     C60508   3.551   7.486   5.241  0.3046  0.1156 -0.2110
  449MOL0     C60509   3.690   7.439   5.246  0.7559  0.0128 -0.6801
  449MOL0     O60510   3.779   7.518   5.308  0.3435 -0.2149  0.1856
  449MOL0     C60511   3.906   7.474   5.326 -0.0553 -0.3968 -0.5340
  449MOL0     C60512   3.935   7.385   5.426  0.4397  0.6182 -0.5496
  449MOL0     C60513   4.065   7.330   5.447 -0.2919  0.6741  0.5688
  449MOL0     C60514   4.172   7.353   5.358 -0.1156 -0.0212  0.5383
  449MOL0     O60515   4.288   7.308   5.395 -0.2675  1.0150  0.3920
  449MOL0     C60516   4.403   7.315   5.305 -0.5277  0.6323 -0.4934
  449MOL0     C60517   4.510   7.221   5.360  0.2092 -0.0571  0.4661
  449MOL0     C60518   4.629   7.211   5.260  0.0635 -0.0787  0.9853
  449MOL0     C60519   4.731   7.322   5.293 -0.9041  0.5472  0.0686
  449MOL0     C60520   4.867   7.321   5.219 -0.2797  0.0997 -0.3175
  449MOL0     C60521   4.966   7.422   5.284 -0.1325  0.5963 -0.2643
  449MOL0     C60522   5.092   7.424   5.187  0.3079  0.2560 -0.0226
  449MOL0     C60523   5.170   7.545   5.221  0.4686  0.1289 -0.0864
  449MOL0    Cl60524   5.078   7.702   5.196  0.1932 -0.1747  0.1302
  449MOL0     C60525   4.145   7.447   5.255  0.4084  0.1761  0.3870
  449MOL0     C60526   4.013   7.500   5.240  0.7767 -0.0092  0.3870
  449MOL0     O60527   3.719   7.331   5.197  0.1961 -0.2746 -0.0655
  449MOL0     C60528   3.515   7.627   5.250  0.2632  0.5238  0.2779
  449MOL0     C60529   3.374   7.672   5.252  0.2253 -0.4973  0.3659
  449MOL0     N60530   2.632   7.901   5.222 -0.1470  0.1230  0.3726
  449MOL0     N60531   2.526   7.969   5.261  0.1768  0.6225 -0.1047
  449MOL0     C60532   1.189   7.853   5.210 -0.0952  0.2811  0.5093
  449MOL0     C60533   1.055   7.816   5.203 -0.4345 -1.2675  0.1073
  449MOL0     C60534   0.640   7.853   5.360 -0.0274  0.5450  0.1419
  449MOL0     C60535   0.590   7.911   5.472  0.8356 -0.7383 -0.0041
  449MOL0     C60536   0.456   7.898   5.509  0.0890  0.2449 -0.5371
  449MOL0     C60537   0.371   7.816   5.432 -0.3987  0.5287 -0.4874
  449MOL0     O60538   0.235   7.792   5.457  0.0866  0.3116 -0.2782
  449MOL0     C60539   0.166   7.878   5.551 -0.4832 -0.1428 -0.3034
  449MOL0     C60540   0.038   7.803   5.567  0.1101 -0.5759 -0.1469
  449MOL0     C60541  -0.061   7.888   5.652 -0.0143 -0.4957  0.1047
  449MOL0     C60542  -0.208   7.883   5.621  0.2065  0.1787 -0.3410
  449MOL0     C60543  -0.286   7.938   5.737  0.2618 -0.7236  0.2906
  449MOL0     C60544  -0.359   7.991   5.822  0.3679  1.4859 -0.7838
  449MOL0     C60545   0.425   7.755   5.316  0.4277  0.6732 -0.5800
  449MOL0     C60546   0.558   7.787   5.278 -0.2116 -0.4785 -0.1557
  449MOL0     C60547   0.594   7.737   5.147 -0.6265 -0.8535  1.0145
  449MOL0     H60548   0.933   8.146   5.202  1.5272  1.8090 -0.1160
  449MOL0     H60549   1.173   8.189   5.220  2.2735  0.0447 -2.0235
  449MOL0     H60550   1.412   7.876   5.363 -0.2509  1.6921  1.7453
  449MOL0     H60551   1.505   7.868   5.211  1.3347  0.6729  0.2229
  449MOL0     H60552   1.564   8.018   5.464 -2.7676 -0.5208 -0.6788
  449MOL0     H60553   1.569   8.114   5.329 -2.5454  0.0254 -0.2423
  449MOL0     H60554   1.733   7.966   5.210 -0.9578 -3.3179 -0.5688
  449MOL0     H60555   1.714   7.838   5.320 -0.3333  0.2283 -0.6708
  449MOL0     H60556   1.833   8.116   5.384  1.1392 -0.0010  2.2427
  449MOL0     H60557   1.832   7.979   5.496  1.7879  1.4917  1.0665
  449MOL0     H60558   1.973   7.843   5.317  1.4338 -0.9296  4.0296
  449MOL0     H60559   1.970   7.988   5.218  2.4232 -3.1282 -0.9466
  449MOL0     H60560   2.092   8.095   5.399  2.3257 -0.6951  1.8764
  449MOL0     H60561   2.067   7.943   5.496 -0.4284 -0.7116  0.0961
  449MOL0     H60562   2.232   8.014   5.242  1.6864  1.8679  0.3235
  449MOL0     H60563   2.206   7.841   5.305  0.0651  1.0976 -2.0962
  449MOL0     H60564   2.347   8.064   5.465 -1.3722 -0.4612  2.0360
  449MOL0     H60565   2.324   7.906   5.520 -2.2979 -1.5159 -2.0353
  449MOL0     H60566   2.469   7.696   5.425 -1.8908  2.1223  1.7864
  449MOL0     H60567   2.651   7.567   5.303 -1.7162  0.4497 -1.2924
  449MOL0     H60568   2.708   7.642   5.152 -2.6869  1.5569 -0.7232
  449MOL0     H60569   2.861   7.685   5.426 -0.7839 -0.8193  0.7938
  449MOL0     H60570   2.903   7.567   5.307 -0.9176 -0.1053 -4.0584
  449MOL0     H60571   2.930   7.862   5.271  1.5103 -0.2768  0.7925
  449MOL0     H60572   2.939   7.757   5.135  1.5439 -1.0388  0.1858
  449MOL0     H60573   3.106   7.779   5.386  3.4495  0.6818 -0.3030
  449MOL0     H60574   3.154   7.795   5.223  0.3738 -3.1239 -1.8602
  449MOL0     H60575   3.231   7.374   5.242 -0.1384 -0.5290  0.9573
  449MOL0     H60576   3.451   7.286   5.245 -1.1895 -1.1090 -2.8730
  449MOL0     H60577   3.866   7.339   5.496  2.1932 -0.7001  0.3909
  449MOL0     H60578   4.069   7.251   5.521 -0.8583  0.1362  0.0402
  449MOL0     H60579   4.376   7.270   5.209  0.0620  0.9000 -0.7874
  449MOL0     H60580   4.439   7.416   5.285 -1.9183  0.5781 -4.0709
  449MOL0     H60581   4.539   7.258   5.459  1.3134 -0.4337  0.3007
  449MOL0     H60582   4.473   7.119   5.375  0.4860 -0.2865 -0.3285
  449MOL0     H60583   4.669   7.111   5.279  0.7908  0.6764  3.9591
  449MOL0     H60584   4.598   7.208   5.156 -0.7122  1.2119  1.1488
  449MOL0     H60585   4.756   7.303   5.398  0.5371 -2.8092 -0.7391
  449MOL0     H60586   4.683   7.419   5.280 -1.6237  0.2540  0.4980
  449MOL0     H60587   4.842   7.355   5.118  0.6216  0.0525 -0.5691
  449MOL0     H60588   4.909   7.221   5.202  0.4595  0.3498  0.0178
  449MOL0     H60589   4.917   7.519   5.295  2.0924  1.8793 -0.9996
  449MOL0     H60590   4.988   7.373   5.379  0.0790 -0.7098 -0.9532
  449MOL0     H60591   5.066   7.424   5.081 -0.4615 -1.3224  0.1402
  449MOL0     H60592   5.163   7.344   5.208 -1.3702 -1.5618 -1.0221
  449MOL0     H60593   5.190   7.537   5.328 -5.7614 -1.7973  1.3460
  449MOL0     H60594   5.262   7.550   5.161  0.2901  0.9442 -0.2983
  449MOL0     H60595   4.224   7.483   5.191 -1.7196 -0.7427 -3.0934
  449MOL0     H60596   4.001   7.550   5.145 -0.7190 -0.2369  0.4250
  449MOL0     H60597   3.597   7.696   5.265  1.8555 -1.4694  1.1940
  449MOL0     H60598   3.342   7.776   5.261  0.1521 -0.5859  1.2126
  449MOL0     H60599   1.261   7.772   5.209 -1.8827 -1.4013 -1.1713
  449MOL0     H60600   1.029   7.711   5.199 -0.0821 -1.3670  0.3721
  449MOL0     H60601   0.662   7.963   5.534 -0.1079  0.7384 -0.0766
  449MOL0     H60602   0.430   7.952   5.599  2.3186 -3.2245  2.4880
  449MOL0     H60603   0.148   7.981   5.518 -0.2427 -0.2303 -0.7240
  449MOL0     H60604   0.217   7.895   5.646 -1.7430  1.4495  0.1236
  449MOL0     H60605   0.057   7.706   5.614  0.1768 -1.2972 -1.6385
  449MOL0     H60606  -0.019   7.785   5.476 -4.0265 -0.9239  2.2601
  449MOL0     H60607  -0.042   7.996   5.652 -1.3054 -0.2415 -1.3798
  449MOL0     H60608  -0.045   7.849   5.753 -0.6572 -1.1294 -0.0331
  449MOL0     H60609  -0.221   7.943   5.531  2.8158 -1.1385 -1.7222
  449MOL0     H60610  -0.239   7.780   5.599  4.3995 -0.9238 -2.3223
  449MOL0     H60611  -0.424   8.054   5.880 -0.7216  0.2900 -0.6524
  449MOL0     H60612   0.356   7.688   5.264  1.9827  0.7581 -2.8827
  449MOL0     H60613   0.547   7.639   5.133  1.4103 -1.7456 -0.2139
  449MOL0     H60614   0.572   7.813   5.071  0.2163 -0.2110  1.3953
  449MOL0     H60615   0.698   7.704   5.133 -0.8157 -1.5349  1.2047
  450MOL0     O60616   9.066   3.926  10.955 -0.1848  0.2082  1.2367
  450MOL0     C60617   8.987   4.012  10.960  0.4600  0.3389 -0.0781
  450MOL0     O60618   9.002   4.143  10.913  0.2219 -0.6655  0.3475
  450MOL0     C60619   9.124   4.161  10.855  0.0111  0.4746  0.0885
  450MOL0     C60620   9.148   4.179  10.717 -0.0373  0.3121 -0.4184
  450MOL0     C60621   9.278   4.217  10.674  0.0011  0.7594 -0.3710
  450MOL0     C60622   9.389   4.212  10.756  0.9135  0.2217  0.6902
  450MOL0     O60623   9.511   4.235  10.701 -0.0528  0.3062 -0.1989
  450MOL0     C60624   9.635   4.216  10.776  0.3990  0.3693 -0.2471
  450MOL0     C60625   9.736   4.290  10.699  0.6557  0.6711  0.0008
  450MOL0     C60626   9.869   4.296  10.777  0.4559 -0.0377  0.5681
  450MOL0     C60627   9.989   4.236  10.701 -0.1217 -0.3201  0.7577
  450MOL0     C60628  10.112   4.229  10.784  0.1732  0.1438 -0.0081
  450MOL0     C60629  10.111   4.117  10.889 -0.3981 -0.1138  0.1338
  450MOL0     C60630  10.232   4.129  10.981  0.6579  0.2529  0.3004
  450MOL0     C60631  10.280   4.000  11.056  0.3063 -0.8939  0.0578
  450MOL0     N60632  10.325   3.895  10.961  0.2568 -0.1799  0.1792
  450MOL0     C60633  10.260   3.778  10.941  0.8986 -0.3547 -0.3631
  450MOL0     C60634  10.339   3.697  10.872 -0.1842  0.0848  0.5596
  450MOL0     C60635  10.305   3.555  10.832  0.3395 -0.4010 -0.2551
  450MOL0     C60636  10.213   3.557  10.701 -0.1257  0.1491  1.6598
  450MOL0     C60637  10.264   3.462  10.587  0.1836  0.3698 -0.0079
  450MOL0     C60638  10.254   3.311  10.608  0.6224 -0.0636 -0.2811
  450MOL0     O60639  10.334   3.257  10.715  0.7239  0.0342  0.5555
  450MOL0     C60640  10.464   3.240  10.691 -0.3524  0.0075  0.4812
  450MOL0     C60641  10.536   3.227  10.569  0.2428  1.1834 -0.8370
  450MOL0     C60642  10.676   3.190  10.567  0.4141  0.7192  0.6468
  450MOL0     C60643  10.747   3.183  10.684 -0.2099 -1.0943 -0.0894
  450MOL0     C60644  10.884   3.131  10.683 -0.1088 -0.0627  0.3062
  450MOL0     O60645  10.941   3.122  10.563 -0.8373  0.2773 -0.2672
  450MOL0     C60646  11.070   3.070  10.552  0.8378 -0.0187  0.8359
  450MOL0     C60647  11.148   3.131  10.465 -0.4459  0.1811  0.4349
  450MOL0     C60648  11.281   3.105  10.453 -0.3564  0.1279  0.4355
  450MOL0     C60649  11.337   2.999  10.514 -0.1007  0.4885 -0.4071
  450MOL0     O60650  11.468   2.974  10.503 -0.5484  0.1876  0.6702
  450MOL0     C60651  11.528   2.870  10.575  0.3374 -0.2489  0.2555
  450MOL0     C60652  11.677   2.866  10.549  1.0946  0.6742 -0.3261
  450MOL0     C60653  11.751   2.765  10.633 -0.4826 -1.0552 -0.0049
  450MOL0     C60654  11.890   2.730  10.565  0.4993 -0.0730 -0.0169
  450MOL0     C60655  11.984   2.665  10.670 -0.9351  0.2277  0.0286
  450MOL0     C60656  12.116   2.643  10.602 -0.2135  0.2123  0.3348
  450MOL0     C60657  12.217   2.588  10.705 -0.1787  1.0006  0.3670
  450MOL0     C60658  12.345   2.522  10.644 -0.0080  0.0664  0.0717
  450MOL0    Cl60659  12.451   2.466  10.783  0.3390 -0.0317  0.1661
  450MOL0     C60660  11.253   2.922  10.597  0.8583  0.9872 -0.1319
  450MOL0     C60661  11.115   2.953  10.615  0.4196 -0.1816  0.1172
  450MOL0     O60662  10.934   3.103  10.793 -0.1094 -0.7297  0.0570
  450MOL0     C60663  10.681   3.224  10.803  0.7453 -0.2133 -0.2213
  450MOL0     C60664  10.544   3.259  10.806  0.1130  0.0115 -0.0769
  450MOL0     N60665  10.445   3.770  10.830 -0.4923  0.0617  0.8425
  450MOL0     N60666  10.435   3.892  10.877  0.0413  0.3830  0.8372
  450MOL0     C60667   9.364   4.187  10.890 -0.2217  0.4996  0.9468
  450MOL0     C60668   9.236   4.163  10.943 -0.4927 -0.4148 -0.6518
  450MOL0     C60669   8.855   3.964  11.009 -1.1154  0.5699 -0.3756
  450MOL0     C60670   8.839   3.842  11.073 -0.6317 -0.6544 -0.5693
  450MOL0     C60671   8.725   3.797  11.130  0.2773 -0.6612  0.2627
  450MOL0     C60672   8.602   3.864  11.115  0.3362 -0.4722 -0.2592
  450MOL0     O60673   8.482   3.822  11.169  0.1725 -0.1656  0.3703
  450MOL0     C60674   8.488   3.712  11.272  0.1789 -0.3549 -0.5192
  450MOL0     C60675   8.339   3.698  11.336 -0.1942 -0.0996  0.1154
  450MOL0     C60676   8.221   3.659  11.234  0.4320  0.6558 -0.0052
  450MOL0     C60677   8.253   3.529  11.162  0.7619 -0.7133 -0.7256
  450MOL0     C60678   8.144   3.486  11.071 -0.9028 -0.3662 -0.2494
  450MOL0     C60679   8.078   3.458  10.974  0.5090  0.0664 -0.2244
  450MOL0     C60680   8.611   3.986  11.051  0.2111  0.0070  0.1243
  450MOL0     C60681   8.734   4.037  11.001  0.1509  0.3408 -0.1889
  450MOL0     C60682   8.714   4.185  10.947  0.1578  0.2140  0.3667
  450MOL0     H60683   9.068   4.182  10.643 -0.4470 -1.3989 -0.0892
  450MOL0     H60684   9.298   4.227  10.568  0.4830 -2.9943 -0.7555
  450MOL0     H60685   9.636   4.249  10.880  1.2188  0.5043 -0.2911
  450MOL0     H60686   9.659   4.110  10.775  1.6339  0.6275 -1.9317
  450MOL0     H60687   9.704   4.394  10.683  1.4573  1.0829  0.9091
  450MOL0     H60688   9.740   4.227  10.610  1.2626 -1.9623  1.7818
  450MOL0     H60689   9.856   4.256  10.878 -0.9380 -0.1558  0.3583
  450MOL0     H60690   9.882   4.402  10.800 -1.5440  0.0315  1.5756
  450MOL0     H60691   9.987   4.134  10.662 -1.9416 -1.5336  3.6330
  450MOL0     H60692  10.017   4.296  10.614  1.4811 -3.0028 -0.7384
  450MOL0     H60693  10.199   4.204  10.722  0.4109 -2.0378  1.1469
  450MOL0     H60694  10.139   4.324  10.833  2.6686 -0.1178 -0.7399
  450MOL0     H60695  10.022   4.107  10.952  0.7891  2.3254  2.3911
  450MOL0     H60696  10.119   4.021  10.836 -0.8998  0.4000 -0.9069
  450MOL0     H60697  10.222   4.205  11.059  1.2305 -0.4440  1.0689
  450MOL0     H60698  10.320   4.155  10.922  1.5305  0.5035  1.6752
  450MOL0     H60699  10.364   4.014  11.124  1.1921  2.7915 -1.5122
  450MOL0     H60700  10.193   3.959  11.108  0.5227 -2.3581 -0.6762
  450MOL0     H60701  10.160   3.757  10.977 -0.7686  1.6062 -3.3662
  450MOL0     H60702  10.400   3.502  10.823  0.8739  0.2827  1.0286
  450MOL0     H60703  10.254   3.510  10.917  1.7441 -0.3601  0.6503
  450MOL0     H60704  10.114   3.519  10.731  0.3768 -0.9282  2.0132
  450MOL0     H60705  10.207   3.655  10.654  0.6394 -0.3192  0.5688
  450MOL0     H60706  10.367   3.494  10.566 -0.0115  1.2167  0.2717
  450MOL0     H60707  10.211   3.487  10.494  0.8870  2.1238  0.0215
  450MOL0     H60708  10.259   3.252  10.517 -3.5905 -0.2609 -0.6112
  450MOL0     H60709  10.151   3.288  10.638  0.6404 -0.5444 -0.5950
  450MOL0     H60710  10.473   3.214  10.482 -2.0421  0.1964  0.8475
  450MOL0     H60711  10.720   3.161  10.472  0.4908  0.5064  0.7468
  450MOL0     H60712  11.115   3.213  10.402  1.3216  0.4368 -0.2245
  450MOL0     H60713  11.337   3.163  10.380 -1.8631  1.6057  0.3935
  450MOL0     H60714  11.510   2.877  10.682 -0.0872  1.9337  0.0812
  450MOL0     H60715  11.496   2.774  10.532  2.1269 -0.7212 -0.1054
  450MOL0     H60716  11.695   2.843  10.444  1.5591 -3.0376  0.4392
  450MOL0     H60717  11.723   2.964  10.564  0.4624  0.8461  0.6449
  450MOL0     H60718  11.761   2.810  10.732 -1.7277 -1.6938  0.4418
  450MOL0     H60719  11.695   2.672  10.648  1.2770 -2.1924 -0.1600
  450MOL0     H60720  11.933   2.823  10.526  0.3658 -0.2650 -0.6325
  450MOL0     H60721  11.867   2.663  10.482  0.3225 -2.6601  2.0256
  450MOL0     H60722  11.939   2.572  10.706 -1.1273  0.3596  0.1331
  450MOL0     H60723  11.993   2.732  10.757  0.3119 -0.9319  0.8402
  450MOL0     H60724  12.122   2.585  10.509  1.8411 -0.5400  0.8645
  450MOL0     H60725  12.156   2.737  10.561  3.8604 -2.3432 -2.3544
  450MOL0     H60726  12.171   2.510  10.766  2.1347 -1.7606 -1.2214
  450MOL0     H60727  12.237   2.662  10.783 -0.3565  0.7047  0.6991
  450MOL0     H60728  12.307   2.432  10.597 -0.7618  0.6233 -0.4058
  450MOL0     H60729  12.395   2.588  10.572  0.3525  0.9199  1.0783
  450MOL0     H60730  11.291   2.839  10.656 -0.5172  0.6070  0.2607
  450MOL0     H60731  11.054   2.892  10.681  0.3132 -1.9504 -1.5309
  450MOL0     H60732  10.731   3.214  10.898  2.0848  1.6010 -0.6788
  450MOL0     H60733  10.505   3.266  10.907 -1.1656  1.3415 -0.6265
  450MOL0     H60734   9.447   4.174  10.959  0.3179 -0.6712  0.0964
  450MOL0     H60735   9.216   4.133  11.045  0.4264 -3.1357 -1.1695
  450MOL0     H60736   8.925   3.777  11.090 -0.5948  0.2280  3.7961
  450MOL0     H60737   8.720   3.709  11.193  2.9805 -1.3712 -0.3715
  450MOL0     H60738   8.556   3.751  11.348 -0.5360  0.2600 -0.1813
  450MOL0     H60739   8.533   3.617  11.243  4.2936  0.2370  3.0149
  450MOL0     H60740   8.307   3.793  11.379 -0.3785 -0.3578  0.5613
  450MOL0     H60741   8.330   3.629  11.421  0.8735  0.5714  0.8063
  450MOL0     H60742   8.199   3.735  11.158  1.0528  0.2075 -0.6387
  450MOL0     H60743   8.132   3.652  11.298  1.2171 -0.6103  1.0035
  450MOL0     H60744   8.347   3.525  11.106  0.5177 -0.2663 -1.1756
  450MOL0     H60745   8.263   3.451  11.237 -5.0911 -2.6061 -1.4498
  450MOL0     H60746   8.013   3.432  10.893 -1.0351  1.0433  0.6498
  450MOL0     H60747   8.521   4.043  11.031 -0.0840 -0.5253 -0.1067
  450MOL0     H60748   8.646   4.238  11.014  0.0846  1.7779 -0.8920
  450MOL0     H60749   8.809   4.236  10.962  0.3989 -0.5066  1.4475
  450MOL0     H60750   8.666   4.197  10.850  1.9839  0.9064 -0.4948
  451MOL0     O60751   0.062   0.357   8.202 -0.3713  0.0583  0.7938
  451MOL0     C60752   0.025   0.305   8.102 -0.9224 -0.1370  0.4935
  451MOL0     O60753   0.105   0.269   7.996  0.6749  0.8330  0.2566
  451MOL0     C60754   0.236   0.311   7.993 -0.3159 -0.1592  0.1460
  451MOL0     C60755   0.285   0.409   7.912  0.0273  0.6039 -0.9831
  451MOL0     C60756   0.414   0.451   7.911 -0.8838  0.4033  0.2537
  451MOL0     C60757   0.512   0.379   7.986  0.5080 -0.5569 -0.1809
  451MOL0     O60758   0.646   0.425   7.978 -0.0776 -0.2081  0.1107
  451MOL0     C60759   0.747   0.341   8.032 -0.1335  0.6565  0.8165
  451MOL0     C60760   0.886   0.394   7.997 -0.0295  0.5071 -0.4734
  451MOL0     C60761   0.989   0.294   8.056  0.5797 -0.5929  0.3853
  451MOL0     C60762   1.136   0.349   8.019 -0.1530  0.8277  0.2553
  451MOL0     C60763   1.249   0.282   8.089 -1.1282  0.8744 -0.0811
  451MOL0     C60764   1.270   0.141   8.024 -0.2719  0.0281  0.5954
  451MOL0     C60765   1.346   0.153   7.891 -0.3759 -0.6402  0.2316
  451MOL0     C60766   1.380   0.016   7.838  0.1300 -0.4796 -0.3005
  451MOL0     N60767   1.487  -0.047   7.927  0.4970 -0.9366  0.3294
  451MOL0     C60768   1.618  -0.048   7.906  0.3192 -0.5263 -1.1469
  451MOL0     C60769   1.672  -0.122   8.003  0.7751  0.3679  0.4298
  451MOL0     C60770   1.814  -0.163   8.012 -0.2840  0.7166  0.1774
  451MOL0     C60771   1.897  -0.061   8.102 -0.7006 -0.2938  0.3201
  451MOL0     C60772   2.034  -0.118   8.145  0.1316 -0.3810 -0.5557
  451MOL0     C60773   2.125  -0.155   8.036  0.5058 -0.4051 -0.1145
  451MOL0     O60774   2.239  -0.224   8.086  0.1342  0.3004  0.5061
  451MOL0     C60775   2.364  -0.186   8.048 -0.0100 -0.2371 -0.3450
  451MOL0     C60776   2.405  -0.074   7.972  0.0608 -1.3318  0.5695
  451MOL0     C60777   2.540  -0.052   7.929  0.6374 -0.3981 -0.8716
  451MOL0     C60778   2.638  -0.142   7.973  0.7146  0.2483  0.3736
  451MOL0     C60779   2.775  -0.124   7.936  0.0810 -0.8867  0.2491
  451MOL0     O60780   2.872  -0.187   8.008 -0.1215  0.1854 -0.3517
  451MOL0     C60781   3.002  -0.180   7.979 -1.1149 -0.8433 -0.6069
  451MOL0     C60782   3.101  -0.165   8.082 -0.3773 -0.2985  0.2752
  451MOL0     C60783   3.241  -0.161   8.052  0.6519  0.4070  0.5772
  451MOL0     C60784   3.285  -0.163   7.919 -0.1724  0.9542 -0.9047
  451MOL0     O60785   3.416  -0.154   7.892  0.2151  0.1256 -0.4733
  451MOL0     C60786   3.491  -0.254   7.961 -0.1669 -0.5935 -0.8916
  451MOL0     C60787   3.603  -0.314   7.860 -0.5010 -0.5762 -0.6839
  451MOL0     C60788   3.734  -0.222   7.873 -0.0169 -0.6953 -0.2409
  451MOL0     C60789   3.825  -0.226   7.750 -0.2978  0.0803  0.3262
  451MOL0     C60790   3.925  -0.110   7.768  0.0305  0.4020  0.6394
  451MOL0     C60791   4.011  -0.099   7.630  0.2690 -0.5442 -0.4731
  451MOL0     C60792   4.071   0.042   7.617  0.6563  0.3572  0.3885
  451MOL0     C60793   4.161   0.063   7.502  0.2378  0.5845 -0.3505
  451MOL0    Cl60794   4.322  -0.013   7.529  0.4541 -0.3787  0.3398
  451MOL0     C60795   3.187  -0.185   7.822  0.8457 -0.1697  0.7243
  451MOL0     C60796   3.050  -0.191   7.848  0.4715 -0.1895 -0.4215
  451MOL0     O60797   2.796  -0.042   7.846  0.5262 -0.1155 -0.2808
  451MOL0     C60798   2.604  -0.253   8.046 -0.6345  0.3033 -0.1463
  451MOL0     C60799   2.471  -0.266   8.091  0.6061  0.3457 -0.1036
  451MOL0     N60800   1.568  -0.172   8.081 -0.2773 -0.6131  0.3715
  451MOL0     N60801   1.458  -0.127   8.032  0.4221  0.0083  0.1259
  451MOL0     C60802   0.472   0.277   8.074  0.9379 -0.2288  0.0613
  451MOL0     C60803   0.332   0.248   8.082  0.3033  0.2643 -0.0070
  451MOL0     C60804  -0.116   0.271   8.090 -0.0963  0.3325  0.2731
  451MOL0     C60805  -0.180   0.222   8.201  0.3090 -0.0520 -0.2158
  451MOL0     C60806  -0.323   0.183   8.203  0.5946 -0.2055 -0.3514
  451MOL0     C60807  -0.399   0.197   8.088  0.3519  0.1085 -0.1846
  451MOL0     O60808  -0.535   0.176   8.083 -0.4308 -0.2081  0.0341
  451MOL0     C60809  -0.604   0.115   8.187  0.9397  0.0627 -0.5947
  451MOL0     C60810  -0.571  -0.037   8.204  0.3744  0.1619 -0.6519
  451MOL0     C60811  -0.579  -0.110   8.067  0.4407  0.0708  0.0992
  451MOL0     C60812  -0.523  -0.243   8.109  0.2761 -0.2114 -0.3770
  451MOL0     C60813  -0.376  -0.236   8.131 -0.4491 -0.6656 -0.2979
  451MOL0     C60814  -0.252  -0.226   8.147  1.0914 -0.4756  0.5768
  451MOL0     C60815  -0.332   0.246   7.974  0.4141 -0.1941 -0.1144
  451MOL0     C60816  -0.193   0.287   7.972  0.2078  1.1120  0.7304
  451MOL0     C60817  -0.130   0.348   7.850  0.0091 -0.1565 -0.4544
  451MOL0     H60818   0.204   0.451   7.853 -1.5986 -1.1009 -0.0710
  451MOL0     H60819   0.445   0.531   7.843 -1.2283 -0.3603 -0.8342
  451MOL0     H60820   0.749   0.348   8.141  0.9796  1.5014  0.7638
  451MOL0     H60821   0.744   0.239   7.992  0.5763  2.1112 -3.5251
  451MOL0     H60822   0.910   0.492   8.039 -0.5506  1.6374 -2.6506
  451MOL0     H60823   0.888   0.397   7.887 -0.7771 -1.0333 -0.5697
  451MOL0     H60824   0.969   0.198   8.007  0.4433 -0.9945  1.2170
  451MOL0     H60825   0.971   0.281   8.163 -0.9394 -0.7700  0.1258
  451MOL0     H60826   1.152   0.363   7.912  0.9788  3.3310  0.6824
  451MOL0     H60827   1.141   0.450   8.061 -0.3293  0.7648  0.4317
  451MOL0     H60828   1.339   0.344   8.086  0.4405 -1.3291 -2.4400
  451MOL0     H60829   1.214   0.265   8.191  1.2574 -1.6290  0.4526
  451MOL0     H60830   1.322   0.081   8.099 -0.1021 -1.7460 -0.8915
  451MOL0     H60831   1.171   0.099   8.003 -1.4907  3.2327 -0.6934
  451MOL0     H60832   1.439   0.210   7.901 -0.7286  0.9896 -3.8016
  451MOL0     H60833   1.280   0.197   7.815 -1.4859 -3.7626 -0.7432
  451MOL0     H60834   1.289  -0.044   7.834  1.1176 -2.1183  0.5797
  451MOL0     H60835   1.416   0.015   7.734  1.1260  1.0197 -0.0153
  451MOL0     H60836   1.662   0.011   7.826  0.1195  0.2437 -0.6997
  451MOL0     H60837   1.812  -0.264   8.053  1.9804  0.8941  0.8627
  451MOL0     H60838   1.851  -0.159   7.909 -1.7599  1.2155 -0.3749
  451MOL0     H60839   1.910   0.033   8.049 -0.9107 -0.0407  0.7081
  451MOL0     H60840   1.833  -0.044   8.189 -1.0675  2.2604 -0.3775
  451MOL0     H60841   2.009  -0.205   8.207  0.4048  0.7443  1.2053
  451MOL0     H60842   2.080  -0.039   8.205 -2.6936 -0.6472  2.2902
  451MOL0     H60843   2.148  -0.057   7.993 -1.8101  1.9981  3.5024
  451MOL0     H60844   2.079  -0.227   7.967  3.4374 -1.9380 -0.6171
  451MOL0     H60845   2.332   0.004   7.952  0.6314 -0.9124  0.1030
  451MOL0     H60846   2.561   0.046   7.888  2.0201  0.9447  2.6203
  451MOL0     H60847   3.079  -0.162   8.188  0.7637 -2.4310  0.6222
  451MOL0     H60848   3.305  -0.143   8.138  0.3980  0.7905  0.6896
  451MOL0     H60849   3.532  -0.206   8.050 -1.5736 -2.2760  0.7313
  451MOL0     H60850   3.432  -0.342   7.989 -1.2458  0.4059  0.0379
  451MOL0     H60851   3.624  -0.417   7.889 -0.8121 -0.2772  0.6829
  451MOL0     H60852   3.568  -0.301   7.758  3.0937  1.1607 -1.8757
  451MOL0     H60853   3.695  -0.121   7.882  0.1953 -0.4542 -1.7449
  451MOL0     H60854   3.780  -0.250   7.968 -1.4502 -1.9197  0.1297
  451MOL0     H60855   3.757  -0.203   7.667 -1.1989 -1.3733  0.6144
  451MOL0     H60856   3.872  -0.323   7.735 -2.0131 -1.0349  1.6993
  451MOL0     H60857   3.997  -0.144   7.844 -0.3530 -4.0692 -0.7171
  451MOL0     H60858   3.880  -0.012   7.790  2.5092  1.0475  3.5993
  451MOL0     H60859   4.086  -0.177   7.615  0.0575 -0.2269 -4.1378
  451MOL0     H60860   3.939  -0.121   7.551 -0.6280 -0.2271  0.2353
  451MOL0     H60861   4.125   0.071   7.708  0.6037  0.1455  0.4876
  451MOL0     H60862   3.990   0.114   7.605  0.0370 -0.6089 -1.6019
  451MOL0     H60863   4.125   0.009   7.414  2.3762 -0.1184 -0.8735
  451MOL0     H60864   4.171   0.167   7.472  0.9897  1.0873  1.5147
  451MOL0     H60865   3.216  -0.171   7.718 -1.5316  0.6637  0.1146
  451MOL0     H60866   2.978  -0.198   7.766 -1.7776  0.7081  1.3710
  451MOL0     H60867   2.688  -0.312   8.082  0.2968  1.2364 -0.7446
  451MOL0     H60868   2.449  -0.343   8.165 -3.1335  1.1889 -0.1414
  451MOL0     H60869   0.537   0.209   8.130  0.3585 -0.4190  0.5186
  451MOL0     H60870   0.308   0.163   8.144  0.5407 -0.8053 -1.3329
  451MOL0     H60871  -0.128   0.201   8.294  2.1498 -2.4522 -1.6668
  451MOL0     H60872  -0.369   0.161   8.299  0.9308 -1.1949 -0.4110
  451MOL0     H60873  -0.711   0.117   8.165  1.2632 -0.1961 -2.3467
  451MOL0     H60874  -0.592   0.173   8.279  0.4096 -0.2174 -0.3418
  451MOL0     H60875  -0.652  -0.076   8.265  0.0724 -0.3549 -1.3641
  451MOL0     H60876  -0.481  -0.041   8.267  1.0109 -0.3505 -1.5615
  451MOL0     H60877  -0.513  -0.068   7.989  1.3836  2.4589  2.0474
  451MOL0     H60878  -0.682  -0.115   8.031  0.8932 -1.8351 -1.1127
  451MOL0     H60879  -0.573  -0.281   8.198  2.0961 -2.2479 -0.1336
  451MOL0     H60880  -0.547  -0.317   8.031 -0.1665 -0.2929 -0.1599
  451MOL0     H60881  -0.146  -0.218   8.158  1.3198 -1.8461 -0.4784
  451MOL0     H60882  -0.384   0.235   7.879 -0.0124  1.2659 -0.0599
  451MOL0     H60883  -0.100   0.452   7.869 -1.4348  0.0314  1.0262
  451MOL0     H60884  -0.044   0.289   7.816 -0.1270 -0.6347  0.0211
  451MOL0     H60885  -0.204   0.351   7.770  0.6781  0.9588 -1.0613
  452MOL0     O60886   9.452   6.998   8.468  0.7376  0.1869  0.1045
  452MOL0     C60887   9.371   7.073   8.527  0.5564 -0.3534 -0.4944
  452MOL0     O60888   9.237   7.039   8.544 -0.1781  0.2591 -0.5430
  452MOL0     C60889   9.187   6.912   8.544  0.3002 -0.4553  0.6481
  452MOL0     C60890   9.049   6.906   8.525  0.2511  0.4032 -1.0332
  452MOL0     C60891   8.977   6.788   8.517  0.1603  0.1414 -0.7400
  452MOL0     C60892   9.045   6.673   8.506  0.0101  0.5569 -0.5216
  452MOL0     O60893   8.968   6.553   8.500 -0.2456  0.7039 -0.1234
  452MOL0     C60894   9.032   6.439   8.445 -0.0341 -0.0113  1.5633
  452MOL0     C60895   9.056   6.344   8.563 -0.0095 -0.1387 -0.0793
  452MOL0     C60896   8.922   6.322   8.641 -0.1466 -0.6301  0.0629
  452MOL0     C60897   8.817   6.254   8.554  0.3928  0.9871 -0.4851
  452MOL0     C60898   8.713   6.169   8.634  0.7375 -0.8570  1.3296
  452MOL0     C60899   8.597   6.122   8.542 -0.4862  0.6267  1.3119
  452MOL0     C60900   8.494   6.065   8.645  0.4898  0.0596  0.0032
  452MOL0     C60901   8.364   6.022   8.576 -0.0366 -0.1577 -0.5698
  452MOL0     N60902   8.280   5.952   8.671  0.5139  1.0142 -0.3274
  452MOL0     C60903   8.201   5.991   8.768  0.0057  0.1894 -0.1043
  452MOL0     C60904   8.184   5.885   8.857  0.6182  0.5114  0.1424
  452MOL0     C60905   8.112   5.884   8.989 -0.7806 -0.5589 -0.2039
  452MOL0     C60906   8.210   5.843   9.101 -1.1184 -0.2692 -0.5805
  452MOL0     C60907   8.323   5.944   9.118 -0.5249 -0.6452  0.3232
  452MOL0     C60908   8.434   5.912   9.215 -0.4563  0.2582  0.1429
  452MOL0     O60909   8.522   6.023   9.219  0.1144  0.6477 -0.2313
  452MOL0     C60910   8.627   6.025   9.128 -0.1273 -0.0716 -0.0194
  452MOL0     C60911   8.708   6.127   9.145 -0.2316 -0.6589  0.7704
  452MOL0     C60912   8.825   6.145   9.071 -0.5540  0.0408  0.0924
  452MOL0     C60913   8.856   6.055   8.963  0.6015 -0.9484  0.1059
  452MOL0     C60914   8.987   6.052   8.893  0.6381 -0.8054  0.0446
  452MOL0     O60915   9.091   6.100   8.959  0.2457 -0.4769  0.3916
  452MOL0     C60916   9.211   6.129   8.903  0.8452 -0.1964 -0.6233
  452MOL0     C60917   9.241   6.136   8.766 -0.1048  0.9217  0.5912
  452MOL0     C60918   9.375   6.171   8.730 -0.1490  0.1478 -0.4690
  452MOL0     C60919   9.473   6.199   8.827 -0.6639 -0.2585  0.1299
  452MOL0     O60920   9.598   6.243   8.784  0.5814 -0.4388 -0.5780
  452MOL0     C60921   9.694   6.288   8.869  0.7721 -0.0239 -0.2479
  452MOL0     C60922   9.813   6.325   8.792  0.5627  0.5312 -0.2637
  452MOL0     C60923   9.934   6.265   8.856 -0.0525 -0.9998 -0.8170
  452MOL0     C60924  10.053   6.285   8.762  0.1061 -0.3878 -0.3621
  452MOL0     C60925  10.184   6.221   8.807 -0.0938 -0.1389 -0.1918
  452MOL0     C60926  10.300   6.246   8.716  0.1420  1.0671  0.3729
  452MOL0     C60927  10.427   6.165   8.739 -0.6639  0.1581 -0.0538
  452MOL0     C60928  10.560   6.243   8.712  0.3967  0.2528  0.3128
  452MOL0    Cl60929  10.555   6.371   8.836 -0.2467 -0.0574 -0.6070
  452MOL0     C60930   9.433   6.214   8.955  0.1722 -0.2937  0.0318
  452MOL0     C60931   9.306   6.176   8.992  0.2634 -1.0658 -0.3911
  452MOL0     O60932   8.988   5.999   8.784 -0.6529 -0.2803 -0.1361
  452MOL0     C60933   8.763   5.952   8.941  0.7691  0.7809  0.3675
  452MOL0     C60934   8.642   5.949   9.013 -0.3031  0.3433  0.3353
  452MOL0     N60935   8.237   5.778   8.789  0.2705  0.3522 -0.3542
  452MOL0     N60936   8.290   5.816   8.681 -0.6008 -0.0614  0.3962
  452MOL0     C60937   9.187   6.666   8.522  0.1929 -0.0038  0.0879
  452MOL0     C60938   9.256   6.788   8.536 -0.1731 -0.3708 -0.7624
  452MOL0     C60939   9.430   7.207   8.554  0.8727  0.0735  0.1822
  452MOL0     C60940   9.337   7.305   8.588  0.4297 -0.6031  0.3350
  452MOL0     C60941   9.374   7.431   8.635  0.3178  0.0451  0.2712
  452MOL0     C60942   9.504   7.458   8.653 -0.9996 -0.3587  0.2138
  452MOL0     O60943   9.551   7.571   8.713 -1.1192  0.1368 -0.8595
  452MOL0     C60944   9.470   7.692   8.717  0.8378 -0.4616  0.5528
  452MOL0     C60945   9.429   7.753   8.574  0.0916 -0.3418  0.1727
  452MOL0     C60946   9.485   7.890   8.540 -0.2308 -0.0959  0.6569
  452MOL0     C60947   9.433   7.954   8.412 -0.8649 -0.2462  0.0228
  452MOL0     C60948   9.306   8.017   8.457 -0.2103  0.0078  0.3409
  452MOL0     C60949   9.204   8.068   8.515  0.0438  0.4245  0.1922
  452MOL0     C60950   9.601   7.362   8.618  0.3906 -0.5737  0.9066
  452MOL0     C60951   9.566   7.232   8.567  0.4351  0.0170 -0.5722
  452MOL0     C60952   9.678   7.142   8.539 -0.7352  0.1508  0.2488
  452MOL0     H60953   8.997   7.001   8.529 -0.7430 -0.1628 -0.4126
  452MOL0     H60954   8.869   6.797   8.527  0.2072  0.1503 -0.2036
  452MOL0     H60955   8.966   6.402   8.367 -2.5511 -1.3149  4.0979
  452MOL0     H60956   9.129   6.458   8.399 -0.3059 -0.9928  0.5504
  452MOL0     H60957   9.134   6.384   8.627  0.4538  1.8907 -1.8141
  452MOL0     H60958   9.081   6.250   8.513 -0.6884  0.7452 -2.2206
  452MOL0     H60959   8.873   6.406   8.690 -3.0900  0.0030 -3.5143
  452MOL0     H60960   8.951   6.249   8.718  0.4144 -1.1930 -0.6740
  452MOL0     H60961   8.758   6.326   8.497  0.3751  0.6384 -0.9151
  452MOL0     H60962   8.868   6.183   8.488 -1.4043  0.3819 -1.2749
  452MOL0     H60963   8.767   6.080   8.668 -0.3544 -1.8505  0.5487
  452MOL0     H60964   8.670   6.225   8.717  0.0143 -0.2267  0.5477
  452MOL0     H60965   8.548   6.200   8.483 -0.5152 -0.8716 -0.7720
  452MOL0     H60966   8.627   6.048   8.466 -1.4965  0.0106  1.4890
  452MOL0     H60967   8.464   6.137   8.722 -1.4561 -2.8007  2.1321
  452MOL0     H60968   8.546   5.985   8.698 -1.0529 -0.8078  0.2786
  452MOL0     H60969   8.304   6.110   8.553  0.4826 -0.0968 -1.7327
  452MOL0     H60970   8.376   5.960   8.487  0.2021 -0.5469 -0.2735
  452MOL0     H60971   8.159   6.089   8.786  2.9113  1.5582 -0.1903
  452MOL0     H60972   8.071   5.984   9.002 -0.7228 -0.6603  0.9304
  452MOL0     H60973   8.028   5.814   8.992 -2.3725  1.3100  0.7470
  452MOL0     H60974   8.164   5.842   9.200  1.2354 -1.0314  0.5876
  452MOL0     H60975   8.252   5.742   9.099  1.0456  0.5610  0.7276
  452MOL0     H60976   8.277   6.042   9.133 -3.3963 -2.1406  2.2055
  452MOL0     H60977   8.374   5.950   9.022 -1.2707 -1.1838 -0.1184
  452MOL0     H60978   8.478   5.813   9.201 -0.2657  0.4215 -0.3959
  452MOL0     H60979   8.385   5.912   9.313  2.4101  0.4865  1.6870
  452MOL0     H60980   8.697   6.182   9.238  0.3569 -0.1190  0.5264
  452MOL0     H60981   8.894   6.227   9.091 -0.9696  1.0210 -2.1647
  452MOL0     H60982   9.169   6.123   8.686  2.3792 -1.0861 -1.5029
  452MOL0     H60983   9.410   6.154   8.629  1.9311 -4.0604  0.7662
  452MOL0     H60984   9.648   6.374   8.918 -0.7078  0.1075 -1.7863
  452MOL0     H60985   9.716   6.209   8.942 -0.9396 -0.2395  0.0797
  452MOL0     H60986   9.790   6.285   8.693  0.6605 -0.6484  0.1757
  452MOL0     H60987   9.816   6.433   8.776  2.2476  0.3462 -1.3778
  452MOL0     H60988   9.964   6.320   8.946 -2.5000  0.9236 -1.0673
  452MOL0     H60989   9.921   6.158   8.873  1.3092 -0.9703  0.6410
  452MOL0     H60990  10.065   6.391   8.741 -1.4324 -0.2852 -0.8539
  452MOL0     H60991  10.030   6.222   8.675 -1.0490 -3.1666  1.7756
  452MOL0     H60992  10.175   6.114   8.825 -3.0399  0.0751  0.0473
  452MOL0     H60993  10.215   6.273   8.898  2.8616 -0.6184 -0.8054
  452MOL0     H60994  10.252   6.224   8.620 -1.3414  1.9325  0.8863
  452MOL0     H60995  10.331   6.351   8.712  0.5235  1.0556  2.3982
  452MOL0     H60996  10.425   6.077   8.674 -1.3750  1.1535 -1.4439
  452MOL0     H60997  10.446   6.134   8.842 -2.5675  3.7600  1.5759
  452MOL0     H60998  10.653   6.188   8.725  1.3274  1.9912  1.4152
  452MOL0     H60999  10.564   6.290   8.613  2.7959 -1.0823 -0.2963
  452MOL0     H61000   9.485   6.263   9.037 -0.4505  1.7915 -0.7736
  452MOL0     H61001   9.286   6.194   9.097  0.4410 -1.1806 -0.3376
  452MOL0     H61002   8.770   5.877   8.864 -2.2865  1.2777 -0.5466
  452MOL0     H61003   8.563   5.878   8.989  1.5820 -1.3943 -1.0257
  452MOL0     H61004   9.249   6.577   8.521  0.4518  0.1813 -0.1893
  452MOL0     H61005   9.364   6.801   8.542 -0.4282  1.5819  0.8378
  452MOL0     H61006   9.230   7.287   8.590  0.1934  0.6660 -0.0839
  452MOL0     H61007   9.296   7.502   8.660  0.3037  0.7686 -1.6488
  452MOL0     H61008   9.519   7.770   8.776  2.2319 -1.6505  1.0350
  452MOL0     H61009   9.380   7.666   8.773 -1.0355  0.3766 -1.8769
  452MOL0     H61010   9.322   7.746   8.553  0.3425  0.5010 -1.5183
  452MOL0     H61011   9.472   7.681   8.503 -0.8537 -0.6339 -0.1156
  452MOL0     H61012   9.593   7.876   8.533  0.2965  3.2415  0.3857
  452MOL0     H61013   9.463   7.960   8.621  0.1577  1.0538 -0.2074
  452MOL0     H61014   9.498   8.037   8.387 -1.1684  0.2860  0.9262
  452MOL0     H61015   9.423   7.891   8.324 -0.2164 -0.0452 -0.1989
  452MOL0     H61016   9.117   8.106   8.564  2.0144  0.9262  3.6387
  452MOL0     H61017   9.707   7.384   8.625  0.5793 -0.9852 -0.4115
  452MOL0     H61018   9.698   7.136   8.431  1.6489 -2.5588  0.7120
  452MOL0     H61019   9.768   7.183   8.586  1.1608 -2.5684 -0.7587
  452MOL0     H61020   9.673   7.044   8.587  1.8371  0.5603  1.5331
  453MOL0     O61021   0.874   1.541   7.765  0.5924  0.6440 -0.4471
  453MOL0     C61022   0.778   1.553   7.685  0.9811  0.4828 -0.7791
  453MOL0     O61023   0.772   1.514   7.556 -0.3317 -0.2879  0.0970
  453MOL0     C61024   0.884   1.475   7.487  0.4887 -0.0049 -0.9238
  453MOL0     C61025   1.014   1.500   7.516 -0.1746 -0.2224 -0.0089
  453MOL0     C61026   1.114   1.435   7.451  0.3667  0.0768 -0.8647
  453MOL0     C61027   1.086   1.338   7.350  0.3486 -1.4537  0.4820
  453MOL0     O61028   1.191   1.285   7.291  0.0302 -0.6143 -0.1314
  453MOL0     C61029   1.180   1.214   7.172  0.0924 -0.0001  0.2367
  453MOL0     C61030   1.203   1.309   7.051  0.2199  0.3205 -0.1982
  453MOL0     C61031   1.325   1.398   7.074  0.3639  0.2432  0.3009
  453MOL0     C61032   1.285   1.534   7.117 -0.6455 -0.5339  0.7106
  453MOL0     C61033   1.414   1.607   7.163  0.2043  0.3858 -1.0289
  453MOL0     C61034   1.396   1.744   7.104 -0.4006 -0.6619  0.5309
  453MOL0     C61035   1.519   1.837   7.133  0.6098 -0.4027 -0.8008
  453MOL0     C61036   1.494   1.990   7.091 -0.4468 -0.1096 -0.6948
  453MOL0     N61037   1.624   2.061   7.119 -0.0160 -0.4069 -0.4925
  453MOL0     C61038   1.717   2.101   7.022  1.2605 -0.0024  0.5148
  453MOL0     C61039   1.802   2.180   7.093  0.6522 -0.1342 -0.4118
  453MOL0     C61040   1.902   2.271   7.019 -0.0777  0.0824 -0.5535
  453MOL0     C61041   2.008   2.329   7.117  0.1263 -0.5206 -0.8658
  453MOL0     C61042   2.104   2.429   7.055  0.7386  0.0441  1.0927
  453MOL0     C61043   2.186   2.491   7.155  0.2351  0.5408 -0.5023
  453MOL0     O61044   2.329   2.502   7.123 -0.1963  0.2016 -0.0030
  453MOL0     C61045   2.410   2.387   7.127  0.9631 -1.6280  0.3367
  453MOL0     C61046   2.543   2.414   7.103 -0.1610 -0.8257 -0.0087
  453MOL0     C61047   2.636   2.317   7.077 -0.1247  0.5094 -0.4414
  453MOL0     C61048   2.589   2.185   7.093 -0.2256 -0.0755 -0.7206
  453MOL0     C61049   2.690   2.070   7.078  0.1106  0.1031 -0.0356
  453MOL0     O61050   2.824   2.101   7.075  0.2093  0.7255 -0.0404
  453MOL0     C61051   2.926   2.009   7.066  0.1749  0.8498 -0.7181
  453MOL0     C61052   3.052   2.067   7.065  0.3930  0.0469 -0.5307
  453MOL0     C61053   3.172   2.006   7.077 -0.2501  0.3468 -0.0229
  453MOL0     C61054   3.175   1.865   7.080 -0.1351 -0.6938  0.1747
  453MOL0     O61055   3.299   1.809   7.099 -0.0894 -0.5508  0.7438
  453MOL0     C61056   3.311   1.662   7.109  0.7880 -0.9727 -0.6829
  453MOL0     C61057   3.461   1.642   7.133  0.1108 -1.1158  0.4392
  453MOL0     C61058   3.506   1.687   7.271  0.1170 -0.4472 -0.3437
  453MOL0     C61059   3.655   1.703   7.300 -0.0471 -0.3375  0.5781
  453MOL0     C61060   3.733   1.568   7.350 -0.6597  0.3446  0.7157
  453MOL0     C61061   3.866   1.609   7.404  0.0500 -0.1404  0.6243
  453MOL0     C61062   3.956   1.697   7.317 -0.0342 -0.2316  0.9839
  453MOL0     C61063   4.093   1.697   7.386 -0.1819 -0.1870  0.5153
  453MOL0    Cl61064   4.171   1.548   7.345 -0.6567 -0.0810  0.5251
  453MOL0     C61065   3.051   1.804   7.098  0.1033 -0.2425  0.5260
  453MOL0     C61066   2.926   1.866   7.080 -0.7576  0.4554 -0.0397
  453MOL0     O61067   2.641   1.957   7.065  0.2966  0.5273 -0.1567
  453MOL0     C61068   2.449   2.156   7.120 -0.4666  0.2302  0.5906
  453MOL0     C61069   2.362   2.266   7.134  0.5213  0.2464  0.4035
  453MOL0     N61070   1.762   2.185   7.232  0.5162 -0.0327 -0.4554
  453MOL0     N61071   1.655   2.113   7.245 -0.2074 -0.0718  0.2388
  453MOL0     C61072   0.954   1.323   7.314  0.2760 -0.4145  0.0669
  453MOL0     C61073   0.858   1.389   7.390  0.0575 -0.7199  0.4808
  453MOL0     C61074   0.652   1.610   7.744 -0.5860  0.2865  0.5370
  453MOL0     C61075   0.526   1.571   7.691 -0.2356 -0.3536 -0.6367
  453MOL0     C61076   0.405   1.608   7.742  0.6735 -0.3673 -0.6696
  453MOL0     C61077   0.398   1.691   7.852 -0.0208 -0.5401 -0.3191
  453MOL0     O61078   0.286   1.729   7.920 -0.0500  0.2943  0.2559
  453MOL0     C61079   0.163   1.704   7.863  0.5742  0.1785  0.4144
  453MOL0     C61080   0.118   1.819   7.777 -0.2312  0.8026  0.4953
  453MOL0     C61081  -0.022   1.800   7.715 -0.5342  0.4686 -0.4626
  453MOL0     C61082  -0.064   1.907   7.616 -0.5012 -0.0794  0.1766
  453MOL0     C61083   0.037   1.926   7.520 -1.2058 -0.9879  0.3601
  453MOL0     C61084   0.116   1.962   7.432 -0.2817  0.4957 -0.9374
  453MOL0     C61085   0.518   1.735   7.906  0.0696  0.3227 -0.0316
  453MOL0     C61086   0.647   1.700   7.854  0.1437 -0.2114 -0.4675
  453MOL0     C61087   0.767   1.750   7.932  0.2761 -0.0673  0.3214
  453MOL0     H61088   1.049   1.568   7.593  1.6317  1.8635 -2.4903
  453MOL0     H61089   1.210   1.449   7.499 -1.1189  1.1829  2.1184
  453MOL0     H61090   1.259   1.139   7.176  0.6141  0.4734 -0.7746
  453MOL0     H61091   1.082   1.169   7.154 -0.0101  0.4457 -0.3752
  453MOL0     H61092   1.114   1.372   7.040 -0.1900 -0.3821 -0.9943
  453MOL0     H61093   1.216   1.250   6.960  2.7522  1.4953 -0.6804
  453MOL0     H61094   1.372   1.421   6.979 -0.4810  3.9314  0.6418
  453MOL0     H61095   1.398   1.357   7.145 -0.1062 -2.3496 -0.5762
  453MOL0     H61096   1.236   1.584   7.033  2.3563 -1.2689 -1.6637
  453MOL0     H61097   1.212   1.516   7.196 -2.2440  0.9926 -0.3633
  453MOL0     H61098   1.416   1.609   7.272  2.0858  2.0659 -1.0366
  453MOL0     H61099   1.498   1.552   7.121 -0.6177 -1.1022 -0.8114
  453MOL0     H61100   1.394   1.741   6.995  1.1098  1.6207  0.3665
  453MOL0     H61101   1.312   1.804   7.141 -0.3393  0.4730 -1.0657
  453MOL0     H61102   1.604   1.815   7.068  0.6007 -0.8806 -0.6557
  453MOL0     H61103   1.554   1.827   7.236 -0.1898 -0.3718 -0.5210
  453MOL0     H61104   1.472   1.991   6.984  2.1455 -1.3230 -1.3195
  453MOL0     H61105   1.410   2.042   7.140  1.8712  2.1701  1.2003
  453MOL0     H61106   1.705   2.077   6.917 -0.8804  0.5122  0.5971
  453MOL0     H61107   1.953   2.223   6.935 -0.1050  1.0978 -1.1614
  453MOL0     H61108   1.840   2.351   6.978 -1.3391  0.0150  1.1094
  453MOL0     H61109   1.952   2.385   7.192 -2.0054  0.1997 -2.8840
  453MOL0     H61110   2.047   2.241   7.170  1.5018 -0.9232 -2.4345
  453MOL0     H61111   2.042   2.505   7.007  0.6575  0.3150  1.6216
  453MOL0     H61112   2.163   2.369   6.985  1.2770 -0.4607  1.9491
  453MOL0     H61113   2.166   2.452   7.255  1.4802 -0.0699 -0.4680
  453MOL0     H61114   2.155   2.595   7.166  1.4434  0.7974  0.8597
  453MOL0     H61115   2.560   2.522   7.102 -1.6429 -0.5068  2.2930
  453MOL0     H61116   2.742   2.339   7.072 -0.4514  2.0221 -0.9014
  453MOL0     H61117   3.048   2.175   7.052  1.3834 -0.0603 -1.8966
  453MOL0     H61118   3.261   2.069   7.078 -0.0328  0.0541 -0.5790
  453MOL0     H61119   3.251   1.627   7.193  0.0542  1.3427 -0.1626
  453MOL0     H61120   3.278   1.617   7.015  2.0030 -0.8710 -1.1766
  453MOL0     H61121   3.493   1.539   7.114 -2.0513 -2.0444  1.5258
  453MOL0     H61122   3.514   1.703   7.059 -0.3400  0.6026  1.4868
  453MOL0     H61123   3.458   1.781   7.301  0.8849 -0.7711  2.1208
  453MOL0     H61124   3.463   1.617   7.343  0.2407  0.5894  0.7775
  453MOL0     H61125   3.661   1.775   7.382 -1.1538 -0.0576  0.4315
  453MOL0     H61126   3.706   1.749   7.214 -0.1582 -0.4842  0.4320
  453MOL0     H61127   3.746   1.500   7.265 -3.6405 -0.1503  0.5268
  453MOL0     H61128   3.676   1.518   7.429  2.1609 -1.2824  1.8545
  453MOL0     H61129   3.845   1.670   7.493  0.1941  2.6941 -1.1799
  453MOL0     H61130   3.924   1.520   7.432 -1.0623 -0.7245  1.1768
  453MOL0     H61131   3.924   1.802   7.308  1.9606  0.4212  1.1057
  453MOL0     H61132   3.961   1.671   7.211 -2.3116  2.3185  0.1341
  453MOL0     H61133   4.156   1.781   7.357 -0.2354 -0.1729  0.4374
  453MOL0     H61134   4.083   1.705   7.494 -0.7351 -2.5217  0.6958
  453MOL0     H61135   3.035   1.696   7.105 -0.7594 -0.2412 -1.0316
  453MOL0     H61136   2.840   1.801   7.074  0.8969 -1.7803 -0.6678
  453MOL0     H61137   2.417   2.054   7.140  3.6718 -1.5779 -0.8826
  453MOL0     H61138   2.262   2.247   7.172  0.9303  0.1907  1.4865
  453MOL0     H61139   0.928   1.250   7.239  2.5060 -3.4759  2.0729
  453MOL0     H61140   0.757   1.362   7.361  1.0508 -2.1564 -1.9274
  453MOL0     H61141   0.520   1.511   7.600  1.7964  2.7573 -3.0276
  453MOL0     H61142   0.326   1.556   7.688 -0.5469  1.0102 -0.2805
  453MOL0     H61143   0.086   1.693   7.940  0.4123 -0.7398  0.1412
  453MOL0     H61144   0.159   1.612   7.803 -1.1521 -0.0622  0.8418
  453MOL0     H61145   0.196   1.843   7.705  0.9289 -0.0815  1.4076
  453MOL0     H61146   0.114   1.904   7.846 -1.8797  1.8760 -0.8359
  453MOL0     H61147  -0.097   1.793   7.795 -0.9039  0.0516 -0.8359
  453MOL0     H61148  -0.030   1.711   7.652  0.1617  0.7752 -0.9857
  453MOL0     H61149  -0.157   1.881   7.565 -1.4972 -0.0820  1.9157
  453MOL0     H61150  -0.074   1.989   7.687  1.0301 -0.4953  0.8990
  453MOL0     H61151   0.182   2.007   7.360  2.5650  0.5502  1.4780
  453MOL0     H61152   0.521   1.788   8.000 -1.4832  2.0442 -0.8941
  453MOL0     H61153   0.737   1.843   7.980 -2.8352 -0.8639  0.1476
  453MOL0     H61154   0.782   1.685   8.018 -0.3418 -0.3116  0.2472
  453MOL0     H61155   0.862   1.744   7.878  0.8732 -1.9313  1.4988
  454MOL0     O61156   8.486   9.634   5.502 -1.1552  0.2767 -0.2900
  454MOL0     C61157   8.492   9.510   5.526 -0.1431 -0.0167 -0.4213
  454MOL0     O61158   8.604   9.440   5.577 -0.1414 -0.1958  0.1224
  454MOL0     C61159   8.724   9.494   5.620 -0.1710  0.4482  0.5168
  454MOL0     C61160   8.752   9.636   5.630 -0.4753 -0.4918  0.6147
  454MOL0     C61161   8.877   9.681   5.679 -1.0888 -0.2364 -0.2376
  454MOL0     C61162   8.984   9.589   5.710  0.1103 -0.1107  0.2886
  454MOL0     O61163   9.117   9.617   5.734  0.0377 -1.0928  0.0936
  454MOL0     C61164   9.154   9.750   5.753 -0.3454 -1.1181 -0.0855
  454MOL0     C61165   9.158   9.785   5.908  0.2393  0.6358 -0.9714
  454MOL0     C61166   9.169   9.932   5.922  0.1817  0.5422  0.2016
  454MOL0     C61167   9.209   9.971   6.069 -0.2040  0.3155 -0.3021
  454MOL0     C61168   9.208  10.119   6.090  0.7515 -0.9483 -0.1771
  454MOL0     C61169   9.072  10.200   6.072  0.4037  0.2609  0.3564
  454MOL0     C61170   8.966  10.173   6.187  0.7807 -0.2137  0.8822
  454MOL0     C61171   8.875  10.049   6.177  0.2949 -0.0655 -0.1926
  454MOL0     N61172   8.728  10.081   6.164 -0.1747 -0.8024  0.0852
  454MOL0     C61173   8.642  10.000   6.092  0.0829  0.0347 -0.3699
  454MOL0     C61174   8.523  10.024   6.144  0.8262 -0.0494 -0.2373
  454MOL0     C61175   8.406   9.944   6.097 -0.1527  0.0902 -0.2476
  454MOL0     C61176   8.368   9.984   5.952 -0.2450 -0.2830 -0.2788
  454MOL0     C61177   8.289  10.113   5.957 -0.6515  0.2780  1.0033
  454MOL0     C61178   8.257  10.170   5.806  0.4001 -0.6409 -0.5689
  454MOL0     O61179   8.368  10.193   5.716  0.4238  0.2238 -0.0282
  454MOL0     C61180   8.460  10.294   5.753 -0.3193  0.4003 -0.1285
  454MOL0     C61181   8.589  10.247   5.763  0.2302 -0.7576 -1.2365
  454MOL0     C61182   8.683  10.352   5.790 -0.0119  0.2307 -1.0017
  454MOL0     C61183   8.652  10.491   5.817 -0.2243 -0.4001  0.2276
  454MOL0     C61184   8.758  10.591   5.851  0.1266  0.8512 -0.3178
  454MOL0     O61185   8.723  10.711   5.888  0.0787 -0.5096 -0.3682
  454MOL0     C61186   8.807  10.821   5.909 -0.1763  0.4942 -0.7226
  454MOL0     C61187   8.940  10.831   5.870  0.3911  0.1624 -0.1284
  454MOL0     C61188   9.010  10.954   5.880  0.5969  1.2863  0.1297
  454MOL0     C61189   8.948  11.058   5.950 -0.3808  1.0375 -0.2863
  454MOL0     O61190   9.012  11.179   5.952  0.0251  0.0845  0.3616
  454MOL0     C61191   9.154  11.190   5.994  0.2499 -0.7541  0.0527
  454MOL0     C61192   9.188  11.310   6.074  0.7059 -0.1832 -1.1111
  454MOL0     C61193   9.111  11.309   6.211  0.2774 -0.2268  0.2957
  454MOL0     C61194   9.191  11.399   6.310 -0.5249 -0.6956  0.0963
  454MOL0     C61195   9.127  11.412   6.443  0.0549 -0.0281 -0.8347
  454MOL0     C61196   9.209  11.520   6.517 -0.2957  0.3554  0.0483
  454MOL0     C61197   9.115  11.584   6.623 -0.3062  0.3976 -0.2385
  454MOL0     C61198   9.194  11.684   6.715  0.3759 -0.0874 -0.2996
  454MOL0    Cl61199   9.087  11.713   6.849 -0.4022  0.1978  0.4976
  454MOL0     C61200   8.816  11.055   5.993  0.6577  0.3224  0.2313
  454MOL0     C61201   8.748  10.929   5.974  0.0640 -0.0581  1.1619
  454MOL0     O61202   8.874  10.547   5.848 -0.1724 -0.7045  0.3046
  454MOL0     C61203   8.521  10.532   5.798 -0.1876  0.2213  0.1174
  454MOL0     C61204   8.429  10.427   5.764 -0.8847  0.0388  0.5567
  454MOL0     N61205   8.532  10.118   6.238 -0.7163 -0.0590  0.1933
  454MOL0     N61206   8.654  10.139   6.261 -0.2482  0.3219 -0.0719
  454MOL0     C61207   8.942   9.453   5.700 -0.1594 -0.3197  0.8818
  454MOL0     C61208   8.817   9.408   5.665  0.5240  0.1081  0.2850
  454MOL0     C61209   8.361   9.429   5.516 -1.5716 -0.1772  0.4353
  454MOL0     C61210   8.343   9.305   5.585 -0.4985 -0.6631  0.5144
  454MOL0     C61211   8.216   9.243   5.600  0.3041  0.6106  0.3361
  454MOL0     C61212   8.104   9.291   5.535  0.5096  0.4988 -0.1174
  454MOL0     O61213   7.992   9.213   5.545  0.8718  0.1096  0.2567
  454MOL0     C61214   7.875   9.261   5.621  0.1877 -0.3012 -0.3674
  454MOL0     C61215   7.759   9.314   5.536  0.1394 -0.3804  0.4685
  454MOL0     C61216   7.676   9.200   5.462  0.6660  0.3323 -0.4942
  454MOL0     C61217   7.573   9.132   5.555  0.0759 -0.9167 -0.0205
  454MOL0     C61218   7.461   9.223   5.594  1.1334  1.1502  0.5320
  454MOL0     C61219   7.360   9.288   5.626  0.7564  1.4052 -0.0373
  454MOL0     C61220   8.116   9.409   5.462 -0.2332 -0.5245 -0.5616
  454MOL0     C61221   8.236   9.473   5.462 -0.2626 -0.2958  1.2523
  454MOL0     C61222   8.235   9.586   5.367  0.2417 -0.2853  0.8271
  454MOL0     H61223   8.678   9.711   5.607 -1.0518 -0.3628  2.6715
  454MOL0     H61224   8.892   9.787   5.700  3.8792 -0.9877  1.3216
  454MOL0     H61225   9.255   9.769   5.717  0.6603 -0.9422  2.5996
  454MOL0     H61226   9.086   9.816   5.698  0.9146  0.1011 -0.2217
  454MOL0     H61227   9.246   9.741   5.956 -0.5409  0.4175  0.3359
  454MOL0     H61228   9.068   9.747   5.958 -0.2858  0.8346 -1.7462
  454MOL0     H61229   9.072   9.980   5.904 -1.1383 -2.1698 -0.3314
  454MOL0     H61230   9.241   9.966   5.847 -0.2820 -2.0075 -1.5160
  454MOL0     H61231   9.148   9.916   6.142 -0.3834  1.4604  0.4335
  454MOL0     H61232   9.310   9.933   6.089 -0.8061 -0.7250  0.9140
  454MOL0     H61233   9.239  10.148   6.191 -3.6655  3.9601  0.2123
  454MOL0     H61234   9.280  10.164   6.022  0.8148 -0.0537  0.4628
  454MOL0     H61235   9.101  10.305   6.077  1.7993 -0.1460  1.9766
  454MOL0     H61236   9.033  10.187   5.971  2.3951 -1.4318 -0.2684
  454MOL0     H61237   8.905  10.264   6.200  0.2417 -0.2281 -1.1993
  454MOL0     H61238   9.021  10.157   6.280  0.7820 -2.1540  0.5733
  454MOL0     H61239   8.903   9.988   6.090  2.6111  0.7549 -0.0722
  454MOL0     H61240   8.893   9.980   6.260  1.4036 -1.9162 -1.8947
  454MOL0     H61241   8.667   9.921   6.022 -3.3290 -1.0385 -0.5786
  454MOL0     H61242   8.436   9.839   6.099  0.1240  0.1058 -1.9697
  454MOL0     H61243   8.326   9.973   6.166  0.9140  1.1695  0.5830
  454MOL0     H61244   8.462   9.990   5.895 -0.6173  0.5157 -0.8358
  454MOL0     H61245   8.305   9.908   5.905  0.7759 -0.0385 -2.1648
  454MOL0     H61246   8.351  10.186   6.011 -1.6033  0.5762  1.7044
  454MOL0     H61247   8.197  10.099   6.014 -2.1076 -0.7774 -1.4617
  454MOL0     H61248   8.207  10.265   5.824  1.3371 -0.5236  1.7494
  454MOL0     H61249   8.184  10.101   5.762  0.3403 -0.8598 -0.1358
  454MOL0     H61250   8.604  10.141   5.746 -0.6397 -1.2238  0.6387
  454MOL0     H61251   8.783  10.313   5.779  0.2867  0.6475  0.0401
  454MOL0     H61252   9.000  10.747   5.836  0.2192  0.2105 -0.5442
  454MOL0     H61253   9.107  10.984   5.840  0.5641  0.5367 -0.5246
  454MOL0     H61254   9.169  11.096   6.048 -2.1932  1.0303  4.2585
  454MOL0     H61255   9.225  11.195   5.910 -0.6028  1.1298 -0.6026
  454MOL0     H61256   9.295  11.315   6.096  0.1948  0.8692  1.4833
  454MOL0     H61257   9.158  11.400   6.019  0.8657 -0.1713 -1.1776
  454MOL0     H61258   9.010  11.350   6.206  1.1869  2.3034  0.9883
  454MOL0     H61259   9.091  11.210   6.254 -2.7815  1.0339  2.1016
  454MOL0     H61260   9.210  11.493   6.257  3.1318 -1.5989 -0.4153
  454MOL0     H61261   9.290  11.354   6.318  1.0518  2.0939 -1.9116
  454MOL0     H61262   9.136  11.314   6.492  0.7405 -1.2247 -3.1781
  454MOL0     H61263   9.022  11.440   6.440 -1.0308 -3.1791  1.9011
  454MOL0     H61264   9.300  11.479   6.561 -1.9907 -3.1823  0.6144
  454MOL0     H61265   9.233  11.599   6.445 -1.2704  0.4605 -0.1822
  454MOL0     H61266   9.080  11.502   6.687 -1.6964 -0.8233 -2.4343
  454MOL0     H61267   9.037  11.636   6.568  2.8837  1.4090 -4.2960
  454MOL0     H61268   9.291  11.645   6.745  0.5673  1.0453  0.6478
  454MOL0     H61269   9.209  11.776   6.657  1.8277 -0.2622 -0.2421
  454MOL0     H61270   8.768  11.143   6.034  1.5147  1.0752 -0.3482
  454MOL0     H61271   8.641  10.927   5.995 -0.0375  0.0065  0.6715
  454MOL0     H61272   8.490  10.635   5.808 -0.7206  0.0412  0.3718
  454MOL0     H61273   8.327  10.459   5.748  0.0844  2.4162 -1.7499
  454MOL0     H61274   9.026   9.386   5.714  0.6304  0.5547  0.4678
  454MOL0     H61275   8.796   9.306   5.635  0.9538  0.6248 -2.0153
  454MOL0     H61276   8.426   9.255   5.632  0.8622  1.4096  0.4333
  454MOL0     H61277   8.220   9.156   5.665 -0.3582 -0.1924 -0.6659
  454MOL0     H61278   7.910   9.339   5.688 -1.2460  0.5146 -0.5273
  454MOL0     H61279   7.844   9.172   5.676  1.4347  0.4181  1.5801
  454MOL0     H61280   7.794   9.389   5.465  0.8180  0.3084  1.5096
  454MOL0     H61281   7.689   9.375   5.594  3.2477  5.3519 -1.0685
  454MOL0     H61282   7.741   9.121   5.425 -0.5123 -0.1595 -1.5997
  454MOL0     H61283   7.631   9.246   5.374 -1.1747  3.5003  1.8760
  454MOL0     H61284   7.538   9.041   5.506  2.5297 -2.3701  0.7725
  454MOL0     H61285   7.624   9.105   5.648  0.1525  3.0322  1.2684
  454MOL0     H61286   7.269   9.335   5.657 -1.2433 -4.1017  4.1455
  454MOL0     H61287   8.034   9.447   5.401  0.2633  1.9859  0.2314
  454MOL0     H61288   8.137   9.613   5.326 -0.4095 -2.9934  0.4238
  454MOL0     H61289   8.267   9.681   5.412 -0.8468  0.3362  0.3511
  454MOL0     H61290   8.292   9.567   5.276 -3.5975  0.2319 -1.9654
  455MOL0     O61291   3.454   9.530   3.117 -0.2999  1.0305  0.4014
  455MOL0     C61292   3.396   9.629   3.166 -0.2812  0.1918  0.3568
  455MOL0     O61293   3.455   9.713   3.252 -0.5051 -0.3499  0.2045
  455MOL0     C61294   3.589   9.684   3.273 -0.0748  0.3472  0.0539
  455MOL0     C61295   3.630   9.612   3.390  0.8815 -0.3223 -0.6337
  455MOL0     C61296   3.769   9.591   3.422 -0.1213  0.4129  0.9628
  455MOL0     C61297   3.863   9.649   3.335 -0.7380 -0.5263 -0.9302
  455MOL0     O61298   4.002   9.638   3.368 -0.2914 -0.1157 -0.2284
  455MOL0     C61299   4.059   9.556   3.464 -0.2892 -0.1582 -1.0855
  455MOL0     C61300   4.213   9.539   3.454  0.2906  0.2313 -0.2563
  455MOL0     C61301   4.283   9.460   3.562 -0.0222 -0.2133 -0.0690
  455MOL0     C61302   4.243   9.319   3.589  0.5906 -0.5828  0.4967
  455MOL0     C61303   4.347   9.258   3.681  0.6650  0.0613 -0.5267
  455MOL0     C61304   4.366   9.108   3.668  0.8174 -0.0913 -1.4272
  455MOL0     C61305   4.449   9.036   3.781  0.9287 -0.1081 -0.5013
  455MOL0     C61306   4.601   9.049   3.765 -0.2033 -0.2921  0.0740
  455MOL0     N61307   4.680   8.956   3.851  0.2129  0.2182  0.6895
  455MOL0     C61308   4.701   8.822   3.831 -0.7537 -0.3144 -0.1593
  455MOL0     C61309   4.763   8.786   3.943  0.1043  0.0998  0.2633
  455MOL0     C61310   4.820   8.650   3.974 -0.2361  0.1436  0.5018
  455MOL0     C61311   4.969   8.673   4.020  0.7181  0.2664 -0.5293
  455MOL0     C61312   5.061   8.697   3.902 -0.2030  0.7943 -0.9316
  455MOL0     C61313   5.211   8.694   3.946  0.2180 -0.1229  0.1523
  455MOL0     O61314   5.287   8.711   3.826  0.0474 -0.0457 -0.0153
  455MOL0     C61315   5.410   8.753   3.846  0.0271 -0.0284  0.2838
  455MOL0     C61316   5.428   8.870   3.772 -0.1803  0.4908 -0.5327
  455MOL0     C61317   5.547   8.938   3.767  0.9169  0.4222  0.6655
  455MOL0     C61318   5.664   8.886   3.829 -0.0670  0.7227 -0.6369
  455MOL0     C61319   5.785   8.969   3.820  0.4979 -0.4743  0.0489
  455MOL0     O61320   5.897   8.920   3.887  0.1388  0.2534  0.5895
  455MOL0     C61321   6.027   8.970   3.879  0.3568 -0.4073  0.0783
  455MOL0     C61322   6.077   9.089   3.812  0.3850 -0.8470  0.1472
  455MOL0     C61323   6.215   9.114   3.815  0.6013 -0.1167 -0.6764
  455MOL0     C61324   6.311   9.031   3.869 -0.2980 -0.7607 -0.2784
  455MOL0     O61325   6.450   9.068   3.855  0.0158  0.3487 -0.3080
  455MOL0     C61326   6.541   8.965   3.889 -0.0019  0.1855  0.0708
  455MOL0     C61327   6.686   9.006   3.886  1.1077 -0.0507 -0.1390
  455MOL0     C61328   6.782   8.886   3.904  0.0563  0.5222  0.2114
  455MOL0     C61329   6.926   8.928   3.871 -0.3101  0.3538  0.3287
  455MOL0     C61330   6.996   9.000   3.981  0.0507  0.4453 -0.2901
  455MOL0     C61331   7.132   9.065   3.953  0.4149  0.1553 -0.4486
  455MOL0     C61332   7.231   8.974   3.891 -0.2642 -0.3184 -0.1246
  455MOL0     C61333   7.361   9.045   3.866  0.1979 -0.6599 -0.2065
  455MOL0    Cl61334   7.329   9.166   3.740  0.1626  0.1413 -0.0278
  455MOL0     C61335   6.263   8.912   3.935  0.9527 -0.0283 -0.5458
  455MOL0     C61336   6.123   8.886   3.938 -0.2890 -0.2016 -0.4805
  455MOL0     O61337   5.783   9.072   3.752 -0.1247 -1.0451  0.5270
  455MOL0     C61338   5.655   8.757   3.889 -0.2113 -0.3223 -0.1865
  455MOL0     C61339   5.522   8.695   3.907 -0.1310 -1.5376 -0.0374
  455MOL0     N61340   4.769   8.893   4.031 -0.2831 -0.5506  0.5102
  455MOL0     N61341   4.721   9.000   3.975  0.4044  0.9634  0.6574
  455MOL0     C61342   3.827   9.723   3.223  0.4388 -0.2544 -0.4425
  455MOL0     C61343   3.689   9.736   3.198 -1.3411  0.1951  0.2606
  455MOL0     C61344   3.247   9.634   3.129 -0.3217  0.1603  0.5031
  455MOL0     C61345   3.191   9.765   3.130 -0.1488  0.6910  0.2069
  455MOL0     C61346   3.056   9.780   3.098  0.8544  0.0802  0.3443
  455MOL0     C61347   2.981   9.671   3.069  0.2201 -0.1338 -0.2166
  455MOL0     O61348   2.846   9.695   3.047  0.3110 -0.4914 -0.3587
  455MOL0     C61349   2.761   9.579   3.026 -0.0531 -0.9473 -0.2294
  455MOL0     C61350   2.616   9.604   3.017 -0.5925  0.2631  0.3370
  455MOL0     C61351   2.576   9.673   2.888  0.2031 -0.2590 -0.5080
  455MOL0     C61352   2.551   9.575   2.771  0.3560  0.7232  0.0989
  455MOL0     C61353   2.421   9.499   2.792  0.1441  0.1364 -0.6254
  455MOL0     C61354   2.315   9.457   2.839 -0.0707 -0.5574  0.3098
  455MOL0     C61355   3.039   9.547   3.062 -0.8221 -0.7520  0.4383
  455MOL0     C61356   3.171   9.524   3.082  0.0706  0.4057 -0.4563
  455MOL0     C61357   3.218   9.377   3.065 -0.2221  0.1798 -1.1569
  455MOL0     H61358   3.558   9.573   3.461  0.3731  2.9841  0.8826
  455MOL0     H61359   3.796   9.531   3.508  0.2090  1.4101  1.5754
  455MOL0     H61360   4.042   9.592   3.566  1.1586  0.0385 -0.8982
  455MOL0     H61361   4.022   9.454   3.449 -0.9970  0.0511 -0.8345
  455MOL0     H61362   4.255   9.641   3.455 -1.7901  1.1597 -1.4519
  455MOL0     H61363   4.237   9.486   3.361 -0.8982 -0.9807  0.1139
  455MOL0     H61364   4.258   9.514   3.654  0.3142 -1.5209  0.8102
  455MOL0     H61365   4.392   9.465   3.554 -0.1795  1.3457 -2.3446
  455MOL0     H61366   4.146   9.318   3.640  0.4016  2.9057  0.3987
  455MOL0     H61367   4.233   9.269   3.492 -0.2067  1.7226 -0.6828
  455MOL0     H61368   4.449   9.295   3.671  0.5683  0.1209 -1.3964
  455MOL0     H61369   4.326   9.279   3.786 -2.0697  0.1231 -1.0045
  455MOL0     H61370   4.265   9.067   3.678  0.6489  0.6605  0.3716
  455MOL0     H61371   4.411   9.095   3.569  1.3492  0.6348 -1.2865
  455MOL0     H61372   4.426   8.930   3.770 -1.0903  0.2274 -0.0463
  455MOL0     H61373   4.415   9.060   3.882  2.7325  1.7785 -0.2838
  455MOL0     H61374   4.626   9.033   3.660  0.9401 -2.3553  0.6094
  455MOL0     H61375   4.629   9.154   3.779 -0.9467  0.5356 -3.7115
  455MOL0     H61376   4.668   8.767   3.744 -0.5289  0.5562 -0.8031
  455MOL0     H61377   4.761   8.626   4.064  0.1362  0.5794  0.8650
  455MOL0     H61378   4.818   8.572   3.897  2.6323 -0.7519  1.2035
  455MOL0     H61379   4.978   8.760   4.085  2.5412 -1.1407  1.2392
  455MOL0     H61380   4.990   8.590   4.088 -0.0274  1.9103  1.8291
  455MOL0     H61381   5.043   8.796   3.861 -1.6499  1.0905  0.3024
  455MOL0     H61382   5.052   8.622   3.822 -2.0976 -0.6342  0.5181
  455MOL0     H61383   5.241   8.603   3.998 -0.1229 -1.0591 -1.2260
  455MOL0     H61384   5.222   8.780   4.013 -3.3321  0.5930  0.0296
  455MOL0     H61385   5.354   8.925   3.714  0.1966 -0.8687 -2.3897
  455MOL0     H61386   5.524   9.028   3.711 -2.8360 -2.3402 -3.0038
  455MOL0     H61387   6.020   9.162   3.757 -0.3032  1.0058  3.0965
  455MOL0     H61388   6.248   9.204   3.764  2.2610 -0.6087 -0.5169
  455MOL0     H61389   6.520   8.919   3.986  2.9478 -3.9007 -0.9736
  455MOL0     H61390   6.528   8.886   3.815  0.5656  0.8547 -0.7586
  455MOL0     H61391   6.704   9.050   3.788 -1.9303 -0.0721 -0.7945
  455MOL0     H61392   6.698   9.070   3.974 -0.5099 -1.3836  1.1145
  455MOL0     H61393   6.770   8.853   4.007 -1.7312 -1.2781 -0.5045
  455MOL0     H61394   6.769   8.801   3.836 -0.6100  2.1285 -1.7679
  455MOL0     H61395   6.922   8.994   3.784  3.3303  0.3482  0.0178
  455MOL0     H61396   6.972   8.835   3.836 -3.7253 -0.2141 -3.4657
  455MOL0     H61397   7.009   8.918   4.053  0.2988  1.5740  0.9833
  455MOL0     H61398   6.927   9.078   4.013 -0.2278  0.5117 -1.0142
  455MOL0     H61399   7.113   9.147   3.883  1.8609  1.2582  0.3832
  455MOL0     H61400   7.174   9.102   4.047 -0.8565  1.2696 -0.2860
  455MOL0     H61401   7.198   8.931   3.796 -1.6205 -0.9803  0.6134
  455MOL0     H61402   7.243   8.895   3.965 -2.4761  2.9366  4.1527
  455MOL0     H61403   7.389   9.097   3.958 -1.3918 -1.5545  0.8394
  455MOL0     H61404   7.441   8.976   3.838 -0.7285 -1.7585 -0.2398
  455MOL0     H61405   6.326   8.837   3.983  1.2160  1.1893  1.0773
  455MOL0     H61406   6.091   8.794   3.986 -1.7927  0.5003 -0.0590
  455MOL0     H61407   5.743   8.710   3.931  0.6355  2.6999  1.7760
  455MOL0     H61408   5.508   8.603   3.963 -1.6819 -1.9321 -0.9952
  455MOL0     H61409   3.893   9.773   3.153 -0.8710  1.9096 -0.2288
  455MOL0     H61410   3.660   9.798   3.114 -0.5767  1.9301  1.2271
  455MOL0     H61411   3.255   9.847   3.158  1.4475 -1.0196  1.8430
  455MOL0     H61412   3.016   9.880   3.114  2.3145  0.7489 -0.0468
  455MOL0     H61413   2.770   9.507   3.107 -4.2720 -0.4070  0.9451
  455MOL0     H61414   2.803   9.534   2.935  2.4656  1.4373 -0.4146
  455MOL0     H61415   2.584   9.669   3.098  4.1425  0.5313  2.3271
  455MOL0     H61416   2.560   9.510   3.012 -0.9104  0.3767  1.4900
  455MOL0     H61417   2.642   9.759   2.877  1.1524 -0.7319  1.1370
  455MOL0     H61418   2.475   9.713   2.904 -0.1962 -0.3495 -2.5916
  455MOL0     H61419   2.546   9.627   2.675 -1.7369  0.2536 -0.0908
  455MOL0     H61420   2.621   9.492   2.762 -1.9116 -1.4184  1.0547
  455MOL0     H61421   2.222   9.416   2.874 -1.3272  0.9832 -1.0422
  455MOL0     H61422   2.978   9.461   3.033  0.2376 -0.9140 -1.4684
  455MOL0     H61423   3.131   9.312   3.064 -1.1419  1.3607 -0.4333
  455MOL0     H61424   3.280   9.365   2.975  0.1268 -1.0404 -0.7630
  455MOL0     H61425   3.286   9.354   3.147 -1.8448 -0.1522  0.1479
  456MOL0     O61426   5.381   5.402   6.141  0.3673  0.6495 -0.0689
  456MOL0     C61427   5.394   5.294   6.083  0.7536 -0.2701  0.0202
  456MOL0     O61428   5.295   5.209   6.047 -0.5997  0.4541  0.3765
  456MOL0     C61429   5.164   5.232   6.071  1.1493  0.0359  0.9213
  456MOL0     C61430   5.096   5.350   6.119  0.3586  0.8437  1.1491
  456MOL0     C61431   4.956   5.349   6.111 -0.0121 -0.0767 -0.1944
  456MOL0     C61432   4.881   5.242   6.062 -0.7034 -0.1138 -0.7027
  456MOL0     O61433   4.741   5.226   6.078 -0.4269  0.1164  0.9771
  456MOL0     C61434   4.667   5.346   6.105  0.1091  0.3958 -0.3631
  456MOL0     C61435   4.527   5.313   6.162 -0.0856 -0.2712 -0.5920
  456MOL0     C61436   4.437   5.253   6.056 -0.7274  0.1499  0.6086
  456MOL0     C61437   4.315   5.199   6.120  0.3767 -0.3508 -0.2345
  456MOL0     C61438   4.204   5.172   6.020  0.2425 -0.1722 -0.4226
  456MOL0     C61439   4.114   5.060   6.078 -0.6086 -0.3061  0.1561
  456MOL0     C61440   4.014   5.022   5.967  0.2893 -0.7629 -0.5194
  456MOL0     C61441   3.904   5.124   5.954  0.5753 -0.1804  0.2644
  456MOL0     N61442   3.799   5.083   5.859  1.3571 -0.4789 -0.1289
  456MOL0     C61443   3.816   4.990   5.754 -1.2333 -0.5679  0.5663
  456MOL0     C61444   3.694   4.971   5.703  0.3952  0.0407 -0.4305
  456MOL0     C61445   3.661   4.867   5.601 -0.4429 -0.7719  1.4636
  456MOL0     C61446   3.728   4.894   5.462  0.7480 -0.7800 -0.3921
  456MOL0     C61447   3.708   5.035   5.392  0.0356 -0.9383  0.0737
  456MOL0     C61448   3.563   5.067   5.345 -0.0800  0.0260  0.0244
  456MOL0     O61449   3.539   4.980   5.234  0.2518 -0.5382 -0.3456
  456MOL0     C61450   3.413   4.997   5.166  0.2322  0.8748 -0.1272
  456MOL0     C61451   3.314   5.091   5.205 -0.3533 -0.9184  0.0548
  456MOL0     C61452   3.187   5.108   5.138  0.7366  1.2294  0.7809
  456MOL0     C61453   3.179   5.034   5.017  0.2898  0.4829 -0.4890
  456MOL0     C61454   3.082   5.066   4.916 -0.1835  0.2832  0.0574
  456MOL0     O61455   2.973   5.120   4.955  0.2356 -0.0862 -0.6124
  456MOL0     C61456   2.873   5.121   4.863 -0.5507  0.1754 -1.1393
  456MOL0     C61457   2.805   5.240   4.843 -0.1405  0.4025 -0.5610
  456MOL0     C61458   2.699   5.252   4.755  0.9264  0.4836 -0.1674
  456MOL0     C61459   2.654   5.130   4.694  0.2926 -0.5204 -0.3631
  456MOL0     O61460   2.543   5.139   4.619 -0.1302 -0.6076 -0.1902
  456MOL0     C61461   2.447   5.035   4.611  0.1071 -0.5732 -0.2812
  456MOL0     C61462   2.316   5.075   4.542 -0.0076 -0.2801  0.2205
  456MOL0     C61463   2.247   5.188   4.619  0.6487 -0.4096 -1.2128
  456MOL0     C61464   2.184   5.131   4.751  0.6636  0.2380 -0.3703
  456MOL0     C61465   2.141   5.244   4.833  0.1270  0.7027 -0.2305
  456MOL0     C61466   2.085   5.206   4.964 -0.0232 -0.0409  0.6458
  456MOL0     C61467   2.183   5.148   5.068 -0.3130  0.5218 -0.0019
  456MOL0     C61468   2.109   5.149   5.196 -1.0326  0.3705 -0.0844
  456MOL0    Cl61469   2.209   5.066   5.321 -0.0374  0.5336 -0.1742
  456MOL0     C61470   2.720   5.012   4.718 -0.2675  0.7115  0.5671
  456MOL0     C61471   2.825   5.003   4.804  0.4310  0.1421  0.0116
  456MOL0     O61472   3.115   5.051   4.797 -0.2117 -0.6512 -0.6431
  456MOL0     C61473   3.263   4.925   4.986  0.2520 -0.4411  0.7751
  456MOL0     C61474   3.384   4.908   5.058  0.3968  0.0443  0.2745
  456MOL0     N61475   3.597   5.048   5.775 -0.8715 -0.6839  0.2091
  456MOL0     N61476   3.668   5.118   5.873 -0.1527 -0.6089  0.0160
  456MOL0     C61477   4.949   5.132   6.005 -0.8847  0.1899  0.2889
  456MOL0     C61478   5.087   5.128   6.007  0.7562 -0.0515 -0.1844
  456MOL0     C61479   5.527   5.236   6.056 -0.4292 -0.0013  1.0101
  456MOL0     C61480   5.532   5.116   5.973 -1.0883 -0.3140  0.2139
  456MOL0     C61481   5.650   5.070   5.929 -1.0901  0.0930 -0.0958
  456MOL0     C61482   5.768   5.123   5.973  0.2468 -0.2581 -0.7709
  456MOL0     O61483   5.887   5.089   5.922 -0.6186  0.1323  0.0828
  456MOL0     C61484   5.929   4.969   5.843 -0.6053 -0.3420  0.7771
  456MOL0     C61485   5.996   5.015   5.713 -0.9899 -0.0278 -0.2449
  456MOL0     C61486   6.133   5.084   5.743  0.3230 -0.2089 -0.4945
  456MOL0     C61487   6.247   4.994   5.747  1.0849  0.1428 -0.3990
  456MOL0     C61488   6.362   5.085   5.752 -0.1310  0.4317  0.2306
  456MOL0     C61489   6.466   5.152   5.753  0.3618  0.7268 -0.0467
  456MOL0     C61490   5.768   5.234   6.050 -0.3226 -0.7273 -0.5385
  456MOL0     C61491   5.647   5.297   6.093 -0.3400  0.3499  0.0582
  456MOL0     C61492   5.677   5.426   6.179  1.5503  0.1568 -0.1686
  456MOL0     H61493   5.141   5.443   6.152  0.5362  1.1428  0.1163
  456MOL0     H61494   4.913   5.442   6.149  0.4456 -0.5057  1.4834
  456MOL0     H61495   4.709   5.411   6.182 -2.0587 -0.2173  1.4502
  456MOL0     H61496   4.663   5.413   6.018  0.1041  2.5187  1.1966
  456MOL0     H61497   4.481   5.402   6.205 -0.4294  0.8442 -3.0774
  456MOL0     H61498   4.531   5.248   6.249  0.7340 -2.7908 -2.4015
  456MOL0     H61499   4.486   5.172   6.001  2.0460  2.1293 -0.0575
  456MOL0     H61500   4.407   5.327   5.981  0.0072 -1.8760 -1.8218
  456MOL0     H61501   4.344   5.109   6.176 -0.3424 -1.0467 -0.9572
  456MOL0     H61502   4.279   5.274   6.191 -0.3088 -0.7244 -0.1875
  456MOL0     H61503   4.165   5.273   6.005  0.9431  0.3425  1.0288
  456MOL0     H61504   4.248   5.134   5.927  1.3308  1.6892 -0.7225
  456MOL0     H61505   4.185   4.979   6.100  0.9411  1.5319  2.4678
  456MOL0     H61506   4.062   5.095   6.167  0.0295  3.9183 -0.8976
  456MOL0     H61507   3.966   4.931   6.004  0.3032 -0.3669  0.5093
  456MOL0     H61508   4.066   5.006   5.872 -0.3114  1.7076 -1.3387
  456MOL0     H61509   3.858   5.142   6.052 -1.0142 -1.4991 -0.1845
  456MOL0     H61510   3.951   5.215   5.918  4.3119 -2.3217 -0.8337
  456MOL0     H61511   3.906   4.936   5.724 -0.6423 -0.3123  1.7762
  456MOL0     H61512   3.707   4.773   5.634  1.3604 -1.9229 -3.4672
  456MOL0     H61513   3.552   4.853   5.608 -0.5952 -0.0083  0.7375
  456MOL0     H61514   3.834   4.872   5.457  0.8674 -0.6637  1.2342
  456MOL0     H61515   3.688   4.828   5.384  2.1576 -1.5468 -0.4862
  456MOL0     H61516   3.783   5.039   5.312 -2.1769  0.3424 -2.0616
  456MOL0     H61517   3.740   5.110   5.465 -0.4226 -0.3015 -0.3707
  456MOL0     H61518   3.565   5.170   5.309 -3.5341  0.4999  0.8677
  456MOL0     H61519   3.499   5.050   5.432  0.3795 -1.1784  0.1536
  456MOL0     H61520   3.334   5.169   5.278  1.5197 -1.8419  0.6026
  456MOL0     H61521   3.118   5.185   5.173  1.8312  1.7582  1.8515
  456MOL0     H61522   2.837   5.331   4.892  1.3588 -0.5491  0.2988
  456MOL0     H61523   2.646   5.344   4.730 -0.4614 -0.6748 -1.7546
  456MOL0     H61524   2.492   4.954   4.554  2.0723  0.8338 -0.8325
  456MOL0     H61525   2.423   4.983   4.704  1.8167 -0.7756  0.0731
  456MOL0     H61526   2.330   5.098   4.436 -0.4562 -3.7751 -0.6921
  456MOL0     H61527   2.250   4.988   4.541  2.1513 -1.9987 -0.3613
  456MOL0     H61528   2.314   5.270   4.646  0.7359 -1.9446  4.4687
  456MOL0     H61529   2.163   5.233   4.565  1.1748  3.2760  0.7783
  456MOL0     H61530   2.258   5.070   4.802  1.5047  1.4651 -0.0694
  456MOL0     H61531   2.101   5.062   4.733  1.4831 -0.5836 -1.0614
  456MOL0     H61532   2.065   5.301   4.779 -1.8506 -1.2258  0.3704
  456MOL0     H61533   2.222   5.317   4.841  1.5868 -0.3290 -3.6540
  456MOL0     H61534   2.048   5.301   5.002 -0.9141  0.2369 -0.8481
  456MOL0     H61535   1.996   5.144   4.951 -0.4616  0.4694  1.2056
  456MOL0     H61536   2.266   5.215   5.091 -0.3054  1.1744 -1.7654
  456MOL0     H61537   2.212   5.045   5.043  0.2963  0.2237  1.8173
  456MOL0     H61538   2.096   5.255   5.223 -0.7442  0.6216 -0.8904
  456MOL0     H61539   2.016   5.091   5.188 -1.5380  0.9640  1.2563
  456MOL0     H61540   2.682   4.923   4.668  0.5632  0.2358  0.7526
  456MOL0     H61541   2.872   4.907   4.825 -0.5120 -0.3107  0.1309
  456MOL0     H61542   3.233   4.873   4.895  1.0174  0.9469 -0.3022
  456MOL0     H61543   3.450   4.825   5.038  1.0201  0.9071 -1.4825
  456MOL0     H61544   4.904   5.047   5.954 -0.2266  1.1358 -2.0168
  456MOL0     H61545   5.129   5.038   5.964 -0.4623 -1.5645  1.6397
  456MOL0     H61546   5.443   5.064   5.938 -1.3093  0.6372 -0.6728
  456MOL0     H61547   5.638   4.987   5.860 -2.0017  1.1238 -1.2249
  456MOL0     H61548   5.852   4.894   5.823  0.4531 -0.9430 -1.3045
  456MOL0     H61549   6.010   4.915   5.893 -1.3660 -0.2169  2.2025
  456MOL0     H61550   5.937   5.093   5.665 -0.8066  1.4367  1.7686
  456MOL0     H61551   6.004   4.931   5.643 -0.7276  0.1329 -0.4137
  456MOL0     H61552   6.136   5.143   5.835  1.3324 -1.4933  0.3292
  456MOL0     H61553   6.138   5.159   5.663 -1.6319  1.8925  1.1827
  456MOL0     H61554   6.243   4.932   5.838 -6.0905  0.8761  0.3940
  456MOL0     H61555   6.252   4.922   5.665  1.2576  0.5675 -0.7695
  456MOL0     H61556   6.563   5.197   5.751  0.6410  0.1134 -0.4471
  456MOL0     H61557   5.859   5.283   6.080 -1.2763 -0.4086  2.0354
  456MOL0     H61558   5.637   5.416   6.280  2.5461 -3.2196  0.0310
  456MOL0     H61559   5.786   5.436   6.183  1.6045 -0.3048 -0.3875
  456MOL0     H61560   5.638   5.516   6.131  1.9796  0.0458 -0.7323
  457MOL0     O61561   0.339   6.076   9.784 -0.3893  0.1184 -0.2053
  457MOL0     C61562   0.249   6.160   9.782  0.0830  0.1396  0.9406
  457MOL0     O61563   0.224   6.254   9.878 -0.7446  0.3248 -0.4673
  457MOL0     C61564   0.314   6.257   9.981  0.6690  0.0533  0.1419
  457MOL0     C61565   0.281   6.213  10.106  0.3516 -0.5607 -0.7383
  457MOL0     C61566   0.380   6.195  10.204 -0.1751 -0.5493 -0.7772
  457MOL0     C61567   0.512   6.219  10.165 -0.1101 -0.1065  0.0105
  457MOL0     O61568   0.619   6.180  10.245  0.6468  0.3997  0.0689
  457MOL0     C61569   0.586   6.079  10.350 -1.0176  0.2465 -0.7167
  457MOL0     C61570   0.716   6.043  10.416  0.9917  0.0972  0.2879
  457MOL0     C61571   0.809   6.160  10.464  0.5766  0.5390 -0.6584
  457MOL0     C61572   0.930   6.096  10.529 -0.4032  0.2857  0.2524
  457MOL0     C61573   1.013   6.203  10.590  0.5867 -0.3794  0.3758
  457MOL0     C61574   1.123   6.156  10.689 -0.0344  0.5541  0.2620
  457MOL0     C61575   1.066   6.158  10.833 -0.2467 -0.3749  0.0649
  457MOL0     C61576   1.174   6.096  10.915 -1.0954 -0.3137 -0.0931
  457MOL0     N61577   1.312   6.150  10.898 -0.5637 -0.1549 -0.5559
  457MOL0     C61578   1.353   6.265  10.949 -0.0251 -0.2336 -0.1803
  457MOL0     C61579   1.484   6.283  10.919  1.5071  0.8971  0.7923
  457MOL0     C61580   1.563   6.403  10.918 -0.7000  0.1336  0.2097
  457MOL0     C61581   1.623   6.423  10.771  0.2604 -0.4735 -0.5428
  457MOL0     C61582   1.722   6.539  10.783 -0.0759 -1.3964  0.2735
  457MOL0     C61583   1.800   6.547  10.652  0.1160  0.1761 -0.3755
  457MOL0     O61584   1.909   6.633  10.666 -0.0547  0.1359 -0.3644
  457MOL0     C61585   2.037   6.617  10.614 -0.5229 -0.1808  0.1036
  457MOL0     C61586   2.152   6.672  10.670  0.0247  0.6912 -0.5004
  457MOL0     C61587   2.274   6.639  10.629 -0.2794  0.3629 -0.6349
  457MOL0     C61588   2.303   6.557  10.522 -0.0852 -0.8026  0.5505
  457MOL0     C61589   2.443   6.533  10.466  0.0909  0.2022 -0.7915
  457MOL0     O61590   2.537   6.601  10.529  0.8044  0.1645  0.0925
  457MOL0     C61591   2.662   6.596  10.481 -0.4191  0.0902 -0.3123
  457MOL0     C61592   2.714   6.684  10.386  0.6813 -0.4440 -0.0851
  457MOL0     C61593   2.845   6.681  10.345 -0.5535  1.0102  0.6466
  457MOL0     C61594   2.937   6.590  10.407 -0.8587  0.1501 -0.7037
  457MOL0     O61595   3.067   6.576  10.381  0.4476  0.4736 -0.0456
  457MOL0     C61596   3.106   6.634  10.258 -1.3637  0.5119 -0.4445
  457MOL0     C61597   3.257   6.606  10.243  0.3160 -0.1770  0.2609
  457MOL0     C61598   3.332   6.715  10.165 -0.0954  0.3941  0.6369
  457MOL0     C61599   3.478   6.665  10.165  0.1534  0.3575 -0.3021
  457MOL0     C61600   3.561   6.766  10.085  0.3433 -0.4185  0.6089
  457MOL0     C61601   3.713   6.755  10.103  0.6588  0.1259  0.1543
  457MOL0     C61602   3.778   6.868  10.019 -0.2299  0.8778  0.7753
  457MOL0     C61603   3.931   6.876  10.030  0.1024  1.0395 -0.6948
  457MOL0    Cl61604   3.978   6.998   9.899  0.0467  0.6620 -0.2853
  457MOL0     C61605   2.885   6.502  10.505 -0.4000 -0.6821  0.0168
  457MOL0     C61606   2.749   6.501  10.537  0.4351 -0.3176 -0.3803
  457MOL0     O61607   2.449   6.448  10.381  0.1523  0.3015  0.5358
  457MOL0     C61608   2.189   6.494  10.467  0.2184  0.3680 -0.0226
  457MOL0     C61609   2.058   6.529  10.505 -0.8567  0.0926  0.0504
  457MOL0     N61610   1.516   6.153  10.864  0.3586 -0.4981 -0.2211
  457MOL0     N61611   1.414   6.075  10.847 -0.0883  0.7427 -0.0520
  457MOL0     C61612   0.544   6.279  10.038 -0.6069 -0.0141 -0.0455
  457MOL0     C61613   0.445   6.294   9.946 -0.1077  0.5489 -0.2761
  457MOL0     C61614   0.154   6.157   9.662 -0.5101  0.2632  0.4929
  457MOL0     C61615   0.198   6.120   9.537  0.2782  0.4874  0.1816
  457MOL0     C61616   0.119   6.104   9.423  0.3659 -0.9393 -0.5597
  457MOL0     C61617  -0.015   6.128   9.427 -0.6578  0.3070 -0.3905
  457MOL0     O61618  -0.080   6.127   9.308  0.5132  0.5766 -0.1979
  457MOL0     C61619  -0.202   6.202   9.306 -0.5946  0.0174 -0.4530
  457MOL0     C61620  -0.265   6.186   9.167  0.3519  0.2354  0.3592
  457MOL0     C61621  -0.391   6.268   9.154  0.1851 -0.5204  0.2212
  457MOL0     C61622  -0.485   6.246   9.032  1.6756  0.6336  1.2355
  457MOL0     C61623  -0.496   6.101   9.001  0.3208  0.2199 -0.0967
  457MOL0     C61624  -0.514   5.980   8.968  0.4742 -0.7903 -0.0140
  457MOL0     C61625  -0.067   6.174   9.550  0.3113 -0.2899 -0.1200
  457MOL0     C61626   0.012   6.190   9.663  1.0625 -0.6110  0.3088
  457MOL0     C61627  -0.054   6.234   9.795 -0.7433 -0.1172 -0.1589
  457MOL0     H61628   0.177   6.188  10.126 -0.3034  2.3908  0.0360
  457MOL0     H61629   0.351   6.151  10.299  0.2940  0.4102 -0.1811
  457MOL0     H61630   0.530   6.133  10.427  0.2935  0.4637  0.1151
  457MOL0     H61631   0.543   5.987  10.309 -0.9950 -0.3773  0.6103
  457MOL0     H61632   0.775   5.981  10.348  1.9686  0.2519  0.9657
  457MOL0     H61633   0.689   5.980  10.501  0.3187  1.2457  0.9518
  457MOL0     H61634   0.760   6.221  10.541  2.2840  0.1200  0.8161
  457MOL0     H61635   0.827   6.232  10.383 -1.5922  1.5263 -0.3497
  457MOL0     H61636   0.898   6.019  10.601  0.0415 -0.1803 -0.0417
  457MOL0     H61637   0.999   6.044  10.462 -0.0390  2.2098 -0.9215
  457MOL0     H61638   1.067   6.252  10.509  1.0037 -1.9245 -0.3123
  457MOL0     H61639   0.938   6.273  10.629 -2.1560 -3.4828  1.0498
  457MOL0     H61640   1.157   6.056  10.660  1.4495  0.3671  2.4390
  457MOL0     H61641   1.207   6.226  10.691 -0.1275  0.7189 -0.8107
  457MOL0     H61642   0.978   6.094  10.836  0.9643 -2.0961  0.5759
  457MOL0     H61643   1.047   6.258  10.874  2.5657 -0.5557  2.1485
  457MOL0     H61644   1.143   6.117  11.018 -0.9205 -0.9114  0.0879
  457MOL0     H61645   1.168   5.987  10.905 -2.0275 -0.3792  0.9828
  457MOL0     H61646   1.286   6.337  10.995 -1.9845 -1.8490 -0.3609
  457MOL0     H61647   1.497   6.488  10.938  0.0472  2.7481 -5.9464
  457MOL0     H61648   1.648   6.396  10.987  0.6793  3.0670 -1.0172
  457MOL0     H61649   1.684   6.337  10.742  0.1349 -1.2310  1.2643
  457MOL0     H61650   1.549   6.443  10.693 -0.3766  0.6030  0.3156
  457MOL0     H61651   1.790   6.533  10.868  2.2527 -2.6163 -1.5677
  457MOL0     H61652   1.659   6.628  10.776 -1.1174 -2.2838 -3.2114
  457MOL0     H61653   1.732   6.574  10.571  0.1696 -2.9378 -1.6217
  457MOL0     H61654   1.833   6.445  10.632  1.0155  0.2569  0.6018
  457MOL0     H61655   2.142   6.743  10.751  0.6477 -1.5990  1.7187
  457MOL0     H61656   2.358   6.702  10.658 -0.5817  0.4764  0.0188
  457MOL0     H61657   2.648   6.753  10.334  1.4351 -0.8732 -1.6865
  457MOL0     H61658   2.888   6.744  10.268  1.3598  2.3542  2.6754
  457MOL0     H61659   3.057   6.590  10.171  1.4767 -2.5270 -0.6993
  457MOL0     H61660   3.099   6.743  10.267  0.9066  0.6257  0.7368
  457MOL0     H61661   3.293   6.599  10.346  0.2669  1.5732  0.4261
  457MOL0     H61662   3.264   6.508  10.196 -0.5595 -0.8291  1.4347
  457MOL0     H61663   3.296   6.726  10.063  0.2849 -3.4963 -0.0647
  457MOL0     H61664   3.320   6.807  10.223  0.0955  0.6718  0.2434
  457MOL0     H61665   3.490   6.569  10.113  1.4104  0.4801 -0.2865
  457MOL0     H61666   3.511   6.655  10.269  2.2078  0.9082 -0.8442
  457MOL0     H61667   3.531   6.864  10.125  0.4872  0.3566 -1.1094
  457MOL0     H61668   3.523   6.757   9.983 -2.2145  0.1945  1.4154
  457MOL0     H61669   3.745   6.763  10.207 -1.8584  1.9270  0.8661
  457MOL0     H61670   3.749   6.657  10.069 -2.3193 -0.8822 -0.3983
  457MOL0     H61671   3.720   6.957  10.045 -1.5244  0.4400 -0.4309
  457MOL0     H61672   3.752   6.840   9.917 -2.6423  0.5728  1.3897
  457MOL0     H61673   3.954   6.915  10.129 -0.0509 -1.0563  0.1963
  457MOL0     H61674   3.992   6.787  10.015  0.3936  1.3272 -1.2844
  457MOL0     H61675   2.948   6.453  10.578  0.1022  1.9719  1.5026
  457MOL0     H61676   2.718   6.420  10.603 -0.8823  1.3195  1.1206
  457MOL0     H61677   2.209   6.422  10.388 -1.3597 -0.3569  0.1873
  457MOL0     H61678   1.984   6.477  10.445 -1.4118  1.1995 -0.2581
  457MOL0     H61679   0.646   6.294  10.006 -0.4467 -2.3549 -0.8633
  457MOL0     H61680   0.472   6.316   9.843 -2.3507 -2.0730 -1.5350
  457MOL0     H61681   0.305   6.102   9.538  0.1126 -0.5892  0.2628
  457MOL0     H61682   0.158   6.070   9.328 -0.2175 -0.9751 -0.7923
  457MOL0     H61683  -0.180   6.308   9.322  0.3550 -0.3698  0.9570
  457MOL0     H61684  -0.273   6.165   9.381 -1.0406 -1.9158 -1.7292
  457MOL0     H61685  -0.283   6.079   9.151  1.4450  0.1107 -0.1162
  457MOL0     H61686  -0.190   6.220   9.096  2.5957 -1.3746  1.8170
  457MOL0     H61687  -0.356   6.371   9.142  1.7530 -1.2283 -1.8216
  457MOL0     H61688  -0.455   6.260   9.242  1.5929  1.5230  1.5227
  457MOL0     H61689  -0.579   6.297   9.052  1.9539  1.7993 -0.2257
  457MOL0     H61690  -0.444   6.296   8.943  1.1488 -0.4974  0.3217
  457MOL0     H61691  -0.539   5.879   8.945 -1.3149 -0.1922 -0.8487
  457MOL0     H61692  -0.174   6.189   9.562  0.3762  0.7875 -0.8070
  457MOL0     H61693  -0.028   6.176   9.884  0.3805 -0.5704 -0.7597
  457MOL0     H61694  -0.043   6.343   9.797  1.1729 -0.1853 -2.2244
  457MOL0     H61695  -0.163   6.222   9.793 -0.9523  0.9603  1.9319
  458MOL0     O61696   9.397  10.904   9.098 -0.5039  0.3218 -0.3868
  458MOL0     C61697   9.311  10.824   9.057 -1.3712  0.5925 -0.3695
  458MOL0     O61698   9.343  10.696   9.010  0.6452  0.3975 -0.1053
  458MOL0     C61699   9.471  10.654   9.037 -0.5974 -0.5598 -0.7038
  458MOL0     C61700   9.491  10.541   9.115 -0.5196 -1.0534 -0.6495
  458MOL0     C61701   9.610  10.484   9.134 -0.8548 -0.5513  0.5765
  458MOL0     C61702   9.727  10.540   9.082  0.9038 -0.0998  0.3354
  458MOL0     O61703   9.857  10.508   9.097  0.0205  0.3044  1.1452
  458MOL0     C61704   9.895  10.391   9.179  0.6719  0.0605 -0.0976
  458MOL0     C61705   9.925  10.439   9.327 -0.3492  0.0177 -0.9075
  458MOL0     C61706  10.073  10.484   9.348  0.5151 -0.1585 -0.6173
  458MOL0     C61707  10.107  10.499   9.502 -0.1535 -0.4161  0.7378
  458MOL0     C61708  10.058  10.634   9.549  0.2268 -0.5889 -0.2963
  458MOL0     C61709  10.129  10.757   9.499 -0.2053 -0.7150  1.0276
  458MOL0     C61710  10.113  10.885   9.584  0.2328  0.3189 -0.7015
  458MOL0     C61711  10.229  10.910   9.671 -0.6593 -0.1547 -0.7129
  458MOL0     N61712  10.351  10.920   9.596  0.0847  0.5864  0.7325
  458MOL0     C61713  10.379  10.999   9.486 -0.2648 -0.1625 -0.2387
  458MOL0     C61714  10.498  10.963   9.438  0.0810 -0.0428 -0.7470
  458MOL0     C61715  10.559  11.029   9.314  1.0410  0.6536  0.2690
  458MOL0     C61716  10.702  10.976   9.284  0.1863  0.4117 -0.2924
  458MOL0     C61717  10.743  10.998   9.138 -1.1031  0.0527 -0.5531
  458MOL0     C61718  10.887  11.029   9.133  0.2256 -0.9482 -1.0923
  458MOL0     O61719  10.942  11.035   9.003  0.6181  0.1393  0.0482
  458MOL0     C61720  11.080  11.007   8.979  0.4306  1.2468 -0.0499
  458MOL0     C61721  11.179  11.040   9.076 -0.0687 -0.4600 -0.0272
  458MOL0     C61722  11.310  11.031   9.050 -0.6102 -0.1300 -0.3737
  458MOL0     C61723  11.358  11.002   8.926  0.1885 -0.1107  0.5642
  458MOL0     C61724  11.502  11.012   8.895  0.1164  0.0998  0.5504
  458MOL0     O61725  11.543  10.976   8.770 -0.4846  0.3466  0.1609
  458MOL0     C61726  11.679  10.986   8.740 -0.6542  0.3789  0.9306
  458MOL0     C61727  11.783  10.941   8.824  0.6286 -0.0777  0.3316
  458MOL0     C61728  11.919  10.973   8.793  0.2018 -0.5284  0.1765
  458MOL0     C61729  11.956  11.021   8.664 -0.1936 -0.1028 -1.2904
  458MOL0     O61730  12.095  11.042   8.634  0.1130 -1.1263  0.7943
  458MOL0     C61731  12.159  10.948   8.549 -0.1220  0.6737 -0.3711
  458MOL0     C61732  12.235  10.833   8.630  0.7800 -0.7178  0.5901
  458MOL0     C61733  12.313  10.863   8.755  0.2548  0.5542  0.2725
  458MOL0     C61734  12.445  10.936   8.718 -0.0503 -0.5863  0.4579
  458MOL0     C61735  12.558  10.848   8.669 -0.5389  0.0867  0.0591
  458MOL0     C61736  12.677  10.931   8.640 -0.2230  0.1995 -0.5467
  458MOL0     C61737  12.789  10.866   8.573  0.0278  0.7633  0.0135
  458MOL0     C61738  12.916  10.950   8.565 -0.0300  0.1328 -0.2638
  458MOL0    Cl61739  13.054  10.850   8.507  0.3055 -0.3108  0.3816
  458MOL0     C61740  11.852  11.050   8.578 -1.0968 -0.4577 -0.3015
  458MOL0     C61741  11.719  11.036   8.615 -0.7588  1.6126  0.2262
  458MOL0     O61742  11.580  11.043   8.989 -0.0885  0.2615  0.0997
  458MOL0     C61743  11.270  10.965   8.826  0.3062  0.4717 -1.0105
  458MOL0     C61744  11.133  10.979   8.847 -0.5197 -0.7376 -0.9138
  458MOL0     N61745  10.538  10.850   9.514  0.2079 -0.8658 -0.4079
  458MOL0     N61746  10.454  10.828   9.606  0.3076 -0.1913  0.0017
  458MOL0     C61747   9.708  10.651   9.002 -0.4641 -0.3491 -0.2219
  458MOL0     C61748   9.586  10.712   8.977 -0.5117 -0.1898 -0.9185
  458MOL0     C61749   9.179  10.863   9.040 -0.1550 -0.0255  0.3840
  458MOL0     C61750   9.112  10.837   8.920  0.5895 -0.0087 -0.0902
  458MOL0     C61751   8.979  10.884   8.902  0.3902  0.6006  0.6983
  458MOL0     C61752   8.909  10.942   9.014 -0.5400 -0.2126  0.8194
  458MOL0     O61753   8.782  10.980   9.025 -0.3039 -0.4428 -0.0350
  458MOL0     C61754   8.712  10.957   8.902  0.1509  0.0481 -0.7834
  458MOL0     C61755   8.562  10.997   8.912  0.3406 -0.5180  0.7071
  458MOL0     C61756   8.470  10.904   9.003 -0.2520 -0.7876  0.2100
  458MOL0     C61757   8.337  10.972   9.042 -0.3934  0.7172  0.2396
  458MOL0     C61758   8.267  10.856   9.101  0.4752 -1.1698 -0.6704
  458MOL0     C61759   8.222  10.755   9.153  0.3594 -0.5440 -0.5961
  458MOL0     C61760   8.982  10.954   9.131  0.2211 -0.4351 -0.2117
  458MOL0     C61761   9.118  10.919   9.156  1.3679 -0.4580  0.8461
  458MOL0     C61762   9.185  10.937   9.293  0.6219  0.2454  0.6953
  458MOL0     H61763   9.403  10.498   9.163 -0.2837 -0.4015  0.4015
  458MOL0     H61764   9.608  10.386   9.182  1.0128 -0.7069  0.3991
  458MOL0     H61765   9.815  10.317   9.187  0.8369 -0.1292 -0.1919
  458MOL0     H61766   9.983  10.337   9.144  0.5634 -1.5899  1.9364
  458MOL0     H61767   9.917  10.357   9.398  0.1020  0.1850 -0.6595
  458MOL0     H61768   9.850  10.511   9.362 -1.1034 -0.2919 -1.8472
  458MOL0     H61769  10.086  10.578   9.293  0.9076  0.4988  0.5772
  458MOL0     H61770  10.150  10.418   9.305  0.9528  0.2367 -0.4424
  458MOL0     H61771  10.061  10.417   9.558  1.8439 -1.5069  0.8599
  458MOL0     H61772  10.215  10.501   9.518  0.3766 -3.8667 -1.3639
  458MOL0     H61773   9.949  10.643   9.541  0.1532 -2.1619 -1.5479
  458MOL0     H61774  10.063  10.628   9.658 -1.1369 -1.3285 -0.2507
  458MOL0     H61775  10.232  10.722   9.488  0.1954  0.1902  1.7378
  458MOL0     H61776  10.093  10.777   9.398 -0.8628 -0.1628  1.3575
  458MOL0     H61777  10.020  10.877   9.640 -0.3327  2.6608 -1.1870
  458MOL0     H61778  10.104  10.971   9.517  4.2164  1.4694 -0.0320
  458MOL0     H61779  10.213  11.003   9.727 -0.7550  1.0962 -2.7283
  458MOL0     H61780  10.233  10.830   9.745 -2.5048 -1.8343 -2.3404
  458MOL0     H61781  10.326  11.088   9.455 -2.3005 -0.8907  0.9241
  458MOL0     H61782  10.495  11.005   9.229 -2.7243  1.5058  2.6326
  458MOL0     H61783  10.564  11.138   9.325  2.4061  0.5734  0.6767
  458MOL0     H61784  10.763  11.025   9.361 -0.2192  0.2627  0.1279
  458MOL0     H61785  10.709  10.870   9.306 -0.5299  0.3041 -0.5430
  458MOL0     H61786  10.685  11.077   9.088 -1.8365 -0.3464 -0.3559
  458MOL0     H61787  10.735  10.905   9.081  1.7142  0.0215 -1.0026
  458MOL0     H61788  10.941  10.957   9.195 -1.0411 -2.3274 -1.5360
  458MOL0     H61789  10.910  11.129   9.171 -0.0459 -0.6766 -1.6156
  458MOL0     H61790  11.165  11.081   9.176  3.3741  2.0645 -0.3628
  458MOL0     H61791  11.375  11.046   9.136 -2.3374  2.2243  0.6431
  458MOL0     H61792  11.753  10.894   8.917 -2.7724 -1.1936 -1.1411
  458MOL0     H61793  11.994  10.941   8.864  0.0114 -2.4168 -0.4017
  458MOL0     H61794  12.086  10.893   8.488 -1.1428 -0.4449  1.7695
  458MOL0     H61795  12.231  10.999   8.484  1.2985 -0.9492 -0.1333
  458MOL0     H61796  12.154  10.762   8.645 -0.3991  0.0720 -1.5247
  458MOL0     H61797  12.310  10.791   8.561  1.1804  0.3140  0.3787
  458MOL0     H61798  12.255  10.927   8.822 -1.5978  0.6375 -1.3325
  458MOL0     H61799  12.330  10.767   8.804  1.0456  0.0294 -0.9920
  458MOL0     H61800  12.462  10.991   8.811 -0.3435  0.0472  0.1468
  458MOL0     H61801  12.420  11.015   8.647 -0.3562 -1.1245 -0.0365
  458MOL0     H61802  12.512  10.799   8.583  1.0662 -2.4545  0.5650
  458MOL0     H61803  12.586  10.770   8.740  0.5170 -2.0011 -2.5030
  458MOL0     H61804  12.647  11.005   8.565 -0.3392  0.1688 -0.5311
  458MOL0     H61805  12.719  10.979   8.729  0.5425 -1.0392 -0.2139
  458MOL0     H61806  12.764  10.842   8.470  1.0786  0.6155 -0.2150
  458MOL0     H61807  12.811  10.766   8.614 -0.8434  0.4680 -0.2175
  458MOL0     H61808  12.900  11.030   8.492  0.8996  0.5180 -0.0597
  458MOL0     H61809  12.955  10.982   8.662  1.3778 -1.2898 -0.3345
  458MOL0     H61810  11.867  11.093   8.479 -0.9153 -0.3887 -0.2437
  458MOL0     H61811  11.637  11.085   8.562  0.3099  0.9973 -2.0921
  458MOL0     H61812  11.305  10.938   8.727  1.0685 -3.4406  0.1869
  458MOL0     H61813  11.051  10.963   8.777  0.9638 -1.6849 -2.5122
  458MOL0     H61814   9.795  10.702   8.962 -0.3888 -1.6996 -1.8959
  458MOL0     H61815   9.571  10.801   8.916 -2.8500 -0.2853 -0.5775
  458MOL0     H61816   9.170  10.805   8.834 -1.3794 -2.1845 -0.7062
  458MOL0     H61817   8.933  10.864   8.806  1.4770 -2.2400  0.6799
  458MOL0     H61818   8.724  10.854   8.866  2.2074  0.8710 -2.6743
  458MOL0     H61819   8.747  11.026   8.824 -1.7014  2.3675  0.3061
  458MOL0     H61820   8.521  11.001   8.811  0.5141  2.2385  0.6614
  458MOL0     H61821   8.555  11.104   8.935 -0.9038 -0.6616  1.0343
  458MOL0     H61822   8.522  10.868   9.093 -1.4329 -4.0931 -0.2868
  458MOL0     H61823   8.449  10.810   8.951 -0.6566  0.5157 -2.1274
  458MOL0     H61824   8.356  11.049   9.117 -1.1835  0.8181  0.3396
  458MOL0     H61825   8.289  11.012   8.952  3.1500 -0.5196 -2.4584
  458MOL0     H61826   8.192  10.672   9.214  3.9396 -3.8451 -2.8605
  458MOL0     H61827   8.930  11.001   9.214 -0.7107 -3.4524  1.0486
  458MOL0     H61828   9.233  11.035   9.287 -0.8604  0.9576 -0.0350
  458MOL0     H61829   9.110  10.939   9.373 -0.7680  1.9390 -0.5837
  458MOL0     H61830   9.256  10.854   9.309 -0.0313 -0.0969  1.9304
  459MOL0     O61831  11.055   7.887   0.685  0.0287 -0.5944  0.1548
  459MOL0     C61832  11.028   7.801   0.595  0.2311  0.3479  0.1511
  459MOL0     O61833  11.113   7.709   0.540 -0.1188  0.0133 -0.2249
  459MOL0     C61834  11.243   7.707   0.581  0.0064 -0.1546 -0.8416
  459MOL0     C61835  11.324   7.824   0.579  0.3331  0.2557 -0.5154
  459MOL0     C61836  11.458   7.808   0.610  0.1332  0.0574  0.0890
  459MOL0     C61837  11.508   7.684   0.671  0.6433  0.7732 -0.0369
  459MOL0     O61838  11.644   7.657   0.688 -0.0215 -0.0095 -0.2605
  459MOL0     C61839  11.712   7.668   0.568  0.1414 -0.2341  0.6274
  459MOL0     C61840  11.864   7.637   0.601  0.3272  0.9746  0.5401
  459MOL0     C61841  11.941   7.659   0.479  0.1417 -0.1107 -0.4877
  459MOL0     C61842  12.091   7.651   0.516  0.6145 -0.6209 -0.5198
  459MOL0     C61843  12.181   7.689   0.401 -0.2733  0.3668  0.5784
  459MOL0     C61844  12.232   7.569   0.324  0.0825  0.3459 -0.4021
  459MOL0     C61845  12.267   7.606   0.178  0.2709  0.2314 -0.3281
  459MOL0     C61846  12.340   7.478   0.115 -0.1218  0.3734  0.7116
  459MOL0     N61847  12.455   7.504   0.034 -0.1010  0.5269 -0.0796
  459MOL0     C61848  12.472   7.558  -0.095 -0.2941  0.8276  0.9458
  459MOL0     C61849  12.602   7.589  -0.106  0.3588 -0.5525  1.0572
  459MOL0     C61850  12.666   7.643  -0.233 -0.6763  0.1731  0.0648
  459MOL0     C61851  12.631   7.552  -0.348 -0.0189 -0.6098 -0.6289
  459MOL0     C61852  12.684   7.603  -0.477  0.0260 -0.1272 -0.4752
  459MOL0     C61853  12.679   7.517  -0.599 -0.5599  0.6625 -0.4567
  459MOL0     O61854  12.751   7.591  -0.701  1.1021  1.1154 -0.1400
  459MOL0     C61855  12.861   7.530  -0.752  0.5461  0.4769  0.2151
  459MOL0     C61856  12.876   7.394  -0.768 -0.2515 -0.3144 -0.3088
  459MOL0     C61857  12.980   7.343  -0.837  0.3832 -0.6997 -0.2576
  459MOL0     C61858  13.093   7.425  -0.878  0.1871  0.1090 -0.2368
  459MOL0     C61859  13.203   7.358  -0.931  0.0734 -0.2003 -0.1653
  459MOL0     O61860  13.280   7.452  -0.991 -0.3199 -0.0160  0.0834
  459MOL0     C61861  13.396   7.409  -1.054  0.8598 -0.4774 -0.5164
  459MOL0     C61862  13.434   7.475  -1.162 -0.3977  0.7241  0.8602
  459MOL0     C61863  13.550   7.440  -1.230  0.5798  0.9140 -0.8797
  459MOL0     C61864  13.638   7.341  -1.182  0.6674 -0.3901  0.5415
  459MOL0     O61865  13.752   7.311  -1.255 -0.4416  0.7584 -0.0141
  459MOL0     C61866  13.826   7.189  -1.225  0.9713 -0.2910  0.2438
  459MOL0     C61867  13.917   7.139  -1.338  0.0642 -0.5222  0.3743
  459MOL0     C61868  14.025   7.243  -1.369  0.4459 -0.5013 -0.2520
  459MOL0     C61869  14.113   7.190  -1.478 -0.6811 -0.0105 -0.3470
  459MOL0     C61870  14.227   7.281  -1.538 -0.5518 -0.0075 -0.3873
  459MOL0     C61871  14.341   7.209  -1.614  0.6654 -0.1814  0.7970
  459MOL0     C61872  14.276   7.161  -1.750  0.2708  0.1428  0.1650
  459MOL0     C61873  14.367   7.097  -1.846  0.0906  0.1836 -0.6847
  459MOL0    Cl61874  14.462   7.238  -1.915  0.1405  0.0804  0.3744
  459MOL0     C61875  13.609   7.283  -1.063 -0.0238  0.5729  0.0981
  459MOL0     C61876  13.493   7.319  -0.997  0.8126  0.5644  0.4661
  459MOL0     O61877  13.220   7.235  -0.916 -0.1166 -0.4950  0.0761
  459MOL0     C61878  13.075   7.564  -0.866 -0.4252  0.2406  0.2115
  459MOL0     C61879  12.963   7.614  -0.806  0.6204  0.0000 -0.7325
  459MOL0     N61880  12.670   7.542   0.010 -0.0860 -0.5890  0.6337
  459MOL0     N61881  12.585   7.491   0.090 -0.3298 -0.7035  0.2970
  459MOL0     C61882  11.416   7.577   0.682  0.0169 -0.2451 -0.6477
  459MOL0     C61883  11.291   7.585   0.632  0.4443 -0.2026 -0.3144
  459MOL0     C61884  10.895   7.801   0.522 -0.2502 -0.0092 -0.1371
  459MOL0     C61885  10.875   7.713   0.416 -0.6005 -0.1753 -0.1287
  459MOL0     C61886  10.757   7.704   0.342 -0.0966  0.2090 -0.3954
  459MOL0     C61887  10.652   7.790   0.371 -0.2477 -0.2913 -0.4462
  459MOL0     O61888  10.540   7.762   0.297 -0.0698 -0.3412  0.2935
  459MOL0     C61889  10.419   7.836   0.317  0.1900 -0.2339 -0.0663
  459MOL0     C61890  10.429   7.975   0.254 -0.3768 -0.8162  0.6891
  459MOL0     C61891  10.306   8.061   0.259  0.6551 -0.3836 -0.3741
  459MOL0     C61892  10.282   8.129   0.396 -0.4162 -0.4499 -0.0478
  459MOL0     C61893  10.390   8.220   0.438 -0.0818  0.2411  0.2210
  459MOL0     C61894  10.481   8.284   0.480 -0.4550  0.1116 -0.2318
  459MOL0     C61895  10.672   7.892   0.457 -1.3747 -1.2777 -0.3031
  459MOL0     C61896  10.785   7.901   0.534 -0.4183  0.4869  0.0512
  459MOL0     C61897  10.792   8.026   0.622 -0.6903  0.2009  0.4315
  459MOL0     H61898  11.286   7.907   0.521 -2.9194 -1.2672 -0.7923
  459MOL0     H61899  11.531   7.887   0.593 -1.4071  1.2905 -1.0930
  459MOL0     H61900  11.671   7.607   0.487  3.2162 -0.9729 -0.4976
  459MOL0     H61901  11.719   7.772   0.533  1.8006  0.0881  1.7850
  459MOL0     H61902  11.858   7.530   0.621 -0.6192  1.1289  1.1252
  459MOL0     H61903  11.904   7.691   0.687 -0.2259  0.1649  1.3279
  459MOL0     H61904  11.917   7.756   0.433  1.5987  0.9614  0.8838
  459MOL0     H61905  11.915   7.594   0.395  0.1010  0.6076 -1.0456
  459MOL0     H61906  12.107   7.715   0.603 -0.7811 -1.0618  0.0867
  459MOL0     H61907  12.126   7.552   0.548  0.5470  0.4100  3.2271
  459MOL0     H61908  12.121   7.749   0.332 -0.0887  0.4781  0.5153
  459MOL0     H61909  12.269   7.747   0.430 -0.6025  1.9211 -1.3208
  459MOL0     H61910  12.315   7.513   0.366  1.9893  1.6630 -2.2309
  459MOL0     H61911  12.154   7.493   0.317  0.2735  0.0017  0.9772
  459MOL0     H61912  12.328   7.696   0.164  1.1613 -0.5176 -1.4375
  459MOL0     H61913  12.177   7.616   0.116  1.3138 -4.4740 -3.1101
  459MOL0     H61914  12.375   7.410   0.193 -1.4180  0.4786  1.4177
  459MOL0     H61915  12.271   7.423   0.049  1.6645  0.3510 -1.2368
  459MOL0     H61916  12.392   7.578  -0.165  0.8391 -1.0937 -1.0096
  459MOL0     H61917  12.625   7.741  -0.261  0.4556  0.1525 -1.7716
  459MOL0     H61918  12.775   7.644  -0.228 -0.5216 -4.0250  1.0181
  459MOL0     H61919  12.671   7.452  -0.335 -2.0126 -1.5302 -1.1908
  459MOL0     H61920  12.523   7.559  -0.358 -0.2510 -1.4868  0.9704
  459MOL0     H61921  12.791   7.616  -0.458  0.2827  2.8400 -3.0979
  459MOL0     H61922  12.630   7.697  -0.492  0.1827  0.5537  2.6583
  459MOL0     H61923  12.574   7.503  -0.626 -0.3158  0.5768 -1.3837
  459MOL0     H61924  12.727   7.425  -0.566 -0.4014  1.0277  0.3631
  459MOL0     H61925  12.804   7.316  -0.742 -1.1655 -0.8360 -3.8140
  459MOL0     H61926  12.996   7.236  -0.836  0.2142 -0.7225  0.2711
  459MOL0     H61927  13.385   7.562  -1.205  1.4642  1.1403 -0.5320
  459MOL0     H61928  13.592   7.506  -1.305 -0.0016  1.8958 -0.3736
  459MOL0     H61929  13.880   7.197  -1.131  0.6512 -1.0032  0.4913
  459MOL0     H61930  13.748   7.115  -1.207  1.6408 -0.8293  0.9884
  459MOL0     H61931  13.963   7.042  -1.314 -1.5063 -1.1925  0.7922
  459MOL0     H61932  13.853   7.121  -1.425 -0.6910 -2.6945  1.2950
  459MOL0     H61933  13.966   7.327  -1.408  1.5314  1.7831  2.6138
  459MOL0     H61934  14.079   7.278  -1.281 -3.0587  1.3250  1.3886
  459MOL0     H61935  14.052   7.158  -1.563  1.8965 -0.4240 -2.1431
  459MOL0     H61936  14.153   7.097  -1.435 -1.6514 -0.9820 -1.4795
  459MOL0     H61937  14.278   7.319  -1.449 -1.4155  1.4716 -0.5031
  459MOL0     H61938  14.185   7.371  -1.583  0.4750  0.4723 -0.4138
  459MOL0     H61939  14.420   7.280  -1.642  2.1707 -2.0377  0.1698
  459MOL0     H61940  14.380   7.122  -1.560 -0.0509 -0.2462  1.2253
  459MOL0     H61941  14.231   7.239  -1.811  0.5901  0.6472  0.5584
  459MOL0     H61942  14.206   7.084  -1.716  2.4541 -1.0607  2.2861
  459MOL0     H61943  14.433   7.014  -1.818  1.4011  1.5961  0.5983
  459MOL0     H61944  14.299   7.054  -1.920 -1.2649  1.5258 -0.2672
  459MOL0     H61945  13.679   7.210  -1.023 -1.9009 -0.7098  1.2236
  459MOL0     H61946  13.471   7.269  -0.903 -0.3883 -0.9465 -0.5715
  459MOL0     H61947  13.148   7.631  -0.909 -0.4974  0.8823  1.0541
  459MOL0     H61948  12.953   7.720  -0.783  1.2227  0.0718 -0.7797
  459MOL0     H61949  11.459   7.481   0.712  1.3289  0.2835 -0.7766
  459MOL0     H61950  11.230   7.496   0.631  0.8631 -0.4863 -0.8201
  459MOL0     H61951  10.951   7.641   0.387 -0.2895  0.2923 -0.4922
  459MOL0     H61952  10.740   7.627   0.268  0.6140  1.2088 -1.6529
  459MOL0     H61953  10.411   7.842   0.426  0.9964 -0.4713  0.0083
  459MOL0     H61954  10.331   7.780   0.282  0.4888  0.3604 -1.8729
  459MOL0     H61955  10.431   7.955   0.146 -1.8419 -0.8711  0.6544
  459MOL0     H61956  10.524   8.023   0.280 -1.0535  0.1582  1.4306
  459MOL0     H61957  10.216   8.006   0.230  0.8889 -1.6844  1.2496
  459MOL0     H61958  10.318   8.144   0.188 -1.2951 -1.9011 -2.5898
  459MOL0     H61959  10.185   8.178   0.389 -0.1963  0.0808  0.5034
  459MOL0     H61960  10.274   8.066   0.486  1.7634 -0.6959  0.0273
  459MOL0     H61961  10.564   8.349   0.497  0.0042 -0.6392  0.4224
  459MOL0     H61962  10.596   7.969   0.463 -1.8909 -1.7475 -0.6943
  459MOL0     H61963  10.758   8.003   0.723  2.2223  2.3222  2.0527
  459MOL0     H61964  10.894   8.065   0.626  0.3644 -2.3673  0.2310
  459MOL0     H61965  10.741   8.103   0.564  0.7466 -1.0076 -2.6798
  460MOL0     O61966   2.970   4.489   9.381  0.1636  0.3231 -0.3980
  460MOL0     C61967   2.953   4.386   9.309  0.1166 -0.7102 -0.5538
  460MOL0     O61968   3.055   4.327   9.245 -0.7136  1.0959 -0.3598
  460MOL0     C61969   3.180   4.386   9.254  0.0840  0.1084 -0.0711
  460MOL0     C61970   3.276   4.315   9.334  0.2428  0.7072 -0.6074
  460MOL0     C61971   3.404   4.370   9.343 -0.7680 -0.4187  0.2778
  460MOL0     C61972   3.439   4.485   9.281 -0.6842 -1.5260  0.0340
  460MOL0     O61973   3.561   4.550   9.293  0.0792  0.5659  0.1407
  460MOL0     C61974   3.668   4.477   9.354 -0.0905 -0.4553  0.2316
  460MOL0     C61975   3.794   4.550   9.329 -0.1620  0.3711  0.0745
  460MOL0     C61976   3.920   4.475   9.374  0.1863  0.6289 -0.1784
  460MOL0     C61977   4.045   4.560   9.343  0.7069 -0.6606 -0.7524
  460MOL0     C61978   4.183   4.489   9.344  0.6095 -0.4833  0.3861
  460MOL0     C61979   4.296   4.594   9.304 -0.5699 -0.4086  0.2109
  460MOL0     C61980   4.444   4.534   9.310 -0.7086 -0.1877 -0.2476
  460MOL0     C61981   4.528   4.658   9.262  0.1309  0.2438 -0.0663
  460MOL0     N61982   4.668   4.621   9.282  1.0786 -0.2540  0.8757
  460MOL0     C61983   4.735   4.617   9.399 -0.8053 -0.6107  0.3674
  460MOL0     C61984   4.858   4.587   9.365 -0.2002  0.3154 -0.4103
  460MOL0     C61985   4.980   4.579   9.455  0.0652 -0.2911 -0.3442
  460MOL0     C61986   5.105   4.640   9.394  0.1161 -0.6227 -0.0845
  460MOL0     C61987   5.139   4.772   9.476  0.8044 -0.8697 -0.2981
  460MOL0     C61988   5.208   4.735   9.606  0.6984  0.1233  0.7949
  460MOL0     O61989   5.332   4.668   9.569  0.0583  0.0546 -0.7003
  460MOL0     C61990   5.452   4.718   9.605 -0.2054  0.6202 -0.3312
  460MOL0     C61991   5.481   4.844   9.668 -0.5766 -0.4678  0.7194
  460MOL0     C61992   5.611   4.887   9.696  0.1847  0.7610 -0.7808
  460MOL0     C61993   5.724   4.815   9.656  0.0326  0.1578  0.2889
  460MOL0     C61994   5.857   4.874   9.660 -0.5287 -0.3845 -0.2498
  460MOL0     O61995   5.866   4.981   9.745 -0.1566 -0.1915  0.1509
  460MOL0     C61996   5.993   5.006   9.792 -0.6892 -0.1616 -0.0458
  460MOL0     C61997   6.043   4.920   9.893  1.0661 -0.3401  0.0873
  460MOL0     C61998   6.176   4.933   9.941 -0.5496  0.1820 -0.1429
  460MOL0     C61999   6.255   5.045   9.901 -0.2174  0.3062 -0.7957
  460MOL0     O62000   6.380   5.068   9.959 -0.5638 -0.7091  0.5729
  460MOL0     C62001   6.443   5.189   9.917 -0.4602  0.4710 -0.3224
  460MOL0     C62002   6.585   5.178   9.975  0.2020 -0.2616  0.1180
  460MOL0     C62003   6.660   5.313   9.962 -0.8958 -0.7069 -0.9334
  460MOL0     C62004   6.816   5.281   9.958 -0.1691  0.4169  0.7474
  460MOL0     C62005   6.892   5.410   9.962  0.1956 -0.1382 -1.1021
  460MOL0     C62006   7.049   5.390   9.960 -0.3777  0.9406  0.4973
  460MOL0     C62007   7.107   5.535   9.959  0.6213 -0.0806  0.0758
  460MOL0     C62008   7.254   5.539   9.977 -0.0286  0.1072 -0.0461
  460MOL0    Cl62009   7.311   5.701  10.033  0.0322 -0.5494 -0.2178
  460MOL0     C62010   6.191   5.134   9.811 -0.2477  0.5439  0.3019
  460MOL0     C62011   6.066   5.111   9.760 -0.7106 -0.4110 -0.3735
  460MOL0     O62012   5.949   4.829   9.592  0.8525  0.5610 -0.2487
  460MOL0     C62013   5.696   4.694   9.584 -0.0416  0.6332 -0.1440
  460MOL0     C62014   5.559   4.650   9.556  0.4372  0.4924  0.3997
  460MOL0     N62015   4.868   4.563   9.239  0.0582 -0.3931  0.8813
  460MOL0     N62016   4.753   4.587   9.179  0.1322  0.4980  0.0377
  460MOL0     C62017   3.351   4.548   9.204  0.3646  0.0861 -0.0664
  460MOL0     C62018   3.216   4.500   9.187  0.7569  0.6787  0.4662
  460MOL0     C62019   2.814   4.332   9.300 -1.1401  0.3398 -0.1186
  460MOL0     C62020   2.807   4.207   9.242  0.3077  0.6269  0.7631
  460MOL0     C62021   2.687   4.143   9.223  0.7576 -0.3085  0.2008
  460MOL0     C62022   2.567   4.202   9.266 -0.5791  0.6843  0.7884
  460MOL0     O62023   2.439   4.158   9.255  0.4329  0.4503  0.2540
  460MOL0     C62024   2.415   4.018   9.232 -0.2892  0.2836 -0.2193
  460MOL0     C62025   2.267   3.996   9.267 -1.7309  0.1562 -0.6429
  460MOL0     C62026   2.155   4.048   9.183 -0.1393 -0.0261 -0.2486
  460MOL0     C62027   2.019   4.015   9.229  0.1443 -0.2657 -0.2636
  460MOL0     C62028   1.913   4.026   9.124 -0.0043 -0.4707 -0.2262
  460MOL0     C62029   1.825   4.031   9.044  0.5429 -0.2707  0.2421
  460MOL0     C62030   2.573   4.328   9.317  0.0682 -0.1548  0.1086
  460MOL0     C62031   2.691   4.397   9.337 -1.0995 -0.1413  0.2821
  460MOL0     C62032   2.679   4.529   9.405 -0.6966  0.3117 -0.4436
  460MOL0     H62033   3.263   4.223   9.389 -0.0300 -1.2568 -3.7340
  460MOL0     H62034   3.473   4.322   9.411  0.3402  0.9813  0.2016
  460MOL0     H62035   3.660   4.457   9.462  3.7409 -0.3144  0.6772
  460MOL0     H62036   3.662   4.381   9.303 -2.2103 -0.4269  0.3520
  460MOL0     H62037   3.789   4.648   9.377 -2.4115  1.6714 -2.5286
  460MOL0     H62038   3.806   4.565   9.221  2.5254 -1.5377  0.0108
  460MOL0     H62039   3.927   4.386   9.311  0.6575 -0.1328  0.9035
  460MOL0     H62040   3.910   4.428   9.473  1.7364  0.9625  0.1602
  460MOL0     H62041   4.047   4.598   9.241  0.5904 -2.1921 -1.3486
  460MOL0     H62042   4.052   4.643   9.414 -2.0465 -1.0334  0.0607
  460MOL0     H62043   4.196   4.438   9.440 -0.9611 -1.4761  0.0990
  460MOL0     H62044   4.173   4.406   9.274 -2.4376 -0.3677  0.5346
  460MOL0     H62045   4.275   4.631   9.203 -1.1628  1.5881  1.0135
  460MOL0     H62046   4.299   4.677   9.375 -0.4805 -0.2641  0.0387
  460MOL0     H62047   4.454   4.455   9.235 -1.7820  0.2856 -0.9161
  460MOL0     H62048   4.463   4.492   9.409  2.4827  0.4571 -0.5015
  460MOL0     H62049   4.509   4.672   9.156  3.2607 -3.4879 -1.3827
  460MOL0     H62050   4.512   4.759   9.300 -0.9430 -0.0993  0.4329
  460MOL0     H62051   4.700   4.642   9.499 -0.7907 -0.8162  0.4260
  460MOL0     H62052   4.956   4.619   9.553 -1.2712 -2.2843  0.2160
  460MOL0     H62053   5.010   4.475   9.472  4.7365  0.3450 -3.0816
  460MOL0     H62054   5.197   4.581   9.395  0.2446 -0.4147  0.8350
  460MOL0     H62055   5.087   4.661   9.288 -1.1126  1.4924  0.4845
  460MOL0     H62056   5.046   4.826   9.498  0.0125 -2.1464 -0.3973
  460MOL0     H62057   5.202   4.845   9.425  0.5017 -0.7168 -0.4531
  460MOL0     H62058   5.132   4.672   9.652 -1.0271  1.3078 -0.3284
  460MOL0     H62059   5.215   4.827   9.665 -1.3044  2.6670 -2.5648
  460MOL0     H62060   5.401   4.911   9.700 -0.1802  1.9325 -2.7961
  460MOL0     H62061   5.611   4.983   9.746  0.0049  1.1423 -1.4913
  460MOL0     H62062   5.992   4.829   9.925  2.3292 -2.0081 -2.2617
  460MOL0     H62063   6.221   4.855  10.001  0.0096 -0.0744 -0.8782
  460MOL0     H62064   6.444   5.194   9.807  0.5308 -1.7652 -0.4700
  460MOL0     H62065   6.387   5.274   9.956 -0.5031  0.7496 -0.9699
  460MOL0     H62066   6.591   5.150  10.081  0.1512  1.8935  0.7234
  460MOL0     H62067   6.638   5.104   9.913  0.6951  0.0680  0.1429
  460MOL0     H62068   6.631   5.364   9.870 -5.1434  0.3826  0.7463
  460MOL0     H62069   6.634   5.372  10.050  0.7980 -0.8916 -0.2759
  460MOL0     H62070   6.845   5.219   9.873  0.7973 -1.6592  2.4837
  460MOL0     H62071   6.841   5.211  10.038  1.3622  1.3520  1.1248
  460MOL0     H62072   6.870   5.469  10.052  2.1447  1.9535 -1.9205
  460MOL0     H62073   6.850   5.457   9.873 -0.3537 -1.2872 -1.4677
  460MOL0     H62074   7.086   5.342  10.051 -0.6698  0.6384  0.4597
  460MOL0     H62075   7.081   5.333   9.873  0.5841  0.2105  1.3111
  460MOL0     H62076   7.049   5.591  10.033 -1.8289 -0.5595 -1.3749
  460MOL0     H62077   7.095   5.573   9.858  0.3608 -1.8848 -0.6024
  460MOL0     H62078   7.269   5.471  10.061 -3.3294 -0.0562  0.5421
  460MOL0     H62079   7.306   5.504   9.888 -0.1634 -1.2190  0.3730
  460MOL0     H62080   6.233   5.233   9.795 -2.3974  1.6907  1.3119
  460MOL0     H62081   6.033   5.199   9.707  0.9288 -0.7728 -2.1437
  460MOL0     H62082   5.771   4.620   9.555  2.1995  0.7092  4.5485
  460MOL0     H62083   5.539   4.556   9.506 -0.8224  1.6984 -1.5127
  460MOL0     H62084   3.380   4.643   9.159 -1.3504  0.5050 -0.3794
  460MOL0     H62085   3.138   4.555   9.136  0.6229 -0.7085 -0.8863
  460MOL0     H62086   2.898   4.159   9.210  0.1404 -0.2452  1.5645
  460MOL0     H62087   2.689   4.044   9.177 -4.3012 -1.8854  2.7131
  460MOL0     H62088   2.482   3.962   9.298  0.6198  0.5140 -0.9246
  460MOL0     H62089   2.435   4.001   9.126 -2.9586 -0.5632 -0.6606
  460MOL0     H62090   2.249   4.033   9.369  1.7370 -3.0830  1.4308
  460MOL0     H62091   2.255   3.887   9.276 -0.4231  0.0839  0.5818
  460MOL0     H62092   2.166   4.007   9.082  3.9867 -2.0501  0.7683
  460MOL0     H62093   2.165   4.156   9.171 -1.4874  0.3166  1.3339
  460MOL0     H62094   2.012   3.907   9.245 -1.2641 -0.0997  0.3857
  460MOL0     H62095   1.998   4.067   9.323  0.1097  0.4530 -0.6609
  460MOL0     H62096   1.748   4.054   8.973 -0.6527 -0.1882  1.5156
  460MOL0     H62097   2.472   4.362   9.336 -0.9814  0.3285 -4.9906
  460MOL0     H62098   2.585   4.580   9.385 -0.6909  1.4162  1.9800
  460MOL0     H62099   2.706   4.515   9.510  0.6378  4.4034 -0.0322
  460MOL0     H62100   2.751   4.600   9.363  0.3242  0.1061  0.8649
  461MOL0     O62101   1.194   7.491   7.770  0.2847  0.1866  0.2850
  461MOL0     C62102   1.185   7.598   7.712  0.6815 -0.1230 -0.2256
  461MOL0     O62103   1.270   7.696   7.728  0.1959 -0.5129  0.5070
  461MOL0     C62104   1.371   7.698   7.813 -0.4839  0.8189  0.0179
  461MOL0     C62105   1.389   7.820   7.884 -0.1988  0.1390 -0.1570
  461MOL0     C62106   1.490   7.813   7.977  0.2330  0.7792 -0.3537
  461MOL0     C62107   1.580   7.708   7.992 -0.1616  0.2758 -0.5276
  461MOL0     O62108   1.693   7.723   8.071  0.2509 -0.2855 -0.2223
  461MOL0     C62109   1.815   7.710   7.987 -0.2260 -0.7827 -0.3009
  461MOL0     C62110   1.890   7.582   8.029 -0.6434  0.1914 -0.2527
  461MOL0     C62111   2.041   7.563   7.985  0.2281 -0.8432  0.9074
  461MOL0     C62112   2.088   7.438   8.054  0.0370  1.2629 -1.4169
  461MOL0     C62113   2.195   7.356   7.960 -1.0113  0.6008  0.3217
  461MOL0     C62114   2.346   7.406   7.985 -0.2326  0.5929 -0.2583
  461MOL0     C62115   2.459   7.347   7.892 -0.6473 -0.6184  0.4435
  461MOL0     C62116   2.596   7.427   7.894  0.3483 -0.3891  0.1573
  461MOL0     N62117   2.680   7.397   7.779  0.7395 -0.4089 -0.2375
  461MOL0     C62118   2.805   7.339   7.794  1.5277 -0.0294 -0.3972
  461MOL0     C62119   2.861   7.345   7.673  1.3891 -0.0011  0.7520
  461MOL0     C62120   3.006   7.317   7.662  0.6040  0.3034  0.2306
  461MOL0     C62121   3.046   7.340   7.513 -0.2544 -0.4386 -0.7475
  461MOL0     C62122   3.192   7.299   7.499 -0.2971  0.3064 -0.0579
  461MOL0     C62123   3.243   7.348   7.365 -0.5811  1.0284 -0.5205
  461MOL0     O62124   3.297   7.478   7.379  0.2045  0.4886  0.0529
  461MOL0     C62125   3.431   7.495   7.365  0.4823  0.3451  0.4084
  461MOL0     C62126   3.486   7.487   7.241  0.8198  1.2865  0.2876
  461MOL0     C62127   3.624   7.494   7.212  0.5110  0.5124  1.0880
  461MOL0     C62128   3.710   7.515   7.321  0.2786  0.1992 -0.9649
  461MOL0     C62129   3.856   7.539   7.301 -0.6827  0.0795  0.8332
  461MOL0     O62130   3.946   7.501   7.401 -0.5162 -0.9951 -0.1877
  461MOL0     C62131   4.085   7.501   7.390 -0.0902 -0.3712  0.5075
  461MOL0     C62132   4.145   7.436   7.503 -1.0229 -0.0029  0.0843
  461MOL0     C62133   4.284   7.443   7.518 -0.8321  0.5037  0.9685
  461MOL0     C62134   4.365   7.505   7.425  0.1069 -0.0549  0.4152
  461MOL0     O62135   4.497   7.489   7.445 -0.2253  0.5518  0.6728
  461MOL0     C62136   4.594   7.510   7.337  0.6180 -0.0866  0.0598
  461MOL0     C62137   4.734   7.473   7.378 -0.0768 -0.0947  0.5108
  461MOL0     C62138   4.794   7.566   7.478 -0.4656 -0.2472  0.5174
  461MOL0     C62139   4.933   7.520   7.509 -0.3247 -0.1996 -0.3075
  461MOL0     C62140   4.991   7.627   7.597 -0.6540  0.1023  0.0732
  461MOL0     C62141   5.121   7.587   7.659 -0.5341 -0.2998 -0.3567
  461MOL0     C62142   5.159   7.679   7.773  0.8505  0.1235  0.8569
  461MOL0     C62143   5.280   7.631   7.853 -0.6071  0.3112 -0.2615
  461MOL0    Cl62144   5.431   7.688   7.770  0.0928 -0.3302 -0.0618
  461MOL0     C62145   4.303   7.557   7.311  0.6991 -0.3598  0.8291
  461MOL0     C62146   4.170   7.564   7.298  0.9421  1.1938  0.1536
  461MOL0     O62147   3.885   7.563   7.182 -0.4241  0.3533  0.0841
  461MOL0     C62148   3.656   7.538   7.450 -0.6043 -0.1359 -0.9480
  461MOL0     C62149   3.516   7.520   7.472  1.5436  0.2120 -0.3687
  461MOL0     N62150   2.758   7.384   7.582  0.2875  0.2899 -0.3879
  461MOL0     N62151   2.647   7.408   7.649  0.3130 -0.1926 -0.4177
  461MOL0     C62152   1.555   7.590   7.925  0.4150 -0.6844 -0.0498
  461MOL0     C62153   1.455   7.587   7.834  0.6145  0.9816 -0.5539
  461MOL0     C62154   1.071   7.626   7.612  0.1084 -0.5277 -0.3973
  461MOL0     C62155   1.048   7.760   7.570  0.6544  0.1222  0.2113
  461MOL0     C62156   0.932   7.797   7.504 -0.0125 -0.1937 -0.0287
  461MOL0     C62157   0.838   7.700   7.471  0.6078  0.1039  0.2785
  461MOL0     O62158   0.742   7.740   7.391 -0.2354 -0.0839 -0.2396
  461MOL0     C62159   0.661   7.649   7.323  0.8715  0.5225 -0.1236
  461MOL0     C62160   0.538   7.718   7.250 -0.1265  0.2964 -0.1235
  461MOL0     C62161   0.412   7.751   7.325 -1.1670  0.9250 -0.2011
  461MOL0     C62162   0.312   7.827   7.232 -0.6670  0.2413  0.4556
  461MOL0     C62163   0.234   7.741   7.142 -1.2716  0.4027  0.5571
  461MOL0     C62164   0.166   7.665   7.072 -0.5384 -0.5418 -0.7043
  461MOL0     C62165   0.867   7.573   7.506  0.5622  1.1723  0.5737
  461MOL0     C62166   0.974   7.533   7.574 -0.0396 -0.0544  0.0237
  461MOL0     C62167   0.998   7.382   7.587  0.6874  0.1208  0.0697
  461MOL0     H62168   1.323   7.905   7.872 -0.7706 -0.4577 -1.4786
  461MOL0     H62169   1.499   7.903   8.037 -2.6261  2.1558 -1.7448
  461MOL0     H62170   1.782   7.711   7.882 -0.5794  1.8794 -0.2411
  461MOL0     H62171   1.890   7.788   8.003 -0.6029 -0.5431  0.3194
  461MOL0     H62172   1.826   7.495   8.009 -1.2277 -0.2900  3.1383
  461MOL0     H62173   1.906   7.575   8.137  0.0486 -0.1552 -0.3707
  461MOL0     H62174   2.101   7.652   8.007  0.6712 -0.5402 -1.2604
  461MOL0     H62175   2.053   7.554   7.876  2.2127  0.8226  0.9243
  461MOL0     H62176   2.133   7.471   8.148 -1.1584  0.3709 -0.5035
  461MOL0     H62177   2.007   7.371   8.082 -0.2141  1.6424 -1.2215
  461MOL0     H62178   2.188   7.250   7.989  1.0242  0.8426  1.9632
  461MOL0     H62179   2.173   7.369   7.854  1.4821  3.0287 -0.0115
  461MOL0     H62180   2.344   7.515   7.973  1.2425  0.5321 -1.3019
  461MOL0     H62181   2.369   7.376   8.088 -1.2188  2.9082  0.7160
  461MOL0     H62182   2.423   7.347   7.789 -0.3269 -2.2763  0.3025
  461MOL0     H62183   2.477   7.246   7.931  1.9263 -0.6837 -0.6867
  461MOL0     H62184   2.588   7.536   7.904  1.4935 -0.3507  0.7821
  461MOL0     H62185   2.648   7.392   7.984 -1.7687  1.4610  2.2146
  461MOL0     H62186   2.857   7.312   7.886  0.8676 -0.8189 -0.2298
  461MOL0     H62187   3.068   7.386   7.720  1.8349  0.1839 -0.8899
  461MOL0     H62188   3.022   7.214   7.695  0.9842  0.6346  1.1270
  461MOL0     H62189   2.991   7.284   7.436  1.5166  0.7720 -3.0122
  461MOL0     H62190   3.030   7.447   7.493 -0.6214  0.0830  1.9461
  461MOL0     H62191   3.198   7.190   7.505 -0.8551  0.2330 -0.6618
  461MOL0     H62192   3.257   7.341   7.576 -1.8669  2.2316  0.3073
  461MOL0     H62193   3.162   7.357   7.292 -3.0062 -0.5470  1.7620
  461MOL0     H62194   3.314   7.270   7.337 -0.0476  1.3072  0.0048
  461MOL0     H62195   3.416   7.465   7.160  0.3261  2.0568  0.4965
  461MOL0     H62196   3.662   7.474   7.112 -1.5495 -5.6999  1.1225
  461MOL0     H62197   4.076   7.399   7.578 -1.8213  0.7574 -0.2577
  461MOL0     H62198   4.317   7.375   7.596 -0.7933 -0.3817  0.1922
  461MOL0     H62199   4.567   7.460   7.243 -0.7536  0.3481  0.1882
  461MOL0     H62200   4.597   7.619   7.320  3.6515 -0.1164  0.0095
  461MOL0     H62201   4.735   7.374   7.423  0.2860  0.1782  1.1249
  461MOL0     H62202   4.799   7.474   7.290  1.7227  2.0181  1.7254
  461MOL0     H62203   4.789   7.671   7.446  0.6763 -0.2593  0.2587
  461MOL0     H62204   4.726   7.554   7.562 -0.3596 -0.9415  0.5095
  461MOL0     H62205   4.987   7.516   7.414 -3.1790 -0.6305 -2.0469
  461MOL0     H62206   4.938   7.416   7.542 -0.6171 -0.3643 -0.7542
  461MOL0     H62207   4.927   7.652   7.681 -0.6984  2.4307 -0.5777
  461MOL0     H62208   5.016   7.717   7.538  4.0021 -0.6702  0.4287
  461MOL0     H62209   5.115   7.488   7.706  0.8628 -0.0583  0.3866
  461MOL0     H62210   5.208   7.587   7.592 -0.3612 -1.2424 -0.1481
  461MOL0     H62211   5.079   7.693   7.845  0.6584  1.8628  0.3579
  461MOL0     H62212   5.181   7.776   7.726  0.5737 -0.3164 -0.2199
  461MOL0     H62213   5.276   7.682   7.950 -2.3000  0.3228 -0.3043
  461MOL0     H62214   5.282   7.524   7.875  0.3829  0.2223 -0.7217
  461MOL0     H62215   4.371   7.605   7.241 -0.7406  2.9863  1.4806
  461MOL0     H62216   4.133   7.602   7.203  0.2635  0.9125  0.2974
  461MOL0     H62217   3.727   7.548   7.531 -1.6129 -1.9386  0.2154
  461MOL0     H62218   3.478   7.505   7.573 -1.4771 -2.9576 -1.7871
  461MOL0     H62219   1.623   7.505   7.926  1.7888  0.3402 -1.2487
  461MOL0     H62220   1.442   7.498   7.773  2.1331 -0.8978  1.6591
  461MOL0     H62221   1.112   7.841   7.602 -0.7445  0.5908  1.9439
  461MOL0     H62222   0.910   7.903   7.498 -1.6673 -0.3835  1.7679
  461MOL0     H62223   0.612   7.578   7.390  0.0586 -0.7742 -2.0103
  461MOL0     H62224   0.726   7.596   7.253  1.7295 -0.1328  1.1268
  461MOL0     H62225   0.514   7.660   7.161  0.8340 -0.7221  0.2578
  461MOL0     H62226   0.577   7.814   7.213  0.2000  0.3278  0.2889
  461MOL0     H62227   0.430   7.810   7.415 -2.7801 -0.3105  0.9949
  461MOL0     H62228   0.371   7.660   7.370 -0.6125  0.9861  0.4499
  461MOL0     H62229   0.238   7.879   7.294 -1.5846 -1.1948  0.6094
  461MOL0     H62230   0.365   7.911   7.186  2.0010 -1.2147  0.6679
  461MOL0     H62231   0.098   7.606   7.014 -3.1364  2.7486 -1.3275
  461MOL0     H62232   0.792   7.499   7.482 -0.3032  2.5276 -1.0724
  461MOL0     H62233   1.007   7.353   7.692  2.9558  1.2358  0.2635
  461MOL0     H62234   0.914   7.327   7.545  1.7618 -0.6871 -1.0987
  461MOL0     H62235   1.096   7.366   7.540  0.9523 -0.3348  0.7733
  462MOL0     O62236  11.199  10.508   0.352 -0.5314  0.4345 -0.4164
  462MOL0     C62237  11.118  10.442   0.423 -0.1629 -0.1548  0.2335
  462MOL0     O62238  11.150  10.341   0.508  0.3925 -0.1763  0.2696
  462MOL0     C62239  11.279  10.281   0.537 -0.2707  1.4358  0.1352
  462MOL0     C62240  11.288  10.182   0.643  0.1662 -0.2321 -0.0426
  462MOL0     C62241  11.413  10.119   0.666  0.7831  0.2191  0.1448
  462MOL0     C62242  11.527  10.150   0.595  0.0609 -1.3601 -0.0269
  462MOL0     O62243  11.643  10.090   0.626 -0.0170  0.4090 -0.2081
  462MOL0     C62244  11.745  10.077   0.520  0.2030  0.3942 -0.9613
  462MOL0     C62245  11.842   9.963   0.547 -0.2173  0.2874 -0.7533
  462MOL0     C62246  11.916   9.903   0.419  0.9390 -0.4692 -0.8881
  462MOL0     C62247  11.819   9.829   0.332  0.2052  1.0004 -0.4337
  462MOL0     C62248  11.891   9.734   0.219 -0.1923 -0.5617 -0.1886
  462MOL0     C62249  11.991   9.633   0.270  0.5364 -0.1370  0.0509
  462MOL0     C62250  12.021   9.535   0.155  0.1826  0.8736 -0.7068
  462MOL0     C62251  12.109   9.423   0.210  0.1275 -0.3299 -0.8781
  462MOL0     N62252  12.234   9.467   0.273 -0.1254  0.2578  0.1312
  462MOL0     C62253  12.272   9.411   0.398 -0.6562  0.4230 -0.2650
  462MOL0     C62254  12.398   9.463   0.417 -1.0216  0.7393  0.6337
  462MOL0     C62255  12.494   9.432   0.529 -0.3133 -0.7082 -0.2062
  462MOL0     C62256  12.635   9.379   0.481 -0.0511 -0.0828 -0.1766
  462MOL0     C62257  12.719   9.335   0.597  0.3454  0.0059 -0.3483
  462MOL0     C62258  12.861   9.305   0.551 -0.2643  0.5988  0.6355
  462MOL0     O62259  12.925   9.423   0.509  0.0078 -0.1646 -0.1560
  462MOL0     C62260  13.057   9.446   0.523 -0.1429  0.8742  0.1912
  462MOL0     C62261  13.095   9.573   0.513 -0.3357 -0.8705  0.2126
  462MOL0     C62262  13.230   9.621   0.523  0.4007 -0.0680  0.1441
  462MOL0     C62263  13.333   9.521   0.521 -0.4925 -0.6566  0.7111
  462MOL0     C62264  13.479   9.561   0.510  0.1705  0.1115  0.7690
  462MOL0     O62265  13.564   9.461   0.500 -0.4477  0.3539  0.0700
  462MOL0     C62266  13.689   9.493   0.469 -1.0883  0.5907  0.0154
  462MOL0     C62267  13.779   9.462   0.566 -0.0309 -0.0695  0.0184
  462MOL0     C62268  13.916   9.497   0.561 -0.1945 -0.2787  0.5439
  462MOL0     C62269  13.964   9.558   0.444  0.4435  0.8600  0.1638
  462MOL0     O62270  14.092   9.590   0.425  0.2766 -0.2893 -0.1653
  462MOL0     C62271  14.197   9.511   0.476 -0.0058  0.5833  0.0081
  462MOL0     C62272  14.295   9.475   0.364  0.6062 -0.5932 -0.0116
  462MOL0     C62273  14.427   9.413   0.421  0.0430 -0.2451 -0.7114
  462MOL0     C62274  14.500   9.348   0.306 -0.3051  0.0910 -0.9242
  462MOL0     C62275  14.485   9.200   0.323  0.4503  0.2676  0.0164
  462MOL0     C62276  14.540   9.135   0.192 -0.1442 -0.3202 -0.3842
  462MOL0     C62277  14.530   8.978   0.200  0.1456  0.1003  0.1877
  462MOL0     C62278  14.603   8.903   0.093 -0.3944 -0.7336 -0.0002
  462MOL0    Cl62279  14.587   8.728   0.128 -0.3620 -0.1387  0.3683
  462MOL0     C62280  13.870   9.575   0.337 -0.6298  0.2754 -0.4553
  462MOL0     C62281  13.739   9.543   0.346  0.1498 -0.2292 -1.1186
  462MOL0     O62282  13.503   9.683   0.505 -0.3423 -0.1793 -0.8696
  462MOL0     C62283  13.298   9.389   0.519 -0.0231  0.3779  0.4686
  462MOL0     C62284  13.163   9.346   0.532 -0.6608  0.0596  0.5685
  462MOL0     N62285  12.428   9.547   0.306  0.6536  0.3708  0.6043
  462MOL0     N62286  12.322   9.557   0.232 -0.3128  0.2280 -0.4653
  462MOL0     C62287  11.521  10.243   0.489 -0.0226  0.3616 -0.5143
  462MOL0     C62288  11.397  10.308   0.469  0.3439 -0.8749 -0.2606
  462MOL0     C62289  10.975  10.474   0.405  0.1546  0.0676  0.8975
  462MOL0     C62290  10.886  10.412   0.496  0.0693 -0.5290 -0.0211
  462MOL0     C62291  10.748  10.432   0.503  0.0589 -0.1581  0.8590
  462MOL0     C62292  10.690  10.518   0.404 -0.3076  0.7806 -0.0559
  462MOL0     O62293  10.548  10.533   0.380 -0.5119  0.8023 -1.0887
  462MOL0     C62294  10.461  10.428   0.421  0.4191  0.2016  0.5652
  462MOL0     C62295  10.320  10.458   0.381 -0.0659  0.4143 -0.2658
  462MOL0     C62296  10.289  10.475   0.231  0.0559  0.7049  0.2743
  462MOL0     C62297  10.142  10.514   0.217  0.5610 -0.2557  0.8023
  462MOL0     C62298  10.046  10.401   0.229  0.6693 -0.7515 -0.0879
  462MOL0     C62299   9.974  10.306   0.245  0.6500 -0.6662 -0.2774
  462MOL0     C62300  10.774  10.566   0.301 -0.1565 -0.4080 -0.1603
  462MOL0     C62301  10.911  10.548   0.297 -0.2918  0.5664  0.3350
  462MOL0     C62302  10.996  10.609   0.193 -0.5684 -0.1520  0.5379
  462MOL0     H62303  11.207  10.154   0.709  0.5980  0.6011  0.8584
  462MOL0     H62304  11.425  10.047   0.747  3.4038 -2.3058 -2.2684
  462MOL0     H62305  11.686  10.054   0.431 -0.3503  0.8271 -0.7131
  462MOL0     H62306  11.806  10.166   0.503  0.8795  0.0487 -0.4310
  462MOL0     H62307  11.808   9.880   0.610 -2.3343 -1.1040 -3.5241
  462MOL0     H62308  11.921  10.006   0.610  0.3728  0.3908 -1.5472
  462MOL0     H62309  11.991   9.834   0.459  1.6765 -1.4033 -3.6259
  462MOL0     H62310  11.965   9.979   0.359 -0.7390  1.3297 -0.1024
  462MOL0     H62311  11.767   9.751   0.388  0.2155  1.0635 -0.3364
  462MOL0     H62312  11.746   9.901   0.295 -1.1621  0.3288  0.8711
  462MOL0     H62313  11.811   9.683   0.166 -2.7871  0.2986  2.5573
  462MOL0     H62314  11.942   9.787   0.138  1.6943 -2.5218 -0.3551
  462MOL0     H62315  12.085   9.679   0.303  1.5056 -2.5006  0.7934
  462MOL0     H62316  11.960   9.581   0.361  2.1740 -4.4953 -1.6216
  462MOL0     H62317  12.074   9.586   0.075  1.4610  2.3687  1.0224
  462MOL0     H62318  11.927   9.490   0.120  0.5021 -1.0549  0.7382
  462MOL0     H62319  12.055   9.364   0.284 -2.3161 -1.2236 -3.1833
  462MOL0     H62320  12.125   9.352   0.128  4.6224 -0.8747  0.2328
  462MOL0     H62321  12.205   9.359   0.466 -0.2160  0.4533  0.2007
  462MOL0     H62322  12.510   9.520   0.591 -0.6988 -0.1468 -0.8880
  462MOL0     H62323  12.436   9.360   0.588 -0.5976 -1.7357 -1.6753
  462MOL0     H62324  12.620   9.294   0.414  1.0627  0.7047 -1.4808
  462MOL0     H62325  12.684   9.456   0.421 -1.6481  1.4757  0.4307
  462MOL0     H62326  12.665   9.250   0.639 -2.4761  1.9207  0.1689
  462MOL0     H62327  12.722   9.411   0.675 -2.5479  0.2298 -0.3681
  462MOL0     H62328  12.864   9.232   0.470  0.9796 -1.1691  2.1859
  462MOL0     H62329  12.911   9.258   0.637 -1.2172 -1.5750  0.0770
  462MOL0     H62330  13.016   9.647   0.502  1.0433  0.8785  1.4085
  462MOL0     H62331  13.260   9.724   0.512  2.3390 -0.7246 -1.1462
  462MOL0     H62332  13.743   9.416   0.658 -0.4626 -2.4462 -1.2753
  462MOL0     H62333  13.986   9.497   0.644  0.2834  0.2792  0.1520
  462MOL0     H62334  14.259   9.559   0.553  0.3073 -2.9705  2.2176
  462MOL0     H62335  14.160   9.420   0.526  1.6713 -0.4187 -0.5068
  462MOL0     H62336  14.243   9.410   0.293  1.4502  0.5166 -1.7188
  462MOL0     H62337  14.321   9.559   0.298 -0.0899  0.2867  0.7928
  462MOL0     H62338  14.477   9.504   0.455 -0.5649 -0.2867  0.3385
  462MOL0     H62339  14.405   9.347   0.506 -2.3705  0.7688 -0.4850
  462MOL0     H62340  14.605   9.379   0.308 -0.5643  0.9620 -0.0152
  462MOL0     H62341  14.461   9.376   0.208  0.6738 -0.7001 -1.5556
  462MOL0     H62342  14.378   9.182   0.331  0.3239  0.9657 -0.0567
  462MOL0     H62343  14.531   9.166   0.416  0.1539 -2.5821 -0.7832
  462MOL0     H62344  14.485   9.185   0.112 -1.8300  0.9946  1.4631
  462MOL0     H62345  14.647   9.156   0.187 -0.0523 -0.7563 -0.2988
  462MOL0     H62346  14.430   8.938   0.218  0.2309 -0.7017 -1.0031
  462MOL0     H62347  14.573   8.960   0.299 -0.7198  0.9244  0.7395
  462MOL0     H62348  14.561   8.933  -0.003  0.1105  0.0077 -0.0014
  462MOL0     H62349  14.710   8.927   0.097 -0.9230  1.5507  1.8346
  462MOL0     H62350  13.910   9.609   0.242  0.5609  1.7874  0.5297
  462MOL0     H62351  13.660   9.558   0.273  0.7000  1.2271 -1.4449
  462MOL0     H62352  13.370   9.309   0.514  0.0344  0.4875 -0.9949
  462MOL0     H62353  13.127   9.244   0.529  2.2035 -1.0312 -0.1700
  462MOL0     H62354  11.612  10.272   0.437  0.8646 -0.3711  0.5806
  462MOL0     H62355  11.403  10.385   0.393 -1.5251 -0.4091  0.0207
  462MOL0     H62356  10.921  10.342   0.571  0.0392  1.4440  1.9608
  462MOL0     H62357  10.687  10.370   0.568  2.2496 -1.5391  1.6950
  462MOL0     H62358  10.470  10.422   0.530 -1.0030 -0.9187  0.6406
  462MOL0     H62359  10.486  10.328   0.386 -0.9793  0.7011 -2.0671
  462MOL0     H62360  10.276  10.541   0.436 -1.8048 -2.6686  3.3742
  462MOL0     H62361  10.270  10.372   0.426  0.4750  0.3010  0.1222
  462MOL0     H62362  10.305  10.389   0.165  1.2324  1.3721 -0.3472
  462MOL0     H62363  10.342  10.559   0.184 -0.5683  1.1563  0.3610
  462MOL0     H62364  10.115  10.582   0.298  1.3942  2.3365 -0.9746
  462MOL0     H62365  10.126  10.562   0.120 -0.5894  0.1598  1.1918
  462MOL0     H62366   9.911  10.221   0.260 -3.0355  0.8866 -4.5072
  462MOL0     H62367  10.728  10.609   0.213  1.0550 -0.8335 -1.0366
  462MOL0     H62368  11.065  10.535   0.152 -1.7757 -0.6739 -0.6632
  462MOL0     H62369  10.935  10.642   0.108  1.4560 -1.7074 -1.6655
  462MOL0     H62370  11.057  10.692   0.227 -0.4706 -0.8762  2.2339
  463MOL0     O62371   2.538   1.251   4.030 -0.5040 -0.0991 -0.2225
  463MOL0     C62372   2.459   1.167   4.074 -0.2799 -0.2886 -0.3704
  463MOL0     O62373   2.479   1.031   4.068 -0.1111  1.3272  0.2872
  463MOL0     C62374   2.598   0.979   4.017  0.1498  0.1506 -0.5936
  463MOL0     C62375   2.592   0.844   3.977  0.4748  0.9650  1.1121
  463MOL0     C62376   2.703   0.773   3.941  0.0349  0.2683 -0.7848
  463MOL0     C62377   2.823   0.831   3.944 -0.4963 -0.2516 -0.3743
  463MOL0     O62378   2.925   0.756   3.889 -0.0604 -0.3377 -0.2444
  463MOL0     C62379   2.991   0.808   3.775  0.1471  0.6381 -0.1776
  463MOL0     C62380   3.111   0.721   3.764 -0.5243  0.2046  0.5451
  463MOL0     C62381   3.221   0.759   3.858 -0.9748  0.0006 -0.0850
  463MOL0     C62382   3.339   0.662   3.859  0.6995  0.2916  0.5236
  463MOL0     C62383   3.423   0.673   3.734  0.9683 -0.7840 -0.8193
  463MOL0     C62384   3.569   0.611   3.742 -0.7681  0.4147  0.1770
  463MOL0     C62385   3.648   0.634   3.615 -0.0559  0.2308  0.4194
  463MOL0     C62386   3.779   0.565   3.633  0.4722  0.2770 -0.6141
  463MOL0     N62387   3.766   0.426   3.598  0.0659 -0.3861  0.6530
  463MOL0     C62388   3.822   0.322   3.663 -0.1583 -0.2715 -0.9510
  463MOL0     C62389   3.833   0.220   3.572 -0.1613 -0.1677 -0.4425
  463MOL0     C62390   3.860   0.077   3.607  0.3682  0.1739  0.1381
  463MOL0     C62391   4.001   0.052   3.560  0.1740  0.4718 -0.3699
  463MOL0     C62392   4.030  -0.101   3.546  0.0040  0.3741 -0.0512
  463MOL0     C62393   4.178  -0.129   3.549 -0.0342  0.3656  1.0870
  463MOL0     O62394   4.237  -0.059   3.437  0.2540  1.2262 -0.4573
  463MOL0     C62395   4.369  -0.096   3.417 -0.1897 -0.1667  0.2729
  463MOL0     C62396   4.420  -0.107   3.287  0.7255  0.8149 -1.1024
  463MOL0     C62397   4.551  -0.144   3.269  0.2236 -0.2133 -0.3318
  463MOL0     C62398   4.639  -0.165   3.379 -0.1612 -1.7399 -0.4296
  463MOL0     C62399   4.785  -0.196   3.370  0.2289 -0.3946 -0.6803
  463MOL0     O62400   4.840  -0.220   3.249 -0.1695 -0.2244 -0.5178
  463MOL0     C62401   4.975  -0.257   3.224  0.8121 -0.3866 -0.3407
  463MOL0     C62402   5.019  -0.264   3.091 -0.5026  0.6223  0.0078
  463MOL0     C62403   5.151  -0.290   3.054  0.5697  0.4670 -0.1225
  463MOL0     C62404   5.249  -0.311   3.149  0.3420 -0.8146 -0.1942
  463MOL0     O62405   5.385  -0.297   3.117 -0.1251  0.0117 -0.1567
  463MOL0     C62406   5.429  -0.334   2.992  0.3879  0.1582  0.1927
  463MOL0     C62407   5.574  -0.389   3.001  0.2604  0.9730 -0.0210
  463MOL0     C62408   5.634  -0.408   2.861 -0.1693 -0.3061  0.0746
  463MOL0     C62409   5.772  -0.483   2.874  0.0211  0.2539 -0.1160
  463MOL0     C62410   5.883  -0.400   2.925  1.0479 -0.1377 -0.0260
  463MOL0     C62411   6.021  -0.452   2.911 -0.1698 -0.1964  0.3398
  463MOL0     C62412   6.126  -0.376   2.985  0.1515 -0.6223  0.6188
  463MOL0     C62413   6.156  -0.424   3.127 -0.1467  0.2392 -0.4056
  463MOL0    Cl62414   6.284  -0.334   3.222  0.3661  0.2951 -0.2797
  463MOL0     C62415   5.210  -0.305   3.281  0.1048  0.7189  0.0249
  463MOL0     C62416   5.078  -0.281   3.319 -0.2106 -0.4948 -0.3813
  463MOL0     O62417   4.848  -0.188   3.476 -0.4718 -0.6612  0.1374
  463MOL0     C62418   4.588  -0.159   3.516 -0.2252  0.2608  0.6667
  463MOL0     C62419   4.457  -0.122   3.524 -0.8868 -0.5150 -0.3333
  463MOL0     N62420   3.781   0.265   3.454 -0.5676  0.3170  0.2811
  463MOL0     N62421   3.737   0.381   3.473 -0.5631 -0.0765  0.0846
  463MOL0     C62422   2.844   0.959   4.000  0.4492 -0.3660 -0.0300
  463MOL0     C62423   2.727   1.032   4.043 -0.1041  0.2236 -0.6659
  463MOL0     C62424   2.335   1.220   4.145  0.5139 -0.1984  0.6671
  463MOL0     C62425   2.249   1.122   4.215 -0.1241  0.3553  0.1867
  463MOL0     C62426   2.125   1.160   4.263  0.1138  0.5462 -0.3948
  463MOL0     C62427   2.082   1.289   4.258 -0.2510  0.0551 -0.1071
  463MOL0     O62428   1.953   1.319   4.290  0.1213  0.5218  0.5068
  463MOL0     C62429   1.865   1.288   4.182 -1.0376 -0.0629 -0.3354
  463MOL0     C62430   1.768   1.405   4.148  0.4466 -0.5594  0.5448
  463MOL0     C62431   1.713   1.496   4.260  0.6024  0.2362 -0.7636
  463MOL0     C62432   1.590   1.573   4.220  0.1090 -0.4433 -0.2618
  463MOL0     C62433   1.469   1.508   4.285 -0.1151 -0.1629 -0.2997
  463MOL0     C62434   1.372   1.444   4.333  0.0016 -0.1286  1.0056
  463MOL0     C62435   2.164   1.388   4.209  0.2987  0.0984  1.2001
  463MOL0     C62436   2.290   1.352   4.148 -0.5664 -0.6248 -0.3671
  463MOL0     C62437   2.357   1.472   4.083 -1.2222  1.2372 -1.1674
  463MOL0     H62438   2.498   0.791   3.972  0.7438  0.6039 -2.6127
  463MOL0     H62439   2.702   0.670   3.907  3.1361 -0.6926  1.5741
  463MOL0     H62440   2.920   0.795   3.692 -0.7326  3.2127  0.0872
  463MOL0     H62441   3.002   0.916   3.789  2.5027  0.5413 -0.9345
  463MOL0     H62442   3.149   0.741   3.664 -1.9061  3.7195  0.5909
  463MOL0     H62443   3.087   0.615   3.779  2.0807 -0.4400  0.5582
  463MOL0     H62444   3.184   0.769   3.960 -3.0513 -1.8668 -0.5950
  463MOL0     H62445   3.256   0.859   3.830 -0.3223 -0.0776  0.4170
  463MOL0     H62446   3.408   0.683   3.941  1.6242  1.6571 -0.5709
  463MOL0     H62447   3.299   0.560   3.867 -1.8672  1.1570 -0.2992
  463MOL0     H62448   3.375   0.640   3.642 -2.6122  0.9751  0.2502
  463MOL0     H62449   3.429   0.781   3.723 -2.4439 -0.1102  2.0187
  463MOL0     H62450   3.629   0.641   3.828  0.1402 -2.6329  0.7141
  463MOL0     H62451   3.561   0.502   3.746 -0.5918  0.2970 -1.8197
  463MOL0     H62452   3.659   0.743   3.611  1.6865  0.0667 -2.7630
  463MOL0     H62453   3.587   0.606   3.529 -1.1133  0.7639  0.9720
  463MOL0     H62454   3.842   0.609   3.555 -0.2872 -1.7213 -2.4308
  463MOL0     H62455   3.821   0.576   3.734 -0.4057 -0.7636 -0.1134
  463MOL0     H62456   3.845   0.322   3.769 -2.5429 -0.8792 -0.3702
  463MOL0     H62457   3.855   0.063   3.715 -1.2702  0.5511  0.1313
  463MOL0     H62458   3.783   0.023   3.552 -2.4222  2.3226  1.7014
  463MOL0     H62459   4.025   0.089   3.459  2.8400 -1.0744 -0.3863
  463MOL0     H62460   4.066   0.107   3.628  0.6312  0.0811 -0.4924
  463MOL0     H62461   3.990  -0.130   3.448 -0.8413  1.4771 -0.0571
  463MOL0     H62462   3.975  -0.157   3.622  2.3035 -0.4028  1.1187
  463MOL0     H62463   4.198  -0.237   3.540  1.4228  0.7885 -2.3033
  463MOL0     H62464   4.227  -0.112   3.645  2.7613 -3.5948  0.6487
  463MOL0     H62465   4.361  -0.089   3.197 -0.4528 -3.1144 -1.3306
  463MOL0     H62466   4.599  -0.122   3.174 -1.4595  4.3448 -0.3678
  463MOL0     H62467   4.949  -0.257   3.008  0.9928 -0.4394 -1.4145
  463MOL0     H62468   5.166  -0.282   2.947 -2.4407 -0.8420 -0.7519
  463MOL0     H62469   5.358  -0.410   2.958  0.8279 -1.9654  3.5266
  463MOL0     H62470   5.428  -0.245   2.928 -0.4463 -0.6217 -0.9389
  463MOL0     H62471   5.640  -0.319   3.053 -0.4670  1.5574  0.1227
  463MOL0     H62472   5.579  -0.478   3.065 -1.5628  1.1551  0.4280
  463MOL0     H62473   5.570  -0.468   2.796 -0.4691  0.2322 -0.1336
  463MOL0     H62474   5.647  -0.304   2.829 -1.0575  0.0567  0.8384
  463MOL0     H62475   5.806  -0.515   2.775  1.7929 -0.0680  0.5517
  463MOL0     H62476   5.777  -0.575   2.933  4.1229  1.4705  1.7838
  463MOL0     H62477   5.860  -0.362   3.025 -0.0741  4.1330 -1.7043
  463MOL0     H62478   5.880  -0.303   2.875 -2.2372  1.1748  2.3459
  463MOL0     H62479   6.027  -0.555   2.948  1.9465 -0.3511 -0.3251
  463MOL0     H62480   6.037  -0.457   2.803 -0.6626 -1.5889  0.3105
  463MOL0     H62481   6.092  -0.273   3.004  0.5401 -0.4703  0.5128
  463MOL0     H62482   6.210  -0.377   2.914 -0.2246 -3.5257  0.0958
  463MOL0     H62483   6.060  -0.436   3.178  0.0392 -3.7563 -0.7191
  463MOL0     H62484   6.202  -0.523   3.118 -2.8781 -1.0858 -0.7936
  463MOL0     H62485   5.292  -0.305   3.353 -0.8973  2.1935  1.2144
  463MOL0     H62486   5.053  -0.274   3.425 -0.4377 -2.8466 -0.2256
  463MOL0     H62487   4.645  -0.183   3.605 -0.2239  1.1687  0.9193
  463MOL0     H62488   4.421  -0.108   3.625 -0.4041  0.1021 -0.2418
  463MOL0     H62489   2.942   1.004   4.014  0.5543 -0.5649 -0.1365
  463MOL0     H62490   2.732   1.125   4.099 -2.8705  1.6810 -2.5938
  463MOL0     H62491   2.286   1.020   4.220  1.4448  0.8683 -0.5304
  463MOL0     H62492   2.057   1.084   4.300 -1.6748  0.9280 -2.6664
  463MOL0     H62493   1.813   1.194   4.205 -2.3332  0.3995 -1.2234
  463MOL0     H62494   1.916   1.251   4.092 -0.5761  2.3563 -1.1381
  463MOL0     H62495   1.693   1.348   4.093  0.4993 -0.0682 -0.0426
  463MOL0     H62496   1.818   1.462   4.069  4.2848  0.2868  3.2772
  463MOL0     H62497   1.787   1.574   4.283 -1.1693  0.9785  3.2542
  463MOL0     H62498   1.681   1.432   4.343  0.2839  0.4273 -0.7379
  463MOL0     H62499   1.604   1.676   4.254 -2.1352  0.6337 -2.2539
  463MOL0     H62500   1.565   1.579   4.113 -0.7604 -0.5109 -0.0689
  463MOL0     H62501   1.294   1.394   4.387 -0.5880  2.0973  2.3592
  463MOL0     H62502   2.124   1.488   4.194  1.1783  0.1202 -1.4557
  463MOL0     H62503   2.349   1.456   3.975  0.4266  1.9935 -1.4237
  463MOL0     H62504   2.315   1.571   4.102 -2.2324  0.4462  1.0244
  463MOL0     H62505   2.464   1.470   4.105 -1.1472  1.1197 -1.5277
  464MOL0     O62506   7.859   2.004   6.103  0.2408 -0.0094  0.8206
  464MOL0     C62507   7.854   1.887   6.083 -0.1294 -0.5517  0.8661
  464MOL0     O62508   7.968   1.806   6.088  0.3024  1.2256  0.0972
  464MOL0     C62509   8.076   1.852   6.155 -0.6208  0.8981 -0.9254
  464MOL0     C62510   8.073   1.863   6.291  0.3410 -0.3157 -1.1994
  464MOL0     C62511   8.194   1.868   6.370 -0.3155  0.4878  0.5725
  464MOL0     C62512   8.317   1.879   6.308  0.1266 -0.0161 -0.1344
  464MOL0     O62513   8.423   1.880   6.398  1.3430  0.2081 -0.2896
  464MOL0     C62514   8.549   1.930   6.369 -0.3241 -0.5979  1.1315
  464MOL0     C62515   8.652   1.847   6.438 -0.2143 -0.1698 -0.5559
  464MOL0     C62516   8.790   1.891   6.389 -0.3215 -0.9685 -0.2301
  464MOL0     C62517   8.891   1.777   6.411  0.8508 -0.6553  0.3984
  464MOL0     C62518   9.035   1.815   6.376  0.1314 -0.6548 -0.2797
  464MOL0     C62519   9.090   1.928   6.455 -0.8896 -0.6193  0.3522
  464MOL0     C62520   9.241   1.935   6.471 -0.0549 -0.2799 -0.3207
  464MOL0     C62521   9.296   2.056   6.529 -0.7071 -0.5019 -0.1713
  464MOL0     N62522   9.435   2.042   6.572 -0.9209  0.8331 -0.1976
  464MOL0     C62523   9.479   2.087   6.699  0.8865  0.6780  0.3292
  464MOL0     C62524   9.611   2.072   6.700  0.7563  0.0341 -0.2545
  464MOL0     C62525   9.713   2.109   6.807  0.2092  0.1766 -0.1506
  464MOL0     C62526   9.855   2.123   6.745  0.5085  0.3705 -0.8914
  464MOL0     C62527   9.952   2.201   6.841 -0.1769 -0.8115  0.0804
  464MOL0     C62528  10.089   2.220   6.763 -0.4237  0.1880 -0.7876
  464MOL0     O62529  10.063   2.310   6.649 -0.5319 -0.1270 -0.4954
  464MOL0     C62530  10.177   2.337   6.574  0.9413  0.3712 -0.5887
  464MOL0     C62531  10.309   2.288   6.590  0.7823 -0.5247  0.3233
  464MOL0     C62532  10.408   2.332   6.507  0.0076 -0.4872 -0.5881
  464MOL0     C62533  10.382   2.416   6.403  0.0522 -0.0261  0.3574
  464MOL0     C62534  10.503   2.465   6.332  0.0602 -1.0062  0.0184
  464MOL0     O62535  10.620   2.402   6.354  0.2525 -0.2091 -0.2226
  464MOL0     C62536  10.734   2.453   6.297  0.0349  0.2114  0.3390
  464MOL0     C62537  10.767   2.405   6.172 -0.7991  0.1468  0.0688
  464MOL0     C62538  10.890   2.443   6.111  0.3684 -1.0811 -0.3437
  464MOL0     C62539  10.986   2.514   6.178 -0.1735 -0.5071 -0.4559
  464MOL0     O62540  11.111   2.540   6.129  0.4972  0.0262 -0.1912
  464MOL0     C62541  11.164   2.459   6.025 -0.2696 -0.2119  0.1030
  464MOL0     C62542  11.299   2.534   6.010 -0.3795  0.5605  0.4553
  464MOL0     C62543  11.376   2.471   5.892 -0.5819 -0.1617 -0.2275
  464MOL0     C62544  11.524   2.519   5.911  1.2092 -0.4269  0.3814
  464MOL0     C62545  11.545   2.666   5.883 -0.4764 -0.3274  0.0944
  464MOL0     C62546  11.493   2.723   5.754 -0.5229  0.0349 -0.2677
  464MOL0     C62547  11.509   2.876   5.749  0.3403 -0.9851  0.0591
  464MOL0     C62548  11.543   2.922   5.605  1.1308 -0.2159  0.4818
  464MOL0    Cl62549  11.702   2.846   5.563 -0.5082 -0.0952  0.0970
  464MOL0     C62550  10.951   2.571   6.302  0.7968  0.1879 -0.3281
  464MOL0     C62551  10.826   2.545   6.360  0.5525  0.9190 -0.1037
  464MOL0     O62552  10.487   2.559   6.251  0.0992  0.9763 -0.8989
  464MOL0     C62553  10.253   2.466   6.380  0.3369 -0.3873 -0.6400
  464MOL0     C62554  10.151   2.421   6.464  0.0115  0.3309  0.2865
  464MOL0     N62555   9.648   2.024   6.575  0.6526 -0.2341 -0.1650
  464MOL0     N62556   9.546   2.005   6.504 -0.3443  0.3327  0.2815
  464MOL0     C62557   8.321   1.875   6.166 -0.9938 -1.0093 -0.5976
  464MOL0     C62558   8.203   1.847   6.093  0.1656  0.6482 -0.0223
  464MOL0     C62559   7.730   1.819   6.034  0.2936 -1.2068  0.7920
  464MOL0     C62560   7.720   1.706   5.948 -0.0121  0.3421  0.0962
  464MOL0     C62561   7.596   1.655   5.904  0.1268  0.4200 -0.1715
  464MOL0     C62562   7.473   1.716   5.955 -0.1822  0.5215  0.6186
  464MOL0     O62563   7.342   1.683   5.909  0.3880 -0.4360  0.1153
  464MOL0     C62564   7.319   1.605   5.790  0.2862  0.2113 -0.6574
  464MOL0     C62565   7.352   1.665   5.651  0.4406  0.4726 -0.5452
  464MOL0     C62566   7.255   1.775   5.609  0.2261 -0.7209 -0.5470
  464MOL0     C62567   7.259   1.894   5.702 -0.5192  0.2710  0.4047
  464MOL0     C62568   7.395   1.941   5.714 -0.5058  0.0528 -0.2301
  464MOL0     C62569   7.508   1.981   5.732  0.6049  0.7173  0.2618
  464MOL0     C62570   7.482   1.816   6.047  0.1305 -0.8508 -0.6385
  464MOL0     C62571   7.606   1.866   6.093  0.1322 -0.4841 -0.3866
  464MOL0     C62572   7.598   1.954   6.217  0.0957 -0.5405 -0.0217
  464MOL0     H62573   7.986   1.869   6.356  1.5372 -1.0777  0.5554
  464MOL0     H62574   8.193   1.853   6.477  0.2073 -1.2201  0.3722
  464MOL0     H62575   8.560   1.928   6.260 -1.1802  1.9405  0.9377
  464MOL0     H62576   8.552   2.032   6.407 -1.7923 -0.6050  1.3303
  464MOL0     H62577   8.634   1.742   6.412  1.8784 -0.5765 -0.5366
  464MOL0     H62578   8.654   1.855   6.547  1.3698  0.1461 -0.5736
  464MOL0     H62579   8.816   1.983   6.443  0.8874 -0.2852 -1.8702
  464MOL0     H62580   8.791   1.911   6.281 -2.1614  0.4463 -0.0462
  464MOL0     H62581   8.883   1.730   6.509 -1.9612  0.9706  1.0543
  464MOL0     H62582   8.859   1.700   6.340 -0.7213  2.3276 -2.4100
  464MOL0     H62583   9.096   1.726   6.392 -1.2695 -1.4075  1.0834
  464MOL0     H62584   9.044   1.831   6.268  0.3187  0.7634 -0.0758
  464MOL0     H62585   9.058   2.024   6.412  2.8835  1.7558  2.2866
  464MOL0     H62586   9.055   1.914   6.557  2.6609 -3.4268  1.3692
  464MOL0     H62587   9.298   1.924   6.378  3.2220  1.0653  1.3747
  464MOL0     H62588   9.272   1.845   6.525 -1.0846  0.3567  1.3904
  464MOL0     H62589   9.293   2.141   6.460  1.9972  0.3098  0.5742
  464MOL0     H62590   9.230   2.079   6.613 -2.1706 -1.5368 -0.9886
  464MOL0     H62591   9.413   2.127   6.775 -1.1425  0.0806 -1.0487
  464MOL0     H62592   9.680   2.204   6.850 -0.2501 -0.9038  2.0670
  464MOL0     H62593   9.722   2.036   6.888 -0.1233  0.5908  0.2676
  464MOL0     H62594   9.898   2.025   6.722  0.8084 -0.3817  2.3532
  464MOL0     H62595   9.842   2.173   6.648 -0.2709  0.4531 -0.7519
  464MOL0     H62596   9.965   2.139   6.930  0.6853 -0.4696  0.1952
  464MOL0     H62597   9.906   2.294   6.877  1.1570 -0.2739  0.4505
  464MOL0     H62598  10.133   2.124   6.737  2.0654  0.5012  1.7015
  464MOL0     H62599  10.164   2.256   6.835 -1.1804 -1.6036  0.9997
  464MOL0     H62600  10.350   2.230   6.673 -1.5424  0.3563  2.2077
  464MOL0     H62601  10.508   2.293   6.522  0.4407  0.4660 -0.8988
  464MOL0     H62602  10.707   2.332   6.119 -1.7854  0.6001  0.5426
  464MOL0     H62603  10.910   2.401   6.013 -2.1960 -1.5093 -0.7500
  464MOL0     H62604  11.186   2.355   6.050  5.0009  0.0943 -1.8994
  464MOL0     H62605  11.108   2.463   5.931 -1.5055  3.2488  0.8142
  464MOL0     H62606  11.281   2.638   5.981  0.7262  0.4704 -0.6073
  464MOL0     H62607  11.354   2.523   6.104 -0.3240 -2.3543  0.1594
  464MOL0     H62608  11.370   2.361   5.893  1.2139 -0.3069 -1.3795
  464MOL0     H62609  11.335   2.502   5.796  1.5593  0.2714 -1.0615
  464MOL0     H62610  11.586   2.459   5.843  0.1547 -2.6223  1.2653
  464MOL0     H62611  11.543   2.498   6.016  0.1256  0.9167  0.8725
  464MOL0     H62612  11.653   2.684   5.884 -0.7905  2.1951  2.8408
  464MOL0     H62613  11.508   2.737   5.958 -1.2560  0.5554 -1.0818
  464MOL0     H62614  11.555   2.668   5.682  2.9553 -1.4247  3.4607
  464MOL0     H62615  11.384   2.713   5.752 -0.7741  2.3209 -0.9820
  464MOL0     H62616  11.592   2.905   5.814  1.4099 -3.5213 -0.0406
  464MOL0     H62617  11.426   2.938   5.783  2.6552  2.7453 -0.5040
  464MOL0     H62618  11.466   2.888   5.534  1.9681  1.6469 -1.4381
  464MOL0     H62619  11.545   3.031   5.608 -0.0484 -0.0579 -1.8657
  464MOL0     H62620  11.027   2.634   6.348 -1.1277  0.8545  2.1798
  464MOL0     H62621  10.799   2.592   6.454 -1.5445 -0.2923 -0.0537
  464MOL0     H62622  10.232   2.544   6.307  2.5477  0.1468 -0.7872
  464MOL0     H62623  10.052   2.455   6.435  0.8749  0.3445 -2.9797
  464MOL0     H62624   8.416   1.888   6.116  0.4555  0.8015  2.3162
  464MOL0     H62625   8.213   1.818   5.989  1.1511  0.7292  0.0420
  464MOL0     H62626   7.814   1.674   5.903  0.0417 -0.3170  0.6564
  464MOL0     H62627   7.586   1.574   5.833 -2.9575 -0.7540  1.4271
  464MOL0     H62628   7.213   1.584   5.801 -0.0265  1.3907 -1.3056
  464MOL0     H62629   7.370   1.508   5.784  0.2684  0.2042 -0.6954
  464MOL0     H62630   7.331   1.586   5.579 -2.1277  2.1023 -1.7207
  464MOL0     H62631   7.457   1.694   5.652  0.0585  2.2750 -3.2586
  464MOL0     H62632   7.152   1.743   5.624  0.7684 -2.0858  0.4847
  464MOL0     H62633   7.270   1.809   5.506  0.3764  0.7627 -0.0683
  464MOL0     H62634   7.185   1.970   5.673  0.8282  0.9578 -1.4132
  464MOL0     H62635   7.229   1.867   5.804  1.2115 -1.4941  0.4941
  464MOL0     H62636   7.602   2.008   5.775 -0.8856 -0.7070  5.1569
  464MOL0     H62637   7.386   1.842   6.089 -0.2245 -1.3865 -1.1067
  464MOL0     H62638   7.655   2.046   6.204  0.9271 -0.7581  1.8522
  464MOL0     H62639   7.495   1.981   6.242  0.5240  1.1118  0.0322
  464MOL0     H62640   7.636   1.898   6.303  0.9430 -0.8747 -0.6019
  465MOL0     O62641  10.855  10.179   3.409 -0.0540 -0.2125  0.5584
  465MOL0     C62642  10.804  10.282   3.434 -0.0670 -0.0335 -0.2734
  465MOL0     O62643  10.868  10.395   3.463 -0.5414 -0.0564 -0.6939
  465MOL0     C62644  10.999  10.403   3.454  0.1617 -0.0531 -0.1077
  465MOL0     C62645  11.063  10.462   3.564 -0.6639  0.3552 -0.9188
  465MOL0     C62646  11.205  10.490   3.559  0.0381 -0.9949  0.0249
  465MOL0     C62647  11.274  10.453   3.443 -0.1746  0.3616  0.1681
  465MOL0     O62648  11.399  10.495   3.438 -0.5071 -0.4727  0.2614
  465MOL0     C62649  11.449  10.549   3.314  0.0254 -0.2021  0.0827
  465MOL0     C62650  11.583  10.616   3.351  0.1791  0.3067  0.3055
  465MOL0     C62651  11.683  10.516   3.419  0.9387 -0.6881 -0.1074
  465MOL0     C62652  11.811  10.594   3.462  0.8976 -0.6540 -0.2241
  465MOL0     C62653  11.916  10.498   3.514 -0.4841  0.5500 -0.4544
  465MOL0     C62654  11.940  10.517   3.666  1.0940 -0.5714 -0.0134
  465MOL0     C62655  12.015  10.645   3.694 -0.6298  0.4788 -0.4563
  465MOL0     C62656  12.062  10.645   3.835 -1.3794  0.6875 -0.2141
  465MOL0     N62657  12.113  10.782   3.857  0.5926  0.1226  0.0878
  465MOL0     C62658  12.225  10.836   3.796  0.2071 -0.3779  0.1813
  465MOL0     C62659  12.220  10.970   3.821  0.0908  0.9399 -0.4483
  465MOL0     C62660  12.293  11.095   3.783 -0.0845  0.5349  0.0086
  465MOL0     C62661  12.446  11.068   3.793  0.1070  0.4291  0.1343
  465MOL0     C62662  12.522  11.202   3.775 -0.1138  0.9301  0.7738
  465MOL0     C62663  12.672  11.176   3.746  0.4025  0.6923 -0.0239
  465MOL0     O62664  12.693  11.170   3.606 -0.2953  0.0512  0.4967
  465MOL0     C62665  12.821  11.139   3.566  0.4343 -0.3308 -0.3541
  465MOL0     C62666  12.839  11.101   3.435 -0.7528 -0.3825 -0.4124
  465MOL0     C62667  12.962  11.066   3.387  0.4622  0.4777  0.2714
  465MOL0     C62668  13.073  11.080   3.473  0.1907 -0.0700 -0.1012
  465MOL0     C62669  13.210  11.040   3.427 -0.7973  0.2190  0.0567
  465MOL0     O62670  13.316  11.075   3.510  0.3757  0.1427 -0.4737
  465MOL0     C62671  13.435  11.059   3.457 -0.5921  0.3485 -0.1237
  465MOL0     C62672  13.515  10.965   3.520 -0.4682 -0.4522 -0.0852
  465MOL0     C62673  13.655  10.969   3.493  0.2575 -0.2483  0.1965
  465MOL0     C62674  13.702  11.035   3.375 -0.6692 -0.8182  0.3014
  465MOL0     O62675  13.835  11.023   3.347 -0.5817 -1.0197  0.2844
  465MOL0     C62676  13.888  11.124   3.256  0.4150 -0.4799 -0.3506
  465MOL0     C62677  14.042  11.135   3.271  0.2379 -0.0734  0.0203
  465MOL0     C62678  14.106  10.999   3.251  0.2957  0.2116  0.7338
  465MOL0     C62679  14.257  11.013   3.314  0.5362 -0.8565  0.1254
  465MOL0     C62680  14.337  10.893   3.295 -0.1346 -0.3351 -0.0226
  465MOL0     C62681  14.363  10.844   3.146 -0.2582 -0.5500 -0.7853
  465MOL0     C62682  14.384  10.943   3.023  0.0739 -0.2676 -0.2384
  465MOL0     C62683  14.501  11.044   3.049  0.3585  0.4855 -1.0225
  465MOL0    Cl62684  14.540  11.111   2.885  0.6015 -0.0587  0.0427
  465MOL0     C62685  13.619  11.125   3.308  0.2486  0.2059  0.1798
  465MOL0     C62686  13.489  11.141   3.349  0.2641 -0.6995  0.1242
  465MOL0     O62687  13.218  10.983   3.318  0.4180 -0.8493 -0.1486
  465MOL0     C62688  13.059  11.130   3.599 -0.3216  0.2008 -0.3938
  465MOL0     C62689  12.934  11.151   3.648  0.0453 -0.6960 -0.4493
  465MOL0     N62690  12.114  10.984   3.912  0.0083  0.5331 -0.2847
  465MOL0     N62691  12.058  10.877   3.939  0.7937  0.1952 -0.2288
  465MOL0     C62692  11.213  10.397   3.334  0.1604 -0.3921  1.1547
  465MOL0     C62693  11.074  10.373   3.339 -0.1127  0.0540 -0.4281
  465MOL0     C62694  10.658  10.289   3.424 -0.0505  0.7615 -0.5343
  465MOL0     C62695  10.586  10.340   3.531  0.0815  0.3502 -0.8274
  465MOL0     C62696  10.441  10.343   3.530 -0.6618  0.1319 -0.7623
  465MOL0     C62697  10.366  10.306   3.417  0.0067 -0.3401 -1.0989
  465MOL0     O62698  10.231  10.298   3.419  0.1617 -0.2882  0.5141
  465MOL0     C62699  10.165  10.382   3.518 -0.0524  0.2707 -0.3492
  465MOL0     C62700  10.013  10.350   3.507 -0.3553  0.2709  0.2470
  465MOL0     C62701   9.982  10.194   3.539 -0.3800 -0.3370  0.0932
  465MOL0     C62702   9.831  10.169   3.538 -0.0357  0.5051 -0.5458
  465MOL0     C62703   9.757  10.209   3.418  0.6825  0.4008 -0.8499
  465MOL0     C62704   9.691  10.246   3.328 -0.2350  1.2210 -0.2341
  465MOL0     C62705  10.441  10.250   3.314 -0.3699 -0.2723  0.1197
  465MOL0     C62706  10.583  10.239   3.313 -0.3496 -0.5377 -0.6043
  465MOL0     C62707  10.651  10.162   3.206  0.4050  0.1298 -0.7681
  465MOL0     H62708  10.998  10.501   3.641 -1.4216 -0.6579 -1.0265
  465MOL0     H62709  11.244  10.544   3.644  0.3051  0.2328 -0.8594
  465MOL0     H62710  11.467  10.466   3.244 -1.5125 -1.7587  1.4348
  465MOL0     H62711  11.386  10.629   3.273  2.0824  1.2355 -0.4056
  465MOL0     H62712  11.562  10.703   3.414 -0.4389 -0.0759  0.6416
  465MOL0     H62713  11.640  10.635   3.260  1.2881 -0.9022  0.7194
  465MOL0     H62714  11.717  10.451   3.338 -1.5436 -2.3010  0.0321
  465MOL0     H62715  11.645  10.454   3.500  1.9779  0.6265  1.4425
  465MOL0     H62716  11.846  10.652   3.376  1.1796  0.2006  0.4500
  465MOL0     H62717  11.791  10.670   3.538  0.3296 -1.9790  0.9760
  465MOL0     H62718  11.870  10.400   3.497 -2.4531  1.6322 -1.7239
  465MOL0     H62719  12.011  10.509   3.462  0.9755 -0.5040  1.8224
  465MOL0     H62720  11.849  10.523   3.727  2.1124 -0.6086  1.5522
  465MOL0     H62721  11.996  10.431   3.703 -0.4047 -1.0207  1.3158
  465MOL0     H62722  11.957  10.735   3.672 -1.3963 -0.6385 -3.4752
  465MOL0     H62723  12.101  10.645   3.626 -1.1451 -0.8430 -1.1520
  465MOL0     H62724  11.979  10.625   3.904 -0.3011 -1.1340  0.6292
  465MOL0     H62725  12.142  10.572   3.850 -2.4362 -0.3734  0.5086
  465MOL0     H62726  12.293  10.780   3.732  0.6369  1.2538 -0.8601
  465MOL0     H62727  12.270  11.124   3.680 -0.1174  2.5216  0.5296
  465MOL0     H62728  12.263  11.185   3.837  1.5989  0.8338  0.4933
  465MOL0     H62729  12.478  11.029   3.890 -3.3055 -0.7981  0.8759
  465MOL0     H62730  12.485  10.996   3.720  1.2922  0.5492  0.6206
  465MOL0     H62731  12.523  11.261   3.868  0.5544  0.3989  1.1095
  465MOL0     H62732  12.486  11.267   3.695 -0.7692 -0.0989  0.2250
  465MOL0     H62733  12.703  11.083   3.795  1.6743  0.8368 -0.5232
  465MOL0     H62734  12.728  11.253   3.799  2.1465  0.6374 -1.7035
  465MOL0     H62735  12.754  11.098   3.368  0.0641 -0.4483 -1.4655
  465MOL0     H62736  12.959  11.029   3.284 -1.4072 -1.3198  0.8974
  465MOL0     H62737  13.478  10.908   3.604 -1.2708  0.0520 -0.0914
  465MOL0     H62738  13.728  10.905   3.541 -2.3347 -2.5411  1.3813
  465MOL0     H62739  13.869  11.086   3.155 -2.9053 -3.2739  1.1146
  465MOL0     H62740  13.841  11.221   3.276  2.1987  0.4907 -0.6735
  465MOL0     H62741  14.074  11.217   3.207 -0.4913 -0.0956 -0.3776
  465MOL0     H62742  14.055  11.163   3.376 -0.0387 -0.4424  0.1553
  465MOL0     H62743  14.057  10.915   3.300  1.4343 -0.7315  0.3049
  465MOL0     H62744  14.103  10.980   3.143 -0.8002 -1.6380  1.0576
  465MOL0     H62745  14.245  11.036   3.420 -0.2676  3.6818 -0.7188
  465MOL0     H62746  14.298  11.100   3.262 -0.4134  0.3711  1.3472
  465MOL0     H62747  14.306  10.813   3.362  0.4399 -1.0841 -0.6207
  465MOL0     H62748  14.439  10.917   3.326  0.2107  0.6013 -1.7534
  465MOL0     H62749  14.451  10.783   3.167 -2.3272 -2.2244  4.8624
  465MOL0     H62750  14.287  10.770   3.116  1.3220 -2.7733  0.3882
  465MOL0     H62751  14.286  10.980   2.994  1.5565  2.2275 -2.4579
  465MOL0     H62752  14.410  10.877   2.939  0.4986 -1.2670  0.6473
  465MOL0     H62753  14.475  11.117   3.126 -1.6392  0.3272 -1.4844
  465MOL0     H62754  14.582  10.984   3.090 -1.5824 -2.4419 -1.2110
  465MOL0     H62755  13.654  11.193   3.231  1.0244  2.9576  2.7622
  465MOL0     H62756  13.413  11.211   3.315 -0.5397 -1.9606 -0.7802
  465MOL0     H62757  13.143  11.137   3.668  0.3230  1.2300 -1.2460
  465MOL0     H62758  12.923  11.200   3.744 -0.1498  0.2732 -0.9553
  465MOL0     H62759  11.264  10.357   3.247 -1.1443 -0.1467  0.2485
  465MOL0     H62760  11.031  10.329   3.249  1.0174 -2.6728  0.2688
  465MOL0     H62761  10.639  10.384   3.614  1.1797  1.1188 -1.9021
  465MOL0     H62762  10.394  10.379   3.621 -0.7304 -0.2773 -0.6372
  465MOL0     H62763  10.182  10.488   3.500  2.5746 -0.0407 -0.1296
  465MOL0     H62764  10.194  10.352   3.619  0.6290 -3.1329 -1.4384
  465MOL0     H62765   9.989  10.358   3.401 -2.4313  0.0918  0.6602
  465MOL0     H62766   9.944  10.411   3.565 -1.8190  0.2516 -1.4116
  465MOL0     H62767  10.022  10.166   3.637 -1.1455  0.9963  0.8169
  465MOL0     H62768  10.034  10.126   3.471 -1.3326  0.1235 -1.1333
  465MOL0     H62769   9.810  10.063   3.553  0.3216  0.5755  0.4963
  465MOL0     H62770   9.777  10.221   3.617 -1.2176  2.9212 -2.7513
  465MOL0     H62771   9.634  10.258   3.238  1.9737 -1.2883 -2.1346
  465MOL0     H62772  10.383  10.212   3.230 -1.8889 -0.2732  1.1172
  465MOL0     H62773  10.699  10.073   3.248 -1.1759 -0.2101  0.4352
  465MOL0     H62774  10.572  10.136   3.136  0.7041  3.3923 -2.5255
  465MOL0     H62775  10.719  10.224   3.146 -0.4316  1.7965 -0.0509
  466MOL0     O62776   4.865   8.453   0.194 -0.0941 -0.7649 -0.1005
  466MOL0     C62777   4.808   8.551   0.242  0.3620  0.6149  0.8861
  466MOL0     O62778   4.872   8.655   0.308 -0.0460  0.4441 -0.2582
  466MOL0     C62779   5.012   8.643   0.318  0.3737 -0.7047  0.2320
  466MOL0     C62780   5.062   8.564   0.421  0.2857 -0.7334 -0.5148
  466MOL0     C62781   5.199   8.555   0.443 -0.9627 -0.0256  0.0380
  466MOL0     C62782   5.289   8.629   0.366 -0.3016 -0.6404 -0.0714
  466MOL0     O62783   5.426   8.635   0.377  0.0615  0.0837 -0.2023
  466MOL0     C62784   5.492   8.554   0.479 -0.2101  0.2161  0.1817
  466MOL0     C62785   5.642   8.578   0.458 -0.1162  0.5319  1.0989
  466MOL0     C62786   5.727   8.549   0.588  0.3328  0.7650  0.1688
  466MOL0     C62787   5.872   8.544   0.541  0.4230  0.2357  0.2485
  466MOL0     C62788   5.957   8.525   0.662  0.3696  0.0947 -0.3263
  466MOL0     C62789   6.103   8.521   0.624 -0.7764  0.0769 -0.4481
  466MOL0     C62790   6.202   8.478   0.743  0.2336 -0.4415 -0.2116
  466MOL0     C62791   6.343   8.508   0.707 -0.4254 -0.0331 -0.1040
  466MOL0     N62792   6.396   8.453   0.582  0.3024 -0.4870  0.3845
  466MOL0     C62793   6.476   8.345   0.573 -0.4439  0.2996 -0.0908
  466MOL0     C62794   6.489   8.317   0.444 -1.2159  0.0663  0.1358
  466MOL0     C62795   6.540   8.180   0.398  0.0656 -0.1615 -0.6969
  466MOL0     C62796   6.687   8.162   0.427 -0.2304  0.7382 -0.0754
  466MOL0     C62797   6.791   8.203   0.309  0.4359  0.2342 -0.3289
  466MOL0     C62798   6.923   8.166   0.346 -0.6883 -0.0901  0.1985
  466MOL0     O62799   6.961   8.037   0.310 -1.2420 -0.9218 -0.8819
  466MOL0     C62800   7.100   8.000   0.318 -0.1069  0.4026  0.6740
  466MOL0     C62801   7.114   7.888   0.243 -0.3623 -0.1562  0.1913
  466MOL0     C62802   7.248   7.839   0.228  0.1468 -0.2233 -0.5611
  466MOL0     C62803   7.352   7.904   0.286  0.9048  0.2698  0.1209
  466MOL0     C62804   7.490   7.845   0.256  0.4233 -0.7926  0.2017
  466MOL0     O62805   7.578   7.875   0.356  0.3924 -0.0062  0.6670
  466MOL0     C62806   7.712   7.871   0.336 -0.7240  0.1899  1.1328
  466MOL0     C62807   7.798   7.849   0.449 -0.0151 -0.0302 -0.1073
  466MOL0     C62808   7.940   7.841   0.429  1.1415 -0.1550 -0.0342
  466MOL0     C62809   7.998   7.860   0.298 -0.6743 -0.1893 -0.1491
  466MOL0     O62810   8.136   7.860   0.296 -0.1209  0.4668 -0.0081
  466MOL0     C62811   8.199   7.943   0.195  0.3639  0.7300 -0.4891
  466MOL0     C62812   8.330   7.962   0.258 -1.0010 -0.7491  0.1603
  466MOL0     C62813   8.425   8.039   0.173 -0.8807  0.1988  0.1190
  466MOL0     C62814   8.568   8.049   0.227 -0.3882  0.7434  0.5148
  466MOL0     C62815   8.583   8.139   0.355 -0.5850  0.1563  0.0975
  466MOL0     C62816   8.724   8.148   0.406 -0.3090 -0.3776  0.0455
  466MOL0     C62817   8.739   8.245   0.525  0.1181  0.5508  0.1728
  466MOL0     C62818   8.646   8.225   0.648 -0.4033  0.0622  0.7374
  466MOL0    Cl62819   8.646   8.048   0.686 -0.4137 -0.0841  0.2014
  466MOL0     C62820   7.910   7.890   0.190  0.6927  0.8327 -0.0876
  466MOL0     C62821   7.775   7.893   0.209 -0.2285 -0.2195  0.8884
  466MOL0     O62822   7.505   7.771   0.159  0.6990 -0.0730 -0.4484
  466MOL0     C62823   7.335   8.025   0.365 -0.2342 -0.4147  0.6304
  466MOL0     C62824   7.205   8.075   0.379 -0.0831  0.1760  0.2467
  466MOL0     N62825   6.435   8.421   0.373  0.3582 -0.3854 -0.0446
  466MOL0     N62826   6.381   8.510   0.457  0.7515  0.8483  0.2042
  466MOL0     C62827   5.236   8.710   0.267 -0.5712 -0.2187  0.0858
  466MOL0     C62828   5.102   8.714   0.242 -0.2652 -0.0754 -0.6391
  466MOL0     C62829   4.661   8.573   0.214  0.1710 -0.6653 -0.4571
  466MOL0     C62830   4.596   8.662   0.298  0.2210  0.5543 -0.3313
  466MOL0     C62831   4.460   8.696   0.279  0.8319  0.3858  0.3767
  466MOL0     C62832   4.379   8.626   0.188  0.4802  0.0137  0.3508
  466MOL0     O62833   4.248   8.649   0.168 -0.8026 -0.4967  0.0053
  466MOL0     C62834   4.204   8.774   0.220 -0.0781  0.4047  0.4416
  466MOL0     C62835   4.236   8.895   0.133  0.3643  0.1069  0.6239
  466MOL0     C62836   4.184   8.884  -0.011 -0.4833 -0.2028  0.5282
  466MOL0     C62837   4.274   8.964  -0.116  0.1009  0.1378 -0.0134
  466MOL0     C62838   4.234   9.111  -0.102  0.4232 -0.4203  0.6682
  466MOL0     C62839   4.195   9.233  -0.098  0.3782  0.1855 -0.1789
  466MOL0     C62840   4.448   8.526   0.105  0.3281  0.0897 -0.2289
  466MOL0     C62841   4.585   8.502   0.116  0.2433 -0.1468 -0.2997
  466MOL0     C62842   4.652   8.405   0.009  0.9142 -0.3774 -0.3755
  466MOL0     H62843   5.000   8.515   0.494  3.1346 -1.3480  1.6416
  466MOL0     H62844   5.236   8.489   0.520 -0.0324 -1.5017 -1.5964
  466MOL0     H62845   5.465   8.595   0.576  1.0675  2.9257 -0.5217
  466MOL0     H62846   5.472   8.446   0.484 -1.0271  0.4185  3.0057
  466MOL0     H62847   5.663   8.680   0.425 -1.4383 -0.2403 -2.6910
  466MOL0     H62848   5.672   8.506   0.380  0.8117  0.5517  1.4246
  466MOL0     H62849   5.699   8.451   0.629  0.4032 -1.1323 -3.7574
  466MOL0     H62850   5.712   8.632   0.657  0.0903 -0.1140  1.1931
  466MOL0     H62851   5.887   8.459   0.475  1.1715  0.8316 -0.3723
  466MOL0     H62852   5.904   8.629   0.480  1.9992 -0.5018 -0.0112
  466MOL0     H62853   5.928   8.609   0.726 -2.3693 -0.7664 -0.2993
  466MOL0     H62854   5.930   8.436   0.720  1.8172 -1.1057 -1.3979
  466MOL0     H62855   6.111   8.453   0.538  1.4174  3.1485 -2.8893
  466MOL0     H62856   6.129   8.619   0.583 -2.2377 -0.0178 -1.7121
  466MOL0     H62857   6.199   8.374   0.777  1.6136  0.2536  2.3107
  466MOL0     H62858   6.166   8.532   0.832  0.2956 -0.7898  0.0257
  466MOL0     H62859   6.355   8.615   0.685  2.1291 -0.3976 -0.7771
  466MOL0     H62860   6.416   8.471   0.779  0.7791 -2.7563 -2.5171
  466MOL0     H62861   6.509   8.282   0.654  0.2509  2.1074  1.1060
  466MOL0     H62862   6.490   8.095   0.445 -0.9062  0.6363 -0.2532
  466MOL0     H62863   6.528   8.177   0.289  0.4329  2.7527 -0.8930
  466MOL0     H62864   6.710   8.230   0.510  1.9085 -3.1414  2.8336
  466MOL0     H62865   6.714   8.073   0.484 -0.6152  2.5479  3.1771
  466MOL0     H62866   6.769   8.307   0.282 -1.5050 -0.0989 -0.1745
  466MOL0     H62867   6.761   8.151   0.217  0.9983  0.8197 -0.8526
  466MOL0     H62868   6.939   8.190   0.452  0.1673 -1.1048  0.3212
  466MOL0     H62869   6.998   8.233   0.303  0.3126 -1.3569 -0.0957
  466MOL0     H62870   7.031   7.828   0.207  1.1204 -1.8077 -0.6026
  466MOL0     H62871   7.265   7.749   0.171  1.3539  0.8840 -2.0127
  466MOL0     H62872   7.759   7.835   0.549  0.5847  0.8316  0.2548
  466MOL0     H62873   8.003   7.809   0.511 -1.9717  0.1251  2.6709
  466MOL0     H62874   8.203   7.892   0.098  1.8959 -3.2626  1.4217
  466MOL0     H62875   8.146   8.038   0.187 -1.6299 -0.4785 -3.4153
  466MOL0     H62876   8.306   8.014   0.351  1.6874 -0.4251  0.7712
  466MOL0     H62877   8.367   7.865   0.293 -3.3297 -1.6281  0.3678
  466MOL0     H62878   8.430   7.995   0.073 -0.6130  0.9438 -0.1982
  466MOL0     H62879   8.402   8.146   0.170  2.6873  1.0796 -0.1961
  466MOL0     H62880   8.645   8.075   0.154  1.9961 -1.7683  1.9232
  466MOL0     H62881   8.601   7.948   0.253  0.7823  0.5708 -1.4209
  466MOL0     H62882   8.521   8.099   0.435 -0.5663 -1.4213 -0.6426
  466MOL0     H62883   8.545   8.239   0.333 -1.6068 -0.5836 -1.7980
  466MOL0     H62884   8.756   8.053   0.448  2.5773  0.8809  0.9329
  466MOL0     H62885   8.791   8.176   0.324  0.5882  0.0047  0.8949
  466MOL0     H62886   8.713   8.344   0.486  0.5546  0.7896  0.4819
  466MOL0     H62887   8.844   8.244   0.553  0.0013  0.9852  0.6318
  466MOL0     H62888   8.680   8.286   0.732  0.2921  2.6805 -1.2938
  466MOL0     H62889   8.547   8.260   0.619  0.3561  0.5528 -1.4948
  466MOL0     H62890   7.947   7.913   0.091  0.1603 -0.4125 -0.6064
  466MOL0     H62891   7.715   7.929   0.127  0.2408 -1.5446 -0.0706
  466MOL0     H62892   7.424   8.080   0.396 -0.9971  2.7002 -2.0482
  466MOL0     H62893   7.177   8.163   0.436  2.1185 -0.4313  2.4071
  466MOL0     H62894   5.297   8.778   0.209  1.0230 -0.1903  1.6928
  466MOL0     H62895   5.061   8.780   0.166 -0.9947  0.2478  0.0229
  466MOL0     H62896   4.652   8.693   0.385 -1.7522  1.1539  0.7830
  466MOL0     H62897   4.430   8.765   0.358  0.4127  1.1028 -0.3861
  466MOL0     H62898   4.227   8.791   0.326  2.2254  2.8671 -0.3363
  466MOL0     H62899   4.096   8.762   0.227  0.1303 -1.2398  1.7093
  466MOL0     H62900   4.344   8.916   0.129  0.4196  0.1244  1.8496
  466MOL0     H62901   4.185   8.984   0.172 -0.4307 -0.5449  1.0851
  466MOL0     H62902   4.079   8.913  -0.015 -1.1364 -2.4237 -1.9932
  466MOL0     H62903   4.185   8.778  -0.040  0.3449  0.0414 -0.4098
  466MOL0     H62904   4.383   8.966  -0.107  0.0547  2.4591  0.8552
  466MOL0     H62905   4.243   8.931  -0.215 -0.1060 -1.3148  0.5137
  466MOL0     H62906   4.145   9.327  -0.104  0.7329  0.4551  0.8087
  466MOL0     H62907   4.380   8.472   0.040 -3.9730  4.4319  0.0796
  466MOL0     H62908   4.579   8.395  -0.071 -0.8989  0.8000  1.0414
  466MOL0     H62909   4.743   8.439  -0.040 -0.1869 -0.3813 -2.5199
  466MOL0     H62910   4.654   8.304   0.052 -0.7722 -0.2953 -0.0552
  467MOL0     O62911  11.257   9.163   2.526  0.6448  0.0117 -1.1857
  467MOL0     C62912  11.226   9.249   2.450  0.7686  0.0641 -0.7812
  467MOL0     O62913  11.306   9.344   2.397  0.2010 -0.8332  0.4509
  467MOL0     C62914  11.443   9.338   2.392 -0.1307  0.4618  0.1819
  467MOL0     C62915  11.484   9.443   2.312 -1.3660 -0.5851  0.5262
  467MOL0     C62916  11.615   9.477   2.312 -0.0448  0.3316  0.2106
  467MOL0     C62917  11.710   9.407   2.389  0.0053 -0.2777  0.4509
  467MOL0     O62918  11.845   9.450   2.396 -0.3034 -0.7495 -0.2683
  467MOL0     C62919  11.858   9.528   2.512  0.0887  0.3516  0.9349
  467MOL0     C62920  11.966   9.491   2.603 -0.2604 -0.0322 -0.9730
  467MOL0     C62921  12.103   9.519   2.550 -0.3843  0.9656 -0.2563
  467MOL0     C62922  12.210   9.436   2.612 -0.1311  1.1004 -0.6251
  467MOL0     C62923  12.351   9.500   2.609  0.1121 -1.1826 -0.1873
  467MOL0     C62924  12.462   9.411   2.674 -0.5291  0.4699 -0.3671
  467MOL0     C62925  12.578   9.500   2.716 -0.2236  0.5033 -0.9493
  467MOL0     C62926  12.693   9.418   2.767  0.2085  0.3484  0.5286
  467MOL0     N62927  12.813   9.504   2.778 -0.4520  0.5192 -0.6403
  467MOL0     C62928  12.914   9.513   2.676  0.4521  0.5839 -0.1225
  467MOL0     C62929  12.995   9.607   2.724  0.0966 -0.1220  0.4408
  467MOL0     C62930  13.126   9.645   2.666 -0.1132  0.4983 -0.1992
  467MOL0     C62931  13.104   9.742   2.541  0.5032  0.5797 -0.2388
  467MOL0     C62932  13.066   9.886   2.581 -0.1997  0.2804 -0.2102
  467MOL0     C62933  12.921   9.912   2.594  0.4210 -0.5259  0.4847
  467MOL0     O62934  12.865   9.920   2.462  0.2006 -1.1003 -0.1650
  467MOL0     C62935  12.731   9.904   2.444 -0.0749  0.6612 -0.3101
  467MOL0     C62936  12.693   9.893   2.307 -0.6595  0.3422 -0.9054
  467MOL0     C62937  12.555   9.872   2.276 -0.1028 -0.4043  0.5527
  467MOL0     C62938  12.457   9.864   2.373 -0.1337  1.0055  0.6002
  467MOL0     C62939  12.314   9.842   2.339  0.3265 -0.7732 -1.0956
  467MOL0     O62940  12.289   9.837   2.203 -0.2594 -0.1176 -0.7975
  467MOL0     C62941  12.157   9.822   2.175  0.2092 -0.5403  0.8071
  467MOL0     C62942  12.095   9.699   2.156  0.9955 -0.3642  0.2904
  467MOL0     C62943  11.969   9.686   2.108  0.3287  0.5231 -0.6926
  467MOL0     C62944  11.894   9.802   2.085 -0.1314 -0.2439  0.7580
  467MOL0     O62945  11.764   9.780   2.049 -0.1886  0.0970 -0.0408
  467MOL0     C62946  11.670   9.889   2.053 -0.6983  1.5713  0.3572
  467MOL0     C62947  11.547   9.850   1.968 -0.1092  0.3853 -1.1238
  467MOL0     C62948  11.462   9.739   2.039 -0.2853 -0.5138 -0.4383
  467MOL0     C62949  11.317   9.728   1.984 -0.8016 -1.0104  0.9854
  467MOL0     C62950  11.249   9.603   2.036  0.5446 -0.1712 -0.5216
  467MOL0     C62951  11.129   9.554   1.949  0.2960 -0.4221 -0.0145
  467MOL0     C62952  11.078   9.428   2.009 -0.5476 -0.0108 -0.1112
  467MOL0     C62953  10.928   9.398   1.973  0.8377  0.6977 -0.3312
  467MOL0    Cl62954  10.819   9.521   2.044 -0.4317 -0.1525 -0.1683
  467MOL0     C62955  11.954   9.930   2.096  0.0015 -0.5234 -0.1244
  467MOL0     C62956  12.087   9.944   2.146  0.1239  0.1239 -0.3177
  467MOL0     O62957  12.229   9.841   2.424 -0.1965  0.3599 -0.4945
  467MOL0     C62958  12.500   9.874   2.509  0.0365 -0.3000  0.0251
  467MOL0     C62959  12.636   9.888   2.547  0.5051 -0.3022 -0.5180
  467MOL0     N62960  12.954   9.656   2.849 -0.2114  0.7781 -0.4470
  467MOL0     N62961  12.839   9.593   2.881  0.5982  0.1998  0.0100
  467MOL0     C62962  11.668   9.294   2.454 -0.7287  0.3066 -0.3059
  467MOL0     C62963  11.536   9.252   2.451 -0.3034 -0.0052  0.1238
  467MOL0     C62964  11.078   9.256   2.432  0.4084 -0.9718  0.4863
  467MOL0     C62965  11.023   9.386   2.409 -0.6843 -0.0611 -0.3992
  467MOL0     C62966  10.893   9.398   2.371  0.5837 -0.2202  0.2576
  467MOL0     C62967  10.802   9.292   2.371  0.0519  0.6061 -0.5425
  467MOL0     O62968  10.666   9.295   2.346 -0.8518  0.3658  0.3856
  467MOL0     C62969  10.603   9.419   2.332 -0.7406 -0.3106 -0.0714
  467MOL0     C62970  10.454   9.385   2.354 -0.3560 -0.2990  0.2951
  467MOL0     C62971  10.424   9.332   2.491 -0.2064  0.3347 -0.0620
  467MOL0     C62972  10.277   9.307   2.495  0.6846  1.1662 -0.2612
  467MOL0     C62973  10.237   9.195   2.405  0.0264 -0.3581 -0.1532
  467MOL0     C62974  10.196   9.129   2.318  0.1910 -0.0814  0.4339
  467MOL0     C62975  10.855   9.164   2.397 -0.0547  0.1827 -0.5562
  467MOL0     C62976  10.991   9.149   2.438  0.5592  0.1789  0.6678
  467MOL0     C62977  11.034   9.014   2.475 -0.1883 -0.1539 -0.3507
  467MOL0     H62978  11.408   9.507   2.269 -2.0369  0.3743  2.9418
  467MOL0     H62979  11.646   9.569   2.263 -2.0849  0.4565 -0.9815
  467MOL0     H62980  11.871   9.632   2.479 -1.3721  1.0647  2.4555
  467MOL0     H62981  11.766   9.533   2.571  0.4811  2.7803  1.4513
  467MOL0     H62982  11.961   9.386   2.630 -2.7227 -0.0054 -1.1009
  467MOL0     H62983  11.946   9.548   2.694 -4.0349  1.9576 -2.7749
  467MOL0     H62984  12.126   9.622   2.578  1.3733 -0.0001  2.1883
  467MOL0     H62985  12.118   9.516   2.441  2.3541  0.0789  0.0551
  467MOL0     H62986  12.192   9.405   2.715  0.8682 -1.1469 -1.0670
  467MOL0     H62987  12.222   9.341   2.559 -0.2120  1.4684 -1.3100
  467MOL0     H62988  12.367   9.520   2.503  0.4922 -0.8124 -0.0631
  467MOL0     H62989  12.341   9.596   2.662 -2.6896 -0.5056 -1.6862
  467MOL0     H62990  12.428   9.360   2.765 -3.0623  0.0305 -1.4662
  467MOL0     H62991  12.495   9.333   2.605  0.4278  1.0533 -0.5828
  467MOL0     H62992  12.548   9.574   2.791  0.9187 -0.8642  0.9541
  467MOL0     H62993  12.611   9.560   2.631  1.7660 -2.1093 -2.1249
  467MOL0     H62994  12.678   9.367   2.863 -1.8908 -0.6975 -0.3025
  467MOL0     H62995  12.713   9.335   2.700  1.3256 -0.1387  1.4299
  467MOL0     H62996  12.923   9.453   2.586  2.0340 -2.7333  2.0435
  467MOL0     H62997  13.198   9.677   2.742 -0.5347 -2.0602  1.3744
  467MOL0     H62998  13.167   9.551   2.627 -0.7158 -0.5061  1.4887
  467MOL0     H62999  13.199   9.748   2.486 -0.1293  0.9529 -1.2958
  467MOL0     H63000  13.035   9.696   2.470  1.8681  1.9234 -2.5649
  467MOL0     H63001  13.108   9.949   2.502  0.1353  0.1083 -0.1688
  467MOL0     H63002  13.117   9.916   2.673  0.0107 -1.7402  0.3784
  467MOL0     H63003  12.914  10.004   2.653 -0.4621 -0.5495  0.4181
  467MOL0     H63004  12.880   9.829   2.652  1.5997 -1.8484 -0.5172
  467MOL0     H63005  12.767   9.906   2.229  2.1974 -0.1192  1.5079
  467MOL0     H63006  12.520   9.881   2.174  1.1860  0.7876  0.1836
  467MOL0     H63007  12.154   9.609   2.172  4.4065  1.0488 -2.7639
  467MOL0     H63008  11.924   9.589   2.091  2.0995 -0.2297 -1.4466
  467MOL0     H63009  11.641   9.909   2.157  3.4714  2.3310  1.5697
  467MOL0     H63010  11.719   9.977   2.012  1.1958  1.8303  2.9260
  467MOL0     H63011  11.479   9.936   1.957 -1.4247 -0.1553  1.6655
  467MOL0     H63012  11.582   9.806   1.875 -0.6122 -2.0442 -0.2296
  467MOL0     H63013  11.514   9.643   2.042  2.7933  1.0321  0.4036
  467MOL0     H63014  11.441   9.768   2.143 -3.2457 -1.9904 -0.5572
  467MOL0     H63015  11.326   9.719   1.875 -1.9649  0.3853  0.7382
  467MOL0     H63016  11.261   9.821   2.001  1.0611  0.0771  1.4599
  467MOL0     H63017  11.206   9.615   2.136  1.5172  3.5476 -0.4109
  467MOL0     H63018  11.325   9.527   2.054 -0.5337 -1.5990 -1.7593
  467MOL0     H63019  11.060   9.638   1.947  1.9377  0.9935  0.1005
  467MOL0     H63020  11.150   9.521   1.846 -1.4020 -0.7745 -0.2684
  467MOL0     H63021  11.085   9.429   2.118 -0.4437 -1.2293 -0.1018
  467MOL0     H63022  11.144   9.347   1.977 -0.3639 -0.2804  0.9124
  467MOL0     H63023  10.920   9.394   1.864  1.5720 -0.3792 -0.3590
  467MOL0     H63024  10.908   9.300   2.016  3.0099 -0.6519 -2.2066
  467MOL0     H63025  11.906  10.027   2.081 -2.3580 -1.6537 -0.3254
  467MOL0     H63026  12.137  10.040   2.148  1.1185 -0.3645  2.1065
  467MOL0     H63027  12.429   9.874   2.592 -0.8529  5.3438 -0.3524
  467MOL0     H63028  12.653   9.879   2.654  0.2824 -1.9238 -0.6021
  467MOL0     H63029  11.741   9.220   2.486  0.1769 -0.0885 -2.9655
  467MOL0     H63030  11.508   9.155   2.491  1.8446 -0.9339 -0.4954
  467MOL0     H63031  11.082   9.476   2.427  1.1449 -0.9440 -1.5971
  467MOL0     H63032  10.853   9.495   2.342 -0.6172  0.1570  2.8846
  467MOL0     H63033  10.614   9.466   2.234 -0.9714  2.2762  1.0536
  467MOL0     H63034  10.646   9.479   2.412  1.0144 -0.8135 -0.5975
  467MOL0     H63035  10.431   9.306   2.282 -0.3651  0.0372 -0.0716
  467MOL0     H63036  10.395   9.475   2.338  0.1900  0.0774  0.3752
  467MOL0     H63037  10.448   9.409   2.564  0.0621  0.0432  0.1571
  467MOL0     H63038  10.479   9.241   2.515  2.7354  1.6471 -1.3149
  467MOL0     H63039  10.244   9.277   2.596 -1.1116 -0.5990 -1.2851
  467MOL0     H63040  10.215   9.392   2.467  0.9256  1.6241  0.5572
  467MOL0     H63041  10.184   9.061   2.237  1.4168  1.1966 -0.8825
  467MOL0     H63042  10.791   9.077   2.391  1.0208 -0.5279 -2.4778
  467MOL0     H63043  10.953   8.942   2.459 -0.3828 -0.2418  0.9175
  467MOL0     H63044  11.118   8.978   2.415 -0.9334  1.0647 -2.2558
  467MOL0     H63045  11.041   8.995   2.582  0.4606  0.7705 -0.2190
  468MOL0     O63046   3.301   2.284   5.088 -0.6167 -0.4047  0.0840
  468MOL0     C63047   3.214   2.196   5.073 -0.2100  0.0814  0.4812
  468MOL0     O63048   3.228   2.068   5.022 -0.0069  0.2030 -0.2974
  468MOL0     C63049   3.355   2.017   4.992 -0.3532 -0.2349 -0.6961
  468MOL0     C63050   3.352   1.876   4.997  0.2557 -0.5416 -0.6045
  468MOL0     C63051   3.464   1.806   4.953 -0.7832  0.4782 -0.7978
  468MOL0     C63052   3.581   1.877   4.896  0.2721 -0.3376  0.4536
  468MOL0     O63053   3.687   1.815   4.845  0.6777  0.4956 -0.6627
  468MOL0     C63054   3.687   1.731   4.729  0.1246  0.3196 -0.2608
  468MOL0     C63055   3.653   1.805   4.600 -0.6696  0.8631 -0.2038
  468MOL0     C63056   3.781   1.883   4.561  0.4886  0.2706 -0.0585
  468MOL0     C63057   3.783   1.912   4.412 -0.3761  0.6735  0.0421
  468MOL0     C63058   3.909   2.002   4.395  0.8370 -0.2235 -0.1211
  468MOL0     C63059   3.957   1.985   4.249 -0.9718 -0.4255  0.5207
  468MOL0     C63060   4.110   1.997   4.247  0.3678  0.1601 -0.4804
  468MOL0     C63061   4.163   2.048   4.103 -0.1120 -0.6525 -0.0400
  468MOL0     N63062   4.312   2.042   4.091  0.1379  0.1493  0.3592
  468MOL0     C63063   4.391   1.998   3.978 -1.3814 -0.1226 -0.8146
  468MOL0     C63064   4.516   1.994   4.039  0.3529 -0.4307  0.3528
  468MOL0     C63065   4.636   1.932   3.968  1.1983 -0.4756  0.1200
  468MOL0     C63066   4.766   1.964   4.043  0.0476 -0.0025  1.7263
  468MOL0     C63067   4.880   1.931   3.949 -0.3203 -0.2202  0.3264
  468MOL0     C63068   5.002   1.973   4.018  0.7028 -0.7210 -0.3279
  468MOL0     O63069   5.103   1.905   3.946  0.2445 -0.4940 -0.9095
  468MOL0     C63070   5.235   1.882   3.985 -0.3432 -0.5559 -0.1365
  468MOL0     C63071   5.324   1.836   3.889 -0.3779 -0.4378 -0.0764
  468MOL0     C63072   5.459   1.806   3.923 -0.5081  0.0068 -0.1973
  468MOL0     C63073   5.511   1.830   4.055  0.1340 -0.7257  0.3046
  468MOL0     C63074   5.657   1.814   4.090  0.1393 -0.1289 -0.2443
  468MOL0     O63075   5.731   1.742   4.007 -0.4126  0.6086  0.0584
  468MOL0     C63076   5.856   1.692   4.043  0.0723  0.4706  0.1042
  468MOL0     C63077   5.869   1.559   4.079 -0.2415 -0.6720 -0.2730
  468MOL0     C63078   6.001   1.512   4.112 -0.2573  0.0058  0.0176
  468MOL0     C63079   6.106   1.601   4.132 -1.1319  0.7723  0.0265
  468MOL0     O63080   6.224   1.555   4.175  0.3329  0.4435 -0.7826
  468MOL0     C63081   6.349   1.619   4.172  0.2661 -0.6506 -0.6205
  468MOL0     C63082   6.447   1.510   4.222 -0.2050 -0.0301 -0.4959
  468MOL0     C63083   6.588   1.566   4.265  0.0350 -0.0470  0.1950
  468MOL0     C63084   6.671   1.611   4.142 -0.3569  0.8608  0.3037
  468MOL0     C63085   6.770   1.717   4.189  0.1798  0.0951 -0.4264
  468MOL0     C63086   6.855   1.762   4.076  0.1367 -0.9419  0.4702
  468MOL0     C63087   6.973   1.853   4.136  0.0532 -0.3517 -0.6832
  468MOL0     C63088   7.083   1.877   4.031 -0.1039  0.0307 -0.0410
  468MOL0    Cl63089   7.214   1.985   4.077 -0.0497  0.6845 -0.0967
  468MOL0     C63090   6.090   1.730   4.094 -0.5403 -0.4269  0.7406
  468MOL0     C63091   5.967   1.770   4.052 -0.1130  0.2311  0.0522
  468MOL0     O63092   5.686   1.860   4.196  0.3570  0.5755 -0.7203
  468MOL0     C63093   5.416   1.884   4.141  0.0573  0.4007 -0.4167
  468MOL0     C63094   5.285   1.909   4.114 -0.2748 -0.1202 -0.0604
  468MOL0     N63095   4.513   2.048   4.166  0.0035  0.4507  0.2055
  468MOL0     N63096   4.390   2.078   4.191 -0.0567 -0.2525  0.3791
  468MOL0     C63097   3.576   2.010   4.890  0.5005 -0.2019 -0.3872
  468MOL0     C63098   3.463   2.087   4.939 -0.3295 -0.2120  1.6429
  468MOL0     C63099   3.075   2.225   5.107  0.3314 -0.2062  0.6064
  468MOL0     C63100   2.973   2.149   5.047 -1.1097  0.5145  0.4143
  468MOL0     C63101   2.844   2.192   5.052 -0.7955 -0.2960  0.3833
  468MOL0     C63102   2.798   2.295   5.133 -1.1993 -0.1377  0.1492
  468MOL0     O63103   2.665   2.322   5.141 -0.0827  0.0557  0.1076
  468MOL0     C63104   2.585   2.313   5.023  0.4926  0.4067 -0.0597
  468MOL0     C63105   2.439   2.333   5.064 -0.0506  0.9891  0.2277
  468MOL0     C63106   2.349   2.338   4.948 -0.7650  0.2675  0.6158
  468MOL0     C63107   2.202   2.372   4.988 -0.2942 -0.0528 -0.1647
  468MOL0     C63108   2.133   2.382   4.855  0.0032  0.4670  0.1422
  468MOL0     C63109   2.092   2.379   4.738 -0.3595  0.0376 -0.6672
  468MOL0     C63110   2.897   2.369   5.200  0.5741  0.1472  0.3534
  468MOL0     C63111   3.035   2.332   5.184 -0.0972  0.1282 -0.0970
  468MOL0     C63112   3.128   2.411   5.273 -0.4908  0.3847 -0.1342
  468MOL0     H63113   3.260   1.827   5.024 -0.2978  0.0836 -1.3131
  468MOL0     H63114   3.477   1.699   4.942 -2.7420  0.0394  0.7030
  468MOL0     H63115   3.785   1.684   4.717  0.3929  1.1141 -1.3849
  468MOL0     H63116   3.619   1.647   4.746  2.4279 -1.3308  1.4843
  468MOL0     H63117   3.564   1.869   4.601 -0.4571  1.1577  0.0487
  468MOL0     H63118   3.633   1.733   4.521  0.6789  0.1132  0.1001
  468MOL0     H63119   3.870   1.824   4.585 -0.4550 -0.4503  1.9809
  468MOL0     H63120   3.778   1.973   4.623 -2.8682 -0.5465  1.1910
  468MOL0     H63121   3.790   1.815   4.361 -1.6789  1.9059 -2.6655
  468MOL0     H63122   3.704   1.973   4.368 -0.7061  0.9259  0.9603
  468MOL0     H63123   3.883   2.107   4.414 -1.8291 -0.9029  0.3583
  468MOL0     H63124   3.989   1.978   4.466  1.7338  3.3362  0.2547
  468MOL0     H63125   3.944   1.880   4.222 -1.3107 -0.3477  0.3742
  468MOL0     H63126   3.897   2.049   4.183  1.2838  1.7965  0.4738
  468MOL0     H63127   4.153   1.904   4.284 -1.6653 -0.6723 -0.1174
  468MOL0     H63128   4.143   2.079   4.312  2.7348 -0.2525 -1.0654
  468MOL0     H63129   4.120   1.987   4.023 -1.8622  0.9725 -0.4026
  468MOL0     H63130   4.128   2.151   4.089 -0.9745 -1.2310 -2.7523
  468MOL0     H63131   4.378   1.965   3.875  0.0778  1.6984 -1.6697
  468MOL0     H63132   4.611   1.826   3.957 -1.4145  0.1758 -1.2252
  468MOL0     H63133   4.651   1.970   3.867  2.4952  0.8866  0.7859
  468MOL0     H63134   4.773   2.071   4.063 -0.3613  0.1140  1.2374
  468MOL0     H63135   4.770   1.913   4.140 -0.6512 -0.7178  1.3946
  468MOL0     H63136   4.865   1.976   3.850  0.8408  0.7292  0.5701
  468MOL0     H63137   4.895   1.824   3.933 -0.1913 -0.3533  1.3073
  468MOL0     H63138   4.998   1.936   4.121  0.0588 -1.6240 -0.6623
  468MOL0     H63139   5.012   2.081   4.002 -1.0781 -0.3156  1.0426
  468MOL0     H63140   5.295   1.817   3.787 -0.1802 -0.4044 -0.1395
  468MOL0     H63141   5.528   1.781   3.842  0.7070 -0.5639  0.9720
  468MOL0     H63142   5.778   1.501   4.084 -0.8184  0.1706 -0.7451
  468MOL0     H63143   5.996   1.409   4.146 -3.1796  0.0664  0.0410
  468MOL0     H63144   6.375   1.640   4.068 -2.8942  1.0175 -1.1937
  468MOL0     H63145   6.357   1.709   4.233  1.5560 -3.2671  3.4922
  468MOL0     H63146   6.406   1.469   4.315 -2.5261  2.3478 -0.3719
  468MOL0     H63147   6.456   1.425   4.154  1.9485 -2.3515  2.4178
  468MOL0     H63148   6.565   1.654   4.325 -1.8677 -0.1137 -0.3666
  468MOL0     H63149   6.640   1.488   4.322 -0.3373 -1.4439 -1.2816
  468MOL0     H63150   6.612   1.659   4.064  0.0477 -0.6346 -0.9773
  468MOL0     H63151   6.721   1.528   4.091  0.6433  2.4812 -1.4835
  468MOL0     H63152   6.839   1.675   4.263 -1.2216  1.1719  1.5853
  468MOL0     H63153   6.716   1.803   4.230  1.7995 -0.1303  2.4273
  468MOL0     H63154   6.907   1.676   4.033  1.9569  0.9824 -1.4750
  468MOL0     H63155   6.804   1.816   3.995  1.1777  1.2908  1.2120
  468MOL0     H63156   7.018   1.808   4.224  0.5577  2.3818  0.5866
  468MOL0     H63157   6.925   1.945   4.172 -0.7701 -1.7231  1.9889
  468MOL0     H63158   7.129   1.780   4.009  0.5811  0.7158 -1.8637
  468MOL0     H63159   7.039   1.914   3.937  0.1021  0.2747 -0.0410
  468MOL0     H63160   6.177   1.794   4.092 -0.8221 -0.0536 -0.7042
  468MOL0     H63161   5.955   1.871   4.013 -2.9688 -0.4287 -0.9802
  468MOL0     H63162   5.460   1.908   4.237  4.2856  3.1220 -2.7093
  468MOL0     H63163   5.220   1.942   4.194 -2.0174 -0.6202 -1.2242
  468MOL0     H63164   3.646   2.067   4.829 -0.6188  2.6657  0.8529
  468MOL0     H63165   3.457   2.192   4.913 -0.0615  0.2098  3.2380
  468MOL0     H63166   2.994   2.069   4.977 -2.8121  2.0087 -1.9534
  468MOL0     H63167   2.773   2.133   4.995  1.6055 -1.0766 -1.9857
  468MOL0     H63168   2.601   2.225   4.960  0.1851  0.7239 -0.5822
  468MOL0     H63169   2.620   2.394   4.958  0.6426 -0.3132 -0.8793
  468MOL0     H63170   2.440   2.430   5.114  1.1236  0.4183  1.3539
  468MOL0     H63171   2.412   2.250   5.129  1.5935 -0.9386 -1.3872
  468MOL0     H63172   2.359   2.241   4.898  2.6663 -0.3887  2.2375
  468MOL0     H63173   2.375   2.430   4.894 -1.8078  0.8596  1.0885
  468MOL0     H63174   2.153   2.305   5.059 -0.2172  1.9575  1.8826
  468MOL0     H63175   2.192   2.472   5.030  1.0139  0.0128  0.0319
  468MOL0     H63176   2.075   2.367   4.633 -2.2889 -0.9359 -0.2855
  468MOL0     H63177   2.870   2.454   5.261 -1.6128  0.7232 -1.3018
  468MOL0     H63178   3.211   2.356   5.318  0.9154  1.6141 -1.1096
  468MOL0     H63179   3.160   2.500   5.218  1.6730  0.1033  0.5800
  468MOL0     H63180   3.068   2.432   5.362  0.9800 -1.1917  1.3234
  469MOL0     O63181   4.078   5.588   5.294 -0.0060 -0.4866  0.3294
  469MOL0     C63182   4.010   5.489   5.271  0.6499  0.2184 -0.0396
  469MOL0     O63183   4.057   5.363   5.251  0.7496 -0.3133 -0.0670
  469MOL0     C63184   4.191   5.355   5.245 -0.2094  0.3653  0.1946
  469MOL0     C63185   4.253   5.296   5.134 -0.0034 -0.7007  0.3078
  469MOL0     C63186   4.394   5.265   5.140 -1.0799 -0.3146  0.5681
  469MOL0     C63187   4.475   5.305   5.241  0.1689  1.2987 -0.3016
  469MOL0     O63188   4.608   5.280   5.235  0.2279  0.2352 -0.4266
  469MOL0     C63189   4.679   5.297   5.352  0.5674  0.4246 -0.2663
  469MOL0     C63190   4.824   5.247   5.334  0.8173 -0.4779 -0.6651
  469MOL0     C63191   4.901   5.319   5.225  0.1055  0.0327 -0.0735
  469MOL0     C63192   4.926   5.468   5.277 -0.2958  0.1909  0.0332
  469MOL0     C63193   5.051   5.533   5.201  0.5036 -0.6862 -0.2907
  469MOL0     C63194   5.183   5.491   5.263 -0.5178 -0.5373  0.6728
  469MOL0     C63195   5.307   5.567   5.205 -0.0796 -0.4536 -0.1484
  469MOL0     C63196   5.441   5.505   5.254  0.2706  0.1077 -0.2834
  469MOL0     N63197   5.555   5.580   5.219  0.8606  0.2027 -0.4053
  469MOL0     C63198   5.647   5.562   5.119  0.7662  0.1136  0.2146
  469MOL0     C63199   5.743   5.656   5.152 -0.4231  0.0257 -0.1717
  469MOL0     C63200   5.885   5.649   5.083  0.2614 -0.5461 -0.6291
  469MOL0     C63201   6.008   5.663   5.163 -0.4565  0.2551 -0.5396
  469MOL0     C63202   6.009   5.555   5.264  0.6601  0.1151 -0.0672
  469MOL0     C63203   6.140   5.549   5.341 -0.3458 -0.2545  0.2560
  469MOL0     O63204   6.254   5.510   5.259 -0.2240  0.5519  0.1762
  469MOL0     C63205   6.365   5.475   5.328 -0.0365 -0.1659 -0.6831
  469MOL0     C63206   6.475   5.429   5.255  0.5714  0.7846  0.2631
  469MOL0     C63207   6.598   5.402   5.312  0.8225 -0.2732  1.4483
  469MOL0     C63208   6.613   5.407   5.449 -0.3682  0.7203 -0.2658
  469MOL0     C63209   6.737   5.368   5.525  0.0223  0.5372 -0.1887
  469MOL0     O63210   6.751   5.417   5.663  0.2748 -0.2807  0.3766
  469MOL0     C63211   6.876   5.431   5.721  0.4636  0.8044 -0.9280
  469MOL0     C63212   6.886   5.424   5.851  0.7407 -0.6796 -0.5644
  469MOL0     C63213   6.990   5.463   5.927 -0.3985 -0.0495  0.4363
  469MOL0     C63214   7.093   5.533   5.865 -0.6727  1.0897  0.6788
  469MOL0     O63215   7.197   5.578   5.939  0.4025  0.2189  0.1926
  469MOL0     C63216   7.315   5.624   5.868  1.0627 -0.4740 -0.5964
  469MOL0     C63217   7.435   5.645   5.969  0.6706 -0.0460 -0.1413
  469MOL0     C63218   7.537   5.731   5.891 -0.2028 -0.5252 -0.9147
  469MOL0     C63219   7.670   5.789   5.968  1.0557 -0.3009 -0.3742
  469MOL0     C63220   7.747   5.887   5.881  0.2133  0.1515  0.4707
  469MOL0     C63221   7.873   5.948   5.948  0.3014  0.1258  0.5761
  469MOL0     C63222   7.954   6.052   5.873  0.2986  0.1930 -0.4779
  469MOL0     C63223   8.072   6.109   5.954  0.1315 -0.1914  0.4690
  469MOL0    Cl63224   8.129   6.255   5.876 -0.7430  0.3580 -0.3815
  469MOL0     C63225   7.098   5.539   5.716 -0.4127  0.5077 -0.1827
  469MOL0     C63226   6.982   5.489   5.652 -0.3117 -0.0669  0.2848
  469MOL0     O63227   6.823   5.304   5.460  0.7288  0.6509  0.7932
  469MOL0     C63228   6.504   5.450   5.524 -0.0359  0.6109  0.0807
  469MOL0     C63229   6.380   5.485   5.466  0.5868 -0.1983 -0.2680
  469MOL0     N63230   5.704   5.719   5.269 -1.0235  0.1032 -0.5933
  469MOL0     N63231   5.584   5.677   5.308  0.5221 -0.1895  0.1693
  469MOL0     C63232   4.407   5.380   5.345 -0.2948 -0.8844 -0.2376
  469MOL0     C63233   4.267   5.393   5.354 -0.5622  0.5657  0.3552
  469MOL0     C63234   3.868   5.510   5.251  0.3027  0.1314 -0.6368
  469MOL0     C63235   3.798   5.422   5.163 -0.2925 -0.4992 -0.3244
  469MOL0     C63236   3.657   5.431   5.147 -0.4085  0.1093 -0.1912
  469MOL0     C63237   3.593   5.544   5.196 -0.0595 -0.5250 -0.7034
  469MOL0     O63238   3.452   5.562   5.190 -0.9722  0.4884 -0.9777
  469MOL0     C63239   3.389   5.523   5.067  0.0038 -0.1624 -0.3493
  469MOL0     C63240   3.244   5.457   5.082  0.2037  0.6830  0.4603
  469MOL0     C63241   3.153   5.489   5.203  0.2202  0.3196  0.1512
  469MOL0     C63242   3.093   5.631   5.183  1.3534 -0.0337  0.0918
  469MOL0     C63243   2.995   5.640   5.065 -0.4469  0.2174 -0.5422
  469MOL0     C63244   2.925   5.657   4.971  0.0254 -0.3563  0.6553
  469MOL0     C63245   3.658   5.639   5.268  0.3849 -0.0924 -0.0152
  469MOL0     C63246   3.790   5.621   5.306  0.6866  0.0223  0.2236
  469MOL0     C63247   3.838   5.718   5.414 -0.7615  0.0740 -0.0930
  469MOL0     H63248   4.199   5.264   5.046  0.2919  1.1106 -0.5562
  469MOL0     H63249   4.444   5.223   5.053  0.1690  0.5936  0.8221
  469MOL0     H63250   4.677   5.403   5.379  1.8010  1.1371 -2.7168
  469MOL0     H63251   4.636   5.230   5.427  0.0809 -0.4250 -1.2786
  469MOL0     H63252   4.797   5.142   5.316 -1.9684  0.0882 -0.3021
  469MOL0     H63253   4.886   5.255   5.424  0.2741 -1.4628 -0.1779
  469MOL0     H63254   4.843   5.316   5.133  0.6762 -1.7247 -0.4269
  469MOL0     H63255   4.992   5.261   5.208 -2.1381 -2.8223 -3.6815
  469MOL0     H63256   4.834   5.525   5.256 -0.4981  0.2922  1.1384
  469MOL0     H63257   4.944   5.480   5.384  0.7037  2.4956 -0.3175
  469MOL0     H63258   5.043   5.502   5.096 -1.5675  0.6025 -0.5741
  469MOL0     H63259   5.038   5.640   5.219  0.1205 -0.7859  0.0250
  469MOL0     H63260   5.179   5.515   5.369  0.3872  1.5123  0.2823
  469MOL0     H63261   5.196   5.384   5.241 -1.1959 -1.2481  3.3981
  469MOL0     H63262   5.305   5.672   5.235  0.2802  0.2871 -2.5164
  469MOL0     H63263   5.315   5.553   5.097 -0.0539 -2.5545  0.0906
  469MOL0     H63264   5.444   5.485   5.361 -0.0573 -2.8865 -0.7589
  469MOL0     H63265   5.448   5.406   5.208  0.3806 -0.8826  1.7630
  469MOL0     H63266   5.656   5.484   5.044  0.6620 -0.4943  0.8138
  469MOL0     H63267   5.886   5.552   5.033 -0.6491 -2.1706  2.2948
  469MOL0     H63268   5.891   5.726   5.005 -0.9300 -0.2143 -0.4184
  469MOL0     H63269   6.095   5.644   5.100 -0.5094 -1.4154 -0.1700
  469MOL0     H63270   6.012   5.765   5.202  1.9803 -0.3336  0.9583
  469MOL0     H63271   5.991   5.456   5.222 -0.4378 -0.6044  1.9801
  469MOL0     H63272   5.942   5.585   5.345 -2.1426 -0.2849 -2.1059
  469MOL0     H63273   6.119   5.469   5.413  0.7488  0.0478  0.9285
  469MOL0     H63274   6.160   5.645   5.390 -0.0420  0.2725 -0.8698
  469MOL0     H63275   6.457   5.425   5.148 -1.2388  1.2990  0.5142
  469MOL0     H63276   6.687   5.399   5.250 -0.5964  0.0862 -0.6992
  469MOL0     H63277   6.806   5.379   5.909  2.3282 -0.6895  1.7373
  469MOL0     H63278   6.993   5.456   6.036  0.8951  1.7604  0.5510
  469MOL0     H63279   7.342   5.555   5.788  0.1554  0.6559 -1.9319
  469MOL0     H63280   7.303   5.721   5.819 -0.3872  0.5331  1.5860
  469MOL0     H63281   7.391   5.698   6.054 -1.8993  0.1035 -1.4657
  469MOL0     H63282   7.486   5.549   5.985  1.3547  0.0925 -1.3462
  469MOL0     H63283   7.569   5.679   5.800 -2.8495 -0.4717 -1.9595
  469MOL0     H63284   7.484   5.821   5.859  0.7415  0.4425  0.1844
  469MOL0     H63285   7.742   5.708   5.983  0.7691 -0.5411 -0.2893
  469MOL0     H63286   7.652   5.830   6.068  5.1731  1.7438 -0.2412
  469MOL0     H63287   7.676   5.968   5.864 -0.6936 -0.1675  2.4361
  469MOL0     H63288   7.781   5.840   5.788 -0.4650 -2.2665  1.3595
  469MOL0     H63289   7.842   5.990   6.045 -2.6065 -1.8156  0.6052
  469MOL0     H63290   7.943   5.867   5.974 -1.1456 -1.6152 -0.7387
  469MOL0     H63291   7.884   6.133   5.852  1.0040  0.8725 -0.2736
  469MOL0     H63292   7.992   6.013   5.779 -0.0975 -0.2888 -0.4367
  469MOL0     H63293   8.045   6.122   6.059 -1.4694 -2.6996  0.4322
  469MOL0     H63294   8.150   6.034   5.944  1.0170  0.3699  2.6538
  469MOL0     H63295   7.159   5.604   5.654  1.0101 -0.3183  0.3017
  469MOL0     H63296   6.988   5.510   5.546  0.4602  0.8960  0.4973
  469MOL0     H63297   6.514   5.470   5.630 -1.6095  2.5783 -0.0713
  469MOL0     H63298   6.299   5.515   5.532 -0.4077 -0.5883 -1.2966
  469MOL0     H63299   4.463   5.436   5.419  0.5587 -0.4810 -1.1521
  469MOL0     H63300   4.216   5.433   5.441 -0.4972  0.2455  0.5426
  469MOL0     H63301   3.852   5.331   5.139  0.1815 -1.0858  2.6160
  469MOL0     H63302   3.595   5.354   5.101  1.4540 -1.4544 -0.2000
  469MOL0     H63303   3.455   5.450   5.018  2.4491 -0.6273  3.2596
  469MOL0     H63304   3.382   5.602   4.991 -2.8292 -0.1135 -0.1431
  469MOL0     H63305   3.257   5.348   5.081  2.1657  0.8450 -1.7542
  469MOL0     H63306   3.194   5.486   4.989 -1.2526  1.0702  1.3410
  469MOL0     H63307   3.215   5.481   5.294  0.8644 -0.1280 -0.3161
  469MOL0     H63308   3.068   5.420   5.210  0.3692  0.2274  1.5069
  469MOL0     H63309   3.036   5.658   5.272 -0.2831 -0.5956 -0.7579
  469MOL0     H63310   3.185   5.688   5.165  1.5782 -0.5740 -0.4760
  469MOL0     H63311   2.868   5.678   4.883 -0.1585 -0.9800  0.6238
  469MOL0     H63312   3.597   5.722   5.303  0.2913  0.4451 -1.3873
  469MOL0     H63313   3.757   5.767   5.469  1.3525  2.8094  0.8120
  469MOL0     H63314   3.910   5.678   5.486  0.6746  1.6921 -0.5531
  469MOL0     H63315   3.891   5.791   5.352  0.9875  0.0779  1.3302
  470MOL0     O63316   3.958  10.164   4.469 -0.3178 -0.0361  0.4369
  470MOL0     C63317   3.938  10.094   4.376 -0.7872  0.2847  0.0410
  470MOL0     O63318   4.013   9.988   4.335 -0.0845  0.0577 -0.5591
  470MOL0     C63319   4.120   9.941   4.406 -0.1289 -0.0500 -0.2148
  470MOL0     C63320   4.112   9.894   4.538  0.6417 -0.6210  0.0718
  470MOL0     C63321   4.222   9.850   4.607 -0.2512  1.0652  1.0479
  470MOL0     C63322   4.344   9.848   4.541 -0.1608  0.2761  0.1873
  470MOL0     O63323   4.449   9.798   4.611 -0.3893 -0.1536  0.1543
  470MOL0     C63324   4.553   9.731   4.554  0.0039  0.2297  0.6358
  470MOL0     C63325   4.651   9.693   4.659  0.5135  0.3634 -0.6660
  470MOL0     C63326   4.774   9.612   4.596 -0.2939  0.4446 -0.4797
  470MOL0     C63327   4.855   9.697   4.499 -0.5537 -0.5566  0.7361
  470MOL0     C63328   4.995   9.639   4.475 -0.3207  0.1145  0.0213
  470MOL0     C63329   5.063   9.710   4.351 -0.2401 -0.2395 -1.0603
  470MOL0     C63330   5.199   9.640   4.311 -0.9252  0.0355  0.2741
  470MOL0     C63331   5.260   9.698   4.177  0.8721 -0.4021  0.9833
  470MOL0     N63332   5.383   9.633   4.124  0.1988  0.2187 -0.7718
  470MOL0     C63333   5.504   9.693   4.115 -0.3714  0.5946  0.2220
  470MOL0     C63334   5.578   9.611   4.047  0.7241  0.2056 -0.4656
  470MOL0     C63335   5.728   9.625   4.021  0.0821 -1.1064 -0.3532
  470MOL0     C63336   5.758   9.588   3.866 -0.1060  0.1919  0.6043
  470MOL0     C63337   5.802   9.445   3.854  0.1313  0.1576  0.2775
  470MOL0     C63338   5.946   9.414   3.929  0.8406  0.2189  0.0700
  470MOL0     O63339   6.047   9.490   3.868 -0.4734 -0.3679  0.3828
  470MOL0     C63340   6.175   9.454   3.904  0.0075 -0.5768  0.2031
  470MOL0     C63341   6.269   9.502   3.816 -0.3052 -0.4124  0.4457
  470MOL0     C63342   6.401   9.472   3.830  0.1057 -0.0297  0.2762
  470MOL0     C63343   6.448   9.397   3.936 -0.2611  0.6293  0.4042
  470MOL0     C63344   6.590   9.376   3.959  0.3660 -0.6133 -0.3557
  470MOL0     O63345   6.669   9.441   3.882 -0.4149  0.2936  0.6272
  470MOL0     C63346   6.805   9.433   3.905  0.6681 -0.2464  1.2367
  470MOL0     C63347   6.857   9.468   4.036  0.4897 -0.2399  0.3697
  470MOL0     C63348   6.996   9.459   4.058  0.2879 -0.1367 -0.8730
  470MOL0     C63349   7.089   9.437   3.953  0.5237  0.0131 -0.4185
  470MOL0     O63350   7.225   9.430   3.959 -0.2267 -0.3831  0.5662
  470MOL0     C63351   7.299   9.439   4.089 -0.0885 -0.3656 -0.3733
  470MOL0     C63352   7.439   9.491   4.053  0.4458  0.6061  0.0366
  470MOL0     C63353   7.518   9.384   3.968 -0.1567 -0.7792  0.5743
  470MOL0     C63354   7.668   9.423   3.964  0.8654  0.5867 -0.1429
  470MOL0     C63355   7.764   9.343   3.877  0.1706  0.3332  0.6157
  470MOL0     C63356   7.764   9.192   3.899  0.2653 -0.1879  0.8265
  470MOL0     C63357   7.808   9.150   4.041  0.0267 -0.1788  0.3462
  470MOL0     C63358   7.785   9.004   4.066 -0.6370 -0.4607  0.3941
  470MOL0    Cl63359   7.609   8.970   4.097 -0.9598 -0.2168  0.0746
  470MOL0     C63360   7.033   9.397   3.829 -0.4927 -0.5085 -0.6567
  470MOL0     C63361   6.896   9.393   3.800  0.6632 -0.3104  0.2046
  470MOL0     O63362   6.624   9.296   4.048 -0.4568 -0.2492  0.7411
  470MOL0     C63363   6.358   9.347   4.019 -0.1902 -0.0034  0.2487
  470MOL0     C63364   6.222   9.366   4.003  0.5164  0.8733  0.1962
  470MOL0     N63365   5.497   9.508   4.001  0.3913 -0.3992  0.0423
  470MOL0     N63366   5.384   9.515   4.067  0.0013  0.0186  1.1055
  470MOL0     C63367   4.350   9.880   4.410 -0.8762 -0.5325  0.4593
  470MOL0     C63368   4.241   9.927   4.339  0.7842 -0.6105  0.7185
  470MOL0     C63369   3.824  10.123   4.282 -0.0352  0.1732 -0.6395
  470MOL0     C63370   3.839  10.079   4.151  0.6986 -0.0070 -0.0060
  470MOL0     C63371   3.737  10.097   4.061 -0.5948 -0.5709  0.2395
  470MOL0     C63372   3.612  10.160   4.094  0.2013 -0.0578 -0.4567
  470MOL0     O63373   3.506  10.178   4.011  0.5267  0.3589  0.0384
  470MOL0     C63374   3.504  10.132   3.872  0.0452  0.0344 -1.3179
  470MOL0     C63375   3.555  10.238   3.777 -0.4639  0.3022 -0.1945
  470MOL0     C63376   3.473  10.370   3.773 -0.3819 -1.1733 -0.0476
  470MOL0     C63377   3.326  10.353   3.743  0.1507  0.1732  0.6005
  470MOL0     C63378   3.302  10.357   3.598 -0.5472  0.5412 -0.0235
  470MOL0     C63379   3.298  10.338   3.478 -0.3690 -0.4070  0.1745
  470MOL0     C63380   3.608  10.210   4.227 -0.6134 -0.6589  0.2410
  470MOL0     C63381   3.706  10.191   4.322 -0.2390  0.6702  0.9334
  470MOL0     C63382   3.687  10.220   4.472 -0.4052 -0.0268  0.0971
  470MOL0     H63383   4.016   9.884   4.587 -0.4598  1.7708 -1.4032
  470MOL0     H63384   4.201   9.807   4.704  2.1866  0.6538  1.4566
  470MOL0     H63385   4.517   9.642   4.501 -0.8915  1.0620 -0.1826
  470MOL0     H63386   4.604   9.797   4.483 -1.3951 -0.3060 -0.9341
  470MOL0     H63387   4.616   9.622   4.734 -0.8674  2.0787  0.3851
  470MOL0     H63388   4.682   9.784   4.711  0.5778 -1.3537  2.5782
  470MOL0     H63389   4.744   9.518   4.551 -2.4324  1.5193 -1.4409
  470MOL0     H63390   4.833   9.583   4.684 -1.6404  1.9618  1.0034
  470MOL0     H63391   4.808   9.703   4.400  0.8072  0.5639  0.1126
  470MOL0     H63392   4.868   9.800   4.534 -1.6248 -0.2785  0.3606
  470MOL0     H63393   5.061   9.645   4.561 -0.6067 -0.1067  0.2578
  470MOL0     H63394   4.984   9.534   4.447 -0.7278 -0.2348  1.4330
  470MOL0     H63395   4.996   9.715   4.264  1.1378  2.2521 -2.0736
  470MOL0     H63396   5.079   9.814   4.379 -0.2709 -0.1362 -1.4124
  470MOL0     H63397   5.186   9.531   4.307 -1.6196  0.1138  0.1918
  470MOL0     H63398   5.274   9.660   4.387 -0.1842  1.7038 -0.8374
  470MOL0     H63399   5.183   9.696   4.099  1.7562  1.6342 -0.0121
  470MOL0     H63400   5.279   9.805   4.185  0.9582 -0.3280 -0.0418
  470MOL0     H63401   5.535   9.792   4.148  3.2579 -0.6993  1.0899
  470MOL0     H63402   5.760   9.723   4.057  0.0583 -1.3912  0.4876
  470MOL0     H63403   5.781   9.546   4.076 -1.1699 -0.0821  2.5306
  470MOL0     H63404   5.670   9.605   3.803 -0.5053  3.2838  1.8374
  470MOL0     H63405   5.832   9.654   3.819  0.1329 -2.0357 -2.4458
  470MOL0     H63406   5.822   9.406   3.754 -1.8888 -0.5745  0.1121
  470MOL0     H63407   5.717   9.389   3.896 -0.9520  1.5938  0.0713
  470MOL0     H63408   5.974   9.309   3.915  3.2400  0.8104  0.0190
  470MOL0     H63409   5.948   9.445   4.034 -0.1240  0.6155 -0.0097
  470MOL0     H63410   6.236   9.573   3.741  0.9264 -1.5350 -1.2315
  470MOL0     H63411   6.465   9.514   3.753 -0.3878  1.7357  0.7809
  470MOL0     H63412   6.790   9.497   4.117 -2.0368  1.0895 -2.0328
  470MOL0     H63413   7.019   9.495   4.158 -1.6109  0.0266 -0.4441
  470MOL0     H63414   7.248   9.510   4.154  2.3121  0.3089  0.8893
  470MOL0     H63415   7.300   9.344   4.142  1.2428 -1.1811 -1.7629
  470MOL0     H63416   7.435   9.585   3.997 -1.4411  0.8257  0.4870
  470MOL0     H63417   7.488   9.509   4.149  1.1468 -0.8313 -0.0217
  470MOL0     H63418   7.506   9.287   4.016  0.9290  0.0548  2.6736
  470MOL0     H63419   7.479   9.380   3.866  3.7541 -1.1397 -1.1029
  470MOL0     H63420   7.703   9.414   4.067 -0.3872 -0.7579  0.1910
  470MOL0     H63421   7.679   9.525   3.926  2.4185 -0.1337 -1.8018
  470MOL0     H63422   7.861   9.373   3.916  0.7635 -2.3567  1.4422
  470MOL0     H63423   7.752   9.372   3.772 -0.3439  1.1065  0.8758
  470MOL0     H63424   7.665   9.152   3.876  0.1359  1.1371 -1.1834
  470MOL0     H63425   7.831   9.143   3.828 -0.9208 -0.7047  0.0399
  470MOL0     H63426   7.772   9.219   4.119  1.0164  1.1477 -0.3269
  470MOL0     H63427   7.917   9.157   4.034  0.1939 -1.7017  0.9716
  470MOL0     H63428   7.818   8.948   3.979  0.2146 -1.6194  1.4195
  470MOL0     H63429   7.825   8.973   4.164 -0.9165  2.0607  1.3916
  470MOL0     H63430   7.102   9.368   3.750 -0.8128 -0.6394 -0.8907
  470MOL0     H63431   6.859   9.366   3.701  1.6938 -1.0785  0.0082
  470MOL0     H63432   6.399   9.294   4.105  0.0505  0.5766  0.4979
  470MOL0     H63433   6.166   9.314   4.081  0.0486 -0.0144 -0.7063
  470MOL0     H63434   4.443   9.871   4.356  0.2005 -2.4079  2.4588
  470MOL0     H63435   4.255   9.953   4.235  0.6933  0.8644  1.0500
  470MOL0     H63436   3.929  10.024   4.124 -0.2929 -0.7541 -2.0151
  470MOL0     H63437   3.755  10.072   3.957 -4.0804 -0.6004 -0.4739
  470MOL0     H63438   3.402  10.107   3.844 -0.0601  1.5837 -2.4842
  470MOL0     H63439   3.564  10.041   3.861 -1.0493 -0.6578 -1.7060
  470MOL0     H63440   3.554  10.201   3.674 -2.7582 -2.4249  0.6682
  470MOL0     H63441   3.659  10.257   3.804  0.7715 -4.3908 -0.6965
  470MOL0     H63442   3.522  10.437   3.702 -1.2444 -1.6539 -1.1151
  470MOL0     H63443   3.487  10.415   3.872 -2.8363  1.6996 -0.8518
  470MOL0     H63444   3.295  10.255   3.781  0.5525 -0.0488  0.3608
  470MOL0     H63445   3.265  10.432   3.788 -0.4588 -0.8771  1.6904
  470MOL0     H63446   3.280  10.327   3.373 -2.0240  0.3937  0.3437
  470MOL0     H63447   3.522  10.262   4.267 -0.7214  0.6338 -1.5415
  470MOL0     H63448   3.711  10.139   4.540 -2.5208 -0.9239 -0.1310
  470MOL0     H63449   3.748  10.301   4.513 -0.3563  0.2653 -0.5370
  470MOL0     H63450   3.584  10.257   4.479 -1.0903  0.4640 -6.1802
  471MOL0     O63451   5.043  10.213  11.079  0.1609 -0.4752 -0.3757
  471MOL0     C63452   5.043  10.325  11.127 -0.0348 -0.4730 -0.1136
  471MOL0     O63453   5.149  10.404  11.128  0.2554 -0.2808 -0.6265
  471MOL0     C63454   5.257  10.361  11.062 -0.5552  0.0027 -0.3327
  471MOL0     C63455   5.285  10.425  10.941  0.3559  0.4380  0.6803
  471MOL0     C63456   5.412  10.405  10.874  0.0746 -0.5895  1.2895
  471MOL0     C63457   5.501  10.325  10.934 -0.5202  0.1898  0.0338
  471MOL0     O63458   5.625  10.303  10.881  0.4825 -0.5993  0.8917
  471MOL0     C63459   5.645  10.314  10.737 -0.2486 -0.0532 -0.3785
  471MOL0     C63460   5.776  10.251  10.677 -0.3013  0.5281  0.0537
  471MOL0     C63461   5.905  10.309  10.727 -0.0833 -0.3237  0.8072
  471MOL0     C63462   6.022  10.254  10.649 -0.0398  0.1272  0.3768
  471MOL0     C63463   6.146  10.320  10.704  0.4464  0.4823 -0.0231
  471MOL0     C63464   6.236  10.348  10.583 -0.3846  0.8160 -0.4192
  471MOL0     C63465   6.373  10.402  10.615 -0.3121  0.1681  0.0567
  471MOL0     C63466   6.450  10.325  10.722  0.4267  0.9413  0.8861
  471MOL0     N63467   6.594  10.317  10.684 -0.7540  0.3572 -0.5518
  471MOL0     C63468   6.641  10.209  10.610 -0.4120  0.3906  0.7601
  471MOL0     C63469   6.780  10.224  10.603  0.1492 -0.2927  0.6211
  471MOL0     C63470   6.882  10.146  10.528 -0.0537 -0.4221 -0.3615
  471MOL0     C63471   6.831  10.009  10.475 -0.2729 -0.0285  0.1026
  471MOL0     C63472   6.938   9.944  10.394  0.7003 -0.2185 -0.1399
  471MOL0     C63473   6.907   9.807  10.336  0.0805  0.7307 -0.8749
  471MOL0     O63474   6.912   9.718  10.446 -0.7723 -0.7624  0.0036
  471MOL0     C63475   7.035   9.689  10.492  0.7209  0.4399 -0.5789
  471MOL0     C63476   7.027   9.658  10.629  0.6331  0.5560 -0.2172
  471MOL0     C63477   7.136   9.655  10.712 -0.0754  0.3927 -0.2531
  471MOL0     C63478   7.266   9.651  10.656  0.6357 -0.4709  0.5786
  471MOL0     C63479   7.378   9.645  10.744  0.2708  1.0606  0.0635
  471MOL0     O63480   7.479   9.730  10.710 -0.0138 -0.3543 -0.1143
  471MOL0     C63481   7.604   9.712  10.769  1.1542  0.1180 -0.0836
  471MOL0     C63482   7.685   9.600  10.749 -0.8439  0.0951 -0.2043
  471MOL0     C63483   7.819   9.598  10.776 -0.3213 -0.4201 -0.0278
  471MOL0     C63484   7.883   9.704  10.851  0.1085 -0.2955  1.0170
  471MOL0     O63485   8.017   9.685  10.874 -0.0861  0.1206 -0.8252
  471MOL0     C63486   8.070   9.791  10.951 -0.4785  0.5627 -0.0472
  471MOL0     C63487   8.213   9.744  10.995 -0.6489  0.1671  0.6309
  471MOL0     C63488   8.299   9.726  10.871  0.7554 -0.4528  0.1649
  471MOL0     C63489   8.441   9.675  10.910  0.3401  0.2640 -0.0242
  471MOL0     C63490   8.539   9.662  10.802  0.4589 -0.8261  0.3525
  471MOL0     C63491   8.674   9.615  10.851  0.3867 -0.2789 -0.1858
  471MOL0     C63492   8.785   9.660  10.755  0.4250 -0.3421  0.3975
  471MOL0     C63493   8.918   9.613  10.801 -0.3776  1.1503 -0.0832
  471MOL0    Cl63494   8.997   9.706  10.918 -0.1437 -0.1051 -0.4645
  471MOL0     C63495   7.790   9.802  10.891 -0.2197  0.0451 -0.3727
  471MOL0     C63496   7.655   9.809  10.852  0.1641  0.3607 -0.0420
  471MOL0     O63497   7.377   9.560  10.832 -0.0259 -0.9296  0.2381
  471MOL0     C63498   7.277   9.680  10.524 -0.3086  0.3826 -0.0723
  471MOL0     C63499   7.160   9.701  10.441  0.0302  0.0964  1.0749
  471MOL0     N63500   6.805  10.335  10.675 -0.2323 -0.6499  0.9642
  471MOL0     N63501   6.696  10.392  10.721  0.1089  0.1268  0.0702
  471MOL0     C63502   5.482  10.273  11.063 -0.7832 -0.3892 -0.6966
  471MOL0     C63503   5.353  10.285  11.120  0.1790 -0.6728  0.3689
  471MOL0     C63504   4.933  10.374  11.211  1.2779 -0.2169 -0.1198
  471MOL0     C63505   4.954  10.466  11.320  0.6368 -0.5585 -0.0937
  471MOL0     C63506   4.846  10.519  11.384  0.1586 -1.2124  0.8165
  471MOL0     C63507   4.716  10.490  11.365 -0.0063  0.4509 -0.9104
  471MOL0     O63508   4.626  10.552  11.448  0.3687  0.6321 -0.3073
  471MOL0     C63509   4.495  10.573  11.396  0.8842 -0.4255  0.1482
  471MOL0     C63510   4.390  10.484  11.459  0.1804  0.0655 -1.7767
  471MOL0     C63511   4.394  10.493  11.619 -0.7556  0.4200  0.8494
  471MOL0     C63512   4.269  10.432  11.691  0.3265 -0.6269  0.1348
  471MOL0     C63513   4.226  10.300  11.643  0.6768 -0.0293  0.4992
  471MOL0     C63514   4.187  10.187  11.602  0.1927  0.0069 -0.3287
  471MOL0     C63515   4.690  10.389  11.273  0.3949 -0.1230 -0.4064
  471MOL0     C63516   4.791  10.333  11.191  0.0115 -0.5682 -0.1171
  471MOL0     C63517   4.759  10.226  11.098 -0.7304 -0.1760 -0.0710
  471MOL0     H63518   5.204  10.486  10.902  0.3593  1.2537  1.8972
  471MOL0     H63519   5.424  10.436  10.771 -0.9572  2.4920  1.9713
  471MOL0     H63520   5.572  10.251  10.686 -0.7011  0.9578 -1.0222
  471MOL0     H63521   5.633  10.416  10.698 -4.6447 -0.7094 -1.1779
  471MOL0     H63522   5.760  10.271  10.571 -0.6247  0.4761  0.0934
  471MOL0     H63523   5.776  10.142  10.688  0.6176  0.5908  0.9041
  471MOL0     H63524   5.912  10.275  10.831 -1.3883 -2.7818  0.1874
  471MOL0     H63525   5.900  10.418  10.730 -0.2220 -0.0850 -3.1303
  471MOL0     H63526   6.037  10.146  10.664  2.3876  0.5134  1.1879
  471MOL0     H63527   6.004  10.267  10.542 -1.6230  1.8830  0.8053
  471MOL0     H63528   6.131  10.418  10.751 -3.0011 -0.4012  0.9862
  471MOL0     H63529   6.192  10.253  10.777 -1.4646  1.6132  2.3869
  471MOL0     H63530   6.248  10.256  10.525 -0.3743 -0.4163  1.4888
  471MOL0     H63531   6.197  10.423  10.513 -2.2939  0.8478  0.6142
  471MOL0     H63532   6.369  10.506  10.650 -0.1813 -0.3126  1.5856
  471MOL0     H63533   6.430  10.394  10.522 -1.2383 -1.4317 -0.4094
  471MOL0     H63534   6.436  10.374  10.819  0.2034 -1.3987  2.1332
  471MOL0     H63535   6.409  10.223  10.727  1.7043  0.4084  1.0356
  471MOL0     H63536   6.579  10.132  10.566 -1.4616  1.7269 -0.1919
  471MOL0     H63537   6.928  10.208  10.451  0.3520  0.3489  0.4784
  471MOL0     H63538   6.962  10.116  10.597  0.3773  0.3075 -0.5357
  471MOL0     H63539   6.808   9.952  10.565 -1.4020 -1.1484 -0.8655
  471MOL0     H63540   6.743  10.010  10.409  2.0920  0.5130 -3.2983
  471MOL0     H63541   7.031   9.932  10.451  1.6058  0.8240 -1.3251
  471MOL0     H63542   6.963  10.010  10.311  1.2185  0.3255  0.4313
  471MOL0     H63543   6.971   9.779  10.251  1.8826 -2.9721  1.4535
  471MOL0     H63544   6.805   9.814  10.297  0.3551  1.4620 -1.4962
  471MOL0     H63545   6.930   9.654  10.677  0.2987  1.9531 -0.7338
  471MOL0     H63546   7.120   9.641  10.819 -1.8691 -1.3937 -0.6849
  471MOL0     H63547   7.651   9.518  10.687 -1.5294  0.0534  0.2188
  471MOL0     H63548   7.875   9.515  10.735 -0.8297 -1.2997  0.9938
  471MOL0     H63549   8.067   9.887  10.899  1.4430  2.2431  2.6659
  471MOL0     H63550   8.018   9.808  11.046 -1.5362 -0.1241 -0.4860
  471MOL0     H63551   8.259   9.825  11.053 -0.7097  0.7114 -0.0645
  471MOL0     H63552   8.208   9.657  11.062  0.8252  0.9272  1.8089
  471MOL0     H63553   8.242   9.657  10.807 -0.4441  0.4359  0.2307
  471MOL0     H63554   8.308   9.814  10.807  0.3304 -2.1576 -2.3935
  471MOL0     H63555   8.450   9.579  10.962  2.1862  0.7664  0.6678
  471MOL0     H63556   8.478   9.752  10.979  1.4761  1.1993 -1.6035
  471MOL0     H63557   8.538   9.756  10.746  0.5121 -0.9328  0.1729
  471MOL0     H63558   8.500   9.583  10.737 -0.4518  0.8677 -1.2666
  471MOL0     H63559   8.690   9.652  10.953  1.4339 -0.6958 -0.1859
  471MOL0     H63560   8.665   9.507  10.860 -1.0502 -0.1174  0.5072
  471MOL0     H63561   8.787   9.768  10.740 -2.0934 -0.4681 -1.4534
  471MOL0     H63562   8.768   9.611  10.659 -2.4312 -1.8219  1.4971
  471MOL0     H63563   8.912   9.512  10.841  2.1420  1.6881  1.9580
  471MOL0     H63564   8.983   9.615  10.713  0.2896  2.0325  0.3993
  471MOL0     H63565   7.811   9.887  10.955 -1.0394 -0.2928  0.3557
  471MOL0     H63566   7.590   9.886  10.891 -0.1175  0.1037 -0.0024
  471MOL0     H63567   7.374   9.674  10.476 -1.1363 -1.3206 -1.6952
  471MOL0     H63568   7.159   9.731  10.337 -2.1689  0.2948  1.1019
  471MOL0     H63569   5.559  10.214  11.111  0.1464  2.0048  0.9272
  471MOL0     H63570   5.325  10.229  11.209  2.9819  1.1796  2.6031
  471MOL0     H63571   5.055  10.503  11.339 -0.4366  2.4380  0.2397
  471MOL0     H63572   4.868  10.593  11.460 -1.9742  0.6254 -0.2484
  471MOL0     H63573   4.486  10.563  11.288 -0.5751 -1.0155  0.2917
  471MOL0     H63574   4.463  10.675  11.421 -0.2713  0.1272 -3.1342
  471MOL0     H63575   4.405  10.380  11.430  2.0107 -0.2668  0.0779
  471MOL0     H63576   4.293  10.521  11.424  0.1288  3.8983  1.5494
  471MOL0     H63577   4.403  10.594  11.660 -2.1626  0.5002  1.0308
  471MOL0     H63578   4.483  10.438  11.649 -0.6325 -0.4441 -0.9622
  471MOL0     H63579   4.303  10.420  11.794  3.4098  1.1599 -0.5528
  471MOL0     H63580   4.189  10.507  11.690  1.1162  0.2537 -1.2672
  471MOL0     H63581   4.156  10.089  11.573  4.5114 -1.3681 -1.0398
  471MOL0     H63582   4.592  10.346  11.259  1.0392 -1.2860 -1.5722
  471MOL0     H63583   4.798  10.130  11.134 -2.3671 -1.8497 -2.4786
  471MOL0     H63584   4.651  10.221  11.082 -0.4647  0.4238 -2.4561
  471MOL0     H63585   4.805  10.238  11.000  1.5330 -0.1302  0.9165
  472MOL0     O63586  10.375   5.948  10.078  0.0194 -0.2387  0.1637
  472MOL0     C63587  10.275   6.012  10.041 -0.4937 -1.2958 -0.8493
  472MOL0     O63588  10.274   6.135   9.984 -0.5029  0.9753  0.8960
  472MOL0     C63589  10.381   6.189   9.926 -1.1400 -0.2630  0.8617
  472MOL0     C63590  10.509   6.128   9.892 -0.2692 -0.0360  0.3832
  472MOL0     C63591  10.620   6.199   9.842  0.2146  0.0270 -0.3475
  472MOL0     C63592  10.606   6.336   9.819  0.5286  0.1245 -0.1103
  472MOL0     O63593  10.703   6.421   9.776  0.1107  0.2661  0.1304
  472MOL0     C63594  10.825   6.368   9.714 -0.3135  0.6606 -0.3665
  472MOL0     C63595  10.894   6.476   9.632 -0.2806  0.0315  0.0738
  472MOL0     C63596  10.963   6.589   9.707  0.0906 -0.2070 -0.6989
  472MOL0     C63597  10.870   6.693   9.745  0.6203  0.6101 -0.1909
  472MOL0     C63598  10.940   6.803   9.827  0.5307  0.2286  0.0869
  472MOL0     C63599  10.824   6.884   9.898  0.2781 -0.4821 -0.3701
  472MOL0     C63600  10.880   7.011   9.949 -0.1775 -0.4143 -0.2162
  472MOL0     C63601  10.995   7.012  10.042  0.0813 -0.6512 -0.2252
  472MOL0     N63602  11.123   7.001   9.973 -0.0958 -0.1020  0.0484
  472MOL0     C63603  11.180   7.095   9.894 -0.5976 -0.3486 -0.6483
  472MOL0     C63604  11.295   7.038   9.848  0.3036  0.0272 -0.4101
  472MOL0     C63605  11.385   7.093   9.745  0.2377 -0.7388  0.5283
  472MOL0     C63606  11.515   7.162   9.802 -0.4098 -0.2491  0.1594
  472MOL0     C63607  11.590   7.224   9.691  0.2564  0.0595 -0.2762
  472MOL0     C63608  11.717   7.293   9.727 -0.1671  0.1497  0.4341
  472MOL0     O63609  11.793   7.315   9.608  0.3829  0.3331  0.0269
  472MOL0     C63610  11.928   7.295   9.612  0.0708 -0.3546 -1.4717
  472MOL0     C63611  11.983   7.223   9.510 -0.2817 -0.1307  0.8109
  472MOL0     C63612  12.124   7.204   9.521 -0.1024  0.2700 -0.3265
  472MOL0     C63613  12.199   7.245   9.635  0.1319 -0.0729 -0.4646
  472MOL0     C63614  12.344   7.230   9.642  0.0859  0.4158  0.1823
  472MOL0     O63615  12.394   7.138   9.552 -0.6331  0.2604 -0.0481
  472MOL0     C63616  12.522   7.099   9.576 -0.8555  0.5585  0.1394
  472MOL0     C63617  12.603   7.107   9.465 -0.3171 -0.0080  0.1978
  472MOL0     C63618  12.739   7.068   9.484  0.1069 -0.6232 -0.6943
  472MOL0     C63619  12.790   7.029   9.611  0.3315  0.7142  0.5927
  472MOL0     O63620  12.922   7.011   9.619 -0.3146  0.0352  0.3294
  472MOL0     C63621  12.964   6.898   9.695 -0.6468  0.0102  0.8659
  472MOL0     C63622  13.123   6.888   9.691  0.4872 -0.0414 -0.4293
  472MOL0     C63623  13.167   6.752   9.744  0.7326  0.5773 -0.0690
  472MOL0     C63624  13.309   6.714   9.702 -0.0060  0.2148 -0.3242
  472MOL0     C63625  13.353   6.608   9.806 -1.1061 -0.0639  0.4487
  472MOL0     C63626  13.491   6.546   9.767  0.2597  0.0566 -0.0663
  472MOL0     C63627  13.556   6.475   9.881 -0.6005 -0.2035  0.3204
  472MOL0     C63628  13.702   6.411   9.856  1.1979 -0.8252  0.2341
  472MOL0    Cl63629  13.752   6.313  10.000  0.0308  0.6895 -0.2711
  472MOL0     C63630  12.703   7.012   9.718 -0.0910 -0.3590  0.7623
  472MOL0     C63631  12.571   7.047   9.697  0.4303 -0.5860 -0.3530
  472MOL0     O63632  12.413   7.301   9.718 -0.0438 -0.1767 -0.3704
  472MOL0     C63633  12.139   7.325   9.728  0.8887  0.0741  0.3117
  472MOL0     C63634  12.003   7.348   9.721 -0.1434  0.0401  0.5312
  472MOL0     N63635  11.301   6.907   9.905  0.1653 -0.6181 -0.8176
  472MOL0     N63636  11.211   6.893   9.985 -0.4650  0.2929 -0.4195
  472MOL0     C63637  10.479   6.395   9.844  0.6181  0.3490  0.5511
  472MOL0     C63638  10.371   6.323   9.900 -0.1298 -0.3473  0.6299
  472MOL0     C63639  10.148   5.959  10.098  0.6070  0.3857 -0.1980
  472MOL0     C63640  10.062   6.047  10.163  0.7634 -0.6486  0.5943
  472MOL0     C63641   9.935   6.005  10.213  0.3645  0.8915  0.5754
  472MOL0     C63642   9.896   5.871  10.201 -1.2403  0.4750 -0.1543
  472MOL0     O63643   9.770   5.826  10.230 -0.5726  0.2380  0.2494
  472MOL0     C63644   9.672   5.930  10.263  0.0853 -0.1766 -0.5245
  472MOL0     C63645   9.531   5.852  10.278 -0.6287  0.3810  0.2328
  472MOL0     C63646   9.545   5.721  10.364 -0.2908 -0.1883 -1.2140
  472MOL0     C63647   9.414   5.653  10.394  0.2387  0.0473  0.2461
  472MOL0     C63648   9.347   5.709  10.512  0.2245  0.4271  0.3346
  472MOL0     C63649   9.294   5.735  10.619 -0.2689 -0.0788 -0.3618
  472MOL0     C63650   9.990   5.778  10.153 -0.5485 -1.6838 -0.0859
  472MOL0     C63651  10.111   5.821  10.096 -0.3954  0.0554 -0.3869
  472MOL0     C63652  10.183   5.707  10.035 -0.1078  0.4858 -0.5748
  472MOL0     H63653  10.521   6.022   9.909 -2.0001 -0.4382 -0.6287
  472MOL0     H63654  10.717   6.150   9.834  1.1178  1.2132  2.0948
  472MOL0     H63655  10.884   6.320   9.793  0.1074  0.2687 -0.9098
  472MOL0     H63656  10.794   6.287   9.647  0.5752 -1.2045  1.3943
  472MOL0     H63657  10.814   6.529   9.581 -1.6664 -0.1821  1.9352
  472MOL0     H63658  10.970   6.431   9.567 -0.0882 -0.9912  0.9779
  472MOL0     H63659  11.043   6.633   9.647  0.6613  3.0468  2.1377
  472MOL0     H63660  11.003   6.540   9.796 -2.4232 -1.4055 -0.1342
  472MOL0     H63661  10.823   6.743   9.660  0.6845 -0.1483 -0.6828
  472MOL0     H63662  10.795   6.641   9.805  1.2923  0.1394  0.2477
  472MOL0     H63663  11.007   6.762   9.903 -1.8589 -0.6594  1.8467
  472MOL0     H63664  10.988   6.867   9.752 -0.9889 -1.0067 -2.0848
  472MOL0     H63665  10.748   6.905   9.823  1.7803 -0.3982 -1.9365
  472MOL0     H63666  10.782   6.831   9.984 -1.8979  2.1758  0.3613
  472MOL0     H63667  10.788   7.039  10.002 -1.2762 -2.1232 -1.1256
  472MOL0     H63668  10.894   7.085   9.869 -0.6362 -1.1741 -1.0233
  472MOL0     H63669  10.998   7.107  10.096 -0.0531 -0.9786  0.3595
  472MOL0     H63670  10.986   6.933  10.116  1.7836  2.3936  3.5651
  472MOL0     H63671  11.133   7.187   9.860 -2.3771 -1.1413 -0.4341
  472MOL0     H63672  11.417   7.002   9.694  1.2192 -0.2083  0.1872
  472MOL0     H63673  11.322   7.161   9.687 -2.7154 -2.8243  1.0605
  472MOL0     H63674  11.496   7.230   9.886  2.7455 -1.1983  1.7872
  472MOL0     H63675  11.582   7.087   9.845 -1.8370 -2.6561 -1.5674
  472MOL0     H63676  11.526   7.294   9.637  2.1683  1.2695 -1.0858
  472MOL0     H63677  11.607   7.140   9.623 -4.7206 -1.6682  0.2487
  472MOL0     H63678  11.768   7.234   9.803  0.2838 -1.6909 -1.2118
  472MOL0     H63679  11.706   7.389   9.777  2.1487 -0.1985  1.7529
  472MOL0     H63680  11.939   7.196   9.414  3.8616  0.3818 -1.4907
  472MOL0     H63681  12.162   7.150   9.435  0.7357 -1.1982  0.9223
  472MOL0     H63682  12.563   7.146   9.372 -3.2395  1.7394  2.0284
  472MOL0     H63683  12.809   7.066   9.401  1.5629  1.3085  0.3788
  472MOL0     H63684  12.940   6.907   9.801  0.2668 -0.2421  1.1016
  472MOL0     H63685  12.922   6.803   9.660  0.0964  0.0563 -0.1872
  472MOL0     H63686  13.146   6.887   9.584 -2.6894 -3.0519 -1.2764
  472MOL0     H63687  13.160   6.978   9.742 -1.8588  1.8645 -1.9019
  472MOL0     H63688  13.151   6.745   9.852 -2.3806 -1.8066 -0.5350
  472MOL0     H63689  13.104   6.675   9.697  1.7107  0.6000 -1.4871
  472MOL0     H63690  13.381   6.795   9.714  2.5367 -1.9617 -0.1083
  472MOL0     H63691  13.321   6.688   9.597  1.2794 -0.3879 -0.0485
  472MOL0     H63692  13.282   6.525   9.813 -3.0568  1.3385 -1.6685
  472MOL0     H63693  13.358   6.653   9.906 -0.6840  1.5981 -0.2806
  472MOL0     H63694  13.458   6.477   9.689 -2.4391  1.4017 -0.2436
  472MOL0     H63695  13.557   6.625   9.730  1.7501 -1.0856  0.0918
  472MOL0     H63696  13.489   6.395   9.912  0.2103 -0.6124  1.0586
  472MOL0     H63697  13.564   6.544   9.965  1.6718  2.0119 -1.5478
  472MOL0     H63698  13.700   6.343   9.770 -0.0455 -1.6769  0.9029
  472MOL0     H63699  13.780   6.487   9.844  0.5521  0.0311  1.3272
  472MOL0     H63700  12.743   6.985   9.815  0.4991 -2.0613  0.0853
  472MOL0     H63701  12.502   7.028   9.779 -1.6013 -0.9854 -2.0744
  472MOL0     H63702  12.195   7.376   9.805  0.4695 -1.7138  1.8942
  472MOL0     H63703  11.962   7.399   9.807 -4.5192 -1.4301 -0.3834
  472MOL0     H63704  10.465   6.500   9.819  1.6591  0.8551  2.0084
  472MOL0     H63705  10.279   6.375   9.927 -0.1364  1.1354 -1.8974
  472MOL0     H63706  10.088   6.152  10.165  3.7639 -1.2519 -1.0099
  472MOL0     H63707   9.866   6.081  10.246 -2.5079 -1.6504  0.8803
  472MOL0     H63708   9.653   6.003  10.184  0.3427  3.6955  2.7022
  472MOL0     H63709   9.690   5.978  10.360 -0.0605 -0.5504 -0.3076
  472MOL0     H63710   9.497   5.817  10.180  3.4099  1.2236 -1.6786
  472MOL0     H63711   9.460   5.923  10.321 -1.1550 -0.8357  1.4731
  472MOL0     H63712   9.609   5.736  10.451  0.1524  0.9586 -1.7246
  472MOL0     H63713   9.607   5.657  10.300  2.5108  0.7640  0.3959
  472MOL0     H63714   9.350   5.658  10.306  1.0570 -0.2971 -0.3797
  472MOL0     H63715   9.429   5.546  10.409  1.1306  0.4868  3.3248
  472MOL0     H63716   9.247   5.776  10.706 -0.2117 -0.9236  0.0829
  472MOL0     H63717   9.965   5.674  10.134  1.9796 -2.0222 -2.0675
  472MOL0     H63718  10.278   5.742   9.993  0.6959  1.3330  1.7460
  472MOL0     H63719  10.211   5.641  10.119 -1.3128  1.1599  0.3914
  472MOL0     H63720  10.121   5.657   9.960 -0.1681  0.6244 -0.6167
  473MOL0     O63721   9.077   3.805   4.810  0.3441 -0.4971  0.3208
  473MOL0     C63722   9.020   3.714   4.877 -0.3475  0.1596 -0.4488
  473MOL0     O63723   9.078   3.590   4.908 -0.5827 -0.3679  0.2746
  473MOL0     C63724   9.211   3.569   4.867  0.4777  0.2834  0.1710
  473MOL0     C63725   9.310   3.590   4.960  0.2217 -0.5248 -0.5339
  473MOL0     C63726   9.445   3.587   4.933 -0.3550 -0.0852  0.1853
  473MOL0     C63727   9.493   3.548   4.807 -0.3384  0.3474  0.0754
  473MOL0     O63728   9.630   3.556   4.790 -0.2656  0.3211  0.4508
  473MOL0     C63729   9.715   3.656   4.856  0.1441 -0.3160  0.1323
  473MOL0     C63730   9.818   3.729   4.773 -0.4870 -0.8114  0.2906
  473MOL0     C63731   9.918   3.642   4.693  0.8001  0.2642  0.9015
  473MOL0     C63732  10.033   3.723   4.628 -0.4036 -0.0604 -0.7432
  473MOL0     C63733  10.126   3.626   4.552  0.5451  0.2199 -0.1716
  473MOL0     C63734  10.256   3.696   4.526 -0.2197 -0.4433 -0.1323
  473MOL0     C63735  10.356   3.630   4.443 -0.2264  0.1846 -0.3391
  473MOL0     C63736  10.463   3.726   4.400  0.1682  0.5442  0.8893
  473MOL0     N63737  10.548   3.762   4.515  0.3369  0.4124  0.8062
  473MOL0     C63738  10.649   3.686   4.575 -0.4448 -0.3592 -1.3671
  473MOL0     C63739  10.691   3.765   4.679  0.1031 -0.1434 -0.2929
  473MOL0     C63740  10.769   3.708   4.793 -0.2717 -0.0624 -0.8590
  473MOL0     C63741  10.900   3.803   4.783 -0.0364  0.2920 -0.9131
  473MOL0     C63742  11.000   3.744   4.884 -0.0455  0.2173  0.5379
  473MOL0     C63743  11.130   3.720   4.816  0.3569 -0.0156 -0.3513
  473MOL0     O63744  11.214   3.690   4.930  0.1361  0.2971  0.2500
  473MOL0     C63745  11.344   3.669   4.899  0.2847 -0.7149  0.5154
  473MOL0     C63746  11.413   3.608   4.998 -0.3093  0.1366 -0.0839
  473MOL0     C63747  11.550   3.582   4.992 -0.1448  0.4194  0.0255
  473MOL0     C63748  11.617   3.610   4.873 -1.3984  0.0865 -0.8892
  473MOL0     C63749  11.766   3.579   4.874  0.1880 -0.0788  0.4205
  473MOL0     O63750  11.797   3.474   4.963 -0.7776  0.3289  0.0844
  473MOL0     C63751  11.916   3.409   4.944 -0.6199  0.7855 -0.7198
  473MOL0     C63752  12.035   3.481   4.964  0.0248 -0.0544  0.1670
  473MOL0     C63753  12.162   3.419   4.961 -0.6793  0.1985 -0.0905
  473MOL0     C63754  12.170   3.276   4.950  0.4535  0.0554  0.6839
  473MOL0     O63755  12.288   3.212   4.931  0.3280  0.0679 -0.4166
  473MOL0     C63756  12.400   3.256   5.014  0.3852 -0.1880  0.0554
  473MOL0     C63757  12.502   3.149   5.016 -0.0252  1.0084 -0.1149
  473MOL0     C63758  12.460   3.022   5.088  0.0056 -0.3926 -0.1333
  473MOL0     C63759  12.576   2.972   5.168 -0.8559  0.8090  0.0362
  473MOL0     C63760  12.550   2.842   5.242  0.2238  0.2982 -0.0249
  473MOL0     C63761  12.681   2.790   5.295  0.5176 -0.3315  0.6483
  473MOL0     C63762  12.685   2.644   5.346  0.7217 -0.2019 -0.1242
  473MOL0     C63763  12.821   2.619   5.412 -0.0072  0.9788  0.2127
  473MOL0    Cl63764  12.960   2.628   5.301 -0.4154  0.1734  0.0878
  473MOL0     C63765  12.051   3.200   4.944 -0.1082  0.0212  0.3939
  473MOL0     C63766  11.927   3.266   4.938 -0.2668 -0.2538  0.1812
  473MOL0     O63767  11.841   3.634   4.792 -0.0620 -0.5028 -0.1408
  473MOL0     C63768  11.553   3.680   4.767  0.2341 -0.0967  0.4252
  473MOL0     C63769  11.413   3.710   4.780  0.1404  0.2748 -0.3037
  473MOL0     N63770  10.616   3.880   4.667  0.2763 -0.0833  0.0223
  473MOL0     N63771  10.542   3.888   4.560  0.4311 -0.0042  0.6527
  473MOL0     C63772   9.399   3.526   4.710  0.0443  1.3193 -0.0931
  473MOL0     C63773   9.254   3.531   4.739  0.5361  0.6798  0.6563
  473MOL0     C63774   8.878   3.730   4.909  0.3893 -0.1977  1.3757
  473MOL0     C63775   8.794   3.735   4.794 -0.2324  0.1935 -0.4735
  473MOL0     C63776   8.656   3.737   4.807  0.1148  0.1615 -0.6547
  473MOL0     C63777   8.593   3.742   4.935 -0.1873 -0.0337 -0.5116
  473MOL0     O63778   8.460   3.731   4.969 -0.6804 -0.3987 -0.2514
  473MOL0     C63779   8.351   3.765   4.882 -0.7971 -0.2890 -0.2134
  473MOL0     C63780   8.296   3.909   4.896 -0.1923 -0.6814  0.2028
  473MOL0     C63781   8.208   3.961   4.788  0.2194 -0.1193 -0.4652
  473MOL0     C63782   8.165   4.109   4.830  0.0948  0.8512  0.0913
  473MOL0     C63783   8.049   4.155   4.759  0.4520 -0.5040  0.0041
  473MOL0     C63784   7.943   4.175   4.696 -0.0410 -0.5392  0.3009
  473MOL0     C63785   8.680   3.753   5.048  0.7010  0.5268  0.2673
  473MOL0     C63786   8.819   3.738   5.040 -0.1847  0.2525  0.7167
  473MOL0     C63787   8.902   3.751   5.157  0.3605  0.4603  0.6873
  473MOL0     H63788   9.281   3.611   5.063  3.0764 -4.1101  1.2228
  473MOL0     H63789   9.513   3.625   5.008 -0.8239 -0.4918  0.8262
  473MOL0     H63790   9.648   3.734   4.892 -1.5359 -1.5592 -0.1770
  473MOL0     H63791   9.770   3.605   4.936  1.4395 -0.0264 -0.5414
  473MOL0     H63792   9.883   3.795   4.831  1.6816 -1.4272 -1.3317
  473MOL0     H63793   9.753   3.777   4.698 -0.4970 -2.5882 -0.8995
  473MOL0     H63794   9.865   3.579   4.621  1.5581  0.3374  0.2634
  473MOL0     H63795   9.964   3.576   4.767  1.6986  0.5794  0.6445
  473MOL0     H63796   9.995   3.801   4.562  0.6426  1.1169  0.0006
  473MOL0     H63797  10.089   3.783   4.700  0.1624 -0.8181 -0.5382
  473MOL0     H63798  10.133   3.530   4.603  1.2197  0.4782  0.2325
  473MOL0     H63799  10.072   3.597   4.461 -1.8753 -1.7684  1.7537
  473MOL0     H63800  10.228   3.788   4.474  3.0857 -1.4205 -4.1254
  473MOL0     H63801  10.296   3.722   4.625  0.9371  0.4403 -0.7990
  473MOL0     H63802  10.315   3.594   4.348 -0.3408 -0.6919  0.0374
  473MOL0     H63803  10.407   3.548   4.493  4.6253  2.1010 -1.5696
  473MOL0     H63804  10.524   3.691   4.316  1.9488  0.9888  1.9542
  473MOL0     H63805  10.426   3.825   4.375  2.4734  0.5250 -3.4673
  473MOL0     H63806  10.677   3.584   4.549  1.2107 -0.2158 -0.3084
  473MOL0     H63807  10.726   3.731   4.891  2.2389 -2.7509  1.0352
  473MOL0     H63808  10.792   3.601   4.797 -0.0204 -0.1517  6.0566
  473MOL0     H63809  10.944   3.803   4.683 -0.0850  0.8870 -0.9379
  473MOL0     H63810  10.866   3.905   4.802  0.9969  1.0664 -2.8394
  473MOL0     H63811  10.962   3.651   4.928  0.3197 -0.7327 -1.0731
  473MOL0     H63812  11.013   3.816   4.965  0.8219 -0.5279  1.0847
  473MOL0     H63813  11.158   3.810   4.760 -1.6325  0.9700  0.1316
  473MOL0     H63814  11.127   3.639   4.743  0.4604 -0.8770  0.5711
  473MOL0     H63815  11.358   3.575   5.085  0.6004 -3.7645 -0.8197
  473MOL0     H63816  11.601   3.536   5.076  0.4613 -1.1997 -1.1601
  473MOL0     H63817  12.032   3.582   5.004  2.2093 -0.1853  0.7964
  473MOL0     H63818  12.244   3.489   4.975 -3.0189  2.8181  1.7832
  473MOL0     H63819  12.443   3.346   4.968 -2.6515  0.4496 -1.7995
  473MOL0     H63820  12.367   3.290   5.113 -0.7263 -0.3188 -0.2575
  473MOL0     H63821  12.521   3.122   4.912  0.9098 -0.7773  0.4812
  473MOL0     H63822  12.592   3.181   5.070 -0.1587 -2.4929  2.4543
  473MOL0     H63823  12.372   3.034   5.151  0.6371  3.8328  0.2230
  473MOL0     H63824  12.436   2.949   5.009  0.8913  0.1165 -0.8981
  473MOL0     H63825  12.612   3.052   5.233 -3.5816  2.5982 -0.5150
  473MOL0     H63826  12.649   2.948   5.090  0.4363  0.8213  1.2038
  473MOL0     H63827  12.506   2.766   5.176 -0.7314 -0.0748  1.0057
  473MOL0     H63828  12.481   2.861   5.325  1.0509  0.0388  0.7261
  473MOL0     H63829  12.755   2.794   5.215  2.0094 -0.9493  1.9365
  473MOL0     H63830  12.713   2.867   5.366  2.9993 -0.3980 -0.3175
  473MOL0     H63831  12.678   2.570   5.265 -0.5587 -4.3333  3.3442
  473MOL0     H63832  12.614   2.617   5.425  2.3674 -1.2508  1.0626
  473MOL0     H63833  12.838   2.684   5.499  0.7164 -0.0239  0.8405
  473MOL0     H63834  12.809   2.514   5.439 -0.0162  0.8821 -0.1641
  473MOL0     H63835  12.055   3.092   4.930 -3.8961  0.0252 -2.3320
  473MOL0     H63836  11.840   3.202   4.930  0.6491 -2.0760  3.0366
  473MOL0     H63837  11.600   3.697   4.670  1.9760 -1.5915  0.9574
  473MOL0     H63838  11.375   3.760   4.692  0.6100 -1.8487 -1.8151
  473MOL0     H63839   9.426   3.498   4.608 -1.8557 -1.0075 -0.0482
  473MOL0     H63840   9.181   3.540   4.659 -0.9426 -2.4246  1.5236
  473MOL0     H63841   8.826   3.735   4.690  0.3998 -3.7645 -0.4342
  473MOL0     H63842   8.599   3.732   4.715 -0.1909  0.0697 -0.4616
  473MOL0     H63843   8.276   3.685   4.890 -0.4520 -0.8127 -1.8279
  473MOL0     H63844   8.376   3.758   4.776 -0.1325 -0.5880 -0.0378
  473MOL0     H63845   8.387   3.969   4.899  0.8342 -2.2237  0.5392
  473MOL0     H63846   8.252   3.924   4.995  1.1434  1.4793  0.5379
  473MOL0     H63847   8.121   3.895   4.784 -0.2523  0.4787 -0.2193
  473MOL0     H63848   8.254   3.975   4.690  0.3252  0.7239 -0.3024
  473MOL0     H63849   8.146   4.121   4.937  0.1472  1.1181  0.0704
  473MOL0     H63850   8.249   4.176   4.814 -0.5952  1.8894  0.6774
  473MOL0     H63851   7.868   4.209   4.627  2.0903  1.8900 -0.9661
  473MOL0     H63852   8.627   3.769   5.141 -1.4930  1.2984 -1.0382
  473MOL0     H63853   8.983   3.681   5.135 -0.6652  0.0740 -2.3328
  473MOL0     H63854   8.946   3.850   5.168  2.0633 -0.3777  1.7078
  473MOL0     H63855   8.847   3.729   5.249 -0.4243  2.6751  0.7898
  474MOL0     O63856   2.690   1.173   1.880  0.8253  0.2946 -0.3480
  474MOL0     C63857   2.720   1.191   1.768 -0.1846 -0.0874  0.5295
  474MOL0     O63858   2.635   1.205   1.663  0.0865  0.3913  0.3104
  474MOL0     C63859   2.500   1.197   1.676  0.2034  0.0435 -0.2043
  474MOL0     C63860   2.436   1.074   1.660  0.5348 -0.5559  0.0703
  474MOL0     C63861   2.297   1.069   1.686  0.1539 -0.0370 -0.4956
  474MOL0     C63862   2.221   1.187   1.710 -0.1448  0.2286  1.2992
  474MOL0     O63863   2.084   1.188   1.718  0.5569 -0.0147  0.6308
  474MOL0     C63864   2.007   1.074   1.677 -0.2499  0.1636  0.2718
  474MOL0     C63865   1.870   1.135   1.643  0.0890  0.3313  0.9520
  474MOL0     C63866   1.784   1.019   1.586 -0.2355 -0.2569  1.2506
  474MOL0     C63867   1.638   1.054   1.562  0.9338  0.1769  0.3709
  474MOL0     C63868   1.560   0.950   1.495  0.4199 -1.5609 -0.0547
  474MOL0     C63869   1.427   1.009   1.447 -0.1606  0.0458  0.7487
  474MOL0     C63870   1.347   0.924   1.351  0.6501 -0.1740 -0.2933
  474MOL0     C63871   1.332   0.780   1.405  0.6048  0.3137  0.3048
  474MOL0     N63872   1.272   0.701   1.296  0.0855  0.1522  0.5261
  474MOL0     C63873   1.340   0.656   1.185  0.3432 -0.6210 -0.2300
  474MOL0     C63874   1.257   0.559   1.141 -0.1538 -0.3905  0.5928
  474MOL0     C63875   1.284   0.464   1.029  0.1888 -0.3815 -0.3174
  474MOL0     C63876   1.282   0.528   0.889 -0.2042  0.0258  0.0792
  474MOL0     C63877   1.337   0.433   0.784  0.0512 -0.1984 -0.4960
  474MOL0     C63878   1.493   0.422   0.774  0.0023  0.2008 -0.0360
  474MOL0     O63879   1.517   0.322   0.674 -0.4037 -0.6942 -0.1255
  474MOL0     C63880   1.645   0.321   0.624 -0.2147  0.1401  0.5492
  474MOL0     C63881   1.753   0.388   0.677 -0.1479 -0.4961  0.1194
  474MOL0     C63882   1.882   0.388   0.632  0.1013  1.0812 -0.1215
  474MOL0     C63883   1.911   0.308   0.515 -0.1610 -0.4579  0.4672
  474MOL0     C63884   2.044   0.294   0.461 -0.4249  0.1144  0.0934
  474MOL0     O63885   2.145   0.350   0.538  1.1631  0.2141 -0.4939
  474MOL0     C63886   2.270   0.348   0.494 -0.1210 -0.3597  0.6238
  474MOL0     C63887   2.329   0.225   0.462  0.0004 -0.5892 -0.6827
  474MOL0     C63888   2.459   0.195   0.442  0.2091 -0.1128 -0.2135
  474MOL0     C63889   2.550   0.304   0.443  0.2908  0.6806  0.1855
  474MOL0     O63890   2.686   0.299   0.409  0.6817 -0.5570 -0.8420
  474MOL0     C63891   2.765   0.178   0.424 -0.3632 -0.4518 -0.3500
  474MOL0     C63892   2.891   0.202   0.509  0.1578  0.6862  0.5211
  474MOL0     C63893   2.981   0.291   0.438  0.9468  0.2096 -0.0440
  474MOL0     C63894   3.113   0.329   0.511  0.8239  0.2085  0.5455
  474MOL0     C63895   3.208   0.207   0.507 -0.0775 -0.3792 -0.2973
  474MOL0     C63896   3.350   0.257   0.522 -0.2941 -0.5735 -0.2713
  474MOL0     C63897   3.444   0.143   0.553  0.2260 -0.5738  0.2208
  474MOL0     C63898   3.594   0.166   0.545 -0.0890 -0.6132  0.1450
  474MOL0    Cl63899   3.676   0.018   0.609 -0.0505  0.0003 -0.1007
  474MOL0     C63900   2.497   0.439   0.477 -0.0238  0.5870 -0.3120
  474MOL0     C63901   2.351   0.464   0.487  0.0800  0.0860 -0.6644
  474MOL0     O63902   2.056   0.232   0.352 -0.5453 -0.3007 -0.0391
  474MOL0     C63903   1.804   0.238   0.456  0.2323  0.5533 -0.7767
  474MOL0     C63904   1.673   0.241   0.510  0.0883  0.8563 -0.1516
  474MOL0     N63905   1.134   0.564   1.204  0.2467 -0.5405 -0.1809
  474MOL0     N63906   1.140   0.656   1.292 -0.4366  0.0307  0.1947
  474MOL0     C63907   2.297   1.302   1.741  0.4131 -0.1778  0.2854
  474MOL0     C63908   2.429   1.310   1.721 -0.2757  0.6013 -0.6709
  474MOL0     C63909   2.856   1.235   1.745  0.1514  0.2412  0.6708
  474MOL0     C63910   2.878   1.341   1.659  0.3606 -0.8162 -1.0578
  474MOL0     C63911   3.007   1.387   1.641 -0.5898  0.0174 -0.7589
  474MOL0     C63912   3.111   1.332   1.714 -0.7340  0.0634 -0.4563
  474MOL0     O63913   3.243   1.380   1.711  0.0729 -0.2056 -0.0677
  474MOL0     C63914   3.259   1.511   1.650 -0.3360  0.0737 -0.1291
  474MOL0     C63915   3.389   1.574   1.676  0.1178 -0.5199  0.0353
  474MOL0     C63916   3.425   1.607   1.819 -0.2236  0.5779  0.2932
  474MOL0     C63917   3.560   1.674   1.832 -0.1095 -0.0648 -0.5056
  474MOL0     C63918   3.596   1.702   1.973  0.4797 -0.2520  0.4005
  474MOL0     C63919   3.628   1.719   2.094  0.1352 -0.6180 -0.3568
  474MOL0     C63920   3.097   1.208   1.791 -0.7043 -0.3253  0.3243
  474MOL0     C63921   2.966   1.172   1.813 -0.0006 -0.6255  0.1698
  474MOL0     C63922   2.953   1.061   1.917  0.0511  0.7292  0.0112
  474MOL0     H63923   2.491   0.984   1.632 -0.9403 -2.2743  2.3704
  474MOL0     H63924   2.259   0.968   1.678  1.9564 -0.6373 -1.9221
  474MOL0     H63925   2.053   1.016   1.596  1.4051  0.8886  0.6460
  474MOL0     H63926   2.000   1.007   1.763 -1.8723 -1.1169 -0.8185
  474MOL0     H63927   1.899   1.213   1.571  1.3361 -1.7812 -0.9582
  474MOL0     H63928   1.822   1.170   1.735 -1.3038  0.8835  0.0473
  474MOL0     H63929   1.783   0.923   1.638 -2.7979 -1.3303 -0.5517
  474MOL0     H63930   1.822   1.000   1.485 -0.1646 -1.6126  1.5166
  474MOL0     H63931   1.599   1.071   1.663  1.7245 -1.6139  1.0237
  474MOL0     H63932   1.634   1.148   1.507  2.0039 -0.1006 -0.1998
  474MOL0     H63933   1.617   0.925   1.406  0.4109  1.0354 -0.8778
  474MOL0     H63934   1.547   0.860   1.555 -0.9450 -0.7354  0.9433
  474MOL0     H63935   1.368   1.015   1.539 -1.1847 -1.0864  0.1941
  474MOL0     H63936   1.446   1.103   1.395 -0.9750 -1.4593 -2.5211
  474MOL0     H63937   1.396   0.922   1.253 -1.0342  1.1987 -1.2217
  474MOL0     H63938   1.250   0.975   1.340  0.9613  0.5306  0.1440
  474MOL0     H63939   1.427   0.732   1.432  0.6713  0.0152 -0.4482
  474MOL0     H63940   1.273   0.780   1.497 -0.7185  1.2553 -0.5049
  474MOL0     H63941   1.440   0.685   1.154 -0.0817  0.2645 -0.8100
  474MOL0     H63942   1.380   0.422   1.058  1.3673  2.5714  0.4037
  474MOL0     H63943   1.211   0.383   1.035 -1.5285  1.1935  1.7158
  474MOL0     H63944   1.180   0.560   0.863  0.6467  2.6796 -0.2897
  474MOL0     H63945   1.330   0.626   0.897 -2.5091  1.1422  1.5968
  474MOL0     H63946   1.292   0.480   0.696 -0.6826  0.5991  0.2796
  474MOL0     H63947   1.287   0.335   0.790 -1.1883  0.2189 -2.7920
  474MOL0     H63948   1.536   0.387   0.868  0.2351 -2.2609 -0.9804
  474MOL0     H63949   1.532   0.522   0.753 -0.0499  0.1163 -0.5531
  474MOL0     H63950   1.737   0.458   0.757  0.1654 -1.8973  1.4581
  474MOL0     H63951   1.951   0.447   0.691  0.3175  1.9951 -1.2644
  474MOL0     H63952   2.263   0.139   0.461 -1.0605  0.1738  0.6380
  474MOL0     H63953   2.487   0.096   0.405 -1.7816  0.1066 -2.6157
  474MOL0     H63954   2.710   0.094   0.468  0.0428 -1.0864 -1.0130
  474MOL0     H63955   2.793   0.162   0.319 -0.3361 -1.1048 -0.2466
  474MOL0     H63956   2.859   0.241   0.607 -2.9834 -0.6878  0.1602
  474MOL0     H63957   2.941   0.106   0.525 -1.0874 -0.0018  0.4342
  474MOL0     H63958   3.002   0.245   0.341 -1.4646  0.3690 -0.7322
  474MOL0     H63959   2.935   0.390   0.428  1.3650  0.4223  0.1262
  474MOL0     H63960   3.095   0.357   0.615 -1.0888  1.1011  0.0053
  474MOL0     H63961   3.165   0.413   0.464  1.7108 -1.6266 -1.9818
  474MOL0     H63962   3.212   0.150   0.414  1.2915  2.5725 -2.1837
  474MOL0     H63963   3.181   0.148   0.595  0.7374  0.8816  0.8347
  474MOL0     H63964   3.387   0.315   0.437  1.8297 -0.8234  0.4382
  474MOL0     H63965   3.356   0.334   0.599 -4.6706  0.5131 -0.7436
  474MOL0     H63966   3.416   0.057   0.492 -0.6877 -0.5201  0.5582
  474MOL0     H63967   3.416   0.110   0.654 -1.5567 -3.6709 -1.1573
  474MOL0     H63968   3.620   0.177   0.440  0.7409 -1.7008  0.2190
  474MOL0     H63969   3.612   0.259   0.601 -2.9093 -0.6965  1.3183
  474MOL0     H63970   2.567   0.522   0.474  0.8829 -0.0111  1.9128
  474MOL0     H63971   2.304   0.560   0.505 -1.1317 -0.3059 -1.6243
  474MOL0     H63972   1.822   0.180   0.366 -0.9702 -0.0556 -0.6405
  474MOL0     H63973   1.588   0.196   0.460  0.7119 -1.5078  0.7602
  474MOL0     H63974   2.259   1.395   1.782  0.7081  0.2645 -0.4382
  474MOL0     H63975   2.493   1.393   1.751 -1.7601  1.4936  0.1751
  474MOL0     H63976   2.793   1.394   1.617 -0.2584 -0.3391  0.7221
  474MOL0     H63977   3.027   1.475   1.580  1.0232  2.1801  2.5470
  474MOL0     H63978   3.184   1.584   1.682  0.6521  0.1816  2.1068
  474MOL0     H63979   3.238   1.500   1.543 -0.7295  0.0689 -0.0527
  474MOL0     H63980   3.394   1.660   1.609 -1.4420 -1.1566 -0.9421
  474MOL0     H63981   3.459   1.497   1.641 -0.4331 -1.9384  1.9038
  474MOL0     H63982   3.419   1.517   1.880  0.9464 -1.4369 -2.3443
  474MOL0     H63983   3.352   1.683   1.850 -1.1016  0.8385 -2.1474
  474MOL0     H63984   3.641   1.610   1.795  0.8634 -0.1109  1.5750
  474MOL0     H63985   3.564   1.766   1.773  1.4264 -1.2710 -2.4113
  474MOL0     H63986   3.638   1.734   2.200 -0.0228  0.3164 -0.4623
  474MOL0     H63987   3.187   1.174   1.841  1.3170  3.2313 -0.5007
  474MOL0     H63988   3.046   1.011   1.945  0.4118  1.6910  0.5706
  474MOL0     H63989   2.917   1.104   2.010  0.6879 -1.2667  1.2324
  474MOL0     H63990   2.875   0.990   1.889  0.4438  0.0881  0.5183
  475MOL0     O63991   5.699  11.275   5.828 -0.6823 -0.0538 -0.0071
  475MOL0     C63992   5.621  11.236   5.912  0.2116 -1.0532  0.2743
  475MOL0     O63993   5.652  11.196   6.043  0.5314  0.3038  0.2748
  475MOL0     C63994   5.783  11.198   6.081 -0.7522 -0.3420 -0.3625
  475MOL0     C63995   5.806  11.260   6.207  0.3964  0.3114  0.4301
  475MOL0     C63996   5.936  11.274   6.249  1.1025  0.2963 -0.6611
  475MOL0     C63997   6.041  11.222   6.178  0.6493 -0.0161  1.2530
  475MOL0     O63998   6.162  11.268   6.213 -0.4511  0.2885 -0.0675
  475MOL0     C63999   6.200  11.203   6.340  0.1546 -0.3405  0.7961
  475MOL0     C64000   6.351  11.174   6.316  0.4646  0.4525  0.0711
  475MOL0     C64001   6.431  11.304   6.336 -0.1779 -0.4531  0.1299
  475MOL0     C64002   6.585  11.293   6.305 -0.2369 -0.1417 -0.7360
  475MOL0     C64003   6.633  11.419   6.226  0.4108 -0.3086 -0.4202
  475MOL0     C64004   6.781  11.404   6.201  0.1959  0.2977 -0.2819
  475MOL0     C64005   6.837  11.511   6.101  0.2487 -0.4795 -0.1166
  475MOL0     C64006   6.846  11.643   6.182 -0.1755 -0.5834  0.3288
  475MOL0     N64007   6.884  11.754   6.103  0.0120 -0.9754 -0.5814
  475MOL0     C64008   7.006  11.762   6.041 -0.2314  0.7876 -0.3674
  475MOL0     C64009   6.999  11.874   5.966 -0.0747 -0.1377 -0.6172
  475MOL0     C64010   7.114  11.937   5.884  0.3065  0.1681  0.4973
  475MOL0     C64011   7.129  12.084   5.881 -0.2146 -0.9061  0.0001
  475MOL0     C64012   7.253  12.156   5.840 -0.1908 -0.6029 -0.0037
  475MOL0     C64013   7.325  12.076   5.720 -0.0059 -0.9519 -0.4969
  475MOL0     O64014   7.427  12.164   5.667 -0.0915  0.8695  0.4691
  475MOL0     C64015   7.548  12.195   5.716  0.1272 -0.2482  0.0026
  475MOL0     C64016   7.636  12.269   5.638  0.2985 -0.3664  0.5797
  475MOL0     C64017   7.764  12.303   5.683  0.1705  0.4352 -0.2721
  475MOL0     C64018   7.813  12.264   5.811  0.3147 -0.7429  0.5734
  475MOL0     C64019   7.938  12.315   5.862  0.2417  0.3217 -0.4223
  475MOL0     O64020   7.974  12.271   5.985 -0.3944  0.1204  0.0975
  475MOL0     C64021   8.094  12.300   6.041  0.0327 -0.1386  0.3440
  475MOL0     C64022   8.205  12.343   5.971 -0.3033 -0.2912  0.1562
  475MOL0     C64023   8.316  12.378   6.041 -0.0105 -0.2008 -0.6482
  475MOL0     C64024   8.317  12.369   6.180 -0.2499 -0.0343  0.6099
  475MOL0     O64025   8.426  12.423   6.241 -0.4985  0.1488 -1.0864
  475MOL0     C64026   8.475  12.353   6.359  0.0840  1.0006  0.2507
  475MOL0     C64027   8.508  12.204   6.342 -0.3024  0.1464  0.2202
  475MOL0     C64028   8.572  12.145   6.466 -0.3329 -0.4865  0.2210
  475MOL0     C64029   8.723  12.164   6.464 -0.5031  1.0791  0.2955
  475MOL0     C64030   8.795  12.078   6.571 -0.2052 -0.4225  0.1764
  475MOL0     C64031   8.939  12.125   6.587  0.7311 -0.3075  0.5882
  475MOL0     C64032   9.008  12.034   6.685 -0.0448  0.4692  0.4329
  475MOL0     C64033   9.161  12.054   6.685  0.5513  0.7505  0.3425
  475MOL0    Cl64034   9.249  12.029   6.528 -0.3581 -0.0307 -0.0019
  475MOL0     C64035   8.204  12.334   6.250  0.6445  0.2715 -0.8212
  475MOL0     C64036   8.093  12.285   6.180  0.0347 -0.7943 -0.7493
  475MOL0     O64037   7.995  12.400   5.796 -0.4573  0.1296 -0.5380
  475MOL0     C64038   7.724  12.197   5.892  1.0501 -0.3111 -0.7457
  475MOL0     C64039   7.590  12.164   5.850  0.4854 -0.1181 -0.5608
  475MOL0     N64040   6.871  11.921   5.971  0.0258 -1.0198 -0.3854
  475MOL0     N64041   6.802  11.854   6.057  0.0887  0.3749 -0.1216
  475MOL0     C64042   6.013  11.142   6.059 -0.5001 -0.3914 -0.3168
  475MOL0     C64043   5.891  11.143   6.009  0.6653  0.9148 -0.1161
  475MOL0     C64044   5.483  11.237   5.867  0.3290  0.3134  0.3779
  475MOL0     C64045   5.387  11.290   5.956  0.1040  0.3183 -0.1705
  475MOL0     C64046   5.251  11.278   5.934 -0.5584 -0.2828  0.8960
  475MOL0     C64047   5.206  11.217   5.818 -0.1321  0.0872  0.1336
  475MOL0     O64048   5.073  11.195   5.786  0.0359 -0.8048 -0.3214
  475MOL0     C64049   4.972  11.209   5.895  0.2101 -0.3004  0.1713
  475MOL0     C64050   4.838  11.171   5.826  0.4515 -0.2300  0.3445
  475MOL0     C64051   4.833  11.020   5.793 -0.0398  0.2104  0.7261
  475MOL0     C64052   4.825  10.932   5.918 -0.0556 -0.4431 -0.2317
  475MOL0     C64053   4.843  10.784   5.895  0.6366 -0.2177  0.2639
  475MOL0     C64054   4.844  10.665   5.863  0.1836 -0.5061  0.2823
  475MOL0     C64055   5.301  11.171   5.731  0.1227  0.2049 -0.2567
  475MOL0     C64056   5.440  11.171   5.746  0.0629  0.7268 -0.0498
  475MOL0     C64057   5.538  11.112   5.650 -0.3836  0.0800  0.3332
  475MOL0     H64058   5.721  11.279   6.272 -0.1878 -2.0558  0.4437
  475MOL0     H64059   5.952  11.328   6.341  0.3325 -2.3127  1.1232
  475MOL0     H64060   6.189  11.289   6.407  1.3405  3.7819 -3.7398
  475MOL0     H64061   6.142  11.118   6.378  0.5345 -1.0123 -0.0880
  475MOL0     H64062   6.366  11.136   6.214  2.9756  0.9850  0.1584
  475MOL0     H64063   6.386  11.097   6.386 -1.2565  0.1983  0.6889
  475MOL0     H64064   6.413  11.335   6.439  1.0096  1.6861 -0.2555
  475MOL0     H64065   6.386  11.383   6.276 -2.1174  1.6316  3.9760
  475MOL0     H64066   6.638  11.273   6.399 -1.9470  0.0070  0.2970
  475MOL0     H64067   6.608  11.211   6.236 -1.1343 -1.4847  0.5002
  475MOL0     H64068   6.575  11.422   6.133 -0.6580 -2.1388  0.1360
  475MOL0     H64069   6.617  11.513   6.278  2.0117 -0.5626  0.5781
  475MOL0     H64070   6.832  11.413   6.297  0.9608 -0.1957 -0.6303
  475MOL0     H64071   6.798  11.301   6.168 -0.7611  0.7400 -2.3104
  475MOL0     H64072   6.775  11.515   6.011 -0.1038 -1.1697  0.0848
  475MOL0     H64073   6.939  11.483   6.073  0.3321 -4.9612  3.4470
  475MOL0     H64074   6.745  11.672   6.212  0.2597  1.1244  0.2848
  475MOL0     H64075   6.910  11.634   6.270 -0.8448  0.8275  0.9977
  475MOL0     H64076   7.093  11.698   6.055  0.0922  1.1585 -0.6472
  475MOL0     H64077   7.203  11.884   5.921 -0.7265 -2.1629 -0.1255
  475MOL0     H64078   7.105  11.902   5.780 -1.4529  1.2940  0.2249
  475MOL0     H64079   7.047  12.121   5.819 -1.0503 -3.2230 -0.3658
  475MOL0     H64080   7.099  12.119   5.980 -1.5971 -2.2736  0.1092
  475MOL0     H64081   7.324  12.161   5.923  2.0146  5.9373 -1.7231
  475MOL0     H64082   7.240  12.260   5.811  1.2479 -0.7779 -1.4718
  475MOL0     H64083   7.245  12.054   5.649 -0.3596  1.4324 -0.9215
  475MOL0     H64084   7.361  11.981   5.762  0.2246 -0.5300  0.2616
  475MOL0     H64085   7.626  12.295   5.533 -2.8336  0.1589  0.9102
  475MOL0     H64086   7.828  12.348   5.608  2.5150 -0.4372  1.1016
  475MOL0     H64087   8.214  12.366   5.866  0.7912  0.4178  0.3857
  475MOL0     H64088   8.409  12.413   5.997 -0.0136 -0.1907 -0.6465
  475MOL0     H64089   8.564  12.412   6.379 -0.8800  2.8529 -0.7108
  475MOL0     H64090   8.404  12.355   6.442  1.1587  0.7140  1.1947
  475MOL0     H64091   8.421  12.146   6.307  0.9341 -1.9232  0.3842
  475MOL0     H64092   8.585  12.197   6.264  0.6175  0.0959  1.1141
  475MOL0     H64093   8.537  12.183   6.562 -1.8260  0.1388 -0.5451
  475MOL0     H64094   8.560  12.036   6.469 -0.8278 -0.4195  1.7907
  475MOL0     H64095   8.751  12.269   6.481  3.9915  0.4055 -1.4598
  475MOL0     H64096   8.763  12.143   6.364 -0.0146  1.2130  0.4570
  475MOL0     H64097   8.784  11.975   6.534  0.9518 -0.6568  0.4393
  475MOL0     H64098   8.744  12.081   6.667 -1.2986  0.1981 -0.4037
  475MOL0     H64099   8.983  12.133   6.487 -1.5175  0.7393 -0.4093
  475MOL0     H64100   8.938  12.230   6.619 -1.1808  0.2201 -0.9854
  475MOL0     H64101   9.013  11.929   6.656  1.5572  0.3068  1.1601
  475MOL0     H64102   8.961  12.038   6.783  1.7996  0.3039  1.3746
  475MOL0     H64103   9.181  12.160   6.705  0.7194  0.2528  3.1164
  475MOL0     H64104   9.203  11.987   6.760  0.5554 -0.5573 -0.7908
  475MOL0     H64105   8.204  12.327   6.359 -1.6582  1.8392 -0.6623
  475MOL0     H64106   8.008  12.256   6.241 -0.3924  3.6626  1.0909
  475MOL0     H64107   7.750  12.165   5.993 -1.1314 -2.0714 -0.6459
  475MOL0     H64108   7.537  12.107   5.926 -1.7243  2.7757  0.2305
  475MOL0     H64109   6.081  11.099   5.986 -1.6515 -0.0467 -1.6319
  475MOL0     H64110   5.876  11.118   5.905  1.0856  0.6034 -0.1032
  475MOL0     H64111   5.412  11.346   6.046  0.6646 -3.0486  1.9293
  475MOL0     H64112   5.184  11.323   6.005  1.0729  4.5921 -0.2688
  475MOL0     H64113   4.970  11.313   5.928 -0.8377 -0.1256 -0.3954
  475MOL0     H64114   5.001  11.148   5.981 -1.8630 -2.7293 -0.7110
  475MOL0     H64115   4.831  11.226   5.732 -0.4547  1.4982  1.3705
  475MOL0     H64116   4.756  11.204   5.891 -0.3761 -1.0895 -0.2428
  475MOL0     H64117   4.915  10.990   5.727 -0.3783 -0.5376  0.6329
  475MOL0     H64118   4.744  10.986   5.739  1.4287  0.1794 -1.8412
  475MOL0     H64119   4.909  10.955   5.985 -0.6862 -0.4772  0.5929
  475MOL0     H64120   4.731  10.945   5.972  1.8259  2.7318  2.6552
  475MOL0     H64121   4.833  10.562   5.837 -1.7910 -0.5883  1.3232
  475MOL0     H64122   5.264  11.134   5.636  0.9810 -2.5041  0.3493
  475MOL0     H64123   5.593  11.194   5.604  2.3160 -0.4846  2.3472
  475MOL0     H64124   5.606  11.036   5.690 -1.6765 -2.2313 -1.5380
  475MOL0     H64125   5.482  11.068   5.566  1.1230  1.3874 -1.4482
  476MOL0     O64126   9.177   4.166   7.544 -0.2280  0.1777 -0.2846
  476MOL0     C64127   9.142   4.280   7.580  0.8874 -0.8414  0.5478
  476MOL0     O64128   9.219   4.380   7.641 -0.0007  0.2977  0.4727
  476MOL0     C64129   9.349   4.354   7.668 -0.6576 -0.1533 -1.0619
  476MOL0     C64130   9.395   4.366   7.804  0.1323  0.4682  0.1433
  476MOL0     C64131   9.537   4.343   7.815 -0.5628 -0.9693  0.5041
  476MOL0     C64132   9.623   4.327   7.710 -0.5205 -1.0921  0.1057
  476MOL0     O64133   9.761   4.323   7.740 -0.0232  0.6443 -0.4736
  476MOL0     C64134   9.857   4.326   7.636 -0.8144  0.0209 -0.0125
  476MOL0     C64135  10.003   4.334   7.703  0.0792  0.2907  0.6215
  476MOL0     C64136  10.104   4.343   7.586 -0.4087 -0.5842  0.4868
  476MOL0     C64137  10.243   4.313   7.640 -0.4736  0.0240  1.0415
  476MOL0     C64138  10.350   4.321   7.522  0.2549  0.2678 -0.1177
  476MOL0     C64139  10.492   4.314   7.595 -0.1669 -0.6705  0.5971
  476MOL0     C64140  10.612   4.303   7.508 -0.6060  0.2453  0.5190
  476MOL0     C64141  10.715   4.240   7.600  0.5509 -0.6295  0.4919
  476MOL0     N64142  10.844   4.224   7.533 -0.6795  0.1097  0.2080
  476MOL0     C64143  10.859   4.152   7.413  0.2214 -0.1081  0.0236
  476MOL0     C64144  10.996   4.162   7.387  0.3878 -0.4216  0.4358
  476MOL0     C64145  11.056   4.116   7.253  0.1796  0.4905  0.2675
  476MOL0     C64146  11.080   4.246   7.169  0.6662 -0.4902  0.3240
  476MOL0     C64147  11.131   4.213   7.027  0.6090  0.9267 -0.5314
  476MOL0     C64148  11.289   4.220   7.018 -0.0379  0.0837  0.1323
  476MOL0     O64149  11.355   4.186   6.891  0.5471  0.1677  0.1587
  476MOL0     C64150  11.487   4.223   6.868 -0.4242 -0.9935  0.4822
  476MOL0     C64151  11.538   4.205   6.739  0.1761  0.4687  0.7206
  476MOL0     C64152  11.666   4.252   6.700 -0.0595 -0.7827  0.0779
  476MOL0     C64153  11.742   4.316   6.789 -0.0096 -0.4738 -1.0712
  476MOL0     C64154  11.881   4.360   6.753  0.9589  1.1185 -0.6666
  476MOL0     O64155  11.960   4.402   6.857  0.0428 -0.1825  0.1482
  476MOL0     C64156  12.089   4.444   6.825 -1.4009  0.6556 -0.6083
  476MOL0     C64157  12.197   4.354   6.820 -0.2462  0.2498  0.5533
  476MOL0     C64158  12.309   4.392   6.746 -0.1702  0.5262 -0.9333
  476MOL0     C64159  12.342   4.518   6.708  0.5245 -0.4212 -0.3405
  476MOL0     O64160  12.465   4.538   6.642  0.1663 -0.6208 -0.4730
  476MOL0     C64161  12.524   4.661   6.623  0.5845  0.1176 -0.8255
  476MOL0     C64162  12.563   4.698   6.483 -0.1266  0.3663  0.5490
  476MOL0     C64163  12.709   4.654   6.448  0.7385  0.0757  0.6267
  476MOL0     C64164  12.804   4.770   6.475  0.4943 -0.2498  0.1613
  476MOL0     C64165  12.954   4.723   6.482 -0.7477  0.2484  0.2253
  476MOL0     C64166  13.056   4.835   6.515  0.3329 -0.2769  0.1791
  476MOL0     C64167  13.195   4.775   6.549 -0.3859  0.9933 -0.5203
  476MOL0     C64168  13.254   4.820   6.682  0.0126  0.1422  0.7260
  476MOL0    Cl64169  13.410   4.725   6.698  0.4064  0.3713 -0.2128
  476MOL0     C64170  12.240   4.614   6.744 -0.4331 -0.0947  0.7063
  476MOL0     C64171  12.115   4.580   6.793 -0.4020  0.4936 -0.0593
  476MOL0     O64172  11.898   4.358   6.629 -1.4046 -1.1139  0.3747
  476MOL0     C64173  11.688   4.338   6.919 -0.0338 -0.3859 -0.4349
  476MOL0     C64174  11.566   4.291   6.960 -0.0150 -0.8940  0.3030
  476MOL0     N64175  11.057   4.228   7.492  0.2351  0.0795  1.2693
  476MOL0     N64176  10.973   4.255   7.584 -0.2990 -0.4240  0.0873
  476MOL0     C64177   9.575   4.316   7.584  0.2033  0.2339 -0.1610
  476MOL0     C64178   9.440   4.341   7.560 -0.8875  0.1747 -1.0985
  476MOL0     C64179   9.006   4.319   7.527 -0.5299  0.2292 -0.3740
  476MOL0     C64180   9.002   4.433   7.448  0.2257 -1.1889 -0.3742
  476MOL0     C64181   8.888   4.464   7.375  1.9579  0.3624  0.2890
  476MOL0     C64182   8.773   4.383   7.391  0.0862  0.0559  0.0736
  476MOL0     O64183   8.668   4.451   7.330 -0.1678 -0.3203 -0.4652
  476MOL0     C64184   8.541   4.403   7.345  0.4461 -0.2090 -0.4690
  476MOL0     C64185   8.453   4.512   7.279 -0.6348  0.5271 -0.1821
  476MOL0     C64186   8.307   4.468   7.272 -0.2778  0.7106  0.5587
  476MOL0     C64187   8.228   4.596   7.247 -0.8111  1.0333  0.4135
  476MOL0     C64188   8.095   4.555   7.202  0.2270  0.6643  0.0672
  476MOL0     C64189   7.984   4.519   7.171 -0.1963 -0.4121  0.5573
  476MOL0     C64190   8.773   4.279   7.479  0.0619  0.7852 -0.9168
  476MOL0     C64191   8.887   4.241   7.549 -0.2507 -0.5958  0.6925
  476MOL0     C64192   8.894   4.118   7.637  0.6297  0.6774 -0.0667
  476MOL0     H64193   9.333   4.379   7.892 -1.3650  0.5242 -0.8746
  476MOL0     H64194   9.590   4.333   7.909 -0.5223 -1.9269  0.3910
  476MOL0     H64195   9.838   4.237   7.576 -3.8373  0.9989 -0.6727
  476MOL0     H64196   9.844   4.417   7.577 -0.5997  1.3698  1.9237
  476MOL0     H64197  10.030   4.243   7.758  0.9038  0.7316  0.9550
  476MOL0     H64198  10.026   4.425   7.759  1.6246 -1.7459  3.6006
  476MOL0     H64199  10.105   4.442   7.540 -0.5389 -1.4397 -1.4583
  476MOL0     H64200  10.075   4.276   7.505  2.0611  0.6199 -1.5335
  476MOL0     H64201  10.261   4.391   7.714 -2.4049  1.7036 -0.1393
  476MOL0     H64202  10.247   4.217   7.691 -0.6032 -1.8907 -2.2576
  476MOL0     H64203  10.334   4.249   7.441  0.6712  0.2976 -0.2258
  476MOL0     H64204  10.349   4.423   7.482  1.8987  2.8414  5.4677
  476MOL0     H64205  10.492   4.400   7.662 -1.7737  0.0497 -0.2654
  476MOL0     H64206  10.473   4.218   7.644 -2.2185 -1.1406 -0.9787
  476MOL0     H64207  10.642   4.399   7.466  0.6641  0.4307  1.7870
  476MOL0     H64208  10.587   4.242   7.421  1.4779 -0.3674  0.2953
  476MOL0     H64209  10.738   4.310   7.681  0.5289  1.4485 -1.2100
  476MOL0     H64210  10.677   4.143   7.633  2.6712 -0.8612  2.5377
  476MOL0     H64211  10.777   4.111   7.355  0.0401 -0.8943  0.8138
  476MOL0     H64212  11.152   4.074   7.282 -0.8076 -0.8723  1.7048
  476MOL0     H64213  10.991   4.048   7.197  2.4457  0.2651 -2.3274
  476MOL0     H64214  10.981   4.293   7.164 -0.6350 -2.6317  3.1191
  476MOL0     H64215  11.148   4.317   7.217 -0.9448  1.6347 -0.3866
  476MOL0     H64216  11.090   4.289   6.960  2.6598  1.8996 -0.7525
  476MOL0     H64217  11.107   4.112   6.993 -0.4586  1.1258 -0.4269
  476MOL0     H64218  11.321   4.145   7.091 -1.8515 -0.8469  0.0466
  476MOL0     H64219  11.318   4.317   7.059 -3.3564  0.1843  2.6413
  476MOL0     H64220  11.477   4.151   6.668  0.3976 -2.6363  2.6908
  476MOL0     H64221  11.710   4.235   6.602  1.4569  0.2663  0.5346
  476MOL0     H64222  12.174   4.249   6.827  1.2995 -0.1520 -0.0015
  476MOL0     H64223  12.377   4.310   6.726 -0.4198  0.1662 -0.3284
  476MOL0     H64224  12.451   4.732   6.660 -0.4601  1.1974 -4.5489
  476MOL0     H64225  12.620   4.665   6.676  1.1463 -0.5747 -1.7595
  476MOL0     H64226  12.486   4.654   6.419 -0.4520 -0.6742  1.6168
  476MOL0     H64227  12.561   4.806   6.467 -1.1142  0.3762  0.6261
  476MOL0     H64228  12.741   4.578   6.520  1.5627  1.0223  1.2987
  476MOL0     H64229  12.712   4.627   6.343 -3.8349  0.6139  0.1230
  476MOL0     H64230  12.786   4.821   6.569  2.9651 -0.0929  0.5962
  476MOL0     H64231  12.783   4.842   6.395 -1.1365 -0.6178  0.2102
  476MOL0     H64232  12.983   4.668   6.392  1.4327  2.6892 -0.7072
  476MOL0     H64233  12.956   4.642   6.556 -4.3737  0.0001  0.2272
  476MOL0     H64234  13.060   4.900   6.427  3.1458  0.5916  0.8370
  476MOL0     H64235  13.033   4.898   6.601 -0.3251 -2.5283  1.7394
  476MOL0     H64236  13.257   4.804   6.464  0.3286 -1.0887 -0.7622
  476MOL0     H64237  13.188   4.667   6.566 -0.3726  1.4193  2.8032
  476MOL0     H64238  13.267   4.928   6.668 -1.3636  0.5165  2.0333
  476MOL0     H64239  13.192   4.801   6.770 -1.6417 -0.8778 -0.5896
  476MOL0     H64240  12.263   4.717   6.722 -0.2749 -0.1459  0.6283
  476MOL0     H64241  12.038   4.655   6.795 -2.6809 -1.7245  0.6111
  476MOL0     H64242  11.754   4.378   6.995 -0.0679 -3.4888  1.4151
  476MOL0     H64243  11.529   4.320   7.058  0.8184  0.3225  0.2830
  476MOL0     H64244   9.636   4.309   7.494 -1.0779  1.9204 -1.2163
  476MOL0     H64245   9.403   4.343   7.458  1.2764 -1.0400 -1.9850
  476MOL0     H64246   9.094   4.487   7.428 -0.9651  2.5706  2.9142
  476MOL0     H64247   8.897   4.546   7.305 -0.6835  0.6139  0.1211
  476MOL0     H64248   8.502   4.389   7.447 -1.5428  3.5828 -0.5248
  476MOL0     H64249   8.534   4.308   7.293 -1.6875 -0.7943  0.7265
  476MOL0     H64250   8.484   4.526   7.175  0.7762 -1.5425 -0.0956
  476MOL0     H64251   8.466   4.605   7.334 -0.5901  0.8683 -0.7597
  476MOL0     H64252   8.269   4.426   7.366 -2.3113 -1.1771 -1.0220
  476MOL0     H64253   8.288   4.391   7.197 -2.5507  0.2498  1.5137
  476MOL0     H64254   8.225   4.655   7.339  0.0155  0.8593  0.5627
  476MOL0     H64255   8.276   4.649   7.164 -0.6860 -1.5549 -1.2807
  476MOL0     H64256   7.887   4.491   7.133 -0.1893  1.3545 -0.8714
  476MOL0     H64257   8.674   4.245   7.507 -0.2796  2.8362  0.6683
  476MOL0     H64258   8.920   4.036   7.570 -0.7718  0.3615 -0.2584
  476MOL0     H64259   8.962   4.117   7.723  0.5462 -0.7205  0.0059
  476MOL0     H64260   8.790   4.092   7.662 -0.2739  1.2046 -2.8506
  477MOL0     O64261   0.157   9.323   8.207 -0.2295  0.6157  0.0173
  477MOL0     C64262   0.182   9.220   8.271 -0.1074  0.2758 -0.7299
  477MOL0     O64263   0.305   9.178   8.305 -0.1341 -0.5982  0.7161
  477MOL0     C64264   0.409   9.235   8.237 -0.0342  0.3786 -0.0088
  477MOL0     C64265   0.490   9.330   8.297  0.4541  0.7109 -0.4177
  477MOL0     C64266   0.610   9.372   8.236  0.7364 -0.0647  0.5341
  477MOL0     C64267   0.643   9.328   8.103 -0.0074 -0.2984  0.0109
  477MOL0     O64268   0.765   9.343   8.043 -0.7422 -0.4629 -0.0726
  477MOL0     C64269   0.837   9.466   8.053  0.8910  0.2033 -1.1072
  477MOL0     C64270   0.965   9.440   8.138  0.2848 -0.3397  1.1507
  477MOL0     C64271   1.082   9.376   8.067 -1.1513 -0.5396 -0.7059
  477MOL0     C64272   1.227   9.388   8.139  0.4395  0.5183  0.2017
  477MOL0     C64273   1.333   9.342   8.045 -0.4379 -0.6857  0.0124
  477MOL0     C64274   1.474   9.380   8.107 -0.4846  0.3248  0.4852
  477MOL0     C64275   1.578   9.347   8.009  0.7613  0.1019 -0.5782
  477MOL0     C64276   1.713   9.338   8.073 -0.6001 -0.1259  0.7508
  477MOL0     N64277   1.822   9.309   7.975 -0.4496 -0.5732  0.1982
  477MOL0     C64278   1.906   9.197   7.976 -0.1085 -0.1150 -0.4411
  477MOL0     C64279   1.989   9.218   7.870 -0.3787 -0.2388 -0.7196
  477MOL0     C64280   2.106   9.136   7.829 -0.6739  0.2236  0.3191
  477MOL0     C64281   2.225   9.120   7.931  0.9545  0.5073 -0.5467
  477MOL0     C64282   2.287   9.253   7.985 -0.5793  0.4040  0.1200
  477MOL0     C64283   2.323   9.345   7.872 -0.6871  0.1064 -0.1712
  477MOL0     O64284   2.376   9.466   7.924  0.4865  0.5702  0.7017
  477MOL0     C64285   2.515   9.480   7.946 -0.4267  0.0827 -0.0501
  477MOL0     C64286   2.569   9.605   7.983  0.2288 -0.1690 -0.1185
  477MOL0     C64287   2.703   9.626   7.999 -0.3391  0.2663  0.0813
  477MOL0     C64288   2.788   9.520   7.986  0.5744 -0.4322  0.0605
  477MOL0     C64289   2.938   9.537   7.985 -0.1898  0.2573  0.6926
  477MOL0     O64290   3.008   9.456   7.903 -0.6214  0.6150 -0.7142
  477MOL0     C64291   3.144   9.455   7.894  0.1587 -1.0793  0.4158
  477MOL0     C64292   3.232   9.485   8.005 -0.4906 -0.2687  0.0810
  477MOL0     C64293   3.367   9.473   7.986  0.2254 -0.5927  0.5163
  477MOL0     C64294   3.440   9.441   7.863 -0.0406 -0.0212  0.6963
  477MOL0     O64295   3.576   9.429   7.856  0.7092  0.3672 -0.5198
  477MOL0     C64296   3.618   9.298   7.801 -0.6542 -0.4340  0.9683
  477MOL0     C64297   3.761   9.258   7.841  0.0544  0.5425 -0.3889
  477MOL0     C64298   3.843   9.390   7.804  0.2853  0.4959 -0.7380
  477MOL0     C64299   3.995   9.346   7.801  0.0549 -0.4428 -0.9635
  477MOL0     C64300   4.087   9.469   7.799  0.5781  0.5359  0.3252
  477MOL0     C64301   4.231   9.441   7.768  0.5493  0.6263  0.5871
  477MOL0     C64302   4.292   9.348   7.876 -0.3093 -0.3746  1.0593
  477MOL0     C64303   4.438   9.316   7.856 -0.0984 -0.0563 -0.6888
  477MOL0    Cl64304   4.563   9.418   7.939 -0.2386  0.0260 -0.0898
  477MOL0     C64305   3.355   9.427   7.750 -0.1326  0.4486  0.1793
  477MOL0     C64306   3.209   9.434   7.764  0.0288 -0.7330 -0.9676
  477MOL0     O64307   2.983   9.634   8.044  0.5255 -0.2307  0.0306
  477MOL0     C64308   2.746   9.397   7.949 -0.0720 -0.4130  0.0366
  477MOL0     C64309   2.612   9.371   7.940  0.9107 -0.1431 -0.6034
  477MOL0     N64310   1.962   9.337   7.807 -0.0733 -0.0119  0.3924
  477MOL0     N64311   1.861   9.390   7.869  0.1060 -0.0379 -0.3761
  477MOL0     C64312   0.542   9.252   8.033 -0.2654 -0.5373  0.6963
  477MOL0     C64313   0.433   9.202   8.101  0.1185 -0.2988 -0.1055
  477MOL0     C64314   0.065   9.163   8.351  0.0156 -0.0617 -0.1939
  477MOL0     C64315  -0.040   9.244   8.385 -0.2050 -0.0120  0.2244
  477MOL0     C64316  -0.159   9.202   8.444 -0.2379  1.2092 -0.8529
  477MOL0     C64317  -0.164   9.075   8.493  0.5269  0.3814 -0.3719
  477MOL0     O64318  -0.272   9.022   8.561 -0.5485 -0.0611 -0.1194
  477MOL0     C64319  -0.385   8.971   8.496 -0.7608  0.4669  0.0197
  477MOL0     C64320  -0.486   9.074   8.442 -0.1722 -0.6593  0.2930
  477MOL0     C64321  -0.445   9.152   8.311 -0.3495 -0.2039 -0.0131
  477MOL0     C64322  -0.415   9.049   8.204 -0.2646 -0.1066  0.0928
  477MOL0     C64323  -0.381   9.118   8.079  0.0271  1.1033 -0.5325
  477MOL0     C64324  -0.367   9.185   7.981  0.7671  0.1298 -0.2107
  477MOL0     C64325  -0.060   8.989   8.460  0.8396 -0.1287 -0.0642
  477MOL0     C64326   0.053   9.030   8.393  0.0133  0.2640 -1.3280
  477MOL0     C64327   0.156   8.927   8.344 -0.1244 -0.2705  0.0640
  477MOL0     H64328   0.475   9.365   8.399 -1.2466  0.1516 -0.4300
  477MOL0     H64329   0.672   9.443   8.290 -0.7031  1.3560  0.3570
  477MOL0     H64330   0.857   9.512   7.956  2.1282 -0.6628 -1.2766
  477MOL0     H64331   0.782   9.540   8.113  2.3654 -0.4693  1.2007
  477MOL0     H64332   0.946   9.383   8.230  2.8893  0.3402  2.1966
  477MOL0     H64333   1.004   9.535   8.178  2.6428 -0.8870  0.2930
  477MOL0     H64334   1.093   9.424   7.970  2.4303  1.2750  0.4340
  477MOL0     H64335   1.066   9.269   8.051  1.4222 -1.4047  1.6161
  477MOL0     H64336   1.249   9.488   8.176  4.1110 -0.1815  0.2926
  477MOL0     H64337   1.216   9.316   8.221 -1.2795 -1.1770 -1.4121
  477MOL0     H64338   1.336   9.235   8.022  1.5404 -0.3042 -1.7501
  477MOL0     H64339   1.321   9.396   7.951 -3.3384 -3.1760 -1.2010
  477MOL0     H64340   1.496   9.485   8.127  0.4318  1.0988 -3.6201
  477MOL0     H64341   1.488   9.327   8.201 -1.2783 -1.8905 -0.5612
  477MOL0     H64342   1.584   9.431   7.939 -2.0005  1.5131  0.7328
  477MOL0     H64343   1.570   9.249   7.961  1.7871 -1.3085  1.9493
  477MOL0     H64344   1.737   9.432   8.123 -1.2695  0.7666 -0.5629
  477MOL0     H64345   1.715   9.276   8.164  2.0972  0.8971  1.4720
  477MOL0     H64346   1.913   9.124   8.056  2.3780  4.0438  3.6371
  477MOL0     H64347   2.076   9.032   7.813  0.9945  0.0453 -2.1908
  477MOL0     H64348   2.150   9.170   7.735  1.9208  0.4244  1.5170
  477MOL0     H64349   2.189   9.068   8.021 -1.8605  1.6154 -0.9155
  477MOL0     H64350   2.299   9.052   7.888  0.9367  0.8441 -1.1209
  477MOL0     H64351   2.375   9.238   8.048  0.1084 -1.7332 -1.2315
  477MOL0     H64352   2.208   9.279   8.055 -0.5859  1.4985 -0.2625
  477MOL0     H64353   2.232   9.378   7.820 -0.1349 -0.6541 -1.6753
  477MOL0     H64354   2.396   9.305   7.802  0.4580  1.5978  0.1295
  477MOL0     H64355   2.494   9.683   7.991 -0.8128 -1.2022  0.3421
  477MOL0     H64356   2.747   9.724   8.009  1.6792 -0.4916 -0.8025
  477MOL0     H64357   3.203   9.511   8.106  1.8693 -2.0163  1.3067
  477MOL0     H64358   3.429   9.493   8.073 -0.2839 -1.0033  0.9795
  477MOL0     H64359   3.546   9.218   7.821 -1.0952 -0.1612  0.5065
  477MOL0     H64360   3.616   9.307   7.692 -2.8655  0.3912  1.0247
  477MOL0     H64361   3.771   9.230   7.946  1.4838  0.1291 -0.6180
  477MOL0     H64362   3.800   9.174   7.783 -0.3132 -0.7193  1.1152
  477MOL0     H64363   3.800   9.419   7.708  0.7088  1.0281 -0.7689
  477MOL0     H64364   3.830   9.474   7.873  0.3235 -0.6859  0.7839
  477MOL0     H64365   4.018   9.277   7.719  0.5357  1.1441 -2.2022
  477MOL0     H64366   4.024   9.285   7.888  3.0558 -1.1255 -2.3084
  477MOL0     H64367   4.079   9.523   7.893 -1.8964 -0.7205  0.9348
  477MOL0     H64368   4.047   9.545   7.731 -0.0391  0.2361  0.3464
  477MOL0     H64369   4.232   9.390   7.671  2.1543 -3.6992  2.6332
  477MOL0     H64370   4.280   9.539   7.762  0.2908  0.8137  1.4497
  477MOL0     H64371   4.241   9.252   7.863  2.6876 -1.8779 -0.8447
  477MOL0     H64372   4.273   9.386   7.977  0.6865 -0.3449  1.2456
  477MOL0     H64373   4.454   9.221   7.907  0.0849  1.0086  1.3423
  477MOL0     H64374   4.472   9.294   7.755  1.2646 -1.7065  0.0880
  477MOL0     H64375   3.399   9.405   7.653 -0.8447  2.2210 -0.5767
  477MOL0     H64376   3.139   9.419   7.682 -1.5117  0.0728  0.1563
  477MOL0     H64377   2.820   9.321   7.927  1.7768  1.7360 -1.7572
  477MOL0     H64378   2.573   9.275   7.910  0.4020  0.0255 -0.5101
  477MOL0     H64379   0.568   9.235   7.929  1.1346 -0.3678  1.0078
  477MOL0     H64380   0.360   9.141   8.049 -1.7455  0.0653  1.9434
  477MOL0     H64381  -0.050   9.349   8.361  2.2048  0.1902 -0.1820
  477MOL0     H64382  -0.238   9.271   8.471  0.5324  2.2239 -1.1545
  477MOL0     H64383  -0.431   8.916   8.579  1.8279 -1.3115  0.3904
  477MOL0     H64384  -0.358   8.899   8.418 -0.1560  0.8142 -0.1020
  477MOL0     H64385  -0.528   9.125   8.529 -1.8539 -1.7598  0.1764
  477MOL0     H64386  -0.570   9.007   8.422 -1.5556  0.8220  0.9354
  477MOL0     H64387  -0.366   9.227   8.307  1.0607 -1.6706 -2.1067
  477MOL0     H64388  -0.528   9.219   8.286  0.8090  1.5134  0.5769
  477MOL0     H64389  -0.322   8.994   8.220  1.3769  1.7498 -2.4269
  477MOL0     H64390  -0.501   8.981   8.192 -0.6682  0.4252 -0.0937
  477MOL0     H64391  -0.356   9.247   7.894  2.6917  0.4025  0.1759
  477MOL0     H64392  -0.068   8.882   8.479 -0.1236  0.0340  0.5374
  477MOL0     H64393   0.258   8.948   8.376 -0.8396  1.7968  1.0959
  477MOL0     H64394   0.127   8.824   8.370 -3.3783  1.0519  2.2420
  477MOL0     H64395   0.158   8.937   8.235  1.4613 -0.7932  0.0087
  478MOL0     O64396   1.361   9.005   4.082 -0.3001  0.1080  0.1909
  478MOL0     C64397   1.278   9.029   4.174  0.3420  0.2424 -0.5309
  478MOL0     O64398   1.268   8.965   4.290  0.2251  0.0648 -0.7952
  478MOL0     C64399   1.356   8.856   4.298  0.3898  0.9935  0.3516
  478MOL0     C64400   1.306   8.736   4.230 -0.1004 -1.0237  0.5585
  478MOL0     C64401   1.388   8.625   4.235  0.6675 -0.2767 -0.1275
  478MOL0     C64402   1.513   8.618   4.295  0.3084 -0.7825  0.3187
  478MOL0     O64403   1.593   8.507   4.288  0.0248 -0.3266 -0.5102
  478MOL0     C64404   1.548   8.380   4.240 -0.4447  0.4862  0.1440
  478MOL0     C64405   1.668   8.286   4.223  0.0529  0.5195  0.4320
  478MOL0     C64406   1.721   8.242   4.356  0.2749  0.2330  0.7442
  478MOL0     C64407   1.807   8.109   4.338  1.0052 -1.0420  1.3678
  478MOL0     C64408   1.868   8.071   4.469  0.1192  0.6086 -0.6948
  478MOL0     C64409   1.947   7.936   4.474  0.3108  0.6770  0.7493
  478MOL0     C64410   2.021   7.934   4.607 -1.0853 -0.4038  0.8758
  478MOL0     C64411   2.052   7.798   4.658 -0.2876  0.1164  0.0966
  478MOL0     N64412   2.140   7.734   4.561 -0.1536 -0.5073 -0.4370
  478MOL0     C64413   2.102   7.623   4.491 -0.7157  0.6014  0.3564
  478MOL0     C64414   2.221   7.589   4.429 -0.1794  0.5241 -0.5876
  478MOL0     C64415   2.248   7.464   4.360  0.1594  0.1885 -0.7836
  478MOL0     C64416   2.363   7.379   4.422  0.1473  0.0061  0.3552
  478MOL0     C64417   2.499   7.445   4.408 -0.4845  0.2069 -0.1503
  478MOL0     C64418   2.614   7.335   4.403 -0.5726  0.0066  0.7345
  478MOL0     O64419   2.747   7.383   4.395  0.1329 -0.9425  0.6090
  478MOL0     C64420   2.839   7.283   4.411  0.6146  0.7754  0.0138
  478MOL0     C64421   2.813   7.142   4.374 -0.3397 -0.7495 -0.3675
  478MOL0     C64422   2.917   7.047   4.396 -0.3255 -0.2771 -0.7579
  478MOL0     C64423   3.049   7.083   4.430 -0.4231  0.3067  0.1453
  478MOL0     C64424   3.157   6.983   4.445  0.5442 -0.1169 -1.3783
  478MOL0     O64425   3.292   7.031   4.444 -0.1329 -0.0394 -0.5150
  478MOL0     C64426   3.389   6.935   4.430 -0.4701 -0.1757 -0.1378
  478MOL0     C64427   3.501   6.950   4.512 -0.2193  0.5699  0.0731
  478MOL0     C64428   3.608   6.859   4.489  0.8143 -0.2179 -0.4153
  478MOL0     C64429   3.599   6.747   4.401 -0.2205  0.6073  0.1026
  478MOL0     O64430   3.704   6.656   4.407  0.4458 -0.2929 -0.3058
  478MOL0     C64431   3.669   6.514   4.383  0.6640 -0.8377 -0.3497
  478MOL0     C64432   3.781   6.423   4.434  0.4001 -0.9780 -0.3991
  478MOL0     C64433   3.907   6.453   4.361  0.5191 -0.2223  0.4249
  478MOL0     C64434   4.000   6.342   4.400 -0.2418  0.5206 -0.2959
  478MOL0     C64435   4.138   6.358   4.332 -0.5545  0.7621 -0.3580
  478MOL0     C64436   4.239   6.264   4.382 -0.9315  0.5030 -0.2455
  478MOL0     C64437   4.378   6.299   4.317  0.0956 -0.8351 -0.0820
  478MOL0     C64438   4.488   6.209   4.382  0.3304 -0.1939  0.5760
  478MOL0    Cl64439   4.642   6.254   4.317 -0.1554  0.1069  0.2024
  478MOL0     C64440   3.490   6.737   4.322  0.1050  0.7282  0.2542
  478MOL0     C64441   3.386   6.830   4.336 -0.5934  0.1753  0.5212
  478MOL0     O64442   3.126   6.865   4.464  0.6837  0.4261 -0.6644
  478MOL0     C64443   3.073   7.219   4.460  0.4368 -0.0920  0.1098
  478MOL0     C64444   2.970   7.316   4.457 -0.0635 -0.7888  0.6411
  478MOL0     N64445   2.324   7.675   4.453  0.5894  0.0975  0.1134
  478MOL0     N64446   2.267   7.765   4.538  0.3656 -0.5689 -0.2644
  478MOL0     C64447   1.556   8.729   4.358  0.5509 -1.6027  0.2850
  478MOL0     C64448   1.481   8.852   4.366 -0.6459  0.1906 -0.7684
  478MOL0     C64449   1.182   9.143   4.143 -0.3832 -1.1848 -0.3198
  478MOL0     C64450   1.232   9.251   4.062 -0.3474  0.1886 -0.2216
  478MOL0     C64451   1.159   9.363   4.048 -0.1183 -0.5198  0.0589
  478MOL0     C64452   1.032   9.363   4.105  0.5370 -0.7010  1.0234
  478MOL0     O64453   0.969   9.486   4.094  0.4628  0.1658 -0.8439
  478MOL0     C64454   0.830   9.504   4.123 -0.2656  0.1180 -0.4987
  478MOL0     C64455   0.784   9.642   4.102 -0.3072  0.2873 -0.2665
  478MOL0     C64456   0.855   9.727   4.219 -0.6828  0.0263  0.3902
  478MOL0     C64457   0.855   9.887   4.197 -0.6053  1.4495 -0.1936
  478MOL0     C64458   0.931   9.919   4.081 -0.1929 -0.1516  0.2824
  478MOL0     C64459   1.012   9.962   3.997  0.2073  0.3623  0.0797
  478MOL0     C64460   0.970   9.253   4.168 -0.1295  1.1257  0.6493
  478MOL0     C64461   1.047   9.138   4.179 -0.3068  0.1440  0.8381
  478MOL0     C64462   0.986   9.014   4.248  0.4257 -0.2025 -0.0620
  478MOL0     H64463   1.208   8.726   4.184  0.1745 -0.7870 -0.0912
  478MOL0     H64464   1.358   8.537   4.179  0.5180 -1.0572  1.1380
  478MOL0     H64465   1.475   8.341   4.311  1.6373  1.5066  2.9984
  478MOL0     H64466   1.505   8.406   4.143 -0.2063  0.4275  0.0217
  478MOL0     H64467   1.747   8.332   4.163 -1.2208  1.0438 -0.9170
  478MOL0     H64468   1.643   8.192   4.173  4.4436  0.5828 -2.4711
  478MOL0     H64469   1.642   8.216   4.428 -1.1984 -0.2194 -0.9510
  478MOL0     H64470   1.782   8.326   4.388 -0.0122  0.5431  0.4819
  478MOL0     H64471   1.751   8.025   4.295 -0.3304 -0.3583  1.7302
  478MOL0     H64472   1.876   8.132   4.256 -1.2067  2.2830  0.2138
  478MOL0     H64473   1.934   8.148   4.510  0.8512 -0.3877  0.0556
  478MOL0     H64474   1.793   8.061   4.547  0.1457  2.8892 -0.3208
  478MOL0     H64475   1.872   7.856   4.471 -0.5278  1.3982 -2.9468
  478MOL0     H64476   2.015   7.930   4.389 -0.4850 -2.2234  0.1984
  478MOL0     H64477   1.971   7.991   4.686  2.5986  2.2779  1.5255
  478MOL0     H64478   2.114   7.990   4.595 -1.4742  0.4176  1.5956
  478MOL0     H64479   2.099   7.811   4.756 -0.9185  2.5297  0.1389
  478MOL0     H64480   1.969   7.727   4.667  1.1336 -1.9904 -2.0106
  478MOL0     H64481   1.998   7.594   4.479 -1.5652  2.5997  2.2998
  478MOL0     H64482   2.148   7.421   4.367 -0.4037  1.4099 -1.1448
  478MOL0     H64483   2.277   7.491   4.258  0.9723 -0.2551 -0.6772
  478MOL0     H64484   2.340   7.369   4.529 -0.8364  0.2050  0.1777
  478MOL0     H64485   2.348   7.281   4.377 -0.3114 -0.0329  0.5813
  478MOL0     H64486   2.513   7.507   4.498 -1.5414  2.8689 -1.7056
  478MOL0     H64487   2.515   7.506   4.319  0.1584  0.8944  0.4162
  478MOL0     H64488   2.599   7.280   4.310  0.9241 -0.2253  0.6046
  478MOL0     H64489   2.601   7.266   4.487 -0.2585 -1.4087 -0.3383
  478MOL0     H64490   2.716   7.111   4.338 -0.7346  2.1327 -2.1060
  478MOL0     H64491   2.890   6.943   4.382  1.1943 -1.3749  3.1934
  478MOL0     H64492   3.511   7.032   4.581  1.7758  0.9137 -0.5509
  478MOL0     H64493   3.694   6.861   4.554 -0.4993 -1.7012  1.5072
  478MOL0     H64494   3.574   6.484   4.429 -0.0920 -0.8487 -1.8710
  478MOL0     H64495   3.666   6.509   4.274 -2.5999  0.1159 -0.4217
  478MOL0     H64496   3.786   6.435   4.542 -2.0317 -0.4402 -0.2841
  478MOL0     H64497   3.738   6.322   4.423 -0.0348 -0.8481  0.0715
  478MOL0     H64498   3.901   6.467   4.252 -2.6226 -0.5768  0.4515
  478MOL0     H64499   3.948   6.545   4.404  0.8311 -0.3722  0.4493
  478MOL0     H64500   3.955   6.244   4.378  1.8621 -1.2568  2.5915
  478MOL0     H64501   4.022   6.341   4.507 -0.2198 -4.0123 -0.1268
  478MOL0     H64502   4.173   6.462   4.334  0.3287  0.4850 -0.7726
  478MOL0     H64503   4.122   6.315   4.233  1.1793 -1.3751  0.2156
  478MOL0     H64504   4.257   6.281   4.488  0.8144 -0.3796 -0.3505
  478MOL0     H64505   4.206   6.163   4.356 -0.4802 -0.5688  2.9542
  478MOL0     H64506   4.393   6.407   4.323  0.9184 -0.8821 -0.9148
  478MOL0     H64507   4.364   6.280   4.210 -1.7870 -0.1577  0.0113
  478MOL0     H64508   4.502   6.216   4.490 -0.2109 -0.9665  0.6984
  478MOL0     H64509   4.469   6.104   4.362 -3.7129  0.6991 -1.3549
  478MOL0     H64510   3.471   6.653   4.256 -0.6561  1.3396 -0.3355
  478MOL0     H64511   3.291   6.816   4.285  0.2091 -2.8397 -0.2941
  478MOL0     H64512   3.172   7.255   4.487 -0.2349  1.2108  0.8730
  478MOL0     H64513   3.005   7.414   4.486 -0.8793 -1.3869  4.2656
  478MOL0     H64514   1.647   8.731   4.418  0.0717 -0.2683  0.9999
  478MOL0     H64515   1.518   8.940   4.418 -0.3481 -1.3871  1.8781
  478MOL0     H64516   1.333   9.261   4.024 -0.8868 -0.2939 -1.8409
  478MOL0     H64517   1.207   9.455   4.017  1.8787 -0.7717  2.0664
  478MOL0     H64518   0.811   9.493   4.230  0.4989  0.7604 -0.2900
  478MOL0     H64519   0.783   9.425   4.064 -1.9176  1.6380 -1.2831
  478MOL0     H64520   0.676   9.644   4.114 -0.0971  0.2992  1.8757
  478MOL0     H64521   0.816   9.666   4.000  1.6979 -2.8234 -0.5081
  478MOL0     H64522   0.960   9.698   4.229 -0.3156  0.3667 -1.8816
  478MOL0     H64523   0.813   9.716   4.319  0.4659 -0.3733  0.8414
  478MOL0     H64524   0.754   9.927   4.191 -1.5964 -1.1633 -3.9596
  478MOL0     H64525   0.902   9.927   4.288 -2.3695  0.0559  1.4157
  478MOL0     H64526   1.093  10.003   3.940  1.9458 -0.2256  2.0022
  478MOL0     H64527   0.866   9.248   4.197 -0.5349 -3.2815 -0.8259
  478MOL0     H64528   1.020   9.005   4.352  2.5383  0.8820 -0.6003
  478MOL0     H64529   0.879   9.034   4.252  0.9216  2.8804  0.2370
  478MOL0     H64530   1.004   8.920   4.195  0.6831 -0.0182 -0.3065
  479MOL0     O64531  10.679   6.265   0.975  0.1040  0.6165 -0.1345
  479MOL0     C64532  10.706   6.242   0.856 -0.7021  0.3863 -0.1667
  479MOL0     O64533  10.819   6.284   0.786 -0.6169  0.2591  0.3959
  479MOL0     C64534  10.926   6.324   0.861  0.3203  0.2960  0.4373
  479MOL0     C64535  10.963   6.457   0.858 -0.2936 -0.9493 -0.5235
  479MOL0     C64536  11.068   6.497   0.947 -0.2526 -0.2356 -0.5027
  479MOL0     C64537  11.143   6.409   1.031  0.3256  0.2261 -0.7058
  479MOL0     O64538  11.238   6.465   1.115 -0.1544 -0.1204  0.1215
  479MOL0     C64539  11.256   6.415   1.247  0.2556  1.2251 -0.6021
  479MOL0     C64540  11.382   6.334   1.266  0.7726 -0.7184  0.6388
  479MOL0     C64541  11.502   6.430   1.273 -1.0745  0.0851  0.4709
  479MOL0     C64542  11.488   6.529   1.390  0.0570  0.4366 -0.2232
  479MOL0     C64543  11.630   6.567   1.431 -0.4802  0.2626  0.6385
  479MOL0     C64544  11.705   6.657   1.324  0.1562  0.2264 -0.3658
  479MOL0     C64545  11.839   6.704   1.378  0.6286 -0.5982  0.0501
  479MOL0     C64546  11.837   6.828   1.463  0.1581 -0.6290  0.3854
  479MOL0     N64547  11.979   6.866   1.487  0.1401 -0.2795  0.6069
  479MOL0     C64548  12.022   6.986   1.530 -0.4952  0.5638 -0.7233
  479MOL0     C64549  12.155   6.992   1.512  0.3848  0.2245  0.4110
  479MOL0     C64550  12.238   7.110   1.548 -0.8926  0.6015  0.2942
  479MOL0     C64551  12.388   7.084   1.563  0.0074  0.2896  0.5199
  479MOL0     C64552  12.460   7.216   1.556 -0.3116 -0.4526 -0.6008
  479MOL0     C64553  12.566   7.231   1.670  0.2618  0.6268 -1.4570
  479MOL0     O64554  12.640   7.353   1.653  0.6726 -0.8056 -0.2271
  479MOL0     C64555  12.758   7.381   1.728  0.5401  0.1013 -0.0169
  479MOL0     C64556  12.818   7.294   1.822  0.4139 -0.5233 -0.0589
  479MOL0     C64557  12.943   7.325   1.881 -1.0076 -1.2838  0.5322
  479MOL0     C64558  12.997   7.449   1.855 -1.1829  0.5436  0.2204
  479MOL0     C64559  13.122   7.492   1.926  0.4243  0.1464  0.6508
  479MOL0     O64560  13.204   7.390   1.955  0.1226 -1.5196 -0.1819
  479MOL0     C64561  13.320   7.414   2.022 -0.4439  0.9912  0.8402
  479MOL0     C64562  13.395   7.298   2.015 -0.4516  0.0949 -0.8964
  479MOL0     C64563  13.520   7.287   2.085  0.1983 -0.2654 -0.7343
  479MOL0     C64564  13.567   7.401   2.153 -0.2458 -0.8425 -0.1780
  479MOL0     O64565  13.688   7.401   2.228 -0.5858 -0.3570 -0.3582
  479MOL0     C64566  13.800   7.415   2.144 -0.4842  0.7716  0.0742
  479MOL0     C64567  13.934   7.390   2.202  0.3686  0.1882 -0.0630
  479MOL0     C64568  14.051   7.435   2.118 -0.8673  0.2162 -0.4973
  479MOL0     C64569  14.190   7.419   2.180 -0.5131  0.9565  0.3676
  479MOL0     C64570  14.295   7.427   2.074 -0.6328 -0.3313  0.4922
  479MOL0     C64571  14.432   7.428   2.135 -0.6916  0.1702  0.3057
  479MOL0     C64572  14.561   7.407   2.052  0.2776 -0.0721  0.0948
  479MOL0     C64573  14.680   7.428   2.147  0.4433 -0.1485  0.1514
  479MOL0    Cl64574  14.712   7.290   2.260  0.2918  0.0175  0.5736
  479MOL0     C64575  13.490   7.521   2.153 -0.1830 -0.2104  0.7229
  479MOL0     C64576  13.369   7.523   2.085  0.1125 -0.3697  0.2552
  479MOL0     O64577  13.137   7.612   1.942  0.5663  0.7694  0.8055
  479MOL0     C64578  12.935   7.538   1.759  0.0464  0.2188  0.4903
  479MOL0     C64579  12.819   7.497   1.691 -0.2094 -0.1738  0.3254
  479MOL0     N64580  12.193   6.873   1.458  0.0638 -0.0993 -0.1234
  479MOL0     N64581  12.088   6.801   1.457  0.0259  1.2444  0.1326
  479MOL0     C64582  11.100   6.273   1.019 -0.2017 -0.8505  0.0641
  479MOL0     C64583  10.997   6.232   0.937 -0.0445  0.3898  0.6849
  479MOL0     C64584  10.604   6.177   0.762  0.1840  0.4431 -0.2421
  479MOL0     C64585  10.615   6.190   0.621  0.2983 -0.4331  0.7152
  479MOL0     C64586  10.528   6.128   0.532  0.5264 -0.3136  0.2042
  479MOL0     C64587  10.414   6.058   0.580  0.2317 -1.0510  0.7914
  479MOL0     O64588  10.332   6.007   0.479 -0.6063 -0.0794  0.1378
  479MOL0     C64589  10.206   5.946   0.509 -0.1207  1.0182  1.1786
  479MOL0     C64590  10.145   5.900   0.375  0.5183 -0.4025 -0.0510
  479MOL0     C64591  10.017   5.829   0.406 -0.6481  0.0251 -0.5429
  479MOL0     C64592   9.944   5.805   0.280  0.0950  0.0840  0.1855
  479MOL0     C64593  10.001   5.701   0.197  0.7149  0.3016 -0.6825
  479MOL0     C64594  10.034   5.601   0.139 -0.0969 -1.4692  1.3564
  479MOL0     C64595  10.402   6.042   0.715 -0.1078 -0.0514  0.4964
  479MOL0     C64596  10.493   6.095   0.808  0.3017  1.1488 -0.1670
  479MOL0     C64597  10.469   6.067   0.962 -0.0417  0.3898 -0.0705
  479MOL0     H64598  10.913   6.538   0.807 -2.0445 -1.2446  0.6332
  479MOL0     H64599  11.095   6.602   0.949 -0.5288 -0.0727 -2.8435
  479MOL0     H64600  11.253   6.494   1.323 -0.9282 -2.7023  3.9081
  479MOL0     H64601  11.171   6.349   1.268  0.1949  1.6982  0.7512
  479MOL0     H64602  11.382   6.269   1.178  1.4354 -0.0061  0.0990
  479MOL0     H64603  11.383   6.267   1.352 -2.4202 -0.6387  0.8381
  479MOL0     H64604  11.501   6.491   1.182 -0.5347  0.1032  0.4743
  479MOL0     H64605  11.596   6.376   1.280 -2.1163 -2.1115 -1.3233
  479MOL0     H64606  11.420   6.611   1.366 -2.4276 -1.6285 -0.6633
  479MOL0     H64607  11.446   6.471   1.473 -2.6270 -0.5100 -2.0999
  479MOL0     H64608  11.613   6.633   1.516 -1.1996 -0.7822  1.3216
  479MOL0     H64609  11.678   6.472   1.458  2.0657  0.7011 -1.8230
  479MOL0     H64610  11.721   6.597   1.234 -0.3328 -1.5556  0.6916
  479MOL0     H64611  11.648   6.747   1.299  1.1604  1.7684  2.4241
  479MOL0     H64612  11.911   6.711   1.296  1.8961 -0.5287  1.1202
  479MOL0     H64613  11.873   6.623   1.443 -1.8364 -1.3236  0.5363
  479MOL0     H64614  11.778   6.905   1.412 -1.4929 -1.1270  1.4580
  479MOL0     H64615  11.787   6.808   1.558 -2.2352  0.9141 -0.4478
  479MOL0     H64616  11.958   7.067   1.564 -0.1910 -0.1288  1.7077
  479MOL0     H64617  12.215   7.180   1.466  0.9543  0.4268 -0.4130
  479MOL0     H64618  12.199   7.150   1.643 -3.5804 -0.2293 -0.3690
  479MOL0     H64619  12.406   7.040   1.662  1.8442  0.7343  0.4077
  479MOL0     H64620  12.430   7.017   1.488  0.5023 -1.5659  2.3688
  479MOL0     H64621  12.397   7.304   1.570  2.8197  1.9094 -0.0572
  479MOL0     H64622  12.517   7.223   1.463  2.4235 -0.6496  0.9383
  479MOL0     H64623  12.638   7.149   1.668  0.3366  0.5926  0.8560
  479MOL0     H64624  12.509   7.241   1.763  1.2059  0.6889 -0.8771
  479MOL0     H64625  12.773   7.200   1.851  2.7424 -1.7545 -0.1229
  479MOL0     H64626  12.990   7.253   1.948  1.0305  1.4595  2.2726
  479MOL0     H64627  13.347   7.217   1.961  0.7528  0.9328 -3.3614
  479MOL0     H64628  13.585   7.202   2.068  2.3908  1.3156 -0.6356
  479MOL0     H64629  13.813   7.343   2.062  3.2676 -0.0550  1.1834
  479MOL0     H64630  13.791   7.516   2.102 -4.3920  1.4395  2.0970
  479MOL0     H64631  13.942   7.425   2.305  2.6712 -2.9365  0.9923
  479MOL0     H64632  13.946   7.282   2.210  1.0865  0.3919  5.8172
  479MOL0     H64633  14.046   7.369   2.031  1.8829 -1.2329  0.3425
  479MOL0     H64634  14.035   7.541   2.097  3.3569  0.8577 -1.3505
  479MOL0     H64635  14.204   7.335   2.248  1.0518  2.1085  1.5784
  479MOL0     H64636  14.215   7.506   2.241  2.3717  0.3043  0.2574
  479MOL0     H64637  14.285   7.526   2.028  1.2802  0.6137  1.9841
  479MOL0     H64638  14.282   7.351   1.996  2.7272  0.7594 -1.3336
  479MOL0     H64639  14.447   7.521   2.191  3.0524 -0.6885  1.0111
  479MOL0     H64640  14.432   7.350   2.212 -0.8452  2.9410  3.3232
  479MOL0     H64641  14.561   7.480   1.970 -0.2165  0.3770  0.4879
  479MOL0     H64642  14.570   7.305   2.015  1.8039  0.2731 -0.5811
  479MOL0     H64643  14.765   7.447   2.082  1.2821  0.5710  1.4154
  479MOL0     H64644  14.670   7.521   2.204 -0.3879 -0.4757  0.5614
  479MOL0     H64645  13.527   7.615   2.192 -0.9332  0.8303 -0.9879
  479MOL0     H64646  13.313   7.615   2.095 -1.1357 -1.1408  0.6041
  479MOL0     H64647  12.970   7.637   1.733 -0.4101 -0.2205 -2.0722
  479MOL0     H64648  12.765   7.569   1.631  0.5577  0.1381 -0.0033
  479MOL0     H64649  11.145   6.192   1.076 -0.4127 -3.9567 -3.7969
  479MOL0     H64650  10.978   6.125   0.933  0.8977  0.2550 -0.5441
  479MOL0     H64651  10.688   6.252   0.570 -1.2035 -0.8953 -2.2111
  479MOL0     H64652  10.544   6.135   0.425  0.9552  1.9360  0.3605
  479MOL0     H64653  10.145   6.020   0.561 -1.1562  1.0519 -0.0481
  479MOL0     H64654  10.229   5.863   0.576  0.9994  0.2363 -0.1082
  479MOL0     H64655  10.229   5.848   0.330  1.6294 -1.6199  3.1739
  479MOL0     H64656  10.113   5.977   0.304  1.1599 -0.0813  0.0014
  479MOL0     H64657   9.960   5.898   0.468 -1.2284 -0.0424 -0.9958
  479MOL0     H64658  10.035   5.737   0.463  1.7255 -0.4531 -1.9022
  479MOL0     H64659   9.844   5.772   0.312  0.4643  1.9124  3.7593
  479MOL0     H64660   9.930   5.894   0.218 -3.3514 -1.6932 -1.9237
  479MOL0     H64661  10.057   5.509   0.089  1.1074 -0.3828 -0.1909
  479MOL0     H64662  10.321   5.986   0.761 -0.2785 -0.6432 -0.5009
  479MOL0     H64663  10.564   6.044   1.011  1.5278 -0.3831 -3.2227
  479MOL0     H64664  10.423   6.152   1.014 -1.1318 -1.6418  2.5196
  479MOL0     H64665  10.409   5.978   0.981  3.2043 -1.1757  5.1235
  480MOL0     O64666   1.353   6.197   0.961  0.1318 -0.1292  0.3540
  480MOL0     C64667   1.256   6.261   1.001 -0.3146  0.3910 -0.2572
  480MOL0     O64668   1.259   6.340   1.113  0.4972  0.0951 -0.1503
  480MOL0     C64669   1.375   6.341   1.192  0.8510  1.0250  0.8225
  480MOL0     C64670   1.415   6.223   1.243 -0.1540 -0.4157 -0.6260
  480MOL0     C64671   1.532   6.210   1.309 -0.2983  0.0673  0.2979
  480MOL0     C64672   1.609   6.322   1.339 -0.2255  0.1543  0.3229
  480MOL0     O64673   1.729   6.314   1.399  0.3501 -0.1455 -0.2874
  480MOL0     C64674   1.746   6.233   1.512  0.0113 -0.4026  0.0179
  480MOL0     C64675   1.890   6.253   1.571  0.7360 -0.4197 -0.0100
  480MOL0     C64676   2.007   6.225   1.470  0.5173  0.0629  0.7036
  480MOL0     C64677   2.144   6.248   1.542  0.3958  0.0824 -0.1038
  480MOL0     C64678   2.261   6.248   1.442 -0.8175  0.0048  0.2593
  480MOL0     C64679   2.383   6.274   1.525 -0.6163 -0.1181 -0.6360
  480MOL0     C64680   2.508   6.242   1.435 -0.4097 -0.4026  0.4286
  480MOL0     C64681   2.634   6.211   1.515  0.6618  0.0951 -0.0259
  480MOL0     N64682   2.694   6.344   1.546 -1.0602  0.1786 -0.1768
  480MOL0     C64683   2.760   6.419   1.457 -1.0701 -0.4045  0.1387
  480MOL0     C64684   2.843   6.505   1.525 -0.5065 -0.3690  0.3117
  480MOL0     C64685   2.926   6.611   1.449 -0.3990  0.6973  0.0772
  480MOL0     C64686   2.935   6.744   1.514  0.3938  0.4452 -0.5770
  480MOL0     C64687   3.050   6.823   1.466 -0.7409  0.0884  0.5384
  480MOL0     C64688   3.178   6.815   1.552  0.6714  0.1597 -0.4287
  480MOL0     O64689   3.156   6.878   1.683  0.0555 -0.1043 -0.5495
  480MOL0     C64690   3.245   6.847   1.781  0.2615 -0.6600  0.1168
  480MOL0     C64691   3.206   6.884   1.912 -0.6088 -0.2478  0.4123
  480MOL0     C64692   3.293   6.883   2.022 -0.1783 -0.1803  0.3038
  480MOL0     C64693   3.436   6.849   1.997  0.1355  0.0633 -0.5043
  480MOL0     C64694   3.531   6.838   2.108 -0.5271 -0.1744 -0.4693
  480MOL0     O64695   3.508   6.897   2.235  0.6024 -0.6776  0.3094
  480MOL0     C64696   3.598   6.899   2.336 -0.4543  0.5272  0.5652
  480MOL0     C64697   3.660   6.781   2.383  0.7515  0.2675 -0.5176
  480MOL0     C64698   3.747   6.782   2.481  1.0092  0.1409  0.2250
  480MOL0     C64699   3.775   6.895   2.555  0.4783  0.3364  0.3669
  480MOL0     O64700   3.855   6.870   2.656 -0.0685  0.3328  0.6191
  480MOL0     C64701   3.896   6.965   2.752 -0.0031  0.0163  0.8968
  480MOL0     C64702   3.943   6.892   2.871 -0.2372 -1.1497 -0.2508
  480MOL0     C64703   4.069   6.802   2.837  0.0712  0.5699  1.0193
  480MOL0     C64704   4.173   6.797   2.938  0.7225  0.2743  0.2656
  480MOL0     C64705   4.274   6.692   2.909 -0.4212  0.4777 -0.3118
  480MOL0     C64706   4.403   6.730   2.974 -0.0876 -0.5602 -0.1285
  480MOL0     C64707   4.523   6.653   2.913  0.1890  0.7859 -0.7553
  480MOL0     C64708   4.520   6.503   2.937  0.5304 -1.2896  0.5272
  480MOL0    Cl64709   4.500   6.463   3.115 -0.2903 -0.0737  0.0030
  480MOL0     C64710   3.720   7.019   2.516  1.2008 -0.2113 -0.5721
  480MOL0     C64711   3.632   7.014   2.404  0.3186 -0.2236  0.4732
  480MOL0     O64712   3.640   6.789   2.078 -0.5565 -0.0067  0.0264
  480MOL0     C64713   3.474   6.816   1.872  0.3118  0.4088 -0.2001
  480MOL0     C64714   3.383   6.818   1.761  0.0156  0.0757 -0.4716
  480MOL0     N64715   2.839   6.466   1.660 -0.0933  0.2135 -0.8745
  480MOL0     N64716   2.756   6.363   1.669 -1.1579 -0.3051 -0.9936
  480MOL0     C64717   1.560   6.448   1.287 -0.6757 -1.1612 -0.3197
  480MOL0     C64718   1.452   6.454   1.206 -0.3757  0.7212 -0.3360
  480MOL0     C64719   1.129   6.242   0.923  0.1114 -0.3787  0.1754
  480MOL0     C64720   1.120   6.153   0.811  0.0822  0.4353 -0.2790
  480MOL0     C64721   1.007   6.120   0.736  1.2265  0.2882 -0.0498
  480MOL0     C64722   0.884   6.174   0.784  0.2432  0.5739  1.4566
  480MOL0     O64723   0.773   6.121   0.729  0.1920  0.9848 -0.2328
  480MOL0     C64724   0.642   6.164   0.775  0.1493  0.7720  1.0276
  480MOL0     C64725   0.535   6.107   0.676 -0.0227 -0.0181  0.9498
  480MOL0     C64726   0.564   6.143   0.528  0.4715 -0.2852  0.2631
  480MOL0     C64727   0.440   6.146   0.437  0.9321 -0.5728  0.0032
  480MOL0     C64728   0.403   6.016   0.376  0.3447 -0.7049  0.1532
  480MOL0     C64729   0.374   5.909   0.319  0.3814 -0.3263 -0.1184
  480MOL0     C64730   0.893   6.273   0.878 -0.0654 -0.0163 -0.0140
  480MOL0     C64731   1.006   6.311   0.952 -0.9017 -0.2495 -0.5441
  480MOL0     C64732   0.999   6.415   1.063 -0.0775 -0.4049 -0.1299
  480MOL0     H64733   1.366   6.128   1.227  2.4255 -1.4045 -3.6062
  480MOL0     H64734   1.569   6.109   1.325 -2.1835 -0.6856  0.1209
  480MOL0     H64735   1.677   6.262   1.592 -0.0900 -0.6998  0.0407
  480MOL0     H64736   1.735   6.126   1.492  1.1833 -0.8885  1.7373
  480MOL0     H64737   1.893   6.185   1.656  1.1635 -1.6935 -1.0101
  480MOL0     H64738   1.895   6.358   1.602 -1.9055  1.0595 -3.7754
  480MOL0     H64739   2.007   6.295   1.385 -4.3108  1.9874  1.9837
  480MOL0     H64740   2.006   6.124   1.426  4.3390 -1.0135  2.6507
  480MOL0     H64741   2.130   6.342   1.595 -4.7108 -1.1075  1.1388
  480MOL0     H64742   2.154   6.172   1.620  2.4803  2.7749  2.4915
  480MOL0     H64743   2.263   6.151   1.390 -1.0329  1.0660 -1.8673
  480MOL0     H64744   2.236   6.319   1.362 -6.4016 -2.4691 -0.7178
  480MOL0     H64745   2.391   6.372   1.571 -1.8917  0.4372 -1.5489
  480MOL0     H64746   2.385   6.200   1.605  1.6816 -0.2132 -0.7024
  480MOL0     H64747   2.524   6.312   1.353 -1.0921  0.1706  0.7826
  480MOL0     H64748   2.479   6.147   1.389 -1.4669  0.5420 -0.9300
  480MOL0     H64749   2.609   6.152   1.603  0.1662 -1.7719 -1.3466
  480MOL0     H64750   2.704   6.145   1.462 -1.0456 -0.6338 -1.5011
  480MOL0     H64751   2.761   6.420   1.349  2.7880  2.2797 -0.0187
  480MOL0     H64752   3.026   6.573   1.427 -0.6976  0.3636 -0.7752
  480MOL0     H64753   2.891   6.630   1.347  1.4805  3.3918 -0.1768
  480MOL0     H64754   2.840   6.794   1.495  0.7787  0.9739 -1.1468
  480MOL0     H64755   2.940   6.750   1.623  3.2234  0.9035 -0.6611
  480MOL0     H64756   3.020   6.928   1.463 -5.0756 -0.9858 -0.9067
  480MOL0     H64757   3.080   6.787   1.367  1.5601  0.5439  1.0147
  480MOL0     H64758   3.257   6.877   1.509 -0.4447  2.1650  0.2759
  480MOL0     H64759   3.197   6.708   1.565 -0.4328 -0.3311 -2.5582
  480MOL0     H64760   3.110   6.927   1.940  0.8127  4.0638 -0.5878
  480MOL0     H64761   3.241   6.903   2.115 -1.2173 -0.3328 -0.2332
  480MOL0     H64762   3.624   6.684   2.349 -0.1812 -0.6406  2.7479
  480MOL0     H64763   3.774   6.688   2.526 -1.7876 -0.3362  1.1185
  480MOL0     H64764   3.975   7.030   2.716 -2.1192  2.0881 -0.3238
  480MOL0     H64765   3.814   7.033   2.779  0.1603  0.9918 -0.9211
  480MOL0     H64766   3.966   6.970   2.943 -3.2315 -0.1623 -0.2287
  480MOL0     H64767   3.863   6.833   2.916  0.2317 -0.5895  1.3662
  480MOL0     H64768   4.032   6.701   2.817 -0.8829  1.3780 -1.7430
  480MOL0     H64769   4.102   6.843   2.741 -0.6557 -0.7789  0.1717
  480MOL0     H64770   4.138   6.778   3.040 -2.4569  1.5438 -0.4770
  480MOL0     H64771   4.220   6.895   2.927  0.5911  0.8193  3.6130
  480MOL0     H64772   4.282   6.688   2.800 -0.6171  0.1994 -0.3168
  480MOL0     H64773   4.233   6.596   2.943 -0.1281  0.0671 -1.0862
  480MOL0     H64774   4.440   6.832   2.961  2.4827 -1.1172  1.9093
  480MOL0     H64775   4.385   6.711   3.080 -0.7954 -1.2964 -0.3761
  480MOL0     H64776   4.613   6.695   2.959 -1.5052  1.1675  2.4733
  480MOL0     H64777   4.530   6.667   2.805  0.1331  1.4280 -0.6776
  480MOL0     H64778   4.432   6.466   2.884  1.5939  1.6837 -3.9337
  480MOL0     H64779   4.608   6.454   2.894  1.1883 -0.7973  1.2782
  480MOL0     H64780   3.735   7.110   2.572 -0.0466 -0.7628  0.7365
  480MOL0     H64781   3.573   7.095   2.363 -1.5043 -1.5371  0.3682
  480MOL0     H64782   3.570   6.773   1.846 -0.2728  1.6161 -5.3791
  480MOL0     H64783   3.416   6.796   1.660  1.2427  0.8226 -0.2489
  480MOL0     H64784   1.608   6.543   1.308 -0.6789 -0.7915 -1.8424
  480MOL0     H64785   1.423   6.547   1.159 -4.1522 -0.0315  0.1959
  480MOL0     H64786   1.214   6.104   0.788 -0.9803 -1.3280 -1.0092
  480MOL0     H64787   1.009   6.055   0.650 -0.0889 -2.2681  1.7424
  480MOL0     H64788   0.636   6.273   0.782 -1.7320  0.8131 -0.5107
  480MOL0     H64789   0.619   6.133   0.877 -2.7657  0.4504  0.3570
  480MOL0     H64790   0.444   6.156   0.711 -0.3244 -0.3104  0.5893
  480MOL0     H64791   0.522   5.999   0.688 -1.1515 -0.0832 -0.5788
  480MOL0     H64792   0.630   6.065   0.487 -1.1628 -2.5603  1.7685
  480MOL0     H64793   0.601   6.246   0.523  2.7121 -0.9964  0.7863
  480MOL0     H64794   0.356   6.195   0.489  0.6810 -1.1389  0.1366
  480MOL0     H64795   0.466   6.209   0.352  1.7357 -0.3482  0.4071
  480MOL0     H64796   0.339   5.827   0.261  2.1087 -0.8620 -0.4592
  480MOL0     H64797   0.804   6.334   0.895 -1.1284 -0.8081 -2.3729
  480MOL0     H64798   1.006   6.373   1.163 -0.4028  1.1298  0.5689
  480MOL0     H64799   1.069   6.497   1.045 -2.1046  0.9241 -2.7645
  480MOL0     H64800   0.901   6.464   1.060 -0.9334 -2.0055  0.4511
  481MOL0     O64801   1.952   5.071   9.566 -0.0715 -0.1131  0.5737
  481MOL0     C64802   1.891   5.173   9.607 -0.5587 -0.1615 -0.0336
  481MOL0     O64803   1.956   5.278   9.665  0.3977 -0.3426  0.2137
  481MOL0     C64804   2.076   5.257   9.723  0.6319  0.6851 -0.6734
  481MOL0     C64805   2.181   5.202   9.659 -0.1418  0.4805 -0.1183
  481MOL0     C64806   2.316   5.199   9.706 -0.2607 -0.1762  0.4429
  481MOL0     C64807   2.337   5.271   9.828 -0.4531 -0.2593  0.4692
  481MOL0     O64808   2.465   5.272   9.885  0.8030 -0.2242  0.2410
  481MOL0     C64809   2.570   5.231   9.798 -0.3905  0.0850 -0.1920
  481MOL0     C64810   2.711   5.279   9.857 -0.7325  0.4708 -0.1582
  481MOL0     C64811   2.840   5.217   9.788  1.1204  0.3792  0.2812
  481MOL0     C64812   2.960   5.284   9.841  0.0716 -0.3828 -0.9902
  481MOL0     C64813   3.086   5.217   9.773  0.2678  0.0709 -0.5053
  481MOL0     C64814   3.115   5.072   9.822  0.1174  0.4505 -0.4050
  481MOL0     C64815   3.209   5.068   9.949  0.2637  0.9294  0.5163
  481MOL0     C64816   3.239   4.921   9.993  0.3360 -0.7056  0.2212
  481MOL0     N64817   3.364   4.922  10.068  0.2467  0.2209  0.3381
  481MOL0     C64818   3.491   4.876  10.035 -0.3561 -0.4516 -0.8387
  481MOL0     C64819   3.569   4.911  10.145 -0.3137 -0.3618  0.2941
  481MOL0     C64820   3.714   4.857  10.160 -0.1564  0.1550  0.2963
  481MOL0     C64821   3.803   4.938  10.256 -0.9680 -0.4096 -0.5130
  481MOL0     C64822   3.948   4.886  10.255 -0.2968 -0.6637 -0.8227
  481MOL0     C64823   3.953   4.761  10.349  0.3328 -1.1851 -0.1352
  481MOL0     O64824   4.069   4.685  10.322 -0.1682 -0.0984 -0.3386
  481MOL0     C64825   4.191   4.743  10.348 -0.5285  0.1254 -0.1661
  481MOL0     C64826   4.211   4.844  10.452  0.5980  0.4136  0.2348
  481MOL0     C64827   4.338   4.895  10.478 -0.5287  0.3599 -0.6242
  481MOL0     C64828   4.451   4.853  10.399  0.5209 -0.1853 -0.4830
  481MOL0     C64829   4.593   4.884  10.429 -0.8722  0.3889  0.5330
  481MOL0     O64830   4.696   4.815  10.365  0.1378 -0.6115  0.0747
  481MOL0     C64831   4.826   4.824  10.418  0.4035 -0.1550  0.3360
  481MOL0     C64832   4.935   4.878  10.343  1.1056  0.4564 -0.0157
  481MOL0     C64833   5.068   4.848  10.371 -0.0794  0.1238  0.2362
  481MOL0     C64834   5.098   4.771  10.479  0.0424 -0.0257 -0.3680
  481MOL0     O64835   5.226   4.742  10.504 -0.4496  0.2998  1.0024
  481MOL0     C64836   5.275   4.814  10.618 -0.0970  0.2627 -0.5058
  481MOL0     C64837   5.361   4.712  10.701  0.2024 -0.8720  0.2571
  481MOL0     C64838   5.507   4.721  10.649  0.4663 -0.8187 -0.0112
  481MOL0     C64839   5.610   4.703  10.767  0.1742  0.3597  0.2740
  481MOL0     C64840   5.746   4.707  10.699 -0.3581  0.7268 -0.2545
  481MOL0     C64841   5.848   4.679  10.807 -0.8594  0.6668  0.4353
  481MOL0     C64842   5.987   4.710  10.750 -0.8601 -0.2568  0.5623
  481MOL0     C64843   6.080   4.709  10.876  0.2877  0.2670  1.0743
  481MOL0    Cl64844   6.239   4.724  10.807  0.5781  0.2084  0.6106
  481MOL0     C64845   4.991   4.730  10.560 -0.2485 -0.6584  0.4770
  481MOL0     C64846   4.857   4.740  10.525  0.9806 -0.6286 -0.1596
  481MOL0     O64847   4.606   4.969  10.521 -0.0945  0.2829 -0.2306
  481MOL0     C64848   4.435   4.761  10.291 -0.8434  0.2418  0.2122
  481MOL0     C64849   4.305   4.713  10.265  0.2016 -0.1346  0.9269
  481MOL0     N64850   3.498   4.973  10.244  0.4722  0.5885 -0.1948
  481MOL0     N64851   3.371   4.964  10.196  0.0692 -0.2465  0.1638
  481MOL0     C64852   2.234   5.317   9.902  0.6715  0.3212  0.3357
  481MOL0     C64853   2.099   5.306   9.852 -0.4609 -0.3592 -0.6600
  481MOL0     C64854   1.751   5.184   9.562 -0.4904 -0.5806  0.2053
  481MOL0     C64855   1.710   5.314   9.534 -0.7190 -0.2747  0.8233
  481MOL0     C64856   1.579   5.344   9.496  0.3543  0.6853  0.3010
  481MOL0     C64857   1.487   5.237   9.479 -0.0814  0.7704  0.4031
  481MOL0     O64858   1.349   5.249   9.458 -0.3152 -0.3208  0.2808
  481MOL0     C64859   1.294   5.374   9.489 -0.2226  0.0586 -0.2665
  481MOL0     C64860   1.141   5.364   9.480  0.6116  0.3152 -0.1228
  481MOL0     C64861   1.082   5.241   9.558 -0.0955  0.1380 -0.2061
  481MOL0     C64862   0.931   5.246   9.590 -0.2975  0.3408  0.5398
  481MOL0     C64863   0.869   5.218   9.463 -0.1123  0.9289 -0.9735
  481MOL0     C64864   0.805   5.196   9.361 -0.5383  0.2273  0.7032
  481MOL0     C64865   1.526   5.107   9.494 -0.4911 -0.0906  0.2142
  481MOL0     C64866   1.657   5.082   9.547 -0.2567  0.7399  0.3646
  481MOL0     C64867   1.696   4.947   9.590  0.3413  0.5456 -0.6218
  481MOL0     H64868   2.166   5.159   9.561  1.5573 -1.4027  0.4006
  481MOL0     H64869   2.387   5.145   9.644 -1.6426 -1.3387 -0.2036
  481MOL0     H64870   2.573   5.122   9.803 -0.2380  0.1243  0.7268
  481MOL0     H64871   2.562   5.268   9.695  1.9959 -0.3440 -0.5972
  481MOL0     H64872   2.713   5.253   9.964  1.0298  0.7318 -0.1128
  481MOL0     H64873   2.723   5.387   9.860  2.5517  0.1984 -0.4253
  481MOL0     H64874   2.840   5.213   9.679  4.5914 -0.6969  0.2193
  481MOL0     H64875   2.842   5.112   9.819  0.6933 -0.0761 -1.1631
  481MOL0     H64876   2.950   5.389   9.812  0.7959  0.1336  0.5323
  481MOL0     H64877   2.975   5.280   9.949  0.6179 -1.1079 -1.0889
  481MOL0     H64878   3.074   5.210   9.664  2.2953  1.1549 -0.8446
  481MOL0     H64879   3.179   5.271   9.793  2.2008 -1.6925 -3.8246
  481MOL0     H64880   3.028   5.009   9.841  1.4082 -1.0352  0.8212
  481MOL0     H64881   3.159   5.022   9.736  0.2009 -2.5587  1.2644
  481MOL0     H64882   3.156   5.113  10.034  0.7126  0.3122  1.1364
  481MOL0     H64883   3.308   5.113   9.938  0.1438  2.3324  3.9235
  481MOL0     H64884   3.149   4.878  10.039 -0.5365  1.5531  0.7465
  481MOL0     H64885   3.259   4.864   9.902 -0.7364 -0.0991 -0.4007
  481MOL0     H64886   3.528   4.820   9.950 -1.1264 -0.8726 -0.9055
  481MOL0     H64887   3.701   4.752  10.189 -2.1766  0.9399  2.4645
  481MOL0     H64888   3.763   4.867  10.063  1.0076 -2.3708  0.5435
  481MOL0     H64889   3.802   5.039  10.214 -0.7407 -0.3457 -0.3616
  481MOL0     H64890   3.761   4.934  10.357  0.0569  0.9839  0.0082
  481MOL0     H64891   4.008   4.968  10.295 -1.9131 -1.2893  3.3089
  481MOL0     H64892   3.987   4.867  10.154  1.2812  0.3564 -0.4327
  481MOL0     H64893   3.863   4.701  10.334  0.3356 -0.5826 -3.4214
  481MOL0     H64894   3.953   4.796  10.453  0.8830 -1.3237 -0.0875
  481MOL0     H64895   4.127   4.868  10.516 -0.1752 -0.4847 -0.4101
  481MOL0     H64896   4.349   4.946  10.573 -0.5894 -1.9534  0.7087
  481MOL0     H64897   4.911   4.934  10.254 -1.4353 -2.2200 -1.1671
  481MOL0     H64898   5.155   4.896  10.327 -0.8610  2.1035  0.7313
  481MOL0     H64899   5.333   4.898  10.580  0.1639  0.1817 -0.2844
  481MOL0     H64900   5.190   4.846  10.680 -3.3158 -3.1112 -2.7123
  481MOL0     H64901   5.359   4.741  10.806 -0.7971  1.9231 -0.4251
  481MOL0     H64902   5.321   4.611  10.699  1.8694 -1.5609 -0.4112
  481MOL0     H64903   5.508   4.653  10.563  0.7993  0.0805 -0.7361
  481MOL0     H64904   5.532   4.822  10.614  0.7033 -0.5402  0.9270
  481MOL0     H64905   5.586   4.607  10.812 -0.1512 -0.6317 -1.8830
  481MOL0     H64906   5.606   4.778  10.847  1.8301  0.2818  0.4771
  481MOL0     H64907   5.776   4.799  10.650  0.5726  0.3002 -0.5132
  481MOL0     H64908   5.752   4.634  10.617  0.8829  1.5741 -0.9444
  481MOL0     H64909   5.820   4.745  10.890 -1.9127  1.3882 -0.4668
  481MOL0     H64910   5.846   4.571  10.826  2.2304  0.2158 -1.1108
  481MOL0     H64911   5.987   4.808  10.701 -0.4199  1.1618  3.2052
  481MOL0     H64912   6.015   4.634  10.677 -0.8843  2.0501 -1.9766
  481MOL0     H64913   6.061   4.794  10.941  3.9476  1.2455  1.0923
  481MOL0     H64914   6.085   4.617  10.936 -1.0003 -0.5353  0.0161
  481MOL0     H64915   5.026   4.668  10.642  0.6532  1.2101  1.5482
  481MOL0     H64916   4.776   4.694  10.582  1.1492  2.4790  2.9485
  481MOL0     H64917   4.518   4.745  10.223  2.0162  0.2830  3.4632
  481MOL0     H64918   4.284   4.652  10.177 -1.4023  1.2486  0.2787
  481MOL0     H64919   2.251   5.365   9.998  3.3830  0.8579 -0.3246
  481MOL0     H64920   2.022   5.342   9.920 -0.2972  1.5436 -1.4333
  481MOL0     H64921   1.770   5.404   9.542 -0.4433 -0.3618 -0.1561
  481MOL0     H64922   1.545   5.444   9.473 -3.4590 -0.2876  0.9997
  481MOL0     H64923   1.327   5.454   9.422  1.2660 -0.9752 -0.8109
  481MOL0     H64924   1.327   5.400   9.590  1.3815  2.5125 -1.3239
  481MOL0     H64925   1.113   5.346   9.375 -0.4655 -0.6506  0.3016
  481MOL0     H64926   1.091   5.456   9.509 -1.8347 -1.2298  0.9108
  481MOL0     H64927   1.134   5.246   9.654 -0.8179  1.6091  0.1396
  481MOL0     H64928   1.108   5.150   9.503  2.5395  1.3614 -1.1811
  481MOL0     H64929   0.896   5.176   9.667  0.9426 -1.5351 -0.5368
  481MOL0     H64930   0.909   5.350   9.614 -1.3319  0.2713 -0.0851
  481MOL0     H64931   0.753   5.170   9.271  0.6648  0.9376 -0.2258
  481MOL0     H64932   1.450   5.035   9.465 -1.5417  0.7174  0.8365
  481MOL0     H64933   1.764   4.906   9.515  3.9959  4.0492  0.4145
  481MOL0     H64934   1.742   4.963   9.688  0.5130  3.5713 -1.1079
  481MOL0     H64935   1.607   4.886   9.607 -0.8880  2.5786  0.7699
  482MOL0     O64936   1.646   1.632   9.940 -0.1732 -0.1061  0.3489
  482MOL0     C64937   1.552   1.559   9.944  0.6959 -0.4044  0.1926
  482MOL0     O64938   1.534   1.460  10.052  0.1537 -1.1271  0.3536
  482MOL0     C64939   1.591   1.481  10.179  0.3524 -0.3722 -0.3917
  482MOL0     C64940   1.519   1.433  10.286  0.4932 -0.0194 -0.3099
  482MOL0     C64941   1.575   1.448  10.418 -0.1190  0.0857 -0.5056
  482MOL0     C64942   1.690   1.520  10.443 -0.3852 -0.1207  0.7413
  482MOL0     O64943   1.727   1.541  10.574  0.0994  0.0949 -0.6775
  482MOL0     C64944   1.862   1.599  10.607  0.0397  0.8229 -0.6829
  482MOL0     C64945   1.977   1.496  10.591 -0.4104 -0.1997 -0.4252
  482MOL0     C64946   2.113   1.577  10.588 -0.1331 -0.0449 -0.0314
  482MOL0     C64947   2.232   1.484  10.623  0.6024 -0.0878 -0.2739
  482MOL0     C64948   2.365   1.572  10.612 -0.2389  1.3237 -0.1120
  482MOL0     C64949   2.493   1.494  10.636  0.4579 -0.3844 -0.5374
  482MOL0     C64950   2.618   1.576  10.591 -0.5186 -0.5752 -0.4982
  482MOL0     C64951   2.751   1.503  10.607  0.7935 -0.5092  1.6274
  482MOL0     N64952   2.778   1.501  10.751  0.0967  0.0132 -0.1014
  482MOL0     C64953   2.826   1.612  10.815 -0.1144 -0.1653 -1.0326
  482MOL0     C64954   2.899   1.565  10.920  0.3855  0.0886 -0.0556
  482MOL0     C64955   2.970   1.676  11.009 -0.1371 -0.0449 -0.1132
  482MOL0     C64956   3.032   1.610  11.132  0.3978 -1.3246  0.2082
  482MOL0     C64957   2.912   1.566  11.219  0.1017  0.6973  0.3959
  482MOL0     C64958   2.965   1.468  11.317  0.5300  0.4134  0.3549
  482MOL0     O64959   3.011   1.534  11.437  0.2566  0.1686 -0.0343
  482MOL0     C64960   3.141   1.519  11.467 -0.7935 -0.1447 -0.4317
  482MOL0     C64961   3.223   1.634  11.472  0.1468  0.0219 -0.2171
  482MOL0     C64962   3.354   1.623  11.526  0.1515  0.0044 -0.4619
  482MOL0     C64963   3.401   1.503  11.579 -0.2721  0.3287  0.0829
  482MOL0     C64964   3.540   1.483  11.630 -0.6588 -1.1208  0.4227
  482MOL0     O64965   3.576   1.356  11.643 -0.1335 -0.4201  0.6583
  482MOL0     C64966   3.708   1.338  11.664  0.5345 -0.0884 -0.4159
  482MOL0     C64967   3.789   1.352  11.550 -0.2613 -0.3870  0.7372
  482MOL0     C64968   3.931   1.334  11.562 -0.1559  0.0661 -0.2452
  482MOL0     C64969   3.978   1.311  11.697 -1.0411  0.2328 -0.7975
  482MOL0     O64970   4.110   1.294  11.717 -0.1381  0.6058  0.8967
  482MOL0     C64971   4.179   1.413  11.696  0.0759  0.5725 -0.1337
  482MOL0     C64972   4.333   1.385  11.680 -0.2560  0.3946  0.6260
  482MOL0     C64973   4.417   1.510  11.642 -0.6192  0.6653 -0.2969
  482MOL0     C64974   4.561   1.475  11.608 -0.7947  0.2623 -0.0915
  482MOL0     C64975   4.635   1.599  11.557  0.3996 -0.8313  0.4019
  482MOL0     C64976   4.775   1.559  11.499 -0.0099 -0.4760 -0.4474
  482MOL0     C64977   4.877   1.519  11.614 -0.4044  0.1558  0.2710
  482MOL0     C64978   5.025   1.515  11.573  0.3843  0.1847  0.3914
  482MOL0    Cl64979   5.069   1.685  11.533 -0.1578  0.3497 -0.8734
  482MOL0     C64980   3.897   1.291  11.807  0.5744 -0.1231 -0.2604
  482MOL0     C64981   3.758   1.300  11.797  0.2311 -0.3520 -0.4220
  482MOL0     O64982   3.609   1.588  11.639  0.8133  0.3249  0.2463
  482MOL0     C64983   3.311   1.390  11.575 -0.3514 -0.8152  0.0481
  482MOL0     C64984   3.186   1.400  11.515  0.2616 -0.0471  0.1913
  482MOL0     N64985   2.886   1.429  10.920 -0.0544  0.1287  0.4640
  482MOL0     N64986   2.807   1.386  10.825 -1.1406  0.2107  0.7781
  482MOL0     C64987   1.761   1.565  10.334 -0.2307  0.2960 -1.2030
  482MOL0     C64988   1.713   1.551  10.200 -0.3499 -0.1172 -0.1026
  482MOL0     C64989   1.463   1.545   9.825 -0.0478 -0.3563  0.2837
  482MOL0     C64990   1.412   1.415   9.803 -1.2126 -0.3551  0.0928
  482MOL0     C64991   1.332   1.395   9.688  0.5257 -0.3657 -0.6473
  482MOL0     C64992   1.315   1.487   9.591  0.7725 -0.5864  0.2153
  482MOL0     O64993   1.234   1.471   9.485  0.1595  0.5101 -0.3745
  482MOL0     C64994   1.137   1.365   9.469  0.2972 -0.9333  0.6881
  482MOL0     C64995   0.996   1.410   9.510  0.1487 -0.4411  1.1270
  482MOL0     C64996   0.961   1.540   9.453  0.1058 -0.4562  0.7746
  482MOL0     C64997   0.816   1.575   9.476  0.5761  0.7648 -0.3139
  482MOL0     C64998   0.791   1.645   9.610  0.2395  0.6157 -0.0126
  482MOL0     C64999   0.791   1.689   9.726 -0.0173  0.4510  0.2738
  482MOL0     C65000   1.357   1.618   9.613 -0.3050  0.3563  0.3343
  482MOL0     C65001   1.442   1.648   9.725 -0.0809 -0.1522  0.6721
  482MOL0     C65002   1.499   1.786   9.727  0.0882  0.2213 -0.3008
  482MOL0     H65003   1.426   1.382  10.261 -0.7499  1.5950  0.7446
  482MOL0     H65004   1.524   1.399  10.500  0.8797  0.1607  0.1762
  482MOL0     H65005   1.869   1.692  10.550  1.7563  2.0801  1.4394
  482MOL0     H65006   1.873   1.637  10.709  0.7588 -2.7255  0.6986
  482MOL0     H65007   1.966   1.444  10.496  1.0508  0.3690 -0.9307
  482MOL0     H65008   1.974   1.431  10.679 -0.9388  2.7663  1.9135
  482MOL0     H65009   2.108   1.668  10.648  1.6807  3.1219 -4.1699
  482MOL0     H65010   2.121   1.612  10.485  0.8500 -1.6127 -0.5148
  482MOL0     H65011   2.220   1.469  10.731 -5.1384 -0.3078 -0.6310
  482MOL0     H65012   2.211   1.393  10.567 -0.3098  0.0853 -0.2328
  482MOL0     H65013   2.372   1.609  10.510  0.2106  3.4396  0.6481
  482MOL0     H65014   2.358   1.662  10.674 -1.4977  1.0537  0.1798
  482MOL0     H65015   2.515   1.470  10.740  2.3025  2.9885  0.0220
  482MOL0     H65016   2.495   1.414  10.561 -2.0392  0.2001 -1.3037
  482MOL0     H65017   2.616   1.680  10.626  2.3482  0.1466 -2.1344
  482MOL0     H65018   2.612   1.590  10.482  4.8334  1.3623 -0.8600
  482MOL0     H65019   2.754   1.401  10.569 -2.9116 -0.9422  2.0972
  482MOL0     H65020   2.820   1.573  10.558 -2.1540  2.8833  1.9022
  482MOL0     H65021   2.818   1.715  10.780 -0.5796 -0.8769 -3.1417
  482MOL0     H65022   3.048   1.712  10.942  2.3351 -2.6155  1.1830
  482MOL0     H65023   2.889   1.747  11.033 -2.8517 -2.1236 -2.4394
  482MOL0     H65024   3.093   1.527  11.096  2.9490 -0.0672  1.3850
  482MOL0     H65025   3.092   1.680  11.191 -0.3114 -0.7831  0.3076
  482MOL0     H65026   2.831   1.527  11.157 -0.7426  4.3325 -1.0598
  482MOL0     H65027   2.868   1.643  11.283 -0.1687  0.2942  0.6990
  482MOL0     H65028   3.039   1.402  11.271 -1.0497 -0.0803 -1.5792
  482MOL0     H65029   2.876   1.412  11.346  0.1672  0.5857 -0.4101
  482MOL0     H65030   3.183   1.730  11.441  0.5888  0.9212  1.8239
  482MOL0     H65031   3.408   1.716  11.510 -2.1175  1.7293  1.1639
  482MOL0     H65032   3.740   1.377  11.457 -0.2419 -1.9280  0.2883
  482MOL0     H65033   4.007   1.341  11.485  0.1691  1.7390  0.1777
  482MOL0     H65034   4.155   1.465  11.603  4.4110 -1.2708 -2.5533
  482MOL0     H65035   4.156   1.482  11.778 -1.6206  2.8791 -2.4047
  482MOL0     H65036   4.370   1.334  11.770 -0.5960 -0.6997  0.1588
  482MOL0     H65037   4.338   1.314  11.597 -0.5447  0.9442  0.1329
  482MOL0     H65038   4.373   1.558  11.554 -1.4870 -0.0953 -0.2917
  482MOL0     H65039   4.419   1.583  11.723  2.3369  1.6506 -1.1411
  482MOL0     H65040   4.565   1.392  11.537  0.2526 -3.5517  4.0756
  482MOL0     H65041   4.605   1.442  11.702  0.5793 -0.9985 -1.1233
  482MOL0     H65042   4.635   1.684  11.626  2.0384  0.9308 -1.6475
  482MOL0     H65043   4.582   1.634  11.468 -0.5399  1.0395  1.6282
  482MOL0     H65044   4.779   1.482  11.421 -0.3516  0.2952 -1.2392
  482MOL0     H65045   4.815   1.649  11.453 -1.4906  0.1415 -0.5800
  482MOL0     H65046   4.853   1.418  11.646 -0.0670  0.0563  0.2087
  482MOL0     H65047   4.874   1.583  11.703 -0.9428 -1.2569  1.3071
  482MOL0     H65048   5.082   1.470  11.655  2.8514  1.2860 -0.6335
  482MOL0     H65049   5.047   1.450  11.488 -0.9959 -0.4884  0.5155
  482MOL0     H65050   3.936   1.261  11.904 -0.1246  0.7030  0.2832
  482MOL0     H65051   3.684   1.289  11.876  0.2419  4.9090  0.6277
  482MOL0     H65052   3.353   1.303  11.625  2.7844  0.6349  0.1554
  482MOL0     H65053   3.117   1.317  11.526 -1.1322  1.2537  1.9125
  482MOL0     H65054   1.852   1.621  10.349 -1.1563  0.8862  3.9272
  482MOL0     H65055   1.769   1.605  10.124 -1.5978 -0.6974 -1.4723
  482MOL0     H65056   1.433   1.336   9.874  1.5207 -2.0868 -2.4346
  482MOL0     H65057   1.285   1.297   9.680 -0.8147  0.3008 -1.0627
  482MOL0     H65058   1.159   1.271   9.522 -1.9116 -0.9001  1.7895
  482MOL0     H65059   1.136   1.336   9.364  0.5055  2.5612 -0.3865
  482MOL0     H65060   0.978   1.404   9.618 -0.2157 -3.7742  0.9865
  482MOL0     H65061   0.935   1.334   9.461  1.3389 -1.4126  1.0971
  482MOL0     H65062   0.978   1.547   9.345 -0.1679  3.8053  0.8298
  482MOL0     H65063   1.026   1.614   9.501 -0.9770  0.2771  1.1447
  482MOL0     H65064   0.771   1.636   9.397  1.1060 -1.8282 -2.8253
  482MOL0     H65065   0.755   1.484   9.470  1.0706  0.4339 -0.3925
  482MOL0     H65066   0.772   1.727   9.825 -3.7141  0.0281 -0.1292
  482MOL0     H65067   1.326   1.695   9.543  1.9377 -0.7421 -2.0188
  482MOL0     H65068   1.603   1.778   9.695 -0.4800 -2.1864 -1.7834
  482MOL0     H65069   1.441   1.851   9.661 -1.1866 -1.7256 -1.1754
  482MOL0     H65070   1.493   1.823   9.830 -0.1021  0.5793 -0.4409
  483MOL0     O65071   7.298   8.072   0.688  0.1305  0.1925  0.1799
  483MOL0     C65072   7.296   8.168   0.767  0.3014 -0.8792  0.2722
  483MOL0     O65073   7.396   8.209   0.840 -0.0119 -0.3973  0.5779
  483MOL0     C65074   7.519   8.147   0.828 -0.4222  0.0298  0.2350
  483MOL0     C65075   7.545   8.010   0.849 -0.0569  0.0541  0.4449
  483MOL0     C65076   7.671   7.956   0.836  0.3518 -0.1360  0.1070
  483MOL0     C65077   7.788   8.037   0.819  0.2377 -0.3682 -0.6005
  483MOL0     O65078   7.911   7.985   0.815 -0.6522  0.1434  0.1322
  483MOL0     C65079   7.921   7.841   0.829  0.0949  0.1559 -0.9716
  483MOL0     C65080   8.064   7.779   0.819  0.9942 -0.8725  0.1079
  483MOL0     C65081   8.150   7.867   0.919  0.2507  0.6296  0.2375
  483MOL0     C65082   8.294   7.816   0.921 -0.5585 -0.2514 -0.4738
  483MOL0     C65083   8.391   7.882   1.019 -1.2889 -0.5313  0.5803
  483MOL0     C65084   8.528   7.797   0.995 -0.0451 -0.1675  0.4754
  483MOL0     C65085   8.646   7.844   1.077  0.4846  0.8643 -0.1774
  483MOL0     C65086   8.710   7.978   1.041 -0.3805 -0.7073  0.0233
  483MOL0     N65087   8.819   7.997   1.138  0.1425 -0.7240  0.2291
  483MOL0     C65088   8.936   7.936   1.139 -0.0506 -0.7817  0.6782
  483MOL0     C65089   8.998   7.990   1.242  0.1761 -0.2374 -0.3452
  483MOL0     C65090   9.112   7.912   1.309 -0.4674 -0.1681 -0.0205
  483MOL0     C65091   9.212   8.013   1.367  0.5481 -0.1740  1.0385
  483MOL0     C65092   9.318   7.952   1.461  0.5007  0.3460  0.2316
  483MOL0     C65093   9.426   8.052   1.499 -0.3400  0.4193  0.5226
  483MOL0     O65094   9.500   8.072   1.376 -0.1590 -0.2020 -0.3436
  483MOL0     C65095   9.623   8.129   1.384 -0.1133  0.1498  0.3791
  483MOL0     C65096   9.671   8.208   1.489 -0.1265 -0.6250 -0.3407
  483MOL0     C65097   9.793   8.271   1.490  0.1882  0.4492 -0.5022
  483MOL0     C65098   9.879   8.256   1.386 -0.3353  0.2609  0.8610
  483MOL0     C65099  10.005   8.323   1.386  1.1848 -0.2764  0.0454
  483MOL0     O65100  10.041   8.386   1.504 -0.5656  0.3952 -1.1564
  483MOL0     C65101  10.156   8.455   1.499 -0.8051 -0.9252 -0.5325
  483MOL0     C65102  10.276   8.392   1.516  0.6258 -0.0111 -0.6026
  483MOL0     C65103  10.402   8.457   1.503  0.4149  1.0654 -0.5961
  483MOL0     C65104  10.401   8.593   1.485 -0.4176  0.9611 -0.0689
  483MOL0     O65105  10.518   8.674   1.461  0.4529  0.7500  0.5242
  483MOL0     C65106  10.644   8.612   1.454 -0.3944  0.4232 -0.1466
  483MOL0     C65107  10.736   8.719   1.404  0.6452  0.0521 -1.0982
  483MOL0     C65108  10.883   8.680   1.377  1.0924  0.0767  0.0922
  483MOL0     C65109  10.896   8.570   1.270 -0.6699 -0.7160 -0.2832
  483MOL0     C65110  11.032   8.536   1.222 -0.9218 -0.5006 -0.8790
  483MOL0     C65111  11.137   8.650   1.205  0.8338  0.0839  0.3263
  483MOL0     C65112  11.091   8.742   1.098 -0.0674 -0.0402 -0.4489
  483MOL0     C65113  11.172   8.869   1.095 -0.4625 -0.2855  0.4348
  483MOL0    Cl65114  11.164   8.982   1.230 -0.1363  0.2488 -0.3354
  483MOL0     C65115  10.278   8.655   1.465  0.5069 -0.1150  0.0472
  483MOL0     C65116  10.159   8.593   1.474 -0.3398 -1.0515 -0.3227
  483MOL0     O65117  10.065   8.313   1.279  0.1622 -0.1842  0.3865
  483MOL0     C65118   9.840   8.167   1.281  0.4315  0.3137  0.2383
  483MOL0     C65119   9.713   8.109   1.281  0.1312  0.6803  0.3583
  483MOL0     N65120   8.915   8.077   1.309 -0.8910 -0.0704  0.8923
  483MOL0     N65121   8.804   8.078   1.247  1.1237 -0.4182  0.0200
  483MOL0     C65122   7.759   8.176   0.805 -0.1588 -0.2665  0.5503
  483MOL0     C65123   7.633   8.231   0.824 -0.1787 -0.3232  0.3716
  483MOL0     C65124   7.178   8.260   0.770  0.1058 -0.1879  0.8179
  483MOL0     C65125   7.191   8.388   0.811  0.2499 -0.0569  0.7547
  483MOL0     C65126   7.086   8.477   0.817  0.1335 -0.0165 -0.0520
  483MOL0     C65127   6.951   8.422   0.786  0.3493  0.7690 -0.1892
  483MOL0     O65128   6.836   8.499   0.783 -0.1300 -0.0648  0.5710
  483MOL0     C65129   6.844   8.644   0.785 -0.2600 -0.4453  0.9386
  483MOL0     C65130   6.700   8.702   0.801 -0.2570  0.4936  0.2647
  483MOL0     C65131   6.669   8.701   0.951  0.0624 -0.1784 -0.0632
  483MOL0     C65132   6.521   8.714   0.991  0.3260 -0.2556  0.9351
  483MOL0     C65133   6.464   8.840   0.930  0.2030 -0.0767  0.1925
  483MOL0     C65134   6.402   8.936   0.887  0.4680  0.8344 -0.3884
  483MOL0     C65135   6.932   8.287   0.756  0.8118  0.3924  0.6684
  483MOL0     C65136   7.045   8.204   0.745 -0.2725 -0.2760 -0.8328
  483MOL0     C65137   7.014   8.066   0.697 -0.3103  0.1881 -0.7505
  483MOL0     H65138   7.463   7.942   0.870  0.7198 -0.2609  2.7556
  483MOL0     H65139   7.671   7.848   0.837  0.9715 -0.1536 -0.4588
  483MOL0     H65140   7.886   7.819   0.930  2.8919  0.4988  0.1592
  483MOL0     H65141   7.858   7.795   0.753 -0.9205  0.7705 -0.5305
  483MOL0     H65142   8.110   7.796   0.721  0.9702  0.0364  0.2474
  483MOL0     H65143   8.063   7.673   0.843 -2.4709 -0.9851 -0.0911
  483MOL0     H65144   8.112   7.856   1.021 -0.4592  0.1548 -0.0760
  483MOL0     H65145   8.162   7.971   0.887  0.0929  0.5913  0.0532
  483MOL0     H65146   8.286   7.708   0.937  3.3898 -0.6931 -0.7291
  483MOL0     H65147   8.338   7.827   0.822 -0.0280  1.3148 -0.0961
  483MOL0     H65148   8.399   7.989   1.000 -2.4889 -0.1305  2.0786
  483MOL0     H65149   8.350   7.871   1.120 -1.3083  1.6636  0.8626
  483MOL0     H65150   8.508   7.692   1.018 -0.5571 -0.1972 -0.0800
  483MOL0     H65151   8.562   7.807   0.892  0.6084  4.2694  0.9319
  483MOL0     H65152   8.723   7.766   1.080 -0.0370  0.3230 -0.6243
  483MOL0     H65153   8.609   7.847   1.180  2.1375 -0.1163  0.4800
  483MOL0     H65154   8.747   7.973   0.938  0.6782  0.1880  0.3398
  483MOL0     H65155   8.640   8.061   1.056  1.1875  0.6026  0.3241
  483MOL0     H65156   8.977   7.863   1.069  1.1199 -1.2420  1.8125
  483MOL0     H65157   9.072   7.852   1.391 -3.1789  1.1121 -0.2993
  483MOL0     H65158   9.164   7.858   1.230 -2.1798 -0.6451 -0.8521
  483MOL0     H65159   9.251   8.073   1.284 -2.6195 -0.3773 -0.8006
  483MOL0     H65160   9.146   8.079   1.424 -2.9821 -0.7723 -1.9356
  483MOL0     H65161   9.353   7.863   1.407  0.9345  0.9962 -0.5807
  483MOL0     H65162   9.269   7.917   1.552 -0.6956  0.5163 -0.3311
  483MOL0     H65163   9.489   8.006   1.576  0.8552  1.8259  0.4368
  483MOL0     H65164   9.393   8.143   1.550  0.5954  0.4301  1.1263
  483MOL0     H65165   9.597   8.217   1.568 -0.6469 -0.0149 -0.8793
  483MOL0     H65166   9.822   8.337   1.572 -0.1929  1.0255 -0.8226
  483MOL0     H65167  10.273   8.285   1.538  3.1928  0.2828  1.7538
  483MOL0     H65168  10.491   8.398   1.520 -1.5149 -1.8869  0.1310
  483MOL0     H65169  10.678   8.579   1.552  2.0202 -0.8188 -1.3136
  483MOL0     H65170  10.644   8.525   1.389  1.8668  1.8373 -2.2462
  483MOL0     H65171  10.690   8.758   1.314 -3.2918 -0.6169  0.4423
  483MOL0     H65172  10.731   8.797   1.480 -1.0237 -0.8628 -0.2054
  483MOL0     H65173  10.936   8.772   1.350  0.6177  0.7500  1.3528
  483MOL0     H65174  10.928   8.647   1.470  0.9099  0.0166  0.1602
  483MOL0     H65175  10.840   8.593   1.178 -0.2862 -3.7321 -1.3632
  483MOL0     H65176  10.843   8.480   1.302 -2.7518  0.5126 -0.0649
  483MOL0     H65177  11.037   8.479   1.128  1.2026 -1.6676 -0.1338
  483MOL0     H65178  11.069   8.459   1.290  0.1065 -0.1828 -1.0643
  483MOL0     H65179  11.149   8.708   1.297  1.2101  2.7812 -1.3124
  483MOL0     H65180  11.232   8.607   1.174 -0.2255 -0.9024 -1.7693
  483MOL0     H65181  10.993   8.783   1.124 -1.4785 -1.9694 -2.3712
  483MOL0     H65182  11.091   8.695   0.999  0.0293 -0.3907 -0.2840
  483MOL0     H65183  11.276   8.836   1.091 -0.3917  0.0270 -0.6461
  483MOL0     H65184  11.146   8.929   1.007 -3.4436 -0.9085  0.7939
  483MOL0     H65185  10.265   8.762   1.453 -1.0421 -0.1731  0.9645
  483MOL0     H65186  10.067   8.650   1.467  0.2853 -0.1423 -1.2817
  483MOL0     H65187   9.894   8.145   1.189 -0.1701  1.3560 -0.3888
  483MOL0     H65188   9.677   8.053   1.195 -0.0312 -0.2207  0.9922
  483MOL0     H65189   7.843   8.242   0.786  0.3377 -1.0085  0.0855
  483MOL0     H65190   7.625   8.339   0.825 -3.4490 -0.2664 -3.8122
  483MOL0     H65191   7.284   8.432   0.846 -1.1232  1.1538  3.2358
  483MOL0     H65192   7.099   8.578   0.855  1.5581 -0.4435  0.6693
  483MOL0     H65193   6.901   8.666   0.695 -1.3976 -0.3703  0.2133
  483MOL0     H65194   6.905   8.680   0.868  3.6423 -0.8739 -1.5132
  483MOL0     H65195   6.631   8.636   0.748  1.4432 -0.8581 -0.3582
  483MOL0     H65196   6.697   8.807   0.770 -0.2174  0.0417 -1.3351
  483MOL0     H65197   6.723   8.785   0.996 -1.5097  1.4733 -1.1360
  483MOL0     H65198   6.706   8.609   0.998 -2.9860 -1.2250  0.5558
  483MOL0     H65199   6.463   8.629   0.955 -1.5007  0.7310  1.3802
  483MOL0     H65200   6.503   8.713   1.099  1.5410  3.0704  1.3102
  483MOL0     H65201   6.355   9.031   0.869  1.2264  1.5859  1.3965
  483MOL0     H65202   6.831   8.258   0.732  1.4376  0.1348 -1.9747
  483MOL0     H65203   7.040   7.986   0.768  0.4204 -1.4590 -2.7823
  483MOL0     H65204   6.906   8.061   0.678 -0.4800 -1.1394  0.3464
  483MOL0     H65205   7.062   8.043   0.602 -0.3775  2.6743 -1.4420
  484MOL0     O65206  10.422   0.415   1.858  0.0996 -0.1860 -0.7498
  484MOL0     C65207  10.401   0.492   1.761 -0.0559  0.1518 -0.9834
  484MOL0     O65208  10.457   0.618   1.743 -0.3660 -0.3843  0.3258
  484MOL0     C65209  10.545   0.665   1.843  0.2303 -0.7703  0.7667
  484MOL0     C65210  10.499   0.751   1.940 -0.3013  0.2954  0.0442
  484MOL0     C65211  10.577   0.804   2.039 -0.7617 -0.4034 -0.1704
  484MOL0     C65212  10.713   0.775   2.053  0.4607  0.6487  0.0345
  484MOL0     O65213  10.786   0.838   2.153 -0.7354  0.0137 -0.3357
  484MOL0     C65214  10.913   0.900   2.124 -0.3166 -0.3089 -0.0222
  484MOL0     C65215  11.013   0.815   2.192 -0.7916  0.5772 -0.1919
  484MOL0     C65216  11.157   0.850   2.139  0.5141 -0.3069  0.9439
  484MOL0     C65217  11.240   0.727   2.170 -0.3494 -0.0520 -0.4308
  484MOL0     C65218  11.384   0.746   2.121 -0.5085 -0.0205 -0.3207
  484MOL0     C65219  11.467   0.832   2.224 -0.1411  0.2118  0.2619
  484MOL0     C65220  11.613   0.837   2.172 -0.3258 -0.4097  0.5501
  484MOL0     C65221  11.712   0.895   2.271 -0.5131  0.4688  0.3016
  484MOL0     N65222  11.833   0.930   2.197 -0.2568 -0.1212  1.0358
  484MOL0     C65223  11.948   0.856   2.193  0.2218 -0.4273 -0.8101
  484MOL0     C65224  12.032   0.912   2.108  0.3939 -0.2422 -0.8465
  484MOL0     C65225  12.158   0.864   2.040 -0.3541  0.4454  0.0039
  484MOL0     C65226  12.278   0.877   2.132 -0.4669  0.2821  0.0653
  484MOL0     C65227  12.303   1.019   2.170 -0.1190 -0.3930  0.7755
  484MOL0     C65228  12.426   1.039   2.265 -0.7706  0.1199 -0.3926
  484MOL0     O65229  12.545   0.980   2.209 -0.2757  0.1665 -0.2785
  484MOL0     C65230  12.664   0.995   2.278  1.0333  0.5650 -0.5175
  484MOL0     C65231  12.672   1.082   2.388  1.0358  0.4141  0.6535
  484MOL0     C65232  12.789   1.095   2.460 -1.1083 -0.1813  1.0104
  484MOL0     C65233  12.913   1.046   2.407  0.4555  0.0484  0.3379
  484MOL0     C65234  13.038   1.078   2.472 -0.4884 -0.6711 -0.9132
  484MOL0     O65235  13.149   1.034   2.416  0.3734  0.0652  0.2146
  484MOL0     C65236  13.266   1.064   2.480 -0.1146  0.6587  0.2482
  484MOL0     C65237  13.356   1.144   2.408  0.2828 -0.1910 -0.9765
  484MOL0     C65238  13.480   1.166   2.473 -0.3333 -0.5378  0.2581
  484MOL0     C65239  13.524   1.091   2.577  0.0189  0.3000  0.2323
  484MOL0     O65240  13.644   1.110   2.629  0.4148 -0.7526  0.1358
  484MOL0     C65241  13.745   1.102   2.529 -0.8512  0.1349  0.4198
  484MOL0     C65242  13.890   1.106   2.596  0.1045  0.3385  0.4984
  484MOL0     C65243  13.913   1.239   2.663 -0.3569 -0.0166  0.5902
  484MOL0     C65244  14.059   1.279   2.724  0.9040 -0.0791 -0.1780
  484MOL0     C65245  14.122   1.376   2.620  0.4129  0.2049  0.4871
  484MOL0     C65246  14.245   1.418   2.685 -0.3420  0.6526  0.4037
  484MOL0     C65247  14.338   1.491   2.603 -0.0372 -0.0120  0.3926
  484MOL0     C65248  14.434   1.578   2.680 -0.3984  0.1097  0.0658
  484MOL0    Cl65249  14.505   1.489   2.827  0.2470  0.0123 -0.0070
  484MOL0     C65250  13.432   1.005   2.644 -0.1073  0.4499 -0.0961
  484MOL0     C65251  13.300   0.982   2.591 -0.5818 -0.2190 -0.0266
  484MOL0     O65252  13.027   1.149   2.575 -0.4173  0.4621 -0.4371
  484MOL0     C65253  12.908   0.964   2.289  0.0358  0.1057 -0.5989
  484MOL0     C65254  12.782   0.945   2.227  0.5378 -0.1411 -0.1339
  484MOL0     N65255  11.968   1.030   2.063  0.8800  0.0628  0.3093
  484MOL0     N65256  11.853   1.041   2.119  0.0004 -0.5291  0.7633
  484MOL0     C65257  10.765   0.681   1.962 -0.7582 -0.2632 -0.5788
  484MOL0     C65258  10.687   0.631   1.857 -0.1326 -0.4789  0.4063
  484MOL0     C65259  10.275   0.468   1.689  0.2680  0.3038 -0.5591
  484MOL0     C65260  10.174   0.564   1.689 -0.4107 -0.1843 -0.4580
  484MOL0     C65261  10.049   0.535   1.621 -0.4494 -0.5998 -0.0807
  484MOL0     C65262  10.037   0.424   1.541  0.1670  0.2125 -0.1603
  484MOL0     O65263   9.913   0.420   1.486 -0.0318  0.9188 -0.1317
  484MOL0     C65264   9.895   0.333   1.371 -0.7303 -0.5158  0.4380
  484MOL0     C65265   9.786   0.380   1.274 -0.2102 -0.4346  0.0248
  484MOL0     C65266   9.638   0.372   1.322  0.9884 -0.0108  0.4855
  484MOL0     C65267   9.604   0.441   1.461 -0.0725 -0.1102 -0.6204
  484MOL0     C65268   9.615   0.348   1.574 -0.7956  0.7807 -0.3908
  484MOL0     C65269   9.620   0.279   1.675 -0.5095  0.3379  0.5478
  484MOL0     C65270  10.140   0.335   1.534  0.1020  0.2346 -0.4257
  484MOL0     C65271  10.260   0.354   1.610  0.2012  0.8357 -0.4919
  484MOL0     C65272  10.366   0.251   1.599  0.3181  0.0024 -0.7300
  484MOL0     H65273  10.397   0.786   1.928 -0.9279 -1.1614  0.8027
  484MOL0     H65274  10.531   0.866   2.116  0.3728 -0.3484  0.4873
  484MOL0     H65275  10.931   0.898   2.017  0.7315 -1.6228  0.1559
  484MOL0     H65276  10.926   1.003   2.160  3.1865 -1.5114  2.6911
  484MOL0     H65277  10.980   0.712   2.176  2.4738 -0.8464  1.3828
  484MOL0     H65278  11.006   0.847   2.296  0.0051  3.5887 -0.9699
  484MOL0     H65279  11.198   0.937   2.190 -0.0970 -0.8036  2.3193
  484MOL0     H65280  11.148   0.866   2.031  2.0443  0.6513  0.9374
  484MOL0     H65281  11.235   0.702   2.276 -0.3382  1.0871 -0.1555
  484MOL0     H65282  11.209   0.644   2.106  1.6952 -0.2757 -1.2251
  484MOL0     H65283  11.434   0.652   2.097  0.3026  0.7467 -1.8033
  484MOL0     H65284  11.377   0.801   2.027 -0.4356  1.3916  0.4615
  484MOL0     H65285  11.418   0.925   2.254  0.9544  1.3454 -1.3231
  484MOL0     H65286  11.466   0.773   2.317  0.1077  1.2731  0.9621
  484MOL0     H65287  11.615   0.901   2.083  0.6932  0.2321  1.0151
  484MOL0     H65288  11.651   0.741   2.138 -0.0400 -0.2869  0.5255
  484MOL0     H65289  11.657   0.980   2.313 -2.6533 -0.6707 -0.0698
  484MOL0     H65290  11.726   0.815   2.344 -1.4533 -1.9978 -2.0823
  484MOL0     H65291  11.963   0.760   2.241 -0.1496 -0.5374 -0.9110
  484MOL0     H65292  12.146   0.764   1.996 -2.3054 -0.3152  2.0924
  484MOL0     H65293  12.178   0.922   1.949  3.2399 -1.2634 -0.4901
  484MOL0     H65294  12.258   0.819   2.223  0.1443 -0.3535 -0.2032
  484MOL0     H65295  12.371   0.834   2.094  0.8963  1.7086  1.5896
  484MOL0     H65296  12.219   1.076   2.210  0.7890  0.1809  1.9302
  484MOL0     H65297  12.324   1.083   2.084 -4.2158 -1.2125 -1.0527
  484MOL0     H65298  12.402   0.999   2.364 -2.8470 -2.9097 -1.9484
  484MOL0     H65299  12.452   1.145   2.273  0.1057 -0.1853  1.1506
  484MOL0     H65300  12.582   1.124   2.431  1.3784  0.5353  1.2661
  484MOL0     H65301  12.786   1.144   2.558  0.5891 -2.2998  2.2044
  484MOL0     H65302  13.334   1.202   2.319  0.8323  2.6434  0.6280
  484MOL0     H65303  13.533   1.252   2.434 -0.2411  0.2813  2.0994
  484MOL0     H65304  13.740   1.007   2.476  0.2660 -1.1163  2.4144
  484MOL0     H65305  13.736   1.179   2.452  1.4506 -0.8401 -0.9300
  484MOL0     H65306  13.908   1.019   2.660 -1.7582 -1.9790 -1.8850
  484MOL0     H65307  13.964   1.091   2.517 -0.1860 -2.0534  0.5977
  484MOL0     H65308  13.889   1.315   2.589  0.7086 -1.2593 -1.1042
  484MOL0     H65309  13.843   1.245   2.746 -2.1864 -1.7646 -0.7459
  484MOL0     H65310  14.122   1.191   2.738  0.0184 -0.9354 -1.3583
  484MOL0     H65311  14.050   1.326   2.822  2.3394 -1.9134  0.8876
  484MOL0     H65312  14.059   1.459   2.587  0.2037 -0.0426  0.2577
  484MOL0     H65313  14.149   1.311   2.536  0.2661 -1.8769  1.9933
  484MOL0     H65314  14.211   1.494   2.756 -0.1111  1.0794  0.0573
  484MOL0     H65315  14.297   1.332   2.727  2.3239  0.5305 -2.7603
  484MOL0     H65316  14.285   1.558   2.535 -1.8754 -0.8828  0.8944
  484MOL0     H65317  14.395   1.425   2.538 -0.8498  0.5242 -0.9075
  484MOL0     H65318  14.516   1.604   2.613  0.2038 -2.2500 -0.1976
  484MOL0     H65319  14.378   1.659   2.728 -1.5142 -1.3445  1.3364
  484MOL0     H65320  13.458   0.934   2.722  0.0307 -1.7952 -2.0767
  484MOL0     H65321  13.231   0.916   2.642 -0.1107 -0.2089  0.6397
  484MOL0     H65322  12.996   0.913   2.252  0.5810  0.8728 -0.3992
  484MOL0     H65323  12.768   0.882   2.140  1.3820 -0.5938  0.0449
  484MOL0     H65324  10.870   0.655   1.965 -0.1368  1.3403 -3.7507
  484MOL0     H65325  10.736   0.570   1.782 -1.1517  0.4065 -1.0321
  484MOL0     H65326  10.174   0.653   1.752 -0.4046 -0.0809 -0.6031
  484MOL0     H65327   9.961   0.598   1.628 -0.2767 -0.0737 -2.0305
  484MOL0     H65328   9.866   0.234   1.405 -1.1861 -1.6850 -3.0485
  484MOL0     H65329   9.986   0.352   1.314 -2.6508  3.2366 -1.7980
  484MOL0     H65330   9.781   0.310   1.190  1.2699 -3.0605  2.0052
  484MOL0     H65331   9.809   0.485   1.251  2.7415 -0.5140  2.1580
  484MOL0     H65332   9.620   0.265   1.336  2.0378 -0.2451  0.1484
  484MOL0     H65333   9.572   0.405   1.241  1.9720 -1.6172 -1.0514
  484MOL0     H65334   9.679   0.519   1.479  0.0062 -0.6923  1.8076
  484MOL0     H65335   9.504   0.484   1.455 -0.2310 -0.4824 -0.6564
  484MOL0     H65336   9.596   0.212   1.754 -1.3803  0.2289  0.2118
  484MOL0     H65337  10.117   0.246   1.475  0.5039 -2.2281  2.8891
  484MOL0     H65338  10.458   0.294   1.558  0.6414 -0.4888 -0.5188
  484MOL0     H65339  10.389   0.215   1.699  1.5076  0.0823 -0.9531
  484MOL0     H65340  10.339   0.166   1.536  2.3728 -1.7104  0.5783
  485MOL0     O65341   9.818   7.669   2.373 -0.2173 -0.1326 -0.4815
  485MOL0     C65342   9.745   7.662   2.273  0.0687  0.3017  0.1909
  485MOL0     O65343   9.792   7.647   2.146 -0.2279  0.1360  0.4369
  485MOL0     C65344   9.924   7.658   2.117 -0.0888 -0.1753  0.1342
  485MOL0     C65345   9.957   7.597   2.004 -0.2252  0.4228  0.3208
  485MOL0     C65346  10.078   7.595   1.939 -0.5292  0.1445  0.3375
  485MOL0     C65347  10.184   7.668   2.002 -0.3380  0.2929  0.1170
  485MOL0     O65348  10.310   7.681   1.939 -0.5566  1.1125 -0.6894
  485MOL0     C65349  10.323   7.686   1.795  0.1781 -0.0357  0.9087
  485MOL0     C65350  10.472   7.670   1.737  1.0989 -0.4562  0.0325
  485MOL0     C65351  10.569   7.591   1.815  0.5050  0.3307 -0.0214
  485MOL0     C65352  10.704   7.564   1.753  0.7192 -0.8561  0.1330
  485MOL0     C65353  10.782   7.494   1.865  0.7484  0.2807 -0.4320
  485MOL0     C65354  10.926   7.461   1.824 -0.7544  0.1541  0.9972
  485MOL0     C65355  11.016   7.385   1.933 -0.5875 -0.3302  0.0563
  485MOL0     C65356  11.153   7.340   1.875 -0.4236 -0.6078 -0.7733
  485MOL0     N65357  11.248   7.291   1.979 -0.2020 -0.4934 -0.1734
  485MOL0     C65358  11.262   7.162   2.003 -0.0591 -0.8254  0.9332
  485MOL0     C65359  11.344   7.165   2.110 -0.6845  0.0254  0.5080
  485MOL0     C65360  11.384   7.041   2.175  0.2978  0.9630 -0.2679
  485MOL0     C65361  11.269   6.961   2.237 -0.8983 -0.0463  0.0329
  485MOL0     C65362  11.197   7.024   2.359  0.4974 -0.1129 -0.3318
  485MOL0     C65363  11.269   7.048   2.494  0.3127  0.5867  0.7012
  485MOL0     O65364  11.376   7.134   2.489 -0.3237  0.1725  0.1114
  485MOL0     C65365  11.371   7.262   2.529  0.7845  0.3082 -1.0957
  485MOL0     C65366  11.252   7.334   2.560 -0.1981  0.4066  0.3918
  485MOL0     C65367  11.262   7.471   2.592 -0.1028  0.5102 -0.3338
  485MOL0     C65368  11.382   7.536   2.584 -0.2021 -0.1783  0.1046
  485MOL0     C65369  11.389   7.682   2.596  0.2727 -0.1901 -0.7810
  485MOL0     O65370  11.513   7.733   2.563 -0.1611 -0.1655  0.3941
  485MOL0     C65371  11.533   7.871   2.546 -0.8765  0.0437  0.5598
  485MOL0     C65372  11.456   7.979   2.581 -0.3789  0.0343 -0.1021
  485MOL0     C65373  11.501   8.107   2.584  0.1694  0.8111  0.0411
  485MOL0     C65374  11.635   8.127   2.551 -0.5853  0.1318 -0.6876
  485MOL0     O65375  11.694   8.249   2.565  0.4016 -0.1828  0.5324
  485MOL0     C65376  11.624   8.363   2.508  0.4285 -0.1121  0.1472
  485MOL0     C65377  11.729   8.454   2.436 -0.3020  0.5676 -0.4700
  485MOL0     C65378  11.789   8.382   2.310 -1.1324  0.0004  0.7793
  485MOL0     C65379  11.935   8.426   2.283 -0.3290 -1.2151  0.5951
  485MOL0     C65380  12.008   8.342   2.179  0.0994  0.5525 -0.5085
  485MOL0     C65381  12.158   8.376   2.176 -0.1538 -0.0022 -0.1999
  485MOL0     C65382  12.236   8.299   2.070 -0.1230 -0.6120 -0.0792
  485MOL0     C65383  12.381   8.342   2.061 -0.4941 -0.8996 -1.0101
  485MOL0    Cl65384  12.469   8.303   2.208  0.2376  0.1436 -0.2934
  485MOL0     C65385  11.716   8.026   2.512 -0.6815 -0.1462 -0.1900
  485MOL0     C65386  11.663   7.897   2.500  0.3148  0.1307 -0.5312
  485MOL0     O65387  11.295   7.744   2.647 -0.0144  0.0423 -0.5246
  485MOL0     C65388  11.496   7.469   2.550  0.1501  0.2038  0.5459
  485MOL0     C65389  11.497   7.328   2.529  0.2457  0.3318  0.0388
  485MOL0     N65390  11.375   7.295   2.153 -1.4063  0.4642  0.0821
  485MOL0     N65391  11.311   7.371   2.066  0.0527 -0.6933  0.5952
  485MOL0     C65392  10.163   7.733   2.120  0.6755  0.5286 -0.2571
  485MOL0     C65393  10.030   7.730   2.174  0.2359 -0.0092 -0.2946
  485MOL0     C65394   9.601   7.634   2.294 -0.5931 -0.0533 -0.2791
  485MOL0     C65395   9.526   7.623   2.178 -0.7447 -0.4581  0.4179
  485MOL0     C65396   9.391   7.601   2.192  0.5567 -0.3811  0.2723
  485MOL0     C65397   9.324   7.594   2.313 -0.5093  0.2479 -0.7869
  485MOL0     O65398   9.189   7.586   2.305  0.8383 -0.3584  0.2159
  485MOL0     C65399   9.112   7.588   2.430  0.0407  0.6029 -0.0027
  485MOL0     C65400   9.074   7.449   2.474  0.4006  0.3113 -0.1306
  485MOL0     C65401   8.980   7.375   2.377  0.3655 -0.5412  0.1022
  485MOL0     C65402   8.862   7.454   2.330 -0.0259 -0.5841 -0.5509
  485MOL0     C65403   8.778   7.491   2.449 -0.6081  0.3028  0.1068
  485MOL0     C65404   8.719   7.518   2.553  0.9389 -0.4210 -0.2557
  485MOL0     C65405   9.404   7.606   2.430  0.6121  0.0804  0.2918
  485MOL0     C65406   9.539   7.623   2.426  0.0792 -0.0918  1.1137
  485MOL0     C65407   9.609   7.643   2.558 -0.1484  0.5516  0.8620
  485MOL0     H65408   9.872   7.555   1.952  0.1918 -0.7188  0.5234
  485MOL0     H65409  10.091   7.535   1.850  2.1119 -1.1114  1.4647
  485MOL0     H65410  10.261   7.608   1.749  2.0397 -0.8389 -0.3531
  485MOL0     H65411  10.286   7.779   1.751 -1.4531 -1.0820 -0.0428
  485MOL0     H65412  10.504   7.775   1.728  0.6073 -0.3894 -1.0574
  485MOL0     H65413  10.465   7.628   1.636  1.8976  0.2279 -0.3198
  485MOL0     H65414  10.513   7.499   1.832 -1.5006  1.6378  0.8032
  485MOL0     H65415  10.586   7.638   1.912  0.9812  0.0330  0.0452
  485MOL0     H65416  10.701   7.500   1.665  0.4796 -1.7024  0.7481
  485MOL0     H65417  10.755   7.658   1.726  0.3847 -0.6702  0.1404
  485MOL0     H65418  10.779   7.554   1.957 -1.9635  0.8020 -0.7615
  485MOL0     H65419  10.731   7.402   1.895 -0.1548  1.5402  2.2306
  485MOL0     H65420  10.914   7.391   1.741 -0.3126 -0.4056  1.4001
  485MOL0     H65421  10.989   7.545   1.793 -0.2641 -0.0483  1.4291
  485MOL0     H65422  10.968   7.290   1.956 -1.2684  0.0662  0.3008
  485MOL0     H65423  11.015   7.445   2.024 -0.7489 -1.5236  0.8648
  485MOL0     H65424  11.141   7.268   1.794  0.0534 -0.4375 -0.9972
  485MOL0     H65425  11.201   7.425   1.825 -0.3555  0.1555  0.5362
  485MOL0     H65426  11.219   7.089   1.935 -0.1665  1.3375 -1.4563
  485MOL0     H65427  11.441   6.980   2.104  1.4678  0.0556  1.3824
  485MOL0     H65428  11.456   7.057   2.256  0.5332 -2.6708  0.4172
  485MOL0     H65429  11.188   6.939   2.166 -0.4694  0.5202 -0.6567
  485MOL0     H65430  11.307   6.865   2.273 -0.3864  0.5028  0.9832
  485MOL0     H65431  11.115   6.952   2.364  1.7161 -2.1799 -4.6492
  485MOL0     H65432  11.159   7.124   2.333 -2.7319 -0.7532  1.4609
  485MOL0     H65433  11.299   6.947   2.522 -1.2273 -0.7704 -2.1220
  485MOL0     H65434  11.195   7.073   2.570  0.0319 -0.0319  0.6391
  485MOL0     H65435  11.157   7.281   2.563 -0.1344  0.3162  1.1228
  485MOL0     H65436  11.175   7.530   2.619 -1.5197 -1.6912  0.1835
  485MOL0     H65437  11.359   7.969   2.629 -0.0164  3.6789  1.7363
  485MOL0     H65438  11.443   8.187   2.631  0.6853  0.0067  2.1876
  485MOL0     H65439  11.549   8.335   2.435 -0.8535  1.3561  0.8293
  485MOL0     H65440  11.576   8.416   2.591 -1.3033 -0.4949 -0.5812
  485MOL0     H65441  11.681   8.549   2.409 -0.2474  0.3215 -1.4945
  485MOL0     H65442  11.807   8.465   2.512  0.2287 -0.1901 -0.8875
  485MOL0     H65443  11.793   8.275   2.332 -1.0028 -0.3793 -0.9297
  485MOL0     H65444  11.719   8.381   2.226  0.2652 -0.8132 -0.4222
  485MOL0     H65445  11.990   8.427   2.378 -2.2134  0.3225  1.7341
  485MOL0     H65446  11.934   8.529   2.245  2.6159 -1.1607  0.4371
  485MOL0     H65447  11.957   8.347   2.083 -2.4685  0.5391  0.7758
  485MOL0     H65448  12.002   8.241   2.221  1.7245  1.5421  2.4321
  485MOL0     H65449  12.161   8.484   2.158 -0.7569  0.1071  0.2972
  485MOL0     H65450  12.204   8.354   2.273  0.9277 -0.2113 -0.7478
  485MOL0     H65451  12.182   8.306   1.975 -1.0068 -1.5205  0.3276
  485MOL0     H65452  12.241   8.193   2.098  1.2894 -0.4424  0.3572
  485MOL0     H65453  12.419   8.283   1.978  1.3936  3.6935 -3.7522
  485MOL0     H65454  12.394   8.449   2.044  0.0278 -0.6178  0.8772
  485MOL0     H65455  11.812   8.045   2.468 -0.9322  1.7387 -0.0104
  485MOL0     H65456  11.730   7.818   2.468  0.4646  0.3616 -0.7967
  485MOL0     H65457  11.594   7.513   2.536  0.6988 -0.1456  2.9145
  485MOL0     H65458  11.594   7.284   2.507  0.6480  1.1975  0.0491
  485MOL0     H65459  10.250   7.781   2.165  1.2774 -0.3412 -0.4727
  485MOL0     H65460   9.999   7.796   2.254  0.4129 -0.0006 -0.2318
  485MOL0     H65461   9.558   7.647   2.077 -1.2192  2.5361  0.8988
  485MOL0     H65462   9.330   7.593   2.103  1.3211 -1.1900 -0.1876
  485MOL0     H65463   9.017   7.640   2.414 -0.9402 -1.3680 -0.9317
  485MOL0     H65464   9.170   7.639   2.507  2.4571 -0.3830 -1.0661
  485MOL0     H65465   9.026   7.453   2.572 -1.3113  0.8737 -0.9414
  485MOL0     H65466   9.168   7.393   2.476  0.2743 -0.0408 -1.8951
  485MOL0     H65467   8.934   7.294   2.435  1.5294  0.0166  1.8610
  485MOL0     H65468   9.035   7.340   2.289 -2.2185 -1.4361 -1.2872
  485MOL0     H65469   8.891   7.545   2.276 -0.7341  0.8779  1.3941
  485MOL0     H65470   8.792   7.398   2.267 -1.3915  1.0809 -0.5775
  485MOL0     H65471   8.664   7.532   2.644  0.4119  1.0172 -0.7723
  485MOL0     H65472   9.354   7.612   2.526 -1.0446  1.1886 -0.6018
  485MOL0     H65473   9.676   7.557   2.566 -2.0992 -1.1388 -0.1550
  485MOL0     H65474   9.659   7.740   2.569 -0.1160  0.4319  1.8577
  485MOL0     H65475   9.545   7.647   2.646  2.1587  1.2345  2.6203
  486MOL0     O65476   7.837  10.811   0.187  0.4910  0.0373 -0.0296
  486MOL0     C65477   7.778  10.755   0.090  0.1285  0.5274 -1.0159
  486MOL0     O65478   7.835  10.694  -0.016  0.4961  0.3457 -0.5322
  486MOL0     C65479   7.974  10.689  -0.034  0.0824  0.4727 -0.2381
  486MOL0     C65480   8.005  10.583  -0.123  0.0565  0.7598 -0.4375
  486MOL0     C65481   8.143  10.565  -0.152  0.4299  0.4592  0.4600
  486MOL0     C65482   8.246  10.644  -0.095 -0.3669 -0.0328 -1.3041
  486MOL0     O65483   8.386  10.622  -0.125  0.2784 -0.4904  0.2464
  486MOL0     C65484   8.423  10.552  -0.252  0.2150  0.2897 -0.5187
  486MOL0     C65485   8.563  10.587  -0.285  0.1539 -0.0746 -0.5359
  486MOL0     C65486   8.588  10.732  -0.300  0.4886 -0.5198 -0.5837
  486MOL0     C65487   8.710  10.783  -0.374 -0.3568  0.4380 -0.5455
  486MOL0     C65488   8.706  10.923  -0.425  0.3672  0.7515  0.2515
  486MOL0     C65489   8.829  10.958  -0.505 -0.9784  0.4784  0.0757
  486MOL0     C65490   8.840  11.111  -0.524 -0.5612  0.4118  0.1830
  486MOL0     C65491   8.978  11.134  -0.585  0.2416 -0.4887  0.9463
  486MOL0     N65492   9.012  11.276  -0.574  0.6862  0.3027  0.0642
  486MOL0     C65493   8.954  11.380  -0.640 -0.4868 -0.1271 -0.2351
  486MOL0     C65494   9.028  11.494  -0.606  0.4928 -1.1696  0.2027
  486MOL0     C65495   8.995  11.640  -0.639  0.0597 -0.1468  0.7428
  486MOL0     C65496   9.093  11.688  -0.744 -0.5015 -0.1778 -0.0172
  486MOL0     C65497   9.212  11.751  -0.664 -0.4682 -0.1533 -0.2181
  486MOL0     C65498   9.329  11.786  -0.766  0.4025 -0.2607 -0.3767
  486MOL0     O65499   9.285  11.893  -0.848 -0.5449  0.4429  0.1184
  486MOL0     C65500   9.363  11.929  -0.950  0.7612 -0.8700 -0.1214
  486MOL0     C65501   9.503  11.917  -0.955  0.4745  0.0591  0.3878
  486MOL0     C65502   9.576  11.959  -1.067  0.1701  0.5443 -0.9062
  486MOL0     C65503   9.517  12.022  -1.177  0.4518  0.7972 -1.4092
  486MOL0     C65504   9.604  12.057  -1.289 -0.3135  0.7009  0.5190
  486MOL0     O65505   9.732  12.002  -1.282 -0.1578  0.7112 -0.0002
  486MOL0     C65506   9.832  12.022  -1.373 -0.4977  0.3110  0.2046
  486MOL0     C65507   9.941  11.940  -1.363  0.1110  0.3555  0.4957
  486MOL0     C65508  10.064  11.962  -1.428 -0.0281  0.1256  0.3090
  486MOL0     C65509  10.080  12.078  -1.516  0.3457  0.8452  0.5786
  486MOL0     O65510  10.195  12.098  -1.577 -0.2787 -0.0809 -0.2946
  486MOL0     C65511  10.302  12.000  -1.574 -0.5437 -0.4923  0.8395
  486MOL0     C65512  10.295  11.908  -1.691  0.0391 -0.5100 -0.2449
  486MOL0     C65513  10.395  11.793  -1.682  0.3895  0.2098 -0.7209
  486MOL0     C65514  10.536  11.837  -1.711  0.4228  0.2007  0.0155
  486MOL0     C65515  10.629  11.715  -1.701  0.1221 -0.0551  0.4496
  486MOL0     C65516  10.767  11.733  -1.775  0.3240 -0.1162  0.3753
  486MOL0     C65517  10.867  11.824  -1.704  0.5007  0.1392  0.0281
  486MOL0     C65518  10.970  11.862  -1.807  0.3546 -0.0700 -0.1802
  486MOL0    Cl65519  10.891  11.967  -1.924 -0.0226  0.2390 -0.5787
  486MOL0     C65520   9.962  12.158  -1.541 -0.1220 -0.0711 -0.6067
  486MOL0     C65521   9.846  12.130  -1.468  0.0794  0.0776 -0.5182
  486MOL0     O65522   9.563  12.135  -1.372  0.0377 -0.6880  0.4327
  486MOL0     C65523   9.381  12.052  -1.165  0.7816  0.5103  0.9291
  486MOL0     C65524   9.301  11.999  -1.059  0.0038 -0.2331  0.2828
  486MOL0     N65525   9.124  11.445  -0.518 -0.3003 -0.2082  0.4416
  486MOL0     N65526   9.108  11.325  -0.484 -0.5205  0.2187  0.1266
  486MOL0     C65527   8.205  10.745  -0.003  0.1911 -0.2449 -0.3295
  486MOL0     C65528   8.070  10.765   0.029  0.2467 -0.5997 -0.1992
  486MOL0     C65529   7.625  10.761   0.092 -1.0282 -0.0651 -0.2941
  486MOL0     C65530   7.569  10.859   0.172 -0.1569  0.3736  0.9933
  486MOL0     C65531   7.432  10.876   0.167 -0.1918  0.1898 -0.1701
  486MOL0     C65532   7.346  10.799   0.089  0.7163  0.0612  0.8360
  486MOL0     O65533   7.204  10.814   0.077 -0.2260  0.9006 -0.1396
  486MOL0     C65534   7.134  10.909   0.164 -0.0339  0.3951 -0.2171
  486MOL0     C65535   7.143  11.048   0.110 -0.3941 -1.3030  0.8646
  486MOL0     C65536   7.016  11.121   0.128  0.7104 -0.3718 -0.9385
  486MOL0     C65537   7.020  11.265   0.073  0.2549 -0.0036  0.3125
  486MOL0     C65538   6.893  11.325   0.091  0.6602  0.4554  0.2870
  486MOL0     C65539   6.784  11.387   0.103  0.2502  0.3990  0.3742
  486MOL0     C65540   7.403  10.690   0.028 -0.2506 -0.2753 -0.1721
  486MOL0     C65541   7.538  10.671   0.031 -0.3730  0.0131  0.9144
  486MOL0     C65542   7.601  10.552  -0.033  0.3103  0.1927  0.1285
  486MOL0     H65543   7.924  10.524  -0.166  0.3758 -1.0301  1.2854
  486MOL0     H65544   8.169  10.485  -0.221 -0.4438 -1.4247  2.2087
  486MOL0     H65545   8.411  10.444  -0.238  1.2382  0.3636  1.1740
  486MOL0     H65546   8.358  10.574  -0.338  0.7848 -3.1423 -2.0191
  486MOL0     H65547   8.589  10.541  -0.381  1.2349  2.6704 -1.6541
  486MOL0     H65548   8.630  10.550  -0.208 -1.7013  1.2224  1.8416
  486MOL0     H65549   8.584  10.772  -0.198  0.0332 -2.0614  0.0303
  486MOL0     H65550   8.502  10.779  -0.348 -0.5465 -0.5043  1.1854
  486MOL0     H65551   8.801  10.771  -0.315  0.4702 -1.6328 -2.0799
  486MOL0     H65552   8.734  10.704  -0.446  2.6013 -0.9873  1.7804
  486MOL0     H65553   8.615  10.946  -0.483  1.0624 -1.8640 -2.0967
  486MOL0     H65554   8.703  10.981  -0.333 -0.2400  0.4678  0.4162
  486MOL0     H65555   8.912  10.926  -0.440 -1.6195  0.4630  0.9047
  486MOL0     H65556   8.837  10.914  -0.604 -1.1655  2.2503 -0.7728
  486MOL0     H65557   8.818  11.166  -0.432  1.0397 -0.2523  0.9984
  486MOL0     H65558   8.767  11.137  -0.601  0.3678  1.8145 -0.2614
  486MOL0     H65559   9.055  11.082  -0.529  0.3668 -0.9226  0.3786
  486MOL0     H65560   8.971  11.092  -0.686 -0.4332 -1.6742  1.4695
  486MOL0     H65561   8.874  11.364  -0.712 -0.4604 -0.6439 -0.1563
  486MOL0     H65562   8.892  11.661  -0.669 -0.0074  2.0265  2.2829
  486MOL0     H65563   9.009  11.686  -0.540  0.6140  0.8006  0.2328
  486MOL0     H65564   9.108  11.612  -0.821  1.6389  0.9774 -0.8453
  486MOL0     H65565   9.048  11.771  -0.800 -2.9799 -0.5960  1.2083
  486MOL0     H65566   9.249  11.674  -0.597  0.7916  0.4781 -0.1561
  486MOL0     H65567   9.184  11.834  -0.599  0.6152 -0.0781  0.1685
  486MOL0     H65568   9.358  11.697  -0.822 -2.0931 -2.1854  1.1638
  486MOL0     H65569   9.418  11.814  -0.710  1.5662 -1.1805 -1.7194
  486MOL0     H65570   9.564  11.879  -0.873  3.1558  2.4358 -0.3327
  486MOL0     H65571   9.684  11.948  -1.055  0.0571 -1.0430 -1.2033
  486MOL0     H65572   9.928  11.859  -1.293 -1.2850  0.5337  0.4770
  486MOL0     H65573  10.138  11.885  -1.413 -0.0788 -0.1176 -0.6426
  486MOL0     H65574  10.394  12.059  -1.576 -0.7293 -0.0322  2.7772
  486MOL0     H65575  10.322  11.955  -1.477 -2.3302  1.4958  2.2534
  486MOL0     H65576  10.200  11.855  -1.705  0.1644 -0.6863 -0.4457
  486MOL0     H65577  10.318  11.987  -1.763  3.4556  0.2564  1.4652
  486MOL0     H65578  10.398  11.745  -1.584  2.9384  0.6684 -0.5052
  486MOL0     H65579  10.358  11.725  -1.760 -0.7500  0.2534 -0.2388
  486MOL0     H65580  10.562  11.921  -1.646  1.6775  0.0428 -0.2636
  486MOL0     H65581  10.540  11.872  -1.815  1.9717 -1.3545 -0.4915
  486MOL0     H65582  10.584  11.633  -1.757 -1.1477  1.3256 -0.6212
  486MOL0     H65583  10.643  11.682  -1.597 -0.5258 -0.2745  0.4672
  486MOL0     H65584  10.805  11.631  -1.764 -1.1855 -0.6460  1.0057
  486MOL0     H65585  10.765  11.750  -1.883  3.3862 -0.4010  0.1849
  486MOL0     H65586  10.913  11.767  -1.624  1.5729 -0.0684 -0.7182
  486MOL0     H65587  10.811  11.907  -1.659 -0.2158 -1.4497  2.2300
  486MOL0     H65588  11.046  11.916  -1.749  1.0117 -1.8693  0.7150
  486MOL0     H65589  11.024  11.780  -1.855 -0.8964 -0.6857 -0.5731
  486MOL0     H65590   9.969  12.248  -1.601 -2.1376  0.2617 -0.4106
  486MOL0     H65591   9.772  12.197  -1.509 -1.9066 -0.9949  1.1334
  486MOL0     H65592   9.330  12.115  -1.238 -0.7689 -1.9841 -0.2958
  486MOL0     H65593   9.196  12.024  -1.050 -0.5880 -1.5196 -2.0138
  486MOL0     H65594   8.283  10.803   0.044  1.2619 -1.3813 -0.6494
  486MOL0     H65595   8.061  10.847   0.100  1.5789 -0.6344  0.0311
  486MOL0     H65596   7.632  10.935   0.216 -0.0935 -0.0357  1.6135
  486MOL0     H65597   7.404  10.953   0.237 -0.6080 -0.3092  0.2181
  486MOL0     H65598   7.165  10.908   0.269  0.4573  3.4265 -0.2506
  486MOL0     H65599   7.032  10.870   0.167 -0.2572  1.0210  1.2075
  486MOL0     H65600   7.168  11.044   0.004 -1.4573  0.8259  0.4649
  486MOL0     H65601   7.223  11.100   0.163 -0.6993 -1.2860  1.3172
  486MOL0     H65602   6.995  11.124   0.236  2.2917 -3.1564 -0.4480
  486MOL0     H65603   6.938  11.067   0.073 -2.7263  0.6517  2.4590
  486MOL0     H65604   7.103  11.325   0.111  1.3513 -2.3365  1.8901
  486MOL0     H65605   7.039  11.253  -0.034 -0.3929 -1.2111  0.3085
  486MOL0     H65606   6.694  11.438   0.130  0.8362  1.0718  1.1113
  486MOL0     H65607   7.348  10.626  -0.039  0.8288  0.0440 -1.4110
  486MOL0     H65608   7.652  10.578  -0.126  2.0620  0.5142  1.1412
  486MOL0     H65609   7.669  10.519   0.046 -2.1686 -0.1589  2.2576
  486MOL0     H65610   7.524  10.475  -0.045  0.4004 -0.0265  0.9291
  487MOL0     O65611   4.686  11.304  10.363  0.1514 -0.5434 -0.2532
  487MOL0     C65612   4.669  11.360  10.472  0.5029 -0.2841  0.6215
  487MOL0     O65613   4.756  11.355  10.579 -0.0617 -0.0459 -0.3443
  487MOL0     C65614   4.871  11.287  10.581  0.6734 -0.2909 -0.2902
  487MOL0     C65615   4.976  11.295  10.492 -0.0398 -0.5697 -0.5138
  487MOL0     C65616   5.084  11.204  10.502  0.6508  0.1491  0.3904
  487MOL0     C65617   5.088  11.111  10.602  0.0932  0.1539  0.9290
  487MOL0     O65618   5.196  11.024  10.607  1.1357  0.2689 -0.7517
  487MOL0     C65619   5.200  10.914  10.698  0.1919  0.4804 -0.2263
  487MOL0     C65620   5.294  10.809  10.630 -0.6885  0.4927  0.2721
  487MOL0     C65621   5.440  10.837  10.649  0.0518  0.8266  0.5865
  487MOL0     C65622   5.523  10.708  10.638 -0.0502  0.1401 -0.6685
  487MOL0     C65623   5.669  10.742  10.681  0.5059  0.1412  0.5183
  487MOL0     C65624   5.744  10.844  10.580  0.5453  0.4475 -0.5814
  487MOL0     C65625   5.879  10.874  10.644 -0.8987  0.6236  0.2926
  487MOL0     C65626   5.959  10.750  10.708 -0.6267 -0.5950 -1.1171
  487MOL0     N65627   6.099  10.791  10.720  0.9567 -0.5616 -0.3766
  487MOL0     C65628   6.205  10.785  10.627  0.3027  0.4271  0.4002
  487MOL0     C65629   6.318  10.817  10.693  0.8243  0.4131 -0.2936
  487MOL0     C65630   6.458  10.811  10.637  0.2760 -0.5271  0.1615
  487MOL0     C65631   6.501  10.954  10.593 -0.2820  0.1364 -0.2551
  487MOL0     C65632   6.648  10.957  10.539  0.1597  0.1976  0.7295
  487MOL0     C65633   6.759  10.927  10.637  0.0469 -1.1100 -0.1843
  487MOL0     O65634   6.763  10.788  10.663  0.1183  0.2545 -1.4765
  487MOL0     C65635   6.876  10.724  10.623  0.2214  0.2150 -0.1593
  487MOL0     C65636   6.869  10.619  10.529  0.2714 -0.4167  0.1466
  487MOL0     C65637   6.978  10.540  10.493 -0.9748  0.4191  0.0405
  487MOL0     C65638   7.105  10.564  10.550 -0.6174  0.8037 -0.3845
  487MOL0     C65639   7.217  10.473  10.528 -0.1103 -0.6765  0.2009
  487MOL0     O65640   7.341  10.533  10.541 -0.2883 -0.0630 -0.9050
  487MOL0     C65641   7.446  10.490  10.459  0.4141 -0.0988 -0.0017
  487MOL0     C65642   7.418  10.447  10.332 -0.0392 -0.4139  0.6446
  487MOL0     C65643   7.527  10.411  10.252  0.8086 -0.5388 -0.2680
  487MOL0     C65644   7.654  10.402  10.307 -0.6692  0.6103  0.9107
  487MOL0     O65645   7.763  10.367  10.222 -0.1392  0.1933 -0.3035
  487MOL0     C65646   7.753  10.285  10.107  1.5140  0.8353  0.4898
  487MOL0     C65647   7.880  10.226  10.069 -0.0930  0.3645  0.2349
  487MOL0     C65648   8.005  10.316  10.103 -0.1185  0.2267  0.5925
  487MOL0     C65649   8.004  10.449  10.016 -0.2517 -0.4403 -0.6872
  487MOL0     C65650   8.148  10.517  10.004 -0.0761 -1.0831 -0.5463
  487MOL0     C65651   8.156  10.635   9.898  0.6347 -0.1248  0.7962
  487MOL0     C65652   8.147  10.590   9.750  0.6246 -0.2719  0.7332
  487MOL0     C65653   8.128  10.712   9.656 -0.8185  0.5453 -0.0681
  487MOL0    Cl65654   8.141  10.670   9.485  0.2499 -0.2423 -0.2835
  487MOL0     C65655   7.672  10.435  10.445  0.0526 -0.1089 -0.7540
  487MOL0     C65656   7.571  10.493  10.521 -0.8736  0.4191 -0.3201
  487MOL0     O65657   7.194  10.366  10.470  0.0075 -0.5251 -0.0753
  487MOL0     C65658   7.115  10.668  10.647  0.3274 -0.2009 -0.6230
  487MOL0     C65659   7.002  10.754  10.674 -0.0804  0.2064  0.0424
  487MOL0     N65660   6.288  10.866  10.823 -0.5071  0.4517  0.7222
  487MOL0     N65661   6.162  10.843  10.830 -0.0067 -0.2140  0.2341
  487MOL0     C65662   4.985  11.100  10.689  0.3417 -0.9772  0.2148
  487MOL0     C65663   4.874  11.182  10.674 -0.8567  0.9209  0.8448
  487MOL0     C65664   4.525  11.423  10.479  0.0540 -0.1767  0.3732
  487MOL0     C65665   4.444  11.423  10.362  0.1266  0.4958  0.5820
  487MOL0     C65666   4.317  11.479  10.368 -0.0959 -0.4305  0.7744
  487MOL0     C65667   4.257  11.532  10.482  0.2043  0.3576  0.9488
  487MOL0     O65668   4.129  11.578  10.470 -0.0322  0.2237  0.7466
  487MOL0     C65669   4.062  11.646  10.576 -0.1898  0.1984 -0.8256
  487MOL0     C65670   3.934  11.710  10.520  0.3201 -0.9251  0.2707
  487MOL0     C65671   3.846  11.610  10.453 -0.3121  0.7593  0.1940
  487MOL0     C65672   3.703  11.663  10.435  0.1635  0.5218 -0.2539
  487MOL0     C65673   3.704  11.755  10.322 -0.3100 -0.4102 -0.9021
  487MOL0     C65674   3.699  11.838  10.230  0.4500 -0.4145 -0.0681
  487MOL0     C65675   4.335  11.528  10.595 -0.7245 -0.2872  0.3201
  487MOL0     C65676   4.470  11.476  10.600 -0.5475 -0.3272  0.5430
  487MOL0     C65677   4.529  11.467  10.738 -0.4512  0.3572 -0.0135
  487MOL0     H65678   4.977  11.367  10.411  0.0360 -1.0971 -0.9835
  487MOL0     H65679   5.171  11.216  10.438  3.0464  1.1167  3.5548
  487MOL0     H65680   5.238  10.939  10.797  0.2616  1.0067 -0.3861
  487MOL0     H65681   5.104  10.861  10.705 -0.6102  1.7372 -1.2412
  487MOL0     H65682   5.255  10.794  10.529 -1.2882 -2.3588  0.8529
  487MOL0     H65683   5.283  10.721  10.694  1.4428 -0.1651 -0.1726
  487MOL0     H65684   5.453  10.879  10.749  1.7209 -0.5805  1.0198
  487MOL0     H65685   5.470  10.905  10.569 -2.2018  0.1800 -0.9240
  487MOL0     H65686   5.485  10.638  10.713 -0.3862 -0.6376 -1.5437
  487MOL0     H65687   5.520  10.658  10.541  3.7533 -1.3723 -0.1896
  487MOL0     H65688   5.659  10.785  10.781 -0.6805 -0.8976  0.8689
  487MOL0     H65689   5.721  10.647  10.692  0.6800  0.3169  1.2844
  487MOL0     H65690   5.751  10.811  10.476  1.9344  2.3900 -1.1578
  487MOL0     H65691   5.680  10.931  10.567 -1.7605 -0.9876  0.3961
  487MOL0     H65692   5.866  10.951  10.720  0.9407  1.9372 -0.6542
  487MOL0     H65693   5.935  10.916  10.560 -0.6306 -0.8759 -0.3224
  487MOL0     H65694   5.920  10.735  10.809 -0.5757 -0.5654 -1.0929
  487MOL0     H65695   5.951  10.657  10.651 -2.7299 -2.9908  2.6765
  487MOL0     H65696   6.203  10.741  10.528 -1.4598  2.3208 -0.4917
  487MOL0     H65697   6.525  10.781  10.719  2.7589 -1.0934 -1.9387
  487MOL0     H65698   6.453  10.743  10.551 -1.9702  0.1204 -0.2824
  487MOL0     H65699   6.432  10.997  10.520 -1.2508 -0.0982  0.4963
  487MOL0     H65700   6.491  11.028  10.673  0.5962  0.6793 -0.6281
  487MOL0     H65701   6.663  11.055  10.494 -1.1940  0.6636  1.2515
  487MOL0     H65702   6.653  10.890  10.452 -0.0819  2.1829 -0.8780
  487MOL0     H65703   6.741  10.984  10.729  1.0058 -1.0829 -0.0028
  487MOL0     H65704   6.858  10.959  10.606 -0.7514  1.7014 -0.0785
  487MOL0     H65705   6.776  10.588  10.483  1.3969 -0.6679 -2.0553
  487MOL0     H65706   6.952  10.464  10.420 -2.1479  0.6236  0.2297
  487MOL0     H65707   7.319  10.453  10.288  0.0023  0.7411  0.6628
  487MOL0     H65708   7.511  10.364  10.156 -0.6695 -1.8320  0.5487
  487MOL0     H65709   7.692  10.195  10.126  3.3927 -0.1982  1.9656
  487MOL0     H65710   7.700  10.326  10.020 -1.0737 -1.3836  0.8745
  487MOL0     H65711   7.897  10.128  10.114 -0.6753  1.1219  2.2175
  487MOL0     H65712   7.872  10.199   9.963 -3.3936 -2.1025  0.9603
  487MOL0     H65713   8.021  10.345  10.207  2.1529  1.0254  0.0849
  487MOL0     H65714   8.094  10.256  10.081 -0.6906 -0.7716  0.9313
  487MOL0     H65715   7.930  10.521  10.051  2.9680  3.2561 -0.8164
  487MOL0     H65716   7.973  10.405   9.920 -0.3364  0.9658 -1.3406
  487MOL0     H65717   8.220  10.437   9.987 -0.7699 -3.0027  4.2016
  487MOL0     H65718   8.183  10.568  10.094  0.0487  0.3139 -1.3485
  487MOL0     H65719   8.081  10.708   9.930 -1.9306 -2.3690  0.2594
  487MOL0     H65720   8.257  10.676   9.906  0.5644  0.2512 -0.1489
  487MOL0     H65721   8.082  10.502   9.739  0.3307 -0.0433  0.6400
  487MOL0     H65722   8.241  10.539   9.729  1.2725  0.4766  1.7548
  487MOL0     H65723   8.028  10.751   9.677 -2.3012 -2.7875 -0.2165
  487MOL0     H65724   8.204  10.788   9.676  0.2437 -0.3019 -0.7191
  487MOL0     H65725   7.770  10.433  10.492  0.2709 -0.2968 -1.2150
  487MOL0     H65726   7.589  10.536  10.618 -0.9469 -1.6847  0.6854
  487MOL0     H65727   7.210  10.691  10.695 -0.1137 -2.9292  1.8078
  487MOL0     H65728   7.003  10.827  10.754 -1.8060 -1.8565  2.0928
  487MOL0     H65729   4.986  11.024  10.766 -0.8772  1.4519  2.7835
  487MOL0     H65730   4.789  11.162  10.738 -1.3137  0.4778  0.1122
  487MOL0     H65731   4.472  11.359  10.279 -1.5524 -2.2536  1.9802
  487MOL0     H65732   4.248  11.478  10.285  0.0333  0.6589  0.6317
  487MOL0     H65733   4.132  11.719  10.617  4.4910 -3.1812 -1.9765
  487MOL0     H65734   4.046  11.581  10.663  0.5037 -0.4656 -1.1752
  487MOL0     H65735   3.965  11.789  10.450 -0.2845 -0.0993  0.9182
  487MOL0     H65736   3.891  11.766  10.603 -1.0220  1.2368 -1.7364
  487MOL0     H65737   3.838  11.524  10.519 -2.3101  0.1778 -0.7435
  487MOL0     H65738   3.891  11.577  10.359 -0.6934  0.8962 -0.0391
  487MOL0     H65739   3.641  11.576  10.409  3.3316 -1.6875 -1.0715
  487MOL0     H65740   3.675  11.718  10.526  1.7167  0.2746  0.4087
  487MOL0     H65741   3.697  11.914  10.154  2.1828  0.9365  1.1687
  487MOL0     H65742   4.303  11.562  10.693  1.4228  0.5726  0.7799
  487MOL0     H65743   4.629  11.511  10.743 -0.7970  1.0032  2.3261
  487MOL0     H65744   4.462  11.515  10.809  1.1960 -0.3676  2.1318
  487MOL0     H65745   4.547  11.361  10.757  0.6833  0.1902 -1.7703
  488MOL0     O65746   9.279   5.186   7.647  0.3969 -0.6833  0.2055
  488MOL0     C65747   9.271   5.214   7.764 -0.5148  0.1514  0.2641
  488MOL0     O65748   9.376   5.266   7.832 -0.7910 -0.7348 -0.0897
  488MOL0     C65749   9.501   5.274   7.771  0.8690 -0.0567  0.4803
  488MOL0     C65750   9.588   5.161   7.761  0.0005  1.1130  0.3058
  488MOL0     C65751   9.710   5.172   7.686 -0.5094  0.2627 -0.5604
  488MOL0     C65752   9.748   5.292   7.628  0.7312 -0.6749 -0.0906
  488MOL0     O65753   9.868   5.298   7.563  0.2183  0.0240  0.0113
  488MOL0     C65754   9.910   5.407   7.480  0.3374  0.9307 -0.6927
  488MOL0     C65755  10.053   5.365   7.432  0.3848  1.0607 -0.3151
  488MOL0     C65756  10.145   5.487   7.399  0.3802 -0.4214  0.8134
  488MOL0     C65757  10.266   5.452   7.315 -0.1753 -0.5527  0.5965
  488MOL0     C65758  10.309   5.585   7.266 -0.9473 -0.2676 -0.7007
  488MOL0     C65759  10.439   5.587   7.187  0.1130  0.6360 -0.2650
  488MOL0     C65760  10.488   5.718   7.123 -0.2784 -0.1409 -1.1076
  488MOL0     C65761  10.608   5.714   7.035  0.6351 -0.0883  0.2333
  488MOL0     N65762  10.719   5.662   7.111 -0.6784 -0.3331 -0.6345
  488MOL0     C65763  10.793   5.551   7.084 -0.3642  0.0112 -0.1308
  488MOL0     C65764  10.910   5.577   7.152 -0.0474 -0.0263 -0.4321
  488MOL0     C65765  11.031   5.486   7.155  0.5950  0.2341  0.4790
  488MOL0     C65766  11.154   5.532   7.238  0.1485 -0.3937 -0.0973
  488MOL0     C65767  11.141   5.525   7.392 -0.0722  0.2996  0.0155
  488MOL0     C65768  11.262   5.577   7.454  0.4283 -0.4324  0.3722
  488MOL0     O65769  11.373   5.510   7.402 -0.3364  0.1386  0.4859
  488MOL0     C65770  11.492   5.527   7.465 -0.4261 -0.1414  0.3921
  488MOL0     C65771  11.601   5.493   7.378  0.5738  0.0491 -0.0061
  488MOL0     C65772  11.735   5.494   7.419 -0.7876 -0.2095  0.4000
  488MOL0     C65773  11.770   5.545   7.545  0.2921  0.6828 -0.1952
  488MOL0     C65774  11.906   5.567   7.593  0.7947 -0.5383 -0.3803
  488MOL0     O65775  11.936   5.679   7.673  0.3242 -0.1531 -0.3019
  488MOL0     C65776  12.054   5.688   7.736 -0.4412 -0.1333  0.4011
  488MOL0     C65777  12.158   5.729   7.646 -1.2963 -0.8364 -0.9312
  488MOL0     C65778  12.287   5.760   7.694  0.0740  0.3909  0.1551
  488MOL0     C65779  12.309   5.749   7.835  0.5494 -0.6373  0.0630
  488MOL0     O65780  12.427   5.763   7.900 -0.0361 -0.0322 -0.6833
  488MOL0     C65781  12.491   5.889   7.887 -0.1648 -0.0963 -0.1787
  488MOL0     C65782  12.589   5.918   8.006  0.7087  1.0826  0.3338
  488MOL0     C65783  12.713   5.836   7.977  0.7864 -0.2252 -0.5132
  488MOL0     C65784  12.819   5.871   8.086 -0.0058  0.7974  0.2955
  488MOL0     C65785  12.966   5.826   8.059 -0.5746  0.2263 -1.1469
  488MOL0     C65786  13.060   5.849   8.171  0.4280  0.0936 -0.2217
  488MOL0     C65787  13.075   5.999   8.206  0.2488 -0.4512  0.3065
  488MOL0     C65788  13.128   6.005   8.351 -0.8755 -0.0663  0.7167
  488MOL0    Cl65789  13.276   5.893   8.369  0.3883  0.0948  0.3317
  488MOL0     C65790  12.205   5.700   7.916  0.6632  0.1297  0.1945
  488MOL0     C65791  12.072   5.673   7.873 -0.4848  0.1608 -0.2541
  488MOL0     O65792  11.982   5.478   7.562  0.0867 -0.5306  0.4015
  488MOL0     C65793  11.656   5.592   7.622 -0.0929  0.2761  0.0481
  488MOL0     C65794  11.524   5.583   7.588 -0.2243 -0.2536  0.6809
  488MOL0     N65795  10.901   5.697   7.221  0.3282 -0.7127 -0.1488
  488MOL0     N65796  10.782   5.740   7.204 -0.3265 -0.1338  0.4683
  488MOL0     C65797   9.658   5.405   7.651  0.3328  0.5520  0.3710
  488MOL0     C65798   9.541   5.394   7.716  0.8078 -0.4673 -0.4290
  488MOL0     C65799   9.144   5.214   7.842 -0.9893  1.0910  0.7726
  488MOL0     C65800   9.140   5.285   7.966  0.3136 -0.4644 -0.0448
  488MOL0     C65801   9.026   5.286   8.042  0.4822  0.1793  0.7689
  488MOL0     C65802   8.915   5.209   8.011 -0.9460  0.1135  0.5148
  488MOL0     O65803   8.801   5.214   8.078  0.5584 -0.1711  0.2397
  488MOL0     C65804   8.805   5.186   8.216 -0.4605  0.4145 -0.2730
  488MOL0     C65805   8.864   5.042   8.239  0.6591 -0.3625  0.0707
  488MOL0     C65806   8.764   4.932   8.189  0.9381 -0.2248  0.2277
  488MOL0     C65807   8.636   4.897   8.268  0.1713 -0.5899  0.7570
  488MOL0     C65808   8.533   4.828   8.189 -0.0436 -0.7212  0.0936
  488MOL0     C65809   8.445   4.786   8.124 -0.4693  0.1747  0.0907
  488MOL0     C65810   8.920   5.138   7.890 -0.2279  0.0979  0.3978
  488MOL0     C65811   9.029   5.134   7.796  0.2220 -0.5607  0.1596
  488MOL0     C65812   9.022   5.062   7.669 -0.0303 -0.2098 -0.2695
  488MOL0     H65813   9.561   5.058   7.785 -2.2376  1.7596  0.8150
  488MOL0     H65814   9.771   5.082   7.676 -0.7839 -0.0454  0.4492
  488MOL0     H65815   9.842   5.425   7.396  0.4814  0.4882 -0.9072
  488MOL0     H65816   9.913   5.499   7.539  0.5335 -1.6090  3.6165
  488MOL0     H65817  10.046   5.319   7.332  3.5059 -1.7474  0.5459
  488MOL0     H65818  10.106   5.292   7.494 -1.3071 -1.0241 -1.1771
  488MOL0     H65819  10.172   5.538   7.492  0.4113 -1.4742  1.3865
  488MOL0     H65820  10.087   5.561   7.342  0.5728 -1.3246 -0.6215
  488MOL0     H65821  10.337   5.389   7.369 -0.1061  0.4328  1.6953
  488MOL0     H65822  10.238   5.393   7.227  2.1826  0.4575 -0.9152
  488MOL0     H65823  10.237   5.635   7.201  0.8417  0.6526 -2.0739
  488MOL0     H65824  10.324   5.654   7.350 -2.1756  1.2549 -1.6822
  488MOL0     H65825  10.514   5.530   7.243 -1.0150  0.5300  1.1944
  488MOL0     H65826  10.416   5.518   7.106 -1.0848  1.7022 -0.8619
  488MOL0     H65827  10.500   5.786   7.208 -2.6139 -0.9532 -0.0391
  488MOL0     H65828  10.411   5.775   7.070 -0.1049  0.5441 -0.6216
  488MOL0     H65829  10.596   5.657   6.942 -0.6932  0.4955  0.0219
  488MOL0     H65830  10.623   5.821   7.016 -2.2491  0.9485  2.8467
  488MOL0     H65831  10.774   5.470   7.014 -0.4165  0.6348 -0.8599
  488MOL0     H65832  11.006   5.382   7.177  1.6920  0.0108  0.7334
  488MOL0     H65833  11.061   5.476   7.050 -1.9264 -1.8522 -0.1323
  488MOL0     H65834  11.238   5.479   7.194 -0.3039 -0.1284 -1.3153
  488MOL0     H65835  11.161   5.640   7.221  0.1667 -0.1808  1.1296
  488MOL0     H65836  11.110   5.427   7.428  1.2050  0.3368  1.2979
  488MOL0     H65837  11.055   5.586   7.420 -0.3742  0.4920 -1.2533
  488MOL0     H65838  11.255   5.568   7.563  3.7068 -0.3267  0.6689
  488MOL0     H65839  11.288   5.680   7.431  1.9961 -0.7120  0.7581
  488MOL0     H65840  11.575   5.455   7.280  3.1594  1.9655 -1.5527
  488MOL0     H65841  11.811   5.453   7.354 -0.0045  1.2934  0.3424
  488MOL0     H65842  12.149   5.737   7.538  0.3403  0.3890 -1.0152
  488MOL0     H65843  12.362   5.789   7.620 -1.2485 -1.7542 -2.1609
  488MOL0     H65844  12.562   5.894   7.804  1.8207  3.9312  1.4546
  488MOL0     H65845  12.412   5.965   7.882 -1.2920 -1.2716 -0.6494
  488MOL0     H65846  12.606   6.024   8.025 -0.5163  0.8111  3.5155
  488MOL0     H65847  12.538   5.890   8.099  0.1933  1.5253  0.1906
  488MOL0     H65848  12.694   5.729   7.976  2.4677 -0.5551  0.3701
  488MOL0     H65849  12.754   5.862   7.878 -0.8486  0.7759 -0.9740
  488MOL0     H65850  12.785   5.815   8.174  0.6905  1.7035  1.1663
  488MOL0     H65851  12.807   5.977   8.109 -2.0404  1.0898 -1.8216
  488MOL0     H65852  13.001   5.885   7.974 -2.1363  0.9974 -1.2983
  488MOL0     H65853  12.972   5.724   8.019  1.5125 -0.0139 -0.3415
  488MOL0     H65854  13.029   5.784   8.253  1.4952 -0.8939 -0.5791
  488MOL0     H65855  13.155   5.810   8.134 -0.1919  0.5538 -2.4675
  488MOL0     H65856  12.988   6.064   8.197  2.0006  2.0935  0.6317
  488MOL0     H65857  13.152   6.038   8.140  0.5061  1.1882  1.4953
  488MOL0     H65858  13.161   6.107   8.372  1.9683 -0.5253 -1.0481
  488MOL0     H65859  13.053   5.972   8.424 -0.3684 -2.4645  0.2172
  488MOL0     H65860  12.217   5.679   8.022 -3.3733 -0.2997  0.7114
  488MOL0     H65861  11.992   5.641   7.939 -1.4337  0.3537 -1.2776
  488MOL0     H65862  11.664   5.612   7.728 -0.4219  0.6478  0.0038
  488MOL0     H65863  11.453   5.615   7.664  1.0897  0.0395  1.8146
  488MOL0     H65864   9.677   5.507   7.618 -2.1810  1.8661  2.5569
  488MOL0     H65865   9.473   5.477   7.729 -1.0407 -1.8062 -1.2212
  488MOL0     H65866   9.225   5.346   7.997  0.1539  0.7901 -1.9177
  488MOL0     H65867   9.037   5.345   8.132 -1.3030  2.0216 -0.1382
  488MOL0     H65868   8.712   5.222   8.264  1.1610  1.9936  1.9319
  488MOL0     H65869   8.885   5.244   8.264 -0.4774 -0.3663  0.7467
  488MOL0     H65870   8.875   5.029   8.347  1.1496  1.4080  0.2641
  488MOL0     H65871   8.962   5.033   8.192 -0.3162 -1.6264 -1.8656
  488MOL0     H65872   8.817   4.840   8.162  1.9407  0.0431  1.2124
  488MOL0     H65873   8.719   4.959   8.093 -0.1582 -1.1081  0.4680
  488MOL0     H65874   8.666   4.836   8.354 -0.1329  0.6745  1.7776
  488MOL0     H65875   8.595   4.993   8.298 -0.4669 -1.1787  1.8121
  488MOL0     H65876   8.373   4.735   8.065  1.2002 -0.5811 -1.4007
  488MOL0     H65877   8.837   5.068   7.881 -1.7181  1.7880  0.4614
  488MOL0     H65878   9.035   5.118   7.576  0.1097 -1.4373 -1.0108
  488MOL0     H65879   9.100   4.986   7.680 -0.3856 -0.2462  3.3563
  488MOL0     H65880   8.926   5.013   7.655 -1.0795  1.4465  0.8594
  489MOL0     O65881   2.442   3.794   4.063  0.0779 -0.3602 -1.1352
  489MOL0     C65882   2.395   3.686   4.066  0.0366 -0.0177  0.3602
  489MOL0     O65883   2.475   3.575   4.090 -0.0195  0.2473  0.3685
  489MOL0     C65884   2.613   3.564   4.091  0.9895 -0.1420  0.0512
  489MOL0     C65885   2.687   3.646   4.174 -0.3175 -0.3766  0.4840
  489MOL0     C65886   2.826   3.640   4.170  0.4830 -0.1185 -0.2374
  489MOL0     C65887   2.887   3.534   4.106 -0.5658 -0.0307 -0.7845
  489MOL0     O65888   3.022   3.512   4.122  0.5103  0.1531 -0.1195
  489MOL0     C65889   3.109   3.621   4.158 -0.2029  0.4314  0.3365
  489MOL0     C65890   3.247   3.580   4.104  1.4598 -0.6267  0.2638
  489MOL0     C65891   3.344   3.693   4.133  0.5095 -0.0281  0.3514
  489MOL0     C65892   3.480   3.636   4.123 -0.0793  1.0192  0.1989
  489MOL0     C65893   3.584   3.745   4.156  0.7815  0.6060  0.2664
  489MOL0     C65894   3.724   3.686   4.155  0.2784  0.7460 -0.1028
  489MOL0     C65895   3.822   3.799   4.168  0.1366 -0.3341 -0.3234
  489MOL0     C65896   3.966   3.755   4.161 -0.1868 -0.2764 -1.0317
  489MOL0     N65897   4.063   3.868   4.169 -0.4973 -0.9797 -0.2070
  489MOL0     C65898   4.050   3.977   4.258  0.6103  0.8479  0.1195
  489MOL0     C65899   4.151   4.062   4.244 -0.2337  0.0932 -0.1304
  489MOL0     C65900   4.180   4.188   4.316 -0.5710 -1.1311 -0.0862
  489MOL0     C65901   4.328   4.218   4.358  0.5516  0.0556  0.3215
  489MOL0     C65902   4.374   4.133   4.479  0.1427 -0.3654 -0.3972
  489MOL0     C65903   4.513   4.178   4.523 -0.3788 -0.1600 -0.3395
  489MOL0     O65904   4.506   4.311   4.577 -0.1151 -0.4892 -0.3760
  489MOL0     C65905   4.609   4.366   4.646  0.5863  0.1917 -0.0097
  489MOL0     C65906   4.594   4.489   4.705  0.2787 -0.1955 -0.1555
  489MOL0     C65907   4.708   4.546   4.770 -0.6735  0.4440 -0.5373
  489MOL0     C65908   4.827   4.472   4.790 -1.1490 -0.8179  0.0676
  489MOL0     C65909   4.933   4.525   4.867  0.0469 -0.3317  0.5581
  489MOL0     O65910   5.039   4.445   4.905 -0.2644 -0.4801  0.1120
  489MOL0     C65911   5.148   4.509   4.960  0.1222  0.9968 -0.2891
  489MOL0     C65912   5.186   4.459   5.089 -0.3699 -0.3634  0.1643
  489MOL0     C65913   5.314   4.490   5.139 -1.1360 -0.0467  0.9746
  489MOL0     C65914   5.393   4.585   5.075  0.0415 -0.5028  0.0787
  489MOL0     O65915   5.512   4.632   5.128 -0.5194 -0.2416 -0.0144
  489MOL0     C65916   5.562   4.771   5.132 -0.1688 -0.6436 -0.1074
  489MOL0     C65917   5.690   4.794   5.046  0.8038 -0.3733  0.0667
  489MOL0     C65918   5.801   4.693   5.057 -0.2547  0.4288  0.4354
  489MOL0     C65919   5.925   4.755   5.004  0.1971  0.6937 -0.3440
  489MOL0     C65920   6.045   4.671   5.043  0.0848  0.6215  0.5861
  489MOL0     C65921   6.082   4.689   5.194  0.1112  0.5609 -0.7449
  489MOL0     C65922   6.191   4.589   5.237 -0.2343  0.0543 -0.3420
  489MOL0     C65923   6.309   4.665   5.297 -0.1911 -0.2794  0.1762
  489MOL0    Cl65924   6.266   4.726   5.460  0.0909 -0.3402  0.6185
  489MOL0     C65925   5.349   4.645   4.959 -0.0271 -0.1893  0.7799
  489MOL0     C65926   5.231   4.600   4.896 -1.1143 -0.6006 -0.2483
  489MOL0     O65927   4.936   4.649   4.870  0.3239 -0.3797 -0.5529
  489MOL0     C65928   4.834   4.341   4.741  1.3787  0.5862 -0.7356
  489MOL0     C65929   4.729   4.296   4.677  0.5409  0.5506  0.6504
  489MOL0     N65930   4.224   4.007   4.138  0.0439 -0.0697 -0.5512
  489MOL0     N65931   4.170   3.899   4.095  0.1198  0.6634 -0.3048
  489MOL0     C65932   2.810   3.442   4.028 -0.0705 -0.6362 -0.2493
  489MOL0     C65933   2.671   3.460   4.015 -0.2049  0.3569  0.3983
  489MOL0     C65934   2.252   3.664   4.057  0.8450  1.1274 -0.3370
  489MOL0     C65935   2.199   3.539   4.097  0.3442  0.1059  0.2331
  489MOL0     C65936   2.063   3.514   4.092 -0.4103  0.2333  0.1283
  489MOL0     C65937   1.972   3.614   4.053  0.4625 -0.5106  1.0013
  489MOL0     O65938   1.835   3.591   4.048  0.2854 -0.8544 -0.0905
  489MOL0     C65939   1.785   3.463   4.001  0.3068 -0.4035  0.4527
  489MOL0     C65940   1.676   3.409   4.090  0.1844  0.2007 -0.3434
  489MOL0     C65941   1.542   3.482   4.104 -0.1143  0.1411  0.0408
  489MOL0     C65942   1.432   3.441   4.004  0.2804 -0.3327 -0.6950
  489MOL0     C65943   1.480   3.481   3.876  0.7435  1.0769  1.0569
  489MOL0     C65944   1.513   3.507   3.764 -0.1783  0.3026  0.0626
  489MOL0     C65945   2.020   3.740   4.008 -0.3550 -0.8004 -0.1273
  489MOL0     C65946   2.155   3.764   4.013 -0.4907 -0.2469  0.2359
  489MOL0     C65947   2.192   3.909   3.992 -0.4173  0.2960  0.4886
  489MOL0     H65948   2.627   3.722   4.221 -0.0385 -0.1012  0.3959
  489MOL0     H65949   2.881   3.714   4.226 -3.9207  1.1015  3.0206
  489MOL0     H65950   3.078   3.708   4.099 -0.3105 -1.1552 -2.1281
  489MOL0     H65951   3.091   3.648   4.262 -2.5628  0.3118  0.0297
  489MOL0     H65952   3.236   3.559   3.997  0.2730  2.3525 -0.2873
  489MOL0     H65953   3.275   3.498   4.171  0.9492  0.7485  2.2574
  489MOL0     H65954   3.312   3.730   4.230 -1.6438  2.6148 -1.2213
  489MOL0     H65955   3.318   3.769   4.058  0.2045 -0.8350 -0.3773
  489MOL0     H65956   3.495   3.545   4.181 -0.9597  0.5635 -0.2737
  489MOL0     H65957   3.499   3.614   4.018  0.7508  1.1639  0.3102
  489MOL0     H65958   3.571   3.831   4.089  1.6168  1.9035  1.6754
  489MOL0     H65959   3.568   3.774   4.260 -1.8229  0.0036  0.1009
  489MOL0     H65960   3.741   3.619   4.239 -0.4822  0.5749 -0.0733
  489MOL0     H65961   3.750   3.632   4.063 -2.3017  0.0933 -0.5298
  489MOL0     H65962   3.789   3.852   4.258  0.4835  1.2106 -1.0738
  489MOL0     H65963   3.812   3.878   4.093  0.3249  0.7366  0.7313
  489MOL0     H65964   3.984   3.707   4.257 -1.8062  2.1558  0.6089
  489MOL0     H65965   3.987   3.688   4.077 -0.7707  0.5471 -1.8626
  489MOL0     H65966   3.967   3.985   4.327 -0.9544  0.3158 -1.6179
  489MOL0     H65967   4.142   4.274   4.261  1.9718 -0.4127 -0.8545
  489MOL0     H65968   4.126   4.185   4.411  0.7452  2.2050  0.9274
  489MOL0     H65969   4.393   4.192   4.273  0.7477 -0.2125  0.5513
  489MOL0     H65970   4.343   4.324   4.375  0.3757  0.1526 -0.0968
  489MOL0     H65971   4.382   4.026   4.460 -2.4987 -1.3687  3.0970
  489MOL0     H65972   4.297   4.144   4.556 -1.4291 -2.4111 -1.5955
  489MOL0     H65973   4.567   4.180   4.427  0.4601  2.0372  0.1007
  489MOL0     H65974   4.555   4.111   4.598 -1.2931  0.0534  0.3736
  489MOL0     H65975   4.500   4.542   4.696  0.3026 -0.0310  0.5645
  489MOL0     H65976   4.708   4.641   4.824 -1.3369 -0.4381  1.1042
  489MOL0     H65977   5.105   4.409   5.142  0.6893  0.9881  3.2562
  489MOL0     H65978   5.351   4.453   5.234 -0.4559  0.1641  0.7922
  489MOL0     H65979   5.486   4.839   5.094  1.8488  0.7602 -1.8269
  489MOL0     H65980   5.583   4.787   5.238  0.3167 -0.2186 -0.2637
  489MOL0     H65981   5.661   4.800   4.940  0.9807  0.9444  0.0696
  489MOL0     H65982   5.727   4.888   5.089 -1.7190 -0.5363  2.9638
  489MOL0     H65983   5.813   4.649   5.157  0.9055 -2.3550 -0.8438
  489MOL0     H65984   5.779   4.601   5.002  1.1902 -1.3708  2.6590
  489MOL0     H65985   5.932   4.856   5.044  0.7848  0.9104 -0.9805
  489MOL0     H65986   5.909   4.760   4.896 -1.4619 -0.8546 -0.2097
  489MOL0     H65987   6.118   4.702   4.967 -0.5166 -0.9546 -0.6978
  489MOL0     H65988   6.027   4.564   5.038 -1.4379  0.7583  2.2846
  489MOL0     H65989   6.121   4.791   5.205  2.1588 -0.2902  0.4556
  489MOL0     H65990   6.000   4.676   5.265  0.6660 -0.4564 -0.2785
  489MOL0     H65991   6.231   4.538   5.149  0.2373 -0.3306  0.0911
  489MOL0     H65992   6.151   4.506   5.296 -0.1634  0.6641  0.5887
  489MOL0     H65993   6.393   4.597   5.312 -0.6225 -0.4417  2.2378
  489MOL0     H65994   6.335   4.755   5.241 -1.6090  0.1334  0.1436
  489MOL0     H65995   5.399   4.727   4.909 -0.2269 -0.5277  0.0073
  489MOL0     H65996   5.206   4.622   4.792  0.5292 -0.0399 -0.5486
  489MOL0     H65997   4.925   4.283   4.756 -0.6167 -2.7658 -0.7741
  489MOL0     H65998   4.750   4.195   4.644  0.3377  0.2574  1.4015
  489MOL0     H65999   2.861   3.365   3.970  1.6419  1.2583 -1.3847
  489MOL0     H66000   2.602   3.405   3.952 -0.6370  1.5556 -0.1995
  489MOL0     H66001   2.258   3.451   4.122  1.7125  1.1838  0.9205
  489MOL0     H66002   2.028   3.417   4.126  0.6252  0.7747  3.0148
  489MOL0     H66003   1.868   3.392   3.995  0.0836 -0.6725  0.5082
  489MOL0     H66004   1.743   3.470   3.900 -0.3737  1.9537  0.8266
  489MOL0     H66005   1.722   3.393   4.188 -0.9465 -4.6261 -0.3699
  489MOL0     H66006   1.666   3.311   4.044 -1.5184 -0.1407  0.6626
  489MOL0     H66007   1.559   3.590   4.098  0.0252  0.1129 -0.1012
  489MOL0     H66008   1.505   3.458   4.204 -1.3491 -1.6178 -0.7992
  489MOL0     H66009   1.405   3.336   4.010  1.0567 -0.6107 -1.7183
  489MOL0     H66010   1.344   3.502   4.026  0.5037  0.4998 -1.9427
  489MOL0     H66011   1.561   3.527   3.671 -1.0391 -1.2008 -0.7464
  489MOL0     H66012   1.951   3.822   3.992  2.2339  1.5260 -0.1398
  489MOL0     H66013   2.219   3.946   4.091  1.7714 -2.5052  1.0671
  489MOL0     H66014   2.280   3.931   3.931 -1.9017  2.5200 -1.0264
  489MOL0     H66015   2.110   3.960   3.939 -0.3048 -1.4741 -1.5186
  490MOL0     O66016   0.070   2.634   2.638  0.2332 -0.3098 -0.7038
  490MOL0     C66017   0.004   2.600   2.540 -0.6160 -1.0907 -0.3635
  490MOL0     O66018   0.068   2.580   2.414  0.7578 -0.1272  0.4185
  490MOL0     C66019   0.206   2.586   2.407  0.7555  0.7902 -0.2245
  490MOL0     C66020   0.257   2.679   2.308 -0.1204  0.2052  0.0969
  490MOL0     C66021   0.399   2.687   2.292  1.6221  0.4833  0.5612
  490MOL0     C66022   0.490   2.596   2.354  0.1501 -0.3303  0.2769
  490MOL0     O66023   0.621   2.604   2.334 -0.5012  0.3103 -0.1577
  490MOL0     C66024   0.699   2.487   2.347 -0.5732  0.1884  0.0240
  490MOL0     C66025   0.818   2.477   2.244 -0.3338  0.1096 -0.4199
  490MOL0     C66026   0.902   2.351   2.267 -1.5091 -0.8181  0.4950
  490MOL0     C66027   1.027   2.373   2.175  0.2834 -0.5049 -0.3362
  490MOL0     C66028   1.143   2.293   2.231 -0.7682  1.0838  0.1033
  490MOL0     C66029   1.199   2.362   2.358 -0.6476 -0.4350 -0.1775
  490MOL0     C66030   1.349   2.342   2.383 -0.2514  0.1638 -0.0416
  490MOL0     C66031   1.446   2.387   2.270  0.1181 -0.1761  0.8230
  490MOL0     N66032   1.582   2.356   2.315 -0.7145 -0.4113  0.8858
  490MOL0     C66033   1.652   2.447   2.398 -0.3000  0.2423  0.2079
  490MOL0     C66034   1.769   2.383   2.422  0.6325  0.8083  0.0430
  490MOL0     C66035   1.886   2.428   2.500 -0.1914  0.1522  0.6522
  490MOL0     C66036   2.021   2.383   2.446 -0.4334  0.3998  0.9586
  490MOL0     C66037   2.120   2.427   2.553 -0.6038  0.0826 -0.9067
  490MOL0     C66038   2.266   2.374   2.532  0.0404  0.4220 -0.8205
  490MOL0     O66039   2.311   2.254   2.605  0.5090  0.1425 -0.0382
  490MOL0     C66040   2.370   2.271   2.724 -0.7590  0.1522 -0.1770
  490MOL0     C66041   2.368   2.381   2.808  0.3574  0.0223 -0.1209
  490MOL0     C66042   2.428   2.383   2.930 -0.1515 -0.2741 -0.6064
  490MOL0     C66043   2.485   2.262   2.983 -0.9994  0.0451  0.5081
  490MOL0     C66044   2.535   2.244   3.124 -0.0448 -0.2558  0.1527
  490MOL0     O66045   2.576   2.119   3.147 -0.0986  0.7439 -0.0607
  490MOL0     C66046   2.626   2.091   3.277  0.3142 -0.8761  0.2961
  490MOL0     C66047   2.756   2.042   3.304 -0.2859  0.4086  0.0723
  490MOL0     C66048   2.797   2.015   3.441 -0.6660 -0.1804 -0.4676
  490MOL0     C66049   2.708   2.027   3.547  0.0190  1.0047  0.0620
  490MOL0     O66050   2.735   2.003   3.681  0.3464 -0.7836  0.4150
  490MOL0     C66051   2.866   1.982   3.730 -0.0898  0.6667 -0.0509
  490MOL0     C66052   2.875   2.026   3.876 -0.3685 -0.1111 -0.8018
  490MOL0     C66053   3.002   1.988   3.949 -0.0976  0.5307  0.1496
  490MOL0     C66054   3.016   1.846   4.011 -0.4604  0.5613  0.1534
  490MOL0     C66055   3.162   1.811   4.066  0.4195 -0.9777 -0.0336
  490MOL0     C66056   3.180   1.868   4.209 -0.2093  0.9960  0.1594
  490MOL0     C66057   3.326   1.914   4.242 -0.0134  0.3897  0.1666
  490MOL0     C66058   3.443   1.820   4.205 -0.0004  0.4400 -0.2559
  490MOL0    Cl66059   3.420   1.667   4.296  0.1118 -0.1620  0.3425
  490MOL0     C66060   2.578   2.072   3.516  0.3102  0.0593  0.1803
  490MOL0     C66061   2.536   2.106   3.388 -0.1474 -0.7542  0.4141
  490MOL0     O66062   2.561   2.338   3.196 -0.0257 -0.6920 -0.5414
  490MOL0     C66063   2.477   2.152   2.896  0.0269  0.4869 -0.2326
  490MOL0     C66064   2.424   2.155   2.769 -0.1976 -0.4372 -0.3797
  490MOL0     N66065   1.765   2.256   2.362 -0.6553  0.2239  0.1401
  490MOL0     N66066   1.658   2.242   2.292 -0.3864 -0.2940 -0.6864
  490MOL0     C66067   0.429   2.509   2.451  0.8402 -1.1098 -0.1386
  490MOL0     C66068   0.293   2.510   2.482  0.9196 -0.0019  0.5934
  490MOL0     C66069  -0.143   2.598   2.561 -0.8939 -0.3704 -0.5581
  490MOL0     C66070  -0.219   2.564   2.448 -0.2777 -0.4772 -0.5915
  490MOL0     C66071  -0.358   2.569   2.448  0.1863 -0.1183 -0.4907
  490MOL0     C66072  -0.431   2.578   2.563  0.5376  0.4316 -0.3574
  490MOL0     O66073  -0.566   2.576   2.547  0.7885 -0.0860 -0.8397
  490MOL0     C66074  -0.645   2.530   2.660 -0.2932  0.1598  0.1757
  490MOL0     C66075  -0.770   2.617   2.650 -0.6693  0.8783 -0.8045
  490MOL0     C66076  -0.888   2.518   2.687  0.5482 -0.0550  0.2227
  490MOL0     C66077  -1.034   2.588   2.674  0.1411 -0.7679  0.7987
  490MOL0     C66078  -1.075   2.687   2.784  0.5560 -0.1711 -0.6574
  490MOL0     C66079  -1.113   2.762   2.874 -0.9508 -0.4251 -1.3462
  490MOL0     C66080  -0.356   2.596   2.684  0.2351  0.0816 -0.1860
  490MOL0     C66081  -0.214   2.606   2.687  0.4652  0.0638 -0.2183
  490MOL0     C66082  -0.147   2.634   2.816 -0.1187  0.3950  0.0444
  490MOL0     H66083   0.194   2.742   2.246 -0.2090 -2.3467 -2.6080
  490MOL0     H66084   0.420   2.763   2.217  0.0863  1.5297  1.1330
  490MOL0     H66085   0.735   2.491   2.450 -1.3447  0.7061  0.2856
  490MOL0     H66086   0.639   2.396   2.335  0.8323 -0.8645  0.7329
  490MOL0     H66087   0.863   2.576   2.252 -2.3052  1.0857 -0.7430
  490MOL0     H66088   0.780   2.464   2.142 -3.8128 -2.2203  0.9769
  490MOL0     H66089   0.840   2.264   2.244 -1.1163 -1.4094  1.6054
  490MOL0     H66090   0.930   2.342   2.372 -1.1161 -2.5996  0.2601
  490MOL0     H66091   0.994   2.338   2.077 -1.9704 -1.6447  0.7393
  490MOL0     H66092   1.041   2.481   2.164 -1.5078 -0.3189 -1.0972
  490MOL0     H66093   1.100   2.197   2.261 -0.6338  1.0236  0.0996
  490MOL0     H66094   1.216   2.290   2.149 -0.0931  0.7518  0.7136
  490MOL0     H66095   1.170   2.467   2.367  1.3118  0.0665  0.7148
  490MOL0     H66096   1.152   2.312   2.444  1.0462 -1.0042  0.4501
  490MOL0     H66097   1.368   2.234   2.393 -0.5132  0.0292 -0.8739
  490MOL0     H66098   1.363   2.397   2.476 -1.3722 -2.3065  1.7067
  490MOL0     H66099   1.418   2.356   2.170 -2.0873  3.1680  0.2199
  490MOL0     H66100   1.437   2.495   2.253  2.4803 -0.3303 -2.1403
  490MOL0     H66101   1.632   2.549   2.430 -0.2555  0.5781 -0.7864
  490MOL0     H66102   1.870   2.534   2.518  1.4807  0.1567  2.4475
  490MOL0     H66103   1.877   2.380   2.599 -0.1692 -0.1797  0.4949
  490MOL0     H66104   2.018   2.275   2.432  2.4086  0.5881 -2.7087
  490MOL0     H66105   2.049   2.428   2.350  0.1759  0.2993  1.0838
  490MOL0     H66106   2.079   2.386   2.646  3.1328 -2.0610  0.0304
  490MOL0     H66107   2.127   2.536   2.556  1.6956 -0.0309  0.7049
  490MOL0     H66108   2.322   2.463   2.562  4.8774 -2.0868 -1.4168
  490MOL0     H66109   2.280   2.353   2.425  1.4534 -3.2708 -0.0675
  490MOL0     H66110   2.318   2.473   2.780  1.7453  1.3682  1.6106
  490MOL0     H66111   2.421   2.477   2.985 -3.4064  0.0300 -1.3848
  490MOL0     H66112   2.817   2.040   3.215 -2.1294  0.9289 -1.2674
  490MOL0     H66113   2.898   1.979   3.458 -1.1228 -1.2258  0.1071
  490MOL0     H66114   2.881   1.874   3.722  1.6669  0.7910  1.1415
  490MOL0     H66115   2.950   2.025   3.675 -1.5034  2.6518 -0.8111
  490MOL0     H66116   2.864   2.135   3.878 -1.4938 -0.2192 -0.5371
  490MOL0     H66117   2.792   1.982   3.933 -0.6838  1.0164 -0.3554
  490MOL0     H66118   3.077   2.001   3.871 -0.9987  0.7395 -0.7083
  490MOL0     H66119   3.016   2.059   4.031  0.6921 -0.7969  1.1938
  490MOL0     H66120   3.008   1.762   3.940 -2.3233  1.6353 -0.9831
  490MOL0     H66121   2.933   1.827   4.079  0.0031 -0.0812  0.5574
  490MOL0     H66122   3.228   1.876   4.008 -0.7967  1.1093  0.8353
  490MOL0     H66123   3.194   1.706   4.059 -0.2353 -1.2347  0.7222
  490MOL0     H66124   3.112   1.952   4.217 -2.3641  0.0769 -4.9158
  490MOL0     H66125   3.150   1.792   4.283 -0.3461  1.5990  0.7376
  490MOL0     H66126   3.331   1.940   4.348  0.5916  2.0964 -0.2507
  490MOL0     H66127   3.346   2.004   4.184 -1.5300  1.1619  0.7985
  490MOL0     H66128   3.459   1.795   4.100  2.0579  0.2215  0.0593
  490MOL0     H66129   3.536   1.867   4.238 -0.3347  2.0186 -1.4389
  490MOL0     H66130   2.522   2.096   3.605  2.9100  1.0501  1.6819
  490MOL0     H66131   2.438   2.148   3.369  0.0628 -0.4949 -0.1299
  490MOL0     H66132   2.501   2.052   2.930  0.0438  1.2450  2.1268
  490MOL0     H66133   2.417   2.059   2.719  4.4485 -0.7574 -0.8892
  490MOL0     H66134   0.489   2.445   2.515 -1.7124 -3.9459 -0.3976
  490MOL0     H66135   0.249   2.442   2.554  0.2639 -1.3746 -1.0276
  490MOL0     H66136  -0.188   2.562   2.344 -0.2984 -1.1790 -0.5878
  490MOL0     H66137  -0.408   2.579   2.353 -0.7080 -1.1499 -0.1585
  490MOL0     H66138  -0.603   2.544   2.760 -0.3217 -1.0649  0.3793
  490MOL0     H66139  -0.655   2.421   2.652 -0.5421  0.1116  0.9541
  490MOL0     H66140  -0.781   2.642   2.544 -1.8501  1.3722 -0.5773
  490MOL0     H66141  -0.762   2.708   2.711 -1.8384  1.3084 -1.2661
  490MOL0     H66142  -0.871   2.480   2.789  2.4237  1.1796  0.4185
  490MOL0     H66143  -0.889   2.431   2.621 -0.7643  0.1694 -0.0871
  490MOL0     H66144  -1.032   2.643   2.580  4.0765  0.6867  1.5319
  490MOL0     H66145  -1.102   2.503   2.676  0.9508 -1.4276  1.1374
  490MOL0     H66146  -1.155   2.835   2.941  0.7655 -0.4590 -0.1647
  490MOL0     H66147  -0.409   2.599   2.779  1.3636 -1.0258  0.5131
  490MOL0     H66148  -0.099   2.732   2.821 -0.1590  0.3569  1.9093
  490MOL0     H66149  -0.223   2.626   2.894  0.2391 -2.3673  0.2048
  490MOL0     H66150  -0.063   2.566   2.834  0.8588  1.6793  0.4893
  491MOL0     O66151   4.767   7.138   5.767 -0.0911  0.3251  0.3323
  491MOL0     C66152   4.806   7.125   5.873 -0.3420 -0.3969 -0.9687
  491MOL0     O66153   4.727   7.090   5.979 -0.1924  0.8029  0.5466
  491MOL0     C66154   4.593   7.054   5.970 -0.2896 -0.2210  0.2592
  491MOL0     C66155   4.514   7.052   5.853 -0.9595  0.9755 -0.4655
  491MOL0     C66156   4.380   7.003   5.854  0.7244 -0.2027 -0.6420
  491MOL0     C66157   4.325   6.954   5.980 -0.2862 -0.7563  0.0256
  491MOL0     O66158   4.206   6.892   5.985 -0.0480  0.8613 -0.1412
  491MOL0     C66159   4.088   6.952   5.944  1.3561 -0.4014 -0.3349
  491MOL0     C66160   4.019   6.853   5.854  0.1311 -1.2523  0.1574
  491MOL0     C66161   4.089   6.843   5.716  0.6756  0.2693 -0.1955
  491MOL0     C66162   4.070   6.969   5.622  0.5413 -0.5306 -0.6444
  491MOL0     C66163   4.121   6.961   5.478 -0.2298  0.3754 -0.1894
  491MOL0     C66164   4.025   6.883   5.395  0.5064  0.2023  0.3089
  491MOL0     C66165   3.903   6.970   5.345  0.3889  0.8247 -0.4669
  491MOL0     C66166   3.927   7.070   5.228 -1.0919 -0.2541 -0.4418
  491MOL0     N66167   3.956   7.002   5.102  1.0624 -0.6961  0.3916
  491MOL0     C66168   3.867   6.940   5.014  0.3070  0.0280  0.1402
  491MOL0     C66169   3.935   6.916   4.902 -0.5877 -0.1055 -0.1946
  491MOL0     C66170   3.893   6.870   4.760  0.8429 -0.7869  0.0689
  491MOL0     C66171   4.011   6.836   4.666  0.4411 -0.4322  0.0214
  491MOL0     C66172   4.098   6.706   4.706 -0.1941  0.6508  0.1458
  491MOL0     C66173   4.230   6.713   4.626 -0.0289 -0.0290 -0.1378
  491MOL0     O66174   4.309   6.604   4.664  0.0539 -0.1326  0.3544
  491MOL0     C66175   4.423   6.590   4.588  0.5184 -0.1249 -0.1801
  491MOL0     C66176   4.513   6.501   4.644  0.0419 -0.1895  0.3695
  491MOL0     C66177   4.637   6.478   4.587  0.5453 -0.1823  0.5575
  491MOL0     C66178   4.683   6.545   4.477 -0.4000 -0.3685  0.0134
  491MOL0     C66179   4.814   6.513   4.416 -0.6968 -0.3032 -0.0068
  491MOL0     O66180   4.907   6.433   4.496  0.2016  0.1142 -0.3264
  491MOL0     C66181   5.025   6.418   4.428 -0.2383  0.0321 -0.2382
  491MOL0     C66182   5.062   6.297   4.376  0.0711 -0.0717  0.3251
  491MOL0     C66183   5.179   6.285   4.301  0.1737  0.0618  0.0610
  491MOL0     C66184   5.273   6.391   4.290 -0.3979 -0.1009 -0.0521
  491MOL0     O66185   5.379   6.357   4.204 -0.3525 -0.0383  0.5356
  491MOL0     C66186   5.478   6.465   4.181  0.6192 -0.5085 -0.2513
  491MOL0     C66187   5.562   6.503   4.301 -0.1971 -0.2944  0.6499
  491MOL0     C66188   5.640   6.626   4.260 -0.9913 -0.3807 -0.0990
  491MOL0     C66189   5.742   6.675   4.366 -0.6469 -0.1743  0.3947
  491MOL0     C66190   5.801   6.817   4.320  0.3981  0.0094 -0.4506
  491MOL0     C66191   5.903   6.809   4.206 -0.0970 -0.4159  0.7310
  491MOL0     C66192   5.965   6.947   4.200 -0.4968 -0.1936 -0.7528
  491MOL0     C66193   6.053   6.960   4.078 -0.6128  0.4082 -0.5268
  491MOL0    Cl66194   6.212   6.871   4.097  0.0659 -0.0182  0.2121
  491MOL0     C66195   5.234   6.517   4.353 -0.4607  0.7391  0.1922
  491MOL0     C66196   5.117   6.525   4.426  0.2346 -0.6593 -0.8070
  491MOL0     O66197   4.842   6.569   4.310 -0.7025 -0.1016  0.4957
  491MOL0     C66198   4.595   6.641   4.414  0.3941  0.1811  0.1074
  491MOL0     C66199   4.468   6.664   4.470  0.0236 -0.1999 -0.4971
  491MOL0     N66200   4.062   6.951   4.933  0.1527 -0.1183  0.7769
  491MOL0     N66201   4.075   7.004   5.045 -0.0760  0.2273 -0.0684
  491MOL0     C66202   4.405   6.964   6.097 -0.5258  0.3388  0.5422
  491MOL0     C66203   4.537   7.017   6.085  0.1677  0.1797 -0.0074
  491MOL0     C66204   4.950   7.137   5.896 -0.3956 -0.0012  0.7068
  491MOL0     C66205   5.012   7.092   6.019 -0.1376  0.1801  0.3397
  491MOL0     C66206   5.147   7.115   6.041  0.8360  1.2440 -0.7048
  491MOL0     C66207   5.230   7.186   5.956  0.6396  0.9347  0.4356
  491MOL0     O66208   5.356   7.212   5.997 -0.1226  0.3365  0.5994
  491MOL0     C66209   5.456   7.242   5.901 -0.4069 -0.0437 -0.2567
  491MOL0     C66210   5.594   7.248   5.964 -0.1781  0.5018 -0.2451
  491MOL0     C66211   5.690   7.307   5.864  0.5784 -0.3666  1.0534
  491MOL0     C66212   5.823   7.349   5.932 -0.3918  0.0112 -0.1546
  491MOL0     C66213   5.933   7.266   5.896 -0.6410  0.4711  0.1941
  491MOL0     C66214   6.035   7.211   5.852 -0.3013  0.1574 -0.3224
  491MOL0     C66215   5.174   7.227   5.828  0.9318 -0.6420 -0.6827
  491MOL0     C66216   5.031   7.208   5.799 -1.2376  0.0594  0.1225
  491MOL0     C66217   4.992   7.268   5.666  0.6366  0.0788  0.3307
  491MOL0     H66218   4.544   7.087   5.754 -1.7607 -0.8797 -1.4140
  491MOL0     H66219   4.330   7.005   5.758 -1.0844 -0.4577  0.2407
  491MOL0     H66220   4.030   6.971   6.036  1.1817  2.1463 -0.8983
  491MOL0     H66221   4.098   7.042   5.883 -0.4025 -0.5939 -0.9602
  491MOL0     H66222   3.914   6.882   5.839  0.1687 -0.1536  1.8471
  491MOL0     H66223   4.018   6.763   5.916  1.4696 -0.2565  1.6862
  491MOL0     H66224   4.037   6.763   5.661  0.0266  0.9022 -0.5160
  491MOL0     H66225   4.195   6.817   5.725  0.2135 -1.7490 -0.1122
  491MOL0     H66226   3.963   6.993   5.619 -0.0166 -2.0460  2.6596
  491MOL0     H66227   4.122   7.052   5.669  0.6697 -0.1678 -1.4136
  491MOL0     H66228   4.143   7.061   5.442 -3.2460  1.7199  1.3548
  491MOL0     H66229   4.216   6.907   5.482 -0.1844  0.4964  3.3311
  491MOL0     H66230   4.073   6.840   5.307  0.3013 -0.3916  0.4839
  491MOL0     H66231   3.985   6.797   5.451 -2.5128  0.3144 -1.4235
  491MOL0     H66232   3.861   7.019   5.433 -1.2688 -1.8492  0.3493
  491MOL0     H66233   3.826   6.903   5.307 -1.0825  2.3859 -0.3862
  491MOL0     H66234   3.840   7.135   5.217 -0.9295  0.1880  0.7724
  491MOL0     H66235   4.012   7.136   5.245  0.4869 -1.9688 -1.3252
  491MOL0     H66236   3.759   6.937   5.025 -0.1850  0.1810 -3.3730
  491MOL0     H66237   3.819   6.789   4.756 -0.6263  0.5132 -0.3920
  491MOL0     H66238   3.857   6.964   4.716  3.7217  1.2998  1.7892
  491MOL0     H66239   3.984   6.824   4.561  0.2802  2.3954 -0.3539
  491MOL0     H66240   4.077   6.924   4.663 -0.7510  0.4827 -0.3436
  491MOL0     H66241   4.052   6.613   4.671  0.5576 -0.4198  1.8627
  491MOL0     H66242   4.114   6.703   4.815  1.5114 -2.9951 -0.0532
  491MOL0     H66243   4.281   6.810   4.630  1.4934 -0.5598 -3.3142
  491MOL0     H66244   4.200   6.697   4.522  1.6277 -2.0504 -0.3604
  491MOL0     H66245   4.495   6.454   4.740 -0.2603  2.6802  1.8253
  491MOL0     H66246   4.697   6.397   4.627  0.2304 -0.6194  0.1596
  491MOL0     H66247   4.995   6.211   4.375 -1.7496  1.2457 -2.1525
  491MOL0     H66248   5.213   6.195   4.251 -2.1630 -3.1791  3.7905
  491MOL0     H66249   5.543   6.425   4.102  0.5746  1.9358 -1.6152
  491MOL0     H66250   5.422   6.549   4.139  2.9427  1.7391  0.8559
  491MOL0     H66251   5.506   6.522   4.392 -2.7105  0.5923 -0.9936
  491MOL0     H66252   5.636   6.423   4.318  0.9728 -0.0388 -2.4865
  491MOL0     H66253   5.692   6.606   4.165  1.0684 -2.6363  1.3807
  491MOL0     H66254   5.570   6.709   4.245 -0.9866 -0.1738  0.9571
  491MOL0     H66255   5.821   6.601   4.382 -0.7749 -0.8042 -1.5857
  491MOL0     H66256   5.689   6.685   4.461  2.5387 -0.9180  2.4128
  491MOL0     H66257   5.853   6.861   4.406  0.5583  2.5713 -1.7754
  491MOL0     H66258   5.714   6.877   4.294  0.3063 -1.0664 -2.9687
  491MOL0     H66259   5.984   6.736   4.220  2.1034  1.9920  1.2037
  491MOL0     H66260   5.854   6.782   4.112 -0.5005 -0.2469  0.8910
  491MOL0     H66261   6.028   6.970   4.286  1.7934  0.9491 -2.6272
  491MOL0     H66262   5.881   7.018   4.207 -0.7089 -0.5121  0.1453
  491MOL0     H66263   6.004   6.926   3.986 -0.3401 -1.9776  0.1580
  491MOL0     H66264   6.080   7.066   4.072 -0.7762  0.7098  2.4509
  491MOL0     H66265   5.303   6.600   4.348  1.0712 -0.5551 -2.9237
  491MOL0     H66266   5.092   6.620   4.473  1.4624 -1.4244  1.4818
  491MOL0     H66267   4.621   6.697   4.325 -2.5150  1.4079 -0.0852
  491MOL0     H66268   4.405   6.738   4.422 -2.5405 -1.3731  0.8401
  491MOL0     H66269   4.356   6.933   6.189 -1.8169 -2.6315 -1.0185
  491MOL0     H66270   4.596   7.017   6.176 -0.9228 -2.9043  0.8493
  491MOL0     H66271   4.955   7.048   6.099 -1.9880  0.1761 -0.9162
  491MOL0     H66272   5.190   7.082   6.136 -0.6565  2.1056  0.3111
  491MOL0     H66273   5.439   7.340   5.857  1.6139  0.3989 -0.1473
  491MOL0     H66274   5.448   7.162   5.826 -1.2824  1.1027 -1.4349
  491MOL0     H66275   5.629   7.147   5.990  1.0183  1.2985  1.4054
  491MOL0     H66276   5.595   7.311   6.054 -0.0543  1.0395 -0.6222
  491MOL0     H66277   5.651   7.398   5.818  1.7158 -1.3852 -2.1530
  491MOL0     H66278   5.707   7.244   5.776 -1.7081  2.6627 -1.8271
  491MOL0     H66279   5.849   7.451   5.904  1.3611 -0.7305 -1.3298
  491MOL0     H66280   5.815   7.363   6.041  0.3140  0.7532 -0.1902
  491MOL0     H66281   6.126   7.160   5.826  0.4700  0.0734  2.2792
  491MOL0     H66282   5.246   7.268   5.758  0.8593 -2.4996 -1.8938
  491MOL0     H66283   5.066   7.339   5.628 -1.3428  2.1920  0.2338
  491MOL0     H66284   4.981   7.189   5.591  1.5390 -0.1683  0.4404
  491MOL0     H66285   4.901   7.327   5.665  1.6693  1.8798  2.8591
  492MOL0     O66286   9.956   9.052   2.009  0.4189  0.2017  0.2219
  492MOL0     C66287   9.873   9.029   1.921 -0.1833 -0.4941 -0.2305
  492MOL0     O66288   9.883   9.072   1.800 -0.1301 -0.0362 -0.4984
  492MOL0     C66289   9.989   9.153   1.764 -0.1588  0.2536 -0.7746
  492MOL0     C66290  10.124   9.115   1.773 -0.4780 -0.4520 -0.4362
  492MOL0     C66291  10.226   9.201   1.740 -0.4213  0.3383  0.2715
  492MOL0     C66292  10.203   9.334   1.689 -0.3459  0.9662  0.3832
  492MOL0     O66293  10.305   9.425   1.664  0.8208  0.1326  0.0161
  492MOL0     C66294  10.442   9.378   1.656  0.8987  0.4757 -1.1318
  492MOL0     C66295  10.530   9.484   1.604  0.6372 -0.4725 -0.6420
  492MOL0     C66296  10.684   9.456   1.625 -0.1226 -0.2164 -0.2962
  492MOL0     C66297  10.753   9.583   1.574  0.0286  0.6947 -0.1302
  492MOL0     C66298  10.894   9.589   1.621  0.2003 -0.4412  0.2923
  492MOL0     C66299  10.961   9.710   1.561  0.3015 -0.3664 -0.9713
  492MOL0     C66300  11.110   9.704   1.590  0.7384 -0.6483 -0.2165
  492MOL0     C66301  11.175   9.822   1.513  0.2145 -0.5180 -0.5336
  492MOL0     N66302  11.323   9.818   1.503 -0.2199  0.5850  0.5644
  492MOL0     C66303  11.408   9.929   1.479  0.9005 -0.4293  0.2490
  492MOL0     C66304  11.530   9.874   1.447  0.0205 -0.1963  0.0445
  492MOL0     C66305  11.663   9.936   1.417  0.3352  0.2921  0.1598
  492MOL0     C66306  11.753   9.926   1.548  0.4080  0.2204  0.5314
  492MOL0     C66307  11.825  10.060   1.562  0.0914  0.3263  0.1518
  492MOL0     C66308  11.938  10.046   1.663  0.4300 -0.0084  0.4973
  492MOL0     O66309  12.010  10.165   1.694 -0.7714 -0.4842 -0.0042
  492MOL0     C66310  12.134  10.157   1.747  0.1511 -0.2045  0.6535
  492MOL0     C66311  12.176  10.055   1.830  0.4960  0.3952 -0.2332
  492MOL0     C66312  12.298  10.047   1.884  0.0555 -0.1110 -0.3663
  492MOL0     C66313  12.395  10.148   1.866  0.2060 -0.6291  0.5520
  492MOL0     C66314  12.534  10.136   1.922  0.7094  0.5415  0.2713
  492MOL0     O66315  12.621  10.237   1.896 -0.0950 -0.0554  0.5775
  492MOL0     C66316  12.752  10.239   1.940 -0.7255  0.5995 -0.0520
  492MOL0     C66317  12.798  10.175   2.058  0.3882 -0.5668  0.5683
  492MOL0     C66318  12.933  10.177   2.090  0.6774 -0.4858 -0.4888
  492MOL0     C66319  13.027  10.243   2.007  0.2476 -0.2180 -0.5039
  492MOL0     O66320  13.163  10.245   2.017 -0.2363  0.2062  0.2731
  492MOL0     C66321  13.217  10.269   2.155  0.2204 -0.5120  0.1102
  492MOL0     C66322  13.368  10.280   2.166 -0.0844  0.2409  0.5233
  492MOL0     C66323  13.407  10.389   2.057 -0.4747 -0.3250 -0.3017
  492MOL0     C66324  13.538  10.452   2.093  0.2602 -0.2773 -0.0793
  492MOL0     C66325  13.595  10.518   1.969 -0.2726  0.5215  0.5274
  492MOL0     C66326  13.752  10.519   1.974 -0.4282 -0.5748  0.1628
  492MOL0     C66327  13.815  10.570   1.848  0.4581  0.3224  0.0455
  492MOL0     C66328  13.967  10.586   1.869 -0.0147 -0.2373  0.0547
  492MOL0    Cl66329  14.044  10.439   1.920 -0.2605  0.2400 -0.1968
  492MOL0     C66330  12.979  10.307   1.889 -0.5208  0.3030 -0.8848
  492MOL0     C66331  12.843  10.306   1.860 -0.1058  0.8170  0.2821
  492MOL0     O66332  12.568  10.024   1.967 -0.0665 -0.6688  0.7085
  492MOL0     C66333  12.359  10.260   1.783 -0.6321 -0.2396  0.3642
  492MOL0     C66334  12.225  10.259   1.721 -0.8653 -1.0891 -0.1412
  492MOL0     N66335  11.510   9.741   1.438 -0.0941  0.6491  0.1380
  492MOL0     N66336  11.392   9.702   1.477 -0.0648  0.6991 -0.1634
  492MOL0     C66337  10.067   9.372   1.682 -0.0609 -0.2838 -0.8009
  492MOL0     C66338   9.959   9.281   1.718 -0.5364 -0.6442 -0.3918
  492MOL0     C66339   9.725   8.984   1.958  0.0435  0.2606  0.1671
  492MOL0     C66340   9.634   8.987   1.852  0.0844  0.4966  0.9649
  492MOL0     C66341   9.497   8.958   1.872  0.0920 -0.0200 -0.5239
  492MOL0     C66342   9.452   8.913   2.001 -0.3899 -0.3124 -0.0620
  492MOL0     O66343   9.323   8.869   2.021  0.2601  0.1380  0.1636
  492MOL0     C66344   9.209   8.949   1.976 -0.0708  0.3465 -0.4730
  492MOL0     C66345   9.191   9.057   2.076 -0.0446 -0.2000 -0.3057
  492MOL0     C66346   9.050   9.036   2.130  0.8424  0.1084  0.2384
  492MOL0     C66347   9.002   9.134   2.224  0.3030  0.2923 -0.8734
  492MOL0     C66348   9.018   9.274   2.174 -0.5154 -0.1682 -0.6208
  492MOL0     C66349   9.035   9.386   2.123 -0.7251 -0.0041  0.0410
  492MOL0     C66350   9.549   8.907   2.101 -0.3459  0.5227  0.2037
  492MOL0     C66351   9.681   8.952   2.086  0.8044 -0.4140  0.1352
  492MOL0     C66352   9.759   8.982   2.208  0.5017 -0.9744  0.2634
  492MOL0     H66353  10.149   9.015   1.806  0.4223 -0.3584 -0.7889
  492MOL0     H66354  10.327   9.163   1.754  0.2087  1.2672 -1.5457
  492MOL0     H66355  10.473   9.358   1.758 -0.4692 -1.7525 -1.0794
  492MOL0     H66356  10.456   9.288   1.596  1.5081  0.7063 -1.3455
  492MOL0     H66357  10.505   9.579   1.651 -0.1349  0.2992 -2.5064
  492MOL0     H66358  10.517   9.502   1.497  1.2779  0.9053 -0.4996
  492MOL0     H66359  10.710   9.362   1.576  0.4415 -0.2462  0.0527
  492MOL0     H66360  10.707   9.450   1.731 -0.3809  0.1977 -0.2128
  492MOL0     H66361  10.739   9.592   1.465 -1.9728  0.2082  0.0500
  492MOL0     H66362  10.709   9.673   1.619 -1.0361 -0.6054  1.5531
  492MOL0     H66363  10.889   9.599   1.730 -2.3298 -0.9271  0.2777
  492MOL0     H66364  10.947   9.499   1.588  1.4323  0.0981  0.7540
  492MOL0     H66365  10.949   9.718   1.453  2.8578 -0.0196 -1.2958
  492MOL0     H66366  10.926   9.802   1.608  1.2496 -0.2697 -0.4273
  492MOL0     H66367  11.157   9.616   1.546  2.1072  0.6661 -1.4933
  492MOL0     H66368  11.123   9.705   1.699 -2.7649 -2.5761  0.3876
  492MOL0     H66369  11.128   9.836   1.415  0.5462  0.9924 -0.4973
  492MOL0     H66370  11.159   9.914   1.569 -2.1511  0.0386 -1.9721
  492MOL0     H66371  11.385  10.035   1.485 -3.3842 -1.2306  1.7536
  492MOL0     H66372  11.707   9.886   1.330 -0.5156  0.8218 -0.5960
  492MOL0     H66373  11.662  10.043   1.396 -0.2974  0.6716  1.9576
  492MOL0     H66374  11.694   9.911   1.638 -0.3142  2.4274  0.4850
  492MOL0     H66375  11.828   9.846   1.540  0.1442  0.0635 -0.5106
  492MOL0     H66376  11.762  10.142   1.599 -0.2436 -1.0831  2.9129
  492MOL0     H66377  11.869  10.077   1.464 -0.4692  0.8899 -0.0089
  492MOL0     H66378  12.006   9.977   1.611 -0.6834 -0.1110 -0.9142
  492MOL0     H66379  11.899  10.015   1.760  1.7218 -0.2593  0.9566
  492MOL0     H66380  12.100   9.980   1.851 -0.4817  1.4533  0.1333
  492MOL0     H66381  12.327   9.967   1.952  1.2238  1.1580  0.6985
  492MOL0     H66382  12.725  10.129   2.124  0.5585 -1.0382  0.4338
  492MOL0     H66383  12.965  10.133   2.183  0.2048  1.7764  0.8264
  492MOL0     H66384  13.178  10.368   2.183  0.7982 -0.5689  1.1937
  492MOL0     H66385  13.183  10.199   2.231  0.4326 -0.3371  0.3710
  492MOL0     H66386  13.385  10.309   2.271 -3.7693  3.7723  0.4090
  492MOL0     H66387  13.403  10.178   2.151 -1.2643 -0.1833  0.6002
  492MOL0     H66388  13.417  10.339   1.961  1.1828  1.9855 -1.4442
  492MOL0     H66389  13.329  10.464   2.045 -1.0127 -0.9135 -0.4992
  492MOL0     H66390  13.609  10.378   2.132 -1.3895 -1.8137  0.1712
  492MOL0     H66391  13.516  10.528   2.169 -0.8054  0.4869 -1.1068
  492MOL0     H66392  13.551  10.618   1.959  1.0600  1.1108  0.2508
  492MOL0     H66393  13.559  10.469   1.879 -2.9219 -1.3591  2.4670
  492MOL0     H66394  13.781  10.589   2.053  0.3890 -1.5347  0.7336
  492MOL0     H66395  13.798  10.426   2.007  2.2123  0.4819 -0.2649
  492MOL0     H66396  13.766  10.657   1.804 -0.3345  0.0136  0.3047
  492MOL0     H66397  13.807  10.498   1.766 -0.8840  0.8460 -0.3074
  492MOL0     H66398  14.009  10.616   1.773 -2.2724 -1.4927 -1.4003
  492MOL0     H66399  13.983  10.657   1.951  0.2740 -0.0163 -0.1949
  492MOL0     H66400  13.056  10.351   1.826  0.0092  3.2862  1.5781
  492MOL0     H66401  12.800  10.363   1.778  0.8839 -0.4201 -1.1317
  492MOL0     H66402  12.437  10.329   1.754  0.4183 -1.2648  0.6549
  492MOL0     H66403  12.195  10.334   1.648 -0.2849  0.2777  0.9867
  492MOL0     H66404  10.054   9.479   1.666  0.2853 -0.4417 -2.2305
  492MOL0     H66405   9.855   9.308   1.705  0.0120  0.6244 -2.8365
  492MOL0     H66406   9.677   9.005   1.754  1.3457  1.5702  1.6758
  492MOL0     H66407   9.422   8.960   1.794  0.0882 -0.2408 -0.5281
  492MOL0     H66408   9.112   8.899   1.969 -0.4772  0.7309  1.6247
  492MOL0     H66409   9.232   8.985   1.875  3.2670 -0.4801 -0.1441
  492MOL0     H66410   9.188   9.154   2.026  1.0675  0.8076  1.5115
  492MOL0     H66411   9.265   9.059   2.156 -2.6291  2.3926  2.2426
  492MOL0     H66412   9.047   8.935   2.171 -1.0988 -0.1849 -0.5127
  492MOL0     H66413   8.978   9.042   2.048 -0.8270  0.3299  1.6529
  492MOL0     H66414   8.894   9.122   2.237  0.3517 -0.3695 -1.0473
  492MOL0     H66415   9.042   9.125   2.326 -0.8703 -2.3690 -0.5873
  492MOL0     H66416   9.053   9.477   2.069  1.7581 -0.7530 -0.5307
  492MOL0     H66417   9.515   8.875   2.199  4.2451  0.8185  2.1485
  492MOL0     H66418   9.800   9.083   2.204 -1.3933 -0.2120 -1.3783
  492MOL0     H66419   9.694   8.984   2.295  1.0855 -0.2598  0.6908
  492MOL0     H66420   9.845   8.917   2.229  1.3963  0.4863  1.2555
  493MOL0     O66421   1.636   8.933   7.733 -0.4521 -0.4298  0.0270
  493MOL0     C66422   1.645   9.025   7.656 -0.4535 -1.0070 -0.2716
  493MOL0     O66423   1.763   9.066   7.588  0.0621  0.6522  0.3400
  493MOL0     C66424   1.874   8.988   7.569  0.3813  0.4881  0.0449
  493MOL0     C66425   1.918   8.871   7.638 -0.1921 -0.0368 -0.4776
  493MOL0     C66426   2.042   8.815   7.607 -0.0600 -0.0254  0.3065
  493MOL0     C66427   2.124   8.869   7.508 -0.0190 -0.0657 -0.0109
  493MOL0     O66428   2.233   8.807   7.466  0.6514  0.1874 -0.1488
  493MOL0     C66429   2.360   8.885   7.461  0.8079  0.5740 -0.3848
  493MOL0     C66430   2.400   8.933   7.606  0.6911  0.4430  0.3500
  493MOL0     C66431   2.544   8.991   7.588  0.0082  0.3691 -1.1880
  493MOL0     C66432   2.626   8.998   7.727 -0.0398 -0.2748 -0.2658
  493MOL0     C66433   2.751   9.074   7.713 -0.7295 -1.1309 -0.4542
  493MOL0     C66434   2.867   9.004   7.643  0.3696 -0.0258 -0.5257
  493MOL0     C66435   2.965   9.097   7.583 -0.7495  0.4046  0.5674
  493MOL0     C66436   3.093   9.026   7.541  0.4418  0.3528 -0.6717
  493MOL0     N66437   3.166   8.967   7.653 -0.8579 -0.1655  0.4785
  493MOL0     C66438   3.275   9.014   7.721  0.1402 -0.3035  1.6257
  493MOL0     C66439   3.308   8.921   7.815 -0.8290  0.3171  1.1652
  493MOL0     C66440   3.414   8.921   7.918 -0.5219  0.4652 -0.4607
  493MOL0     C66441   3.552   8.904   7.860  0.4554 -0.5178  0.6871
  493MOL0     C66442   3.654   8.870   7.963  1.2933 -0.3625 -0.3786
  493MOL0     C66443   3.785   8.824   7.907 -0.0509 -0.3465 -0.1698
  493MOL0     O66444   3.845   8.927   7.824  0.0091 -0.2019 -0.3122
  493MOL0     C66445   3.975   8.894   7.780  0.1095 -0.7061 -0.0403
  493MOL0     C66446   4.039   8.990   7.703  0.0060  0.0338 -0.1943
  493MOL0     C66447   4.173   9.000   7.665 -0.3939 -0.3593  0.2713
  493MOL0     C66448   4.258   8.886   7.695 -0.1021 -0.6440 -0.9777
  493MOL0     C66449   4.407   8.892   7.686 -0.6596 -0.1804  0.1195
  493MOL0     O66450   4.481   8.789   7.737 -0.0355 -0.1305 -0.4790
  493MOL0     C66451   4.618   8.796   7.713 -0.1869 -0.3114 -0.3794
  493MOL0     C66452   4.665   8.708   7.616 -0.1405  0.5573 -0.2909
  493MOL0     C66453   4.797   8.729   7.575 -0.8563 -0.2137 -0.2059
  493MOL0     C66454   4.874   8.832   7.623 -0.5234 -0.6819 -0.0465
  493MOL0     O66455   4.996   8.862   7.562 -0.2779  0.2387 -0.1661
  493MOL0     C66456   4.976   8.924   7.442 -0.2155  0.3631 -0.5255
  493MOL0     C66457   5.092   8.872   7.352  0.5183 -0.5651 -0.4937
  493MOL0     C66458   5.211   8.965   7.383 -0.2319 -0.5238  0.2215
  493MOL0     C66459   5.284   8.933   7.515  0.6383 -0.2359  0.3095
  493MOL0     C66460   5.400   9.040   7.534  0.0295  0.7975  0.4713
  493MOL0     C66461   5.498   9.016   7.648  0.2199  0.4858 -0.7102
  493MOL0     C66462   5.635   9.077   7.626 -1.1764 -0.1437 -0.4692
  493MOL0     C66463   5.723   8.981   7.543  0.5335 -0.1505  0.6043
  493MOL0    Cl66464   5.879   9.057   7.493  0.1699  0.2976  0.1370
  493MOL0     C66465   4.823   8.912   7.725 -0.9498  0.5078  0.2077
  493MOL0     C66466   4.697   8.889   7.780  0.9577 -0.3833  0.0204
  493MOL0     O66467   4.464   8.997   7.653 -0.1839  0.5722  0.2371
  493MOL0     C66468   4.192   8.781   7.769 -0.0774  0.4528 -0.5778
  493MOL0     C66469   4.056   8.790   7.811 -0.1010  0.2710  0.1919
  493MOL0     N66470   3.220   8.816   7.788  0.4878 -1.1585  0.1658
  493MOL0     N66471   3.138   8.842   7.689 -0.6198 -0.0754  0.0785
  493MOL0     C66472   2.083   8.987   7.449 -0.3202  0.0288 -0.3122
  493MOL0     C66473   1.958   9.044   7.467 -0.0232 -0.1063  0.4708
  493MOL0     C66474   1.511   9.096   7.635 -0.5679  0.5450 -0.2730
  493MOL0     C66475   1.390   9.034   7.667 -0.2919 -0.6468 -0.0927
  493MOL0     C66476   1.266   9.094   7.668  0.6857  0.0925 -0.4908
  493MOL0     C66477   1.257   9.230   7.630  0.6240 -0.2645  0.5255
  493MOL0     O66478   1.131   9.298   7.632  0.2238  0.7330  0.2852
  493MOL0     C66479   1.017   9.250   7.720 -0.4789 -0.6786 -0.5765
  493MOL0     C66480   0.905   9.173   7.646 -0.9884  0.0327 -0.7980
  493MOL0     C66481   0.795   9.123   7.747  1.3057  0.4722 -0.3654
  493MOL0     C66482   0.667   9.081   7.677 -0.0384  0.1496 -0.6177
  493MOL0     C66483   0.601   9.200   7.615 -0.5882  0.4813 -0.2891
  493MOL0     C66484   0.573   9.316   7.587 -0.1952 -0.3244 -0.0922
  493MOL0     C66485   1.373   9.290   7.583 -0.1836 -1.0525  0.8143
  493MOL0     C66486   1.504   9.232   7.592  0.5281  0.7883  0.1693
  493MOL0     C66487   1.625   9.323   7.583 -0.3585 -0.3277  0.1037
  493MOL0     H66488   1.866   8.836   7.726 -0.6835  0.6945 -0.4685
  493MOL0     H66489   2.071   8.725   7.661 -2.5321 -1.2039 -0.2171
  493MOL0     H66490   2.439   8.824   7.416  0.4766  0.1165 -0.3578
  493MOL0     H66491   2.348   8.967   7.390 -1.1817  0.6875  0.0326
  493MOL0     H66492   2.403   8.842   7.667 -1.2532 -0.8063 -1.3165
  493MOL0     H66493   2.329   9.002   7.651  0.6681  0.5420  0.1615
  493MOL0     H66494   2.547   9.094   7.550  2.3671  0.5438 -0.6810
  493MOL0     H66495   2.597   8.935   7.511 -1.9055 -0.3543 -2.0486
  493MOL0     H66496   2.558   9.042   7.801 -1.4463 -2.9109  0.1563
  493MOL0     H66497   2.658   8.900   7.763  1.8295  0.1969 -0.5830
  493MOL0     H66498   2.731   9.158   7.646  0.7531 -1.8415 -1.8321
  493MOL0     H66499   2.786   9.110   7.811 -1.6796 -2.0097  0.2327
  493MOL0     H66500   2.910   8.934   7.716  0.6327  1.5654  0.9037
  493MOL0     H66501   2.818   8.944   7.565 -0.9818 -2.5490  2.0379
  493MOL0     H66502   2.990   9.180   7.650  2.5845 -0.2002  0.2709
  493MOL0     H66503   2.924   9.144   7.493 -1.0168 -0.0076  0.4734
  493MOL0     H66504   3.069   8.951   7.465  1.0031 -0.3887 -0.1404
  493MOL0     H66505   3.141   9.112   7.493  0.3297  1.0607  0.4340
  493MOL0     H66506   3.319   9.112   7.705  0.5862 -0.7193  0.1485
  493MOL0     H66507   3.414   9.017   7.970 -0.6244  1.3425 -2.0118
  493MOL0     H66508   3.386   8.833   7.978  0.7095  0.5901  0.3502
  493MOL0     H66509   3.558   8.818   7.793  4.7375 -1.5893  2.1857
  493MOL0     H66510   3.576   8.987   7.794  0.4150 -0.4737  0.7261
  493MOL0     H66511   3.625   8.789   8.030  0.3731  1.0895  1.0755
  493MOL0     H66512   3.667   8.952   8.036 -0.3464 -0.6001  0.2226
  493MOL0     H66513   3.769   8.733   7.849 -2.3910  0.2021 -0.4738
  493MOL0     H66514   3.846   8.790   7.991  0.4385 -1.6016 -1.0010
  493MOL0     H66515   3.985   9.082   7.681  1.2545  0.1122 -3.5369
  493MOL0     H66516   4.205   9.090   7.613 -0.7412 -1.3933 -1.7982
  493MOL0     H66517   4.605   8.623   7.584  2.5865 -1.1735 -1.1427
  493MOL0     H66518   4.836   8.664   7.497  1.5733  1.5469 -0.5842
  493MOL0     H66519   4.874   8.909   7.406 -0.5838  0.6657  0.3487
  493MOL0     H66520   4.980   9.031   7.466 -1.4212  0.7822 -2.0891
  493MOL0     H66521   5.118   8.766   7.350  3.1205  0.0121 -0.5719
  493MOL0     H66522   5.056   8.890   7.250  3.4581 -2.0623 -1.9244
  493MOL0     H66523   5.278   8.954   7.297 -1.3445  1.4992 -0.9818
  493MOL0     H66524   5.182   9.068   7.402 -2.0294 -0.8629 -0.5015
  493MOL0     H66525   5.320   8.831   7.502  3.2606  0.7023 -0.7629
  493MOL0     H66526   5.218   8.926   7.602 -0.2976  0.9259 -0.2719
  493MOL0     H66527   5.377   9.147   7.520  1.8929  1.0717 -0.8572
  493MOL0     H66528   5.461   9.016   7.447 -0.1536 -0.6080  0.7175
  493MOL0     H66529   5.456   9.065   7.737 -1.2549 -2.2964  0.2625
  493MOL0     H66530   5.511   8.908   7.663  1.1607  0.7269  0.3447
  493MOL0     H66531   5.684   9.091   7.723 -1.9152  2.0606 -0.3398
  493MOL0     H66532   5.632   9.180   7.587 -1.1026  0.3555  0.7859
  493MOL0     H66533   5.744   8.893   7.605  2.1731 -0.7079 -0.6681
  493MOL0     H66534   5.670   8.957   7.451  1.2960 -0.7726  0.3104
  493MOL0     H66535   4.886   8.990   7.767  1.0430  1.4096 -3.9490
  493MOL0     H66536   4.657   8.953   7.858 -1.7420 -1.1384 -0.6089
  493MOL0     H66537   4.254   8.704   7.813  0.1808  1.0006  0.0415
  493MOL0     H66538   4.013   8.706   7.866 -0.5905  1.0068  0.9473
  493MOL0     H66539   2.129   9.012   7.354 -0.5909  2.1753  0.0792
  493MOL0     H66540   1.920   9.118   7.398  1.3030 -0.1923 -0.3822
  493MOL0     H66541   1.402   8.936   7.712  2.1339 -0.1532  0.4566
  493MOL0     H66542   1.180   9.034   7.696  0.9696 -0.3038 -0.4757
  493MOL0     H66543   0.969   9.341   7.758  1.0251  0.3756 -1.0681
  493MOL0     H66544   1.061   9.198   7.806 -0.5685  1.0334  0.5663
  493MOL0     H66545   0.944   9.087   7.591 -1.5163  1.0306 -2.7948
  493MOL0     H66546   0.864   9.243   7.573 -1.6631  0.3529 -0.1218
  493MOL0     H66547   0.776   9.199   7.823 -0.3261  1.4936 -1.7308
  493MOL0     H66548   0.832   9.033   7.796  0.6601 -0.6854 -1.9363
  493MOL0     H66549   0.674   8.996   7.609  2.1225  0.2598 -0.6168
  493MOL0     H66550   0.611   9.044   7.763  0.3786 -0.9784 -0.8064
  493MOL0     H66551   0.548   9.417   7.563  2.1363  0.3570  0.1685
  493MOL0     H66552   1.367   9.392   7.547  1.4692 -1.2761 -0.2026
  493MOL0     H66553   1.688   9.315   7.672  1.8507  0.3431 -1.3030
  493MOL0     H66554   1.686   9.292   7.497 -1.5852  1.5367 -1.5349
  493MOL0     H66555   1.601   9.429   7.573 -0.9112 -0.4131  0.5052
  494MOL0     O66556   6.495   3.602   4.835  0.5409  0.4450  0.7146
  494MOL0     C66557   6.401   3.618   4.762 -0.0912  0.0918  0.3488
  494MOL0     O66558   6.395   3.571   4.639  0.1395  0.3944  0.0044
  494MOL0     C66559   6.509   3.509   4.587  0.3916 -0.4345 -0.5707
  494MOL0     C66560   6.572   3.388   4.634  0.4747 -0.7097  0.7228
  494MOL0     C66561   6.677   3.338   4.560 -0.6621  0.6581 -1.2193
  494MOL0     C66562   6.730   3.400   4.449  0.2278  0.1745  1.0039
  494MOL0     O66563   6.836   3.358   4.370  0.1952 -0.0310  0.2103
  494MOL0     C66564   6.929   3.263   4.415  0.5354  0.5788  0.5525
  494MOL0     C66565   7.071   3.315   4.392 -0.8307 -0.4649  0.5243
  494MOL0     C66566   7.176   3.203   4.410 -0.8838  0.3168  0.5619
  494MOL0     C66567   7.325   3.239   4.386 -0.3902  0.1074  0.2436
  494MOL0     C66568   7.417   3.120   4.405 -0.8830 -0.4875  0.1572
  494MOL0     C66569   7.548   3.160   4.335  0.5544  0.7580 -0.4673
  494MOL0     C66570   7.664   3.063   4.353  0.9070 -0.3086  0.6731
  494MOL0     C66571   7.788   3.093   4.269  0.2880 -0.4841 -0.0888
  494MOL0     N66572   7.806   3.243   4.267 -0.7027  0.2410 -0.6482
  494MOL0     C66573   7.748   3.327   4.177  0.1648 -0.8263 -0.3815
  494MOL0     C66574   7.765   3.452   4.225  0.6312 -0.6600 -0.7817
  494MOL0     C66575   7.745   3.587   4.154  0.2161  0.9365 -0.5794
  494MOL0     C66576   7.607   3.649   4.178 -1.3278  0.1979 -0.1672
  494MOL0     C66577   7.490   3.564   4.126  0.3626 -0.7636  0.1567
  494MOL0     C66578   7.350   3.622   4.157  0.2148  0.5842 -0.8270
  494MOL0     O66579   7.341   3.656   4.302 -0.0234 -0.3097  0.6196
  494MOL0     C66580   7.233   3.733   4.337 -0.1113  0.1922  0.2151
  494MOL0     C66581   7.248   3.860   4.387 -0.5974  0.3584 -0.5575
  494MOL0     C66582   7.136   3.939   4.427  0.3120 -0.7817  0.1890
  494MOL0     C66583   7.005   3.882   4.426  0.4337 -0.9482  0.4813
  494MOL0     C66584   6.883   3.968   4.467 -0.6497  0.4050 -0.9926
  494MOL0     O66585   6.778   3.903   4.514 -0.2509 -0.1369 -0.4254
  494MOL0     C66586   6.663   3.963   4.551  0.3487 -0.8242 -0.0817
  494MOL0     C66587   6.586   3.913   4.659 -0.0550 -0.3743 -0.3890
  494MOL0     C66588   6.466   3.976   4.700 -0.1472  0.5878  0.4325
  494MOL0     C66589   6.419   4.088   4.636 -0.2489 -0.6758  0.0643
  494MOL0     O66590   6.302   4.137   4.682 -0.0120  0.1147  0.4216
  494MOL0     C66591   6.252   4.265   4.640 -0.7857 -0.9812  0.0971
  494MOL0     C66592   6.109   4.274   4.693  0.0376  0.0263 -0.0684
  494MOL0     C66593   6.058   4.420   4.690 -0.5907 -0.3561  0.9211
  494MOL0     C66594   5.945   4.435   4.788 -0.6844 -0.5851 -0.0415
  494MOL0     C66595   5.823   4.350   4.747  0.4545 -0.3040  0.0751
  494MOL0     C66596   5.704   4.380   4.836  0.2374  0.2161  0.1380
  494MOL0     C66597   5.599   4.270   4.821  0.0903  0.2213 -0.5516
  494MOL0     C66598   5.490   4.276   4.926 -0.5306 -0.7103  0.1082
  494MOL0    Cl66599   5.371   4.156   4.880 -0.1936  0.2683 -0.3183
  494MOL0     C66600   6.498   4.149   4.531  0.2071  0.5730 -0.1377
  494MOL0     C66601   6.620   4.085   4.486  0.4188 -0.6008 -0.3018
  494MOL0     O66602   6.893   4.089   4.461  0.2159 -0.3255  1.0896
  494MOL0     C66603   6.993   3.758   4.362 -0.0432 -0.2426 -0.2939
  494MOL0     C66604   7.106   3.683   4.327  0.8038  0.2437  0.5801
  494MOL0     N66605   7.832   3.434   4.352 -0.2176  0.3056 -0.3296
  494MOL0     N66606   7.846   3.309   4.376  0.8047  0.0668  0.0484
  494MOL0     C66607   6.673   3.522   4.408 -0.6328  0.7838 -0.2250
  494MOL0     C66608   6.570   3.570   4.474  0.6802 -0.2685 -0.5961
  494MOL0     C66609   6.297   3.707   4.810  0.2983 -0.8239 -0.5265
  494MOL0     C66610   6.201   3.760   4.721 -0.0612 -0.4303  0.4020
  494MOL0     C66611   6.111   3.864   4.758 -0.2102 -0.1765  0.1845
  494MOL0     C66612   6.102   3.915   4.889 -1.0609  0.3409 -0.3483
  494MOL0     O66613   6.014   4.012   4.924  0.2657 -0.3889 -0.8128
  494MOL0     C66614   6.014   4.077   5.056  0.1964  0.3398  0.1830
  494MOL0     C66615   5.911   4.187   5.064  0.5504  0.4693 -0.4788
  494MOL0     C66616   5.958   4.285   5.175  0.3359 -0.3044  0.2161
  494MOL0     C66617   5.903   4.249   5.311 -0.0784 -0.4629  0.3083
  494MOL0     C66618   5.754   4.267   5.323  0.0768 -0.1235 -0.1995
  494MOL0     C66619   5.635   4.282   5.301 -0.1565  0.2678 -0.0356
  494MOL0     C66620   6.170   3.835   4.984  0.1316 -0.0830  0.7518
  494MOL0     C66621   6.274   3.746   4.947 -0.0494  0.4227 -0.0810
  494MOL0     C66622   6.320   3.664   5.069  0.4176 -0.4367 -0.1060
  494MOL0     H66623   6.530   3.343   4.723  1.1246 -0.3042  1.2507
  494MOL0     H66624   6.714   3.237   4.576  2.6351  1.3771 -3.3235
  494MOL0     H66625   6.917   3.239   4.521 -2.5565  1.4064  0.4860
  494MOL0     H66626   6.923   3.175   4.351  3.2846 -0.3759  1.4907
  494MOL0     H66627   7.095   3.397   4.461  2.1155 -0.3060 -0.5603
  494MOL0     H66628   7.092   3.350   4.291  0.8839 -0.4871  0.8451
  494MOL0     H66629   7.142   3.117   4.352 -1.6094  1.0489 -0.1335
  494MOL0     H66630   7.162   3.171   4.513  0.0034 -3.4025 -0.3279
  494MOL0     H66631   7.333   3.274   4.283 -1.3447 -1.2612 -0.3192
  494MOL0     H66632   7.368   3.307   4.460  0.3627  0.7458 -0.7642
  494MOL0     H66633   7.433   3.095   4.510 -2.5888 -4.2854 -0.3305
  494MOL0     H66634   7.381   3.027   4.361 -1.3278  0.7232 -2.2031
  494MOL0     H66635   7.528   3.169   4.227 -1.0172 -1.1484 -0.4066
  494MOL0     H66636   7.567   3.260   4.375 -2.7277  1.2456  0.1322
  494MOL0     H66637   7.632   2.964   4.322 -0.5527  1.1534 -2.9259
  494MOL0     H66638   7.691   3.079   4.458 -0.4567  2.6662  0.6722
  494MOL0     H66639   7.869   3.037   4.317  0.2515 -3.1784 -2.9026
  494MOL0     H66640   7.782   3.056   4.166  0.0412 -0.4562 -0.0843
  494MOL0     H66641   7.702   3.300   4.082 -0.2187 -0.5069 -0.2881
  494MOL0     H66642   7.823   3.651   4.196 -0.6903  1.1877  0.7756
  494MOL0     H66643   7.771   3.576   4.048  2.1541 -1.8950  0.0665
  494MOL0     H66644   7.600   3.646   4.287  2.6084 -0.2923  0.2024
  494MOL0     H66645   7.619   3.754   4.150  1.7117  1.3990  4.5517
  494MOL0     H66646   7.499   3.461   4.161  1.3388 -1.3572 -1.7022
  494MOL0     H66647   7.485   3.557   4.017 -0.2205  0.3688  0.0895
  494MOL0     H66648   7.264   3.562   4.125  0.4003  0.5190 -1.2126
  494MOL0     H66649   7.338   3.716   4.102  2.5796  0.8765 -0.9202
  494MOL0     H66650   7.353   3.879   4.404 -0.3784 -2.0521  1.3068
  494MOL0     H66651   7.152   4.037   4.471 -3.1121  0.6149 -1.3425
  494MOL0     H66652   6.598   3.820   4.713 -5.2592  0.2680  2.5763
  494MOL0     H66653   6.406   3.927   4.775  2.2619 -0.2705  1.9127
  494MOL0     H66654   6.305   4.350   4.684 -1.7421 -0.2887 -0.0573
  494MOL0     H66655   6.252   4.279   4.532 -1.0679  1.5151  0.3771
  494MOL0     H66656   6.056   4.204   4.628  3.1171 -3.3847  0.7702
  494MOL0     H66657   6.117   4.230   4.793  4.4268  1.6074  0.5170
  494MOL0     H66658   6.138   4.492   4.710  2.0104 -3.6133  3.3709
  494MOL0     H66659   6.028   4.446   4.588 -1.3777 -1.5858  0.8170
  494MOL0     H66660   5.908   4.538   4.793  1.4166  0.1866  0.8127
  494MOL0     H66661   5.988   4.413   4.886 -1.1951 -2.1700 -0.1506
  494MOL0     H66662   5.847   4.244   4.756  0.6034 -0.2069  0.9256
  494MOL0     H66663   5.806   4.372   4.641  1.3450 -1.1900 -0.2664
  494MOL0     H66664   5.743   4.381   4.938 -0.7056  0.4527  0.5125
  494MOL0     H66665   5.668   4.481   4.812  0.0099 -0.7775 -4.5672
  494MOL0     H66666   5.641   4.169   4.824  2.4086  1.1281  1.1493
  494MOL0     H66667   5.555   4.276   4.721  1.9240  0.5437 -1.3745
  494MOL0     H66668   5.532   4.260   5.025  1.1755  1.6685 -0.1699
  494MOL0     H66669   5.439   4.373   4.927  0.4305 -0.1055 -2.2132
  494MOL0     H66670   6.464   4.235   4.474  0.0017 -1.7452 -3.8581
  494MOL0     H66671   6.669   4.145   4.409 -4.4773  1.1742 -2.4674
  494MOL0     H66672   6.895   3.711   4.364  0.3892 -1.1569  0.6925
  494MOL0     H66673   7.082   3.585   4.286 -0.3718  0.4274  0.8038
  494MOL0     H66674   6.713   3.578   4.324  1.2765  0.9377  0.7311
  494MOL0     H66675   6.521   3.660   4.437 -2.2272 -1.6312 -0.3790
  494MOL0     H66676   6.195   3.744   4.614 -3.5143  0.2379  0.3860
  494MOL0     H66677   6.039   3.909   4.691 -0.3937  0.0404  0.5205
  494MOL0     H66678   6.114   4.119   5.075  1.6613 -2.0952 -1.6273
  494MOL0     H66679   5.979   4.009   5.134 -2.4518  3.6544  2.1650
  494MOL0     H66680   5.807   4.157   5.079  0.8728 -0.5865 -0.3034
  494MOL0     H66681   5.915   4.236   4.966 -1.8591 -0.1179 -0.9342
  494MOL0     H66682   5.915   4.382   5.147  2.0276  0.7584  1.0972
  494MOL0     H66683   6.067   4.294   5.179  0.4097 -1.4035  1.1125
  494MOL0     H66684   5.922   4.143   5.326  2.7268 -0.2862 -1.3564
  494MOL0     H66685   5.945   4.308   5.394  0.2219 -1.5458  0.9407
  494MOL0     H66686   5.529   4.294   5.295 -0.2113  1.1159  1.9892
  494MOL0     H66687   6.156   3.854   5.090  1.7194  0.6123  0.8561
  494MOL0     H66688   6.271   3.566   5.080  0.9561 -0.4681  2.7221
  494MOL0     H66689   6.427   3.644   5.070  0.6152  0.5656  1.5133
  494MOL0     H66690   6.307   3.724   5.160 -1.3811 -0.6158 -0.2032
  495MOL0     O66691   8.243   1.839   2.715 -0.3747  0.0409 -0.4272
  495MOL0     C66692   8.132   1.875   2.669  0.3806 -0.0551  0.3981
  495MOL0     O66693   8.109   1.984   2.589  0.3231  0.0530 -0.2988
  495MOL0     C66694   8.222   2.064   2.572 -0.0004  0.4593  0.0846
  495MOL0     C66695   8.241   2.162   2.660 -0.1126  0.1979 -0.7529
  495MOL0     C66696   8.365   2.237   2.658  0.4705  0.2978  0.7128
  495MOL0     C66697   8.451   2.217   2.550 -0.7814  0.6243 -0.2569
  495MOL0     O66698   8.568   2.290   2.553  0.3012  0.1692  0.1773
  495MOL0     C66699   8.632   2.317   2.425 -0.3903  0.3932 -0.7423
  495MOL0     C66700   8.592   2.464   2.390 -0.2750  0.2333 -0.6358
  495MOL0     C66701   8.655   2.512   2.265 -0.9644  0.1871  0.3637
  495MOL0     C66702   8.620   2.658   2.247 -0.3513 -0.5066 -0.0275
  495MOL0     C66703   8.679   2.725   2.124 -0.7756  0.1486  0.1276
  495MOL0     C66704   8.819   2.771   2.144  0.6554 -0.8528  0.2999
  495MOL0     C66705   8.916   2.744   2.033 -0.5180  0.8099 -0.4773
  495MOL0     C66706   9.044   2.832   2.054  0.9060 -0.3812 -0.0594
  495MOL0     N66707   9.121   2.858   1.938 -0.0313  0.1963  0.5827
  495MOL0     C66708   9.209   2.772   1.882 -0.7912 -0.8728  0.8993
  495MOL0     C66709   9.249   2.831   1.765 -0.0213  0.3840 -0.7216
  495MOL0     C66710   9.339   2.783   1.654 -0.0461  0.4218 -0.0099
  495MOL0     C66711   9.491   2.801   1.683 -0.2191  0.2268 -0.1544
  495MOL0     C66712   9.583   2.739   1.578 -0.0461  0.7008  1.0917
  495MOL0     C66713   9.730   2.769   1.591 -0.1255 -0.3608 -1.0774
  495MOL0     O66714   9.802   2.718   1.474 -0.3188 -0.2839 -0.8913
  495MOL0     C66715   9.939   2.756   1.462  0.5409 -0.2556  0.0809
  495MOL0     C66716  10.017   2.843   1.553  0.2793 -0.3376 -0.1658
  495MOL0     C66717  10.149   2.857   1.539  0.8536 -0.7885  0.2846
  495MOL0     C66718  10.222   2.794   1.439 -0.4603  0.2444  0.1470
  495MOL0     C66719  10.372   2.789   1.433  0.0739  0.7409 -0.9417
  495MOL0     O66720  10.436   2.877   1.518  0.3484 -0.4184  0.2011
  495MOL0     C66721  10.571   2.871   1.525 -0.7078 -0.5483 -0.2247
  495MOL0     C66722  10.662   2.846   1.430  0.2976  0.3644  0.5535
  495MOL0     C66723  10.795   2.834   1.451  0.0073  0.6149  0.3131
  495MOL0     C66724  10.847   2.859   1.580 -0.0359  0.3891  0.5812
  495MOL0     O66725  10.976   2.838   1.623  0.6003  0.2044 -0.2178
  495MOL0     C66726  11.086   2.870   1.538 -1.5447 -0.0965 -0.3864
  495MOL0     C66727  11.223   2.844   1.617 -0.4656 -0.2203 -0.1530
  495MOL0     C66728  11.343   2.887   1.532 -0.6679  0.5939  0.2300
  495MOL0     C66729  11.382   3.034   1.567 -0.1441 -0.0251 -0.2658
  495MOL0     C66730  11.502   3.077   1.490  0.9567  0.1208  0.2694
  495MOL0     C66731  11.629   3.035   1.560  0.1758  0.2319  0.1185
  495MOL0     C66732  11.753   3.089   1.494  0.4024 -0.9099  0.1218
  495MOL0     C66733  11.886   3.053   1.553 -0.5420  0.3414  0.3697
  495MOL0    Cl66734  11.888   2.878   1.592  0.3031 -0.0285 -0.1788
  495MOL0     C66735  10.761   2.912   1.675 -0.2469  0.3333  1.0579
  495MOL0     C66736  10.623   2.912   1.644  0.2917  0.2365 -0.7049
  495MOL0     O66737  10.426   2.697   1.371 -0.0333 -0.3979 -0.6143
  495MOL0     C66738  10.140   2.721   1.342 -0.0953  0.4404  0.1285
  495MOL0     C66739   9.999   2.707   1.352 -0.3592 -0.2001  0.7064
  495MOL0     N66740   9.197   2.958   1.766  0.1022  0.1910  0.7741
  495MOL0     N66741   9.119   2.980   1.865  0.0546  0.5927 -0.7449
  495MOL0     C66742   8.433   2.110   2.461 -0.3759  0.2949  0.3114
  495MOL0     C66743   8.325   2.024   2.479  0.8116 -0.5624 -0.6260
  495MOL0     C66744   8.019   1.784   2.677 -0.4115 -0.3950 -0.6523
  495MOL0     C66745   7.899   1.835   2.720  0.8286  0.0902  0.0692
  495MOL0     C66746   7.789   1.759   2.726  0.0899 -0.1527 -0.0538
  495MOL0     C66747   7.788   1.621   2.717 -0.0732  0.1819 -0.2232
  495MOL0     O66748   7.685   1.533   2.727 -0.2538 -0.1736  0.1004
  495MOL0     C66749   7.550   1.580   2.753  0.6977  0.8471  0.6304
  495MOL0     C66750   7.522   1.616   2.900 -0.0278  0.3235 -0.2329
  495MOL0     C66751   7.419   1.731   2.911  0.8894 -0.5107 -0.2892
  495MOL0     C66752   7.278   1.670   2.881 -0.3736  0.2721  0.3071
  495MOL0     C66753   7.184   1.776   2.922  0.3513  0.3924 -1.1294
  495MOL0     C66754   7.103   1.849   2.970 -0.0728  0.7074 -0.1155
  495MOL0     C66755   7.911   1.572   2.665  1.2914  0.4484  0.4322
  495MOL0     C66756   8.023   1.645   2.643  0.0392  0.4539 -0.4031
  495MOL0     C66757   8.146   1.586   2.586 -0.4343  0.7473  0.0026
  495MOL0     H66758   8.163   2.196   2.727 -0.8346  1.1553 -2.0360
  495MOL0     H66759   8.389   2.312   2.733 -2.5545  1.5171  0.6281
  495MOL0     H66760   8.739   2.314   2.447 -0.6827  2.4639  1.3136
  495MOL0     H66761   8.603   2.247   2.346  0.3700  0.1286 -0.7982
  495MOL0     H66762   8.625   2.514   2.481 -3.1236 -2.5314  2.1811
  495MOL0     H66763   8.483   2.463   2.381 -0.1348  0.0747 -3.0255
  495MOL0     H66764   8.622   2.447   2.184 -0.4197 -0.1270  0.3857
  495MOL0     H66765   8.764   2.511   2.263 -0.9791 -0.1368 -0.7737
  495MOL0     H66766   8.511   2.664   2.251 -0.5218  0.0616 -3.2393
  495MOL0     H66767   8.671   2.708   2.330 -3.1577  0.5929  1.1771
  495MOL0     H66768   8.666   2.671   2.030  1.4405  1.2472 -0.8651
  495MOL0     H66769   8.612   2.809   2.102 -0.2448 -0.0123 -2.3691
  495MOL0     H66770   8.804   2.877   2.165  1.4204 -0.6462 -0.1824
  495MOL0     H66771   8.856   2.732   2.239 -0.6762  0.0027  1.2123
  495MOL0     H66772   8.882   2.761   1.931 -0.1887  0.1150 -0.7088
  495MOL0     H66773   8.938   2.639   2.053  0.1973  1.3662  2.0245
  495MOL0     H66774   9.001   2.928   2.083 -2.8847 -2.6991  2.9398
  495MOL0     H66775   9.091   2.783   2.140 -3.9683 -0.8161  2.7043
  495MOL0     H66776   9.235   2.674   1.920  3.7897 -0.3025 -0.0998
  495MOL0     H66777   9.315   2.678   1.634 -0.9984  0.6104  0.0742
  495MOL0     H66778   9.304   2.839   1.567 -0.6284  0.7830  0.4495
  495MOL0     H66779   9.524   2.905   1.690  3.9640 -0.6997 -2.6776
  495MOL0     H66780   9.513   2.758   1.781 -0.3077 -2.2568 -1.1445
  495MOL0     H66781   9.547   2.767   1.478 -2.3333 -0.6566  1.4707
  495MOL0     H66782   9.575   2.630   1.578 -0.7256  0.5593 -3.0913
  495MOL0     H66783   9.766   2.733   1.688 -1.2499 -0.4528 -0.6741
  495MOL0     H66784   9.740   2.877   1.580  0.1101 -0.5233 -2.6351
  495MOL0     H66785   9.968   2.889   1.638  0.5497  0.2773 -0.3383
  495MOL0     H66786  10.206   2.914   1.611 -1.9464  0.8086  1.3844
  495MOL0     H66787  10.626   2.814   1.333 -1.4847 -1.6012  1.7615
  495MOL0     H66788  10.861   2.812   1.368 -0.2783  3.4180 -0.7612
  495MOL0     H66789  11.077   2.810   1.447  0.9105 -0.8578 -0.2115
  495MOL0     H66790  11.080   2.978   1.521 -2.2627  0.1660  1.2889
  495MOL0     H66791  11.235   2.893   1.714  2.2654  3.2625 -2.0422
  495MOL0     H66792  11.230   2.736   1.636 -0.7251  0.1951  2.6617
  495MOL0     H66793  11.425   2.815   1.546 -0.1478  1.3166  1.0468
  495MOL0     H66794  11.324   2.886   1.425 -0.7350  0.9912  0.2367
  495MOL0     H66795  11.405   3.037   1.674  1.2894 -0.8843 -0.5229
  495MOL0     H66796  11.292   3.091   1.542 -0.7340 -2.2319 -3.7701
  495MOL0     H66797  11.503   3.186   1.488  1.3983  0.1280  0.8122
  495MOL0     H66798  11.505   3.046   1.385  0.7372  3.0241 -0.6816
  495MOL0     H66799  11.626   3.069   1.664 -2.2686 -1.6457  0.7628
  495MOL0     H66800  11.632   2.926   1.561 -0.7130  0.2037  0.8999
  495MOL0     H66801  11.743   3.198   1.492 -0.6159 -1.0020 -1.7857
  495MOL0     H66802  11.752   3.051   1.391  2.7944 -0.8836  0.0311
  495MOL0     H66803  11.967   3.068   1.481  0.1322 -0.5190  0.9235
  495MOL0     H66804  11.920   3.113   1.638  4.4729 -1.2675 -0.1919
  495MOL0     H66805  10.783   2.934   1.779 -1.6061 -1.2953  1.7407
  495MOL0     H66806  10.551   2.940   1.721 -0.7487  0.6659 -1.8010
  495MOL0     H66807  10.195   2.674   1.262 -1.0925  0.3943 -0.5520
  495MOL0     H66808   9.944   2.650   1.277  2.6649 -1.6006 -0.5784
  495MOL0     H66809   8.493   2.092   2.373 -1.2568  1.9039 -0.6608
  495MOL0     H66810   8.311   1.931   2.425 -1.1535 -1.7059  1.6543
  495MOL0     H66811   7.896   1.942   2.739  1.4698  0.0539  0.4009
  495MOL0     H66812   7.697   1.816   2.735  1.3223  1.9540  0.0325
  495MOL0     H66813   7.488   1.494   2.724  1.2464  0.0363  1.7976
  495MOL0     H66814   7.516   1.662   2.689  1.1767  0.3242 -0.3093
  495MOL0     H66815   7.608   1.660   2.952  0.3340  2.0351 -2.1241
  495MOL0     H66816   7.481   1.528   2.950  0.1594 -0.0480 -0.7185
  495MOL0     H66817   7.442   1.815   2.845 -2.7746 -1.2523 -2.8385
  495MOL0     H66818   7.413   1.777   3.010 -1.2099  1.3960 -1.2118
  495MOL0     H66819   7.257   1.639   2.779 -0.3778  1.3463 -0.0269
  495MOL0     H66820   7.266   1.584   2.948 -0.9356  2.3118  3.0274
  495MOL0     H66821   7.026   1.911   3.012 -0.2800  1.2172 -1.2050
  495MOL0     H66822   7.916   1.464   2.654 -2.5972  0.3718 -3.3181
  495MOL0     H66823   8.209   1.562   2.672 -1.2733  1.0286  0.7098
  495MOL0     H66824   8.131   1.488   2.540  2.2821  0.1254  0.2266
  495MOL0     H66825   8.198   1.646   2.510 -1.2191  2.3549  0.6855
  496MOL0     O66826  10.894   8.744   9.361  0.3491 -1.0712 -0.3698
  496MOL0     C66827  10.853   8.852   9.318 -1.0977  0.1379 -0.3808
  496MOL0     O66828  10.926   8.962   9.284 -0.3434 -0.0702 -0.3228
  496MOL0     C66829  11.063   8.957   9.297 -0.4621 -0.1519  0.3887
  496MOL0     C66830  11.136   9.074   9.311  0.3209  0.1221  0.0050
  496MOL0     C66831  11.282   9.071   9.311  0.0518 -0.4002 -0.2488
  496MOL0     C66832  11.356   8.955   9.299  0.8370  0.1424 -0.3608
  496MOL0     O66833  11.493   8.938   9.298 -0.3500  0.1385 -0.2821
  496MOL0     C66834  11.573   9.057   9.293 -0.0383 -0.1319  0.0391
  496MOL0     C66835  11.718   9.025   9.274  0.2415  0.2197  0.6363
  496MOL0     C66836  11.792   9.130   9.186 -0.7603  0.3257  0.3115
  496MOL0     C66837  11.947   9.116   9.171  0.4050  0.3865  0.6181
  496MOL0     C66838  12.016   9.224   9.102  0.5731 -0.3550  0.3114
  496MOL0     C66839  12.167   9.218   9.109  0.7358  0.0718  0.0913
  496MOL0     C66840  12.211   9.335   9.017  0.2110 -0.5500 -0.3338
  496MOL0     C66841  12.361   9.369   9.054 -0.0360  0.4258 -0.7860
  496MOL0     N66842  12.457   9.274   8.998 -0.2904 -0.1632 -0.7683
  496MOL0     C66843  12.589   9.268   9.038  0.4432 -0.0152  0.4417
  496MOL0     C66844  12.651   9.193   8.940 -0.7354 -0.1132  0.2617
  496MOL0     C66845  12.792   9.143   8.957 -0.5757 -0.0716 -0.0096
  496MOL0     C66846  12.897   9.260   8.933 -0.5847 -0.2390  0.5071
  496MOL0     C66847  13.030   9.218   8.990  0.0728  0.2103  0.4471
  496MOL0     C66848  13.078   9.077   8.952 -0.2949  0.6538  0.7492
  496MOL0     O66849  13.205   9.070   9.013  0.2499 -0.2866 -0.1885
  496MOL0     C66850  13.316   9.125   8.952  0.2585  0.7718 -1.2014
  496MOL0     C66851  13.440   9.102   9.026 -0.1998 -0.2237  0.1571
  496MOL0     C66852  13.565   9.152   8.971  0.9797  0.6658 -0.0447
  496MOL0     C66853  13.566   9.232   8.856  1.4772  0.5986 -0.9243
  496MOL0     C66854  13.700   9.270   8.816  0.3622 -0.6394 -0.1196
  496MOL0     O66855  13.796   9.284   8.910  0.3448 -0.1265  0.0788
  496MOL0     C66856  13.930   9.300   8.877  0.4059 -0.1461 -0.4475
  496MOL0     C66857  13.981   9.355   8.756  0.0067 -0.4207  1.1408
  496MOL0     C66858  14.122   9.357   8.731 -0.5967 -0.2257 -0.7039
  496MOL0     C66859  14.215   9.338   8.842  0.6112  0.6272  0.0998
  496MOL0     O66860  14.349   9.367   8.820  0.5515 -0.2478  0.4455
  496MOL0     C66861  14.435   9.379   8.935  0.5698  0.3109  0.1794
  496MOL0     C66862  14.572   9.409   8.873  0.4909  0.1564  0.6486
  496MOL0     C66863  14.668   9.464   8.989 -0.0669  0.0265 -0.2925
  496MOL0     C66864  14.672   9.374   9.116  0.0824  1.0080 -0.3386
  496MOL0     C66865  14.801   9.400   9.192 -0.1798 -0.3567  0.3867
  496MOL0     C66866  14.800   9.349   9.336 -0.3775 -0.4037 -0.1000
  496MOL0     C66867  14.922   9.398   9.404 -0.7865  0.6626 -0.0948
  496MOL0     C66868  14.951   9.337   9.535  0.4642 -0.5242 -0.1959
  496MOL0    Cl66869  14.833   9.350   9.658 -0.2199  0.2771 -0.0512
  496MOL0     C66870  14.161   9.278   8.958  0.3267 -0.0782 -0.7597
  496MOL0     C66871  14.020   9.258   8.980 -0.4135 -0.2541  0.4361
  496MOL0     O66872  13.708   9.306   8.700 -0.3008  0.0821  0.2606
  496MOL0     C66873  13.445   9.251   8.785  0.3000  0.2146 -0.4889
  496MOL0     C66874  13.324   9.193   8.825  0.2054  0.0208  0.0561
  496MOL0     N66875  12.559   9.148   8.847  0.5925 -0.1156  0.1398
  496MOL0     N66876  12.442   9.197   8.889 -0.3458 -0.4693  0.0650
  496MOL0     C66877  11.279   8.836   9.285 -0.0918  0.1188 -0.7209
  496MOL0     C66878  11.141   8.839   9.284 -0.8156 -0.1639  0.2734
  496MOL0     C66879  10.709   8.875   9.297 -0.1677  0.8893  0.6777
  496MOL0     C66880  10.661   8.967   9.193 -1.1854 -0.1935  0.0320
  496MOL0     C66881  10.532   8.979   9.153 -1.1041  0.1095  0.7323
  496MOL0     C66882  10.431   8.913   9.228 -0.2375  0.4167 -0.0311
  496MOL0     O66883  10.298   8.926   9.205  0.2879 -0.1792  0.0618
  496MOL0     C66884  10.257   9.052   9.259  0.4522 -0.4487 -0.1192
  496MOL0     C66885  10.117   9.049   9.269  1.0412  0.3404 -0.1259
  496MOL0     C66886  10.048   8.959   9.365  0.0158  0.4941  0.2538
  496MOL0     C66887  10.043   8.808   9.320 -0.6322 -0.0407  0.2870
  496MOL0     C66888   9.938   8.735   9.388 -0.5998 -0.4821 -0.1691
  496MOL0     C66889   9.853   8.675   9.456 -1.1554  0.4699 -0.4314
  496MOL0     C66890  10.473   8.822   9.324  0.4792  1.0629  0.8587
  496MOL0     C66891  10.608   8.795   9.359  0.2942 -0.6350 -0.1855
  496MOL0     C66892  10.634   8.694   9.469  0.6217 -0.4336  0.5685
  496MOL0     H66893  11.082   9.168   9.314 -2.1495 -1.2324  0.8765
  496MOL0     H66894  11.346   9.156   9.329  2.9446 -2.7532  1.4292
  496MOL0     H66895  11.539   9.105   9.201  2.6548  0.5825 -0.6515
  496MOL0     H66896  11.562   9.127   9.377  2.8967  1.5124 -0.8232
  496MOL0     H66897  11.730   8.922   9.241 -1.9806  1.0996 -3.4587
  496MOL0     H66898  11.761   9.033   9.375 -0.0832 -1.3385  0.9204
  496MOL0     H66899  11.770   9.226   9.234 -3.1344  0.5578 -1.0864
  496MOL0     H66900  11.760   9.147   9.083  3.7029  0.3653 -1.2953
  496MOL0     H66901  11.990   9.100   9.270  0.2556  1.5663  0.8846
  496MOL0     H66902  11.963   9.027   9.109  0.8093  1.4920 -0.9131
  496MOL0     H66903  11.981   9.220   8.998  2.3547 -0.2728 -0.3291
  496MOL0     H66904  11.993   9.322   9.144 -1.9201 -1.0539  0.7187
  496MOL0     H66905  12.204   9.233   9.211  1.4702 -1.9712  0.1555
  496MOL0     H66906  12.198   9.118   9.080  3.2800  1.3046 -1.8153
  496MOL0     H66907  12.145   9.420   9.040  0.1884 -0.5990 -0.2162
  496MOL0     H66908  12.191   9.316   8.911 -2.3089 -1.5144  0.2390
  496MOL0     H66909  12.380   9.470   9.016  1.5945  0.7198  0.6737
  496MOL0     H66910  12.382   9.376   9.161  1.5127  4.5968 -1.1885
  496MOL0     H66911  12.626   9.318   9.126  0.9101 -1.2791  0.9855
  496MOL0     H66912  12.809   9.087   9.049 -0.1546 -2.2027 -1.2890
  496MOL0     H66913  12.810   9.060   8.888  3.5143 -0.0542  0.7869
  496MOL0     H66914  12.903   9.276   8.825  0.6608 -2.0237  0.2841
  496MOL0     H66915  12.861   9.351   8.983  1.9991  0.2731  1.5494
  496MOL0     H66916  13.037   9.230   9.099 -2.5752  4.4521  0.3758
  496MOL0     H66917  13.104   9.289   8.953 -1.9546  0.8901 -2.6749
  496MOL0     H66918  13.080   9.063   8.843 -0.9319  0.6807  0.7289
  496MOL0     H66919  13.021   8.995   8.997  0.2585 -2.2663 -3.3311
  496MOL0     H66920  13.440   9.045   9.118 -0.0676 -1.7009 -0.7177
  496MOL0     H66921  13.652   9.103   9.013  0.3134 -1.4022 -0.9388
  496MOL0     H66922  13.912   9.381   8.675  1.7690 -2.0117 -0.9939
  496MOL0     H66923  14.155   9.395   8.635 -1.7680 -1.2406 -1.5445
  496MOL0     H66924  14.408   9.463   9.000  0.8240 -0.2638  1.0446
  496MOL0     H66925  14.429   9.287   8.994 -0.9776  2.1617  3.1762
  496MOL0     H66926  14.605   9.315   8.827 -1.5765 -0.8703  1.1448
  496MOL0     H66927  14.562   9.490   8.801 -0.1101  0.9615  1.6158
  496MOL0     H66928  14.762   9.482   8.936 -0.5345  1.8228 -0.5648
  496MOL0     H66929  14.633   9.564   9.017  0.5959  0.2422 -0.2224
  496MOL0     H66930  14.655   9.268   9.095  0.2584  1.1251 -1.1035
  496MOL0     H66931  14.587   9.402   9.179  0.0761 -1.3628  0.8329
  496MOL0     H66932  14.805   9.509   9.191 -2.8873 -0.2028  0.8261
  496MOL0     H66933  14.887   9.358   9.139  1.3280  2.3686  0.4948
  496MOL0     H66934  14.714   9.382   9.396 -0.3142 -2.5558  1.2904
  496MOL0     H66935  14.802   9.240   9.340 -2.1109 -0.4259  2.9357
  496MOL0     H66936  14.908   9.505   9.418 -4.8316 -0.0646  3.6131
  496MOL0     H66937  15.009   9.371   9.344 -0.3620 -3.2448  1.9056
  496MOL0     H66938  14.948   9.230   9.513 -0.8403 -0.4532 -0.4348
  496MOL0     H66939  15.051   9.358   9.574  0.4708 -1.5306  0.3410
  496MOL0     H66940  14.217   9.244   9.045 -2.0587  0.1025  0.9605
  496MOL0     H66941  13.982   9.213   9.071 -1.5826 -0.9540 -0.3782
  496MOL0     H66942  13.447   9.307   8.692  1.1235  2.5842  0.8677
  496MOL0     H66943  13.236   9.209   8.765 -1.8244 -1.8440  2.3587
  496MOL0     H66944  11.329   8.741   9.267 -0.8659  0.4076 -5.9359
  496MOL0     H66945  11.091   8.744   9.267 -0.7537  0.1331 -1.8878
  496MOL0     H66946  10.745   9.028   9.160 -0.0699  0.5451  3.7727
  496MOL0     H66947  10.517   9.051   9.073  1.6458 -2.1926 -2.1090
  496MOL0     H66948  10.283   9.125   9.182  2.4561 -0.3261  0.6108
  496MOL0     H66949  10.311   9.066   9.354  1.3770  0.8032 -0.7879
  496MOL0     H66950  10.070   9.022   9.174 -2.3516  0.1387  1.4521
  496MOL0     H66951  10.090   9.154   9.285  0.0400  0.2929 -1.3163
  496MOL0     H66952   9.950   9.004   9.378 -0.4909 -0.3542 -0.4674
  496MOL0     H66953  10.100   8.968   9.460 -0.9444 -2.0231  1.0854
  496MOL0     H66954  10.018   8.793   9.215  0.2068 -2.0619  0.3193
  496MOL0     H66955  10.138   8.760   9.347 -0.6672  0.0737  0.6214
  496MOL0     H66956   9.784   8.635   9.528 -0.2546  1.0986  0.8138
  496MOL0     H66957  10.390   8.761   9.357  1.1056  0.7956  1.9938
  496MOL0     H66958  10.551   8.627   9.496 -0.1121  0.2619  0.0670
  496MOL0     H66959  10.710   8.630   9.424 -0.8328 -2.2515  0.5674
  496MOL0     H66960  10.674   8.738   9.561 -1.2379 -3.2502  2.9190
  497MOL0     O66961   4.843  10.828   1.303 -0.6198  0.7685  0.4096
  497MOL0     C66962   4.775  10.927   1.300  0.8865 -0.2032 -0.8857
  497MOL0     O66963   4.812  11.051   1.270  0.3758 -0.2643  0.3152
  497MOL0     C66964   4.950  11.072   1.262  0.4736  0.3740 -0.5346
  497MOL0     C66965   4.984  11.181   1.181 -0.5691 -0.4291 -0.1793
  497MOL0     C66966   5.109  11.251   1.189  0.0470  0.1828  0.3442
  497MOL0     C66967   5.209  11.194   1.271 -0.0208  0.7790 -0.1692
  497MOL0     O66968   5.341  11.241   1.281  0.7432 -0.1800 -0.7425
  497MOL0     C66969   5.366  11.380   1.257  0.3606  0.3313  0.3842
  497MOL0     C66970   5.502  11.404   1.309  0.6363 -0.0833 -0.3524
  497MOL0     C66971   5.614  11.337   1.244  0.5374  0.1578 -0.4356
  497MOL0     C66972   5.749  11.354   1.324  0.1413 -0.8463 -0.1276
  497MOL0     C66973   5.854  11.258   1.270 -1.1479 -0.0662  0.3289
  497MOL0     C66974   5.936  11.311   1.153 -0.2895 -0.4994 -0.0031
  497MOL0     C66975   6.051  11.209   1.131 -0.5925  0.6900  0.5859
  497MOL0     C66976   6.015  11.089   1.043 -0.0048  0.2738 -0.0759
  497MOL0     N66977   6.146  11.038   1.011 -0.1558  0.6294 -0.0633
  497MOL0     C66978   6.226  10.960   1.087 -0.1755 -0.8752 -0.8858
  497MOL0     C66979   6.337  10.930   1.019 -0.0347 -0.1227  1.5073
  497MOL0     C66980   6.469  10.879   1.072 -0.2323  0.1297 -0.6000
  497MOL0     C66981   6.542  10.987   1.157  0.5839 -0.2933  0.2039
  497MOL0     C66982   6.678  10.946   1.237 -0.2954  0.6610 -0.0431
  497MOL0     C66983   6.777  10.879   1.148  0.0093  0.1214  0.2754
  497MOL0     O66984   6.843  10.978   1.069  0.4749 -0.0766 -0.6682
  497MOL0     C66985   6.933  10.917   0.984  0.0969 -0.6627 -0.1109
  497MOL0     C66986   6.949  10.786   0.938  0.1037 -0.8317  0.0362
  497MOL0     C66987   7.063  10.755   0.858 -0.7049  0.7148 -0.1047
  497MOL0     C66988   7.154  10.853   0.830  0.1378  0.1645 -0.7475
  497MOL0     C66989   7.280  10.816   0.761 -0.7749 -0.0376  0.2010
  497MOL0     O66990   7.261  10.725   0.664 -0.0961  0.0374 -0.2218
  497MOL0     C66991   7.373  10.652   0.621 -0.2536  0.2722 -0.4351
  497MOL0     C66992   7.380  10.630   0.485 -0.1555 -0.6359  0.0817
  497MOL0     C66993   7.482  10.564   0.426 -0.4024  0.5904 -0.4719
  497MOL0     C66994   7.590  10.530   0.505  0.4365 -0.3247 -0.1247
  497MOL0     O66995   7.693  10.465   0.445  0.2820  0.0554 -0.2185
  497MOL0     C66996   7.815  10.545   0.428  0.0248 -0.5296  0.7670
  497MOL0     C66997   7.908  10.464   0.341  0.6441 -0.5427 -0.0444
  497MOL0     C66998   7.965  10.338   0.411 -0.2562 -0.9447 -0.1087
  497MOL0     C66999   8.114  10.307   0.367 -0.0710  0.2528  0.6865
  497MOL0     C67000   8.182  10.231   0.480  0.0986  0.6680  0.6128
  497MOL0     C67001   8.326  10.196   0.453 -0.8497 -0.2170 -0.0606
  497MOL0     C67002   8.370  10.082   0.558 -0.5105  0.1640  0.4370
  497MOL0     C67003   8.518  10.050   0.531 -0.2713 -0.5001 -0.2081
  497MOL0    Cl67004   8.563   9.886   0.585  0.7918  0.2511 -0.1441
  497MOL0     C67005   7.575  10.534   0.644 -0.6035 -0.3821  0.3312
  497MOL0     C67006   7.470  10.605   0.705 -0.5070  0.2581  0.8071
  497MOL0     O67007   7.385  10.879   0.782 -1.2224  0.2344 -0.1367
  497MOL0     C67008   7.149  10.977   0.878 -0.5764 -0.1596 -0.1933
  497MOL0     C67009   7.037  11.009   0.960 -0.1862 -0.1497 -0.2935
  497MOL0     N67010   6.320  10.989   0.892 -0.4175  0.3891 -0.5914
  497MOL0     N67011   6.215  11.060   0.893 -0.7215 -0.2338  0.2273
  497MOL0     C67012   5.179  11.086   1.349  0.2893  0.6464 -1.4846
  497MOL0     C67013   5.052  11.028   1.348 -0.2302  0.4584 -0.2352
  497MOL0     C67014   4.633  10.897   1.337  0.3134 -1.4547  0.3253
  497MOL0     C67015   4.543  11.007   1.350 -0.2189  0.4662  0.1917
  497MOL0     C67016   4.407  11.001   1.385  0.0931 -0.5275 -0.7327
  497MOL0     C67017   4.352  10.879   1.407 -0.4279  0.0340  0.4709
  497MOL0     O67018   4.222  10.873   1.437  0.5524  0.5965 -0.1449
  497MOL0     C67019   4.133  10.991   1.435  0.1538  1.0253 -0.3506
  497MOL0     C67020   3.980  10.973   1.449 -0.0729  0.5425 -0.4673
  497MOL0     C67021   3.926  10.905   1.321 -0.0297 -0.1164 -0.4883
  497MOL0     C67022   3.777  10.870   1.340  0.2113 -0.2667 -0.4690
  497MOL0     C67023   3.684  10.985   1.357 -0.6650 -0.2660 -0.4564
  497MOL0     C67024   3.608  11.081   1.369 -0.6763  0.2469  0.5600
  497MOL0     C67025   4.433  10.767   1.399  0.3933  0.3080 -0.3913
  497MOL0     C67026   4.569  10.770   1.371 -0.5172  0.2223  1.3395
  497MOL0     C67027   4.643  10.635   1.369 -0.0707  0.2384  1.2524
  497MOL0     H67028   4.909  11.214   1.110 -0.8355  2.7773  1.3848
  497MOL0     H67029   5.132  11.340   1.132  1.4105 -0.5959 -0.3982
  497MOL0     H67030   5.360  11.404   1.151 -0.8809  1.0011  0.5814
  497MOL0     H67031   5.299  11.451   1.306  0.8154  1.8118 -1.0661
  497MOL0     H67032   5.501  11.377   1.415 -1.4781 -2.0316 -0.7971
  497MOL0     H67033   5.524  11.511   1.314  1.9731 -0.3598  3.7092
  497MOL0     H67034   5.630  11.380   1.144  4.4227 -0.0220 -0.0205
  497MOL0     H67035   5.582  11.233   1.243 -2.3198  0.8954  1.4223
  497MOL0     H67036   5.786  11.456   1.333 -1.3030 -0.4064  1.3472
  497MOL0     H67037   5.727  11.329   1.428 -0.6850  0.2996 -0.0048
  497MOL0     H67038   5.913  11.242   1.361 -0.1717  1.7281  0.0718
  497MOL0     H67039   5.810  11.164   1.236  1.7012 -1.1422 -0.6574
  497MOL0     H67040   5.890  11.319   1.054  0.4457 -0.8828 -0.3868
  497MOL0     H67041   5.974  11.409   1.181  1.0519 -0.5212 -1.5637
  497MOL0     H67042   6.084  11.181   1.231 -3.6330  1.5419  1.9518
  497MOL0     H67043   6.126  11.269   1.079 -1.2478 -0.7548 -2.2250
  497MOL0     H67044   5.948  11.020   1.096  0.8585 -0.2525  0.3611
  497MOL0     H67045   5.958  11.113   0.953 -2.0502 -2.2311  0.4281
  497MOL0     H67046   6.201  10.939   1.191 -2.4096 -0.3897 -1.2845
  497MOL0     H67047   6.456  10.790   1.134  1.2814 -1.2148 -2.1168
  497MOL0     H67048   6.527  10.849   0.984  1.1529  1.0768 -0.0504
  497MOL0     H67049   6.566  11.071   1.090 -4.7408  1.0650 -0.4809
  497MOL0     H67050   6.466  11.015   1.231  0.6929  1.3232 -0.2554
  497MOL0     H67051   6.643  10.875   1.313  0.9216  0.0699 -0.0073
  497MOL0     H67052   6.726  11.026   1.295 -1.4950  0.5258  1.1853
  497MOL0     H67053   6.717  10.817   1.081 -1.0898  2.8546 -1.4326
  497MOL0     H67054   6.840  10.816   1.211 -1.6698  2.1418  4.2889
  497MOL0     H67055   6.869  10.714   0.956 -0.6228 -0.1358 -0.3417
  497MOL0     H67056   7.080  10.650   0.835  0.6607  0.9608 -0.3119
  497MOL0     H67057   7.298  10.674   0.430  0.2769  0.5312  0.3482
  497MOL0     H67058   7.483  10.548   0.319 -2.3469 -0.1335 -0.4130
  497MOL0     H67059   7.790  10.633   0.368 -2.0653 -2.2767 -1.1293
  497MOL0     H67060   7.857  10.580   0.522 -0.8001 -2.6583  2.0003
  497MOL0     H67061   7.871  10.435   0.242  2.0643  1.2637 -1.1608
  497MOL0     H67062   7.991  10.534   0.337  0.3410 -0.1814 -0.0577
  497MOL0     H67063   7.960  10.368   0.516  0.6645  0.9993 -0.5773
  497MOL0     H67064   7.895  10.254   0.413  0.1530 -1.2963  1.8834
  497MOL0     H67065   8.165  10.403   0.356  0.2650  0.0149  0.1469
  497MOL0     H67066   8.117  10.253   0.272  3.4057  1.3412  0.0437
  497MOL0     H67067   8.133  10.133   0.478 -1.0590  1.1882  1.9038
  497MOL0     H67068   8.165  10.285   0.573 -2.3717  1.5363 -0.2723
  497MOL0     H67069   8.333  10.142   0.359  0.9167 -0.7912  0.3653
  497MOL0     H67070   8.390  10.285   0.458  0.8410 -1.3430 -1.1268
  497MOL0     H67071   8.316   9.987   0.551 -1.1292  0.4063  1.6539
  497MOL0     H67072   8.361  10.121   0.660 -0.8839  2.2402 -0.3271
  497MOL0     H67073   8.533  10.052   0.423 -2.3607  0.7584 -0.5248
  497MOL0     H67074   8.583  10.125   0.578  0.1379 -1.3022  0.5545
  497MOL0     H67075   7.661  10.495   0.698  1.7777  1.2704 -2.0226
  497MOL0     H67076   7.471  10.626   0.811 -1.8138  1.0030  0.6942
  497MOL0     H67077   7.220  11.058   0.863  0.3869 -0.0945  3.5792
  497MOL0     H67078   7.047  11.110   0.999 -1.9050  1.2532 -3.1878
  497MOL0     H67079   5.249  11.037   1.416 -2.6168 -0.8384  0.6732
  497MOL0     H67080   5.048  10.953   1.427  1.4886  1.2852  0.7088
  497MOL0     H67081   4.583  11.105   1.324  0.9874  0.6323  2.4445
  497MOL0     H67082   4.346  11.091   1.376  2.4065  1.0825 -1.5762
  497MOL0     H67083   4.143  11.050   1.344  0.0458 -1.3579 -2.0130
  497MOL0     H67084   4.153  11.045   1.528  2.0218 -0.5211  0.2043
  497MOL0     H67085   3.933  11.071   1.464 -2.4002 -0.8871  2.8217
  497MOL0     H67086   3.956  10.915   1.540 -1.7539 -3.0910 -2.9690
  497MOL0     H67087   3.973  10.807   1.304  0.8044  0.3063 -0.6624
  497MOL0     H67088   3.948  10.970   1.236  1.6972  0.7491  0.5735
  497MOL0     H67089   3.739  10.817   1.252 -0.2504 -0.6410 -0.0507
  497MOL0     H67090   3.772  10.805   1.428  0.8444 -2.1890 -1.8140
  497MOL0     H67091   3.524  11.145   1.388 -1.3597 -0.2480 -0.6533
  497MOL0     H67092   4.380  10.675   1.422 -0.8951  1.1691  0.1890
  497MOL0     H67093   4.731  10.638   1.433 -0.1197 -2.6175  1.5613
  497MOL0     H67094   4.579  10.556   1.410 -0.5058  1.0641  2.2155
  497MOL0     H67095   4.676  10.602   1.270  2.9179  0.4184  2.0896
  498MOL0     O67096   2.238   3.596   6.335  0.3740 -0.2934  0.1030
  498MOL0     C67097   2.179   3.635   6.437 -0.0289  0.1405  0.8277
  498MOL0     O67098   2.249   3.686   6.551  0.3065  0.4539  0.9144
  498MOL0     C67099   2.385   3.683   6.555 -0.1655 -0.7459  0.4662
  498MOL0     C67100   2.441   3.576   6.616 -0.6367 -0.4175  0.5748
  498MOL0     C67101   2.582   3.566   6.607  0.1355 -0.0355  0.1194
  498MOL0     C67102   2.663   3.668   6.563 -0.0066  0.2551  0.3036
  498MOL0     O67103   2.798   3.646   6.565  0.5468  0.1101  0.1515
  498MOL0     C67104   2.878   3.755   6.512 -0.0177  0.1236 -0.2241
  498MOL0     C67105   3.028   3.728   6.519 -0.0959 -0.0887  0.5187
  498MOL0     C67106   3.105   3.850   6.466 -0.0893 -0.6469  1.1364
  498MOL0     C67107   3.090   3.889   6.312  0.0744 -0.1178  0.4303
  498MOL0     C67108   3.178   4.009   6.271  0.5302  0.2082  0.0812
  498MOL0     C67109   3.148   4.046   6.126  0.3306  0.2611 -0.5878
  498MOL0     C67110   3.218   3.962   6.015  1.4588  0.4058  0.8559
  498MOL0     C67111   3.152   3.984   5.876  0.1491  0.8277  0.6889
  498MOL0     N67112   3.159   3.862   5.800  0.1641  0.0197 -0.2467
  498MOL0     C67113   3.261   3.768   5.786 -0.0161 -0.4913 -0.5645
  498MOL0     C67114   3.213   3.688   5.691 -0.0504  0.6497  0.6792
  498MOL0     C67115   3.291   3.564   5.640 -0.1779 -0.5035 -0.5085
  498MOL0     C67116   3.215   3.435   5.656  0.3374  0.4929  0.0059
  498MOL0     C67117   3.296   3.309   5.650 -0.6321  0.1957 -0.3213
  498MOL0     C67118   3.213   3.179   5.682 -0.4281  0.3865 -0.1827
  498MOL0     O67119   3.297   3.061   5.661  0.5459  0.5403 -0.7394
  498MOL0     C67120   3.365   3.023   5.774  0.7311 -0.4173 -0.4899
  498MOL0     C67121   3.498   3.057   5.798 -0.1375  0.4628  0.3029
  498MOL0     C67122   3.568   3.005   5.906  0.7194 -0.5335 -0.3861
  498MOL0     C67123   3.497   2.928   6.009 -0.3926 -0.1313 -0.0860
  498MOL0     C67124   3.561   2.868   6.129 -0.2116 -0.4023 -0.8033
  498MOL0     O67125   3.684   2.817   6.107 -0.4881  0.6728  0.1977
  498MOL0     C67126   3.760   2.759   6.208 -0.2403  0.6618 -0.5157
  498MOL0     C67127   3.723   2.655   6.294 -0.1525  0.0662 -0.1317
  498MOL0     C67128   3.803   2.613   6.398 -0.2098  0.1975 -0.2199
  498MOL0     C67129   3.932   2.646   6.415 -0.2783 -0.6028 -0.1229
  498MOL0     O67130   3.998   2.602   6.520  0.5071  0.8908 -0.2160
  498MOL0     C67131   4.133   2.636   6.555  0.5233  0.2723 -0.1850
  498MOL0     C67132   4.239   2.578   6.469  0.2812  0.8288 -0.1621
  498MOL0     C67133   4.373   2.639   6.513 -0.9693 -0.1968  0.5653
  498MOL0     C67134   4.496   2.572   6.431  0.7665  0.2885  0.8284
  498MOL0     C67135   4.621   2.637   6.482  1.0855  0.8782 -0.4636
  498MOL0     C67136   4.748   2.593   6.410  0.1300 -0.0904  0.2752
  498MOL0     C67137   4.871   2.677   6.449  0.8751 -0.5442  0.0396
  498MOL0     C67138   5.003   2.604   6.439  0.9239 -0.4211 -1.1104
  498MOL0    Cl67139   5.125   2.751   6.420 -0.0080 -0.1890  0.5185
  498MOL0     C67140   3.976   2.747   6.330  0.7289 -0.8602  0.2803
  498MOL0     C67141   3.897   2.802   6.223  1.0983  0.3680 -0.5292
  498MOL0     O67142   3.499   2.868   6.234  0.2646  0.5332 -0.1299
  498MOL0     C67143   3.360   2.905   5.983  0.5641  0.4989  0.0271
  498MOL0     C67144   3.300   2.953   5.871  0.3942  0.2239 -0.1448
  498MOL0     N67145   3.086   3.734   5.645 -0.2232 -0.0755  0.2031
  498MOL0     N67146   3.061   3.839   5.709  0.3953 -0.4831  0.2685
  498MOL0     C67147   2.602   3.790   6.514 -0.6593 -0.5933  0.0720
  498MOL0     C67148   2.463   3.789   6.494  1.2530 -0.5552  0.1898
  498MOL0     C67149   2.025   3.633   6.444  0.5862  0.2518 -0.2184
  498MOL0     C67150   1.965   3.646   6.571 -0.3511 -0.7919 -0.3620
  498MOL0     C67151   1.823   3.639   6.587  0.3316  0.3445 -0.6519
  498MOL0     C67152   1.741   3.621   6.480 -0.0837 -0.5927  0.5267
  498MOL0     O67153   1.603   3.608   6.505  0.1449 -0.6410 -1.1735
  498MOL0     C67154   1.527   3.591   6.383 -0.2990 -0.3030  0.8100
  498MOL0     C67155   1.381   3.624   6.414  0.6323  0.0128  0.2286
  498MOL0     C67156   1.300   3.504   6.452  0.3961  0.3161  0.1807
  498MOL0     C67157   1.260   3.436   6.318  0.1756 -0.0170 -0.3279
  498MOL0     C67158   1.190   3.311   6.330 -0.3316 -0.0606 -0.7031
  498MOL0     C67159   1.120   3.220   6.327  0.4728  0.7073 -0.1059
  498MOL0     C67160   1.803   3.609   6.357 -0.2704  0.2057  0.4848
  498MOL0     C67161   1.939   3.620   6.337 -0.0200 -0.3574  0.5745
  498MOL0     C67162   1.997   3.599   6.194 -1.0128  0.2622  0.0378
  498MOL0     H67163   2.371   3.502   6.654 -0.6464 -0.1579  1.0761
  498MOL0     H67164   2.630   3.475   6.641 -0.5745 -0.8505 -0.9737
  498MOL0     H67165   2.845   3.768   6.408  1.8355 -1.0708 -1.0070
  498MOL0     H67166   2.857   3.847   6.568  3.3472  0.0802  1.3011
  498MOL0     H67167   3.052   3.648   6.449  1.6663 -1.0027  2.0612
  498MOL0     H67168   3.067   3.719   6.621 -1.9821  1.1091  1.3970
  498MOL0     H67169   3.210   3.828   6.485 -0.2102 -0.3456  2.2516
  498MOL0     H67170   3.077   3.943   6.518  3.4039  0.7172  0.8139
  498MOL0     H67171   3.122   3.798   6.261  0.8717  0.0958  0.5307
  498MOL0     H67172   2.983   3.896   6.292 -0.5254 -1.7633  2.6355
  498MOL0     H67173   3.168   4.098   6.334  1.5827  1.0596 -0.9181
  498MOL0     H67174   3.282   3.977   6.279  1.0383  0.8422 -2.8352
  498MOL0     H67175   3.041   4.056   6.110  0.5913 -0.4770 -3.2206
  498MOL0     H67176   3.192   4.145   6.109  0.6592  0.3213  0.5010
  498MOL0     H67177   3.207   3.857   6.042 -1.6081  0.5711  0.5397
  498MOL0     H67178   3.326   3.981   6.010  2.7247 -5.1967 -1.7489
  498MOL0     H67179   3.058   4.039   5.884  0.3905  1.3085  0.3102
  498MOL0     H67180   3.222   4.051   5.824  0.3323 -0.9024 -1.4439
  498MOL0     H67181   3.354   3.768   5.841  0.0354  1.1959 -0.6194
  498MOL0     H67182   3.333   3.581   5.540 -2.5243  2.8037 -1.1236
  498MOL0     H67183   3.379   3.559   5.706  0.6745  0.9511 -1.4577
  498MOL0     H67184   3.167   3.436   5.754  1.0109  1.0833  0.3408
  498MOL0     H67185   3.142   3.419   5.576 -0.5374 -3.0508  1.3535
  498MOL0     H67186   3.368   3.327   5.730 -1.4393  2.7966 -0.0915
  498MOL0     H67187   3.347   3.309   5.553 -0.6188  0.5146 -0.3140
  498MOL0     H67188   3.123   3.174   5.621 -1.2391 -1.9590  1.0793
  498MOL0     H67189   3.175   3.176   5.785  0.4761 -2.3394  0.1549
  498MOL0     H67190   3.534   3.124   5.721  0.5577 -1.3551 -1.0211
  498MOL0     H67191   3.676   3.018   5.917  1.0143 -0.7895 -2.5996
  498MOL0     H67192   3.626   2.608   6.283 -0.5362  0.7877  0.0832
  498MOL0     H67193   3.768   2.537   6.467 -1.1966  2.2136  1.6519
  498MOL0     H67194   4.144   2.745   6.554 -2.7618  0.7026 -2.0579
  498MOL0     H67195   4.139   2.612   6.662 -3.3341  0.2555  0.1900
  498MOL0     H67196   4.239   2.469   6.472 -2.3448  0.7668 -0.4753
  498MOL0     H67197   4.223   2.597   6.363  0.5651 -1.7379 -0.7386
  498MOL0     H67198   4.362   2.747   6.509 -1.6020 -0.2210 -3.6342
  498MOL0     H67199   4.391   2.613   6.617  1.9333  1.0403  0.4502
  498MOL0     H67200   4.479   2.596   6.325 -1.1590 -0.0756  1.0213
  498MOL0     H67201   4.487   2.464   6.446  0.6478 -0.0531 -1.3564
  498MOL0     H67202   4.619   2.617   6.589  2.5523 -1.5970 -0.8007
  498MOL0     H67203   4.624   2.746   6.473 -0.2702  0.8841 -1.0309
  498MOL0     H67204   4.772   2.490   6.436  1.4806 -1.1924 -4.3762
  498MOL0     H67205   4.741   2.593   6.301  0.1132 -0.0342  0.2759
  498MOL0     H67206   4.864   2.695   6.557  0.0939 -3.3067  0.5389
  498MOL0     H67207   4.869   2.775   6.401 -3.9196  0.2320  1.3095
  498MOL0     H67208   5.018   2.537   6.524 -1.2242 -1.1516 -1.2412
  498MOL0     H67209   5.011   2.533   6.356  2.2337  1.1550 -2.4246
  498MOL0     H67210   4.078   2.781   6.348  0.1307  1.2698 -0.0313
  498MOL0     H67211   3.940   2.888   6.172  2.2960 -0.4741 -1.0022
  498MOL0     H67212   3.304   2.835   6.045 -1.5254 -0.6106 -2.9090
  498MOL0     H67213   3.199   2.916   5.855  0.8742 -0.9895 -0.5148
  498MOL0     H67214   2.648   3.881   6.479  0.0937 -0.5823  1.0304
  498MOL0     H67215   2.400   3.871   6.460 -0.4620 -1.6414  0.6341
  498MOL0     H67216   2.030   3.669   6.655  1.2144  1.7930 -2.1532
  498MOL0     H67217   1.770   3.658   6.680  1.3799 -0.8785  0.2230
  498MOL0     H67218   1.538   3.488   6.347 -0.3867 -0.7775  2.1100
  498MOL0     H67219   1.560   3.655   6.300 -1.3931 -2.4482 -1.4303
  498MOL0     H67220   1.336   3.663   6.323  0.3809  1.8593  1.1074
  498MOL0     H67221   1.369   3.706   6.485 -1.5322  0.9507 -1.1440
  498MOL0     H67222   1.208   3.523   6.508 -0.2898 -1.2309 -0.3601
  498MOL0     H67223   1.371   3.444   6.509  0.9208  0.7872  0.0289
  498MOL0     H67224   1.190   3.499   6.263 -1.9413  1.1006  3.3488
  498MOL0     H67225   1.351   3.408   6.263  0.5540  0.1295  0.2128
  498MOL0     H67226   1.064   3.129   6.340  2.7617 -0.9198 -1.0089
  498MOL0     H67227   1.744   3.585   6.269 -3.0371  2.7294  1.4951
  498MOL0     H67228   2.049   3.691   6.168  2.2417 -1.6668 -0.8584
  498MOL0     H67229   2.064   3.512   6.196 -2.0436 -0.5501  0.3446
  498MOL0     H67230   1.928   3.589   6.110  2.2954 -3.6332 -2.6043
  499MOL0     O67231   3.860   6.522   7.338  0.2175  0.1544 -0.1056
  499MOL0     C67232   3.864   6.489   7.222  0.3000  0.1080  0.4367
  499MOL0     O67233   3.965   6.421   7.156  0.2934 -0.0362 -0.0499
  499MOL0     C67234   4.064   6.372   7.233 -0.8317  0.6801 -0.4256
  499MOL0     C67235   4.194   6.417   7.215  0.8370 -0.1662  0.4072
  499MOL0     C67236   4.302   6.374   7.296  0.3813 -0.3295  0.1660
  499MOL0     C67237   4.287   6.280   7.400 -0.2515 -0.8106 -0.0613
  499MOL0     O67238   4.389   6.216   7.469 -0.2686 -0.4260  0.1406
  499MOL0     C67239   4.517   6.284   7.459  0.3462  0.8181  0.1069
  499MOL0     C67240   4.619   6.246   7.561  0.2792  0.1787 -0.7691
  499MOL0     C67241   4.742   6.342   7.569  0.2927 -0.0583  0.8294
  499MOL0     C67242   4.836   6.286   7.682  0.2935  0.1106 -0.1159
  499MOL0     C67243   4.957   6.378   7.692 -0.5287 -0.3681 -0.1760
  499MOL0     C67244   5.048   6.331   7.804  0.3969  0.1032 -0.9335
  499MOL0     C67245   5.146   6.447   7.833  0.7209  0.3206  0.8466
  499MOL0     C67246   5.242   6.409   7.943 -0.3490  0.2817 -0.7603
  499MOL0     N67247   5.353   6.507   7.954  0.4974 -0.3086  0.3516
  499MOL0     C67248   5.380   6.578   8.070  0.0487  0.9615 -0.0089
  499MOL0     C67249   5.480   6.659   8.028 -0.6144  0.3612 -0.5162
  499MOL0     C67250   5.532   6.766   8.122  0.1127  0.9738  0.4960
  499MOL0     C67251   5.686   6.774   8.131  0.2534 -0.0119 -0.7352
  499MOL0     C67252   5.761   6.658   8.203  0.4639 -0.7977  0.3426
  499MOL0     C67253   5.921   6.677   8.199 -0.0587 -0.2597 -0.4415
  499MOL0     O67254   5.993   6.559   8.254 -1.0562  0.3228 -0.6095
  499MOL0     C67255   6.129   6.564   8.273 -0.0085  0.5227 -0.3206
  499MOL0     C67256   6.187   6.468   8.356 -0.3066  0.0248  1.1397
  499MOL0     C67257   6.329   6.468   8.377 -0.2111  0.6221  0.5791
  499MOL0     C67258   6.406   6.573   8.317  0.0234  0.5418 -0.5401
  499MOL0     C67259   6.544   6.576   8.345 -0.2477  0.0702  0.7740
  499MOL0     O67260   6.598   6.511   8.448 -0.6618 -0.1447 -0.2659
  499MOL0     C67261   6.732   6.502   8.484 -0.2457 -0.1407 -1.6093
  499MOL0     C67262   6.760   6.430   8.599  0.2691 -0.6492  1.4791
  499MOL0     C67263   6.881   6.394   8.649 -0.7098  0.5056  0.3048
  499MOL0     C67264   6.993   6.435   8.575  0.3028  0.4282  0.8187
  499MOL0     O67265   7.126   6.408   8.598 -0.7107 -0.0848  0.5221
  499MOL0     C67266   7.163   6.333   8.719  0.3464 -0.7563  0.3652
  499MOL0     C67267   7.308   6.308   8.743 -0.1914  0.2748  0.0259
  499MOL0     C67268   7.381   6.231   8.631  0.2319  0.1070  0.8987
  499MOL0     C67269   7.537   6.235   8.673 -0.3876 -1.5925 -0.6470
  499MOL0     C67270   7.619   6.171   8.561  0.6310 -0.8729 -0.3200
  499MOL0     C67271   7.767   6.234   8.549  0.9063 -0.6368 -0.0758
  499MOL0     C67272   7.866   6.175   8.650 -0.4452  0.5068  0.4515
  499MOL0     C67273   7.908   6.036   8.606 -0.2878 -0.2217 -1.0509
  499MOL0    Cl67274   8.011   6.039   8.460  0.3600 -0.0515  0.1370
  499MOL0     C67275   6.971   6.518   8.461 -0.3981 -0.3777 -0.7421
  499MOL0     C67276   6.846   6.543   8.414  1.1935 -0.0694  0.0225
  499MOL0     O67277   6.606   6.633   8.252 -0.2358 -0.2882 -0.3160
  499MOL0     C67278   6.344   6.674   8.244  0.9369 -0.2871  0.1096
  499MOL0     C67279   6.207   6.659   8.220  0.6658 -0.7239  0.2164
  499MOL0     N67280   5.508   6.644   7.895 -0.1889  0.1779  0.2093
  499MOL0     N67281   5.437   6.549   7.853  0.0352 -0.9265 -0.3053
  499MOL0     C67282   4.152   6.240   7.426 -0.2370  0.4705  0.2916
  499MOL0     C67283   4.043   6.278   7.344  0.0513 -0.5501  0.3595
  499MOL0     C67284   3.736   6.512   7.138 -0.5321 -1.1996 -0.5508
  499MOL0     C67285   3.705   6.424   7.031 -0.0721 -0.6025  0.5035
  499MOL0     C67286   3.601   6.436   6.939 -1.2717 -0.0438 -0.2092
  499MOL0     C67287   3.501   6.530   6.968 -0.1816 -0.0489  0.0898
  499MOL0     O67288   3.388   6.536   6.899  0.1770 -0.3541  0.0435
  499MOL0     C67289   3.258   6.518   6.970  0.1913  0.5953 -0.3006
  499MOL0     C67290   3.155   6.624   6.927 -0.8392 -0.0927 -0.4497
  499MOL0     C67291   3.010   6.606   6.970 -0.0499 -0.9739  0.4682
  499MOL0     C67292   2.983   6.599   7.127 -0.8398 -0.0265  0.6379
  499MOL0     C67293   2.844   6.568   7.144  0.4318  0.8574  0.1083
  499MOL0     C67294   2.739   6.516   7.177  0.3667  0.1608 -0.1382
  499MOL0     C67295   3.517   6.615   7.075 -0.8045  0.2323  0.1267
  499MOL0     C67296   3.633   6.613   7.152  0.4152  0.0818 -1.0659
  499MOL0     C67297   3.643   6.727   7.261 -0.2074 -0.3283 -0.1980
  499MOL0     H67298   4.211   6.493   7.139  0.3185 -0.0970  0.3568
  499MOL0     H67299   4.402   6.411   7.277  1.2343 -1.7211  1.6531
  499MOL0     H67300   4.552   6.273   7.356 -0.0635 -1.9926  0.1854
  499MOL0     H67301   4.496   6.389   7.483 -1.0857  0.9716 -1.5666
  499MOL0     H67302   4.649   6.141   7.547  1.8427  0.4138  0.5896
  499MOL0     H67303   4.568   6.240   7.658 -0.0282 -1.1499 -0.9783
  499MOL0     H67304   4.703   6.441   7.595 -1.3942 -0.3249 -0.5424
  499MOL0     H67305   4.791   6.342   7.471  2.0585  0.9422  1.6551
  499MOL0     H67306   4.777   6.301   7.774  1.0270  2.2579  0.0529
  499MOL0     H67307   4.861   6.182   7.662  0.0468  0.5202 -2.9422
  499MOL0     H67308   5.011   6.382   7.597  0.3985 -0.8000  0.3269
  499MOL0     H67309   4.922   6.480   7.712 -0.3359 -0.3967  0.3178
  499MOL0     H67310   4.985   6.307   7.890  0.3032 -0.0372 -1.0408
  499MOL0     H67311   5.107   6.245   7.773  1.1720 -0.5425  2.0749
  499MOL0     H67312   5.084   6.532   7.861  1.4325  1.8058 -1.7490
  499MOL0     H67313   5.204   6.479   7.746  1.2322  2.3532  1.8807
  499MOL0     H67314   5.195   6.386   8.040 -2.7762  0.5895 -1.7944
  499MOL0     H67315   5.287   6.314   7.912  0.5540  0.9425 -1.4992
  499MOL0     H67316   5.320   6.572   8.160 -1.0684  1.7280 -0.6818
  499MOL0     H67317   5.483   6.857   8.086  2.5267  1.6396 -1.3482
  499MOL0     H67318   5.499   6.737   8.222  1.3892 -1.8009  0.2107
  499MOL0     H67319   5.730   6.772   8.031  0.7211 -1.3599 -0.5338
  499MOL0     H67320   5.718   6.870   8.172  0.1858 -0.2791 -0.0420
  499MOL0     H67321   5.740   6.564   8.151 -0.7982  0.3581 -1.3543
  499MOL0     H67322   5.715   6.651   8.302  2.0434 -0.5247  1.1356
  499MOL0     H67323   5.932   6.766   8.260 -2.4805  0.1659 -0.5509
  499MOL0     H67324   5.955   6.705   8.098  3.9994 -1.6109  0.3408
  499MOL0     H67325   6.125   6.386   8.389  1.2945 -1.0196  1.6910
  499MOL0     H67326   6.367   6.385   8.435 -0.7623 -0.5705 -0.6927
  499MOL0     H67327   6.678   6.393   8.660  0.4428 -3.2474  0.2844
  499MOL0     H67328   6.883   6.334   8.739 -0.6208 -1.7051 -1.0766
  499MOL0     H67329   7.130   6.392   8.805 -1.4963 -0.9474 -0.1648
  499MOL0     H67330   7.112   6.236   8.719 -0.5117 -0.4192 -2.7562
  499MOL0     H67331   7.360   6.403   8.761  1.6367 -0.5450 -0.6789
  499MOL0     H67332   7.318   6.245   8.832  0.3199 -0.7161 -0.7138
  499MOL0     H67333   7.338   6.132   8.614 -0.0078  0.4516 -0.6404
  499MOL0     H67334   7.365   6.285   8.537  0.7534 -2.3364 -0.6942
  499MOL0     H67335   7.560   6.193   8.772  4.3628 -1.9155 -1.6357
  499MOL0     H67336   7.566   6.340   8.682 -0.9936 -0.9040 -4.7343
  499MOL0     H67337   7.562   6.191   8.470 -0.5642 -0.2712  0.5327
  499MOL0     H67338   7.615   6.062   8.566  2.4156 -0.9361  0.6379
  499MOL0     H67339   7.804   6.201   8.451  0.2688  1.0380 -0.9035
  499MOL0     H67340   7.764   6.343   8.556  0.5773 -0.5215 -1.5762
  499MOL0     H67341   7.828   6.184   8.751 -0.7246  1.6634  0.2540
  499MOL0     H67342   7.952   6.243   8.648 -0.3489  0.3758 -0.5481
  499MOL0     H67343   7.964   5.980   8.682 -0.1560  2.4833  1.0080
  499MOL0     H67344   7.818   5.978   8.586 -1.6273  1.7698 -1.1370
  499MOL0     H67345   7.064   6.551   8.416 -0.5158  2.9484  1.0995
  499MOL0     H67346   6.838   6.602   8.323 -2.0941  1.5063  1.1648
  499MOL0     H67347   6.386   6.764   8.201  0.1610 -1.3566 -3.1899
  499MOL0     H67348   6.148   6.741   8.181 -1.2141 -2.4494 -0.7266
  499MOL0     H67349   4.133   6.179   7.514 -0.5647  1.1165  0.6812
  499MOL0     H67350   3.943   6.251   7.375 -0.2940  1.3325  1.0438
  499MOL0     H67351   3.787   6.355   7.014  0.3079 -0.2465  0.8866
  499MOL0     H67352   3.602   6.369   6.853 -0.0072 -1.1612  0.6349
  499MOL0     H67353   3.267   6.536   7.077 -0.8029 -0.4555 -0.0185
  499MOL0     H67354   3.219   6.418   6.949  1.7581 -0.4362  1.4311
  499MOL0     H67355   3.157   6.635   6.818 -2.9949  1.9827 -0.3612
  499MOL0     H67356   3.193   6.713   6.979 -0.6404 -1.1548  1.2976
  499MOL0     H67357   2.974   6.526   6.905  0.7992  1.7669 -3.8633
  499MOL0     H67358   2.951   6.689   6.930  0.3209 -1.5189 -1.2874
  499MOL0     H67359   3.048   6.524   7.172 -0.3601 -1.0444 -1.6560
  499MOL0     H67360   3.007   6.698   7.167 -1.9032  0.1352  0.9038
  499MOL0     H67361   2.658   6.465   7.225 -1.1660  2.0956 -0.5568
  499MOL0     H67362   3.436   6.686   7.090 -3.6796 -2.5027 -1.2952
  499MOL0     H67363   3.655   6.701   7.367  2.8276  1.7229  0.0970
  499MOL0     H67364   3.727   6.796   7.247  1.4779 -2.0528  0.8514
  499MOL0     H67365   3.554   6.791   7.255 -0.3108  0.0904  3.4575
  500MOL0     O67366   4.640   2.740   4.187 -0.2594 -0.7763  0.5783
  500MOL0     C67367   4.557   2.646   4.172 -0.3909 -0.4396 -0.9643
  500MOL0     O67368   4.600   2.519   4.177 -0.9058  0.2163 -0.0987
  500MOL0     C67369   4.728   2.473   4.181 -0.7747  0.3313  0.0639
  500MOL0     C67370   4.749   2.337   4.214  0.2209 -0.2227  0.1122
  500MOL0     C67371   4.874   2.283   4.243  0.6704  0.2772  0.2587
  500MOL0     C67372   4.985   2.357   4.225  0.8106 -0.0919 -0.0065
  500MOL0     O67373   5.105   2.298   4.246 -0.1522 -0.0723  0.0518
  500MOL0     C67374   5.214   2.306   4.154  0.6256  0.5597  0.4714
  500MOL0     C67375   5.349   2.273   4.215  0.2889 -0.4238  0.5523
  500MOL0     C67376   5.452   2.277   4.099  0.0049  0.8246 -0.0010
  500MOL0     C67377   5.580   2.201   4.144  0.6195  0.3321  0.2700
  500MOL0     C67378   5.672   2.290   4.224 -0.6374  0.2489 -0.0774
  500MOL0     C67379   5.801   2.206   4.252 -0.0116 -0.0735  0.0571
  500MOL0     C67380   5.901   2.299   4.319 -0.4185  0.3109  0.0448
  500MOL0     C67381   6.033   2.237   4.364 -0.0514  0.3672  0.1451
  500MOL0     N67382   6.119   2.199   4.252 -0.7587  0.2813 -0.7204
  500MOL0     C67383   6.254   2.176   4.274  0.7310 -0.9760  0.6252
  500MOL0     C67384   6.293   2.093   4.173  0.1621 -0.0962 -0.3970
  500MOL0     C67385   6.439   2.062   4.146 -0.5451  0.7983  0.1464
  500MOL0     C67386   6.490   2.128   4.014  0.6595  0.1079 -0.5155
  500MOL0     C67387   6.629   2.060   3.990 -0.2119 -1.0789 -0.2172
  500MOL0     C67388   6.690   2.138   3.874 -0.4973 -0.4512  0.1818
  500MOL0     O67389   6.830   2.110   3.857  0.6798  0.0274 -0.4193
  500MOL0     C67390   6.900   2.178   3.761  0.5623 -0.7777 -0.1904
  500MOL0     C67391   6.834   2.245   3.654  0.4395 -0.3835  0.1728
  500MOL0     C67392   6.909   2.326   3.565 -0.5265 -1.1440  0.6817
  500MOL0     C67393   7.052   2.334   3.583  0.3976 -0.8321 -0.4804
  500MOL0     C67394   7.142   2.401   3.490  0.1712 -0.1022  0.2295
  500MOL0     O67395   7.275   2.406   3.528  0.4044  0.0176 -0.4175
  500MOL0     C67396   7.383   2.477   3.473  0.6955 -0.3303 -1.0995
  500MOL0     C67397   7.504   2.433   3.528  0.0632  0.5491 -0.2586
  500MOL0     C67398   7.622   2.496   3.490  0.5447 -0.5016 -0.0437
  500MOL0     C67399   7.620   2.613   3.420 -0.0844  0.2418  0.1930
  500MOL0     O67400   7.737   2.681   3.387 -0.1427  0.1685 -0.3697
  500MOL0     C67401   7.841   2.618   3.309 -0.2681 -0.7235  0.7641
  500MOL0     C67402   7.959   2.572   3.395  0.1358  0.9215  1.0215
  500MOL0     C67403   8.057   2.493   3.306  0.8041  0.3205 -0.2543
  500MOL0     C67404   8.173   2.445   3.380  0.2026  0.4281  0.3685
  500MOL0     C67405   8.141   2.341   3.495 -0.1393 -0.1289  0.3893
  500MOL0     C67406   8.268   2.276   3.555  0.2693 -0.2506  0.3408
  500MOL0     C67407   8.357   2.365   3.643  0.6488  0.3924  0.1177
  500MOL0     C67408   8.445   2.285   3.742  1.3778  0.6068  0.5203
  500MOL0    Cl67409   8.576   2.219   3.650 -0.1309  0.3487  0.3255
  500MOL0     C67410   7.501   2.649   3.348 -0.1773 -0.5420 -0.0067
  500MOL0     C67411   7.380   2.584   3.382  0.8672  0.4663  0.8853
  500MOL0     O67412   7.099   2.454   3.393  0.3088  0.0239 -0.6387
  500MOL0     C67413   7.105   2.261   3.692 -0.4834  0.1151  0.9188
  500MOL0     C67414   7.033   2.198   3.786 -0.0235 -0.1898  0.4143
  500MOL0     N67415   6.188   2.060   4.092 -0.7487 -0.4205  0.5976
  500MOL0     N67416   6.088   2.118   4.144 -0.1878 -0.0462  0.2571
  500MOL0     C67417   4.978   2.491   4.203 -0.2582  0.1574 -0.9767
  500MOL0     C67418   4.851   2.547   4.178  0.5111  0.1043 -0.7811
  500MOL0     C67419   4.409   2.677   4.179 -0.1811 -0.3957 -0.2879
  500MOL0     C67420   4.368   2.814   4.200 -0.2543  0.0074  0.6118
  500MOL0     C67421   4.237   2.857   4.202  0.2724 -0.0836 -0.1060
  500MOL0     C67422   4.136   2.762   4.180 -0.7658  0.1342  0.0100
  500MOL0     O67423   4.003   2.794   4.188  0.4228  0.4295 -0.4333
  500MOL0     C67424   3.963   2.919   4.238  0.3761 -0.7182  0.4180
  500MOL0     C67425   3.817   2.947   4.212  0.3541  0.1234  0.5266
  500MOL0     C67426   3.725   2.852   4.294 -0.9268  0.4106 -0.6188
  500MOL0     C67427   3.583   2.905   4.278 -0.2286  0.3308 -0.4404
  500MOL0     C67428   3.500   2.841   4.387  0.6779  0.6786 -0.2087
  500MOL0     C67429   3.428   2.810   4.481 -0.4882 -0.0378  0.7075
  500MOL0     C67430   4.171   2.622   4.152  0.3102 -0.6249 -0.3962
  500MOL0     C67431   4.301   2.577   4.159 -0.6561 -0.3271  0.2816
  500MOL0     C67432   4.327   2.430   4.132  0.8099 -0.5842 -0.7007
  500MOL0     H67433   4.663   2.277   4.241 -2.0970  3.6531  2.4210
  500MOL0     H67434   4.895   2.182   4.278 -0.1300 -0.1380 -0.4147
  500MOL0     H67435   5.190   2.228   4.081  1.4551 -0.4804  1.2592
  500MOL0     H67436   5.216   2.398   4.096 -0.2823 -1.0867 -2.3828
  500MOL0     H67437   5.352   2.177   4.268  2.0395 -0.5299  0.3075
  500MOL0     H67438   5.362   2.354   4.286  0.0154 -0.4610  0.6457
  500MOL0     H67439   5.469   2.380   4.068 -1.5236  0.7250 -1.3272
  500MOL0     H67440   5.408   2.229   4.011 -1.2029  0.3059  0.8559
  500MOL0     H67441   5.552   2.110   4.198 -0.4385 -0.4564 -1.5146
  500MOL0     H67442   5.622   2.169   4.048 -1.2782  0.5862 -0.6953
  500MOL0     H67443   5.704   2.378   4.167  0.0441  2.3397  3.2495
  500MOL0     H67444   5.626   2.324   4.317 -0.6252 -0.5344  0.2243
  500MOL0     H67445   5.777   2.122   4.317 -1.7523 -0.4435 -1.0067
  500MOL0     H67446   5.838   2.163   4.158 -3.2331 -0.2171 -1.2531
  500MOL0     H67447   5.863   2.333   4.415  0.9533  0.1392  0.6701
  500MOL0     H67448   5.923   2.379   4.248 -2.2520  1.1260  0.3222
  500MOL0     H67449   6.086   2.319   4.412 -0.3590  1.5313 -1.4173
  500MOL0     H67450   6.014   2.160   4.439 -0.9897 -0.4278 -0.8610
  500MOL0     H67451   6.317   2.207   4.357  0.9206 -1.2330  0.5798
  500MOL0     H67452   6.499   2.085   4.234  2.5797 -1.5003 -1.1834
  500MOL0     H67453   6.452   1.953   4.138 -0.0597  0.8780 -0.2116
  500MOL0     H67454   6.424   2.101   3.931  0.5112 -0.4312 -0.2219
  500MOL0     H67455   6.486   2.237   4.008  0.1352  0.0411 -1.7389
  500MOL0     H67456   6.625   1.956   3.958 -1.4047 -1.2238  0.3644
  500MOL0     H67457   6.694   2.071   4.077 -0.8969  0.5165  0.1308
  500MOL0     H67458   6.668   2.245   3.874  0.4702 -0.2252 -1.3614
  500MOL0     H67459   6.646   2.104   3.780  0.8680 -0.6475 -0.4073
  500MOL0     H67460   6.726   2.235   3.641  0.6081 -1.0606 -0.8414
  500MOL0     H67461   6.863   2.387   3.487 -0.1012 -1.6447  0.0292
  500MOL0     H67462   7.512   2.351   3.597 -1.2700  0.0684 -0.6620
  500MOL0     H67463   7.712   2.449   3.528  1.7210  1.9678  0.4146
  500MOL0     H67464   7.809   2.532   3.248 -1.7184  0.7806 -0.7192
  500MOL0     H67465   7.863   2.689   3.228 -3.2226 -2.2328 -1.5845
  500MOL0     H67466   8.011   2.660   3.434  0.7804 -0.0044  2.3268
  500MOL0     H67467   7.927   2.497   3.468  2.9905  0.6116  2.0827
  500MOL0     H67468   7.997   2.411   3.265 -0.2984 -0.3198  2.4550
  500MOL0     H67469   8.092   2.551   3.220 -2.1409  2.7825  0.0393
  500MOL0     H67470   8.247   2.514   3.422  0.7268 -1.7909  3.5028
  500MOL0     H67471   8.238   2.385   3.316 -0.7828 -0.3032  0.0384
  500MOL0     H67472   8.077   2.265   3.448 -0.6605  1.4361 -1.5823
  500MOL0     H67473   8.082   2.398   3.567  1.4984  1.4349  0.5450
  500MOL0     H67474   8.246   2.185   3.612  2.1594 -2.5914 -2.4159
  500MOL0     H67475   8.325   2.237   3.471 -2.6935 -0.2861 -1.8236
  500MOL0     H67476   8.289   2.422   3.707 -1.6444 -0.1049 -1.7596
  500MOL0     H67477   8.412   2.437   3.581  0.3025  0.9911  0.4894
  500MOL0     H67478   8.486   2.350   3.819  2.9232  1.5663 -1.0358
  500MOL0     H67479   8.392   2.203   3.790  4.8996 -0.7099  2.5759
  500MOL0     H67480   7.512   2.725   3.271  2.1871 -0.0066  0.7796
  500MOL0     H67481   7.291   2.619   3.330 -0.1219 -0.1571  2.1191
  500MOL0     H67482   7.212   2.261   3.711 -0.0429  0.9779 -1.3424
  500MOL0     H67483   7.077   2.163   3.878  0.5057  1.0908  0.6741
  500MOL0     H67484   5.055   2.567   4.213 -0.6331  0.3435  0.7286
  500MOL0     H67485   4.853   2.655   4.183  1.2601  0.0314  1.1523
  500MOL0     H67486   4.447   2.887   4.216 -0.9382  1.0495 -0.5624
  500MOL0     H67487   4.223   2.964   4.216 -0.3913  0.2978 -2.9457
  500MOL0     H67488   4.022   2.994   4.184 -2.2621  0.4591 -0.9840
  500MOL0     H67489   3.990   2.922   4.344  1.7567 -1.5379  0.1114
  500MOL0     H67490   3.794   2.939   4.105  1.4453 -1.2993  0.3745
  500MOL0     H67491   3.799   3.048   4.250  0.1046  1.6364 -3.1834
  500MOL0     H67492   3.758   2.870   4.397 -3.1937  4.8873 -0.4112
  500MOL0     H67493   3.735   2.745   4.278  0.9822  0.3072  0.8623
  500MOL0     H67494   3.583   3.013   4.290  3.5030  0.5680 -1.3422
  500MOL0     H67495   3.550   2.886   4.175 -2.0506  2.6023 -0.3336
  500MOL0     H67496   3.362   2.769   4.555 -0.0984 -2.4511 -0.2110
  500MOL0     H67497   4.091   2.550   4.139  0.0856 -0.5637  0.5648
  500MOL0     H67498   4.239   2.366   4.125 -0.0109  0.3970  0.2725
  500MOL0     H67499   4.382   2.427   4.038  2.9276  3.8809  0.0872
  500MOL0     H67500   4.382   2.393   4.219 -1.2240 -2.4253 -0.1177
  501MOL0     O67501   5.996   9.478   7.391 -0.5408 -0.3634 -0.8467
  501MOL0     C67502   5.939   9.489   7.499  0.3257 -0.0395  0.8777
  501MOL0     O67503   6.008   9.481   7.621  0.2127  0.2049  0.2702
  501MOL0     C67504   6.141   9.447   7.608  0.7175 -0.1635  0.1141
  501MOL0     C67505   6.243   9.535   7.617 -0.5388  0.4848 -0.6208
  501MOL0     C67506   6.382   9.503   7.605  0.3605  0.3266 -0.8113
  501MOL0     C67507   6.424   9.365   7.581 -0.2870  0.4822  0.7874
  501MOL0     O67508   6.562   9.336   7.564  0.2089  0.9118  0.8642
  501MOL0     C67509   6.670   9.434   7.574  0.6564 -0.0119 -1.0167
  501MOL0     C67510   6.764   9.430   7.456  0.5693 -0.3297  1.1757
  501MOL0     C67511   6.875   9.321   7.467  0.9821 -0.0130  0.8166
  501MOL0     C67512   6.963   9.315   7.340  0.0711 -0.1256  0.5954
  501MOL0     C67513   7.080   9.216   7.347  0.7880 -0.7197  0.8656
  501MOL0     C67514   7.172   9.220   7.221  0.0552 -0.3595 -0.1855
  501MOL0     C67515   7.271   9.109   7.209 -0.3484 -0.5464  0.8988
  501MOL0     C67516   7.379   9.130   7.106  0.9824  0.1916 -0.1665
  501MOL0     N67517   7.468   9.015   7.102 -0.3610  0.6104 -0.6632
  501MOL0     C67518   7.487   8.940   6.983 -0.2594  0.4715 -0.5550
  501MOL0     C67519   7.590   8.863   7.013  0.5596  0.2587  0.4578
  501MOL0     C67520   7.631   8.760   6.915 -0.2788  0.1975 -0.0527
  501MOL0     C67521   7.788   8.776   6.888 -0.3627 -0.7007  0.1462
  501MOL0     C67522   7.842   8.708   6.758 -0.2359 -0.2445 -0.1845
  501MOL0     C67523   7.997   8.743   6.739  0.7134  0.1168 -0.2399
  501MOL0     O67524   8.010   8.816   6.613  0.7127  0.4979 -0.4485
  501MOL0     C67525   8.133   8.830   6.556  0.4842  0.6679  0.2363
  501MOL0     C67526   8.140   8.890   6.437  1.0207 -0.4932  0.3290
  501MOL0     C67527   8.259   8.907   6.369 -0.2467  0.2740  0.2038
  501MOL0     C67528   8.379   8.868   6.429 -0.6906  0.6962 -0.0715
  501MOL0     C67529   8.505   8.902   6.360  0.3552  0.9986 -0.1347
  501MOL0     O67530   8.619   8.874   6.434  0.0992  0.0832  0.2223
  501MOL0     C67531   8.726   8.824   6.365  0.2132 -0.6433  0.4106
  501MOL0     C67532   8.717   8.748   6.244  0.3023 -0.6566 -0.3403
  501MOL0     C67533   8.821   8.695   6.187  0.3787  0.1461  0.1846
  501MOL0     C67534   8.952   8.714   6.244  0.8016 -0.1602  0.2957
  501MOL0     O67535   9.052   8.664   6.169  0.6178 -0.4391 -0.3847
  501MOL0     C67536   9.187   8.667   6.206 -0.1266  0.3115 -0.3972
  501MOL0     C67537   9.259   8.798   6.198  0.0880  0.3960 -0.0434
  501MOL0     C67538   9.414   8.793   6.221  0.6684 -0.5134 -1.6340
  501MOL0     C67539   9.505   8.740   6.108  0.0042 -0.5611  0.0808
  501MOL0     C67540   9.652   8.740   6.155  0.4664 -0.6756 -0.8407
  501MOL0     C67541   9.715   8.878   6.185 -0.1801 -0.5456 -0.5196
  501MOL0     C67542   9.862   8.869   6.254  1.0239 -0.2089  0.6134
  501MOL0     C67543   9.904   9.004   6.308  0.5142 -0.0783 -0.0688
  501MOL0    Cl67544   9.798   9.046   6.444  0.5063 -0.5496  0.1552
  501MOL0     C67545   8.966   8.778   6.369  1.1574  0.1367  0.2500
  501MOL0     C67546   8.855   8.833   6.429  0.2475 -0.4418  0.0307
  501MOL0     O67547   8.503   8.932   6.245  0.2190  0.0218  0.0890
  501MOL0     C67548   8.374   8.806   6.551 -0.9855  0.5091 -0.3883
  501MOL0     C67549   8.251   8.790   6.617  0.2078 -0.2899 -0.5981
  501MOL0     N67550   7.631   8.886   7.150  0.2435  0.0965 -0.0284
  501MOL0     N67551   7.557   8.979   7.194  0.4490 -0.9137 -0.2906
  501MOL0     C67552   6.323   9.271   7.578  0.0296  0.2616 -0.5001
  501MOL0     C67553   6.185   9.309   7.592 -0.0787  0.0968 -0.6504
  501MOL0     C67554   5.790   9.496   7.499  0.7279 -0.1753  0.5529
  501MOL0     C67555   5.723   9.475   7.617  0.1693 -0.1215 -0.7913
  501MOL0     C67556   5.579   9.480   7.626 -0.2287 -0.3299 -0.9368
  501MOL0     C67557   5.496   9.505   7.512 -0.7670  0.0418  0.2198
  501MOL0     O67558   5.355   9.488   7.508 -0.4623 -0.2818 -0.2520
  501MOL0     C67559   5.296   9.474   7.640  0.2887 -0.9368  0.2294
  501MOL0     C67560   5.136   9.444   7.626  0.2499 -0.2338  0.3307
  501MOL0     C67561   5.078   9.320   7.701 -1.0675  0.6182  0.1065
  501MOL0     C67562   5.101   9.326   7.851 -0.0504  0.5928  0.0373
  501MOL0     C67563   5.243   9.276   7.883  0.0848  0.3961 -0.6815
  501MOL0     C67564   5.357   9.239   7.911 -0.2189  0.2060  0.2873
  501MOL0     C67565   5.562   9.525   7.395 -0.0537  0.4033 -0.8380
  501MOL0     C67566   5.704   9.527   7.386  0.5196  0.2305  0.5941
  501MOL0     C67567   5.762   9.603   7.259  0.2918  0.2095 -0.3112
  501MOL0     H67568   6.223   9.639   7.640  3.2816  0.9301  1.5956
  501MOL0     H67569   6.444   9.592   7.606  2.0167 -0.7721 -0.6376
  501MOL0     H67570   6.635   9.537   7.582 -0.5466 -0.5700  2.5923
  501MOL0     H67571   6.727   9.418   7.665 -1.0879 -2.5843 -0.2804
  501MOL0     H67572   6.796   9.534   7.440 -0.1049 -0.4618 -1.6705
  501MOL0     H67573   6.704   9.413   7.366  1.0631  1.4233  0.4774
  501MOL0     H67574   6.826   9.224   7.478 -0.1132  0.3847 -0.3541
  501MOL0     H67575   6.936   9.347   7.553  1.0704  0.5161  0.5968
  501MOL0     H67576   6.910   9.296   7.246  3.0398  1.4266 -1.5540
  501MOL0     H67577   7.022   9.407   7.332  0.4634 -0.5014 -1.3726
  501MOL0     H67578   7.153   9.242   7.424  1.6409 -1.2585  0.2626
  501MOL0     H67579   7.037   9.116   7.357 -0.9212 -0.2474 -1.1536
  501MOL0     H67580   7.114   9.235   7.129 -0.7970 -2.6496 -0.0691
  501MOL0     H67581   7.238   9.307   7.227  2.7144 -2.2726  0.0211
  501MOL0     H67582   7.217   9.015   7.192 -1.3552 -0.3501  2.7023
  501MOL0     H67583   7.312   9.096   7.310  1.6104  2.2029  0.5617
  501MOL0     H67584   7.318   9.137   7.016  0.8212  1.4607  0.0160
  501MOL0     H67585   7.445   9.214   7.131  2.1262 -1.2662  2.0466
  501MOL0     H67586   7.432   8.938   6.890 -0.6196  2.2513 -0.4113
  501MOL0     H67587   7.596   8.663   6.951  1.1697 -0.6840 -0.9465
  501MOL0     H67588   7.580   8.769   6.819  0.8445 -2.3366 -0.9573
  501MOL0     H67589   7.819   8.880   6.873  2.6324 -1.7650 -2.0984
  501MOL0     H67590   7.835   8.729   6.975  3.6830 -2.9358 -2.8613
  501MOL0     H67591   7.774   8.727   6.674  2.6458 -0.8555 -2.8407
  501MOL0     H67592   7.842   8.599   6.769 -0.7403 -0.1980  0.3738
  501MOL0     H67593   8.052   8.649   6.733 -1.6896 -1.3332 -0.9555
  501MOL0     H67594   8.030   8.802   6.825  1.4886 -0.1519 -0.3458
  501MOL0     H67595   8.054   8.924   6.380  1.5505  0.2048 -0.0639
  501MOL0     H67596   8.265   8.954   6.272 -1.6902 -0.7328 -0.4122
  501MOL0     H67597   8.623   8.730   6.193  1.1426 -1.2224 -1.7295
  501MOL0     H67598   8.792   8.635   6.101 -0.4937  0.3429  0.3336
  501MOL0     H67599   9.200   8.630   6.308  1.4864 -0.5561 -0.8826
  501MOL0     H67600   9.232   8.592   6.141 -3.1885  0.5881 -3.0888
  501MOL0     H67601   9.237   8.825   6.094 -0.3313 -1.6549 -0.5313
  501MOL0     H67602   9.214   8.867   6.270 -0.4606 -0.7964  0.7826
  501MOL0     H67603   9.442   8.894   6.254 -3.0187 -0.4431  2.1596
  501MOL0     H67604   9.422   8.716   6.299  1.1838  0.4946 -0.6541
  501MOL0     H67605   9.500   8.806   6.021  0.3343 -0.4626  0.1361
  501MOL0     H67606   9.476   8.642   6.068 -2.2552  0.5129 -1.0977
  501MOL0     H67607   9.723   8.710   6.078 -0.3500 -0.5715 -1.6503
  501MOL0     H67608   9.661   8.670   6.239  3.0521 -2.2599 -2.3217
  501MOL0     H67609   9.726   8.940   6.095  0.1874 -0.1718 -0.2213
  501MOL0     H67610   9.649   8.920   6.262  2.7165  0.3360  1.6766
  501MOL0     H67611   9.939   8.841   6.182  1.4804  0.9835  0.6196
  501MOL0     H67612   9.851   8.791   6.330 -0.4815 -0.5079  0.1243
  501MOL0     H67613  10.003   8.985   6.349  1.1139  1.3366 -0.7822
  501MOL0     H67614   9.915   9.082   6.232 -0.3942  0.1097 -0.0254
  501MOL0     H67615   9.064   8.783   6.414  0.6182  0.7749  1.4053
  501MOL0     H67616   8.860   8.877   6.528  2.0490 -2.8239  1.0742
  501MOL0     H67617   8.465   8.776   6.602 -0.1537  1.6384 -1.1672
  501MOL0     H67618   8.270   8.741   6.712  2.4134 -1.7348 -1.7061
  501MOL0     H67619   6.361   9.172   7.552 -0.6967  0.1764 -1.2955
  501MOL0     H67620   6.097   9.245   7.594  0.1162 -0.2158  2.4212
  501MOL0     H67621   5.778   9.452   7.708 -3.3799 -0.8444  1.3902
  501MOL0     H67622   5.542   9.444   7.722 -0.5149 -0.2380 -1.0132
  501MOL0     H67623   5.318   9.569   7.689  0.8113 -1.8406  1.8214
  501MOL0     H67624   5.337   9.390   7.695 -1.1086 -3.1150 -1.8462
  501MOL0     H67625   5.119   9.439   7.518 -0.2387  1.6628  0.2742
  501MOL0     H67626   5.074   9.526   7.664 -3.1435 -2.4839  0.1230
  501MOL0     H67627   5.128   9.231   7.663 -0.8913 -0.7449  3.2444
  501MOL0     H67628   4.969   9.325   7.686 -0.9221  0.0261 -1.2848
  501MOL0     H67629   5.083   9.425   7.894 -3.1290 -0.4581  1.4113
  501MOL0     H67630   5.023   9.256   7.881  0.5865 -0.5427 -0.8883
  501MOL0     H67631   5.458   9.213   7.935  0.0783  0.8498 -0.2328
  501MOL0     H67632   5.505   9.552   7.306 -1.2867  1.4880  0.2298
  501MOL0     H67633   5.834   9.542   7.204  1.1723 -0.7284  1.7661
  501MOL0     H67634   5.681   9.633   7.192  0.3913 -1.8997 -1.4561
  501MOL0     H67635   5.815   9.686   7.307  0.3296 -0.8031  1.4881
  502MOL0     O67636   3.427   4.491   8.173  0.1471 -0.6047 -0.1277
  502MOL0     C67637   3.352   4.444   8.090  0.7607 -0.4698  0.6261
  502MOL0     O67638   3.379   4.366   7.985 -0.2867 -0.3416 -0.2210
  502MOL0     C67639   3.500   4.330   7.971 -0.2623 -0.4779  0.0552
  502MOL0     C67640   3.540   4.198   7.994 -0.6340 -0.8463 -0.1120
  502MOL0     C67641   3.678   4.163   7.981 -0.1794 -0.5217  0.9203
  502MOL0     C67642   3.775   4.256   7.932 -0.1607  0.0641 -0.1968
  502MOL0     O67643   3.906   4.211   7.921  0.4696  0.2574 -0.6812
  502MOL0     C67644   3.932   4.138   7.808  0.5136  0.2603  0.9496
  502MOL0     C67645   4.073   4.184   7.776  0.3187  0.4177 -0.3703
  502MOL0     C67646   4.070   4.331   7.738  0.3858  0.0679  0.2181
  502MOL0     C67647   4.213   4.371   7.718  0.5014 -0.4193 -0.2168
  502MOL0     C67648   4.230   4.526   7.714  0.8930 -0.0718  0.1787
  502MOL0     C67649   4.353   4.575   7.632  0.4091 -0.0547  0.7321
  502MOL0     C67650   4.483   4.549   7.700  0.3894  0.2490 -0.3866
  502MOL0     C67651   4.610   4.608   7.646 -0.9730 -0.7031 -0.0696
  502MOL0     N67652   4.681   4.526   7.553 -0.3768 -0.4840  0.4324
  502MOL0     C67653   4.764   4.423   7.596  0.2305 -0.1302  0.2167
  502MOL0     C67654   4.794   4.351   7.482  0.8808  0.5838 -0.1743
  502MOL0     C67655   4.899   4.248   7.472  0.6403 -0.1924 -0.9729
  502MOL0     C67656   5.035   4.313   7.467 -0.0184 -0.0245  0.0917
  502MOL0     C67657   5.123   4.243   7.356  0.0421 -0.4788 -0.0118
  502MOL0     C67658   5.261   4.297   7.354 -0.7822  0.5936  0.4415
  502MOL0     O67659   5.331   4.261   7.474 -0.0185 -0.7042  0.3389
  502MOL0     C67660   5.463   4.310   7.484  0.4042  0.1363  0.0877
  502MOL0     C67661   5.529   4.286   7.599 -0.3204 -0.0788  0.0998
  502MOL0     C67662   5.655   4.339   7.624  0.3286 -0.2222 -0.2367
  502MOL0     C67663   5.721   4.415   7.530  0.4570  0.1170  0.4724
  502MOL0     C67664   5.854   4.475   7.556  0.5569  0.0150 -0.2400
  502MOL0     O67665   5.897   4.457   7.674 -0.5417 -0.9029 -0.4858
  502MOL0     C67666   6.025   4.505   7.703  0.3373 -0.3740 -0.6094
  502MOL0     C67667   6.051   4.648   7.695  1.3623 -0.1730 -0.5820
  502MOL0     C67668   6.177   4.689   7.732  1.2161  0.4885 -0.4511
  502MOL0     C67669   6.271   4.599   7.782 -0.5392  0.7329 -0.0479
  502MOL0     O67670   6.388   4.654   7.811 -1.0124  0.1854  0.0578
  502MOL0     C67671   6.421   4.712   7.940 -0.7620 -0.0695  0.7439
  502MOL0     C67672   6.539   4.809   7.919 -0.2185 -0.5926 -0.4755
  502MOL0     C67673   6.665   4.725   7.901  0.0052 -0.2956  0.5194
  502MOL0     C67674   6.780   4.808   7.950  0.1999  0.2873 -0.0727
  502MOL0     C67675   6.910   4.744   7.920  0.4345 -0.4054  0.7414
  502MOL0     C67676   7.033   4.844   7.971 -0.2962  0.8181 -0.2317
  502MOL0     C67677   7.165   4.773   7.962 -0.7320 -0.3055  1.4779
  502MOL0     C67678   7.291   4.857   7.965  0.5305  0.5270 -0.2543
  502MOL0    Cl67679   7.428   4.734   7.956  0.0119 -0.0412 -0.0535
  502MOL0     C67680   6.250   4.459   7.788 -0.5765  0.5174 -0.3298
  502MOL0     C67681   6.121   4.414   7.745 -0.6037 -0.3752  0.2545
  502MOL0     O67682   5.902   4.542   7.471  0.3080 -0.0684  0.1810
  502MOL0     C67683   5.654   4.437   7.402 -0.5228  0.5190 -0.6037
  502MOL0     C67684   5.534   4.382   7.380  0.2280  1.2850  0.2780
  502MOL0     N67685   4.741   4.421   7.375  0.0292 -0.0395 -0.4231
  502MOL0     N67686   4.682   4.527   7.415  0.6442  0.2593  0.6355
  502MOL0     C67687   3.733   4.382   7.905  0.2409 -0.4207 -0.4167
  502MOL0     C67688   3.594   4.412   7.917 -0.0584 -0.4467  0.1295
  502MOL0     C67689   3.212   4.494   8.099  0.0703  0.0307  0.4468
  502MOL0     C67690   3.131   4.481   7.981 -0.3244 -0.4943  0.3426
  502MOL0     C67691   2.995   4.512   7.964 -0.0779 -0.2731  0.0922
  502MOL0     C67692   2.936   4.561   8.084 -0.0167 -0.3828 -0.1294
  502MOL0     O67693   2.807   4.602   8.089  0.1942 -0.7249 -0.2495
  502MOL0     C67694   2.747   4.670   7.973  0.0290  0.5975  0.0038
  502MOL0     C67695   2.648   4.575   7.917  0.4960 -1.2616  0.4843
  502MOL0     C67696   2.534   4.560   8.018  0.2565  0.4582 -0.1078
  502MOL0     C67697   2.408   4.496   7.964 -0.6561 -0.5522 -0.2662
  502MOL0     C67698   2.444   4.379   7.883 -0.2110 -0.2701 -0.4303
  502MOL0     C67699   2.490   4.272   7.841 -0.3951 -0.2172  0.8221
  502MOL0     C67700   3.009   4.574   8.200 -0.5520  0.0676 -0.1290
  502MOL0     C67701   3.143   4.534   8.212  0.1171 -0.6029 -0.6544
  502MOL0     C67702   3.209   4.553   8.339 -0.6738  0.0585 -0.2222
  502MOL0     H67703   3.475   4.118   8.026 -2.8237  1.2446  0.9504
  502MOL0     H67704   3.707   4.060   8.003 -2.3739 -1.1545  1.1788
  502MOL0     H67705   3.933   4.031   7.827 -1.6874 -0.3390 -1.6337
  502MOL0     H67706   3.863   4.163   7.726 -2.0337 -0.0981  2.8636
  502MOL0     H67707   4.104   4.112   7.699 -0.1922 -2.6187  2.0576
  502MOL0     H67708   4.141   4.166   7.859 -2.1292 -2.5304  1.2061
  502MOL0     H67709   4.033   4.388   7.824 -2.6035 -3.5469  1.5765
  502MOL0     H67710   3.996   4.351   7.661  0.2968  2.1515  0.7862
  502MOL0     H67711   4.277   4.331   7.798  1.7242 -0.6441 -1.2777
  502MOL0     H67712   4.247   4.330   7.623  1.3844 -0.8019  0.2573
  502MOL0     H67713   4.145   4.553   7.651  0.0810 -1.8757  0.4419
  502MOL0     H67714   4.233   4.550   7.820  0.3226 -5.4304  1.7167
  502MOL0     H67715   4.360   4.515   7.541 -2.2255  0.5363  0.0497
  502MOL0     H67716   4.331   4.680   7.609 -0.7727 -0.5838 -0.7323
  502MOL0     H67717   4.497   4.440   7.698 -1.4868 -0.0179 -1.3840
  502MOL0     H67718   4.468   4.597   7.797 -0.5216  0.9835 -0.8771
  502MOL0     H67719   4.583   4.695   7.586 -1.5200 -0.7749  0.0579
  502MOL0     H67720   4.675   4.638   7.729  0.3371 -0.9059 -0.9994
  502MOL0     H67721   4.783   4.405   7.701 -1.8534  2.2924  1.1255
  502MOL0     H67722   4.907   4.208   7.573  0.8914 -0.0988 -0.9531
  502MOL0     H67723   4.870   4.172   7.399  1.0358  0.4719 -1.8488
  502MOL0     H67724   5.018   4.414   7.428  1.3149 -0.3233 -1.3615
  502MOL0     H67725   5.087   4.326   7.563 -0.4199  4.0003 -0.0857
  502MOL0     H67726   5.080   4.257   7.257 -0.1459  0.8947  0.2349
  502MOL0     H67727   5.115   4.135   7.372 -0.9813 -0.9298 -3.0199
  502MOL0     H67728   5.263   4.404   7.331  1.8476  0.3528 -0.8667
  502MOL0     H67729   5.308   4.247   7.269 -3.2537 -1.9214  0.4017
  502MOL0     H67730   5.484   4.226   7.678  0.9948  1.4984  2.1582
  502MOL0     H67731   5.704   4.304   7.715 -0.3381  0.5054  0.4204
  502MOL0     H67732   5.976   4.715   7.654 -0.4862 -0.8260  1.5317
  502MOL0     H67733   6.199   4.795   7.727  0.3108  0.7225  0.2246
  502MOL0     H67734   6.340   4.778   7.971 -1.2461  1.5472 -3.3174
  502MOL0     H67735   6.442   4.633   8.012  2.5595  0.1395  0.1871
  502MOL0     H67736   6.531   4.879   7.836  0.4878 -0.4471 -0.4339
  502MOL0     H67737   6.558   4.862   8.013  4.0554 -2.0274 -0.2788
  502MOL0     H67738   6.665   4.633   7.961  2.1717 -0.3269  0.5389
  502MOL0     H67739   6.675   4.693   7.797 -2.8831 -1.5291  0.5169
  502MOL0     H67740   6.770   4.801   8.059 -0.2025 -1.3690 -0.1902
  502MOL0     H67741   6.775   4.909   7.908 -0.4612  1.3146  2.3058
  502MOL0     H67742   6.908   4.718   7.814 -1.6941  0.6781  0.4653
  502MOL0     H67743   6.911   4.645   7.967  0.7378 -0.0305  1.5398
  502MOL0     H67744   7.034   4.927   7.899  2.8978  1.3804  0.3089
  502MOL0     H67745   7.025   4.883   8.072  2.8470 -2.2446  1.4258
  502MOL0     H67746   7.159   4.715   7.870  2.9108  3.1728 -1.2959
  502MOL0     H67747   7.177   4.700   8.042  0.7331 -1.9541 -0.1584
  502MOL0     H67748   7.294   4.928   7.882  0.5953  0.6856 -0.1182
  502MOL0     H67749   7.282   4.913   8.059 -0.0695  0.7183 -0.4172
  502MOL0     H67750   6.332   4.395   7.820  0.8946  2.2371 -0.4890
  502MOL0     H67751   6.108   4.308   7.724  0.3507 -1.1028  2.9014
  502MOL0     H67752   5.702   4.487   7.319  0.6759 -1.3668 -1.1146
  502MOL0     H67753   5.486   4.401   7.285 -2.0508 -0.6291  0.9399
  502MOL0     H67754   3.807   4.447   7.859  0.6428 -0.9828 -0.5747
  502MOL0     H67755   3.558   4.511   7.890  0.4293 -0.3226 -0.0887
  502MOL0     H67756   3.176   4.458   7.885 -1.9862 -1.8056 -0.1619
  502MOL0     H67757   2.938   4.501   7.872 -0.2597 -1.7581  0.3669
  502MOL0     H67758   2.811   4.702   7.891 -1.0063 -0.6774 -1.3583
  502MOL0     H67759   2.692   4.759   8.006  0.8816  0.7230  1.1431
  502MOL0     H67760   2.695   4.481   7.885 -0.7141 -2.4466  2.0237
  502MOL0     H67761   2.606   4.620   7.826 -1.1314 -1.7386  0.9642
  502MOL0     H67762   2.504   4.658   8.057  0.6078 -0.1231  1.7333
  502MOL0     H67763   2.562   4.502   8.107 -1.1490  0.0331  0.0899
  502MOL0     H67764   2.332   4.489   8.042 -1.5143  4.2034 -0.3294
  502MOL0     H67765   2.361   4.557   7.885  0.8099 -1.6935 -2.1092
  502MOL0     H67766   2.545   4.187   7.807 -0.6377 -0.9175  2.1143
  502MOL0     H67767   2.961   4.612   8.289 -0.9560 -2.3094  0.7432
  502MOL0     H67768   3.240   4.658   8.341 -3.7626  1.0760  0.2889
  502MOL0     H67769   3.125   4.540   8.408 -1.4967 -4.9367 -1.7996
  502MOL0     H67770   3.289   4.485   8.366  2.3307  3.2039 -0.5059
  503MOL0     O67771   8.080   5.671   3.296  0.6127  0.6395  1.0102
  503MOL0     C67772   8.173   5.625   3.360 -0.2392  0.8280  0.3752
  503MOL0     O67773   8.163   5.551   3.474  0.1929 -0.6907  0.1384
  503MOL0     C67774   8.040   5.499   3.510 -1.3990  0.2143  0.3888
  503MOL0     C67775   8.006   5.366   3.466  0.5048  0.0071  0.0090
  503MOL0     C67776   7.874   5.318   3.507  0.0968  0.6852  0.1737
  503MOL0     C67777   7.790   5.391   3.590 -0.1155  0.4940 -0.3027
  503MOL0     O67778   7.671   5.332   3.624  0.5675  0.4216  0.6545
  503MOL0     C67779   7.568   5.419   3.686 -0.0425 -0.1653 -0.2247
  503MOL0     C67780   7.456   5.327   3.740 -0.0866  0.1158  0.5161
  503MOL0     C67781   7.333   5.408   3.778 -0.4555 -0.8429 -0.0669
  503MOL0     C67782   7.241   5.327   3.870  0.2540  0.0455  0.1360
  503MOL0     C67783   7.137   5.407   3.960  0.6458 -0.1451  0.3641
  503MOL0     C67784   7.027   5.312   4.019  0.4953  0.5063  0.6127
  503MOL0     C67785   6.918   5.389   4.087 -0.3714  0.3496 -0.3433
  503MOL0     C67786   6.837   5.481   3.992 -0.8734  0.0510 -0.3164
  503MOL0     N67787   6.887   5.619   4.003  0.1455 -0.0607  0.1075
  503MOL0     C67788   6.936   5.686   3.901 -0.3605  0.0539  0.4303
  503MOL0     C67789   7.003   5.791   3.952  0.0465  0.1388  0.1881
  503MOL0     C67790   7.114   5.867   3.880  0.2422  0.0819 -0.5975
  503MOL0     C67791   7.245   5.783   3.883  0.0892  0.5337 -0.7614
  503MOL0     C67792   7.363   5.853   3.828  0.0198 -0.2773 -0.5941
  503MOL0     C67793   7.387   5.990   3.881 -0.1104 -0.0570 -0.1468
  503MOL0     O67794   7.530   6.004   3.876 -0.2284 -0.0556 -0.0524
  503MOL0     C67795   7.592   6.122   3.911 -0.4302  0.2397 -0.2573
  503MOL0     C67796   7.533   6.229   3.978  0.5174  0.6896  0.2785
  503MOL0     C67797   7.611   6.332   4.026 -0.1263 -0.0929  1.0318
  503MOL0     C67798   7.747   6.333   3.988 -0.4171 -0.6272 -0.1304
  503MOL0     C67799   7.844   6.431   4.025  1.3720  0.1661  0.8286
  503MOL0     O67800   7.951   6.454   3.942 -0.5693  0.0899  1.0786
  503MOL0     C67801   8.076   6.500   3.980  0.9517 -0.9556  0.3291
  503MOL0     C67802   8.175   6.528   3.890 -0.4603 -0.3413 -0.0097
  503MOL0     C67803   8.295   6.586   3.930 -0.8497 -0.5244 -0.3724
  503MOL0     C67804   8.322   6.607   4.066  0.0857  0.1374  0.1732
  503MOL0     O67805   8.440   6.673   4.099 -0.1923 -0.1545  0.2125
  503MOL0     C67806   8.561   6.618   4.052  0.4527  0.1224  0.8420
  503MOL0     C67807   8.672   6.715   4.080  0.2119 -0.0092  0.1174
  503MOL0     C67808   8.666   6.844   3.990 -0.2636  0.7851 -0.0181
  503MOL0     C67809   8.800   6.910   3.998  0.0549 -0.1718  0.2657
  503MOL0     C67810   8.797   7.042   3.915  0.5241 -0.4116 -0.4372
  503MOL0     C67811   8.914   7.131   3.954  0.7517 -0.2244  0.0947
  503MOL0     C67812   9.051   7.069   3.950 -0.1305  0.5804  0.1932
  503MOL0     C67813   9.081   7.021   3.804  0.0992 -0.8374  0.2407
  503MOL0    Cl67814   9.257   6.995   3.782  0.0892  0.3195 -0.4209
  503MOL0     C67815   8.230   6.570   4.155 -1.0814  0.4803 -0.1786
  503MOL0     C67816   8.107   6.519   4.117 -0.4225  0.1328 -0.0310
  503MOL0     O67817   7.808   6.498   4.120 -0.0564  0.2946  0.3849
  503MOL0     C67818   7.806   6.231   3.911 -0.7001 -0.1754 -0.5034
  503MOL0     C67819   7.725   6.129   3.877 -0.3648 -0.0934 -0.2194
  503MOL0     N67820   6.973   5.796   4.087  0.6924 -0.4851 -0.4065
  503MOL0     N67821   6.889   5.700   4.109 -0.3336  0.5323  0.9608
  503MOL0     C67822   7.820   5.518   3.623  0.1236 -1.0609 -1.0408
  503MOL0     C67823   7.947   5.573   3.585 -0.1176 -0.0427  1.7238
  503MOL0     C67824   8.301   5.638   3.291  0.6322 -0.0582  0.2237
  503MOL0     C67825   8.385   5.532   3.299  0.4391  0.1033  0.0871
  503MOL0     C67826   8.517   5.525   3.250  0.4324  0.8914 -0.6308
  503MOL0     C67827   8.554   5.638   3.174  0.2271  0.2318 -0.8720
  503MOL0     O67828   8.673   5.642   3.104 -0.5630  0.3816 -0.5267
  503MOL0     C67829   8.761   5.749   3.119  0.0399  0.5180 -0.4673
  503MOL0     C67830   8.908   5.715   3.094  0.7781  0.0373  0.1529
  503MOL0     C67831   9.006   5.819   3.158  0.0310  0.1122 -0.4539
  503MOL0     C67832   8.981   5.966   3.140 -0.3139  0.6655  0.0128
  503MOL0     C67833   9.021   6.014   3.007 -0.4592  0.1894 -0.7111
  503MOL0     C67834   9.064   6.059   2.899 -0.1973  0.4139  0.1524
  503MOL0     C67835   8.473   5.747   3.167  0.2192  0.1155  0.4691
  503MOL0     C67836   8.342   5.753   3.221  0.0717 -1.0887  0.7103
  503MOL0     C67837   8.259   5.884   3.210 -0.4318 -0.0521 -0.6761
  503MOL0     H67838   8.071   5.306   3.402 -2.1690 -0.6305 -2.2973
  503MOL0     H67839   7.847   5.223   3.463  0.9094  0.2383  0.6172
  503MOL0     H67840   7.610   5.462   3.777  3.4239 -0.3973 -1.5667
  503MOL0     H67841   7.529   5.495   3.617 -0.4257  0.8652  1.0747
  503MOL0     H67842   7.489   5.267   3.826  0.2140  1.5607  1.4415
  503MOL0     H67843   7.425   5.255   3.663 -1.5144  1.1094  0.1162
  503MOL0     H67844   7.277   5.447   3.692 -1.8652  0.0064  1.1748
  503MOL0     H67845   7.357   5.496   3.838  2.3545 -1.2644 -0.4521
  503MOL0     H67846   7.189   5.257   3.803  0.0228 -0.8084  1.1784
  503MOL0     H67847   7.292   5.263   3.942  2.0383  0.2107 -0.9186
  503MOL0     H67848   7.180   5.468   4.039  2.6471 -0.8615 -0.1122
  503MOL0     H67849   7.086   5.471   3.887  0.8461  0.1383  0.4758
  503MOL0     H67850   6.978   5.239   3.955 -2.0066 -0.8526  3.7928
  503MOL0     H67851   7.076   5.253   4.097  1.8514  2.2718  1.1763
  503MOL0     H67852   6.952   5.435   4.180  0.3637  0.5120 -0.6876
  503MOL0     H67853   6.839   5.317   4.111 -1.4030  1.6413  0.2829
  503MOL0     H67854   6.842   5.429   3.896  0.6926  0.5497 -0.5387
  503MOL0     H67855   6.734   5.480   4.028 -0.9049 -0.3180 -0.4058
  503MOL0     H67856   6.953   5.648   3.801  2.3392  2.7218 -0.2930
  503MOL0     H67857   7.091   5.894   3.777 -1.5766  2.1536  0.2745
  503MOL0     H67858   7.129   5.966   3.925 -2.2103  0.5911 -0.7807
  503MOL0     H67859   7.260   5.744   3.983 -1.5943  0.8770 -0.3481
  503MOL0     H67860   7.238   5.697   3.816 -2.1184 -0.4930  0.7087
  503MOL0     H67861   7.359   5.858   3.719  1.5117  0.8789 -0.6365
  503MOL0     H67862   7.452   5.796   3.854  1.6370  1.3911 -2.1164
  503MOL0     H67863   7.364   6.006   3.987 -0.5166  1.6825 -0.4685
  503MOL0     H67864   7.347   6.064   3.811 -0.4588 -0.9581 -0.9292
  503MOL0     H67865   7.426   6.222   3.993  0.1901  0.3984 -1.8388
  503MOL0     H67866   7.582   6.420   4.081  3.9087  1.2638  1.3143
  503MOL0     H67867   8.152   6.519   3.784 -2.5203  2.3005  0.1236
  503MOL0     H67868   8.385   6.606   3.872  0.6712 -1.1332  1.6832
  503MOL0     H67869   8.581   6.523   4.103  1.9259 -1.0108 -1.7033
  503MOL0     H67870   8.559   6.596   3.945 -1.9983  2.2272  0.3369
  503MOL0     H67871   8.686   6.742   4.185  5.0630 -0.8243 -0.1254
  503MOL0     H67872   8.763   6.672   4.039  1.5431  4.1508 -1.8281
  503MOL0     H67873   8.655   6.814   3.885  0.2301 -1.0169  0.3996
  503MOL0     H67874   8.584   6.910   4.020 -2.9485 -1.7300 -1.3200
  503MOL0     H67875   8.877   6.837   3.972 -1.2630 -3.0243  3.5430
  503MOL0     H67876   8.825   6.926   4.103 -1.0689  4.5747  0.0396
  503MOL0     H67877   8.708   7.101   3.936 -0.1272 -1.4290 -0.3071
  503MOL0     H67878   8.792   7.008   3.812 -2.2213 -1.5638 -0.0151
  503MOL0     H67879   8.919   7.220   3.890 -0.5416  1.3341  2.0570
  503MOL0     H67880   8.907   7.153   4.061 -0.1045 -0.5533  0.1159
  503MOL0     H67881   9.063   6.981   4.014  1.7317 -0.6225 -1.6604
  503MOL0     H67882   9.132   7.139   3.972  0.3314  0.2178 -0.3404
  503MOL0     H67883   9.033   6.926   3.780  1.6082 -0.6605 -4.3953
  503MOL0     H67884   9.049   7.098   3.734 -1.0881 -0.8377  0.7542
  503MOL0     H67885   8.252   6.595   4.259 -1.9301  1.8667 -0.3054
  503MOL0     H67886   8.042   6.495   4.201 -1.2678  0.7828 -0.4765
  503MOL0     H67887   7.911   6.236   3.885 -0.7355 -0.4529 -0.6959
  503MOL0     H67888   7.764   6.041   3.827  0.9023  0.8374 -0.9450
  503MOL0     H67889   7.748   5.586   3.668  4.4867  3.5632 -0.1885
  503MOL0     H67890   7.973   5.677   3.601  1.6048 -0.1790  0.0770
  503MOL0     H67891   8.350   5.457   3.370 -2.1634  2.1485  1.1210
  503MOL0     H67892   8.581   5.439   3.268 -2.0023 -0.8210  0.3633
  503MOL0     H67893   8.752   5.783   3.223  2.1314  2.0813 -0.7319
  503MOL0     H67894   8.737   5.831   3.051 -0.0324  0.1523 -0.8867
  503MOL0     H67895   8.920   5.706   2.986  2.0680 -0.9120  0.3453
  503MOL0     H67896   8.914   5.617   3.141 -4.4940 -0.2241  0.8575
  503MOL0     H67897   9.105   5.797   3.117 -0.5171 -1.5417 -0.9918
  503MOL0     H67898   9.015   5.794   3.265  1.4634 -0.4011 -0.6666
  503MOL0     H67899   8.877   5.994   3.161 -0.4324  1.3308 -1.3174
  503MOL0     H67900   9.034   6.023   3.216 -2.2945  0.4873  1.6218
  503MOL0     H67901   9.099   6.090   2.803  1.3931 -1.9991 -0.1172
  503MOL0     H67902   8.510   5.829   3.107 -1.1213  0.9352  0.7172
  503MOL0     H67903   8.325   5.967   3.183 -1.3648  1.0349  0.2708
  503MOL0     H67904   8.180   5.875   3.135 -1.7791  1.7488  0.4465
  503MOL0     H67905   8.221   5.917   3.307  1.3896 -0.1117  0.1127
  504MOL0     O67906   3.963   5.782   9.785  0.5199  0.4017  0.2552
  504MOL0     C67907   3.914   5.778   9.674  0.5978 -0.1949 -0.0895
  504MOL0     O67908   3.988   5.785   9.555  0.4164 -0.4678 -0.4642
  504MOL0     C67909   4.120   5.813   9.559 -0.5383 -0.3605 -0.4255
  504MOL0     C67910   4.210   5.721   9.505  0.1532 -0.3388 -1.0594
  504MOL0     C67911   4.345   5.740   9.510  0.5294 -0.5712 -0.5929
  504MOL0     C67912   4.397   5.851   9.588 -0.6182  0.1055  0.2913
  504MOL0     O67913   4.540   5.852   9.596 -0.0626  0.0691  0.2509
  504MOL0     C67914   4.611   5.973   9.618  0.2410  0.8789  0.9026
  504MOL0     C67915   4.702   5.954   9.746  0.7360 -0.2669 -0.1769
  504MOL0     C67916   4.820   5.859   9.716  0.3222 -0.7067 -0.4046
  504MOL0     C67917   4.883   5.789   9.835  0.3703 -0.2507 -0.0611
  504MOL0     C67918   5.010   5.703   9.806  0.1136 -0.1972 -0.7875
  504MOL0     C67919   5.044   5.635   9.940 -0.6463 -0.4138 -0.8223
  504MOL0     C67920   5.157   5.539   9.944 -0.4714 -0.5987 -0.6673
  504MOL0     C67921   5.294   5.606   9.962 -0.1438  0.7889 -0.5939
  504MOL0     N67922   5.389   5.504  10.011  0.0306  0.0266 -0.0376
  504MOL0     C67923   5.430   5.388   9.956 -0.0131  0.0918  0.5687
  504MOL0     C67924   5.477   5.308  10.055 -0.2099 -0.2996 -0.2277
  504MOL0     C67925   5.533   5.169  10.029 -0.3959 -0.0268 -0.5651
  504MOL0     C67926   5.664   5.161  10.108 -0.8133  0.4386  0.0838
  504MOL0     C67927   5.785   5.212  10.024  0.6940 -0.3746 -0.9627
  504MOL0     C67928   5.921   5.190  10.088  0.0227 -0.1815  0.0823
  504MOL0     O67929   5.939   5.272  10.206  0.4110 -0.5141  0.4421
  504MOL0     C67930   6.058   5.284  10.268 -0.8009 -0.1340  0.1399
  504MOL0     C67931   6.178   5.238  10.215 -0.0766 -0.2111  0.6332
  504MOL0     C67932   6.301   5.241  10.279  0.3185  0.1432 -0.2215
  504MOL0     C67933   6.302   5.280  10.408  0.5718  0.0351 -0.0417
  504MOL0     C67934   6.424   5.295  10.479  0.3291 -0.7224  0.0510
  504MOL0     O67935   6.544   5.278  10.401  0.7193 -0.0037 -0.4277
  504MOL0     C67936   6.666   5.335  10.436 -0.3747 -0.5543  0.4952
  504MOL0     C67937   6.763   5.352  10.336 -0.0956 -0.6325  0.0881
  504MOL0     C67938   6.883   5.415  10.363  0.1204 -0.0959 -0.1671
  504MOL0     C67939   6.918   5.455  10.493 -0.4871 -0.2191 -0.0506
  504MOL0     O67940   7.038   5.523  10.506  0.3663  0.5135  0.4950
  504MOL0     C67941   7.069   5.633  10.420 -0.1256  0.3857 -0.8731
  504MOL0     C67942   7.199   5.603  10.340 -0.1636  0.0037 -0.3230
  504MOL0     C67943   7.333   5.617  10.428  0.0588 -0.1242  0.1890
  504MOL0     C67944   7.364   5.767  10.458  0.9289  0.0523 -0.0161
  504MOL0     C67945   7.502   5.792  10.515 -0.1534 -0.0452  0.4298
  504MOL0     C67946   7.525   5.733  10.655  0.3743 -0.7330 -0.3219
  504MOL0     C67947   7.649   5.799  10.706  0.0690 -0.0270  0.1073
  504MOL0     C67948   7.655   5.766  10.850  0.2043  0.5548  1.4322
  504MOL0    Cl67949   7.526   5.853  10.930  0.0422  0.2290  0.5109
  504MOL0     C67950   6.824   5.442  10.590  0.6121 -0.3880 -0.0550
  504MOL0     C67951   6.701   5.382  10.565  0.6705  0.2261  0.3974
  504MOL0     O67952   6.413   5.328  10.595  0.4952  0.2710  0.2347
  504MOL0     C67953   6.177   5.327  10.467  0.1045 -0.1699 -0.0719
  504MOL0     C67954   6.060   5.320  10.397  0.1131 -0.2531  0.3658
  504MOL0     N67955   5.476   5.380  10.175 -0.9538 -0.6788  0.1975
  504MOL0     N67956   5.423   5.492  10.141 -0.3739 -1.0234 -0.6612
  504MOL0     C67957   4.304   5.946   9.646 -0.2305 -0.7123 -0.0470
  504MOL0     C67958   4.170   5.925   9.623  0.2424 -0.1205 -0.8521
  504MOL0     C67959   3.767   5.746   9.657 -0.0591  0.6724  0.5310
  504MOL0     C67960   3.726   5.661   9.553  0.8040  0.1705 -0.5327
  504MOL0     C67961   3.587   5.648   9.527 -0.1098  0.6915 -0.0957
  504MOL0     C67962   3.486   5.698   9.607  0.3871  0.3136  0.0325
  504MOL0     O67963   3.348   5.673   9.588  0.1809  1.1441  0.1347
  504MOL0     C67964   3.292   5.596   9.477 -0.0761  0.0069  0.0308
  504MOL0     C67965   3.189   5.686   9.408  0.2670  0.1941  0.0294
  504MOL0     C67966   3.053   5.671   9.472  0.5416  0.1698  0.7557
  504MOL0     C67967   2.942   5.745   9.398  0.4167 -0.1295  0.0057
  504MOL0     C67968   2.967   5.891   9.401  0.2608  0.0444  0.1988
  504MOL0     C67969   3.014   6.006   9.413  0.0196  0.4304 -0.5894
  504MOL0     C67970   3.529   5.757   9.724  0.0097 -0.5990  0.1957
  504MOL0     C67971   3.667   5.792   9.745 -0.7278 -0.4935  0.6522
  504MOL0     C67972   3.702   5.881   9.868 -0.0125 -0.6731 -0.2983
  504MOL0     H67973   4.163   5.631   9.465 -1.2466 -1.4909  2.7241
  504MOL0     H67974   4.412   5.669   9.462  1.1535 -0.0038 -0.5809
  504MOL0     H67975   4.674   5.991   9.530 -0.2544 -5.1252 -1.1000
  504MOL0     H67976   4.550   6.062   9.639  0.0787  0.6811  1.2751
  504MOL0     H67977   4.642   5.920   9.832 -1.1214 -1.8056 -1.9772
  504MOL0     H67978   4.745   6.052   9.768 -2.3451  1.0280  0.5843
  504MOL0     H67979   4.896   5.920   9.666 -1.6125  0.8478 -1.5939
  504MOL0     H67980   4.787   5.778   9.649 -4.2890 -0.0362  0.6844
  504MOL0     H67981   4.897   5.867   9.910  0.7233 -0.6875  0.3322
  504MOL0     H67982   4.801   5.728   9.873 -1.1846  1.6428 -0.1937
  504MOL0     H67983   4.994   5.636   9.721 -0.6252  0.2382 -0.9994
  504MOL0     H67984   5.094   5.771   9.787 -0.3405  0.5105 -0.3106
  504MOL0     H67985   5.069   5.709  10.016 -0.7758  0.5332 -1.6793
  504MOL0     H67986   4.954   5.587   9.978 -2.3545  1.9087 -1.7048
  504MOL0     H67987   5.144   5.488   9.848 -1.4686 -0.2772 -0.7135
  504MOL0     H67988   5.141   5.458  10.016  0.2214 -0.3024 -0.1728
  504MOL0     H67989   5.333   5.652   9.870 -1.0785 -1.6582 -2.3199
  504MOL0     H67990   5.299   5.676  10.045  1.3322 -0.5558  0.5142
  504MOL0     H67991   5.420   5.362   9.851  0.3515  1.1784  0.2458
  504MOL0     H67992   5.468   5.087  10.059 -0.3764 -0.1775 -0.9359
  504MOL0     H67993   5.549   5.163   9.921 -0.7370  0.9190 -0.6839
  504MOL0     H67994   5.675   5.211  10.205  0.6277 -0.7542  0.5791
  504MOL0     H67995   5.674   5.052  10.113  1.3682  0.5793 -0.4517
  504MOL0     H67996   5.768   5.317  10.000  1.0671 -0.4592 -1.6303
  504MOL0     H67997   5.786   5.156   9.930 -1.0223  0.9806 -1.8412
  504MOL0     H67998   5.995   5.210  10.011 -0.4541 -1.7045 -0.8185
  504MOL0     H67999   5.923   5.085  10.119  2.4068 -1.0489 -2.6091
  504MOL0     H68000   6.177   5.206  10.111 -1.7176 -0.2982  0.6451
  504MOL0     H68001   6.392   5.221  10.223  0.9672  1.0069  0.5104
  504MOL0     H68002   6.743   5.328  10.232  1.3085  0.0280 -0.3631
  504MOL0     H68003   6.953   5.421  10.281  0.6602 -1.0955  0.2099
  504MOL0     H68004   6.986   5.645  10.349 -1.7427  0.7057  0.9862
  504MOL0     H68005   7.082   5.729  10.470 -3.5829 -0.1860  1.4565
  504MOL0     H68006   7.201   5.504  10.294  0.5304 -1.3442  2.3657
  504MOL0     H68007   7.206   5.683  10.266 -1.1257  0.2710 -0.1385
  504MOL0     H68008   7.316   5.563  10.522 -0.2107 -3.2478 -1.5379
  504MOL0     H68009   7.417   5.578  10.370 -0.2335 -0.0626 -0.2845
  504MOL0     H68010   7.286   5.809  10.523  0.4908 -2.2665  1.0957
  504MOL0     H68011   7.359   5.818  10.362 -0.6516 -0.4468 -0.2320
  504MOL0     H68012   7.521   5.899  10.506 -0.5993  0.1529  1.6512
  504MOL0     H68013   7.573   5.745  10.447  0.2071  3.1258 -1.5829
  504MOL0     H68014   7.431   5.762  10.704  0.9595  1.4821 -0.4249
  504MOL0     H68015   7.513   5.624  10.652 -0.9166 -0.7866  2.7644
  504MOL0     H68016   7.638   5.907  10.700 -1.2193 -0.1430  0.1147
  504MOL0     H68017   7.742   5.773  10.654  1.7521  3.2530  1.1975
  504MOL0     H68018   7.647   5.657  10.851  2.8057  0.2212 -0.6413
  504MOL0     H68019   7.747   5.792  10.903  0.9006 -1.9903  1.6020
  504MOL0     H68020   6.845   5.493  10.684 -2.2185  1.7985 -0.4530
  504MOL0     H68021   6.631   5.374  10.648  0.3064 -2.0235 -0.0777
  504MOL0     H68022   6.191   5.370  10.566  2.8299  3.3400 -1.7587
  504MOL0     H68023   5.970   5.351  10.450 -0.2176  1.4134 -1.0675
  504MOL0     H68024   4.343   6.028   9.706  1.5410 -1.7199  0.2516
  504MOL0     H68025   4.097   5.984   9.676 -0.1343 -0.2746 -1.1920
  504MOL0     H68026   3.807   5.616   9.495  2.1216  3.1477 -1.2014
  504MOL0     H68027   3.565   5.587   9.440 -2.9395  1.3458  0.0660
  504MOL0     H68028   3.245   5.511   9.527  0.6022  0.5689  1.6762
  504MOL0     H68029   3.366   5.560   9.404 -1.2843 -0.3440 -1.0695
  504MOL0     H68030   3.178   5.663   9.301  1.2190 -0.2301  0.0155
  504MOL0     H68031   3.224   5.789   9.412  0.6145  0.1030 -0.5528
  504MOL0     H68032   3.059   5.718   9.570 -3.2124  1.4541  0.5284
  504MOL0     H68033   3.019   5.567   9.479 -1.2709  0.6864  0.3535
  504MOL0     H68034   2.944   5.718   9.292 -1.9602  1.6106 -0.5612
  504MOL0     H68035   2.843   5.720   9.438  0.2111  1.1875  0.3679
  504MOL0     H68036   3.059   6.103   9.407 -1.5349  1.2514  0.3069
  504MOL0     H68037   3.450   5.780   9.794 -0.3711 -0.1217 -0.3830
  504MOL0     H68038   3.709   5.821   9.959  2.6137 -2.5099 -1.5901
  504MOL0     H68039   3.799   5.932   9.865  0.4848 -1.3848  2.0190
  504MOL0     H68040   3.625   5.959   9.880 -0.4128 -1.1969  0.6713
  505MOL0     O68041   9.452   9.399   1.631 -0.1576  0.1234  0.1641
  505MOL0     C68042   9.417   9.431   1.744 -0.3023  0.2999  0.1452
  505MOL0     O68043   9.290   9.470   1.778  0.1233 -0.3921 -0.4229
  505MOL0     C68044   9.204   9.508   1.682 -0.7103 -0.1874 -0.3827
  505MOL0     C68045   9.251   9.605   1.591  1.0289 -0.2828  0.2522
  505MOL0     C68046   9.175   9.654   1.487 -0.2074 -0.2698  0.0483
  505MOL0     C68047   9.042   9.613   1.488  0.1485 -0.3344  0.1820
  505MOL0     O68048   8.952   9.640   1.390 -0.3124 -0.1167 -0.1648
  505MOL0     C68049   8.854   9.741   1.415 -0.0799 -0.0932  0.0730
  505MOL0     C68050   8.821   9.798   1.281 -0.3548 -0.2156  0.8165
  505MOL0     C68051   8.929   9.892   1.226 -0.0860  0.3000  1.4047
  505MOL0     C68052   8.888   9.969   1.095  0.1130 -0.2866  0.3549
  505MOL0     C68053   8.975  10.082   1.061  0.2362  0.1772  0.0018
  505MOL0     C68054   8.928  10.179   0.951 -0.3518  0.2476  0.7479
  505MOL0     C68055   8.900  10.108   0.822 -0.0334  0.9776  0.2056
  505MOL0     C68056   8.974  10.155   0.706  0.4202 -0.3447 -0.0871
  505MOL0     N68057   9.123  10.129   0.711 -0.1522  0.5181  0.4043
  505MOL0     C68058   9.183  10.058   0.612 -0.8612 -0.5343 -0.0609
  505MOL0     C68059   9.319  10.068   0.639  0.0693  0.2777  0.1545
  505MOL0     C68060   9.437  10.013   0.573 -0.2864  0.2540 -0.3786
  505MOL0     C68061   9.492  10.095   0.455  0.8370  0.4163 -0.6779
  505MOL0     C68062   9.555  10.228   0.499  1.1655 -0.1696  0.1585
  505MOL0     C68063   9.696  10.202   0.549  0.3785 -0.3500 -0.3577
  505MOL0     O68064   9.766  10.325   0.554  0.4360 -0.2205  0.1554
  505MOL0     C68065   9.897  10.330   0.603 -0.2166  0.0213  0.5068
  505MOL0     C68066   9.963  10.215   0.660  0.2073 -0.2387  0.4093
  505MOL0     C68067  10.090  10.230   0.725  0.5602 -0.0951  1.0749
  505MOL0     C68068  10.155  10.358   0.731  0.1566  0.6525  0.2414
  505MOL0     C68069  10.289  10.382   0.788  0.3813  1.3375 -0.5863
  505MOL0     O68070  10.352  10.497   0.747 -0.2853  0.0248 -0.1950
  505MOL0     C68071  10.472  10.543   0.776  0.3541 -0.4568  1.1002
  505MOL0     C68072  10.496  10.677   0.737 -0.2263  0.8297 -0.4997
  505MOL0     C68073  10.621  10.731   0.759 -0.0991 -0.0157 -0.5109
  505MOL0     C68074  10.720  10.671   0.836  1.2579  0.1295 -0.5926
  505MOL0     O68075  10.836  10.731   0.871  0.2051  0.2629  0.4612
  505MOL0     C68076  10.889  10.833   0.784  0.7489  0.2482  0.0894
  505MOL0     C68077  10.951  10.775   0.663 -0.8271  0.1703  0.6955
  505MOL0     C68078  11.096  10.730   0.680  0.3952 -0.3900 -0.1066
  505MOL0     C68079  11.113  10.613   0.773  0.2097 -0.7431  0.2929
  505MOL0     C68080  11.259  10.565   0.779  0.7223  1.3009  0.8807
  505MOL0     C68081  11.373  10.672   0.770 -0.7741  0.0343  0.0913
  505MOL0     C68082  11.511  10.612   0.810 -0.3200  0.0939  0.2199
  505MOL0     C68083  11.565  10.505   0.710 -0.1113  0.3376 -0.0308
  505MOL0    Cl68084  11.739  10.481   0.716  0.0078  0.1349  0.6669
  505MOL0     C68085  10.698  10.540   0.875  0.5074  0.1000  1.4924
  505MOL0     C68086  10.572  10.475   0.843 -0.0515  0.5638 -0.0295
  505MOL0     O68087  10.333  10.300   0.872 -0.8857  0.1485  0.3990
  505MOL0     C68088  10.089  10.466   0.675 -0.5583  0.1701  0.4944
  505MOL0     C68089   9.963  10.455   0.614 -0.5637 -0.5481 -1.1892
  505MOL0     N68090   9.329  10.121   0.763 -0.0584 -0.2198  0.4643
  505MOL0     N68091   9.219  10.160   0.804  0.5422 -0.2211  0.9027
  505MOL0     C68092   8.990   9.532   1.595  0.0745 -0.1822  0.2780
  505MOL0     C68093   9.070   9.480   1.694  0.8016  0.3800  0.6832
  505MOL0     C68094   9.516   9.429   1.848  0.3217 -0.0117 -0.0344
  505MOL0     C68095   9.483   9.351   1.961  1.0789  0.3997  0.1105
  505MOL0     C68096   9.572   9.322   2.059 -0.0148  0.8229 -0.7937
  505MOL0     C68097   9.703   9.362   2.055  0.1359  0.1053 -0.4540
  505MOL0     O68098   9.781   9.315   2.163  0.4483  0.1657  0.4541
  505MOL0     C68099   9.916   9.353   2.173  0.4147  0.9538 -0.6842
  505MOL0     C68100   9.915   9.490   2.236 -1.1025 -0.5216  0.0250
  505MOL0     C68101  10.052   9.564   2.251 -0.3650 -0.4332 -0.2625
  505MOL0     C68102  10.131   9.589   2.123  0.8171 -0.6904  0.0416
  505MOL0     C68103  10.202   9.458   2.102 -0.6153  0.6916 -0.1518
  505MOL0     C68104  10.260   9.350   2.082 -0.0048 -0.3614 -0.4055
  505MOL0     C68105   9.741   9.439   1.938  0.6924 -0.5446  0.3130
  505MOL0     C68106   9.645   9.481   1.839  0.0452  0.0893 -0.2674
  505MOL0     C68107   9.704   9.550   1.717  0.0609 -0.0460  0.8803
  505MOL0     H68108   9.352   9.644   1.585  0.1349  2.2675  0.5713
  505MOL0     H68109   9.216   9.717   1.409 -1.3842 -0.8691 -1.0914
  505MOL0     H68110   8.770   9.687   1.459  1.7715 -2.6597  0.6924
  505MOL0     H68111   8.892   9.818   1.482  0.6027  1.2592 -1.7760
  505MOL0     H68112   8.726   9.852   1.284 -1.2593 -1.4078 -2.3999
  505MOL0     H68113   8.797   9.711   1.220 -0.0706  1.6415 -2.1441
  505MOL0     H68114   9.017   9.833   1.196 -1.1746 -0.2906 -0.8632
  505MOL0     H68115   8.963   9.959   1.305  1.4523 -0.6174  1.5691
  505MOL0     H68116   8.890   9.896   1.013 -3.5013  2.3388 -2.3497
  505MOL0     H68117   8.786  10.008   1.099  0.1977 -0.0178 -0.1615
  505MOL0     H68118   8.993  10.142   1.150 -0.5746 -0.8371  0.8810
  505MOL0     H68119   9.076  10.052   1.033  0.7619  1.0847  0.8452
  505MOL0     H68120   8.837  10.229   0.986 -0.1315  0.0829  1.5726
  505MOL0     H68121   9.005  10.254   0.931  0.6543 -1.1088 -0.7101
  505MOL0     H68122   8.794  10.128   0.803 -0.0860  0.5379  0.0193
  505MOL0     H68123   8.900   9.999   0.825  1.8459  0.9140 -0.8510
  505MOL0     H68124   8.925  10.119   0.615 -0.3308 -1.4973  0.7371
  505MOL0     H68125   8.970  10.264   0.699 -0.2380 -0.3889 -0.4179
  505MOL0     H68126   9.139  10.012   0.524 -2.4249  2.4930 -0.9946
  505MOL0     H68127   9.522  10.002   0.642 -0.9387  1.6700  0.6827
  505MOL0     H68128   9.415   9.914   0.532  0.1727 -0.4571  0.9886
  505MOL0     H68129   9.563  10.029   0.406  0.4319 -0.5720  0.0493
  505MOL0     H68130   9.416  10.108   0.377  1.2477  0.0102 -1.1521
  505MOL0     H68131   9.494  10.291   0.564  0.1259  0.6059 -1.5176
  505MOL0     H68132   9.568  10.296   0.415  0.4818 -2.1911 -1.6778
  505MOL0     H68133   9.747  10.136   0.478 -3.7465 -2.4831 -1.6385
  505MOL0     H68134   9.689  10.159   0.649  0.2940  1.7758  0.5827
  505MOL0     H68135   9.910  10.121   0.662 -2.2695  0.9886 -1.4182
  505MOL0     H68136  10.112  10.135   0.774 -0.1633 -0.7637  0.1315
  505MOL0     H68137  10.428  10.736   0.677 -2.3019 -0.1166  0.7854
  505MOL0     H68138  10.626  10.833   0.721 -1.8206  0.5206  0.5753
  505MOL0     H68139  10.814  10.911   0.768  0.4396  0.1753  1.0953
  505MOL0     H68140  10.962  10.893   0.839  0.6325  0.2540  0.2422
  505MOL0     H68141  10.887  10.698   0.618  0.0315  0.7962 -1.7280
  505MOL0     H68142  10.947  10.856   0.590  0.3926 -0.0132  0.4040
  505MOL0     H68143  11.148  10.704   0.587  1.1022  0.7070 -0.0392
  505MOL0     H68144  11.150  10.819   0.714 -0.4467  0.0708  0.0508
  505MOL0     H68145  11.048  10.531   0.742  1.2493 -0.8564 -1.7574
  505MOL0     H68146  11.076  10.639   0.872 -2.7416 -0.6054 -0.7495
  505MOL0     H68147  11.272  10.499   0.693 -1.4379  1.6251  0.2469
  505MOL0     H68148  11.286  10.498   0.861  1.9733  1.8273  0.9147
  505MOL0     H68149  11.368  10.716   0.669 -1.5994 -0.1391  0.0487
  505MOL0     H68150  11.350  10.756   0.837  1.0547  0.2841  0.4652
  505MOL0     H68151  11.502  10.568   0.910 -3.2965 -0.1406 -0.0459
  505MOL0     H68152  11.586  10.691   0.806  0.7376 -0.8425  0.8469
  505MOL0     H68153  11.513  10.411   0.733  1.7028 -0.6059  0.3430
  505MOL0     H68154  11.539  10.530   0.607  0.7784 -0.0545 -0.3562
  505MOL0     H68155  10.774  10.491   0.935 -0.1738  0.6271  2.8329
  505MOL0     H68156  10.551  10.372   0.870 -1.0734  0.5072 -0.9569
  505MOL0     H68157  10.134  10.564   0.691  0.2033  0.1161 -1.0237
  505MOL0     H68158   9.909  10.546   0.593 -0.7390  0.0482  1.4362
  505MOL0     H68159   8.885   9.508   1.586  0.4091 -0.7342 -3.3693
  505MOL0     H68160   9.018   9.419   1.767  1.7603  0.3352  1.3559
  505MOL0     H68161   9.382   9.313   1.972  1.5272 -0.5112  1.3264
  505MOL0     H68162   9.529   9.284   2.151 -2.4182  2.8132 -0.9768
  505MOL0     H68163   9.970   9.343   2.079  1.3976  0.9689 -0.1347
  505MOL0     H68164   9.960   9.280   2.242 -3.5671 -1.3956 -0.2999
  505MOL0     H68165   9.880   9.489   2.340  2.9212  1.3176  1.6426
  505MOL0     H68166   9.852   9.548   2.169  1.9981  4.2844  0.7594
  505MOL0     H68167  10.129   9.524   2.318  0.8699  1.0427 -0.7405
  505MOL0     H68168  10.018   9.657   2.297  0.9263  1.2315 -2.5049
  505MOL0     H68169  10.064   9.611   2.039 -1.1289  1.1467  1.9458
  505MOL0     H68170  10.186   9.682   2.134 -3.1888  2.0799 -0.8548
  505MOL0     H68171  10.291   9.247   2.087  0.2145 -0.2791  0.0042
  505MOL0     H68172   9.846   9.467   1.938  0.6560 -0.3731 -0.7668
  505MOL0     H68173   9.780   9.623   1.744 -0.0075 -0.1740  1.4216
  505MOL0     H68174   9.761   9.484   1.651 -0.2577  0.5203  0.0214
  505MOL0     H68175   9.626   9.602   1.659  0.8030 -0.6249 -0.7019
  506MOL0     O68176   3.592   7.084   7.997 -0.3904 -0.7259  0.2012
  506MOL0     C68177   3.510   7.133   8.078  0.4916 -0.2712  0.1859
  506MOL0     O68178   3.545   7.206   8.185  0.7507 -0.3895 -0.3270
  506MOL0     C68179   3.679   7.243   8.217  0.3489  0.2981  0.5148
  506MOL0     C68180   3.706   7.369   8.258  0.6262 -0.1347  0.2961
  506MOL0     C68181   3.834   7.402   8.293 -0.2898 -0.2622 -0.0856
  506MOL0     C68182   3.941   7.320   8.275 -0.6185  0.4341 -0.1183
  506MOL0     O68183   4.073   7.363   8.298  0.6323  0.4147  0.4211
  506MOL0     C68184   4.190   7.278   8.300  0.2437  0.1872 -0.1848
  506MOL0     C68185   4.307   7.378   8.298 -0.3641  0.1600 -0.2969
  506MOL0     C68186   4.440   7.305   8.267  0.5931 -0.6551 -0.3288
  506MOL0     C68187   4.555   7.408   8.271 -0.1886 -0.1503 -0.5783
  506MOL0     C68188   4.688   7.328   8.252 -0.2044 -0.5349  0.1305
  506MOL0     C68189   4.726   7.235   8.361 -1.2294 -0.1956  0.3791
  506MOL0     C68190   4.868   7.180   8.325  0.3547 -0.4090  0.3061
  506MOL0     C68191   4.913   7.062   8.416  1.0925 -0.0317 -0.8564
  506MOL0     N68192   4.906   7.110   8.558  0.7652 -0.8925  0.2513
  506MOL0     C68193   4.978   7.222   8.604  0.7015  0.8741 -0.5575
  506MOL0     C68194   4.919   7.248   8.727  0.0635 -0.1645  0.4794
  506MOL0     C68195   4.963   7.348   8.826 -0.4473 -0.9875  0.1593
  506MOL0     C68196   5.111   7.375   8.815 -0.8975 -0.5842  0.9096
  506MOL0     C68197   5.163   7.457   8.938 -0.3311  1.4958 -0.4833
  506MOL0     C68198   5.307   7.496   8.937 -0.7954  0.5861 -0.4455
  506MOL0     O68199   5.336   7.563   8.814  0.2504  0.2340  0.0787
  506MOL0     C68200   5.462   7.607   8.789 -0.1896 -0.2268  0.9786
  506MOL0     C68201   5.474   7.712   8.703 -0.0574 -0.1165 -0.0491
  506MOL0     C68202   5.602   7.769   8.681 -0.2187  0.6694 -0.1062
  506MOL0     C68203   5.714   7.708   8.740 -0.3969  0.1076  0.3363
  506MOL0     C68204   5.850   7.767   8.713 -0.0335 -0.1293 -0.7024
  506MOL0     O68205   5.951   7.678   8.728  0.6828  0.1821 -0.3932
  506MOL0     C68206   6.079   7.712   8.765  0.3578 -0.6607  0.1318
  506MOL0     C68207   6.132   7.676   8.881 -0.6919  0.0619 -0.4704
  506MOL0     C68208   6.262   7.709   8.906  0.7788 -0.2880 -0.1444
  506MOL0     C68209   6.340   7.787   8.819  0.7033  0.3808  0.1496
  506MOL0     O68210   6.461   7.822   8.863  0.1243  0.4401 -0.4698
  506MOL0     C68211   6.510   7.956   8.856  0.1324  0.3021 -0.6070
  506MOL0     C68212   6.661   7.928   8.892 -0.2278 -0.0609 -0.9303
  506MOL0     C68213   6.745   8.054   8.893  0.3720 -0.2293 -0.5767
  506MOL0     C68214   6.861   8.028   8.985  0.3303  0.1046 -0.0909
  506MOL0     C68215   6.975   7.972   8.907  0.2111  1.0945 -0.2173
  506MOL0     C68216   7.095   7.936   8.989 -0.6022 -0.3375 -0.3342
  506MOL0     C68217   7.166   8.060   9.026  0.2412 -0.3233 -0.1429
  506MOL0     C68218   7.311   8.026   9.054 -0.1210  0.1790  0.3942
  506MOL0    Cl68219   7.412   8.169   9.082 -0.2594  0.2840 -0.2387
  506MOL0     C68220   6.282   7.837   8.707  0.5819  0.2913  1.2697
  506MOL0     C68221   6.153   7.792   8.676  0.3365 -0.0722 -0.4012
  506MOL0     O68222   5.859   7.884   8.689  0.3287  0.3391 -0.1315
  506MOL0     C68223   5.703   7.595   8.811  0.1901 -0.1959  0.0016
  506MOL0     C68224   5.573   7.544   8.840 -0.1458 -1.0899  0.9990
  506MOL0     N68225   4.815   7.167   8.746  0.1969  0.0518  0.1194
  506MOL0     N68226   4.805   7.088   8.652 -0.1488  0.1429 -0.4354
  506MOL0     C68227   3.914   7.188   8.254 -0.3930 -0.6476 -0.4301
  506MOL0     C68228   3.782   7.147   8.222  0.1081 -0.6460 -0.8993
  506MOL0     C68229   3.364   7.128   8.056  0.5925 -0.7895  0.3920
  506MOL0     C68230   3.313   7.080   7.929 -0.0037 -0.7709  0.0420
  506MOL0     C68231   3.178   7.077   7.903 -0.0086 -0.8750  0.2001
  506MOL0     C68232   3.079   7.118   7.992  0.3038 -0.7607  0.1271
  506MOL0     O68233   2.944   7.117   7.967  1.1350 -0.0769 -0.6790
  506MOL0     C68234   2.880   6.988   7.973 -0.2234  0.5128 -0.1506
  506MOL0     C68235   2.732   6.999   7.998  0.0093  0.0457  0.8255
  506MOL0     C68236   2.685   7.101   8.097 -0.3177 -0.4523 -0.7715
  506MOL0     C68237   2.680   7.050   8.246 -0.1671  0.6514  0.1288
  506MOL0     C68238   2.811   7.024   8.310 -0.4579  0.6760 -0.6368
  506MOL0     C68239   2.924   7.015   8.347  0.4666  0.0161 -0.0539
  506MOL0     C68240   3.122   7.156   8.114  0.6287 -0.8545  0.3082
  506MOL0     C68241   3.255   7.163   8.148 -0.1018  0.1207 -1.3248
  506MOL0     C68242   3.277   7.203   8.299 -0.3996  0.6392  0.2345
  506MOL0     H68243   3.624   7.439   8.247 -1.6309 -2.5385  0.6792
  506MOL0     H68244   3.857   7.504   8.320  0.6950 -1.0510  2.3248
  506MOL0     H68245   4.193   7.216   8.390 -0.4064  0.7244  0.2153
  506MOL0     H68246   4.198   7.216   8.211  3.8339 -2.0983  1.4901
  506MOL0     H68247   4.310   7.432   8.394 -2.7614 -0.1948  0.0276
  506MOL0     H68248   4.291   7.448   8.216 -0.6640 -2.4799 -2.6413
  506MOL0     H68249   4.437   7.265   8.165 -0.9717  0.4835 -0.7670
  506MOL0     H68250   4.447   7.215   8.328 -4.6478 -1.5990 -0.6767
  506MOL0     H68251   4.546   7.489   8.199  0.7714 -1.0026 -1.6791
  506MOL0     H68252   4.559   7.447   8.373  1.4054  0.5082 -0.8764
  506MOL0     H68253   4.684   7.278   8.154  0.8551 -0.5901  0.0992
  506MOL0     H68254   4.772   7.394   8.229 -0.2380 -1.2253 -2.2870
  506MOL0     H68255   4.730   7.290   8.455  2.3599 -1.8615  1.3869
  506MOL0     H68256   4.656   7.154   8.386  2.3814 -3.1449  2.0072
  506MOL0     H68257   4.936   7.264   8.339 -2.1862  1.7235  0.8545
  506MOL0     H68258   4.860   7.138   8.225 -0.4196 -1.0874  0.6412
  506MOL0     H68259   4.855   6.970   8.403 -0.3513  0.4066  1.7982
  506MOL0     H68260   5.017   7.040   8.389  1.8354  1.3479  0.6812
  506MOL0     H68261   5.070   7.258   8.558  1.9252  0.8494  1.7543
  506MOL0     H68262   4.916   7.444   8.803  1.9768  0.5284  1.0798
  506MOL0     H68263   4.949   7.317   8.930  1.1435 -3.1678 -0.2040
  506MOL0     H68264   5.159   7.278   8.799 -0.1599  0.1665 -1.8653
  506MOL0     H68265   5.135   7.434   8.727  0.8719 -0.9841  1.0754
  506MOL0     H68266   5.129   7.406   9.028  0.5858 -0.4874 -1.1904
  506MOL0     H68267   5.114   7.554   8.943  1.2413  2.3388 -0.8466
  506MOL0     H68268   5.358   7.400   8.946 -1.4572  0.2888  0.2093
  506MOL0     H68269   5.314   7.555   9.029 -2.3620 -1.6244  1.1738
  506MOL0     H68270   5.387   7.760   8.659  0.3997  2.7333  1.8532
  506MOL0     H68271   5.613   7.851   8.611 -0.8569  3.7639  3.1258
  506MOL0     H68272   6.085   7.601   8.944  1.1272 -1.2046 -0.5491
  506MOL0     H68273   6.312   7.680   8.997  1.6798  1.0767 -0.1831
  506MOL0     H68274   6.493   7.995   8.755  0.3369 -2.3008 -1.7141
  506MOL0     H68275   6.477   8.033   8.926  1.0448  0.3243 -0.1832
  506MOL0     H68276   6.672   7.880   8.989 -1.0156 -0.8104 -1.2005
  506MOL0     H68277   6.702   7.867   8.810 -2.1759 -0.1795 -1.8745
  506MOL0     H68278   6.790   8.072   8.795  0.6458  0.2684 -0.3619
  506MOL0     H68279   6.686   8.139   8.929  1.1524 -0.7466  2.1960
  506MOL0     H68280   6.836   7.968   9.073  1.7633  1.7178  1.4807
  506MOL0     H68281   6.886   8.126   9.025  2.9594 -0.7918  0.6473
  506MOL0     H68282   7.005   8.043   8.829  3.1784  0.2160  0.0350
  506MOL0     H68283   6.950   7.884   8.848 -2.0204  0.6214  1.2821
  506MOL0     H68284   7.051   7.878   9.072 -0.6987 -0.0779 -0.2041
  506MOL0     H68285   7.156   7.866   8.932  0.7691  1.2600 -0.8877
  506MOL0     H68286   7.118   8.108   9.112 -0.2763  0.2216 -0.7286
  506MOL0     H68287   7.171   8.133   8.945  1.9120 -0.7912 -0.5076
  506MOL0     H68288   7.308   7.963   9.144 -3.6454 -0.5151 -0.0599
  506MOL0     H68289   7.358   7.973   8.971 -1.7945  1.6954 -1.5995
  506MOL0     H68290   6.338   7.910   8.649 -1.0405  0.2530 -0.4362
  506MOL0     H68291   6.108   7.819   8.581  3.9789 -1.8460 -2.8350
  506MOL0     H68292   5.788   7.540   8.850 -1.1201 -2.4529 -0.1463
  506MOL0     H68293   5.563   7.455   8.901 -1.3005 -2.2728 -0.7954
  506MOL0     H68294   3.984   7.106   8.259 -0.9161 -1.0862 -0.1928
  506MOL0     H68295   3.780   7.039   8.212  2.8456 -1.1065  1.8429
  506MOL0     H68296   3.383   7.049   7.853  0.9643  0.6248  0.3143
  506MOL0     H68297   3.138   7.032   7.812 -0.4738  0.6616 -0.3759
  506MOL0     H68298   2.924   6.920   8.047  1.2405  0.2710 -1.1943
  506MOL0     H68299   2.897   6.923   7.887  0.4649  0.8330 -0.2621
  506MOL0     H68300   2.687   6.900   8.015 -0.3500  0.0646  0.0298
  506MOL0     H68301   2.680   7.042   7.912 -0.4566  1.3491  1.7323
  506MOL0     H68302   2.583   7.128   8.068  0.2414  1.8018 -0.8293
  506MOL0     H68303   2.743   7.194   8.090  1.2847 -1.3939 -0.2733
  506MOL0     H68304   2.623   7.113   8.316 -1.3380  1.6102 -1.6002
  506MOL0     H68305   2.621   6.958   8.236  0.5196  0.1088  0.9748
  506MOL0     H68306   3.025   7.026   8.382  0.2197 -0.1106  0.7125
  506MOL0     H68307   3.057   7.202   8.188  1.1209 -2.1997  1.6360
  506MOL0     H68308   3.192   7.192   8.366 -0.9095  1.6892 -0.2253
  506MOL0     H68309   3.350   7.129   8.333 -1.0314 -1.0565 -1.8449
  506MOL0     H68310   3.321   7.303   8.307  3.5772 -0.9248  0.2925
  507MOL0     O68311   4.320   5.318   5.740 -0.1709 -0.8633  0.6700
  507MOL0     C68312   4.294   5.430   5.709  0.2326 -0.8106  0.0498
  507MOL0     O68313   4.379   5.535   5.676 -0.1379  0.6861  0.1194
  507MOL0     C68314   4.506   5.536   5.733  0.6270 -0.0306  0.0610
  507MOL0     C68315   4.556   5.666   5.775 -0.1139  0.3937 -0.3479
  507MOL0     C68316   4.690   5.682   5.801  0.3753  0.4989 -0.6056
  507MOL0     C68317   4.776   5.569   5.795  0.2787 -0.0033 -0.1263
  507MOL0     O68318   4.905   5.568   5.841  0.3358  0.4536  0.2872
  507MOL0     C68319   4.970   5.685   5.887 -0.3116 -0.5567 -0.8820
  507MOL0     C68320   5.122   5.668   5.900  0.0586  0.3369  0.0281
  507MOL0     C68321   5.200   5.631   5.767  0.3736  0.0278 -0.0913
  507MOL0     C68322   5.356   5.647   5.773 -0.5689 -0.2823  0.5339
  507MOL0     C68323   5.429   5.535   5.696  0.2043  0.3301 -0.0319
  507MOL0     C68324   5.581   5.576   5.693  0.5077  0.0752  0.0857
  507MOL0     C68325   5.651   5.484   5.592 -0.4024 -0.4189  0.1451
  507MOL0     C68326   5.730   5.367   5.654  0.0164  0.0211 -0.1088
  507MOL0     N68327   5.863   5.419   5.694  0.4332  0.0214  0.0253
  507MOL0     C68328   5.884   5.466   5.820 -0.4935 -1.2125  0.4372
  507MOL0     C68329   6.018   5.483   5.818  0.0131  0.2190  0.2236
  507MOL0     C68330   6.089   5.545   5.933 -0.5103  0.3082 -0.1352
  507MOL0     C68331   6.173   5.440   6.012  0.9515  0.1712  0.2770
  507MOL0     C68332   6.305   5.393   5.935 -0.8697 -0.5192  0.3562
  507MOL0     C68333   6.424   5.490   5.940 -0.1302 -0.5732 -0.4705
  507MOL0     O68334   6.420   5.539   6.077  0.1109  0.6947  0.2512
  507MOL0     C68335   6.527   5.604   6.130 -0.5150 -0.0382 -0.4284
  507MOL0     C68336   6.535   5.607   6.269 -0.4414 -0.0344 -0.3971
  507MOL0     C68337   6.657   5.648   6.327  0.4437 -0.4591 -0.6049
  507MOL0     C68338   6.772   5.684   6.261  0.6861 -0.7697 -0.2707
  507MOL0     C68339   6.894   5.736   6.324  0.3920 -0.1528 -0.6348
  507MOL0     O68340   6.898   5.770   6.454 -0.0790  0.0549 -0.7641
  507MOL0     C68341   7.015   5.820   6.507 -0.4668 -0.2776  0.2520
  507MOL0     C68342   7.030   5.960   6.504  0.3944 -0.6768 -0.3761
  507MOL0     C68343   7.142   6.022   6.558  0.4067 -0.0103  0.4871
  507MOL0     C68344   7.247   5.948   6.613 -0.1136  0.5787  0.8455
  507MOL0     O68345   7.350   6.019   6.666  0.6936  0.7106 -0.2467
  507MOL0     C68346   7.485   5.963   6.662  0.5750  0.3348  0.1419
  507MOL0     C68347   7.580   6.079   6.631  0.2892 -0.5850 -0.3099
  507MOL0     C68348   7.728   6.042   6.645 -0.3567  0.1339  0.3764
  507MOL0     C68349   7.807   6.164   6.582  0.9080 -0.2150  0.8637
  507MOL0     C68350   7.954   6.153   6.621 -0.3272 -0.1952 -0.1397
  507MOL0     C68351   8.020   6.289   6.584 -0.0708  0.4121  0.3314
  507MOL0     C68352   8.061   6.282   6.430  0.2156  0.1381 -1.3822
  507MOL0     C68353   8.214   6.271   6.418 -0.2358  0.2708  0.3964
  507MOL0    Cl68354   8.307   6.386   6.500  0.3461 -0.2256 -0.0440
  507MOL0     C68355   7.241   5.811   6.607  0.6672 -0.2989 -0.8518
  507MOL0     C68356   7.119   5.741   6.562  0.5192 -0.1036  0.1226
  507MOL0     O68357   6.995   5.738   6.255 -0.5926  0.2236  0.8176
  507MOL0     C68358   6.761   5.683   6.126 -0.0607  0.0556  0.0489
  507MOL0     C68359   6.643   5.644   6.059  1.1500  0.6865  0.2352
  507MOL0     N68360   6.076   5.450   5.697  0.4629  1.0036 -0.4243
  507MOL0     N68361   5.977   5.415   5.620  0.6987  0.1901  0.6729
  507MOL0     C68362   4.730   5.444   5.757  1.0640  0.3083  0.4570
  507MOL0     C68363   4.594   5.422   5.726  0.5343 -0.5956 -0.7957
  507MOL0     C68364   4.141   5.458   5.705 -0.0740  0.3346 -0.0504
  507MOL0     C68365   4.061   5.367   5.642 -0.5130  1.2940 -0.7606
  507MOL0     C68366   3.923   5.389   5.645 -0.2128 -0.7346  0.2092
  507MOL0     C68367   3.866   5.515   5.686  0.0759 -0.1141 -0.1884
  507MOL0     O68368   3.728   5.548   5.683 -0.0917  0.2544 -0.0906
  507MOL0     C68369   3.628   5.453   5.663  0.8641  0.2361  0.1190
  507MOL0     C68370   3.502   5.534   5.639  0.1243 -0.6580 -0.2439
  507MOL0     C68371   3.388   5.460   5.564 -0.5353  0.2332 -0.4644
  507MOL0     C68372   3.327   5.336   5.630 -0.1858  0.1847 -0.4504
  507MOL0     C68373   3.221   5.277   5.546 -0.8665 -0.1126 -0.3309
  507MOL0     C68374   3.141   5.243   5.460 -1.3091 -0.0014  0.2118
  507MOL0     C68375   3.956   5.608   5.740 -0.0248  0.1498  0.1959
  507MOL0     C68376   4.092   5.573   5.761  0.5059 -1.0804  0.0519
  507MOL0     C68377   4.175   5.674   5.825  0.4851 -0.0262 -0.8119
  507MOL0     H68378   4.490   5.752   5.787 -1.7658 -1.1749  3.2654
  507MOL0     H68379   4.725   5.780   5.832  3.0082 -0.5661  0.0842
  507MOL0     H68380   4.950   5.770   5.821  0.7477 -0.2683 -0.8461
  507MOL0     H68381   4.929   5.710   5.986 -0.5013 -1.2580 -0.7735
  507MOL0     H68382   5.135   5.586   5.971 -0.2924  1.0683  0.9751
  507MOL0     H68383   5.165   5.759   5.943 -1.1244  0.7458  0.4104
  507MOL0     H68384   5.162   5.692   5.685  0.7148  0.8570  0.3624
  507MOL0     H68385   5.178   5.525   5.749  1.3298 -0.2424  0.2918
  507MOL0     H68386   5.378   5.746   5.731 -1.5230 -0.9813 -1.7507
  507MOL0     H68387   5.395   5.649   5.875 -1.1776  1.5368  0.7704
  507MOL0     H68388   5.423   5.437   5.746  0.7813  1.5433  2.6096
  507MOL0     H68389   5.383   5.540   5.597 -0.9154 -0.4762  0.4154
  507MOL0     H68390   5.588   5.673   5.644  2.8901  0.4998  1.1193
  507MOL0     H68391   5.625   5.583   5.793  0.6453 -1.8161  0.1908
  507MOL0     H68392   5.725   5.541   5.535  0.2611  1.0802  2.3582
  507MOL0     H68393   5.575   5.439   5.527  0.1237 -1.8493  0.4881
  507MOL0     H68394   5.678   5.322   5.740 -0.8898  0.3677 -0.4639
  507MOL0     H68395   5.743   5.286   5.582 -1.8398 -0.8764  0.4864
  507MOL0     H68396   5.811   5.496   5.895  1.9601  4.2038  1.1520
  507MOL0     H68397   6.155   5.620   5.889 -2.0770  2.5649  1.1350
  507MOL0     H68398   6.019   5.597   6.000 -0.1954 -0.7397  1.0497
  507MOL0     H68399   6.186   5.474   6.116 -4.8792 -1.2713  1.8495
  507MOL0     H68400   6.116   5.349   6.034 -0.3565  1.0671  0.7296
  507MOL0     H68401   6.289   5.364   5.830  3.2254 -2.0821 -0.0356
  507MOL0     H68402   6.338   5.299   5.981 -0.9475  0.2038  1.9575
  507MOL0     H68403   6.391   5.566   5.869  3.4979  0.2556 -1.4442
  507MOL0     H68404   6.511   5.431   5.912  0.1858 -0.3827  0.0905
  507MOL0     H68405   6.448   5.581   6.329 -0.4845  3.1116  1.1191
  507MOL0     H68406   6.646   5.635   6.435  2.4021  0.4337 -0.2561
  507MOL0     H68407   6.954   6.029   6.468  1.7426  0.4509 -1.1909
  507MOL0     H68408   7.150   6.129   6.540  2.7532 -0.3945 -1.1695
  507MOL0     H68409   7.493   5.921   6.763  0.6504  2.8563  1.2750
  507MOL0     H68410   7.497   5.882   6.589  1.7793  0.4450  0.1975
  507MOL0     H68411   7.546   6.117   6.534 -0.4895  3.6982  1.3904
  507MOL0     H68412   7.574   6.163   6.701  0.0158 -2.1275  1.6001
  507MOL0     H68413   7.756   6.024   6.749 -0.2656 -0.4529  0.2530
  507MOL0     H68414   7.746   5.957   6.578 -0.5261  0.6689 -0.3611
  507MOL0     H68415   7.767   6.258   6.620 -1.4780 -0.3762 -1.0072
  507MOL0     H68416   7.809   6.177   6.473  1.5183  0.3932  0.9402
  507MOL0     H68417   7.998   6.060   6.583  1.9940  0.0797  1.6416
  507MOL0     H68418   7.955   6.148   6.730 -2.4100  3.1504  0.1815
  507MOL0     H68419   7.941   6.364   6.595 -0.5313  0.1645 -1.1110
  507MOL0     H68420   8.105   6.307   6.650  1.1928 -0.3888 -1.0178
  507MOL0     H68421   8.024   6.368   6.374 -0.3512 -1.5175 -3.6883
  507MOL0     H68422   8.024   6.193   6.378 -0.7263  0.9944 -2.2175
  507MOL0     H68423   8.237   6.167   6.444 -0.2065 -0.6046 -2.7364
  507MOL0     H68424   8.237   6.277   6.312  0.0475  1.0502  0.4918
  507MOL0     H68425   7.325   5.755   6.645  1.1178  2.3327  2.5857
  507MOL0     H68426   7.134   5.634   6.572  2.1142  0.0709 -0.1149
  507MOL0     H68427   6.839   5.711   6.057 -0.4516 -1.2912 -0.9861
  507MOL0     H68428   6.645   5.641   5.951  1.4942 -0.9317  0.2635
  507MOL0     H68429   4.787   5.352   5.747 -0.1530 -0.3418 -0.8510
  507MOL0     H68430   4.557   5.329   5.684  0.3351 -0.5364 -0.7505
  507MOL0     H68431   4.106   5.273   5.611  0.6535  0.8696  1.9315
  507MOL0     H68432   3.859   5.308   5.610 -0.0466 -0.2616 -1.2521
  507MOL0     H68433   3.623   5.390   5.752  0.9320 -1.8193 -1.2493
  507MOL0     H68434   3.651   5.394   5.573 -0.3770 -0.1615  0.0350
  507MOL0     H68435   3.525   5.626   5.584  4.8417 -1.8633 -0.6749
  507MOL0     H68436   3.451   5.563   5.732 -3.7167  1.1319 -2.6605
  507MOL0     H68437   3.433   5.424   5.471 -1.0028  0.9912 -0.9993
  507MOL0     H68438   3.300   5.517   5.531 -1.2290 -1.5763 -1.9199
  507MOL0     H68439   3.396   5.259   5.666  0.7313  1.4348  0.5244
  507MOL0     H68440   3.290   5.378   5.724  2.0844 -1.5479  1.3475
  507MOL0     H68441   3.078   5.212   5.379  0.9130 -2.6470 -0.6874
  507MOL0     H68442   3.911   5.702   5.771 -1.9037 -0.4512 -0.5673
  507MOL0     H68443   4.239   5.627   5.900 -0.1633 -0.4328 -0.4980
  507MOL0     H68444   4.232   5.730   5.750  1.1373  3.1888  1.8642
  507MOL0     H68445   4.106   5.740   5.878  2.4694 -0.0553  1.9737
  508MOL0     O68446   2.254   5.003   4.083 -0.6642 -0.3945  0.2618
  508MOL0     C68447   2.293   5.094   4.016  0.0496 -0.5472 -0.2999
  508MOL0     O68448   2.217   5.204   3.993  0.2663  0.4869  0.1673
  508MOL0     C68449   2.118   5.239   4.080 -0.2679  0.0855  0.1074
  508MOL0     C68450   2.107   5.194   4.216 -0.4404 -0.3557 -0.8604
  508MOL0     C68451   1.988   5.224   4.289 -0.5616  0.3932  0.5046
  508MOL0     C68452   1.883   5.299   4.229  0.5390  0.0904  0.4922
  508MOL0     O68453   1.769   5.328   4.294 -0.1067  0.5211  0.6041
  508MOL0     C68454   1.773   5.330   4.439 -0.3566 -0.1793 -0.1836
  508MOL0     C68455   1.850   5.456   4.491  0.6466  0.0237  0.1417
  508MOL0     C68456   1.798   5.591   4.446  0.3473 -0.6738 -0.7725
  508MOL0     C68457   1.692   5.646   4.533  0.3001  0.3288 -0.5034
  508MOL0     C68458   1.674   5.799   4.517 -0.2303  0.2129  0.3626
  508MOL0     C68459   1.641   5.845   4.368  0.7459 -0.1815  0.4329
  508MOL0     C68460   1.517   5.775   4.309  1.3295  0.5084 -0.3992
  508MOL0     C68461   1.368   5.810   4.365 -0.3150  0.6250 -1.2264
  508MOL0     N68462   1.347   5.951   4.375 -0.5724  0.2756  0.9593
  508MOL0     C68463   1.355   6.046   4.280 -0.1492  1.1504  0.2586
  508MOL0     C68464   1.317   6.162   4.331 -0.6278 -0.6059  0.1015
  508MOL0     C68465   1.322   6.295   4.276 -0.7669  0.3180  0.5895
  508MOL0     C68466   1.451   6.369   4.275  0.0785 -0.7495  0.1464
  508MOL0     C68467   1.543   6.356   4.397  0.1313  0.5744 -0.3129
  508MOL0     C68468   1.675   6.441   4.382 -0.8089  0.1089 -0.0076
  508MOL0     O68469   1.776   6.387   4.286  0.2212  0.0356 -0.3176
  508MOL0     C68470   1.852   6.279   4.327  1.4059  0.1696 -0.9974
  508MOL0     C68471   1.901   6.202   4.217  1.5432 -0.3513  0.0393
  508MOL0     C68472   1.976   6.095   4.237  0.5283  0.2364 -0.1829
  508MOL0     C68473   2.011   6.052   4.372  0.2112 -0.0362 -0.2100
  508MOL0     C68474   2.089   5.930   4.387 -0.0804  0.6490 -0.5681
  508MOL0     O68475   2.151   5.882   4.272  0.4715 -0.1386 -0.4753
  508MOL0     C68476   2.248   5.787   4.287 -0.3608 -0.8632  0.3851
  508MOL0     C68477   2.219   5.656   4.282 -0.1295  0.1147 -0.3829
  508MOL0     C68478   2.319   5.560   4.289 -1.3229  0.5210 -0.0085
  508MOL0     C68479   2.452   5.599   4.306 -0.9608 -0.2075 -0.4055
  508MOL0     O68480   2.558   5.520   4.334 -0.3932  0.4989  1.1520
  508MOL0     C68481   2.543   5.381   4.350 -0.7221  0.2173 -0.5424
  508MOL0     C68482   2.539   5.317   4.221  0.0934 -0.0354 -0.3088
  508MOL0     C68483   2.676   5.335   4.152 -0.7370 -0.4732 -0.3569
  508MOL0     C68484   2.799   5.279   4.226  0.1815 -0.5508 -0.0843
  508MOL0     C68485   2.927   5.278   4.135 -0.2176 -0.4048 -0.8438
  508MOL0     C68486   3.055   5.223   4.210  0.5186 -0.0533  0.0248
  508MOL0     C68487   3.038   5.084   4.269 -0.4192  0.3491 -0.3592
  508MOL0     C68488   3.172   5.009   4.306  0.7572 -0.6129 -0.2090
  508MOL0    Cl68489   3.276   4.979   4.158  0.1734  0.0076 -0.2661
  508MOL0     C68490   2.486   5.735   4.297 -0.4823  0.4647  0.2834
  508MOL0     C68491   2.381   5.828   4.301 -0.5331  0.1545 -0.2551
  508MOL0     O68492   2.096   5.871   4.496 -0.6982 -1.0012  0.8680
  508MOL0     C68493   1.963   6.126   4.476 -0.5697 -0.5269  0.5746
  508MOL0     C68494   1.885   6.239   4.453  0.3734 -0.7284  0.1002
  508MOL0     N68495   1.292   6.138   4.463 -0.2707 -0.2477  1.4261
  508MOL0     N68496   1.309   6.019   4.485  0.4471  0.4367 -0.4797
  508MOL0     C68497   1.896   5.335   4.094  0.0714  0.0814 -0.2730
  508MOL0     C68498   2.020   5.319   4.027  0.3782 -0.0998  0.2654
  508MOL0     C68499   2.431   5.090   3.958  0.1428  0.8534  0.3383
  508MOL0     C68500   2.467   5.197   3.864  0.5659  0.4679 -0.8378
  508MOL0     C68501   2.589   5.212   3.803 -0.2265 -0.4787 -0.0030
  508MOL0     C68502   2.687   5.118   3.827 -0.1988 -0.8060 -0.6540
  508MOL0     O68503   2.821   5.130   3.778 -0.4101 -0.0936 -0.0469
  508MOL0     C68504   2.864   5.254   3.729  0.4286 -0.6093 -0.4596
  508MOL0     C68505   3.009   5.245   3.667  0.1584 -0.2838 -0.2953
  508MOL0     C68506   3.117   5.261   3.778  0.5561  0.7051  1.1970
  508MOL0     C68507   3.263   5.230   3.743  0.5240 -0.3203 -0.2385
  508MOL0     C68508   3.307   5.314   3.634 -0.9502 -0.1230 -0.4443
  508MOL0     C68509   3.351   5.376   3.542  0.6534  0.2552 -0.0082
  508MOL0     C68510   2.665   5.026   3.934  0.1725 -0.3801  0.5045
  508MOL0     C68511   2.538   5.002   3.984 -0.1779  0.2310 -1.0696
  508MOL0     C68512   2.519   4.874   4.073 -0.2587  0.3278  0.9836
  508MOL0     H68513   2.182   5.138   4.270 -0.3122  0.6149  0.0128
  508MOL0     H68514   1.988   5.192   4.393  0.6556  2.7063  1.2818
  508MOL0     H68515   1.669   5.349   4.467  0.0253  0.5311  0.7965
  508MOL0     H68516   1.809   5.238   4.486 -0.9588  0.1165  0.8923
  508MOL0     H68517   1.954   5.452   4.461 -0.1764  0.5826 -3.0905
  508MOL0     H68518   1.855   5.447   4.600 -0.5689  0.2169  0.2372
  508MOL0     H68519   1.761   5.591   4.343 -1.3561  1.9088 -0.2468
  508MOL0     H68520   1.880   5.663   4.434 -1.4191  1.1902 -2.3932
  508MOL0     H68521   1.589   5.612   4.522  0.1286  0.5944  0.1799
  508MOL0     H68522   1.721   5.621   4.636 -1.5116  2.1235  0.5210
  508MOL0     H68523   1.590   5.840   4.573 -2.1286 -2.5251 -0.2953
  508MOL0     H68524   1.767   5.851   4.544 -0.2776  2.2370 -2.7780
  508MOL0     H68525   1.622   5.952   4.355  1.3732 -0.2739 -1.7152
  508MOL0     H68526   1.720   5.828   4.295 -1.8288  1.4125 -3.0478
  508MOL0     H68527   1.529   5.666   4.309 -0.0643  0.2408  2.7468
  508MOL0     H68528   1.507   5.816   4.207 -0.8875 -1.1141 -0.9056
  508MOL0     H68529   1.302   5.760   4.293 -1.2078  1.0032 -0.6962
  508MOL0     H68530   1.360   5.765   4.464  0.0993 -2.1204 -2.3605
  508MOL0     H68531   1.387   6.027   4.178 -1.5369 -0.9478  0.1648
  508MOL0     H68532   1.286   6.281   4.174 -0.0229 -1.8629  0.5723
  508MOL0     H68533   1.253   6.359   4.331 -1.1978  0.3270  0.0405
  508MOL0     H68534   1.506   6.339   4.186  0.2757  1.4467 -0.5166
  508MOL0     H68535   1.431   6.477   4.271 -2.1984 -1.0747  1.1377
  508MOL0     H68536   1.566   6.252   4.423 -0.7055  0.5691  0.4702
  508MOL0     H68537   1.501   6.392   4.492  2.2171  2.3470 -0.0042
  508MOL0     H68538   1.717   6.444   4.483 -0.5065 -0.6498 -0.1035
  508MOL0     H68539   1.646   6.540   4.346 -1.3562  0.6897  1.9337
  508MOL0     H68540   1.880   6.231   4.114  0.4623 -1.3385 -0.0287
  508MOL0     H68541   2.001   6.035   4.150 -0.1814  0.4114 -0.5163
  508MOL0     H68542   2.116   5.625   4.271 -0.2661  0.6002 -0.4815
  508MOL0     H68543   2.296   5.454   4.285  0.1733  0.0997  1.5613
  508MOL0     H68544   2.628   5.335   4.402 -0.7320 -1.9256 -2.2740
  508MOL0     H68545   2.450   5.359   4.404 -0.5731  0.1886 -0.2938
  508MOL0     H68546   2.522   5.209   4.233 -1.0145  0.0981 -0.5102
  508MOL0     H68547   2.463   5.353   4.151 -1.3018  0.6721  1.4964
  508MOL0     H68548   2.678   5.274   4.062  0.7096 -1.6857  0.4408
  508MOL0     H68549   2.696   5.440   4.129 -1.4304 -0.4470 -0.8454
  508MOL0     H68550   2.772   5.177   4.252 -1.7810 -0.3346 -1.1172
  508MOL0     H68551   2.823   5.346   4.310  0.0437  0.4603 -0.8295
  508MOL0     H68552   2.948   5.377   4.092  1.4838 -0.2799  0.1656
  508MOL0     H68553   2.916   5.208   4.052 -4.4165  0.5390 -1.2861
  508MOL0     H68554   3.134   5.218   4.135  0.1955  3.4375 -0.7068
  508MOL0     H68555   3.088   5.286   4.293  0.0021  0.4320 -0.1378
  508MOL0     H68556   2.974   5.020   4.207  0.0854 -0.1530 -0.3798
  508MOL0     H68557   2.980   5.085   4.362  0.8855 -0.7865  0.5064
  508MOL0     H68558   3.224   5.068   4.381  1.0940 -0.1136 -0.8264
  508MOL0     H68559   3.164   4.912   4.358  2.2456 -1.0994 -0.8346
  508MOL0     H68560   2.592   5.757   4.308 -0.7022  1.0801  1.2395
  508MOL0     H68561   2.394   5.935   4.309 -2.0659  0.2451  1.8315
  508MOL0     H68562   1.953   6.089   4.577  1.6419 -3.3136 -0.0881
  508MOL0     H68563   1.844   6.288   4.540  0.2138 -1.0809  0.2263
  508MOL0     H68564   1.810   5.391   4.060  0.7378  0.0638 -2.0733
  508MOL0     H68565   2.030   5.360   3.928 -2.6326  0.3716  0.0725
  508MOL0     H68566   2.407   5.286   3.845  0.4569  0.5005 -0.3619
  508MOL0     H68567   2.596   5.308   3.752 -1.5226 -0.6930 -0.6331
  508MOL0     H68568   2.876   5.331   3.806 -0.6436 -0.5092 -0.3693
  508MOL0     H68569   2.791   5.292   3.656  0.8376 -1.5219 -1.3681
  508MOL0     H68570   3.020   5.320   3.588  0.2736 -0.7835 -0.7562
  508MOL0     H68571   3.018   5.143   3.629  0.4954  0.1933 -1.5516
  508MOL0     H68572   3.092   5.215   3.874 -1.7201  1.9466  1.2677
  508MOL0     H68573   3.122   5.364   3.815  1.1505  0.6467  1.2898
  508MOL0     H68574   3.326   5.254   3.829 -0.1410  2.0121 -0.3185
  508MOL0     H68575   3.278   5.122   3.732  1.3229 -0.4550  1.6702
  508MOL0     H68576   3.387   5.437   3.462 -1.7882  1.7116 -0.0866
  508MOL0     H68577   2.746   4.959   3.959  2.3434  2.2495  1.0090
  508MOL0     H68578   2.447   4.812   4.018 -0.8926  2.2555 -0.4887
  508MOL0     H68579   2.612   4.817   4.079  0.9157  1.6684 -2.2075
  508MOL0     H68580   2.477   4.903   4.170 -2.0645  1.5471 -0.1024
  509MOL0     O68581   5.993   9.709   3.192 -0.1194 -0.0298 -0.2186
  509MOL0     C68582   5.904   9.666   3.268 -0.6805 -0.2904 -0.6463
  509MOL0     O68583   5.917   9.557   3.349  0.1457  0.0647  0.4621
  509MOL0     C68584   6.035   9.486   3.345  1.0289  0.2365  0.8099
  509MOL0     C68585   6.097   9.459   3.460  0.4899 -0.9866  0.1172
  509MOL0     C68586   6.227   9.410   3.456  0.0842  0.7398  0.7235
  509MOL0     C68587   6.276   9.350   3.333 -1.0656 -0.6156 -0.7541
  509MOL0     O68588   6.394   9.282   3.319 -0.1251  0.5770 -0.4317
  509MOL0     C68589   6.491   9.273   3.430  0.1864 -0.2481  0.7820
  509MOL0     C68590   6.602   9.188   3.385 -0.6481 -0.1917 -0.2157
  509MOL0     C68591   6.713   9.185   3.502 -1.0625 -0.4433 -0.2287
  509MOL0     C68592   6.824   9.074   3.481 -0.0960 -0.2294  0.1371
  509MOL0     C68593   6.951   9.137   3.428  0.0770 -0.0474 -0.9499
  509MOL0     C68594   7.055   9.034   3.382  0.9824 -0.1172 -0.2971
  509MOL0     C68595   7.128   8.952   3.487 -0.6015 -0.4575 -0.4160
  509MOL0     C68596   7.233   8.851   3.435 -0.1265 -0.3610  0.5353
  509MOL0     N68597   7.357   8.914   3.391  0.1157  0.1507  0.4009
  509MOL0     C68598   7.440   8.993   3.472 -1.1445 -0.2689  0.0476
  509MOL0     C68599   7.528   9.054   3.393 -0.6536  0.1392 -0.1270
  509MOL0     C68600   7.642   9.141   3.438  0.6394  0.4811  0.8665
  509MOL0     C68601   7.712   9.187   3.307  0.1982  0.3541  0.2876
  509MOL0     C68602   7.838   9.276   3.328 -0.6355 -0.8712  0.2711
  509MOL0     C68603   7.967   9.193   3.328  0.4709  0.1792  0.5425
  509MOL0     O68604   8.083   9.275   3.352 -0.0159 -0.2942 -0.1490
  509MOL0     C68605   8.193   9.250   3.276 -0.4898  0.2943 -0.0431
  509MOL0     C68606   8.247   9.353   3.204 -0.4825 -0.2861  0.0524
  509MOL0     C68607   8.359   9.333   3.116  0.3286  0.0100 -0.4623
  509MOL0     C68608   8.426   9.205   3.133 -0.2446 -1.0783 -0.4565
  509MOL0     C68609   8.557   9.187   3.070 -0.8413 -0.5314  0.0836
  509MOL0     O68610   8.607   9.269   2.970 -0.1282 -0.1014 -0.2543
  509MOL0     C68611   8.704   9.214   2.889  0.0864  0.6472  0.4731
  509MOL0     C68612   8.832   9.248   2.912  0.1473 -0.1018 -0.4785
  509MOL0     C68613   8.932   9.204   2.816  0.4898 -0.6437 -0.8247
  509MOL0     C68614   8.895   9.123   2.709  0.7467 -0.6767  1.1384
  509MOL0     O68615   8.980   9.086   2.613 -0.5422 -0.0961 -0.2090
  509MOL0     C68616   9.061   8.981   2.645 -0.3714  0.2416 -0.1154
  509MOL0     C68617   9.174   8.963   2.541 -1.1393  0.3989  0.6059
  509MOL0     C68618   9.256   9.089   2.538 -0.2032 -0.4739  0.1718
  509MOL0     C68619   9.405   9.073   2.498 -0.2773 -0.5754  0.0623
  509MOL0     C68620   9.484   9.203   2.517  0.5064  0.5116  0.0920
  509MOL0     C68621   9.635   9.189   2.491  0.3317  0.8182 -0.0911
  509MOL0     C68622   9.713   9.307   2.544  0.0067  0.8062 -0.5335
  509MOL0     C68623   9.860   9.276   2.551  0.2875  0.6896  0.0891
  509MOL0    Cl68624   9.945   9.431   2.595 -0.6313 -0.2282 -0.1166
  509MOL0     C68625   8.759   9.085   2.689 -0.4171 -0.7244  0.4596
  509MOL0     C68626   8.663   9.129   2.780 -0.3271 -0.1546 -0.4954
  509MOL0     O68627   8.628   9.096   3.110  1.1399  0.5009 -0.2455
  509MOL0     C68628   8.369   9.104   3.210  0.4533  0.7644 -0.1721
  509MOL0     C68629   8.254   9.124   3.278  0.3910  0.4395  0.1175
  509MOL0     N68630   7.510   8.997   3.269 -0.5239 -0.5733 -0.0156
  509MOL0     N68631   7.406   8.914   3.263  0.1748 -0.3898 -0.3860
  509MOL0     C68632   6.213   9.374   3.218  0.0735  0.4355 -0.1138
  509MOL0     C68633   6.089   9.439   3.223  0.0613  0.6588  0.4159
  509MOL0     C68634   5.770   9.739   3.263  1.0815 -0.4189  0.1129
  509MOL0     C68635   5.675   9.714   3.375  0.3794  1.5952 -0.4144
  509MOL0     C68636   5.552   9.778   3.361  0.2489  1.1880 -0.7404
  509MOL0     C68637   5.533   9.874   3.263 -0.3341 -0.3889 -0.2309
  509MOL0     O68638   5.412   9.936   3.269 -0.2208  0.0432  0.4397
  509MOL0     C68639   5.378  10.042   3.180 -0.5632  0.6097  0.4505
  509MOL0     C68640   5.261  10.107   3.251 -0.0353 -1.1744 -0.9062
  509MOL0     C68641   5.140  10.017   3.245 -0.7101  0.4194 -0.0860
  509MOL0     C68642   5.007  10.084   3.260  0.2162  0.0410  0.5080
  509MOL0     C68643   4.895   9.995   3.233  0.1719  0.1972  0.7379
  509MOL0     C68644   4.791   9.924   3.197  0.1316  0.1107 -0.6492
  509MOL0     C68645   5.620   9.896   3.161  0.2205  0.0333  0.4021
  509MOL0     C68646   5.739   9.824   3.150 -0.3687  1.2108 -0.4923
  509MOL0     C68647   5.832   9.858   3.033  0.0712  0.2073  0.5472
  509MOL0     H68648   6.058   9.489   3.556 -0.4457 -0.2781 -0.4642
  509MOL0     H68649   6.291   9.392   3.542 -1.1134 -3.4014  0.9769
  509MOL0     H68650   6.527   9.370   3.467  0.7669 -0.0406 -0.2837
  509MOL0     H68651   6.440   9.207   3.500 -1.8055  0.4414  0.0724
  509MOL0     H68652   6.627   9.231   3.288  3.2169 -0.4492  0.5078
  509MOL0     H68653   6.576   9.083   3.369  3.1990 -0.9421 -2.7452
  509MOL0     H68654   6.671   9.164   3.601  1.6444 -0.3575  1.0162
  509MOL0     H68655   6.764   9.282   3.505 -1.6827 -0.1057 -0.4489
  509MOL0     H68656   6.836   9.021   3.576  0.3160 -0.5900 -0.1162
  509MOL0     H68657   6.781   9.015   3.400  1.0708  0.7168 -1.2135
  509MOL0     H68658   6.931   9.208   3.347  1.4866 -0.3503 -1.5933
  509MOL0     H68659   6.995   9.201   3.506 -1.5528  0.6514 -0.5540
  509MOL0     H68660   7.015   8.952   3.321  1.6270 -0.8803  0.2860
  509MOL0     H68661   7.132   9.092   3.331  0.2775 -0.5313 -1.9185
  509MOL0     H68662   7.056   8.898   3.549 -2.0680 -0.8365 -2.3263
  509MOL0     H68663   7.175   9.021   3.557 -1.4079  0.8274 -1.0829
  509MOL0     H68664   7.260   8.799   3.527 -2.4014  1.8033  2.5668
  509MOL0     H68665   7.199   8.791   3.351  2.3307 -2.2959  0.8130
  509MOL0     H68666   7.444   9.004   3.580 -1.5118 -1.7503  0.2303
  509MOL0     H68667   7.614   9.228   3.498  1.4270  0.6189  1.0582
  509MOL0     H68668   7.717   9.093   3.502  0.9496 -0.3742 -0.1160
  509MOL0     H68669   7.731   9.106   3.235 -0.1463  0.5648 -0.0475
  509MOL0     H68670   7.638   9.261   3.275 -1.7146 -0.5257  2.3489
  509MOL0     H68671   7.837   9.330   3.423  3.8266 -1.5632  0.9331
  509MOL0     H68672   7.845   9.354   3.251  2.1609 -1.3350 -0.0604
  509MOL0     H68673   7.964   9.139   3.233  0.8833 -1.2124  1.2870
  509MOL0     H68674   7.956   9.123   3.411  0.9970 -1.6895 -0.8751
  509MOL0     H68675   8.195   9.446   3.225 -0.4670 -0.2654 -0.0047
  509MOL0     H68676   8.390   9.411   3.047  1.2688  0.4694  0.4342
  509MOL0     H68677   8.857   9.321   2.988 -0.3669 -1.0718  0.6575
  509MOL0     H68678   9.039   9.210   2.834  0.4863  0.8225 -1.2164
  509MOL0     H68679   9.109   9.018   2.737 -0.0361  3.2338 -1.3647
  509MOL0     H68680   8.995   8.898   2.671 -1.3292  0.9051 -0.3891
  509MOL0     H68681   9.230   8.873   2.566  0.6584  1.1309 -0.5963
  509MOL0     H68682   9.131   8.948   2.441  0.2402  3.2806 -0.5331
  509MOL0     H68683   9.214   9.166   2.472  0.3407 -1.0207 -0.8255
  509MOL0     H68684   9.251   9.123   2.642 -0.0957 -2.1196  0.7471
  509MOL0     H68685   9.421   9.047   2.393  0.7480  0.2524 -0.0024
  509MOL0     H68686   9.437   8.997   2.570 -0.9262  0.7505  1.8363
  509MOL0     H68687   9.467   9.233   2.621  2.0083  0.9346  0.2421
  509MOL0     H68688   9.447   9.286   2.456 -1.4231 -0.4058 -0.0545
  509MOL0     H68689   9.682   9.105   2.541 -1.0646  0.6382  0.9717
  509MOL0     H68690   9.657   9.164   2.386  0.4611  0.9631 -0.0986
  509MOL0     H68691   9.681   9.320   2.648  2.1620  0.5151  0.2122
  509MOL0     H68692   9.696   9.395   2.480  1.2996  1.3726 -0.1230
  509MOL0     H68693   9.901   9.204   2.622  1.0423 -0.9507 -1.9131
  509MOL0     H68694   9.892   9.248   2.450 -1.7444 -0.6017 -0.2735
  509MOL0     H68695   8.737   9.024   2.602  2.9630  1.4897 -2.2386
  509MOL0     H68696   8.559   9.099   2.776 -0.6035  0.3686  1.6806
  509MOL0     H68697   8.415   9.005   3.215  0.9382  1.0321  0.9005
  509MOL0     H68698   8.218   9.052   3.352  1.0146  1.2904  1.2897
  509MOL0     H68699   6.247   9.335   3.123  1.1744 -3.7580  1.7965
  509MOL0     H68700   6.021   9.444   3.138  0.0596  0.6351  0.4158
  509MOL0     H68701   5.671   9.634   3.448 -0.2757  0.1637 -1.9616
  509MOL0     H68702   5.488   9.756   3.446 -0.5541  1.4279 -1.2658
  509MOL0     H68703   5.361  10.016   3.075 -0.8997  3.5071 -0.2851
  509MOL0     H68704   5.455  10.117   3.160  0.2431 -1.1103 -4.0595
  509MOL0     H68705   5.240  10.207   3.213 -0.5588 -1.1366 -0.5297
  509MOL0     H68706   5.280  10.127   3.357 -1.2514  3.8809 -1.3929
  509MOL0     H68707   5.142   9.926   3.306 -2.7000 -0.5139 -1.3115
  509MOL0     H68708   5.149   9.983   3.141 -0.0382 -0.2946  0.1956
  509MOL0     H68709   4.999  10.122   3.363  1.9082  1.0133  0.3116
  509MOL0     H68710   5.007  10.182   3.210  0.5205  0.6187  1.5933
  509MOL0     H68711   4.695   9.879   3.176  0.6498 -0.9210 -0.8600
  509MOL0     H68712   5.578   9.955   3.080 -3.7791 -0.2132  2.0507
  509MOL0     H68713   5.873   9.773   2.977 -0.2093 -0.4463  1.3122
  509MOL0     H68714   5.784   9.904   2.947  3.2114  1.9102 -0.4605
  509MOL0     H68715   5.911   9.924   3.070  0.0787  0.4456  0.1085
  510MOL0     O68716   6.839  10.035   6.880 -0.0819  0.0584  0.3010
  510MOL0     C68717   6.817  10.132   6.953  0.4876  0.2799 -0.6897
  510MOL0     O68718   6.911  10.185   7.046  0.0578  0.4892 -0.2348
  510MOL0     C68719   7.050  10.177   7.035  0.1041 -0.5243 -0.0324
  510MOL0     C68720   7.105  10.160   6.905 -0.0568 -0.1512 -0.4650
  510MOL0     C68721   7.239  10.128   6.889 -0.1265 -0.5584  0.5760
  510MOL0     C68722   7.321  10.106   7.007  0.0140  0.8291  0.0761
  510MOL0     O68723   7.444  10.050   7.001  0.4505 -0.3284 -0.4130
  510MOL0     C68724   7.511  10.026   6.878 -0.8467  0.4557 -0.5158
  510MOL0     C68725   7.660   9.985   6.890 -0.2186 -1.2186  0.9164
  510MOL0     C68726   7.688   9.835   6.941  0.7372  0.6186  0.0091
  510MOL0     C68727   7.803   9.767   6.860  0.7847 -0.3080  0.3307
  510MOL0     C68728   7.936   9.791   6.932  0.1753  1.0442 -0.4759
  510MOL0     C68729   8.044   9.736   6.837  0.5896 -0.4458  0.2518
  510MOL0     C68730   8.179   9.720   6.917  0.0909  0.9561  0.1026
  510MOL0     C68731   8.181   9.589   7.008  0.7819  0.3503  0.1604
  510MOL0     N68732   8.256   9.611   7.131  0.2785  0.0146 -0.3544
  510MOL0     C68733   8.380   9.654   7.140  0.0169 -0.3749  0.6672
  510MOL0     C68734   8.402   9.677   7.273 -0.3657  0.0990  0.1597
  510MOL0     C68735   8.521   9.721   7.341  0.0019 -0.2398 -0.3520
  510MOL0     C68736   8.636   9.761   7.240  0.3371  0.4723  0.7058
  510MOL0     C68737   8.628   9.911   7.196 -0.5272  0.2712 -0.1103
  510MOL0     C68738   8.749   9.969   7.129 -0.7050  0.3641 -0.2667
  510MOL0     O68739   8.842   9.994   7.237 -0.2359 -0.1584 -0.1725
  510MOL0     C68740   8.975  10.009   7.199 -0.4115 -0.5829 -0.5504
  510MOL0     C68741   9.064   9.973   7.296 -0.6512 -1.2663  0.4969
  510MOL0     C68742   9.203   9.980   7.275  0.0766  0.5471 -0.3599
  510MOL0     C68743   9.258  10.020   7.150  0.7867 -0.2422  0.9361
  510MOL0     C68744   9.398  10.009   7.120 -0.1206  0.5657 -0.2433
  510MOL0     O68745   9.480   9.961   7.219 -0.1047  0.4394  0.1739
  510MOL0     C68746   9.616   9.950   7.203 -0.4206 -0.4460 -0.3528
  510MOL0     C68747   9.695  10.044   7.281  1.4679  1.1025  0.7574
  510MOL0     C68748   9.827  10.055   7.243  0.0849  0.4197 -0.3245
  510MOL0     C68749   9.886   9.993   7.132 -0.0935 -0.3319  0.4408
  510MOL0     O68750  10.012  10.038   7.096 -0.4548  0.4599 -1.6043
  510MOL0     C68751  10.095   9.945   7.019 -0.2559 -0.2803  0.6632
  510MOL0     C68752  10.214  10.018   6.960  0.4793  0.5679 -0.0065
  510MOL0     C68753  10.301  10.083   7.063 -0.2290  0.1127 -0.0253
  510MOL0     C68754  10.396  10.182   7.008  0.0036  0.4780  1.6253
  510MOL0     C68755  10.514  10.235   7.087 -0.6120 -0.2153 -0.9417
  510MOL0     C68756  10.570  10.364   7.019  0.1318 -0.9064 -0.7238
  510MOL0     C68757  10.686  10.432   7.100  0.3337 -0.2108  0.3992
  510MOL0     C68758  10.702  10.578   7.048  0.0897  0.7168  0.5130
  510MOL0    Cl68759  10.875  10.604   7.025 -0.5394 -0.0063 -0.1948
  510MOL0     C68760   9.804   9.896   7.063 -0.1593  0.8545  0.4414
  510MOL0     C68761   9.668   9.878   7.099 -0.0328 -0.0571 -0.6336
  510MOL0     O68762   9.436  10.043   7.008  0.3447  0.1111  0.5680
  510MOL0     C68763   9.163  10.059   7.050  0.2744 -0.0573  0.4278
  510MOL0     C68764   9.021  10.052   7.072  0.1164 -0.6298  0.3824
  510MOL0     N68765   8.284   9.659   7.336  0.0487 -0.1826  0.5971
  510MOL0     N68766   8.195   9.608   7.253  0.2924  0.3918  0.3634
  510MOL0     C68767   7.265  10.139   7.139 -0.1233  0.0480  0.4681
  510MOL0     C68768   7.136  10.185   7.150  0.6480 -0.6130  0.6327
  510MOL0     C68769   6.679  10.194   6.950 -0.2937 -0.5635 -0.0310
  510MOL0     C68770   6.575  10.122   6.887 -0.5507 -0.1960 -0.3986
  510MOL0     C68771   6.443  10.158   6.906  0.1315 -0.0363  0.6949
  510MOL0     C68772   6.414  10.287   6.956  0.3482 -0.0516 -0.3719
  510MOL0     O68773   6.286  10.333   6.955  0.2620 -0.1500 -0.3052
  510MOL0     C68774   6.182  10.262   6.902 -0.0756  0.6684  0.7841
  510MOL0     C68775   6.048  10.339   6.917  0.2968 -0.0569 -0.5920
  510MOL0     C68776   6.045  10.476   6.848  0.1872 -0.1359 -0.2039
  510MOL0     C68777   5.937  10.571   6.900  0.4693 -0.7361  0.1222
  510MOL0     C68778   5.928  10.695   6.822 -0.7544  1.0041  0.9671
  510MOL0     C68779   5.906  10.783   6.741  0.5095  0.4384  0.6794
  510MOL0     C68780   6.522  10.375   6.998  0.5861  0.7289 -0.4171
  510MOL0     C68781   6.648  10.323   7.006 -0.2888  0.5895  0.5441
  510MOL0     C68782   6.753  10.424   7.065 -0.3060  0.2408 -0.3044
  510MOL0     H68783   7.043  10.170   6.816  0.1845  0.1558 -0.6018
  510MOL0     H68784   7.273  10.112   6.787 -0.0636 -1.2691  0.6967
  510MOL0     H68785   7.467   9.949   6.813  1.2611 -1.6273  0.3904
  510MOL0     H68786   7.512  10.120   6.823  1.1944 -0.0771 -1.4788
  510MOL0     H68787   7.694  10.076   6.940 -3.0699  0.1871  0.4761
  510MOL0     H68788   7.711   9.990   6.793  0.4202  1.4036  1.3062
  510MOL0     H68789   7.604   9.764   6.936 -1.5846  3.0242  1.8506
  510MOL0     H68790   7.712   9.847   7.047  2.2915  1.6792 -0.4375
  510MOL0     H68791   7.786   9.660   6.845  3.4696 -0.8877  0.8542
  510MOL0     H68792   7.812   9.809   6.760 -1.6820  3.8417  1.6091
  510MOL0     H68793   7.947   9.897   6.958  0.4614  0.7136  0.8342
  510MOL0     H68794   7.928   9.732   7.024  3.1910 -0.8855 -1.3170
  510MOL0     H68795   7.999   9.645   6.798 -0.7983  1.3153 -2.6481
  510MOL0     H68796   8.058   9.809   6.756 -3.3430  1.0605  0.6956
  510MOL0     H68797   8.200   9.813   6.971  1.5184  2.6242 -3.0230
  510MOL0     H68798   8.264   9.717   6.848 -0.0106 -0.2361  0.0075
  510MOL0     H68799   8.080   9.552   7.029  1.1554  0.7119  2.9817
  510MOL0     H68800   8.235   9.513   6.951 -1.3953 -0.9552 -0.2933
  510MOL0     H68801   8.452   9.682   7.063  0.2287  3.4087  2.0081
  510MOL0     H68802   8.498   9.807   7.405 -0.5151 -0.6183 -0.0214
  510MOL0     H68803   8.562   9.638   7.399 -0.6217 -0.4990 -0.2743
  510MOL0     H68804   8.721   9.741   7.306  0.5495  1.2946  0.7014
  510MOL0     H68805   8.625   9.694   7.154  0.0749 -1.9823  2.5768
  510MOL0     H68806   8.608   9.965   7.289  0.4920 -2.5983  1.9196
  510MOL0     H68807   8.535   9.934   7.142 -1.5100  1.5012  1.9543
  510MOL0     H68808   8.734  10.054   7.062 -0.2712  0.3508 -0.3784
  510MOL0     H68809   8.783   9.888   7.064 -4.4897  0.4992 -2.6944
  510MOL0     H68810   9.028   9.941   7.394  0.8075 -0.4335  1.3494
  510MOL0     H68811   9.275   9.965   7.354 -0.7527  0.5770  0.4149
  510MOL0     H68812   9.651  10.113   7.353  2.9817  2.5312  0.3787
  510MOL0     H68813   9.893  10.124   7.294  0.8475  0.4553 -1.3400
  510MOL0     H68814  10.143   9.874   7.087 -0.8864 -1.6072 -0.2325
  510MOL0     H68815  10.028   9.891   6.951 -0.1298  1.5210 -0.9633
  510MOL0     H68816  10.266   9.942   6.900 -1.0016  1.0038 -1.9188
  510MOL0     H68817  10.188  10.101   6.894  0.1348  0.7739  0.3861
  510MOL0     H68818  10.246  10.110   7.153 -0.5716 -2.1256  0.5063
  510MOL0     H68819  10.364   9.997   7.091 -1.4673 -2.1934 -3.5546
  510MOL0     H68820  10.336  10.266   6.972 -0.2819 -1.0655 -1.8519
  510MOL0     H68821  10.439  10.142   6.916  0.4248  1.2514  1.4759
  510MOL0     H68822  10.593  10.159   7.093  0.1683  0.6093  4.7404
  510MOL0     H68823  10.487  10.248   7.192 -1.3125 -0.1518 -1.1237
  510MOL0     H68824  10.596  10.344   6.915  1.9917  0.4664 -0.5700
  510MOL0     H68825  10.489  10.436   7.028  0.5057 -0.6773  1.8673
  510MOL0     H68826  10.778  10.379   7.076  1.1505  0.2859  2.2323
  510MOL0     H68827  10.663  10.429   7.207 -3.2857 -1.7059 -0.2842
  510MOL0     H68828  10.657  10.591   6.949 -1.7179 -0.6689  1.0988
  510MOL0     H68829  10.661  10.652   7.118  2.7371  0.1641  2.8307
  510MOL0     H68830   9.829   9.838   6.975  0.1921  1.2902  0.2529
  510MOL0     H68831   9.604   9.801   7.059  1.2427 -2.6341  1.9389
  510MOL0     H68832   9.181  10.073   6.943  1.4378  0.0831  0.6257
  510MOL0     H68833   8.944  10.084   7.003 -2.1599 -1.1729  2.5331
  510MOL0     H68834   7.340  10.114   7.213  2.2876  0.9953 -1.5067
  510MOL0     H68835   7.081  10.189   7.243 -0.8470 -2.5056 -0.0907
  510MOL0     H68836   6.578  10.026   6.835 -3.0404  0.7939 -2.6102
  510MOL0     H68837   6.365  10.102   6.855 -1.7593  2.7446  0.3483
  510MOL0     H68838   6.174  10.164   6.951 -2.0489  0.2513 -0.2847
  510MOL0     H68839   6.197  10.238   6.796 -1.2144  0.9202  0.5553
  510MOL0     H68840   6.024  10.343   7.024  0.4220  0.2909 -0.5758
  510MOL0     H68841   5.971  10.280   6.866  0.6513 -0.3179 -0.8344
  510MOL0     H68842   6.025  10.462   6.741  0.3433 -1.3323 -0.0839
  510MOL0     H68843   6.141  10.528   6.858  0.3826 -0.7862  1.6722
  510MOL0     H68844   5.840  10.520   6.904 -0.3479  0.8257  2.0751
  510MOL0     H68845   5.950  10.607   7.003 -1.0475  1.5011 -0.3906
  510MOL0     H68846   5.884  10.865   6.676  3.4946  1.2370  0.5083
  510MOL0     H68847   6.502  10.479   7.022  0.0315  0.2107  1.6094
  510MOL0     H68848   6.797  10.384   7.157  0.5635  2.4391  0.2954
  510MOL0     H68849   6.829  10.440   6.989 -0.1270  0.4192 -0.0887
  510MOL0     H68850   6.710  10.521   7.093  1.0562  1.1977 -1.3989
  511MOL0     O68851   6.567   9.366   8.463 -0.2769 -0.4286 -0.1676
  511MOL0     C68852   6.546   9.481   8.484 -0.3341  0.5531 -0.1300
  511MOL0     O68853   6.639   9.571   8.513  0.0570  0.3492  0.0697
  511MOL0     C68854   6.772   9.542   8.505  0.3607  0.5451 -0.4144
  511MOL0     C68855   6.845   9.486   8.398  0.1567  0.5534 -0.3010
  511MOL0     C68856   6.978   9.486   8.385 -0.6099  0.3153 -0.4541
  511MOL0     C68857   7.060   9.549   8.488 -0.8952 -0.4925  0.9782
  511MOL0     O68858   7.195   9.559   8.477 -0.7161  0.3383  0.0446
  511MOL0     C68859   7.251   9.485   8.366  0.8770 -0.1988 -0.8788
  511MOL0     C68860   7.400   9.482   8.379 -0.0659 -0.7133  0.8934
  511MOL0     C68861   7.463   9.616   8.361  0.4390 -0.1705  0.4268
  511MOL0     C68862   7.615   9.608   8.328  0.4009 -0.4481 -0.1967
  511MOL0     C68863   7.684   9.750   8.329  0.0419 -0.6826  0.3938
  511MOL0     C68864   7.830   9.745   8.285 -0.0848 -0.3385 -0.0260
  511MOL0     C68865   7.884   9.888   8.276 -0.6952  0.4857  0.4828
  511MOL0     C68866   8.033   9.867   8.250  0.5585 -0.0985 -0.4132
  511MOL0     N68867   8.049   9.846   8.110  0.3758  0.2042 -0.8038
  511MOL0     C68868   8.024   9.930   8.011  0.0632 -0.5114 -0.2074
  511MOL0     C68869   8.043   9.866   7.898 -0.4471 -0.0056 -0.4682
  511MOL0     C68870   8.045   9.924   7.756 -0.0025 -0.1936 -0.4084
  511MOL0     C68871   8.171   9.857   7.683  0.2190  0.2662 -0.3005
  511MOL0     C68872   8.305   9.896   7.740 -0.0632 -0.1362  0.3299
  511MOL0     C68873   8.415   9.792   7.724 -0.0957 -0.4670 -0.5061
  511MOL0     O68874   8.533   9.863   7.738 -0.1593  0.2746 -1.2652
  511MOL0     C68875   8.639   9.793   7.685 -0.1688  0.0177  0.4622
  511MOL0     C68876   8.654   9.652   7.686 -0.2152  0.1527  0.0475
  511MOL0     C68877   8.774   9.583   7.668 -0.5869 -0.1231  0.7760
  511MOL0     C68878   8.882   9.658   7.618 -0.2117 -0.3749  0.0893
  511MOL0     C68879   9.010   9.593   7.583 -0.3290 -0.6609  0.5550
  511MOL0     O68880   9.094   9.667   7.504 -0.8383 -0.3680 -0.7353
  511MOL0     C68881   9.217   9.623   7.463 -0.4117  0.7309 -0.3588
  511MOL0     C68882   9.272   9.656   7.340  0.2885  0.0371 -0.0543
  511MOL0     C68883   9.401   9.615   7.307 -0.0237 -1.2013 -0.6648
  511MOL0     C68884   9.479   9.538   7.391 -0.2472 -0.5832  0.4060
  511MOL0     O68885   9.604   9.503   7.359 -0.1723  1.2167 -0.4285
  511MOL0     C68886   9.690   9.612   7.308 -0.1035 -0.1362 -0.5551
  511MOL0     C68887   9.828   9.584   7.349 -0.3501  0.0396  0.0222
  511MOL0     C68888   9.931   9.690   7.308  0.8912 -0.8207  0.3253
  511MOL0     C68889  10.050   9.697   7.401  0.3665  0.8441 -0.1487
  511MOL0     C68890  10.154   9.804   7.367  0.6195  1.3316  0.5152
  511MOL0     C68891  10.263   9.791   7.469 -0.1398 -0.5475  0.3707
  511MOL0     C68892  10.372   9.901   7.442 -1.0193  0.0638 -0.0288
  511MOL0     C68893  10.322  10.040   7.468  0.2045 -0.2937 -0.1958
  511MOL0    Cl68894  10.449  10.159   7.442  0.2536  0.1032  0.1735
  511MOL0     C68895   9.431   9.499   7.515  0.2813 -0.8069  0.1789
  511MOL0     C68896   9.303   9.549   7.548  0.7281 -0.1012 -0.3589
  511MOL0     O68897   9.021   9.471   7.610  0.0737 -0.3902 -0.9561
  511MOL0     C68898   8.872   9.803   7.612 -0.2351 -0.0130  0.4232
  511MOL0     C68899   8.753   9.868   7.650 -0.1210 -0.3277  0.4015
  511MOL0     N68900   8.092   9.733   7.933  0.9606 -0.3650  0.7581
  511MOL0     N68901   8.095   9.727   8.057  0.2331 -0.5126  0.4129
  511MOL0     C68902   6.986   9.603   8.595  0.0361 -0.0027 -0.3593
  511MOL0     C68903   6.849   9.596   8.603 -0.4683  0.5454  0.1461
  511MOL0     C68904   6.402   9.519   8.502 -0.5218  0.3454 -0.2041
  511MOL0     C68905   6.367   9.648   8.555 -0.5810 -0.1473 -0.4593
  511MOL0     C68906   6.237   9.678   8.584 -0.0762 -0.4097 -0.1436
  511MOL0     C68907   6.135   9.597   8.545  0.1106  0.1256  0.2237
  511MOL0     O68908   6.009   9.645   8.560  0.0998  0.4792  0.0168
  511MOL0     C68909   5.901   9.546   8.558 -0.5505  0.1563  0.0949
  511MOL0     C68910   5.766   9.618   8.538 -0.1965 -0.6753  0.7850
  511MOL0     C68911   5.700   9.659   8.665  0.4538  0.0370  0.5191
  511MOL0     C68912   5.618   9.544   8.726 -0.8100  0.1671  0.7528
  511MOL0     C68913   5.520   9.483   8.640  0.6328  0.2990 -0.0979
  511MOL0     C68914   5.434   9.441   8.565  0.9485  0.4708 -0.1049
  511MOL0     C68915   6.167   9.469   8.487  0.7413 -0.5215 -0.3097
  511MOL0     C68916   6.297   9.424   8.475 -0.2797 -0.6760  0.5725
  511MOL0     C68917   6.310   9.294   8.413  0.7159  0.1042 -0.0401
  511MOL0     H68918   6.789   9.424   8.330 -1.5346 -0.5936  2.0047
  511MOL0     H68919   7.027   9.446   8.297 -0.2310  0.8535 -0.4945
  511MOL0     H68920   7.220   9.380   8.365  2.7709 -0.8152 -0.5159
  511MOL0     H68921   7.222   9.531   8.272 -0.6358 -0.0616 -0.3595
  511MOL0     H68922   7.431   9.415   8.298 -1.8273  2.0014 -2.3444
  511MOL0     H68923   7.438   9.435   8.469  1.9757 -3.0728 -1.0463
  511MOL0     H68924   7.441   9.688   8.441 -0.1060  0.3282 -0.1641
  511MOL0     H68925   7.407   9.656   8.276 -0.9543 -0.0303  1.3735
  511MOL0     H68926   7.665   9.547   8.402  1.1427  0.2313 -0.1234
  511MOL0     H68927   7.643   9.562   8.233 -0.1643 -2.7389  0.6962
  511MOL0     H68928   7.636   9.819   8.259 -0.1082  1.4784  2.5064
  511MOL0     H68929   7.678   9.797   8.428  0.1463 -1.0227  0.5628
  511MOL0     H68930   7.887   9.687   8.357  0.8494  2.5050  1.7196
  511MOL0     H68931   7.830   9.695   8.188 -1.5631 -2.1817  0.8738
  511MOL0     H68932   7.882   9.939   8.373  0.2316  1.4227  0.0256
  511MOL0     H68933   7.829   9.948   8.203  0.1158  2.3022  1.3075
  511MOL0     H68934   8.081   9.961   8.279 -0.5544  0.9495 -1.8161
  511MOL0     H68935   8.072   9.786   8.312 -0.0555  0.7016  1.0632
  511MOL0     H68936   7.995  10.034   8.021 -2.3533 -0.9291 -1.8922
  511MOL0     H68937   7.956   9.885   7.706 -2.3668  0.2712  3.1130
  511MOL0     H68938   8.038  10.033   7.753  0.7012  0.0904  3.3204
  511MOL0     H68939   8.166   9.750   7.705 -0.4145  0.2260 -0.6440
  511MOL0     H68940   8.171   9.881   7.577  1.1238 -2.6846 -1.0608
  511MOL0     H68941   8.303   9.935   7.843 -1.7057 -1.3416  0.7923
  511MOL0     H68942   8.330   9.985   7.682 -1.4111 -0.3191 -0.5801
  511MOL0     H68943   8.407   9.742   7.627  0.4302 -0.3829 -0.5928
  511MOL0     H68944   8.402   9.718   7.803 -0.2554 -1.3579 -1.3490
  511MOL0     H68945   8.564   9.592   7.678 -1.9721  2.6819 -0.9204
  511MOL0     H68946   8.771   9.474   7.668 -4.2146 -0.1423  0.3743
  511MOL0     H68947   9.212   9.708   7.266 -0.3359 -0.7064 -0.0811
  511MOL0     H68948   9.437   9.652   7.212  1.0891  4.2568  1.5253
  511MOL0     H68949   9.686   9.627   7.200 -0.1881  1.1758 -0.3860
  511MOL0     H68950   9.650   9.705   7.348  0.0644  0.2075 -1.1677
  511MOL0     H68951   9.836   9.560   7.456 -1.2608  0.1641  0.1348
  511MOL0     H68952   9.849   9.490   7.298 -2.9897 -0.5616 -0.1155
  511MOL0     H68953   9.958   9.669   7.204 -2.1419 -0.6782 -0.5719
  511MOL0     H68954   9.886   9.789   7.312 -0.0615 -1.0693 -2.2385
  511MOL0     H68955  10.097   9.598   7.404  1.1194  1.1876 -0.3681
  511MOL0     H68956  10.020   9.709   7.506  3.1022 -0.5653  0.9350
  511MOL0     H68957  10.111   9.904   7.363  0.0010  1.0405 -0.4068
  511MOL0     H68958  10.202   9.768   7.275  0.1340 -0.0435  0.7761
  511MOL0     H68959  10.219   9.817   7.566 -0.8005 -0.6865  0.1142
  511MOL0     H68960  10.315   9.695   7.463 -0.1734 -0.5288 -0.3189
  511MOL0     H68961  10.404   9.887   7.339 -1.8820  1.2220 -0.4757
  511MOL0     H68962  10.448   9.867   7.513 -2.0057 -2.1444  0.0854
  511MOL0     H68963  10.240  10.064   7.400 -1.4127 -1.6756  1.1419
  511MOL0     H68964  10.276  10.041   7.568  1.5659  1.4110  0.4658
  511MOL0     H68965   9.505   9.447   7.575  3.1938 -0.4269 -2.7798
  511MOL0     H68966   9.264   9.521   7.645  0.5899 -1.9660 -0.9232
  511MOL0     H68967   8.957   9.866   7.590  0.3471 -1.2595 -1.0970
  511MOL0     H68968   8.745   9.976   7.654  2.0056 -0.1878  3.2262
  511MOL0     H68969   7.050   9.634   8.677 -0.1602  1.0376 -0.5908
  511MOL0     H68970   6.790   9.644   8.681 -2.5673 -1.1431 -0.2851
  511MOL0     H68971   6.446   9.720   8.574 -0.7376 -0.3609  1.0837
  511MOL0     H68972   6.215   9.770   8.638  2.6636  0.1966  0.0962
  511MOL0     H68973   5.899   9.494   8.655  1.8393  1.7175  1.0606
  511MOL0     H68974   5.901   9.477   8.473  2.7613  2.1879 -1.7659
  511MOL0     H68975   5.706   9.549   8.479  0.6593 -0.8241  0.0762
  511MOL0     H68976   5.786   9.707   8.477 -0.4719 -1.7037 -0.8356
  511MOL0     H68977   5.639   9.746   8.639  0.7524 -0.1924 -1.1034
  511MOL0     H68978   5.771   9.698   8.738  0.3950  0.9074  0.1274
  511MOL0     H68979   5.687   9.465   8.755  1.3428  1.6897  0.0653
  511MOL0     H68980   5.574   9.575   8.821 -0.3928  0.2232  0.9254
  511MOL0     H68981   5.365   9.403   8.493  1.8362  0.0048 -0.7321
  511MOL0     H68982   6.087   9.407   8.449  0.3676  1.1605 -2.5099
  511MOL0     H68983   6.359   9.313   8.316  1.2099 -0.7246  0.0372
  511MOL0     H68984   6.367   9.218   8.468 -0.0763 -0.4438  0.0358
  511MOL0     H68985   6.214   9.253   8.382  0.1032 -1.3941  3.3813
  512MOL0     O68986   8.329   3.020   9.639 -0.4018 -0.1038 -0.2897
  512MOL0     C68987   8.283   2.931   9.560 -1.2644 -0.1041  0.6113
  512MOL0     O68988   8.150   2.911   9.537  0.0402  0.1101  0.1959
  512MOL0     C68989   8.059   3.003   9.577  0.9960 -0.9124  0.7631
  512MOL0     C68990   8.067   3.136   9.547  0.9630 -0.6092  0.1812
  512MOL0     C68991   7.984   3.233   9.589  0.7501  0.5055 -0.1642
  512MOL0     C68992   7.887   3.195   9.683  0.7827  1.1478  0.3544
  512MOL0     O68993   7.829   3.301   9.746 -0.3983  0.2343  0.3238
  512MOL0     C68994   7.695   3.269   9.783  0.1244 -0.2812 -0.0141
  512MOL0     C68995   7.626   3.398   9.822  0.1325  0.1629 -0.4581
  512MOL0     C68996   7.512   3.363   9.930 -0.2198 -0.5320  0.8561
  512MOL0     C68997   7.449   3.493   9.980  0.6382 -0.4242  0.2375
  512MOL0     C68998   7.321   3.467  10.059 -0.4411  0.3293 -0.5117
  512MOL0     C68999   7.273   3.602  10.119 -0.6583  0.0393 -0.1736
  512MOL0     C69000   7.249   3.718  10.018 -0.1512  0.5813  0.0397
  512MOL0     C69001   7.209   3.847  10.083 -0.3895  0.6150 -0.6659
  512MOL0     N69002   7.146   3.941   9.988 -0.3042  0.4644 -0.6454
  512MOL0     C69003   7.012   3.970   9.966  0.2836  0.6573  0.2062
  512MOL0     C69004   7.016   4.073   9.880 -0.5805 -0.4910  0.5137
  512MOL0     C69005   6.886   4.133   9.847 -0.0395  0.8672 -0.1792
  512MOL0     C69006   6.891   4.234   9.738 -0.1726  0.4513  0.6748
  512MOL0     C69007   6.743   4.276   9.719 -0.7304  0.6296  0.2278
  512MOL0     C69008   6.745   4.404   9.632  0.7834  0.6478 -0.0641
  512MOL0     O69009   6.786   4.386   9.498  0.2622 -0.0751  0.0825
  512MOL0     C69010   6.866   4.488   9.450  0.1464  0.0166 -0.0216
  512MOL0     C69011   6.852   4.627   9.480 -0.3550  0.3493 -1.5679
  512MOL0     C69012   6.928   4.726   9.414 -0.4188  0.0524  0.1914
  512MOL0     C69013   7.041   4.682   9.341  0.2205  0.4821  0.5483
  512MOL0     C69014   7.141   4.782   9.305 -0.1393  0.1248 -0.3050
  512MOL0     O69015   7.122   4.909   9.350  0.1363  0.3277 -0.3341
  512MOL0     C69016   7.223   4.998   9.310  0.0027 -0.7221  0.5395
  512MOL0     C69017   7.319   5.050   9.402  0.7137  0.1196  0.5731
  512MOL0     C69018   7.408   5.151   9.364 -0.4550 -1.1826 -0.2530
  512MOL0     C69019   7.412   5.207   9.235 -0.4959  0.1178 -0.8586
  512MOL0     O69020   7.507   5.306   9.218 -0.6653 -0.6010 -0.1365
  512MOL0     C69021   7.516   5.345   9.079  0.8319  0.4968  0.0484
  512MOL0     C69022   7.616   5.441   9.068  0.1903 -0.4953 -0.0050
  512MOL0     C69023   7.581   5.572   9.152 -0.3953 -0.1030  0.0648
  512MOL0     C69024   7.708   5.642   9.197  0.4050  0.5240 -1.0106
  512MOL0     C69025   7.683   5.750   9.289  0.1655 -0.2670  0.0651
  512MOL0     C69026   7.814   5.784   9.355 -0.4183 -1.1070 -0.8796
  512MOL0     C69027   7.813   5.912   9.441  0.8177 -0.9779  0.5057
  512MOL0     C69028   7.921   5.918   9.560  0.1855  0.0742 -0.0553
  512MOL0    Cl69029   8.086   5.952   9.497  0.2935  0.0428 -0.2650
  512MOL0     C69030   7.314   5.161   9.146 -0.5195 -0.4996  0.8416
  512MOL0     C69031   7.228   5.055   9.178 -0.5457  0.2029  0.1105
  512MOL0     O69032   7.228   4.748   9.234  0.5535  0.4860 -0.2283
  512MOL0     C69033   7.060   4.545   9.311  0.2625 -0.3787  0.3607
  512MOL0     C69034   6.971   4.449   9.359 -0.0795  0.0974 -1.0750
  512MOL0     N69035   7.143   4.095   9.842  0.6487 -0.2718 -0.1669
  512MOL0     N69036   7.225   4.013   9.905  0.0501 -0.0157 -0.9128
  512MOL0     C69037   7.865   3.058   9.709  0.4803  0.6826 -0.2877
  512MOL0     C69038   7.950   2.959   9.645 -0.6592  0.5513 -0.8016
  512MOL0     C69039   8.380   2.830   9.511  0.6998 -0.3532  0.0334
  512MOL0     C69040   8.503   2.864   9.461  0.1006  0.1271 -0.2914
  512MOL0     C69041   8.589   2.758   9.409 -0.6858 -0.5358 -0.2250
  512MOL0     C69042   8.567   2.628   9.425  0.5810  1.6185 -0.2735
  512MOL0     O69043   8.653   2.527   9.391  0.2008  0.0542  0.3192
  512MOL0     C69044   8.780   2.563   9.335  0.7115 -0.8717 -0.4824
  512MOL0     C69045   8.863   2.440   9.312  0.1784 -0.4546  0.1660
  512MOL0     C69046   8.799   2.341   9.203  0.4525  0.3334  0.4720
  512MOL0     C69047   8.907   2.257   9.133  0.7093  0.4804 -0.1518
  512MOL0     C69048   8.978   2.342   9.036  0.3932 -0.0093  0.2525
  512MOL0     C69049   9.044   2.410   8.952 -0.4572  0.4617 -0.5880
  512MOL0     C69050   8.443   2.591   9.480 -0.6693 -0.3789 -0.2857
  512MOL0     C69051   8.352   2.693   9.530  0.0326 -0.6990 -0.5258
  512MOL0     C69052   8.232   2.647   9.599  0.6218 -0.0350  1.2855
  512MOL0     H69053   8.152   3.158   9.483  2.5772  2.2200  2.9956
  512MOL0     H69054   8.000   3.339   9.573 -1.0546  0.6665 -1.2133
  512MOL0     H69055   7.631   3.221   9.708  1.6083 -0.7238 -1.0330
  512MOL0     H69056   7.714   3.202   9.867  0.2797  1.8186  1.7239
  512MOL0     H69057   7.574   3.449   9.741  0.1544  1.0886  0.0912
  512MOL0     H69058   7.698   3.471   9.861 -0.7942  0.8899 -0.0573
  512MOL0     H69059   7.548   3.293  10.006  2.1474 -2.6049 -1.9720
  512MOL0     H69060   7.434   3.317   9.868 -1.0896  1.2879  0.5092
  512MOL0     H69061   7.520   3.557  10.032  0.7237  0.1927 -0.6233
  512MOL0     H69062   7.420   3.550   9.891  0.8375 -0.3415  0.2250
  512MOL0     H69063   7.235   3.428  10.004 -0.9519  0.9819 -0.1970
  512MOL0     H69064   7.328   3.392  10.138  0.0585  0.5240 -0.3693
  512MOL0     H69065   7.189   3.582  10.186  1.0234 -1.9786  1.4764
  512MOL0     H69066   7.351   3.643  10.184 -1.6977 -2.2880  2.8013
  512MOL0     H69067   7.167   3.688   9.951  0.6828  0.8002 -1.1114
  512MOL0     H69068   7.336   3.742   9.956 -2.2003 -0.6681 -3.6913
  512MOL0     H69069   7.146   3.819  10.168  0.6807  0.3765  0.0771
  512MOL0     H69070   7.299   3.894  10.123 -0.3675  0.0676 -0.0465
  512MOL0     H69071   6.927   3.929  10.020  0.8619  1.3917  1.7173
  512MOL0     H69072   6.826   4.048   9.813  0.2534  2.0704 -4.1549
  512MOL0     H69073   6.849   4.176   9.941  0.0660 -0.5168  0.5256
  512MOL0     H69074   6.951   4.317   9.777  0.7865  0.1613 -0.1409
  512MOL0     H69075   6.926   4.194   9.642 -0.6258 -1.1852  1.1651
  512MOL0     H69076   6.704   4.289   9.820 -0.3489 -1.1896  0.6552
  512MOL0     H69077   6.689   4.195   9.669 -0.2437 -0.1735  0.9661
  512MOL0     H69078   6.805   4.484   9.675  3.9386 -0.9930 -1.1185
  512MOL0     H69079   6.643   4.443   9.636  0.2482 -0.5744 -1.1647
  512MOL0     H69080   6.773   4.657   9.548 -0.8407  0.7507 -2.2956
  512MOL0     H69081   6.913   4.831   9.434 -0.5218  0.1008 -0.1233
  512MOL0     H69082   7.307   5.004   9.499 -4.4062  0.4083  0.3694
  512MOL0     H69083   7.481   5.195   9.431  0.6597 -2.7471 -0.3706
  512MOL0     H69084   7.550   5.265   9.013 -1.1276  0.9245 -1.6042
  512MOL0     H69085   7.419   5.385   9.047 -0.0535 -0.5372  1.3233
  512MOL0     H69086   7.707   5.400   9.112  0.3338  0.9056  1.0670
  512MOL0     H69087   7.638   5.459   8.963  0.0103 -2.6018 -0.4539
  512MOL0     H69088   7.521   5.641   9.093 -4.2945 -1.2221  2.3831
  512MOL0     H69089   7.519   5.542   9.237 -1.1261  0.9799 -0.0651
  512MOL0     H69090   7.761   5.686   9.112 -0.9003  0.0816 -2.0971
  512MOL0     H69091   7.776   5.570   9.242 -2.0284 -1.4392 -0.2398
  512MOL0     H69092   7.601   5.725   9.357  0.6034 -1.2434  0.2565
  512MOL0     H69093   7.645   5.827   9.222  2.5056 -0.3108 -1.4545
  512MOL0     H69094   7.829   5.690   9.409 -1.7523 -0.8719 -0.0732
  512MOL0     H69095   7.881   5.804   9.270  0.4422  1.5764  0.3065
  512MOL0     H69096   7.716   5.923   9.489  1.3711  0.9292  1.2860
  512MOL0     H69097   7.820   5.996   9.370  0.9429 -1.2048  0.2470
  512MOL0     H69098   7.898   6.002   9.627  1.3110 -1.2860  2.1539
  512MOL0     H69099   7.915   5.826   9.619 -1.8071 -0.1397 -0.5265
  512MOL0     H69100   7.308   5.209   9.049 -0.8422 -0.0751  1.0618
  512MOL0     H69101   7.154   5.016   9.109 -0.8881  1.2429 -0.1393
  512MOL0     H69102   7.152   4.505   9.270  0.8654  0.5192  0.8002
  512MOL0     H69103   6.975   4.342   9.344  0.7589 -0.3272  1.6469
  512MOL0     H69104   7.791   3.015   9.776  1.8521 -0.8042  0.3559
  512MOL0     H69105   7.926   2.856   9.668 -0.3912  0.9908  1.7638
  512MOL0     H69106   8.537   2.967   9.468 -3.6898  1.4792  0.4058
  512MOL0     H69107   8.687   2.796   9.380  0.0701 -1.0688  1.4658
  512MOL0     H69108   8.842   2.618   9.407 -1.0111  0.4718  0.0309
  512MOL0     H69109   8.770   2.621   9.243 -1.5081 -0.3268  0.0560
  512MOL0     H69110   8.866   2.391   9.410 -2.5849  0.1311  0.6363
  512MOL0     H69111   8.961   2.474   9.278 -0.8242  4.4199  1.3557
  512MOL0     H69112   8.743   2.394   9.125  0.6556 -1.5505 -1.0242
  512MOL0     H69113   8.735   2.279   9.267  1.6905 -1.7174 -0.1898
  512MOL0     H69114   8.970   2.234   9.219  1.2102  2.4036  0.0417
  512MOL0     H69115   8.860   2.170   9.087 -1.7206  0.8612  1.4353
  512MOL0     H69116   9.097   2.467   8.878 -0.3701  2.5971  1.0366
  512MOL0     H69117   8.431   2.485   9.501 -2.9005  0.2321  2.0326
  512MOL0     H69118   8.145   2.657   9.534  0.7713  0.0246  1.0969
  512MOL0     H69119   8.240   2.542   9.629  1.4247 -0.2588  0.3236
  512MOL0     H69120   8.214   2.703   9.691 -0.5141 -0.8791  1.6134
  513MOL0     O69121   6.378   3.299   8.953  0.2697  0.3215  0.3571
  513MOL0     C69122   6.331   3.310   8.837 -0.0317  0.0675  0.0443
  513MOL0     O69123   6.406   3.319   8.727 -0.1305  0.1844  0.5921
  513MOL0     C69124   6.546   3.316   8.732  0.2693  0.0365  0.3005
  513MOL0     C69125   6.620   3.216   8.789 -0.8436 -0.0002 -0.5355
  513MOL0     C69126   6.759   3.209   8.779 -0.2840  0.1479  0.5442
  513MOL0     C69127   6.830   3.323   8.717  0.4293  1.3787  0.9737
  513MOL0     O69128   6.965   3.331   8.690  0.5562  0.5444  0.0120
  513MOL0     C69129   7.045   3.229   8.750  0.3642  0.2493 -0.4983
  513MOL0     C69130   7.194   3.255   8.706 -0.5079 -0.2990 -0.1840
  513MOL0     C69131   7.219   3.237   8.550  0.4788  0.0641  0.4372
  513MOL0     C69132   7.357   3.193   8.501  0.3764 -0.5819 -0.3736
  513MOL0     C69133   7.379   3.214   8.348  0.5232  0.3045  0.6688
  513MOL0     C69134   7.320   3.111   8.258 -0.0912  0.2583 -0.0068
  513MOL0     C69135   7.356   3.144   8.110 -0.1588 -1.0604  0.3162
  513MOL0     C69136   7.269   3.060   8.016 -1.0054 -0.1960 -0.0628
  513MOL0     N69137   7.134   3.104   8.002 -0.4214  0.3305  0.0487
  513MOL0     C69138   7.029   3.077   8.092  0.1004 -0.3001 -0.2004
  513MOL0     C69139   6.924   3.138   8.044 -0.3103  0.9898 -0.6345
  513MOL0     C69140   6.791   3.150   8.116  0.0032 -0.3092  0.0768
  513MOL0     C69141   6.811   3.253   8.232  0.4542 -0.5945 -0.2664
  513MOL0     C69142   6.677   3.273   8.310 -0.3508  0.6201  0.3834
  513MOL0     C69143   6.650   3.160   8.407 -0.5011 -0.3680  0.8029
  513MOL0     O69144   6.560   3.059   8.354 -0.1412 -0.1317  0.2534
  513MOL0     C69145   6.427   3.090   8.354 -0.1447  0.1595 -0.0443
  513MOL0     C69146   6.339   2.981   8.327  1.2108  1.1655 -0.7318
  513MOL0     C69147   6.200   2.997   8.316 -0.4713  0.3018  0.5852
  513MOL0     C69148   6.137   3.113   8.323  0.6081 -0.6905 -0.0109
  513MOL0     C69149   5.992   3.121   8.313 -0.3638  0.3123  0.4245
  513MOL0     O69150   5.921   3.005   8.293 -0.0261 -0.2656  0.6969
  513MOL0     C69151   5.786   3.015   8.259 -0.3180 -0.0001  0.2182
  513MOL0     C69152   5.733   3.062   8.137  0.5767 -0.2734  0.5173
  513MOL0     C69153   5.602   3.061   8.123  0.4676  0.8827  0.5101
  513MOL0     C69154   5.513   3.039   8.231  1.0166  0.2574  0.3884
  513MOL0     O69155   5.379   3.046   8.198  0.1388  0.3603 -0.1303
  513MOL0     C69156   5.293   3.073   8.302 -0.4818  0.4364  0.0681
  513MOL0     C69157   5.158   3.119   8.262 -0.3590  0.5369  0.4174
  513MOL0     C69158   5.089   3.002   8.193 -0.3576 -0.3316 -0.4486
  513MOL0     C69159   4.944   3.049   8.173  0.0452  0.8414 -0.4496
  513MOL0     C69160   4.849   2.937   8.121  0.6487 -0.3599  0.5902
  513MOL0     C69161   4.828   2.808   8.200 -0.6713  1.5231 -0.1206
  513MOL0     C69162   4.722   2.707   8.141  0.2557 -0.0123 -0.9454
  513MOL0     C69163   4.587   2.756   8.095 -0.6755  0.7555 -0.4731
  513MOL0    Cl69164   4.497   2.799   8.251 -0.2257 -0.0077 -0.3203
  513MOL0     C69165   5.564   3.009   8.359  1.1813  0.0528 -1.0336
  513MOL0     C69166   5.701   3.003   8.372  0.2185  0.2780  0.6105
  513MOL0     O69167   5.941   3.233   8.297 -0.4295 -0.0632 -0.2235
  513MOL0     C69168   6.219   3.225   8.329 -0.7250  0.3478 -0.5021
  513MOL0     C69169   6.357   3.217   8.358 -0.2918  0.1040  0.1321
  513MOL0     N69170   6.954   3.204   7.926  0.1059  0.0755 -0.2826
  513MOL0     N69171   7.076   3.175   7.897 -0.4185 -0.1360  0.1291
  513MOL0     C69172   6.752   3.436   8.678 -0.3346 -0.4664  0.2178
  513MOL0     C69173   6.615   3.430   8.678  0.0438  0.7262 -0.4679
  513MOL0     C69174   6.180   3.321   8.812  0.1721  0.8204 -1.1090
  513MOL0     C69175   6.137   3.302   8.680  0.1294  0.2547  0.3262
  513MOL0     C69176   6.002   3.305   8.654  0.3707 -0.4540 -0.1634
  513MOL0     C69177   5.900   3.319   8.755 -1.2496 -0.5242 -0.7758
  513MOL0     O69178   5.766   3.323   8.739  0.0353  0.0534 -0.1432
  513MOL0     C69179   5.702   3.257   8.627  0.6936  0.2090 -0.9176
  513MOL0     C69180   5.576   3.327   8.575  0.1699  0.1848 -1.0494
  513MOL0     C69181   5.620   3.452   8.507  0.2760 -0.0332 -0.2291
  513MOL0     C69182   5.521   3.524   8.403 -0.3119  0.0878 -0.2961
  513MOL0     C69183   5.484   3.447   8.284  0.2829  0.3977  0.3808
  513MOL0     C69184   5.448   3.378   8.185  0.1503 -0.4994 -0.3393
  513MOL0     C69185   5.945   3.325   8.884  0.0354  0.4872  0.1004
  513MOL0     C69186   6.082   3.327   8.919  0.2380  1.0258 -0.2372
  513MOL0     C69187   6.118   3.342   9.063 -0.2567  0.0857  0.7741
  513MOL0     H69188   6.566   3.130   8.828 -1.0066  0.7819  1.0361
  513MOL0     H69189   6.808   3.122   8.820  1.9171  0.3486 -1.4343
  513MOL0     H69190   7.042   3.238   8.859  1.0682  0.4936 -0.4941
  513MOL0     H69191   7.032   3.127   8.715 -1.2084  0.2806 -0.0545
  513MOL0     H69192   7.268   3.196   8.761 -1.3360  0.7784  2.1741
  513MOL0     H69193   7.206   3.362   8.723 -1.1828 -0.0881 -0.9666
  513MOL0     H69194   7.192   3.333   8.504 -0.1601 -0.8636 -1.1802
  513MOL0     H69195   7.146   3.159   8.526  2.5302 -1.9632  0.4676
  513MOL0     H69196   7.425   3.263   8.550  0.4752  0.1800 -1.5681
  513MOL0     H69197   7.373   3.099   8.554  0.6984 -0.2303  0.1582
  513MOL0     H69198   7.338   3.311   8.318  0.9480  0.0636 -0.7749
  513MOL0     H69199   7.485   3.215   8.318  0.7694 -0.5528  1.4739
  513MOL0     H69200   7.366   3.012   8.271 -1.9254 -0.7461 -0.8595
  513MOL0     H69201   7.213   3.109   8.280  0.1687 -0.3733  1.3148
  513MOL0     H69202   7.462   3.122   8.093 -0.1799 -1.3552  0.5646
  513MOL0     H69203   7.351   3.251   8.088  1.6132 -0.9990 -0.0005
  513MOL0     H69204   7.328   3.043   7.926  0.4314 -0.8056  0.9504
  513MOL0     H69205   7.262   2.960   8.060  2.6306  0.1304  1.6027
  513MOL0     H69206   7.029   3.008   8.175  1.0476 -0.9172 -0.6934
  513MOL0     H69207   6.718   3.207   8.058 -2.5696 -0.6636  2.7278
  513MOL0     H69208   6.753   3.056   8.158 -0.4081  0.8768  2.5178
  513MOL0     H69209   6.891   3.217   8.298 -0.9446 -1.3215  1.1206
  513MOL0     H69210   6.855   3.344   8.191 -0.4068  1.0010  2.0938
  513MOL0     H69211   6.597   3.280   8.236  0.2213 -1.0744 -0.4676
  513MOL0     H69212   6.675   3.362   8.372 -2.4508 -0.5640  2.1232
  513MOL0     H69213   6.606   3.199   8.499 -1.9787 -0.8155  0.3113
  513MOL0     H69214   6.748   3.118   8.432  1.5469  3.3037 -0.2957
  513MOL0     H69215   6.377   2.879   8.326 -1.5818 -0.0081  1.0065
  513MOL0     H69216   6.137   2.910   8.299  0.8893 -0.6162 -0.0661
  513MOL0     H69217   5.801   3.066   8.053  0.3155 -1.7548  0.2133
  513MOL0     H69218   5.564   3.091   8.025  1.2527  4.9521  1.2812
  513MOL0     H69219   5.275   2.983   8.362  0.2145  0.0023 -0.3739
  513MOL0     H69220   5.335   3.146   8.372 -0.6437  0.3887  0.2167
  513MOL0     H69221   5.102   3.158   8.348  1.0542  4.0562 -0.0752
  513MOL0     H69222   5.176   3.198   8.188  0.1406 -0.1335 -0.1868
  513MOL0     H69223   5.131   2.985   8.093  1.0921  1.4491 -0.1919
  513MOL0     H69224   5.098   2.917   8.260 -1.2346 -0.1394 -0.0769
  513MOL0     H69225   4.943   3.134   8.104  0.8877  2.1242  1.0536
  513MOL0     H69226   4.905   3.078   8.270 -2.5079  2.9965 -2.0015
  513MOL0     H69227   4.893   2.914   8.024  1.6811  2.3071  0.3293
  513MOL0     H69228   4.754   2.990   8.110  0.6324 -0.7524 -1.6383
  513MOL0     H69229   4.925   2.756   8.199 -1.0631  0.7860 -1.0477
  513MOL0     H69230   4.796   2.832   8.302 -0.9959 -1.7812  0.6595
  513MOL0     H69231   4.704   2.630   8.217 -1.5479  1.2449 -0.0083
  513MOL0     H69232   4.771   2.665   8.053  3.7184  0.9444  0.3332
  513MOL0     H69233   4.600   2.841   8.028  1.2664  0.1671 -0.9124
  513MOL0     H69234   4.541   2.668   8.050 -2.1095  0.3613  1.6338
  513MOL0     H69235   5.499   2.998   8.446 -0.6426 -2.5267 -2.5603
  513MOL0     H69236   5.747   2.985   8.468  1.2511 -0.7271 -0.0480
  513MOL0     H69237   6.188   3.329   8.318  1.2597  1.3301  2.0894
  513MOL0     H69238   6.413   3.310   8.360 -1.5927  0.9065  0.3805
  513MOL0     H69239   6.788   3.529   8.637 -2.0910  0.7893  1.3710
  513MOL0     H69240   6.544   3.501   8.637  1.0101  0.6174 -2.4499
  513MOL0     H69241   6.200   3.265   8.599 -1.5367  0.3770 -1.0902
  513MOL0     H69242   5.967   3.293   8.551  0.0781  0.0543 -0.1254
  513MOL0     H69243   5.669   3.158   8.661 -0.0479  0.1797 -1.6931
  513MOL0     H69244   5.768   3.225   8.545  0.0589 -0.4323 -1.1870
  513MOL0     H69245   5.508   3.344   8.659 -0.8505  0.4487 -1.9063
  513MOL0     H69246   5.514   3.265   8.510 -0.4766 -0.2573 -0.0287
  513MOL0     H69247   5.714   3.428   8.455  0.6980  0.6339  0.1983
  513MOL0     H69248   5.645   3.521   8.589 -0.6963 -2.0700  1.8756
  513MOL0     H69249   5.429   3.556   8.453 -1.7511 -0.4108 -2.4876
  513MOL0     H69250   5.565   3.619   8.370 -1.8174  1.2928  0.9782
  513MOL0     H69251   5.417   3.323   8.098 -0.0954  1.9169 -1.8527
  513MOL0     H69252   5.881   3.329   8.972 -3.2583  0.6355 -2.1099
  513MOL0     H69253   6.034   3.379   9.121  0.4418  1.3820  1.0049
  513MOL0     H69254   6.162   3.250   9.103  0.6807  1.1407  2.2958
  513MOL0     H69255   6.186   3.424   9.086 -2.4956  1.3706  3.3933
  514MOL0     O69256   0.101   2.438  11.229 -0.0821 -1.1189 -0.1879
  514MOL0     C69257   0.042   2.395  11.331 -0.7604 -0.0265  0.2085
  514MOL0     O69258   0.088   2.413  11.453 -0.2247  0.7918 -0.3036
  514MOL0     C69259   0.212   2.471  11.473 -1.0182 -1.2449 -0.1233
  514MOL0     C69260   0.246   2.603  11.424 -0.1638 -0.0873 -0.0778
  514MOL0     C69261   0.365   2.658  11.454  0.0985 -0.1034 -0.0072
  514MOL0     C69262   0.455   2.599  11.534  1.0160  0.0131  0.1380
  514MOL0     O69263   0.564   2.680  11.554  0.3256  0.6113  0.9588
  514MOL0     C69264   0.695   2.621  11.559  0.4184 -0.8562  0.7233
  514MOL0     C69265   0.784   2.746  11.534  1.2758 -1.0362  0.0415
  514MOL0     C69266   0.934   2.692  11.517  0.2999 -0.8526  0.2346
  514MOL0     C69267   1.041   2.805  11.507 -0.9700 -0.6307  0.1584
  514MOL0     C69268   1.171   2.750  11.451 -0.4928  0.2841  0.6015
  514MOL0     C69269   1.235   2.641  11.543  0.6330  0.2222  0.2036
  514MOL0     C69270   1.375   2.595  11.497  0.0692  0.6368  0.2504
  514MOL0     C69271   1.463   2.532  11.610 -0.0147  0.1332 -0.5592
  514MOL0     N69272   1.600   2.503  11.567  0.3842 -0.1797 -0.2182
  514MOL0     C69273   1.659   2.379  11.560 -0.5652  0.2106 -0.8897
  514MOL0     C69274   1.785   2.407  11.527 -0.0941 -0.1972  0.2191
  514MOL0     C69275   1.891   2.302  11.538  0.5752  0.6508 -0.3545
  514MOL0     C69276   2.035   2.353  11.535  0.0216 -0.3354  0.7068
  514MOL0     C69277   2.128   2.240  11.522  0.5768  0.1380 -0.0541
  514MOL0     C69278   2.266   2.274  11.458 -0.1939  0.4897 -1.1905
  514MOL0     O69279   2.336   2.377  11.537 -0.5029 -0.9338 -0.3268
  514MOL0     C69280   2.466   2.411  11.518 -1.0019  0.1739  0.9039
  514MOL0     C69281   2.541   2.372  11.403  0.9756  0.6439 -0.0013
  514MOL0     C69282   2.667   2.425  11.383 -0.7370  0.2242  0.8259
  514MOL0     C69283   2.720   2.519  11.478 -0.4609  0.5423  0.1664
  514MOL0     C69284   2.862   2.550  11.472  0.3677  0.3698 -0.2794
  514MOL0     O69285   2.933   2.502  11.362  0.6761  0.1099  1.1728
  514MOL0     C69286   3.069   2.506  11.375  0.4589  0.0871 -0.1022
  514MOL0     C69287   3.131   2.395  11.409  0.1174 -0.1503 -0.1519
  514MOL0     C69288   3.271   2.382  11.421 -1.6015  0.1071  0.2680
  514MOL0     C69289   3.347   2.499  11.408  0.2213  0.0304 -1.7139
  514MOL0     O69290   3.485   2.506  11.438  0.1149  0.4001 -0.1711
  514MOL0     C69291   3.567   2.393  11.402 -0.3075  0.1185  0.0135
  514MOL0     C69292   3.723   2.417  11.407  0.2723 -0.0848 -0.3051
  514MOL0     C69293   3.813   2.310  11.337 -0.3727 -0.0778  0.2060
  514MOL0     C69294   3.964   2.331  11.353  0.2445  0.3035  1.2564
  514MOL0     C69295   4.046   2.241  11.257 -0.1326 -0.5917  0.3352
  514MOL0     C69296   4.191   2.294  11.248  0.5356 -0.9267 -0.8336
  514MOL0     C69297   4.281   2.208  11.151 -0.8189 -0.1250 -0.8855
  514MOL0     C69298   4.371   2.295  11.073 -0.5637 -0.0284 -0.9334
  514MOL0    Cl69299   4.488   2.200  10.971  0.2126 -0.2199  0.1459
  514MOL0     C69300   3.280   2.617  11.389  0.1409 -0.0435  0.2045
  514MOL0     C69301   3.142   2.620  11.366  0.0934 -0.2238 -0.2894
  514MOL0     O69302   2.913   2.611  11.567  0.8779  0.1964  0.0450
  514MOL0     C69303   2.646   2.561  11.590 -0.1960  0.6966  0.2584
  514MOL0     C69304   2.525   2.498  11.607  0.6207  0.4470 -0.0240
  514MOL0     N69305   1.802   2.546  11.494  0.7156 -0.4537  0.6500
  514MOL0     N69306   1.683   2.593  11.506 -0.4675 -0.8399 -1.2629
  514MOL0     C69307   0.428   2.473  11.585 -0.0499  0.0305  0.2957
  514MOL0     C69308   0.306   2.409  11.555 -0.6563 -0.0784  0.4725
  514MOL0     C69309  -0.092   2.341  11.317  0.2269  0.7387 -0.7406
  514MOL0     C69310  -0.167   2.374  11.200  0.4531  0.0437  0.6541
  514MOL0     C69311  -0.294   2.328  11.185  0.3845  0.5602  0.3647
  514MOL0     C69312  -0.362   2.254  11.281  0.3335 -0.5874  0.7511
  514MOL0     O69313  -0.489   2.204  11.271 -0.0106 -0.2788 -0.8400
  514MOL0     C69314  -0.555   2.228  11.146  0.2014 -0.5866  0.2224
  514MOL0     C69315  -0.701   2.180  11.151  0.6380  0.3929  0.7785
  514MOL0     C69316  -0.690   2.024  11.162  0.5349 -1.1636 -0.0092
  514MOL0     C69317  -0.719   1.964  11.029  0.0523  1.5057  0.0017
  514MOL0     C69318  -0.729   1.822  11.043 -0.1864 -0.3051 -0.3227
  514MOL0     C69319  -0.726   1.703  11.061 -0.2107 -0.0273  0.1775
  514MOL0     C69320  -0.286   2.220  11.395 -0.2084 -0.2101 -0.4467
  514MOL0     C69321  -0.153   2.255  11.417  0.7234 -0.5980  0.8102
  514MOL0     C69322  -0.084   2.199  11.543  0.2525  0.1213 -0.1541
  514MOL0     H69323   0.179   2.654  11.356 -1.5490 -2.8688 -0.9664
  514MOL0     H69324   0.378   2.757  11.410  1.6613 -1.0967 -1.9487
  514MOL0     H69325   0.715   2.580  11.658 -0.5320 -0.2653  1.1695
  514MOL0     H69326   0.724   2.537  11.495 -0.1197 -0.6509  0.1964
  514MOL0     H69327   0.773   2.809  11.622  0.1253  1.6016 -1.8449
  514MOL0     H69328   0.750   2.809  11.451  1.2776 -1.7144 -0.4893
  514MOL0     H69329   0.936   2.628  11.428  2.9080  0.4177 -0.7202
  514MOL0     H69330   0.958   2.628  11.602  2.6274 -1.9155 -1.1170
  514MOL0     H69331   1.010   2.887  11.442  1.5545 -1.2567 -1.9944
  514MOL0     H69332   1.054   2.866  11.598  0.3026  0.5827 -0.7914
  514MOL0     H69333   1.147   2.716  11.350  0.5293  3.5100 -0.8548
  514MOL0     H69334   1.238   2.832  11.426 -0.0647 -0.6992 -1.6957
  514MOL0     H69335   1.250   2.684  11.643 -1.3306 -0.1015  0.6781
  514MOL0     H69336   1.170   2.553  11.545  0.4635  0.3426  0.0056
  514MOL0     H69337   1.429   2.682  11.459 -0.3010  0.1696 -1.3828
  514MOL0     H69338   1.355   2.526  11.415 -3.4279  0.0989  1.3613
  514MOL0     H69339   1.451   2.611  11.685  0.9624  0.0524 -0.3135
  514MOL0     H69340   1.412   2.440  11.639 -2.1343  0.9721 -1.3897
  514MOL0     H69341   1.616   2.284  11.592 -0.9969  0.9456  0.8019
  514MOL0     H69342   1.868   2.264  11.638 -1.7066 -0.1414 -1.0990
  514MOL0     H69343   1.866   2.228  11.461 -1.4109  1.4135 -0.4874
  514MOL0     H69344   2.040   2.410  11.442  0.5100  0.5247  1.2382
  514MOL0     H69345   2.057   2.422  11.617 -0.3170  1.1345 -0.3976
  514MOL0     H69346   2.088   2.161  11.457  0.5247 -0.4013  0.6265
  514MOL0     H69347   2.152   2.211  11.624  1.5259  0.9708 -0.0328
  514MOL0     H69348   2.257   2.303  11.353  0.5232 -3.3565 -2.4751
  514MOL0     H69349   2.328   2.184  11.456  0.5160  0.9511 -0.4251
  514MOL0     H69350   2.499   2.294  11.341  0.2782 -1.6184  3.0558
  514MOL0     H69351   2.731   2.391  11.302 -4.8182 -1.0137 -2.2597
  514MOL0     H69352   3.072   2.304  11.405  2.4233 -1.6960 -2.0565
  514MOL0     H69353   3.321   2.287  11.436 -0.9864 -0.0074 -2.1707
  514MOL0     H69354   3.530   2.318  11.472 -3.4357  1.6879  0.2203
  514MOL0     H69355   3.547   2.364  11.298  2.8569 -1.3375 -0.2873
  514MOL0     H69356   3.747   2.506  11.349 -2.2474 -0.8170 -2.6603
  514MOL0     H69357   3.751   2.424  11.513 -0.9626 -2.1663  0.2284
  514MOL0     H69358   3.789   2.211  11.379  0.0314 -0.2264  0.0879
  514MOL0     H69359   3.773   2.320  11.236 -1.7382 -1.4035  0.5636
  514MOL0     H69360   3.985   2.314  11.459  1.0478  0.0649  1.0645
  514MOL0     H69361   3.997   2.434  11.340  0.5509  0.1372  0.6686
  514MOL0     H69362   3.998   2.246  11.159  0.7037  3.1174 -0.0546
  514MOL0     H69363   4.033   2.139  11.293 -2.9401  0.0142  1.2799
  514MOL0     H69364   4.187   2.394  11.205  0.5845 -0.6481 -0.2020
  514MOL0     H69365   4.227   2.309  11.351  0.5165 -3.5467 -0.3756
  514MOL0     H69366   4.225   2.148  11.079 -1.4245 -2.6415  1.5143
  514MOL0     H69367   4.345   2.143  11.210 -1.2887 -1.9802 -2.3302
  514MOL0     H69368   4.313   2.358  11.005 -1.0871  0.5918  0.0687
  514MOL0     H69369   4.428   2.367  11.132 -0.7796  0.8479 -1.7739
  514MOL0     H69370   3.335   2.711  11.379  1.2399 -0.3980  2.3784
  514MOL0     H69371   3.092   2.716  11.357  1.5821  0.6446  0.3449
  514MOL0     H69372   2.675   2.631  11.668 -1.9605 -1.1564  2.7345
  514MOL0     H69373   2.470   2.534  11.694  2.3731 -1.9367  2.2363
  514MOL0     H69374   0.490   2.430  11.662 -2.6276 -1.6062  1.5777
  514MOL0     H69375   0.286   2.315  11.605  1.9868 -0.1807  1.4855
  514MOL0     H69376  -0.112   2.414  11.116  2.4569  1.2374  2.4202
  514MOL0     H69377  -0.337   2.358  11.090 -0.1889  4.4432  1.6408
  514MOL0     H69378  -0.510   2.160  11.073 -0.8547  0.5891 -1.5889
  514MOL0     H69379  -0.551   2.333  11.117  0.0522 -1.1635 -2.0442
  514MOL0     H69380  -0.759   2.225  11.070  0.8906  2.0355  1.4718
  514MOL0     H69381  -0.751   2.231  11.234  2.1231 -0.0143  1.9710
  514MOL0     H69382  -0.767   1.996  11.234  0.4557  1.1766  0.8805
  514MOL0     H69383  -0.595   1.986  11.200  1.5473  3.3731  2.7067
  514MOL0     H69384  -0.810   2.001  10.983 -0.2838 -0.6753 -1.2023
  514MOL0     H69385  -0.634   1.979  10.961  0.0003 -3.0971 -1.3775
  514MOL0     H69386  -0.718   1.597  11.078  2.1812  0.4825  3.2254
  514MOL0     H69387  -0.334   2.155  11.468  3.4660 -3.6020 -0.6917
  514MOL0     H69388   0.021   2.180  11.522 -0.2017 -1.7756 -0.9078
  514MOL0     H69389  -0.085   2.266  11.629  2.4992 -0.9729  0.8126
  514MOL0     H69390  -0.144   2.115  11.581 -1.0688 -0.2973 -2.8973
  515MOL0     O69391   9.116   0.313   4.747  0.3108  0.3059  0.4139
  515MOL0     C69392   9.100   0.404   4.829 -1.1199 -0.3117  0.6633
  515MOL0     O69393   8.981   0.441   4.889  0.0888  0.3107  0.3946
  515MOL0     C69394   8.875   0.358   4.866  0.4815 -0.1223 -1.0368
  515MOL0     C69395   8.800   0.313   4.985  0.6977  0.8642 -0.8389
  515MOL0     C69396   8.679   0.242   4.962  0.3007  0.1377  0.1434
  515MOL0     C69397   8.621   0.227   4.837 -0.1522 -0.6376  0.1525
  515MOL0     O69398   8.494   0.186   4.806 -0.2561  0.6983  0.1203
  515MOL0     C69399   8.430   0.087   4.896 -0.0554  0.1501  0.7780
  515MOL0     C69400   8.283   0.094   4.867  0.1876 -0.4799  0.4714
  515MOL0     C69401   8.235   0.053   4.726 -1.1182 -0.0731  1.5390
  515MOL0     C69402   8.189  -0.093   4.707  0.2613 -0.5247  0.1305
  515MOL0     C69403   8.156  -0.115   4.559 -0.3122 -0.2602 -0.3056
  515MOL0     C69404   8.132  -0.266   4.537 -0.3278  0.0476  0.3534
  515MOL0     C69405   8.165  -0.311   4.388  0.3468 -0.4720 -0.2811
  515MOL0     C69406   8.155  -0.464   4.359 -0.6753 -0.0631 -0.8239
  515MOL0     N69407   8.272  -0.526   4.427  0.7587  0.2192 -0.5729
  515MOL0     C69408   8.385  -0.555   4.360 -0.5120 -0.0188 -0.4533
  515MOL0     C69409   8.479  -0.585   4.454  0.6208 -0.5208 -0.0298
  515MOL0     C69410   8.625  -0.592   4.421 -0.1794  0.4230 -1.4846
  515MOL0     C69411   8.712  -0.472   4.462 -0.5532  0.5783 -0.0831
  515MOL0     C69412   8.859  -0.501   4.405 -0.4030 -0.5071 -0.2595
  515MOL0     C69413   8.939  -0.602   4.489 -0.5551 -0.2604  0.6682
  515MOL0     O69414   9.076  -0.603   4.461 -0.3086  0.1185 -0.0133
  515MOL0     C69415   9.150  -0.673   4.549 -0.0809  0.0007  0.2890
  515MOL0     C69416   9.289  -0.681   4.523  0.7205  0.0435 -0.2021
  515MOL0     C69417   9.378  -0.761   4.596  0.4236 -0.7915  0.2486
  515MOL0     C69418   9.340  -0.828   4.707  0.1165  0.1300 -0.1844
  515MOL0     C69419   9.432  -0.897   4.805 -0.8165 -1.1448  0.6307
  515MOL0     O69420   9.566  -0.871   4.780 -0.4915 -0.5097 -0.6498
  515MOL0     C69421   9.655  -0.918   4.879  1.0655 -0.9998  0.3072
  515MOL0     C69422   9.768  -0.999   4.846 -0.1131 -0.4595  0.4621
  515MOL0     C69423   9.858  -1.058   4.940 -0.1622 -0.6112  0.9932
  515MOL0     C69424   9.842  -1.013   5.074 -1.0644 -0.9185 -0.2895
  515MOL0     O69425   9.945  -1.047   5.159 -0.0088 -1.0039  0.7692
  515MOL0     C69426   9.937  -1.032   5.300 -0.5449  0.2784 -0.5068
  515MOL0     C69427  10.059  -1.122   5.352  0.7112 -0.5760 -0.7911
  515MOL0     C69428  10.072  -1.110   5.504 -0.9511 -0.1465  0.2447
  515MOL0     C69429   9.954  -1.172   5.583 -0.2635 -0.1734  0.1343
  515MOL0     C69430   9.991  -1.183   5.728 -0.1063  0.3163 -0.5012
  515MOL0     C69431   9.867  -1.209   5.814 -0.6135  0.1527  0.3001
  515MOL0     C69432   9.807  -1.351   5.802 -0.3606 -0.1172  0.0595
  515MOL0     C69433   9.714  -1.376   5.915  0.1115  0.2556 -0.0603
  515MOL0    Cl69434   9.577  -1.261   5.919 -0.0454 -0.3390  0.2753
  515MOL0     C69435   9.741  -0.917   5.108  0.3424 -0.0743  0.8505
  515MOL0     C69436   9.653  -0.873   5.011 -0.7701 -0.2302  0.5433
  515MOL0     O69437   9.385  -0.966   4.896 -0.6709  0.0267  0.2737
  515MOL0     C69438   9.200  -0.818   4.739 -0.5623 -0.8374 -0.4209
  515MOL0     C69439   9.107  -0.758   4.654  1.0641  0.3747  0.9647
  515MOL0     N69440   8.411  -0.574   4.577  0.2044 -0.7421  0.1171
  515MOL0     N69441   8.290  -0.542   4.558 -0.3360 -1.3072 -0.2273
  515MOL0     C69442   8.700   0.263   4.726  0.6000  0.2209 -0.4717
  515MOL0     C69443   8.818   0.328   4.739  0.4237  0.2111 -0.4377
  515MOL0     C69444   9.226   0.479   4.854  0.4455 -0.0855  0.2387
  515MOL0     C69445   9.210   0.616   4.868  0.2559 -0.4528  0.3549
  515MOL0     C69446   9.319   0.702   4.893  0.1563  0.1956  0.4428
  515MOL0     C69447   9.444   0.654   4.893  0.2699  0.4849 -1.2395
  515MOL0     O69448   9.560   0.724   4.922 -0.2648 -0.7172  0.9975
  515MOL0     C69449   9.572   0.863   4.901  0.1536  0.5628  0.0202
  515MOL0     C69450   9.562   0.952   5.022  0.3913 -0.4847 -0.4955
  515MOL0     C69451   9.571   1.103   4.975  0.4750 -0.1515  0.2295
  515MOL0     C69452   9.689   1.139   4.886  0.6438 -0.3424 -0.1945
  515MOL0     C69453   9.816   1.116   4.958  0.0889 -0.2881 -0.3253
  515MOL0     C69454   9.926   1.082   4.995  0.4337  0.6951 -0.9699
  515MOL0     C69455   9.462   0.516   4.882 -0.3384  0.2839  0.2703
  515MOL0     C69456   9.355   0.432   4.867 -0.7450  0.8978 -0.4214
  515MOL0     C69457   9.389   0.282   4.849 -0.8858 -0.3177 -0.2460
  515MOL0     H69458   8.832   0.319   5.089  1.3667 -1.6582 -0.8335
  515MOL0     H69459   8.617   0.216   5.047  2.9561  0.9934  2.5047
  515MOL0     H69460   8.465  -0.015   4.880  2.1880  0.8692  0.6502
  515MOL0     H69461   8.455   0.108   5.000 -1.9018  3.5083  0.6782
  515MOL0     H69462   8.261   0.200   4.883 -0.0917 -0.3332 -0.8083
  515MOL0     H69463   8.231   0.033   4.942 -1.1472  1.5827  1.2972
  515MOL0     H69464   8.314   0.083   4.656  0.1530  0.3247  3.0754
  515MOL0     H69465   8.150   0.116   4.698 -0.5488  0.0144 -0.1335
  515MOL0     H69466   8.269  -0.160   4.739 -0.9761 -0.4150  4.0682
  515MOL0     H69467   8.103  -0.129   4.765  1.3659 -2.0414  0.9143
  515MOL0     H69468   8.076  -0.053   4.517 -0.2245 -1.1852 -1.9472
  515MOL0     H69469   8.241  -0.090   4.495  0.8400 -1.9557  0.4915
  515MOL0     H69470   8.195  -0.314   4.613  2.8229  3.1048 -0.0861
  515MOL0     H69471   8.030  -0.294   4.562 -0.2764 -1.7270 -1.1601
  515MOL0     H69472   8.265  -0.276   4.359  1.6533 -2.3858  1.6706
  515MOL0     H69473   8.090  -0.263   4.324  1.0162  0.6115 -0.2777
  515MOL0     H69474   8.064  -0.507   4.402 -0.2631 -0.2800 -0.1476
  515MOL0     H69475   8.164  -0.486   4.253  1.7201 -0.2066 -0.6453
  515MOL0     H69476   8.400  -0.543   4.253  3.0067  2.1315  0.1142
  515MOL0     H69477   8.652  -0.670   4.493 -2.0955 -1.0158 -2.2307
  515MOL0     H69478   8.643  -0.623   4.317 -0.5056  1.0092 -1.7171
  515MOL0     H69479   8.675  -0.382   4.411  3.1541  1.0453 -2.2639
  515MOL0     H69480   8.725  -0.462   4.570  0.9837  2.2350 -0.3758
  515MOL0     H69481   8.912  -0.406   4.410 -2.0807  0.4251  0.5052
  515MOL0     H69482   8.862  -0.533   4.300  0.5872  0.0084 -0.3913
  515MOL0     H69483   8.898  -0.700   4.463 -0.2706 -0.8748  2.4028
  515MOL0     H69484   8.915  -0.590   4.595  2.4588 -1.7108  1.6262
  515MOL0     H69485   9.328  -0.618   4.442 -0.0537  0.6904 -0.0788
  515MOL0     H69486   9.481  -0.750   4.564  0.8737  2.1949  2.3315
  515MOL0     H69487   9.783  -1.008   4.739  1.0225 -2.7914  0.7546
  515MOL0     H69488   9.935  -1.129   4.910  1.6438 -0.2410  4.3316
  515MOL0     H69489   9.948  -0.929   5.334 -0.1443 -0.7217  2.7324
  515MOL0     H69490   9.841  -1.073   5.330 -0.8201 -0.5139 -2.3232
  515MOL0     H69491  10.049  -1.223   5.312 -1.0474  0.1482 -2.2836
  515MOL0     H69492  10.157  -1.091   5.315 -0.2420  1.6815 -1.5931
  515MOL0     H69493  10.168  -1.151   5.536 -0.4390  0.7339 -0.1448
  515MOL0     H69494  10.069  -1.002   5.518 -0.7562  0.1012 -1.4044
  515MOL0     H69495   9.923  -1.269   5.542 -2.3852  1.4257 -2.4388
  515MOL0     H69496   9.867  -1.105   5.575  0.3528  0.5931 -0.2678
  515MOL0     H69497  10.025  -1.084   5.758  0.3482  0.4480 -1.4043
  515MOL0     H69498  10.075  -1.252   5.744 -0.8449 -0.1592  1.5431
  515MOL0     H69499   9.896  -1.185   5.916 -1.4682 -1.0025  0.8306
  515MOL0     H69500   9.793  -1.133   5.787  1.5396  1.6644 -1.8259
  515MOL0     H69501   9.880  -1.433   5.798 -0.8080 -0.5851  0.9775
  515MOL0     H69502   9.758  -1.369   5.707  1.8054 -1.7402 -0.8489
  515MOL0     H69503   9.674  -1.478   5.914  0.1310  0.2450 -0.9948
  515MOL0     H69504   9.771  -1.356   6.006 -1.2204  1.4409  0.5497
  515MOL0     H69505   9.737  -0.874   5.208  0.9140  0.7939  0.5127
  515MOL0     H69506   9.579  -0.802   5.048  0.5600  2.9358 -2.2623
  515MOL0     H69507   9.158  -0.881   4.817 -2.1444  2.4970  1.6602
  515MOL0     H69508   9.002  -0.765   4.681  1.0375  2.0369  1.4134
  515MOL0     H69509   8.656   0.237   4.630 -0.6437 -1.1098  0.4180
  515MOL0     H69510   8.873   0.362   4.651  1.6322  3.0553  1.2975
  515MOL0     H69511   9.110   0.660   4.872 -0.2995 -1.6371  0.0094
  515MOL0     H69512   9.303   0.809   4.907 -0.1591  0.6362 -2.6182
  515MOL0     H69513   9.505   0.912   4.830  0.0895  2.3658  1.2721
  515MOL0     H69514   9.668   0.868   4.847 -0.0105  0.3078 -0.3015
  515MOL0     H69515   9.640   0.918   5.090  1.9571 -1.2213 -2.5553
  515MOL0     H69516   9.465   0.934   5.069 -0.0484  1.9303 -0.3425
  515MOL0     H69517   9.571   1.169   5.063  1.0025  0.7083 -0.3953
  515MOL0     H69518   9.474   1.128   4.931 -0.6592 -2.3072  1.3224
  515MOL0     H69519   9.682   1.083   4.792  0.7664 -0.3145 -0.2199
  515MOL0     H69520   9.673   1.244   4.861 -2.9050 -0.1875  1.9610
  515MOL0     H69521  10.025   1.059   5.029 -0.1904 -1.3070 -0.3784
  515MOL0     H69522   9.561   0.480   4.907 -0.3596 -1.0948 -1.4317
  515MOL0     H69523   9.338   0.220   4.924  0.5169 -1.2266 -0.0171
  515MOL0     H69524   9.370   0.242   4.749  0.8080 -3.3025  0.5166
  515MOL0     H69525   9.495   0.259   4.860 -1.3500 -2.9502 -0.5843
  516MOL0     O69526  10.660   8.404   1.859  0.0627 -0.2054 -0.0876
  516MOL0     C69527  10.543   8.417   1.890  0.3421 -0.8482 -0.2172
  516MOL0     O69528  10.487   8.518   1.960 -0.4578  0.0516 -0.5590
  516MOL0     C69529  10.578   8.618   2.000 -0.4370  0.8509 -0.7090
  516MOL0     C69530  10.665   8.682   1.912  0.0930 -0.0392 -0.7965
  516MOL0     C69531  10.745   8.784   1.968  0.3723  0.2130  0.1160
  516MOL0     C69532  10.742   8.813   2.104  0.2322 -0.0962 -0.3879
  516MOL0     O69533  10.837   8.893   2.161  0.9071  0.4290 -0.2431
  516MOL0     C69534  10.968   8.876   2.127  0.5962  0.1007  0.1268
  516MOL0     C69535  11.001   9.003   2.042 -0.9668  0.3539 -0.4790
  516MOL0     C69536  11.141   9.019   1.979 -0.5961  0.9109 -0.2927
  516MOL0     C69537  11.259   9.012   2.086  0.0505  0.0115 -0.3001
  516MOL0     C69538  11.403   9.018   2.037  0.1291  0.1313  0.6375
  516MOL0     C69539  11.449   9.144   1.972 -0.4369 -0.0725  0.7845
  516MOL0     C69540  11.606   9.137   1.945 -0.3992  0.1690 -0.3065
  516MOL0     C69541  11.655   9.275   1.927 -0.3604 -1.0821 -0.6681
  516MOL0     N69542  11.800   9.287   1.956  0.8145  0.3625 -0.3450
  516MOL0     C69543  11.852   9.324   2.070 -0.7810 -0.4121 -0.0675
  516MOL0     C69544  11.983   9.291   2.069 -0.1510 -0.4753  1.4750
  516MOL0     C69545  12.073   9.301   2.189 -0.6263 -0.3263 -0.9554
  516MOL0     C69546  12.217   9.283   2.143  0.5257  0.2949  0.0180
  516MOL0     C69547  12.315   9.280   2.261  0.1988 -0.2234  0.2966
  516MOL0     C69548  12.454   9.237   2.224 -0.2488 -0.1964  0.1834
  516MOL0     O69549  12.550   9.304   2.308  0.5989  0.6774 -0.3371
  516MOL0     C69550  12.682   9.274   2.283  0.0545  0.5122 -1.0747
  516MOL0     C69551  12.723   9.185   2.181  0.4878  0.2241 -0.4306
  516MOL0     C69552  12.860   9.159   2.161  0.5828 -0.4327 -0.2038
  516MOL0     C69553  12.961   9.223   2.239  0.6402  0.1471 -1.0910
  516MOL0     C69554  13.102   9.186   2.228 -0.6390  0.2178 -0.3637
  516MOL0     O69555  13.131   9.063   2.181  0.4702  0.6286 -0.3028
  516MOL0     C69556  13.268   9.035   2.175  0.8313  0.1413  0.3600
  516MOL0     C69557  13.357   9.099   2.086 -0.3556 -0.1387 -0.3673
  516MOL0     C69558  13.491   9.061   2.065  0.2776 -0.1826  0.8498
  516MOL0     C69559  13.542   8.956   2.147 -0.1580  0.4505  0.8384
  516MOL0     O69560  13.668   8.898   2.136  0.9586  0.4049  0.1941
  516MOL0     C69561  13.766   8.935   2.043 -0.3056  0.3535  0.2914
  516MOL0     C69562  13.891   8.846   2.045  0.0055 -0.2111  0.6985
  516MOL0     C69563  13.998   8.906   1.955 -0.3964 -0.4852  0.3592
  516MOL0     C69564  14.131   8.825   1.949 -0.2778 -0.7059  0.6972
  516MOL0     C69565  14.225   8.846   2.069  0.2782 -0.6334  1.0175
  516MOL0     C69566  14.371   8.800   2.047  0.1823  0.8457  0.2863
  516MOL0     C69567  14.447   8.798   2.180 -0.2595  0.8329  0.4074
  516MOL0     C69568  14.552   8.678   2.205 -0.8614  0.2381  1.2505
  516MOL0    Cl69569  14.663   8.682   2.068 -0.7159 -0.0716 -0.4162
  516MOL0     C69570  13.450   8.891   2.234 -0.6349  0.5366  0.2176
  516MOL0     C69571  13.318   8.924   2.244 -0.0925  0.7756 -0.5991
  516MOL0     O69572  13.179   9.263   2.287 -0.5277  0.1233  0.1551
  516MOL0     C69573  12.910   9.311   2.340  0.1643  0.3232  0.1068
  516MOL0     C69574  12.773   9.338   2.359 -0.0365 -0.2146  0.7636
  516MOL0     N69575  12.005   9.236   1.936 -0.0668  0.2622  0.0935
  516MOL0     N69576  11.893   9.231   1.874 -0.3448  0.1386 -0.5575
  516MOL0     C69577  10.654   8.743   2.189 -1.1320 -0.1269 -0.3572
  516MOL0     C69578  10.573   8.651   2.133  0.7155 -0.1608 -0.4671
  516MOL0     C69579  10.451   8.304   1.847 -0.1966 -0.3042 -0.1086
  516MOL0     C69580  10.320   8.303   1.892  0.0679 -0.3280 -0.6289
  516MOL0     C69581  10.226   8.220   1.855 -0.6805 -0.0425  0.4006
  516MOL0     C69582  10.261   8.110   1.776  0.0564  0.6554 -0.6934
  516MOL0     O69583  10.173   8.011   1.739  0.1394  0.1952 -0.0440
  516MOL0     C69584  10.041   8.013   1.786  0.7129 -0.1079 -0.5660
  516MOL0     C69585   9.958   7.901   1.728 -0.6139 -0.3740  0.4465
  516MOL0     C69586   9.799   7.928   1.729 -1.0361  0.4972 -0.4173
  516MOL0     C69587   9.765   7.906   1.872  0.5094  0.1035  0.1372
  516MOL0     C69588   9.619   7.921   1.882  1.1890  0.2279 -0.2610
  516MOL0     C69589   9.497   7.928   1.897 -0.7690  0.1371  0.1979
  516MOL0     C69590  10.392   8.091   1.739  0.1792 -0.7827  0.0891
  516MOL0     C69591  10.487   8.192   1.764  0.2498  0.3263 -0.4047
  516MOL0     C69592  10.629   8.155   1.709 -0.7948  0.1071 -1.0437
  516MOL0     H69593  10.685   8.654   1.809  2.5641 -2.8078  0.3050
  516MOL0     H69594  10.819   8.840   1.911 -0.7527  0.7987 -0.8002
  516MOL0     H69595  11.032   8.876   2.216  0.4949  0.6572  0.2010
  516MOL0     H69596  10.978   8.787   2.063  0.2501 -0.4362  0.8061
  516MOL0     H69597  10.984   9.090   2.106 -3.4852 -1.5797  1.7401
  516MOL0     H69598  10.925   9.007   1.963  0.9330  0.0155 -2.4080
  516MOL0     H69599  11.144   9.116   1.929  0.7493  1.0603  0.0552
  516MOL0     H69600  11.159   8.938   1.907  1.4086  0.3982  0.7221
  516MOL0     H69601  11.243   9.094   2.156  1.1999 -0.7047  0.8520
  516MOL0     H69602  11.252   8.926   2.154 -0.3603  1.8943  2.1977
  516MOL0     H69603  11.469   8.993   2.120  3.2091  2.4022 -0.9466
  516MOL0     H69604  11.426   8.937   1.967  3.3801 -0.7924  2.5716
  516MOL0     H69605  11.394   9.155   1.878  1.3837 -3.1980 -0.7951
  516MOL0     H69606  11.420   9.233   2.029 -0.2084  0.6698 -0.2446
  516MOL0     H69607  11.606   9.081   1.851 -2.1093 -0.4266 -0.0011
  516MOL0     H69608  11.665   9.084   2.020 -0.6548 -0.6267 -0.6557
  516MOL0     H69609  11.641   9.324   1.830  1.7912  1.4924  0.2128
  516MOL0     H69610  11.595   9.327   2.002 -2.1575 -2.6587 -0.9359
  516MOL0     H69611  11.795   9.372   2.149 -1.6129 -0.9236 -0.3380
  516MOL0     H69612  12.048   9.388   2.250  0.9902 -0.5496  0.0955
  516MOL0     H69613  12.047   9.215   2.252 -1.5417  1.0030  0.5478
  516MOL0     H69614  12.227   9.190   2.086  1.2468 -1.8547  3.3834
  516MOL0     H69615  12.237   9.358   2.066 -0.3366  0.2503 -0.2663
  516MOL0     H69616  12.271   9.221   2.342  1.3530 -0.9870  0.3793
  516MOL0     H69617  12.311   9.387   2.283  0.8428 -0.1536  0.0932
  516MOL0     H69618  12.481   9.279   2.126 -1.0170  0.0327  0.0623
  516MOL0     H69619  12.472   9.130   2.231  0.7170 -0.0842 -0.2846
  516MOL0     H69620  12.656   9.118   2.130  1.6739 -0.9480 -0.5146
  516MOL0     H69621  12.893   9.082   2.092  2.4570  1.0941 -1.0935
  516MOL0     H69622  13.307   9.169   2.019 -2.9069 -0.9891  0.5379
  516MOL0     H69623  13.533   9.092   1.970  0.3718 -1.1036  0.5827
  516MOL0     H69624  13.724   8.928   1.942 -0.5661  0.8426  0.3616
  516MOL0     H69625  13.810   9.028   2.080  0.1974  0.0503  0.4508
  516MOL0     H69626  13.934   8.840   2.146  3.3854  1.6513 -0.4735
  516MOL0     H69627  13.861   8.749   2.005 -1.5009 -0.1399  1.5957
  516MOL0     H69628  13.946   8.897   1.859  0.0066  0.7673  0.0049
  516MOL0     H69629  14.017   9.007   1.992  1.8615 -1.3515  1.7585
  516MOL0     H69630  14.181   8.842   1.853 -1.3419 -1.8476 -0.0875
  516MOL0     H69631  14.105   8.719   1.946  1.4428 -1.1358 -0.0919
  516MOL0     H69632  14.181   8.796   2.156 -0.6083 -0.2786  0.7806
  516MOL0     H69633  14.227   8.954   2.088 -0.6145  0.3744 -3.4986
  516MOL0     H69634  14.353   8.696   2.017 -0.2015  0.4080  1.9422
  516MOL0     H69635  14.428   8.856   1.972  0.7219 -0.2235 -0.1300
  516MOL0     H69636  14.378   8.796   2.265 -0.4059 -0.0503  0.2805
  516MOL0     H69637  14.502   8.891   2.194  1.6743 -0.4288  1.7544
  516MOL0     H69638  14.604   8.704   2.298  1.9474  1.8168 -0.6152
  516MOL0     H69639  14.502   8.580   2.212 -0.5194  0.1237  2.2259
  516MOL0     H69640  13.501   8.821   2.300  2.2234  2.8430  0.6542
  516MOL0     H69641  13.254   8.869   2.312  0.3782  3.2749  2.0593
  516MOL0     H69642  12.985   9.366   2.395  2.2054 -2.4641  0.3112
  516MOL0     H69643  12.748   9.407   2.438 -0.6098  1.5065 -0.8533
  516MOL0     H69644  10.666   8.749   2.297 -0.4825 -1.4704 -0.3252
  516MOL0     H69645  10.505   8.593   2.194  0.8866  1.4816  1.3908
  516MOL0     H69646  10.277   8.377   1.959  3.5884 -0.1094  1.7085
  516MOL0     H69647  10.126   8.228   1.897 -0.1383 -0.5232  1.8466
  516MOL0     H69648  10.004   8.111   1.755  3.1184  1.6026  1.6246
  516MOL0     H69649  10.037   8.002   1.894 -2.6173  1.3602 -0.4008
  516MOL0     H69650   9.976   7.799   1.763  1.2624 -1.3912 -2.9702
  516MOL0     H69651  10.000   7.898   1.627  0.5462 -0.6682  0.9244
  516MOL0     H69652   9.748   7.853   1.667  0.5788 -0.6528 -0.4161
  516MOL0     H69653   9.776   8.030   1.699 -0.2993  0.8727  0.2799
  516MOL0     H69654   9.798   7.816   1.923 -0.2673  0.5611  1.5056
  516MOL0     H69655   9.804   7.991   1.928  0.0073 -0.4227  1.3128
  516MOL0     H69656   9.390   7.937   1.898 -0.9658 -1.6164 -0.8260
  516MOL0     H69657  10.412   8.005   1.676 -1.1527  0.7817 -2.6456
  516MOL0     H69658  10.648   8.048   1.695  0.0663 -0.3186  2.3516
  516MOL0     H69659  10.649   8.225   1.627  5.1944  0.5535  0.3054
  516MOL0     H69660  10.712   8.172   1.779  0.7309 -1.5456 -2.3603
  517MOL0     O69661   1.097   5.720   9.186  0.5129  0.8702 -0.5551
  517MOL0     C69662   1.031   5.829   9.178 -0.1442  0.0323  1.2336
  517MOL0     O69663   1.085   5.945   9.124 -0.0656 -0.5643 -0.0230
  517MOL0     C69664   1.225   5.957   9.111 -0.2032 -0.1668  0.1322
  517MOL0     C69665   1.301   5.982   9.223 -0.8039 -0.6576  0.1028
  517MOL0     C69666   1.441   5.993   9.221 -0.6123 -0.0010  0.6866
  517MOL0     C69667   1.514   5.962   9.097 -0.2245  0.0100 -0.0794
  517MOL0     O69668   1.648   5.986   9.080  0.3716 -0.2681  0.0750
  517MOL0     C69669   1.728   5.987   9.205  0.1621  0.6091  0.3526
  517MOL0     C69670   1.860   6.043   9.172 -0.3969 -0.6218 -0.2988
  517MOL0     C69671   1.963   5.989   9.272  0.1662 -0.7372  0.8862
  517MOL0     C69672   2.099   6.048   9.227  0.2123  0.6660  0.5321
  517MOL0     C69673   2.217   5.966   9.290 -0.2534  0.3368  0.0322
  517MOL0     C69674   2.349   6.017   9.234 -0.5050  1.0731 -0.9058
  517MOL0     C69675   2.470   5.961   9.308  0.3432 -0.1898  0.4916
  517MOL0     C69676   2.608   6.042   9.281  0.6488 -0.9192  0.2105
  517MOL0     N69677   2.615   6.151   9.382  1.1609  0.3075  0.4874
  517MOL0     C69678   2.694   6.141   9.494 -0.0442 -0.3097 -0.6387
  517MOL0     C69679   2.634   6.237   9.572 -0.2366  0.0181 -0.1075
  517MOL0     C69680   2.693   6.274   9.701 -0.6284 -0.1388  0.9486
  517MOL0     C69681   2.844   6.307   9.687  0.6656 -0.4180 -0.0784
  517MOL0     C69682   2.894   6.375   9.812 -0.7466  0.1783 -0.2959
  517MOL0     C69683   3.048   6.362   9.839  0.5931  0.5320 -0.5761
  517MOL0     O69684   3.122   6.417   9.730  0.3541 -0.3183 -0.8101
  517MOL0     C69685   3.258   6.418   9.764  0.4473  0.2179  0.9598
  517MOL0     C69686   3.313   6.370   9.883 -0.0460 -0.3696 -0.6798
  517MOL0     C69687   3.447   6.365   9.899 -0.1730 -0.8104 -0.2297
  517MOL0     C69688   3.532   6.422   9.806 -0.4006 -0.3084 -0.4866
  517MOL0     C69689   3.664   6.445   9.847  0.2953 -0.6166  0.0506
  517MOL0     O69690   3.739   6.520   9.762 -0.6508 -0.4661 -0.5902
  517MOL0     C69691   3.878   6.540   9.782  1.0873 -0.0786  0.3595
  517MOL0     C69692   3.974   6.458   9.836  0.5229 -0.6451 -0.5424
  517MOL0     C69693   4.109   6.496   9.833 -0.3872 -0.0747 -0.2449
  517MOL0     C69694   4.150   6.619   9.780 -0.5681  0.0328  0.1065
  517MOL0     O69695   4.284   6.650   9.788  0.1310  0.6416 -0.3814
  517MOL0     C69696   4.320   6.768   9.847 -1.7616  0.3446 -0.6775
  517MOL0     C69697   4.411   6.709   9.961  0.3650  0.0569  0.3042
  517MOL0     C69698   4.455   6.804  10.068  0.1017  0.4104 -0.4411
  517MOL0     C69699   4.336   6.853  10.156 -0.2278  0.3886 -0.0783
  517MOL0     C69700   4.394   6.957  10.259  0.4092  0.0885  0.8666
  517MOL0     C69701   4.295   7.011  10.362 -0.0587  0.1813 -0.5255
  517MOL0     C69702   4.236   6.905  10.450 -0.5245  0.8257 -0.0911
  517MOL0     C69703   4.156   6.966  10.568  0.0233  0.0774 -0.9597
  517MOL0    Cl69704   3.991   7.021  10.525  0.3064 -0.3966 -0.2337
  517MOL0     C69705   4.053   6.701   9.727 -0.0744 -0.1543 -0.3237
  517MOL0     C69706   3.918   6.663   9.726  0.6025  0.4754  0.4626
  517MOL0     O69707   3.705   6.384   9.946 -0.1519 -0.3988 -0.2603
  517MOL0     C69708   3.476   6.465   9.681 -0.0967  0.3857 -0.3850
  517MOL0     C69709   3.339   6.462   9.661 -0.1667  1.1903  0.1416
  517MOL0     N69710   2.530   6.305   9.511  0.3175  0.4301 -0.2704
  517MOL0     N69711   2.515   6.254   9.392 -0.3066  0.0624 -0.2246
  517MOL0     C69712   1.427   5.920   8.990 -0.7821 -0.9012 -0.2182
  517MOL0     C69713   1.287   5.924   8.996 -0.8416  1.1632 -0.0638
  517MOL0     C69714   0.887   5.828   9.202  0.1651  0.0167  0.0073
  517MOL0     C69715   0.804   5.918   9.130 -0.6378  0.6244 -0.3722
  517MOL0     C69716   0.668   5.912   9.141  0.9428  0.2104  0.7151
  517MOL0     C69717   0.605   5.826   9.226  0.9199 -0.1534  0.8077
  517MOL0     O69718   0.465   5.835   9.235  0.5487 -0.1590 -0.4337
  517MOL0     C69719   0.402   5.756   9.131  0.2694  0.7113  0.5729
  517MOL0     C69720   0.300   5.661   9.192 -0.6750 -0.0433  0.4232
  517MOL0     C69721   0.194   5.733   9.278  0.2150  0.5826 -0.3837
  517MOL0     C69722   0.080   5.795   9.189  0.2932  0.4314 -0.1990
  517MOL0     C69723   0.003   5.694   9.110 -0.3000 -0.1025 -0.1667
  517MOL0     C69724  -0.051   5.603   9.060  1.1751 -0.3601  0.2838
  517MOL0     C69725   0.685   5.729   9.298 -0.1893  0.0914  0.0497
  517MOL0     C69726   0.825   5.735   9.289  0.1868  0.0887  0.3687
  517MOL0     C69727   0.898   5.651   9.384 -0.9112  0.1287  0.3931
  517MOL0     H69728   1.258   6.002   9.321  0.5158 -0.4912  0.6724
  517MOL0     H69729   1.490   6.028   9.312 -2.3105  1.6981  1.0141
  517MOL0     H69730   1.682   6.059   9.273 -2.1897  0.5843 -1.0994
  517MOL0     H69731   1.734   5.884   9.240  1.0834  0.7474  0.6175
  517MOL0     H69732   1.858   6.152   9.181 -2.5541 -0.5604 -0.8964
  517MOL0     H69733   1.888   6.011   9.072 -0.1037 -1.1212 -0.0640
  517MOL0     H69734   1.970   5.880   9.273 -0.4841 -0.7991  2.5043
  517MOL0     H69735   1.938   6.031   9.370 -0.6538  2.2507 -0.4640
  517MOL0     H69736   2.115   6.039   9.120  0.2768 -2.2850  0.7158
  517MOL0     H69737   2.104   6.151   9.264  1.2188 -0.1947  2.9863
  517MOL0     H69738   2.210   5.992   9.396 -0.6407  0.3652 -0.0007
  517MOL0     H69739   2.206   5.857   9.285  0.0464  0.3447 -0.8366
  517MOL0     H69740   2.349   5.983   9.130  1.7316  1.8760 -1.2226
  517MOL0     H69741   2.352   6.126   9.233 -1.5446  1.1099 -1.3551
  517MOL0     H69742   2.487   5.858   9.275 -3.3161 -0.9553  0.6564
  517MOL0     H69743   2.443   5.960   9.414 -3.4000  1.2908 -0.2852
  517MOL0     H69744   2.691   5.973   9.303  1.1993 -0.0845  0.8196
  517MOL0     H69745   2.601   6.077   9.178  2.6210 -0.7059  0.1066
  517MOL0     H69746   2.780   6.082   9.521  0.8968  0.7028 -1.3205
  517MOL0     H69747   2.635   6.358   9.739 -1.4075 -1.5030  2.8868
  517MOL0     H69748   2.672   6.206   9.783 -0.5106  2.6863  3.4934
  517MOL0     H69749   2.904   6.219   9.664  0.1678 -0.7245 -0.2241
  517MOL0     H69750   2.848   6.383   9.608 -0.6953  0.2342  0.4453
  517MOL0     H69751   2.848   6.330   9.900  0.9719 -1.2143 -0.0616
  517MOL0     H69752   2.871   6.482   9.804  0.9952  0.5568 -0.4488
  517MOL0     H69753   3.082   6.258   9.846  2.1968  0.8752 -2.5806
  517MOL0     H69754   3.055   6.411   9.937 -2.9166  2.4201 -1.0916
  517MOL0     H69755   3.261   6.320   9.965 -2.0324 -2.6606 -3.1658
  517MOL0     H69756   3.477   6.324   9.995 -1.7460 -1.6128 -0.0523
  517MOL0     H69757   3.949   6.364   9.884  1.8440 -1.0645 -0.6171
  517MOL0     H69758   4.185   6.443   9.888  1.4109  1.4619 -1.1070
  517MOL0     H69759   4.367   6.836   9.776  1.1222  0.7762  1.4504
  517MOL0     H69760   4.234   6.819   9.892 -1.0651 -0.0790  1.2674
  517MOL0     H69761   4.360   6.620   9.999  0.8099 -2.1952 -3.8145
  517MOL0     H69762   4.498   6.673   9.906 -0.1503 -1.3866  0.3887
  517MOL0     H69763   4.521   6.754  10.140  0.4917  2.7839  0.9635
  517MOL0     H69764   4.506   6.888  10.019 -1.9959  1.9009 -0.2334
  517MOL0     H69765   4.297   6.769  10.214  1.7728 -0.4918  0.0706
  517MOL0     H69766   4.265   6.909  10.095  0.1588  0.9511 -0.0261
  517MOL0     H69767   4.427   7.044  10.201 -0.7910 -0.0083 -0.0053
  517MOL0     H69768   4.474   6.915  10.320 -0.2554 -1.7267  0.5218
  517MOL0     H69769   4.352   7.073  10.432 -0.6511 -0.7825  0.8569
  517MOL0     H69770   4.225   7.082  10.317 -0.2853  0.6996  0.6028
  517MOL0     H69771   4.316   6.843  10.492 -1.0761  0.8439  1.0298
  517MOL0     H69772   4.183   6.839  10.381  0.8650 -0.9767  0.4575
  517MOL0     H69773   4.139   6.891  10.647 -1.3525 -0.4440 -1.7052
  517MOL0     H69774   4.208   7.052  10.611 -1.1170 -0.4006  1.5616
  517MOL0     H69775   4.087   6.795   9.684 -1.7394 -0.3986 -2.3399
  517MOL0     H69776   3.854   6.731   9.671  1.7792 -0.2713 -2.0003
  517MOL0     H69777   3.546   6.504   9.607  2.1567 -1.0613  0.8552
  517MOL0     H69778   3.283   6.499   9.576 -4.6965  0.6849  2.5814
  517MOL0     H69779   1.476   5.890   8.898  0.3450  1.9492 -0.6643
  517MOL0     H69780   1.228   5.897   8.909  0.7268 -0.4670 -0.6769
  517MOL0     H69781   0.844   5.984   9.054  0.9975 -0.8004 -0.7915
  517MOL0     H69782   0.590   5.970   9.093 -0.3760  0.3247  2.8549
  517MOL0     H69783   0.487   5.705   9.085 -1.5589 -0.5434 -1.5874
  517MOL0     H69784   0.350   5.812   9.053 -1.5750 -1.1523  0.3816
  517MOL0     H69785   0.357   5.588   9.250 -0.2191 -0.5436 -0.6218
  517MOL0     H69786   0.251   5.610   9.108  0.6221  0.7209 -0.8500
  517MOL0     H69787   0.238   5.809   9.344  1.8411 -1.8417  1.4723
  517MOL0     H69788   0.152   5.661   9.348  1.2300  0.3293 -0.0163
  517MOL0     H69789   0.009   5.843   9.257 -0.3914 -0.7491 -0.0589
  517MOL0     H69790   0.121   5.872   9.123  2.0057  1.9989  2.4662
  517MOL0     H69791  -0.121   5.524   9.043  1.8331 -1.5023  2.4135
  517MOL0     H69792   0.626   5.659   9.357 -0.3120  0.6968  0.6578
  517MOL0     H69793   0.971   5.719   9.428 -1.2180  1.0370 -0.4532
  517MOL0     H69794   0.845   5.610   9.470 -1.4919 -2.7595 -1.2151
  517MOL0     H69795   0.953   5.570   9.336  3.5640  3.5502 -0.9276
  518MOL0     O69796   1.810   4.919  10.995 -0.3634  0.1572  0.0254
  518MOL0     C69797   1.785   4.852  10.894 -0.3881  0.9466 -0.4002
  518MOL0     O69798   1.869   4.759  10.837  0.3474 -0.2784 -0.2688
  518MOL0     C69799   2.006   4.778  10.847  1.0587  0.1821  0.7112
  518MOL0     C69800   2.070   4.897  10.887  0.6299 -0.2018  0.0024
  518MOL0     C69801   2.207   4.898  10.899 -0.3857 -0.8570 -0.2663
  518MOL0     C69802   2.282   4.790  10.855  0.1341 -1.2416 -0.0963
  518MOL0     O69803   2.417   4.797  10.848 -0.0805 -0.5861 -0.1971
  518MOL0     C69804   2.477   4.776  10.711 -0.0934 -1.0654 -0.3817
  518MOL0     C69805   2.620   4.722  10.736  0.3763  0.2562  0.5677
  518MOL0     C69806   2.705   4.703  10.607 -0.5182 -0.6128 -0.3781
  518MOL0     C69807   2.853   4.670  10.643  0.2602  0.1237  0.4600
  518MOL0     C69808   2.931   4.775  10.725  0.3499 -0.0609  0.1672
  518MOL0     C69809   2.993   4.897  10.643  0.2588 -0.9344 -0.3765
  518MOL0     C69810   3.129   4.956  10.680 -0.0467 -0.2913 -0.2232
  518MOL0     C69811   3.246   4.870  10.635 -0.5388  0.0342  0.3397
  518MOL0     N69812   3.383   4.920  10.662 -0.5374 -0.5744 -0.3949
  518MOL0     C69813   3.448   5.007  10.579  0.3031  0.2275  0.0634
  518MOL0     C69814   3.567   5.034  10.645 -0.1463 -0.2360  0.0346
  518MOL0     C69815   3.682   5.114  10.585  0.1607 -0.5783 -0.1067
  518MOL0     C69816   3.817   5.083  10.662 -0.5112 -0.6181  0.4468
  518MOL0     C69817   3.931   5.147  10.570 -0.3134 -0.5595  0.4472
  518MOL0     C69818   4.066   5.133  10.643 -0.4156  0.0675 -0.0787
  518MOL0     O69819   4.156   5.194  10.556 -0.3200 -0.6123  0.2515
  518MOL0     C69820   4.269   5.240  10.621  0.3668  0.1009  0.2148
  518MOL0     C69821   4.331   5.189  10.732  0.4306 -0.1343  0.0969
  518MOL0     C69822   4.453   5.243  10.782 -0.3176  0.9483 -0.1637
  518MOL0     C69823   4.524   5.339  10.709 -0.6801 -0.4698  0.5081
  518MOL0     C69824   4.656   5.398  10.750  0.6777 -0.4430 -0.6878
  518MOL0     O69825   4.718   5.321  10.843  0.3887  0.0229 -0.1409
  518MOL0     C69826   4.843   5.371  10.891  0.7712 -0.5199  0.2269
  518MOL0     C69827   4.959   5.348  10.818  0.3562  0.6292 -0.3748
  518MOL0     C69828   5.080   5.390  10.861  0.0913 -0.4295 -0.0913
  518MOL0     C69829   5.092   5.450  10.987 -0.3092  0.8556 -0.3557
  518MOL0     O69830   5.225   5.473  11.019 -0.1005 -0.8239 -0.9216
  518MOL0     C69831   5.254   5.462  11.161 -0.1907  0.0730 -0.8086
  518MOL0     C69832   5.396   5.502  11.174  0.0860  0.2600 -0.5689
  518MOL0     C69833   5.442   5.484  11.321  0.4341 -0.2369  0.1879
  518MOL0     C69834   5.470   5.337  11.362 -0.3342  0.0255  0.6331
  518MOL0     C69835   5.504   5.329  11.508 -0.5529 -0.4040  0.4475
  518MOL0     C69836   5.550   5.191  11.541 -0.3118  0.0790 -0.8940
  518MOL0     C69837   5.619   5.184  11.678  0.1636  0.6691  1.0288
  518MOL0     C69838   5.672   5.043  11.702 -0.0033 -0.5384  0.4127
  518MOL0    Cl69839   5.810   4.984  11.592 -0.2593 -0.2385  0.1992
  518MOL0     C69840   4.972   5.469  11.067  0.3525  0.9496 -0.0679
  518MOL0     C69841   4.847   5.429  11.011 -0.0559  0.3458 -0.2767
  518MOL0     O69842   4.699   5.502  10.704 -0.0793  0.2416 -0.0545
  518MOL0     C69843   4.456   5.385  10.591  0.0105 -0.1552  0.7273
  518MOL0     C69844   4.328   5.336  10.553 -0.2230 -0.5397 -0.0882
  518MOL0     N69845   3.555   4.962  10.765 -0.0636  0.3788 -0.1376
  518MOL0     N69846   3.442   4.889  10.775 -0.6033 -0.3743 -0.2962
  518MOL0     C69847   2.219   4.675  10.808  0.0354 -0.3687 -0.1238
  518MOL0     C69848   2.080   4.671  10.806 -0.3677  0.1200  0.4681
  518MOL0     C69849   1.650   4.877  10.851  0.1392 -0.0972 -0.6338
  518MOL0     C69850   1.542   4.882  10.943  0.0520 -0.5033 -0.3700
  518MOL0     C69851   1.414   4.914  10.892 -0.4865 -0.9617 -0.8290
  518MOL0     C69852   1.389   4.921  10.755 -1.2048  0.2755 -0.9772
  518MOL0     O69853   1.267   4.934  10.702  0.4642 -0.5842  0.3582
  518MOL0     C69854   1.159   4.880  10.770 -0.3106  0.2410 -0.4036
  518MOL0     C69855   1.040   4.860  10.675  0.2131  0.8768 -0.4971
  518MOL0     C69856   0.976   5.002  10.663 -0.2567 -0.1509 -0.0024
  518MOL0     C69857   0.849   5.005  10.587 -0.7028 -0.2607  0.7893
  518MOL0     C69858   0.730   4.961  10.664  0.2229  0.3835  0.0477
  518MOL0     C69859   0.635   4.938  10.734 -0.8794 -0.5023  1.1508
  518MOL0     C69860   1.494   4.917  10.670 -0.7698 -0.2772 -0.4739
  518MOL0     C69861   1.631   4.901  10.715 -0.1966  0.3002  0.0306
  518MOL0     C69862   1.746   4.915  10.612  0.2298 -0.9787  0.1446
  518MOL0     H69863   2.017   4.991  10.892  1.2657  0.1696 -0.0723
  518MOL0     H69864   2.253   4.994  10.919 -2.1819 -0.1961  0.9712
  518MOL0     H69865   2.418   4.703  10.655 -1.4496  1.4259 -2.4181
  518MOL0     H69866   2.489   4.874  10.663  2.4378 -0.2673  1.6333
  518MOL0     H69867   2.601   4.623  10.779 -1.8283 -0.2806 -1.4042
  518MOL0     H69868   2.677   4.783  10.807  3.2101  0.6705 -1.8566
  518MOL0     H69869   2.690   4.791  10.544 -1.3313 -2.4736 -2.9155
  518MOL0     H69870   2.660   4.624  10.547 -3.7832  1.3063 -0.7048
  518MOL0     H69871   2.856   4.576  10.699  3.6463  0.7149  1.4361
  518MOL0     H69872   2.918   4.646  10.558  0.4825 -2.0600  1.1747
  518MOL0     H69873   2.872   4.825  10.803 -0.5671  0.6510 -0.9602
  518MOL0     H69874   3.014   4.731  10.782  0.8955 -1.6340 -1.7718
  518MOL0     H69875   2.991   4.867  10.538  2.6169 -3.1413  0.1059
  518MOL0     H69876   2.924   4.978  10.665  0.2196 -1.3211  1.0433
  518MOL0     H69877   3.154   4.972  10.785 -1.8183  0.7965  0.0807
  518MOL0     H69878   3.124   5.053  10.631 -1.6824 -0.8386 -1.2149
  518MOL0     H69879   3.232   4.770  10.675  1.2268 -0.9680 -1.3743
  518MOL0     H69880   3.239   4.861  10.526  2.0982 -2.6186  0.2658
  518MOL0     H69881   3.411   5.036  10.481 -3.1653 -1.4309  0.7266
  518MOL0     H69882   3.702   5.099  10.479  0.1331 -1.8177  0.0384
  518MOL0     H69883   3.653   5.219  10.595 -1.2125 -1.1163  2.6973
  518MOL0     H69884   3.815   5.130  10.760 -0.1991  0.9560 -0.2586
  518MOL0     H69885   3.825   4.975  10.674 -3.3062 -0.6535  3.3478
  518MOL0     H69886   3.914   5.254  10.556 -0.7380 -0.8736 -1.8126
  518MOL0     H69887   3.949   5.108  10.469  0.1416  1.3864 -0.2663
  518MOL0     H69888   4.088   5.028  10.662 -2.4189 -0.8961 -2.5157
  518MOL0     H69889   4.062   5.189  10.737 -1.1035  0.0693 -0.0994
  518MOL0     H69890   4.292   5.102  10.785 -0.4269  0.6472  0.7680
  518MOL0     H69891   4.496   5.195  10.869  0.1905  6.2272  2.9184
  518MOL0     H69892   4.946   5.309  10.717 -0.5222  2.8219 -1.1871
  518MOL0     H69893   5.164   5.380  10.793 -1.5268  1.6358 -2.5992
  518MOL0     H69894   5.190   5.531  11.216  1.8030  1.6891 -0.4184
  518MOL0     H69895   5.243   5.359  11.198  0.3667  0.6018  0.9113
  518MOL0     H69896   5.459   5.432  11.119 -2.5097 -3.2731  0.5626
  518MOL0     H69897   5.405   5.605  11.138  0.9203 -0.0466 -1.2689
  518MOL0     H69898   5.538   5.534  11.335  1.2155 -1.5534 -0.3110
  518MOL0     H69899   5.362   5.523  11.385  0.8666 -0.0941  0.6472
  518MOL0     H69900   5.550   5.305  11.295 -2.0278  0.2374 -1.6078
  518MOL0     H69901   5.382   5.276  11.342  0.4674 -0.7397 -0.6982
  518MOL0     H69902   5.415   5.356  11.565  0.1460  3.2558  0.0897
  518MOL0     H69903   5.579   5.407  11.527 -1.5576  1.3120 -1.9848
  518MOL0     H69904   5.474   5.113  11.543 -0.4425  0.1766  1.8530
  518MOL0     H69905   5.626   5.158  11.468  1.1808  1.3829  0.0008
  518MOL0     H69906   5.547   5.193  11.759 -1.0090 -2.6258  0.5090
  518MOL0     H69907   5.700   5.255  11.690  2.0073 -1.1695  0.0815
  518MOL0     H69908   5.718   5.030  11.801  2.3611  0.2866 -0.5196
  518MOL0     H69909   5.586   4.975  11.699 -1.1836  0.9388 -0.2358
  518MOL0     H69910   4.972   5.490  11.173 -0.7385 -0.4837  0.2483
  518MOL0     H69911   4.758   5.435  11.073  0.2954  1.2876  0.1486
  518MOL0     H69912   4.500   5.471  10.539 -1.8241  0.0488 -0.6028
  518MOL0     H69913   4.282   5.379  10.464 -0.5042 -2.1056 -0.7284
  518MOL0     H69914   2.279   4.593  10.769 -1.7192 -1.9300  0.3636
  518MOL0     H69915   2.038   4.579  10.766  0.6255  0.2039 -0.8349
  518MOL0     H69916   1.551   4.865  11.050  0.8818 -2.2769 -0.6778
  518MOL0     H69917   1.332   4.924  10.962  0.5781 -1.3522  0.5094
  518MOL0     H69918   1.124   4.946  10.850  2.4132 -1.3406  2.2811
  518MOL0     H69919   1.184   4.788  10.823 -0.7157  1.5269  2.2243
  518MOL0     H69920   0.970   4.792  10.724  1.1258 -0.0321 -0.4296
  518MOL0     H69921   1.067   4.810  10.582  3.8341  0.1392  0.7784
  518MOL0     H69922   1.042   5.040  10.585 -2.4911  0.2335 -1.8035
  518MOL0     H69923   0.983   5.060  10.755 -2.0215 -0.1817  0.1859
  518MOL0     H69924   0.830   5.107  10.554 -1.3048 -0.7594 -0.4976
  518MOL0     H69925   0.870   4.937  10.503  2.1904  0.9458  0.3858
  518MOL0     H69926   0.558   4.935  10.809 -0.1112 -2.0785  1.9145
  518MOL0     H69927   1.468   4.935  10.566 -2.1832  0.1314 -0.0804
  518MOL0     H69928   1.710   4.978  10.530 -2.0238 -1.8642  0.3749
  518MOL0     H69929   1.834   4.964  10.654  0.4180 -1.4687  0.3204
  518MOL0     H69930   1.776   4.816  10.577 -0.1950 -1.7729  1.9054
  519MOL0     O69931   8.869   3.565   6.562 -0.0888  0.0806  0.9299
  519MOL0     C69932   8.868   3.657   6.642 -0.0739 -1.1240  0.2178
  519MOL0     O69933   8.763   3.695   6.722  0.6220  0.3832 -0.4453
  519MOL0     C69934   8.637   3.630   6.716 -0.1339 -0.2221  1.1500
  519MOL0     C69935   8.577   3.568   6.600  0.6451 -0.5209  0.0347
  519MOL0     C69936   8.452   3.506   6.606  0.3493  0.0373 -0.1282
  519MOL0     C69937   8.386   3.492   6.738  0.4280 -0.1553 -0.0872
  519MOL0     O69938   8.267   3.416   6.749 -0.9345  0.1963 -0.4977
  519MOL0     C69939   8.192   3.399   6.876 -0.6601  1.1331  0.7836
  519MOL0     C69940   8.105   3.279   6.853  0.6117  0.2766  0.4992
  519MOL0     C69941   7.992   3.318   6.755 -0.2778 -0.0909 -0.2811
  519MOL0     C69942   7.897   3.197   6.716  0.7002 -0.2691  0.6459
  519MOL0     C69943   7.759   3.238   6.664 -0.6049 -0.5839  0.6479
  519MOL0     C69944   7.684   3.332   6.757 -0.1047  0.1827 -0.3620
  519MOL0     C69945   7.543   3.339   6.709  0.3350 -0.3811  0.0564
  519MOL0     C69946   7.461   3.439   6.812 -0.3223 -0.1058  0.5762
  519MOL0     N69947   7.489   3.403   6.958  0.3564  0.5305  0.1838
  519MOL0     C69948   7.474   3.279   7.015 -0.2777 -0.0436  1.0917
  519MOL0     C69949   7.513   3.295   7.145 -0.1676  0.2247 -0.4264
  519MOL0     C69950   7.520   3.171   7.238  1.1741 -0.7545 -0.1251
  519MOL0     C69951   7.645   3.086   7.212 -0.2795 -0.8374  0.2138
  519MOL0     C69952   7.670   2.968   7.311  0.5592  1.5670  1.1670
  519MOL0     C69953   7.796   2.877   7.276 -0.3124 -0.5328  0.3579
  519MOL0     O69954   7.903   2.955   7.333 -0.1056  0.2878  1.0491
  519MOL0     C69955   8.019   2.963   7.273  0.1587  0.3235 -0.0142
  519MOL0     C69956   8.078   3.087   7.248  0.2207 -0.4567  0.7630
  519MOL0     C69957   8.205   3.092   7.193  0.4355 -0.6480  0.4603
  519MOL0     C69958   8.277   2.974   7.165  0.8236  1.2349 -0.2668
  519MOL0     C69959   8.415   2.979   7.109  0.9363  0.2550 -0.3737
  519MOL0     O69960   8.462   3.097   7.061  0.8548  0.4385  0.0080
  519MOL0     C69961   8.589   3.132   7.027 -0.0078 -0.0102  0.1984
  519MOL0     C69962   8.609   3.260   6.962  0.1934  0.1886  0.2581
  519MOL0     C69963   8.734   3.318   6.943 -0.4890 -0.2523  0.4748
  519MOL0     C69964   8.845   3.241   6.979 -0.0120 -0.5496 -0.7788
  519MOL0     O69965   8.973   3.291   6.974 -0.3648 -0.5662  0.3339
  519MOL0     C69966   8.985   3.438   6.956 -0.7602  0.9530  0.7866
  519MOL0     C69967   9.128   3.487   6.924 -0.5465  0.1292 -0.2092
  519MOL0     C69968   9.223   3.428   7.027 -0.6304 -0.0516 -0.7140
  519MOL0     C69969   9.353   3.511   7.028 -0.0965 -0.2418  0.1963
  519MOL0     C69970   9.454   3.465   7.139  0.8101  0.5878  0.5458
  519MOL0     C69971   9.526   3.329   7.104 -0.0694  0.1073 -0.0542
  519MOL0     C69972   9.628   3.275   7.213 -0.0884 -0.0996  0.0154
  519MOL0     C69973   9.573   3.240   7.345  0.6059  0.8635  0.1716
  519MOL0    Cl69974   9.688   3.216   7.479 -0.1689  0.0353 -0.4661
  519MOL0     C69975   8.828   3.113   7.036 -0.2047  0.5938  1.0245
  519MOL0     C69976   8.703   3.061   7.063  0.3995 -0.0012 -0.4702
  519MOL0     O69977   8.482   2.877   7.116  0.4622 -0.4908 -0.1277
  519MOL0     C69978   8.215   2.849   7.189 -0.4605  0.1083  0.8601
  519MOL0     C69979   8.086   2.845   7.231 -0.0362 -0.2415  0.1982
  519MOL0     N69980   7.560   3.420   7.159 -0.4086 -0.0189 -0.2387
  519MOL0     N69981   7.561   3.480   7.045  0.0673  0.5965  0.2122
  519MOL0     C69982   8.441   3.567   6.846 -0.7485 -0.6909  1.0547
  519MOL0     C69983   8.565   3.629   6.828  0.2165 -0.0777 -0.1192
  519MOL0     C69984   8.995   3.736   6.662 -0.3916  1.0572 -0.1813
  519MOL0     C69985   9.114   3.685   6.599  0.7590  0.0515  0.2245
  519MOL0     C69986   9.239   3.743   6.619 -0.4176 -0.2536 -0.0076
  519MOL0     C69987   9.257   3.864   6.693 -0.4086 -0.0908 -0.4186
  519MOL0     O69988   9.382   3.924   6.707 -1.1486 -0.9991  0.2336
  519MOL0     C69989   9.407   4.032   6.796 -0.5426 -0.5118 -0.5807
  519MOL0     C69990   9.546   4.022   6.860  0.0128 -0.1409  0.1093
  519MOL0     C69991   9.565   3.893   6.941  0.1599  0.0734 -0.5077
  519MOL0     C69992   9.707   3.902   7.006 -0.5366  0.3892  0.2883
  519MOL0     C69993   9.756   3.769   7.049 -0.3803 -0.1088  0.2743
  519MOL0     C69994   9.785   3.663   7.091 -0.0633  0.2596 -0.0065
  519MOL0     C69995   9.142   3.907   6.761  0.1480 -0.7561 -0.1927
  519MOL0     C69996   9.017   3.854   6.733 -0.1905 -0.7362 -0.2121
  519MOL0     C69997   8.902   3.930   6.789 -0.0203  0.1975  1.0033
  519MOL0     H69998   8.634   3.562   6.508 -0.1479 -0.0770 -0.4984
  519MOL0     H69999   8.429   3.446   6.518  0.8842 -1.8302  0.9352
  519MOL0     H70000   8.265   3.386   6.956 -0.0036  0.4469  0.0922
  519MOL0     H70001   8.131   3.486   6.903  0.6757  1.6235  2.3779
  519MOL0     H70002   8.054   3.233   6.938  0.6029  1.0891  0.9344
  519MOL0     H70003   8.177   3.205   6.816 -0.1482 -0.8225  1.1566
  519MOL0     H70004   8.046   3.356   6.667 -0.3187  1.6438  0.3982
  519MOL0     H70005   7.935   3.404   6.792 -0.1907 -0.1505 -0.0085
  519MOL0     H70006   7.946   3.129   6.646 -1.8527 -0.2868 -1.2989
  519MOL0     H70007   7.883   3.139   6.807 -1.2510  0.9749  1.2198
  519MOL0     H70008   7.760   3.285   6.565 -2.8128  1.0055  1.3085
  519MOL0     H70009   7.697   3.148   6.652 -3.0757  0.7447  2.6168
  519MOL0     H70010   7.681   3.279   6.852 -0.1132 -2.3538 -1.6996
  519MOL0     H70011   7.741   3.426   6.761  3.4466 -1.8460  0.8622
  519MOL0     H70012   7.499   3.239   6.710 -0.4818 -0.1629 -3.0414
  519MOL0     H70013   7.540   3.377   6.606 -1.1788 -1.1369 -0.2030
  519MOL0     H70014   7.474   3.547   6.808 -0.3917 -0.0924  0.7072
  519MOL0     H70015   7.359   3.422   6.775  0.2136  1.1216 -1.6044
  519MOL0     H70016   7.437   3.193   6.960  0.6105 -0.2901  0.8658
  519MOL0     H70017   7.506   3.212   7.338 -1.8682 -1.0356 -0.3431
  519MOL0     H70018   7.428   3.112   7.229  0.5354  0.0129  1.0109
  519MOL0     H70019   7.627   3.048   7.110 -1.7011 -2.7384  1.1017
  519MOL0     H70020   7.735   3.145   7.229  0.0348 -1.3983  0.5411
  519MOL0     H70021   7.587   2.897   7.294  0.8148  0.6655  3.4192
  519MOL0     H70022   7.671   2.992   7.417  1.1365 -2.5304  2.2659
  519MOL0     H70023   7.806   2.864   7.168  1.4323 -1.0262  0.5479
  519MOL0     H70024   7.783   2.778   7.320  1.3719 -1.1222 -0.4060
  519MOL0     H70025   8.023   3.181   7.251  2.1878  0.8279 -0.6870
  519MOL0     H70026   8.246   3.188   7.164 -1.1188  0.8526  2.8930
  519MOL0     H70027   8.523   3.322   6.937 -0.0620  0.0354  0.7355
  519MOL0     H70028   8.737   3.416   6.895 -0.3337  0.1948  1.3679
  519MOL0     H70029   8.939   3.478   6.865 -2.5788 -0.1693  1.1519
  519MOL0     H70030   8.950   3.498   7.040 -0.7669 -0.9757  2.2159
  519MOL0     H70031   9.156   3.447   6.826  0.6177 -1.4375  0.7141
  519MOL0     H70032   9.129   3.596   6.922  0.6820  0.1443 -0.0189
  519MOL0     H70033   9.185   3.430   7.129  0.3885 -0.8991 -0.2971
  519MOL0     H70034   9.246   3.324   6.999  1.3840  0.3872 -0.8517
  519MOL0     H70035   9.335   3.619   7.040  0.3698 -0.2102  0.6681
  519MOL0     H70036   9.398   3.500   6.928 -1.4201 -0.0869 -0.4452
  519MOL0     H70037   9.400   3.449   7.233 -1.4197 -1.6910 -1.0068
  519MOL0     H70038   9.530   3.542   7.159 -1.4412  2.4755  2.3683
  519MOL0     H70039   9.444   3.261   7.079  1.0164 -0.9061 -1.0118
  519MOL0     H70040   9.593   3.347   7.020  2.0773 -2.4601  0.9617
  519MOL0     H70041   9.698   3.359   7.222 -1.0909  0.7959 -0.2285
  519MOL0     H70042   9.677   3.188   7.170 -1.3209  0.4416 -2.7050
  519MOL0     H70043   9.502   3.320   7.367 -0.2644  1.1919 -3.1594
  519MOL0     H70044   9.513   3.148   7.334  0.3254  1.0279  0.3063
  519MOL0     H70045   8.918   3.060   7.067  0.4525  0.9693 -0.1736
  519MOL0     H70046   8.710   2.963   7.109 -0.3481  0.4680  0.7039
  519MOL0     H70047   8.269   2.756   7.182 -1.4260 -0.5315  1.5577
  519MOL0     H70048   8.031   2.753   7.248 -3.5430  1.4261 -1.1489
  519MOL0     H70049   8.390   3.582   6.941  1.3925  0.1479  2.1702
  519MOL0     H70050   8.599   3.671   6.922  0.2705 -1.4669  0.5046
  519MOL0     H70051   9.104   3.593   6.543  0.2390  0.0741  0.2798
  519MOL0     H70052   9.327   3.701   6.572  0.8843 -0.2186  2.2440
  519MOL0     H70053   9.331   4.033   6.874 -0.8518 -0.2097 -0.8838
  519MOL0     H70054   9.404   4.126   6.740 -0.1881 -0.1195  0.0469
  519MOL0     H70055   9.562   4.109   6.926  0.0871 -0.1539  0.1087
  519MOL0     H70056   9.617   4.030   6.778  1.0600 -0.7932  0.9281
  519MOL0     H70057   9.554   3.807   6.874 -0.7480  0.3369 -0.7015
  519MOL0     H70058   9.493   3.887   7.022 -0.4484  2.2115 -0.8309
  519MOL0     H70059   9.781   3.938   6.934 -3.4614  1.5404 -2.4071
  519MOL0     H70060   9.708   3.965   7.095 -1.9675 -0.8513  1.2380
  519MOL0     H70061   9.816   3.569   7.133 -1.0556  0.2688  0.7866
  519MOL0     H70062   9.143   4.001   6.815  1.3334  0.9238 -2.9457
  519MOL0     H70063   8.862   3.895   6.885  0.4933  0.4481  1.3166
  519MOL0     H70064   8.932   4.032   6.817  2.4241  0.0217 -0.7219
  519MOL0     H70065   8.819   3.942   6.719 -1.4497 -2.9511  1.9860
  520MOL0     O70066   3.643   4.228   9.652  0.1393 -0.0154  0.2103
  520MOL0     C70067   3.657   4.142   9.564  0.6247 -0.2952  0.3979
  520MOL0     O70068   3.766   4.122   9.483 -0.3590  0.2198  0.0138
  520MOL0     C70069   3.898   4.135   9.531  1.2275 -0.0291  0.0364
  520MOL0     C70070   3.999   4.135   9.428 -0.6394  0.1013  0.9809
  520MOL0     C70071   4.135   4.147   9.452 -0.4521 -0.1624 -0.1605
  520MOL0     C70072   4.172   4.186   9.586 -0.0399 -0.2082 -0.8355
  520MOL0     O70073   4.300   4.216   9.621 -0.2775  0.0595 -0.2986
  520MOL0     C70074   4.401   4.207   9.513  0.6669  0.3949 -0.5670
  520MOL0     C70075   4.538   4.225   9.567  0.9262  0.9677  1.0085
  520MOL0     C70076   4.636   4.196   9.456 -0.5288  0.6117 -0.4447
  520MOL0     C70077   4.774   4.221   9.526 -0.1648 -0.4784  0.2013
  520MOL0     C70078   4.884   4.181   9.432  0.4349  0.1397  0.0181
  520MOL0     C70079   5.013   4.195   9.508 -0.1380  0.3421 -0.6104
  520MOL0     C70080   5.119   4.217   9.407  0.3072  0.4313 -0.1776
  520MOL0     C70081   5.232   4.289   9.481 -0.6235  0.0969 -0.4743
  520MOL0     N70082   5.367   4.255   9.431  0.1023 -0.4537 -0.3200
  520MOL0     C70083   5.434   4.301   9.322  0.0271  0.1461 -0.5427
  520MOL0     C70084   5.536   4.216   9.306  0.3260  0.5750  0.6099
  520MOL0     C70085   5.627   4.216   9.189 -0.9010  0.0865  0.2246
  520MOL0     C70086   5.706   4.352   9.193 -0.1226 -0.1326  0.3905
  520MOL0     C70087   5.773   4.376   9.327  1.0525 -0.2028  0.1210
  520MOL0     C70088   5.893   4.461   9.345  0.9097  0.2269 -0.5072
  520MOL0     O70089   5.845   4.590   9.309  0.5795  0.2550  0.5568
  520MOL0     C70090   5.950   4.657   9.250  0.6993 -0.7362  0.4166
  520MOL0     C70091   5.954   4.684   9.116  0.0576  0.4700  0.1175
  520MOL0     C70092   6.063   4.756   9.053  0.1559 -0.4305  0.1157
  520MOL0     C70093   6.159   4.811   9.135 -0.5720  0.1040  0.0283
  520MOL0     C70094   6.271   4.891   9.081  0.2821  0.3916 -0.6376
  520MOL0     O70095   6.356   4.952   9.172  0.2734  0.5631 -0.1110
  520MOL0     C70096   6.461   5.028   9.128 -1.2674  0.2671 -0.0938
  520MOL0     C70097   6.585   4.984   9.183  0.4088 -0.1827 -0.0938
  520MOL0     C70098   6.706   5.050   9.154  0.2687  0.2393 -0.0259
  520MOL0     C70099   6.703   5.170   9.080  0.2962 -0.6432  0.2208
  520MOL0     O70100   6.819   5.235   9.074 -0.1912 -0.1928 -1.0451
  520MOL0     C70101   6.807   5.377   9.085  0.5127 -0.0535 -0.5612
  520MOL0     C70102   6.931   5.436   9.160  0.1546 -0.1235  0.3081
  520MOL0     C70103   7.064   5.433   9.073  0.6806 -1.1610  0.2246
  520MOL0     C70104   7.181   5.506   9.141  0.8431 -0.1708  0.1429
  520MOL0     C70105   7.142   5.632   9.228 -0.3638 -0.2195  0.1009
  520MOL0     C70106   7.263   5.704   9.291  0.2650 -0.0600 -0.4631
  520MOL0     C70107   7.213   5.829   9.374 -0.2011 -1.0084  0.5544
  520MOL0     C70108   7.339   5.876   9.450 -0.6944 -0.4525  0.1900
  520MOL0    Cl70109   7.424   5.978   9.337 -0.1639  0.1698  0.2224
  520MOL0     C70110   6.586   5.212   9.018 -0.0710  0.0206 -0.4482
  520MOL0     C70111   6.464   5.148   9.046 -0.4011  0.6713  0.0926
  520MOL0     O70112   6.287   4.898   8.958  0.4141 -0.6704  0.1953
  520MOL0     C70113   6.154   4.787   9.271 -0.0588 -0.4974 -0.6557
  520MOL0     C70114   6.049   4.712   9.323 -0.1299 -0.2593 -0.1796
  520MOL0     N70115   5.537   4.125   9.407 -0.0003 -0.6237 -0.4930
  520MOL0     N70116   5.432   4.151   9.492 -0.3139 -1.0361  0.5065
  520MOL0     C70117   4.078   4.186   9.684  0.8642  0.6288 -0.3345
  520MOL0     C70118   3.942   4.159   9.662  0.2836 -0.5458 -0.0605
  520MOL0     C70119   3.534   4.066   9.519  0.9118  0.1668 -0.2393
  520MOL0     C70120   3.437   4.043   9.623  0.6084 -0.6607 -0.0103
  520MOL0     C70121   3.332   3.968   9.602  0.6879  0.8821 -0.0326
  520MOL0     C70122   3.308   3.913   9.476  0.2695 -1.0759  0.5527
  520MOL0     O70123   3.205   3.822   9.448 -0.9470  0.8988 -0.4032
  520MOL0     C70124   3.133   3.768   9.555  0.1239 -1.0559 -0.9254
  520MOL0     C70125   3.010   3.856   9.577  0.2712 -0.5168  0.5806
  520MOL0     C70126   2.941   3.920   9.450 -0.0617 -0.1981  0.7589
  520MOL0     C70127   2.877   3.807   9.370 -0.6530 -0.3440  0.7006
  520MOL0     C70128   2.740   3.769   9.401 -0.1601 -0.4427 -0.2474
  520MOL0     C70129   2.626   3.738   9.428  0.8915 -0.0649  0.4629
  520MOL0     C70130   3.401   3.930   9.375  0.3170  0.2676  0.3510
  520MOL0     C70131   3.513   4.006   9.396  0.1829 -0.6050 -0.1777
  520MOL0     C70132   3.607   4.023   9.282 -0.8383 -0.7219 -0.2820
  520MOL0     H70133   3.968   4.105   9.328 -2.0152 -0.6940  1.6120
  520MOL0     H70134   4.209   4.137   9.374  0.6061 -0.2130  0.8146
  520MOL0     H70135   4.383   4.106   9.476  1.2586  0.0125  0.1683
  520MOL0     H70136   4.369   4.291   9.451 -0.4563  0.0128 -0.5220
  520MOL0     H70137   4.551   4.154   9.650 -0.1798 -2.8060 -1.7630
  520MOL0     H70138   4.560   4.325   9.605  1.2819  0.2255  2.8569
  520MOL0     H70139   4.625   4.264   9.371  2.0989  2.6494  0.6979
  520MOL0     H70140   4.635   4.090   9.430  0.7800 -0.0428  1.9361
  520MOL0     H70141   4.791   4.324   9.556 -1.0816  0.7461 -3.0495
  520MOL0     H70142   4.772   4.155   9.613 -1.2120  0.9973  1.3389
  520MOL0     H70143   4.865   4.081   9.392 -3.9291  1.1598 -1.0703
  520MOL0     H70144   4.888   4.251   9.347  2.2675  0.3602  0.2513
  520MOL0     H70145   5.009   4.266   9.592  0.4442  1.5440 -1.5578
  520MOL0     H70146   5.043   4.101   9.555 -4.2831 -1.1626 -0.5449
  520MOL0     H70147   5.086   4.279   9.323  0.2986 -2.0190 -2.0855
  520MOL0     H70148   5.159   4.122   9.371  0.7829  0.5370  0.0740
  520MOL0     H70149   5.226   4.398   9.476 -0.1264  0.1300 -0.4490
  520MOL0     H70150   5.230   4.267   9.588 -2.0334  0.5362 -0.4011
  520MOL0     H70151   5.409   4.390   9.264 -3.9123 -1.1923 -1.2356
  520MOL0     H70152   5.695   4.130   9.188 -2.6841 -1.5851  3.8536
  520MOL0     H70153   5.564   4.199   9.101 -1.0748 -2.7462  0.8097
  520MOL0     H70154   5.788   4.357   9.121  1.4691  2.5516  2.2134
  520MOL0     H70155   5.639   4.431   9.157  0.2103 -0.2786 -0.5838
  520MOL0     H70156   5.801   4.276   9.360  1.8832 -0.4384 -1.2148
  520MOL0     H70157   5.702   4.409   9.404  2.1708  0.4629  0.8953
  520MOL0     H70158   5.970   4.415   9.282 -1.0282 -2.7183 -0.9237
  520MOL0     H70159   5.921   4.459   9.451 -2.1670 -2.4185  0.3985
  520MOL0     H70160   5.868   4.655   9.056 -0.7901  0.7331  1.1697
  520MOL0     H70161   6.063   4.780   8.947 -0.5513 -0.8998  0.0045
  520MOL0     H70162   6.590   4.889   9.235  0.0683 -2.2556 -3.5302
  520MOL0     H70163   6.799   5.023   9.204  0.7382  0.0813 -0.9497
  520MOL0     H70164   6.799   5.412   8.982  2.7286 -0.5618 -0.9516
  520MOL0     H70165   6.712   5.397   9.136  0.3392 -0.6090 -0.6566
  520MOL0     H70166   6.902   5.540   9.175 -1.6851 -0.4656 -0.6457
  520MOL0     H70167   6.944   5.379   9.253 -2.7209 -1.0983  0.2063
  520MOL0     H70168   7.083   5.327   9.055 -1.6529 -1.7317  0.7479
  520MOL0     H70169   7.046   5.485   8.978  0.6646  0.5070  1.1081
  520MOL0     H70170   7.248   5.533   9.059 -1.3282  1.2497 -1.2813
  520MOL0     H70171   7.227   5.436   9.211  2.0332 -0.7302 -1.1420
  520MOL0     H70172   7.063   5.617   9.302  1.0795  1.0114  1.9730
  520MOL0     H70173   7.102   5.705   9.157 -0.0954  0.7171  0.8919
  520MOL0     H70174   7.305   5.625   9.355 -1.3927 -1.1057 -0.6057
  520MOL0     H70175   7.330   5.733   9.209  0.4217  0.0802 -0.2857
  520MOL0     H70176   7.139   5.787   9.442 -1.0068 -3.0021 -1.4449
  520MOL0     H70177   7.176   5.910   9.311 -1.3250 -0.8312  1.4266
  520MOL0     H70178   7.317   5.929   9.543 -1.4133  0.0075 -0.2258
  520MOL0     H70179   7.397   5.789   9.478 -0.1250  0.3007  1.4197
  520MOL0     H70180   6.591   5.304   8.960 -0.3619  0.2234 -0.1585
  520MOL0     H70181   6.368   5.190   9.016  0.0211  1.1811 -0.5682
  520MOL0     H70182   6.239   4.832   9.321 -0.7388  2.6330 -2.1083
  520MOL0     H70183   6.047   4.686   9.428  2.0223  0.9693  0.2210
  520MOL0     H70184   4.107   4.202   9.788  2.9041 -2.3448 -0.3205
  520MOL0     H70185   3.875   4.172   9.747  1.2878  1.0838  0.5236
  520MOL0     H70186   3.443   4.093   9.720  1.4607 -0.8030  0.0165
  520MOL0     H70187   3.269   3.953   9.689  1.5189  0.2468  0.4764
  520MOL0     H70188   3.187   3.755   9.649 -3.0521  2.2987  1.6431
  520MOL0     H70189   3.103   3.670   9.517  0.5877 -0.7573 -2.0999
  520MOL0     H70190   3.044   3.940   9.639 -3.6268  0.5774  1.5619
  520MOL0     H70191   2.942   3.795   9.638  0.4112 -0.5325  0.7218
  520MOL0     H70192   3.021   3.972   9.397 -0.2687  1.8419  2.3276
  520MOL0     H70193   2.863   3.995   9.466 -1.9934 -1.3541 -2.2093
  520MOL0     H70194   2.890   3.837   9.266  3.1283 -1.1345  0.7853
  520MOL0     H70195   2.933   3.713   9.376  2.1910  1.2106  0.1599
  520MOL0     H70196   2.522   3.716   9.446 -0.5042  3.2525 -2.3922
  520MOL0     H70197   3.380   3.890   9.277 -2.0109  1.4526  0.2797
  520MOL0     H70198   3.631   4.128   9.267  0.0136 -0.7810  0.5975
  520MOL0     H70199   3.702   3.971   9.297 -0.6114 -0.5604 -1.1112
  520MOL0     H70200   3.561   3.976   9.194  0.0525 -0.8330 -0.6991
  521MOL0     O70201   6.787   7.899   7.143  0.3479  0.2198  0.5572
  521MOL0     C70202   6.702   7.828   7.194  0.1648 -0.7070  0.0466
  521MOL0     O70203   6.729   7.698   7.247  0.4275 -0.1873 -0.1550
  521MOL0     C70204   6.862   7.658   7.262 -0.0525 -0.3465  0.4461
  521MOL0     C70205   6.907   7.555   7.161 -0.4005 -0.6668  0.3891
  521MOL0     C70206   7.042   7.500   7.169  0.8930  0.1292 -0.5755
  521MOL0     C70207   7.131   7.545   7.268  0.4592  0.2516  0.3832
  521MOL0     O70208   7.256   7.486   7.263 -0.2070 -0.0647 -0.4701
  521MOL0     C70209   7.363   7.525   7.355 -0.9065 -0.4798  0.4961
  521MOL0     C70210   7.436   7.643   7.305  0.0000  0.0386  1.0559
  521MOL0     C70211   7.536   7.700   7.401  0.0143  0.2136  0.4502
  521MOL0     C70212   7.645   7.596   7.448  0.1691 -0.0407 -0.5620
  521MOL0     C70213   7.783   7.635   7.489  0.0706  0.4024 -0.0447
  521MOL0     C70214   7.857   7.708   7.374 -0.3037  0.6695 -0.6149
  521MOL0     C70215   8.008   7.736   7.413  0.0476 -0.1848  0.3123
  521MOL0     C70216   8.088   7.612   7.457  0.1511  0.6703 -0.2328
  521MOL0     N70217   8.228   7.650   7.462  0.1777 -0.4813  0.2627
  521MOL0     C70218   8.290   7.756   7.404  0.4885 -0.1493  0.2798
  521MOL0     C70219   8.422   7.742   7.413  0.2893  0.7699 -0.7801
  521MOL0     C70220   8.517   7.844   7.357  1.1831 -1.4616 -0.1619
  521MOL0     C70221   8.664   7.816   7.373  0.4150 -0.4021 -0.6068
  521MOL0     C70222   8.742   7.855   7.248  0.7250 -0.0328 -0.3657
  521MOL0     C70223   8.889   7.822   7.261 -1.1906  0.2944 -0.2758
  521MOL0     O70224   8.969   7.936   7.311  0.3966 -0.0036 -0.3966
  521MOL0     C70225   9.103   7.921   7.340  0.0487 -0.0854  0.1552
  521MOL0     C70226   9.185   7.816   7.291 -0.2433  0.2084 -0.5884
  521MOL0     C70227   9.318   7.816   7.335 -0.0239 -0.0297 -1.1412
  521MOL0     C70228   9.374   7.917   7.409 -0.3915 -0.0234  0.2087
  521MOL0     C70229   9.515   7.905   7.446 -1.0273  0.0712 -0.1011
  521MOL0     O70230   9.548   7.955   7.561 -0.1632 -0.8228  0.7978
  521MOL0     C70231   9.677   7.931   7.607 -0.1204  0.1865 -0.5295
  521MOL0     C70232   9.757   8.042   7.643  0.0061  0.8876  0.1144
  521MOL0     C70233   9.885   8.023   7.705  0.0236  0.1308 -0.5732
  521MOL0     C70234   9.919   7.898   7.747 -0.0502 -0.0167 -0.0882
  521MOL0     O70235  10.017   7.888   7.839 -0.1648  0.4407  0.5664
  521MOL0     C70236   9.998   7.918   7.974  0.2943  0.7614 -0.4985
  521MOL0     C70237  10.006   7.791   8.062 -0.4477 -0.8289 -0.4674
  521MOL0     C70238  10.132   7.708   8.045 -0.2719 -0.0017 -0.2491
  521MOL0     C70239  10.257   7.788   8.061 -0.5176 -0.4160  0.1306
  521MOL0     C70240  10.381   7.698   8.048 -0.1588  0.4116 -0.2603
  521MOL0     C70241  10.502   7.765   8.123 -1.0316  0.6483 -1.2045
  521MOL0     C70242  10.643   7.698   8.087  0.4913 -0.5758 -0.3037
  521MOL0     C70243  10.661   7.555   8.127  0.8741 -0.3149 -0.1772
  521MOL0    Cl70244  10.836   7.529   8.103 -0.0245  0.0568  0.0393
  521MOL0     C70245   9.837   7.786   7.710 -0.8213  0.3225  0.0957
  521MOL0     C70246   9.718   7.801   7.638 -0.1941  0.5751  0.2036
  521MOL0     O70247   9.592   7.830   7.377 -0.2048 -0.3956  0.4294
  521MOL0     C70248   9.294   8.019   7.456  0.2303 -0.1496 -0.0731
  521MOL0     C70249   9.157   8.018   7.426 -0.2688  0.2525  0.5508
  521MOL0     N70250   8.442   7.628   7.490  0.4807  0.1935  0.2508
  521MOL0     N70251   8.328   7.571   7.516  0.3000 -1.3986  0.2236
  521MOL0     C70252   7.092   7.656   7.346  0.6022 -0.1664  1.5215
  521MOL0     C70253   6.964   7.716   7.342  0.1739  0.3226  0.3328
  521MOL0     C70254   6.558   7.853   7.167 -0.0119 -0.3864 -0.9805
  521MOL0     C70255   6.482   7.735   7.138  0.2279 -0.8106  0.0310
  521MOL0     C70256   6.350   7.750   7.114  0.6920 -0.1645 -0.1849
  521MOL0     C70257   6.279   7.872   7.108 -0.5623 -0.1048  0.0390
  521MOL0     O70258   6.135   7.862   7.088 -0.4134  0.3966 -0.2475
  521MOL0     C70259   6.046   7.974   7.115 -0.6736 -0.0598 -0.1797
  521MOL0     C70260   5.904   7.934   7.086 -0.0217  0.0583 -0.8352
  521MOL0     C70261   5.887   7.886   6.943 -0.1669 -0.3831  0.2285
  521MOL0     C70262   5.735   7.856   6.925 -0.0116  0.4267  0.7144
  521MOL0     C70263   5.714   7.887   6.779  1.4392  0.4004  0.2316
  521MOL0     C70264   5.682   7.915   6.659  0.5039  0.2276 -0.0342
  521MOL0     C70265   6.349   7.989   7.133  0.0922 -0.6898  1.0676
  521MOL0     C70266   6.489   7.977   7.164 -0.3151  0.0356  0.1712
  521MOL0     C70267   6.556   8.110   7.202  0.1301 -0.6766  0.0342
  521MOL0     H70268   6.853   7.513   7.077 -0.4662 -0.5799  0.3875
  521MOL0     H70269   7.074   7.424   7.099  0.2516  0.7853 -1.6113
  521MOL0     H70270   7.331   7.542   7.458  0.5551  1.2390  0.7130
  521MOL0     H70271   7.432   7.441   7.364  1.3926  1.3424  0.7298
  521MOL0     H70272   7.371   7.729   7.283  0.9862  0.9318  1.5432
  521MOL0     H70273   7.475   7.613   7.207 -2.9566  0.8806 -0.5331
  521MOL0     H70274   7.475   7.739   7.483  1.3981 -0.9098  2.0993
  521MOL0     H70275   7.587   7.789   7.364 -1.6555  0.5698 -1.1351
  521MOL0     H70276   7.599   7.531   7.522  0.4167  0.7358  0.3042
  521MOL0     H70277   7.647   7.527   7.363 -2.3579 -1.9485  0.8225
  521MOL0     H70278   7.766   7.702   7.573 -2.4769  0.5484 -0.6058
  521MOL0     H70279   7.842   7.544   7.506 -1.1006 -0.3501  0.0632
  521MOL0     H70280   7.843   7.657   7.278 -0.9163  1.1903 -0.8070
  521MOL0     H70281   7.799   7.799   7.361  0.3065  1.0296 -0.8871
  521MOL0     H70282   8.010   7.806   7.497  3.4021 -0.4432  0.5612
  521MOL0     H70283   8.057   7.770   7.321  2.4542  0.6393  1.8054
  521MOL0     H70284   8.048   7.565   7.548 -1.0898 -0.4416 -1.3035
  521MOL0     H70285   8.069   7.536   7.381  0.5855 -0.6833  0.9566
  521MOL0     H70286   8.245   7.849   7.372 -0.7340 -0.3375  1.3469
  521MOL0     H70287   8.489   7.859   7.253 -0.3598 -0.8879  0.3200
  521MOL0     H70288   8.496   7.942   7.400  1.0738 -1.7614  0.4862
  521MOL0     H70289   8.698   7.876   7.459 -0.2149 -0.0736 -0.5794
  521MOL0     H70290   8.681   7.710   7.394  2.2203  0.1273  0.9317
  521MOL0     H70291   8.736   7.960   7.218 -1.3550 -0.5644 -2.0951
  521MOL0     H70292   8.695   7.794   7.169 -1.4181 -0.9185  1.4933
  521MOL0     H70293   8.918   7.796   7.159 -0.2548  0.0275  0.0493
  521MOL0     H70294   8.903   7.737   7.330  2.3496 -0.0956 -1.3237
  521MOL0     H70295   9.153   7.735   7.227  0.6871  0.9892 -2.0892
  521MOL0     H70296   9.378   7.731   7.301 -0.6534 -0.7956 -0.3784
  521MOL0     H70297   9.726   8.144   7.622  0.3870  2.1661  4.5876
  521MOL0     H70298   9.953   8.106   7.723  0.0639 -0.3197  1.6335
  521MOL0     H70299  10.070   7.995   8.004  0.6088  0.8960 -1.5534
  521MOL0     H70300   9.897   7.956   7.992  0.0824  0.0853 -0.2426
  521MOL0     H70301  10.003   7.817   8.168  1.1822 -0.2466 -0.5340
  521MOL0     H70302   9.924   7.722   8.044  0.8850 -2.5279 -0.3532
  521MOL0     H70303  10.146   7.623   8.111  1.1367 -1.9646 -2.8745
  521MOL0     H70304  10.147   7.670   7.943 -1.2639 -2.2077  0.3771
  521MOL0     H70305  10.261   7.833   8.160  5.3787 -2.1586  1.0800
  521MOL0     H70306  10.261   7.857   7.976 -1.3074 -4.4405 -3.5423
  521MOL0     H70307  10.400   7.684   7.941 -2.6729  0.8775 -0.8400
  521MOL0     H70308  10.370   7.598   8.091 -1.7395 -0.5916 -2.7457
  521MOL0     H70309  10.511   7.865   8.079 -0.2339  0.5862 -1.1913
  521MOL0     H70310  10.493   7.765   8.232  0.2268  0.1584 -1.0858
  521MOL0     H70311  10.717   7.765   8.132  0.2442 -0.8411  0.5204
  521MOL0     H70312  10.662   7.705   7.980 -1.6909 -0.3249 -0.7197
  521MOL0     H70313  10.643   7.537   8.234  0.5393 -0.9584 -0.3344
  521MOL0     H70314  10.584   7.490   8.083 -0.1938 -1.3067  2.8558
  521MOL0     H70315   9.862   7.696   7.765 -1.4202 -0.6815 -1.2116
  521MOL0     H70316   9.642   7.724   7.627 -0.5353  0.8049  0.9146
  521MOL0     H70317   9.338   8.098   7.515  1.0529 -1.2846  0.8964
  521MOL0     H70318   9.086   8.093   7.459  0.6484  1.1066  0.6513
  521MOL0     H70319   7.159   7.713   7.410  0.3460  4.3161 -1.7250
  521MOL0     H70320   6.935   7.807   7.394 -1.2276  0.6508 -0.9511
  521MOL0     H70321   6.526   7.637   7.131  0.9116 -0.4432 -1.1883
  521MOL0     H70322   6.284   7.663   7.111 -0.9898  1.0095  0.7040
  521MOL0     H70323   6.079   8.066   7.066  1.4245  0.0640  1.3056
  521MOL0     H70324   6.054   7.987   7.224 -0.1102 -0.8055 -0.1175
  521MOL0     H70325   5.845   8.026   7.098  0.9102  0.7865 -1.5998
  521MOL0     H70326   5.873   7.852   7.151 -1.5587 -0.9191 -2.6782
  521MOL0     H70327   5.946   7.796   6.926  0.6755  0.5379 -2.2173
  521MOL0     H70328   5.923   7.972   6.885 -0.0653 -0.1855  0.5806
  521MOL0     H70329   5.720   7.750   6.946  2.9211 -0.1155  0.4784
  521MOL0     H70330   5.668   7.914   6.989 -1.5320  2.3120 -2.3468
  521MOL0     H70331   5.637   7.947   6.567 -1.2636  1.8186  1.3174
  521MOL0     H70332   6.297   8.084   7.134 -0.2975 -0.8915  0.4222
  521MOL0     H70333   6.479   8.188   7.209 -1.0526 -1.8236  0.3300
  521MOL0     H70334   6.601   8.097   7.301  0.1107 -1.4452 -0.0498
  521MOL0     H70335   6.632   8.141   7.130  0.3408  0.9148  0.9088
  522MOL0     O70336   8.369   1.373  10.444  1.0770 -0.2236  0.9357
  522MOL0     C70337   8.456   1.448  10.491 -0.1348 -0.5571  0.6895
  522MOL0     O70338   8.438   1.570  10.546 -0.0371  0.4548 -0.6174
  522MOL0     C70339   8.335   1.655  10.509  0.2524  0.1531  1.1481
  522MOL0     C70340   8.300   1.661  10.377  0.6355 -0.2681 -0.1350
  522MOL0     C70341   8.205   1.748  10.334  0.1226  0.5142  0.8566
  522MOL0     C70342   8.136   1.838  10.423 -0.4194  0.0371  0.2939
  522MOL0     O70343   8.050   1.932  10.381  0.0970  0.8149 -0.5205
  522MOL0     C70344   7.933   1.874  10.322  0.4409  0.4310  0.6453
  522MOL0     C70345   7.813   1.975  10.342 -0.2450  0.0380  0.9233
  522MOL0     C70346   7.677   1.907  10.318 -1.1510  1.4992 -0.3047
  522MOL0     C70347   7.562   1.999  10.335 -0.0066  0.5455 -0.5550
  522MOL0     C70348   7.430   1.911  10.317  0.0489 -0.6489  0.6840
  522MOL0     C70349   7.305   2.000  10.317  0.4953  0.0438  0.2115
  522MOL0     C70350   7.188   1.908  10.295  0.2903 -0.2583  1.0016
  522MOL0     C70351   7.048   1.969  10.344 -0.1080  0.9635  0.0859
  522MOL0     N70352   6.932   1.891  10.297 -0.6416 -0.8994  0.4771
  522MOL0     C70353   6.934   1.757  10.278  0.4034  0.7615 -0.2683
  522MOL0     C70354   6.805   1.716  10.265  0.1141 -0.2871 -0.5217
  522MOL0     C70355   6.746   1.579  10.246  0.7031 -0.5547  1.3909
  522MOL0     C70356   6.708   1.522  10.387  0.0311  0.0364  0.1698
  522MOL0     C70357   6.644   1.383  10.385  0.0551  0.3388  0.3144
  522MOL0     C70358   6.743   1.281  10.354  0.4035 -0.1814 -0.0218
  522MOL0     O70359   6.838   1.272  10.463 -0.1378 -0.7431 -0.4860
  522MOL0     C70360   6.965   1.231  10.447 -0.4724 -0.9700 -0.4570
  522MOL0     C70361   7.005   1.163  10.326  0.2415  0.0346  0.4287
  522MOL0     C70362   7.144   1.125  10.306  0.5926  0.1104  0.2900
  522MOL0     C70363   7.239   1.165  10.399  0.1919 -0.4629 -0.6405
  522MOL0     C70364   7.386   1.136  10.389 -0.4595  0.0281 -0.2001
  522MOL0     O70365   7.410   1.038  10.302  0.4729 -0.2070  0.9820
  522MOL0     C70366   7.535   1.001  10.260  0.0048 -0.2357 -0.3212
  522MOL0     C70367   7.595   1.061  10.150 -0.0771  0.1530  0.1046
  522MOL0     C70368   7.719   1.024  10.099  0.3125 -0.3211  0.5944
  522MOL0     C70369   7.797   0.924  10.161  0.4245 -0.1976  0.8231
  522MOL0     O70370   7.921   0.890  10.106  0.3908 -0.2082  0.5188
  522MOL0     C70371   7.992   0.779  10.158  0.6405  0.2048  0.7323
  522MOL0     C70372   8.132   0.789  10.088 -0.3858 -0.1946 -0.1405
  522MOL0     C70373   8.231   0.877  10.167  0.2182  0.0555 -0.4615
  522MOL0     C70374   8.341   0.918  10.062  0.5946 -0.1327 -0.5511
  522MOL0     C70375   8.465   0.976  10.131  0.3179 -0.4700  0.6504
  522MOL0     C70376   8.574   1.012  10.024  0.0966 -0.8397  0.4726
  522MOL0     C70377   8.716   1.045  10.079 -0.0273  0.2664  0.6528
  522MOL0     C70378   8.781   1.147   9.980  0.1784  0.0121 -0.4408
  522MOL0    Cl70379   8.942   1.198  10.031  0.0920  0.2394  0.0152
  522MOL0     C70380   7.741   0.866  10.277 -1.1540 -0.4033 -0.5748
  522MOL0     C70381   7.609   0.905  10.327 -0.3570  1.0908  0.1370
  522MOL0     O70382   7.473   1.201  10.455 -0.7427  0.7042 -0.5146
  522MOL0     C70383   7.190   1.228  10.520 -0.0151  0.0149  0.6254
  522MOL0     C70384   7.060   1.271  10.541 -0.3774  1.1530 -0.1209
  522MOL0     N70385   6.736   1.836  10.285  0.5355  0.3231  0.4970
  522MOL0     N70386   6.811   1.943  10.281  0.4647  0.0220  0.1492
  522MOL0     C70387   8.189   1.837  10.560  0.1133  0.4154 -0.0053
  522MOL0     C70388   8.279   1.745  10.604  0.1996  0.8249  0.6599
  522MOL0     C70389   8.597   1.402  10.484 -0.4715  0.4172  0.2027
  522MOL0     C70390   8.610   1.269  10.457  0.2535  0.2322  1.3847
  522MOL0     C70391   8.742   1.211  10.447  0.8256 -0.1425  0.4645
  522MOL0     C70392   8.852   1.292  10.456  0.1961  0.1695 -0.1356
  522MOL0     O70393   8.975   1.235  10.432 -0.1769 -0.2817  0.4871
  522MOL0     C70394   9.094   1.313  10.437 -0.2242  0.1543 -0.6122
  522MOL0     C70395   9.212   1.224  10.401  0.2392 -0.7450 -0.0213
  522MOL0     C70396   9.352   1.275  10.451  0.1630 -0.4617  0.1993
  522MOL0     C70397   9.444   1.160  10.425 -0.2129  0.8755 -0.3467
  522MOL0     C70398   9.490   1.156  10.292  0.5201  0.1473 -0.2607
  522MOL0     C70399   9.521   1.128  10.170  0.4163  0.4274 -0.6679
  522MOL0     C70400   8.838   1.431  10.488 -0.3053  0.0227  0.0246
  522MOL0     C70401   8.711   1.486  10.505 -1.2622  0.6200  0.0578
  522MOL0     C70402   8.704   1.636  10.528  0.8633 -0.1464 -0.1450
  522MOL0     H70403   8.341   1.596  10.300  1.2973  3.0298 -2.8022
  522MOL0     H70404   8.177   1.745  10.230 -0.5694 -0.2082  1.0491
  522MOL0     H70405   7.948   1.863  10.214  0.1242  0.8850  0.5543
  522MOL0     H70406   7.902   1.785  10.377 -0.8658  1.2532  1.3052
  522MOL0     H70407   7.823   2.064  10.280  1.6215  1.5220  3.1939
  522MOL0     H70408   7.816   2.015  10.444 -0.1159 -2.6050  2.0453
  522MOL0     H70409   7.666   1.821  10.385 -0.9052  1.3315 -0.4765
  522MOL0     H70410   7.677   1.859  10.220 -2.1974 -0.6352  0.6768
  522MOL0     H70411   7.561   2.046  10.434  2.4236 -0.1429 -0.1428
  522MOL0     H70412   7.567   2.075  10.256 -3.3796 -0.4891 -1.9376
  522MOL0     H70413   7.432   1.860  10.221  0.7293  0.8079 -0.1107
  522MOL0     H70414   7.400   1.836  10.391 -1.6255  0.0728  0.7846
  522MOL0     H70415   7.294   2.043  10.417  0.5631  0.2308  0.1397
  522MOL0     H70416   7.316   2.078  10.242  3.3918  0.3785  0.8608
  522MOL0     H70417   7.196   1.807  10.338  2.2401 -0.8371 -0.5573
  522MOL0     H70418   7.185   1.902  10.186  2.7257 -0.5322  0.8763
  522MOL0     H70419   7.041   1.974  10.453  0.6725  1.5354  0.1197
  522MOL0     H70420   7.044   2.071  10.303 -1.5836  0.6291 -0.6920
  522MOL0     H70421   7.025   1.699  10.264 -0.2030  0.1014 -1.7565
  522MOL0     H70422   6.654   1.591  10.189  0.9251  2.9174  1.5141
  522MOL0     H70423   6.815   1.510  10.197 -0.5015  0.3904 -1.8558
  522MOL0     H70424   6.798   1.519  10.448  0.9981 -2.1929 -1.2516
  522MOL0     H70425   6.637   1.590  10.435 -1.4710 -1.7934  0.6503
  522MOL0     H70426   6.560   1.396  10.316 -0.0775  1.5802  0.6953
  522MOL0     H70427   6.594   1.362  10.480 -2.0565 -2.6528 -1.3015
  522MOL0     H70428   6.795   1.314  10.264  1.8775 -4.1363 -0.7976
  522MOL0     H70429   6.693   1.185  10.344 -2.4640  1.0574  1.3457
  522MOL0     H70430   6.931   1.131  10.253 -0.5535 -0.5135  1.4385
  522MOL0     H70431   7.188   1.085  10.215  2.5659  0.2577  1.1123
  522MOL0     H70432   7.543   1.139  10.095  1.3149  1.7216  0.9228
  522MOL0     H70433   7.759   1.070  10.010  0.4170  0.0749  0.8461
  522MOL0     H70434   8.003   0.794  10.266  2.7821  0.6602  0.4952
  522MOL0     H70435   7.941   0.683  10.146  2.8852 -0.8578 -1.0162
  522MOL0     H70436   8.174   0.689  10.074  4.6355  0.9241  3.9266
  522MOL0     H70437   8.112   0.828   9.988  0.3769  2.4456  0.6414
  522MOL0     H70438   8.194   0.966  10.219  0.9937  0.5053 -0.6526
  522MOL0     H70439   8.277   0.811  10.241  1.1540  0.3491 -0.7709
  522MOL0     H70440   8.296   0.979   9.983 -1.6961 -2.5727 -1.3133
  522MOL0     H70441   8.372   0.822  10.019  2.8481 -1.0135  2.7056
  522MOL0     H70442   8.507   0.905  10.204 -0.8697  0.6168  2.4775
  522MOL0     H70443   8.433   1.070  10.177  0.4803 -1.2662  2.4617
  522MOL0     H70444   8.573   0.938   9.944  1.2478 -0.8406  0.4429
  522MOL0     H70445   8.544   1.103   9.972  2.1651 -0.1566  0.3907
  522MOL0     H70446   8.782   0.959  10.089  1.7492  1.4972  0.0082
  522MOL0     H70447   8.727   1.085  10.180  1.4606  3.1624 -0.5316
  522MOL0     H70448   8.788   1.090   9.887  0.4203 -0.2172 -0.2822
  522MOL0     H70449   8.714   1.233   9.975  0.1971  0.1092  0.7541
  522MOL0     H70450   7.803   0.793  10.329 -0.8940  1.1318  1.4215
  522MOL0     H70451   7.558   0.857  10.410 -0.2242 -0.6189 -0.7400
  522MOL0     H70452   7.263   1.255  10.596  0.1600 -1.2156  0.9321
  522MOL0     H70453   7.028   1.319  10.633 -1.1615  1.1035 -0.3642
  522MOL0     H70454   8.137   1.911  10.622 -0.8675 -0.8786  0.7865
  522MOL0     H70455   8.309   1.736  10.708 -0.9684 -3.8506  0.8082
  522MOL0     H70456   8.522   1.206  10.447 -1.2344  2.0445  2.3887
  522MOL0     H70457   8.786   1.113  10.428  0.1776  0.0768 -2.7776
  522MOL0     H70458   9.109   1.341  10.542 -0.2055 -2.2053  0.0732
  522MOL0     H70459   9.098   1.410  10.386 -2.2051  1.1295  0.9224
  522MOL0     H70460   9.214   1.216  10.292  1.9238 -0.6770 -0.0175
  522MOL0     H70461   9.188   1.134  10.458  2.1119  0.7372  3.4685
  522MOL0     H70462   9.342   1.298  10.557 -1.4805 -0.0782 -0.0147
  522MOL0     H70463   9.389   1.364  10.400  3.9218 -2.8549 -1.7569
  522MOL0     H70464   9.542   1.170  10.471  0.8403 -1.6075 -1.8423
  522MOL0     H70465   9.399   1.067  10.462 -1.4988  0.5815 -2.4270
  522MOL0     H70466   9.541   1.097  10.070 -0.6229 -2.7878 -0.0198
  522MOL0     H70467   8.921   1.491  10.525 -0.0637 -0.6571  0.6134
  522MOL0     H70468   8.637   1.664  10.611  0.0840 -1.2903 -0.3783
  522MOL0     H70469   8.801   1.680  10.557  0.4785  0.1791  0.6791
  522MOL0     H70470   8.654   1.688  10.446  0.7047  1.1050  0.7020
  523MOL0     O70471   1.964   4.073   2.916 -0.4246  0.1027 -0.0586
  523MOL0     C70472   1.898   4.037   3.015  0.1070 -0.2943  0.1646
  523MOL0     O70473   1.940   3.944   3.102  0.7184  0.0981  0.9254
  523MOL0     C70474   2.068   3.888   3.113  0.1751 -0.0072 -0.4748
  523MOL0     C70475   2.084   3.783   3.204 -0.7006  0.1496 -0.3896
  523MOL0     C70476   2.213   3.722   3.229 -0.0321 -0.1864 -0.4235
  523MOL0     C70477   2.321   3.768   3.153 -0.5781 -0.1494 -0.6247
  523MOL0     O70478   2.429   3.689   3.171 -0.3794  0.0368 -0.3473
  523MOL0     C70479   2.536   3.672   3.073  0.2997 -0.3227  0.1678
  523MOL0     C70480   2.648   3.604   3.149 -0.0655  0.0682 -0.0339
  523MOL0     C70481   2.780   3.596   3.070 -0.5474 -0.2594  0.8361
  523MOL0     C70482   2.887   3.497   3.136  0.2537  0.3370 -0.0373
  523MOL0     C70483   2.998   3.469   3.035  1.0035 -0.5696 -0.1814
  523MOL0     C70484   3.096   3.357   3.080  0.1390  0.4191  0.7990
  523MOL0     C70485   3.194   3.321   2.963  0.2792 -0.2821 -0.1057
  523MOL0     C70486   3.276   3.197   3.001 -0.6549 -0.2601  0.5950
  523MOL0     N70487   3.395   3.232   3.091  0.4223  0.2331 -0.1194
  523MOL0     C70488   3.394   3.205   3.228  0.0783  0.5733 -0.5197
  523MOL0     C70489   3.516   3.255   3.274 -0.1758 -0.7412 -0.3538
  523MOL0     C70490   3.566   3.246   3.417 -0.0895  0.3401 -0.5816
  523MOL0     C70491   3.597   3.382   3.466 -0.4540 -0.1877 -1.0685
  523MOL0     C70492   3.670   3.397   3.603  0.6998 -1.1338  0.0005
  523MOL0     C70493   3.808   3.336   3.597 -0.3315 -0.4126  0.4923
  523MOL0     O70494   3.897   3.400   3.494  0.7057 -0.0112  0.1894
  523MOL0     C70495   4.030   3.392   3.501 -0.2561 -0.5050  0.2064
  523MOL0     C70496   4.102   3.308   3.592  0.7607  0.6061 -0.1062
  523MOL0     C70497   4.241   3.294   3.598 -0.2856 -0.3761  0.9050
  523MOL0     C70498   4.311   3.368   3.500  1.1177 -0.1136 -0.0273
  523MOL0     C70499   4.459   3.374   3.488  0.4708  0.6232  0.3928
  523MOL0     O70500   4.519   3.325   3.600  1.0286 -0.2764  0.1500
  523MOL0     C70501   4.652   3.346   3.604 -0.9432 -0.3662 -0.6482
  523MOL0     C70502   4.740   3.248   3.573 -0.2736  0.1642  0.1041
  523MOL0     C70503   4.876   3.268   3.562 -0.5292 -0.5174  0.5159
  523MOL0     C70504   4.922   3.398   3.588  0.1014 -0.4259  0.4601
  523MOL0     O70505   5.057   3.400   3.581  0.0366 -0.3274  0.1300
  523MOL0     C70506   5.143   3.469   3.678 -0.2028 -0.3533  1.2561
  523MOL0     C70507   5.283   3.454   3.616  0.6810 -0.4252  0.4287
  523MOL0     C70508   5.408   3.478   3.712 -0.1273 -0.8679  0.5529
  523MOL0     C70509   5.504   3.587   3.672 -0.4937 -1.2507 -0.6657
  523MOL0     C70510   5.640   3.594   3.763 -0.4294  0.5187  0.3951
  523MOL0     C70511   5.709   3.725   3.730 -0.0839 -0.1626 -0.0668
  523MOL0     C70512   5.855   3.717   3.787  0.2588 -0.4891  0.1551
  523MOL0     C70513   5.926   3.849   3.806 -0.0055 -0.0724  0.4645
  523MOL0    Cl70514   5.907   3.963   3.672 -0.1203 -0.1879 -0.0182
  523MOL0     C70515   4.842   3.501   3.616 -0.0827 -0.2257  0.6225
  523MOL0     C70516   4.704   3.480   3.615 -0.4593 -0.2828  0.6489
  523MOL0     O70517   4.522   3.427   3.390  0.0773 -0.4383  0.2213
  523MOL0     C70518   4.241   3.455   3.410 -0.6791  0.4503 -0.4442
  523MOL0     C70519   4.104   3.465   3.410  0.4989 -0.2157  0.3865
  523MOL0     N70520   3.591   3.293   3.158 -0.0583  1.0608 -0.0035
  523MOL0     N70521   3.515   3.277   3.059 -0.2597  0.5410  0.3223
  523MOL0     C70522   2.308   3.869   3.058  0.1623 -0.0579  0.0130
  523MOL0     C70523   2.182   3.924   3.037  0.1724  0.9334 -0.6282
  523MOL0     C70524   1.760   4.099   3.045 -0.1188  0.3257 -0.3671
  523MOL0     C70525   1.709   4.056   3.168  0.0657  0.0167 -1.1215
  523MOL0     C70526   1.586   4.104   3.205  0.9038  0.0522  0.1740
  523MOL0     C70527   1.512   4.197   3.128 -0.8934  0.5951 -0.3962
  523MOL0     O70528   1.390   4.245   3.173 -0.4506 -0.3520 -0.3630
  523MOL0     C70529   1.347   4.207   3.306 -0.2240 -0.3335 -0.1278
  523MOL0     C70530   1.192   4.239   3.298 -0.1117  1.0634 -0.1297
  523MOL0     C70531   1.107   4.160   3.195 -0.5968 -0.3767  0.3666
  523MOL0     C70532   1.117   4.014   3.208  0.0673 -0.1765  0.6051
  523MOL0     C70533   1.030   3.942   3.112 -0.4925  0.1163 -0.3882
  523MOL0     C70534   0.957   3.901   3.024 -1.0083  0.1281  0.2686
  523MOL0     C70535   1.562   4.235   3.002  0.0006 -0.3156 -0.4455
  523MOL0     C70536   1.687   4.185   2.955 -0.4618  0.1704  0.5931
  523MOL0     C70537   1.743   4.227   2.824  0.4407 -0.1555  0.1921
  523MOL0     H70538   1.997   3.768   3.267 -1.4466  1.2541 -1.1257
  523MOL0     H70539   2.223   3.645   3.305 -2.5837  2.0107  2.4121
  523MOL0     H70540   2.500   3.615   2.987  1.5446 -2.7933  1.1687
  523MOL0     H70541   2.568   3.774   3.049  0.1008  0.8335  4.0489
  523MOL0     H70542   2.613   3.508   3.189  0.5362  0.3942  1.3206
  523MOL0     H70543   2.673   3.656   3.242 -1.8658  1.6979 -0.4084
  523MOL0     H70544   2.816   3.699   3.060 -1.1145  0.2918  3.5836
  523MOL0     H70545   2.765   3.552   2.971 -0.7530 -1.6705  1.4682
  523MOL0     H70546   2.939   3.530   3.227  2.3185 -3.0471  0.2311
  523MOL0     H70547   2.837   3.401   3.155  2.0844 -0.6390  0.1112
  523MOL0     H70548   2.956   3.444   2.937 -2.9305  1.5441  0.7588
  523MOL0     H70549   3.057   3.561   3.033  0.3469 -0.0537  1.5544
  523MOL0     H70550   3.155   3.399   3.162  2.6758 -1.8810  0.3217
  523MOL0     H70551   3.047   3.272   3.129 -2.2857  1.3001  0.0381
  523MOL0     H70552   3.257   3.409   2.944  0.4602 -0.2347  0.6800
  523MOL0     H70553   3.132   3.319   2.873 -0.1969 -0.7506  0.2323
  523MOL0     H70554   3.223   3.118   3.054  1.2359 -0.1226  2.8036
  523MOL0     H70555   3.319   3.161   2.907 -1.0038  2.1778 -0.5871
  523MOL0     H70556   3.303   3.178   3.281 -0.3920  2.0957 -0.5226
  523MOL0     H70557   3.487   3.200   3.476  0.4374  1.8978  1.4573
  523MOL0     H70558   3.665   3.199   3.424  0.7831  2.2876  1.5511
  523MOL0     H70559   3.659   3.438   3.396  3.5921  0.1552  2.3606
  523MOL0     H70560   3.502   3.436   3.463 -0.2560  0.1989 -0.5078
  523MOL0     H70561   3.605   3.344   3.673 -0.8160 -1.1026 -1.3395
  523MOL0     H70562   3.676   3.504   3.624 -1.8980 -1.0775  0.6867
  523MOL0     H70563   3.807   3.227   3.595 -0.8840 -0.4841  2.3858
  523MOL0     H70564   3.841   3.367   3.697 -0.5325 -0.1296  0.4743
  523MOL0     H70565   4.038   3.256   3.663  0.0555  2.7329  0.9033
  523MOL0     H70566   4.302   3.225   3.655  2.3384  1.7458  0.8833
  523MOL0     H70567   4.696   3.153   3.545  0.0324  0.5068 -1.7015
  523MOL0     H70568   4.941   3.192   3.520  1.4069  1.8830 -1.1310
  523MOL0     H70569   5.114   3.574   3.681  1.7102  0.1888  1.8815
  523MOL0     H70570   5.133   3.433   3.781 -1.1160  1.4151  1.8364
  523MOL0     H70571   5.286   3.353   3.574  0.3455  1.0835 -3.5786
  523MOL0     H70572   5.287   3.514   3.525  1.3315 -1.6828 -0.4026
  523MOL0     H70573   5.379   3.508   3.813  0.7394  0.2397  0.4885
  523MOL0     H70574   5.470   3.388   3.712  1.2148 -0.0873 -2.7677
  523MOL0     H70575   5.447   3.681   3.675  3.1116  1.1803 -2.1049
  523MOL0     H70576   5.540   3.560   3.573  0.1670 -1.6654 -0.3257
  523MOL0     H70577   5.701   3.506   3.740 -0.2111  0.5385  0.8737
  523MOL0     H70578   5.628   3.586   3.872  2.3212  2.0897  0.9078
  523MOL0     H70579   5.706   3.742   3.622 -0.6346 -0.8708 -0.1630
  523MOL0     H70580   5.649   3.807   3.772 -0.1507  1.4608 -3.0284
  523MOL0     H70581   5.911   3.651   3.721  1.7300  0.2920  0.5716
  523MOL0     H70582   5.846   3.661   3.881 -1.0109 -0.2538  0.1953
  523MOL0     H70583   5.882   3.890   3.897 -0.8089  0.4346 -0.1370
  523MOL0     H70584   6.034   3.842   3.823  0.3192 -1.5320 -1.7507
  523MOL0     H70585   4.878   3.603   3.633 -0.9044  0.0830  0.5236
  523MOL0     H70586   4.630   3.559   3.627 -1.2738 -0.2375 -3.3054
  523MOL0     H70587   4.290   3.522   3.340 -1.1294  1.8347  0.5297
  523MOL0     H70588   4.041   3.529   3.349  1.4346  0.5203  0.1558
  523MOL0     H70589   2.385   3.921   3.002 -1.7859  4.1591  0.8411
  523MOL0     H70590   2.182   4.008   2.969  0.2821  0.6038 -1.0336
  523MOL0     H70591   1.756   3.991   3.241  1.2842  2.0818  0.0266
  523MOL0     H70592   1.552   4.056   3.296  0.4984 -0.8856 -0.4567
  523MOL0     H70593   1.396   4.267   3.383  0.1952 -0.7335 -0.0816
  523MOL0     H70594   1.365   4.101   3.324  0.3275 -0.5090 -1.5805
  523MOL0     H70595   1.179   4.345   3.272 -0.8740  0.4027 -2.7050
  523MOL0     H70596   1.141   4.225   3.394 -0.8767  2.0014 -0.3790
  523MOL0     H70597   1.129   4.193   3.093 -0.9137  2.8847  1.2328
  523MOL0     H70598   1.004   4.194   3.213 -0.7947 -1.2455  0.9416
  523MOL0     H70599   1.216   3.969   3.198 -0.0080 -0.0972 -0.5489
  523MOL0     H70600   1.082   3.985   3.308  0.2995 -2.5062  0.0554
  523MOL0     H70601   0.893   3.883   2.941  2.3785  0.6605 -2.6804
  523MOL0     H70602   1.496   4.303   2.949 -1.4342 -1.6172 -0.3974
  523MOL0     H70603   1.735   4.147   2.749 -2.2802 -1.7218  2.0041
  523MOL0     H70604   1.681   4.308   2.786  1.7003 -0.3224 -2.4529
  523MOL0     H70605   1.846   4.262   2.835 -0.8875  4.5794 -0.2821
  524MOL0     O70606  10.029   3.620   2.713 -0.0441  0.7544  0.1114
  524MOL0     C70607   9.996   3.636   2.598  0.0087  0.1931  0.1602
  524MOL0     O70608  10.065   3.602   2.486  1.1831 -0.4408 -0.1860
  524MOL0     C70609  10.200   3.595   2.491 -0.3393  0.6008  1.1501
  524MOL0     C70610  10.283   3.645   2.591  0.6222  0.0779 -0.5429
  524MOL0     C70611  10.424   3.644   2.584  0.8092 -0.3019 -0.0912
  524MOL0     C70612  10.487   3.570   2.478  0.1843 -1.1404 -0.6746
  524MOL0     O70613  10.623   3.544   2.463 -0.3922  0.2602 -0.5588
  524MOL0     C70614  10.715   3.596   2.560 -0.2139 -0.5619 -0.3723
  524MOL0     C70615  10.849   3.519   2.541 -0.3292  0.6324  0.4806
  524MOL0     C70616  10.950   3.556   2.653 -0.1382 -0.0320  0.4056
  524MOL0     C70617  11.077   3.467   2.640  0.3748  0.0867 -0.2981
  524MOL0     C70618  11.179   3.490   2.745 -0.5147  0.3689 -0.8243
  524MOL0     C70619  11.303   3.411   2.708  0.6946 -0.4485  0.6813
  524MOL0     C70620  11.400   3.394   2.823  0.0639 -0.3597  0.2416
  524MOL0     C70621  11.528   3.322   2.772 -0.4210 -0.0051 -0.2274
  524MOL0     N70622  11.648   3.325   2.866  1.0057 -0.1165  0.4133
  524MOL0     C70623  11.671   3.224   2.954 -0.4231 -0.1589  0.8360
  524MOL0     C70624  11.760   3.283   3.033 -0.0600 -0.5330 -0.1325
  524MOL0     C70625  11.828   3.208   3.148  0.3554  0.6499 -0.3836
  524MOL0     C70626  11.926   3.085   3.110  0.2543 -0.7046 -1.1078
  524MOL0     C70627  11.878   2.956   3.163 -0.5005 -0.1552  1.1964
  524MOL0     C70628  11.990   2.838   3.161  0.4408 -0.3615 -0.3732
  524MOL0     O70629  12.093   2.870   3.258 -0.2812  0.2035 -0.5002
  524MOL0     C70630  12.207   2.800   3.249 -0.3162  0.3035  0.5486
  524MOL0     C70631  12.310   2.856   3.322 -0.0760  0.1718  0.0741
  524MOL0     C70632  12.432   2.796   3.333 -0.4730  0.6173 -0.5202
  524MOL0     C70633  12.462   2.676   3.263  0.3769  0.1675 -0.1947
  524MOL0     C70634  12.581   2.592   3.291  1.3025 -0.2484 -0.7232
  524MOL0     O70635  12.626   2.590   3.413  0.0824  0.0748  0.2378
  524MOL0     C70636  12.739   2.511   3.438 -0.0296 -0.9436 -0.5371
  524MOL0     C70637  12.750   2.459   3.566 -0.7722  0.6213  0.1702
  524MOL0     C70638  12.856   2.378   3.608 -0.1865 -0.1898  0.5114
  524MOL0     C70639  12.955   2.347   3.512  0.1889 -0.3009  0.0628
  524MOL0     O70640  13.055   2.257   3.530  0.1727 -0.0607  0.1720
  524MOL0     C70641  13.112   2.261   3.660 -0.5555  0.5685 -0.0983
  524MOL0     C70642  13.240   2.173   3.678 -0.3356 -0.8613 -0.4739
  524MOL0     C70643  13.358   2.249   3.616 -0.5186  0.8566 -0.0554
  524MOL0     C70644  13.482   2.162   3.608 -0.1339  1.2066 -0.1170
  524MOL0     C70645  13.561   2.134   3.736  0.6416 -0.3367  0.0465
  524MOL0     C70646  13.647   2.256   3.772 -0.1551  0.3690  0.2479
  524MOL0     C70647  13.758   2.228   3.881  0.6089 -0.3134 -0.0426
  524MOL0     C70648  13.864   2.347   3.879 -0.2967 -0.4445 -0.2973
  524MOL0    Cl70649  13.965   2.327   4.027 -0.5303 -0.4569  0.1311
  524MOL0     C70650  12.955   2.404   3.381  0.0657 -0.2792 -0.9604
  524MOL0     C70651  12.851   2.487   3.347  0.0687 -0.2830  0.4807
  524MOL0     O70652  12.617   2.525   3.191 -0.0287  0.0442 -0.4987
  524MOL0     C70653  12.362   2.633   3.173 -0.6897  0.8827  0.4633
  524MOL0     C70654  12.240   2.696   3.164  0.2910 -0.5576 -0.2901
  524MOL0     N70655  11.791   3.414   2.992 -0.4341  0.6157 -0.5327
  524MOL0     N70656  11.723   3.439   2.884 -0.4357 -0.5504  0.6300
  524MOL0     C70657  10.405   3.518   2.382 -0.2270  0.5831 -0.0983
  524MOL0     C70658  10.266   3.527   2.386 -0.5370  0.6858  0.8648
  524MOL0     C70659   9.846   3.658   2.565 -0.7185  0.3502  0.3994
  524MOL0     C70660   9.807   3.609   2.442 -0.0044 -0.6679 -0.5285
  524MOL0     C70661   9.673   3.603   2.419  0.3833 -0.6017  0.5901
  524MOL0     C70662   9.575   3.658   2.509 -0.3740 -0.0046 -0.5036
  524MOL0     O70663   9.443   3.664   2.477  0.4067 -0.4844 -0.2553
  524MOL0     C70664   9.419   3.718   2.346 -0.7438  0.3259 -0.8356
  524MOL0     C70665   9.280   3.782   2.323 -0.8829  0.1412 -0.8140
  524MOL0     C70666   9.149   3.704   2.326 -0.0731  0.3872  0.5447
  524MOL0     C70667   9.129   3.638   2.461  0.3914 -0.1261 -0.5962
  524MOL0     C70668   8.990   3.605   2.497  0.3636  0.4267  0.6462
  524MOL0     C70669   8.878   3.562   2.524  0.2986 -0.8331  0.1399
  524MOL0     C70670   9.614   3.708   2.625 -0.6779  0.0353 -0.4208
  524MOL0     C70671   9.752   3.702   2.662  0.1552  0.2344  0.1955
  524MOL0     C70672   9.787   3.744   2.803 -0.3478  0.3409  0.7180
  524MOL0     H70673  10.240   3.705   2.670  1.4080  1.1118 -0.8773
  524MOL0     H70674  10.485   3.703   2.652  2.8516 -1.0319 -1.1998
  524MOL0     H70675  10.718   3.704   2.540 -0.0866 -0.4515  0.2314
  524MOL0     H70676  10.678   3.575   2.660 -0.4267 -0.7550 -0.4933
  524MOL0     H70677  10.884   3.551   2.442 -1.4507 -1.5895 -0.6961
  524MOL0     H70678  10.836   3.411   2.540 -2.1663  0.8176  0.7141
  524MOL0     H70679  10.901   3.532   2.747 -0.6832 -0.1702  0.0912
  524MOL0     H70680  10.969   3.664   2.651 -0.9524  0.1146  0.3681
  524MOL0     H70681  11.056   3.360   2.632  0.4059 -0.3941  3.8096
  524MOL0     H70682  11.121   3.496   2.544  1.4246 -1.8638 -0.4672
  524MOL0     H70683  11.206   3.596   2.737  4.7192 -0.6559 -0.3582
  524MOL0     H70684  11.125   3.469   2.838 -4.8354 -1.0565 -3.3950
  524MOL0     H70685  11.265   3.314   2.677 -3.6212  0.6146  2.0502
  524MOL0     H70686  11.361   3.459   2.629  0.6241  0.3198  1.0816
  524MOL0     H70687  11.354   3.342   2.907  1.7503 -1.0208  0.7882
  524MOL0     H70688  11.432   3.490   2.865  2.3262 -1.5382  1.4032
  524MOL0     H70689  11.525   3.218   2.738  2.3897 -0.8189  1.6102
  524MOL0     H70690  11.559   3.392   2.693 -3.5112  2.6852  0.7408
  524MOL0     H70691  11.640   3.120   2.963  0.3856 -0.2911  2.5083
  524MOL0     H70692  11.883   3.270   3.219  2.2884 -2.0360  0.6281
  524MOL0     H70693  11.743   3.170   3.205 -0.1871  2.8961  0.3981
  524MOL0     H70694  11.936   3.085   3.001 -0.2078 -0.6456 -1.1563
  524MOL0     H70695  12.022   3.115   3.153 -2.5821  2.5889  4.0640
  524MOL0     H70696  11.791   2.931   3.101  0.7777  1.2208 -1.3589
  524MOL0     H70697  11.847   2.967   3.267 -2.0097 -0.5145  0.8187
  524MOL0     H70698  12.040   2.841   3.064  2.4165  2.7859  0.5863
  524MOL0     H70699  11.949   2.740   3.188  0.1111 -0.4346 -1.1137
  524MOL0     H70700  12.280   2.943   3.379  0.7184 -1.2832  2.8684
  524MOL0     H70701  12.503   2.841   3.402  0.9231  1.0893 -2.1980
  524MOL0     H70702  12.671   2.472   3.640 -2.9069  0.2046 -1.9252
  524MOL0     H70703  12.853   2.336   3.708 -3.0993 -0.4195  0.3957
  524MOL0     H70704  13.127   2.363   3.696  0.2726  0.7338 -0.8911
  524MOL0     H70705  13.040   2.223   3.733  2.0000 -1.3752  1.6023
  524MOL0     H70706  13.261   2.166   3.785  2.4913 -0.0505 -0.8867
  524MOL0     H70707  13.234   2.071   3.639 -2.0190 -1.4124  1.0663
  524MOL0     H70708  13.332   2.276   3.513 -1.9649 -1.5978 -0.4379
  524MOL0     H70709  13.375   2.340   3.674  1.0426  0.8809 -0.5116
  524MOL0     H70710  13.538   2.214   3.529 -0.6305 -2.3059 -3.0151
  524MOL0     H70711  13.456   2.065   3.564  0.5786  0.3972  1.1786
  524MOL0     H70712  13.623   2.045   3.723 -1.6374 -1.8786 -1.2009
  524MOL0     H70713  13.493   2.112   3.819  2.1864 -1.8119  0.9733
  524MOL0     H70714  13.699   2.286   3.681 -0.6511 -0.6770 -0.4086
  524MOL0     H70715  13.595   2.345   3.809  1.2687 -0.3300  4.4045
  524MOL0     H70716  13.810   2.137   3.851 -1.5001 -0.2158 -4.9965
  524MOL0     H70717  13.702   2.219   3.974 -1.1847  0.1199 -1.0290
  524MOL0     H70718  13.926   2.327   3.791  0.1219 -0.4821  0.0047
  524MOL0     H70719  13.819   2.446   3.862  0.8325  0.1533  0.0982
  524MOL0     H70720  13.037   2.381   3.314 -0.4847 -2.2628 -1.0122
  524MOL0     H70721  12.840   2.525   3.246  1.1375  0.1275  0.5142
  524MOL0     H70722  12.361   2.539   3.120 -1.6438  0.5845  0.9926
  524MOL0     H70723  12.160   2.665   3.098 -2.3121  2.5843  1.1347
  524MOL0     H70724  10.464   3.463   2.310 -1.6190  1.2343 -1.8117
  524MOL0     H70725  10.217   3.472   2.306 -1.7132 -3.8748  4.3112
  524MOL0     H70726   9.873   3.582   2.360 -0.4961  1.0517 -1.5334
  524MOL0     H70727   9.634   3.552   2.331  0.3131 -1.2111  0.9638
  524MOL0     H70728   9.417   3.638   2.270  0.7244  1.3541 -2.0182
  524MOL0     H70729   9.497   3.791   2.324 -2.5967  3.1157  1.1323
  524MOL0     H70730   9.283   3.828   2.223  3.8189 -1.7888 -1.8007
  524MOL0     H70731   9.267   3.856   2.402 -2.3796 -0.9261 -0.0111
  524MOL0     H70732   9.146   3.618   2.258 -0.4714  0.5939  0.2947
  524MOL0     H70733   9.069   3.774   2.298  1.3060  1.5228 -0.7662
  524MOL0     H70734   9.185   3.545   2.480 -1.3848 -0.9694  0.9022
  524MOL0     H70735   9.154   3.713   2.537 -0.4265  1.6420 -2.0101
  524MOL0     H70736   8.779   3.533   2.553 -0.2192  0.0193 -0.7152
  524MOL0     H70737   9.551   3.750   2.704  1.0470 -0.6391  1.3876
  524MOL0     H70738   9.807   3.658   2.869 -0.2018  0.0752  0.3336
  524MOL0     H70739   9.874   3.810   2.803 -2.0949  3.1066 -3.9638
  524MOL0     H70740   9.705   3.804   2.841 -1.9264  0.4140 -2.4993
  525MOL0     O70741   0.743   4.689  10.997 -0.1449 -0.5637  0.2001
  525MOL0     C70742   0.653   4.756  11.048  0.0349 -1.5361  0.2766
  525MOL0     O70743   0.666   4.891  11.088  0.1743  0.1968  0.9462
  525MOL0     C70744   0.787   4.958  11.075  0.1900  0.0781 -0.8533
  525MOL0     C70745   0.789   5.078  11.017 -0.5851 -0.5144  0.2443
  525MOL0     C70746   0.908   5.143  10.997 -0.6165  0.6310  0.2081
  525MOL0     C70747   1.028   5.099  11.053  0.5682  0.7473  0.2066
  525MOL0     O70748   1.147   5.166  11.038  0.6817  0.2289  0.4483
  525MOL0     C70749   1.159   5.267  10.945 -1.0578 -0.8820 -0.1143
  525MOL0     C70750   1.312   5.294  10.933  0.9311  0.5528 -0.2797
  525MOL0     C70751   1.355   5.362  10.807  0.1351  0.0600 -0.4252
  525MOL0     C70752   1.371   5.270  10.690 -0.3072  0.0747 -0.3073
  525MOL0     C70753   1.436   5.334  10.560  0.1365 -0.6613 -0.2492
  525MOL0     C70754   1.590   5.336  10.565  0.2067  0.0914 -0.1776
  525MOL0     C70755   1.645   5.311  10.422 -0.4076 -0.1499  0.2577
  525MOL0     C70756   1.779   5.373  10.410  0.3600 -0.4033 -0.0032
  525MOL0     N70757   1.883   5.282  10.468 -0.0776 -1.1637  0.2627
  525MOL0     C70758   1.976   5.209  10.404  0.0236  0.6451  0.4056
  525MOL0     C70759   2.055   5.155  10.494  0.5454  0.6139  0.1756
  525MOL0     C70760   2.175   5.057  10.488  0.3869  0.1520  0.5205
  525MOL0     C70761   2.306   5.132  10.488 -0.3572 -1.0466 -0.8834
  525MOL0     C70762   2.312   5.242  10.602  0.1475  0.2447 -0.1293
  525MOL0     C70763   2.452   5.289  10.622  0.0198  0.1784  0.7713
  525MOL0     O70764   2.521   5.188  10.697 -0.2878 -0.5358 -0.3846
  525MOL0     C70765   2.653   5.209  10.738  0.7699 -0.2595  0.2293
  525MOL0     C70766   2.736   5.307  10.691 -0.0291 -0.0353  0.2997
  525MOL0     C70767   2.869   5.322  10.742  0.1346 -0.1642  0.2809
  525MOL0     C70768   2.920   5.236  10.831 -0.2555  0.9211 -0.3566
  525MOL0     C70769   3.061   5.234  10.889  0.6348  0.0360  0.7290
  525MOL0     O70770   3.157   5.299  10.817 -0.2518 -0.5810  0.0795
  525MOL0     C70771   3.278   5.330  10.877  1.0139 -0.1769 -0.7823
  525MOL0     C70772   3.391   5.287  10.811 -0.3589 -0.0990 -0.6455
  525MOL0     C70773   3.514   5.296  10.868  0.0279  0.4555  0.1277
  525MOL0     C70774   3.534   5.375  10.984 -0.1330  0.0670 -0.1018
  525MOL0     O70775   3.666   5.416  11.017  0.0712  0.5714  0.3929
  525MOL0     C70776   3.686   5.512  11.120 -0.0269 -0.3099  0.4494
  525MOL0     C70777   3.839   5.526  11.142 -0.4367  0.8009 -1.0782
  525MOL0     C70778   3.884   5.647  11.212 -0.2015 -0.3155  0.0918
  525MOL0     C70779   4.033   5.666  11.225 -0.6559  0.0814 -0.0280
  525MOL0     C70780   4.062   5.802  11.279 -0.1492  0.8336 -0.0568
  525MOL0     C70781   4.205   5.796  11.326  1.8768 -0.3878  0.2262
  525MOL0     C70782   4.242   5.932  11.374 -0.8384  0.0331 -0.0093
  525MOL0     C70783   4.336   5.948  11.499 -0.3655  0.1379  0.5305
  525MOL0    Cl70784   4.496   5.887  11.453 -0.4250  0.2614 -0.2240
  525MOL0     C70785   3.425   5.432  11.046  0.0447  0.2596 -1.1525
  525MOL0     C70786   3.291   5.401  11.002  0.0891 -0.3882 -0.2614
  525MOL0     O70787   3.076   5.186  10.994 -0.0782  0.2459  0.3476
  525MOL0     C70788   2.841   5.128  10.873  0.2614 -0.4236 -0.8932
  525MOL0     C70789   2.713   5.111  10.820 -0.4577 -0.4124  0.3809
  525MOL0     N70790   2.018   5.203  10.614  0.0511  0.0267 -1.0067
  525MOL0     N70791   1.909   5.276  10.601 -0.6777  0.4418 -0.5888
  525MOL0     C70792   1.027   4.977  11.115  0.0736 -0.5797 -0.7283
  525MOL0     C70793   0.904   4.908  11.134  0.0571 -0.6411 -0.1906
  525MOL0     C70794   0.521   4.694  11.039 -0.2845  0.1361  0.4034
  525MOL0     C70795   0.502   4.556  11.021  0.5704  0.5302 -0.1000
  525MOL0     C70796   0.381   4.487  11.025  0.7336 -0.3849 -0.7283
  525MOL0     C70797   0.267   4.561  11.051  0.3659  0.4750 -0.2944
  525MOL0     O70798   0.143   4.498  11.033  0.7197  0.2217  0.2170
  525MOL0     C70799   0.013   4.555  11.073  0.5186  0.8686  0.2773
  525MOL0     C70800  -0.033   4.673  10.977 -0.1754  0.5261  0.1478
  525MOL0     C70801  -0.083   4.613  10.843  0.1318  0.1594  0.1442
  525MOL0     C70802   0.016   4.522  10.761 -0.9544  0.7939  0.8172
  525MOL0     C70803   0.142   4.591  10.721  0.3939 -0.2142 -0.5834
  525MOL0     C70804   0.239   4.645  10.679  0.0143  0.1771  0.4071
  525MOL0     C70805   0.282   4.696  11.079  0.0516 -0.9009  0.5236
  525MOL0     C70806   0.401   4.768  11.067 -0.7637  0.1897 -0.1754
  525MOL0     C70807   0.387   4.912  11.098  0.2742  0.0151  0.5183
  525MOL0     H70808   0.694   5.122  10.990 -1.2232  0.4128  3.5262
  525MOL0     H70809   0.892   5.235  10.942  1.0250 -0.0380 -1.4379
  525MOL0     H70810   1.107   5.236  10.854  0.1478 -0.4212 -0.9935
  525MOL0     H70811   1.117   5.361  10.981  0.7789 -0.4685  1.0575
  525MOL0     H70812   1.361   5.200  10.961 -2.5427 -1.1261  0.8406
  525MOL0     H70813   1.330   5.356  11.021 -1.6931 -2.4388  2.6556
  525MOL0     H70814   1.450   5.410  10.834 -0.0116 -0.4381  1.0614
  525MOL0     H70815   1.277   5.434  10.781  1.5618  1.5989 -0.6042
  525MOL0     H70816   1.434   5.186  10.721 -1.9246 -0.7997  0.6857
  525MOL0     H70817   1.273   5.230  10.664 -0.1704  1.3310 -3.0677
  525MOL0     H70818   1.403   5.264  10.483  2.4475 -2.0801 -0.0618
  525MOL0     H70819   1.398   5.435  10.542  1.6518 -0.2174 -1.1646
  525MOL0     H70820   1.629   5.422  10.618  0.0380 -1.1677  2.0933
  525MOL0     H70821   1.617   5.249  10.625  0.2859  1.6180  2.0999
  525MOL0     H70822   1.576   5.357  10.351 -0.7025 -0.2145  0.5027
  525MOL0     H70823   1.650   5.205  10.396  0.2813  0.8169 -4.4698
  525MOL0     H70824   1.799   5.397  10.305 -1.9658 -0.4897 -0.5226
  525MOL0     H70825   1.786   5.466  10.467 -2.4706 -0.0021 -0.1648
  525MOL0     H70826   1.990   5.193  10.298  1.4864  2.7165  0.2276
  525MOL0     H70827   2.167   4.997  10.580  1.9610 -0.5791  0.2150
  525MOL0     H70828   2.167   4.985  10.406 -0.0395 -1.9861  2.3424
  525MOL0     H70829   2.401   5.081  10.507  1.6773  2.8471  0.5518
  525MOL0     H70830   2.311   5.189  10.394 -0.9811  2.0752  0.8295
  525MOL0     H70831   2.287   5.184  10.691 -0.4116 -1.2783 -1.2169
  525MOL0     H70832   2.239   5.323  10.594 -0.1850 -0.1486 -1.3990
  525MOL0     H70833   2.455   5.390  10.665 -0.8803  0.8203 -0.5986
  525MOL0     H70834   2.495   5.301  10.522  1.0973 -0.4014  1.1433
  525MOL0     H70835   2.709   5.375  10.611  1.8511 -0.0806 -0.4360
  525MOL0     H70836   2.939   5.399  10.712  0.0059  0.6996  2.0769
  525MOL0     H70837   3.369   5.238  10.717  0.1789 -0.0526 -0.7944
  525MOL0     H70838   3.607   5.258  10.826 -1.1747 -2.3304 -0.2126
  525MOL0     H70839   3.662   5.610  11.078 -1.8183 -1.6784 -1.9508
  525MOL0     H70840   3.628   5.503  11.213 -0.2320  3.6705  0.8854
  525MOL0     H70841   3.876   5.440  11.199  0.2494  1.7688 -0.0152
  525MOL0     H70842   3.883   5.516  11.042 -0.5813  1.5563 -1.2247
  525MOL0     H70843   3.843   5.740  11.172 -0.2780  0.2104  1.3314
  525MOL0     H70844   3.847   5.647  11.315  0.0392 -1.7908  0.2009
  525MOL0     H70845   4.090   5.644  11.134 -0.6194 -3.1103  0.6409
  525MOL0     H70846   4.066   5.585  11.291  0.2860  1.9111  1.9005
  525MOL0     H70847   3.990   5.821  11.360  1.3972  1.1759  1.2903
  525MOL0     H70848   4.055   5.875  11.198  2.2491 -0.1046 -1.1713
  525MOL0     H70849   4.199   5.719  11.404 -1.0856 -0.4899 -0.0252
  525MOL0     H70850   4.270   5.766  11.243  1.0369  0.1296 -0.6286
  525MOL0     H70851   4.156   5.991  11.409 -0.5953  1.5688 -1.8195
  525MOL0     H70852   4.296   5.987  11.296  2.8617  1.6445  3.3301
  525MOL0     H70853   4.330   6.051  11.534 -1.4623 -1.6448  6.7515
  525MOL0     H70854   4.297   5.881  11.577  1.2454 -2.8846 -1.0445
  525MOL0     H70855   3.429   5.501  11.129 -0.1929  0.9709 -1.7221
  525MOL0     H70856   3.199   5.438  11.047 -0.7078  0.1473 -2.2101
  525MOL0     H70857   2.883   5.050  10.935  0.0700  1.7086  2.1492
  525MOL0     H70858   2.649   5.027  10.846 -2.3628  1.2212  1.2149
  525MOL0     H70859   1.112   4.930  11.162 -0.4971 -2.1810 -1.2291
  525MOL0     H70860   0.890   4.810  11.179 -0.8779 -1.0022 -1.2298
  525MOL0     H70861   0.587   4.493  10.996 -1.0963 -3.2878  2.7502
  525MOL0     H70862   0.377   4.380  11.006 -0.9238 -0.5423  0.3485
  525MOL0     H70863   0.018   4.595  11.175 -2.1356  0.3283  0.6956
  525MOL0     H70864  -0.061   4.474  11.072  2.4669 -1.0401 -2.1646
  525MOL0     H70865   0.046   4.745  10.954  0.3552 -0.3449 -0.8009
  525MOL0     H70866  -0.111   4.730  11.029 -0.7192  0.6074 -0.7378
  525MOL0     H70867  -0.125   4.691  10.779 -0.6556 -0.8661 -0.6079
  525MOL0     H70868  -0.171   4.552  10.865  1.1602 -2.4607 -2.4200
  525MOL0     H70869   0.044   4.434  10.820  2.2698  2.7384  2.4992
  525MOL0     H70870  -0.038   4.486  10.673 -0.6353 -3.7793  2.2293
  525MOL0     H70871   0.331   4.678  10.635 -0.7476  0.2449 -1.2121
  525MOL0     H70872   0.186   4.746  11.092  0.7095  0.6627 -0.3587
  525MOL0     H70873   0.442   4.978  11.030 -1.2702 -0.2036 -1.0127
  525MOL0     H70874   0.284   4.938  11.071 -0.0963 -2.0466 -0.2596
  525MOL0     H70875   0.397   4.946  11.202 -2.0606  3.9321 -0.3242
  526MOL0     O70876   0.872   6.943  10.917  0.1896 -0.0816  0.1361
  526MOL0     C70877   0.784   7.014  10.970 -0.3808  0.0999  0.7589
  526MOL0     O70878   0.802   7.122  11.059  0.0975  0.1001  0.2506
  526MOL0     C70879   0.924   7.140  11.109 -0.2785  0.2083  0.0939
  526MOL0     C70880   1.019   7.206  11.031 -0.4462 -0.0801  0.0965
  526MOL0     C70881   1.154   7.207  11.070 -0.0297  0.1616 -0.0541
  526MOL0     C70882   1.202   7.149  11.183 -0.6534 -0.1907 -1.0137
  526MOL0     O70883   1.333   7.119  11.226 -0.3011 -0.3292 -0.7602
  526MOL0     C70884   1.440   7.188  11.162  0.0642 -0.2254  0.5743
  526MOL0     C70885   1.559   7.183  11.253 -0.3255 -0.1624  0.6707
  526MOL0     C70886   1.694   7.228  11.188 -0.5803 -0.1889 -0.2023
  526MOL0     C70887   1.793   7.251  11.297  0.3743  1.5724 -0.1610
  526MOL0     C70888   1.937   7.237  11.245  0.3112 -0.0705  0.2061
  526MOL0     C70889   2.053   7.272  11.344 -0.3504  0.4636  0.0162
  526MOL0     C70890   2.180   7.253  11.256 -0.5323  0.0798  0.1156
  526MOL0     C70891   2.219   7.383  11.184  0.2671  0.3116 -0.3626
  526MOL0     N70892   2.355   7.389  11.115  0.6063  0.2753 -0.0261
  526MOL0     C70893   2.417   7.294  11.038 -0.2380  0.1928 -0.3306
  526MOL0     C70894   2.543   7.342  11.015 -0.1169 -0.0438  0.6860
  526MOL0     C70895   2.632   7.292  10.900  0.1976  0.4732 -0.3957
  526MOL0     C70896   2.778   7.320  10.943 -0.7320 -0.4871  0.2603
  526MOL0     C70897   2.870   7.270  10.838 -0.9852 -0.1193  0.4954
  526MOL0     C70898   3.018   7.304  10.866 -0.4776  0.6980 -0.7052
  526MOL0     O70899   3.077   7.295  10.735 -0.6017 -0.6481  0.2756
  526MOL0     C70900   3.206   7.334  10.713  0.7629 -0.3215  0.4162
  526MOL0     C70901   3.291   7.379  10.813  0.0935 -0.0986 -0.3436
  526MOL0     C70902   3.421   7.417  10.783  0.2046  0.2276  0.1454
  526MOL0     C70903   3.464   7.402  10.649  0.4713  0.4044 -0.1918
  526MOL0     C70904   3.606   7.434  10.604 -0.2521  0.4212  0.2006
  526MOL0     O70905   3.695   7.459  10.696  0.2311  0.6070 -0.4734
  526MOL0     C70906   3.825   7.466  10.655 -0.1195  0.1376  0.8630
  526MOL0     C70907   3.912   7.356  10.659  0.6920 -0.2768 -0.1545
  526MOL0     C70908   4.045   7.355  10.606  0.9600  0.2948  0.0738
  526MOL0     C70909   4.084   7.469  10.532  0.4002 -0.0666  0.7395
  526MOL0     O70910   4.195   7.474  10.449  0.7318  0.1758  0.0358
  526MOL0     C70911   4.316   7.422  10.497  0.3781  0.6471  0.6414
  526MOL0     C70912   4.429   7.484  10.417 -0.2814 -0.5330 -1.0509
  526MOL0     C70913   4.456   7.414  10.285 -0.3101  0.5747  0.1655
  526MOL0     C70914   4.368   7.469  10.172 -0.1859  0.5843 -0.4118
  526MOL0     C70915   4.349   7.374  10.055 -0.4602  0.5842 -0.5575
  526MOL0     C70916   4.485   7.309  10.002  0.1694  0.1637  0.3413
  526MOL0     C70917   4.448   7.197   9.906 -0.2269  0.0558  0.0217
  526MOL0     C70918   4.564   7.168   9.807 -0.5702 -0.3277  0.2828
  526MOL0    Cl70919   4.705   7.114   9.903 -0.1900 -0.2376  0.5110
  526MOL0     C70920   4.000   7.585  10.526 -0.5034  0.0580 -0.1737
  526MOL0     C70921   3.871   7.583  10.592  0.0297  0.0564 -0.4002
  526MOL0     O70922   3.627   7.455  10.485  0.7118  0.2211  0.2619
  526MOL0     C70923   3.369   7.379  10.551 -0.0094  0.0960  0.2251
  526MOL0     C70924   3.245   7.344  10.581 -0.0920 -0.0632  0.8237
  526MOL0     N70925   2.551   7.464  11.069 -0.1118  0.2754  0.2326
  526MOL0     N70926   2.436   7.493  11.127 -1.3067  0.1178  0.2899
  526MOL0     C70927   1.102   7.105  11.276  0.2568 -0.8748  0.6766
  526MOL0     C70928   0.967   7.107  11.233 -0.5404  0.3699 -0.9972
  526MOL0     C70929   0.642   6.984  10.937 -0.1421  0.8431  0.8200
  526MOL0     C70930   0.624   6.923  10.811 -0.3255 -0.3448  0.2654
  526MOL0     C70931   0.491   6.905  10.768 -0.1848 -0.7934  0.1365
  526MOL0     C70932   0.381   6.925  10.856 -0.1382  0.3963  0.2937
  526MOL0     O70933   0.252   6.885  10.827 -0.3968  0.4768  0.1238
  526MOL0     C70934   0.212   6.862  10.693 -0.1808  0.6880  0.3466
  526MOL0     C70935   0.086   6.787  10.686 -0.6172 -0.5589  0.7374
  526MOL0     C70936   0.076   6.676  10.783  0.4979 -0.8107 -0.1165
  526MOL0     C70937  -0.037   6.593  10.746 -0.0930  0.1740 -0.2673
  526MOL0     C70938  -0.164   6.665  10.745  0.4686 -0.5129  0.5065
  526MOL0     C70939  -0.261   6.733  10.717  0.1424  0.3820  0.9722
  526MOL0     C70940   0.409   6.979  10.981 -0.2618  0.4759 -0.5303
  526MOL0     C70941   0.536   7.015  11.024  0.7059 -0.0527 -0.1025
  526MOL0     C70942   0.551   7.071  11.164  0.4097 -0.2116 -0.1857
  526MOL0     H70943   1.001   7.246  10.931  0.9942  0.4980  0.0496
  526MOL0     H70944   1.230   7.243  11.002 -1.4531 -0.0435 -1.8319
  526MOL0     H70945   1.451   7.139  11.065 -0.3150  1.0754 -0.1608
  526MOL0     H70946   1.420   7.294  11.140 -0.9654 -0.4690  0.3153
  526MOL0     H70947   1.570   7.077  11.278 -4.0219 -1.3899 -2.0285
  526MOL0     H70948   1.529   7.250  11.334 -1.6113 -0.4796  0.4845
  526MOL0     H70949   1.688   7.320  11.128  0.3178 -1.5152 -2.4531
  526MOL0     H70950   1.726   7.149  11.119 -3.1332 -1.2433 -0.3186
  526MOL0     H70951   1.764   7.343  11.349 -0.9209  1.4321 -0.5812
  526MOL0     H70952   1.771   7.173  11.371 -1.8141  1.0468 -1.2608
  526MOL0     H70953   1.960   7.138  11.205  1.1804 -0.1453  0.8534
  526MOL0     H70954   1.942   7.300  11.156  1.0840 -0.5571 -0.1050
  526MOL0     H70955   2.046   7.376  11.379  3.9141  1.4596 -1.4509
  526MOL0     H70956   2.049   7.205  11.430  0.9125 -0.7536 -0.8388
  526MOL0     H70957   2.178   7.171  11.183  1.9438 -2.8880  3.0562
  526MOL0     H70958   2.264   7.225  11.320  1.3128 -0.6326 -2.4214
  526MOL0     H70959   2.139   7.402  11.111  0.2000 -1.3735 -0.7690
  526MOL0     H70960   2.218   7.474  11.245 -3.1122  3.1135 -4.0162
  526MOL0     H70961   2.364   7.204  11.009  1.2860 -0.1599 -2.2933
  526MOL0     H70962   2.612   7.187  10.874 -0.6099  0.5500 -0.1110
  526MOL0     H70963   2.601   7.353  10.815  0.2288  0.1752 -0.6252
  526MOL0     H70964   2.788   7.428  10.947 -2.0978 -0.3851  1.3752
  526MOL0     H70965   2.806   7.276  11.040  2.7052  0.9084  0.0618
  526MOL0     H70966   2.839   7.324  10.748  0.9065 -0.4297 -0.3861
  526MOL0     H70967   2.867   7.161  10.825 -1.6210 -0.2022  1.2411
  526MOL0     H70968   3.059   7.241  10.946 -0.5078  2.0961  0.4492
  526MOL0     H70969   3.029   7.404  10.909 -0.8937  0.5641 -0.2742
  526MOL0     H70970   3.245   7.386  10.911 -3.6510  0.9550 -1.9723
  526MOL0     H70971   3.477   7.457  10.867 -0.8935 -0.8672  1.4556
  526MOL0     H70972   3.873   7.265  10.704  0.5008 -0.1451 -0.0537
  526MOL0     H70973   4.104   7.264  10.618  1.5294  0.5585 -0.6373
  526MOL0     H70974   4.323   7.447  10.603  0.4896 -0.8612  1.0140
  526MOL0     H70975   4.321   7.313  10.495  1.5819  0.6783 -1.8846
  526MOL0     H70976   4.404   7.590  10.403  2.5848  0.0124 -2.7499
  526MOL0     H70977   4.524   7.481  10.471  0.7581 -0.7398 -2.8217
  526MOL0     H70978   4.561   7.438  10.268 -0.1218  2.3091  3.1339
  526MOL0     H70979   4.440   7.306  10.292 -1.8719  0.7546 -0.2842
  526MOL0     H70980   4.415   7.564  10.144  0.6079  0.8205  1.5679
  526MOL0     H70981   4.269   7.498  10.208 -0.3065  3.3701 -2.6224
  526MOL0     H70982   4.305   7.428   9.970 -0.9635  0.3688 -0.4365
  526MOL0     H70983   4.280   7.292  10.077  0.7942 -0.1474  0.7992
  526MOL0     H70984   4.557   7.379   9.957  0.3159  0.6516  1.3101
  526MOL0     H70985   4.549   7.265  10.079  0.0141 -1.3981 -0.3863
  526MOL0     H70986   4.366   7.232   9.843  1.9049  0.4053 -2.7870
  526MOL0     H70987   4.417   7.101   9.947  2.2672 -1.0764 -0.5700
  526MOL0     H70988   4.550   7.092   9.729  0.4336  0.0710 -0.3036
  526MOL0     H70989   4.591   7.263   9.760 -1.4270 -0.7805 -1.2132
  526MOL0     H70990   4.023   7.675  10.469 -1.2194 -0.7598 -1.8084
  526MOL0     H70991   3.800   7.665  10.585 -3.4697 -2.6204  0.9232
  526MOL0     H70992   3.391   7.377  10.444 -0.6616 -0.5059  0.0986
  526MOL0     H70993   3.167   7.305  10.516 -0.9918 -2.0147  2.9638
  526MOL0     H70994   1.130   7.065  11.373 -0.4438 -0.5155  1.0288
  526MOL0     H70995   0.905   7.060  11.308 -1.1634  1.3126 -0.9059
  526MOL0     H70996   0.707   6.897  10.745 -0.5961 -1.9888  0.5115
  526MOL0     H70997   0.474   6.854  10.674 -1.8804  1.5318 -0.9522
  526MOL0     H70998   0.281   6.797  10.639  0.7115  1.7218  0.2046
  526MOL0     H70999   0.211   6.955  10.635  3.0194 -0.3075 -1.5312
  526MOL0     H71000   0.071   6.743  10.587  1.5206  1.7159 -0.7010
  526MOL0     H71001   0.003   6.857  10.703  1.1440  1.4469  1.5500
  526MOL0     H71002   0.057   6.716  10.883 -1.2323 -0.7313 -0.4459
  526MOL0     H71003   0.171   6.622  10.780  2.0330  1.7508 -0.8118
  526MOL0     H71004  -0.010   6.564  10.644  0.7326  1.9236 -0.5853
  526MOL0     H71005  -0.052   6.497  10.797 -2.7471 -0.0525 -1.3374
  526MOL0     H71006  -0.353   6.778  10.685 -0.3716 -2.8786 -2.9708
  526MOL0     H71007   0.330   7.007  11.051 -1.1576 -0.3519 -1.1784
  526MOL0     H71008   0.454   7.076  11.215  0.6716  0.6519  0.2590
  526MOL0     H71009   0.622   7.004  11.214  0.8336 -0.2871 -0.8709
  526MOL0     H71010   0.588   7.173  11.148  1.0103 -0.4514 -0.3555
  527MOL0     O71011   4.812   0.488   5.130  0.1603  0.5880 -0.2518
  527MOL0     C71012   4.793   0.554   5.027 -0.0971 -0.1628  0.0155
  527MOL0     O71013   4.884   0.598   4.934 -0.1851  0.1630 -0.0937
  527MOL0     C71014   5.019   0.578   4.962  0.5797  0.1445 -1.1385
  527MOL0     C71015   5.098   0.636   5.073  0.2938  1.1328  0.4533
  527MOL0     C71016   5.233   0.620   5.084  0.2991  0.3978 -0.1599
  527MOL0     C71017   5.293   0.528   4.994 -0.1217  0.2492 -0.1672
  527MOL0     O71018   5.424   0.488   5.005 -0.9668  0.1615 -0.0139
  527MOL0     C71019   5.505   0.555   5.114  0.9084  0.0879  0.9546
  527MOL0     C71020   5.638   0.492   5.090 -0.0200 -0.1312 -0.0617
  527MOL0     C71021   5.751   0.577   5.155  0.2569  0.4674  0.0382
  527MOL0     C71022   5.888   0.505   5.128 -0.0973 -0.1292  0.4172
  527MOL0     C71023   6.011   0.592   5.151  0.2704  0.0868  0.7685
  527MOL0     C71024   6.136   0.504   5.141 -0.2061  0.2024 -0.4649
  527MOL0     C71025   6.267   0.584   5.145 -0.2461 -0.3703 -0.0927
  527MOL0     C71026   6.344   0.578   5.021 -0.2554 -0.1842  0.2337
  527MOL0     N71027   6.485   0.631   5.038 -0.1542  0.2923 -0.1579
  527MOL0     C71028   6.597   0.561   5.052 -0.1016  0.2893 -0.0298
  527MOL0     C71029   6.696   0.651   5.066 -0.6105  0.2765 -0.1785
  527MOL0     C71030   6.839   0.611   5.091 -0.1351  0.0047  0.6326
  527MOL0     C71031   6.876   0.629   5.244  0.5955  0.2013 -0.4912
  527MOL0     C71032   7.001   0.552   5.281  0.4384 -1.0945 -0.5024
  527MOL0     C71033   7.130   0.570   5.203  0.5272  0.5342 -0.1278
  527MOL0     O71034   7.185   0.694   5.244 -0.8239 -0.5497 -0.1924
  527MOL0     C71035   7.317   0.706   5.237 -1.1336 -0.2300  0.5479
  527MOL0     C71036   7.379   0.705   5.112  0.3340  0.5473 -0.4811
  527MOL0     C71037   7.522   0.694   5.099  0.8314  1.0779  0.2630
  527MOL0     C71038   7.601   0.695   5.213  0.4480  0.2056  0.4911
  527MOL0     C71039   7.740   0.687   5.200 -0.0782  0.1096  0.4224
  527MOL0     O71040   7.792   0.721   5.071 -0.1015  0.1053  0.1907
  527MOL0     C71041   7.922   0.710   5.044 -0.6697  0.8159 -0.5631
  527MOL0     C71042   8.019   0.795   5.099 -1.1815 -0.0961  0.0211
  527MOL0     C71043   8.153   0.779   5.069 -0.7852 -0.6693 -0.6390
  527MOL0     C71044   8.197   0.670   4.987 -0.6539 -1.0014  0.3433
  527MOL0     O71045   8.330   0.678   4.955  0.1381 -0.4863 -0.8895
  527MOL0     C71046   8.383   0.557   4.911 -1.8893  0.6420 -0.0114
  527MOL0     C71047   8.540   0.575   4.895 -0.4735 -0.3073 -0.0163
  527MOL0     C71048   8.587   0.717   4.886 -0.5856 -0.1861  0.6862
  527MOL0     C71049   8.742   0.726   4.864  0.1292  0.2808 -1.1330
  527MOL0     C71050   8.796   0.864   4.863 -0.2985 -0.4500 -0.8813
  527MOL0     C71051   8.916   0.901   4.767 -0.3878 -0.2986 -0.4011
  527MOL0     C71052   8.928   1.052   4.769 -0.7602  0.4933  0.0148
  527MOL0     C71053   9.051   1.085   4.683 -0.8517  0.0479 -0.1171
  527MOL0    Cl71054   9.202   1.022   4.750  0.2613 -0.3390  0.0956
  527MOL0     C71055   8.101   0.576   4.941  0.5210  0.9187  0.1243
  527MOL0     C71056   7.966   0.601   4.967 -0.1134  0.7115  0.4152
  527MOL0     O71057   7.809   0.681   5.304 -0.0846 -0.6963 -0.0279
  527MOL0     C71058   7.530   0.696   5.338  0.0212  0.8678 -0.1282
  527MOL0     C71059   7.393   0.703   5.357 -0.6949 -0.1913  0.3135
  527MOL0     N71060   6.643   0.772   5.053  0.7452  0.2198  0.6755
  527MOL0     N71061   6.517   0.763   5.032  0.0485  0.3656  0.3546
  527MOL0     C71062   5.224   0.484   4.876 -1.0709  0.3089 -0.5932
  527MOL0     C71063   5.095   0.517   4.861 -0.0814  0.0253  0.1344
  527MOL0     C71064   4.655   0.605   5.002  0.2714 -0.0263 -0.8060
  527MOL0     C71065   4.636   0.731   4.928  0.2740  0.6861  0.4241
  527MOL0     C71066   4.507   0.786   4.911  0.2952  0.2796 -0.1358
  527MOL0     C71067   4.392   0.726   4.964 -0.6596  0.6318 -0.2079
  527MOL0     O71068   4.259   0.750   4.943  0.1185  1.2978 -0.0543
  527MOL0     C71069   4.232   0.876   4.893  0.5895  0.0687 -0.0935
  527MOL0     C71070   4.085   0.902   4.875  0.0670 -0.7590 -0.2884
  527MOL0     C71071   4.021   0.888   5.015 -0.1373  0.4262  0.6251
  527MOL0     C71072   3.875   0.944   5.019  0.1469 -0.0157 -0.2883
  527MOL0     C71073   3.818   0.907   5.141  0.6072  0.6627 -1.1977
  527MOL0     C71074   3.771   0.887   5.253 -0.5090  0.3487 -0.5188
  527MOL0     C71075   4.407   0.600   5.026 -0.6116 -0.9795 -0.8596
  527MOL0     C71076   4.536   0.539   5.041 -0.8067  0.1898 -0.9621
  527MOL0     C71077   4.537   0.416   5.129  0.5362  0.1464 -1.1866
  527MOL0     H71078   5.052   0.702   5.145  2.6679  2.8390  0.5208
  527MOL0     H71079   5.262   0.655   5.183 -0.8791  0.0975  0.3100
  527MOL0     H71080   5.509   0.663   5.102  2.1166  0.2120  2.2188
  527MOL0     H71081   5.468   0.532   5.215 -0.8446  1.0702  0.5905
  527MOL0     H71082   5.667   0.486   4.985  0.9789  0.4238  0.1635
  527MOL0     H71083   5.635   0.386   5.115  1.3839  0.1375  1.4856
  527MOL0     H71084   5.741   0.578   5.264 -0.1993  1.2077 -0.0036
  527MOL0     H71085   5.752   0.675   5.106  0.3356  0.5962  0.2990
  527MOL0     H71086   5.893   0.418   5.194  0.1774  0.0077  0.5761
  527MOL0     H71087   5.895   0.455   5.031  3.5576  0.6183  0.1807
  527MOL0     H71088   6.007   0.672   5.076 -1.8066 -1.6532 -1.1234
  527MOL0     H71089   6.001   0.646   5.246  0.2142  1.8666 -0.2036
  527MOL0     H71090   6.118   0.438   5.226 -1.2628  1.0852  0.0196
  527MOL0     H71091   6.132   0.452   5.045  0.6074  1.4176 -1.1898
  527MOL0     H71092   6.327   0.543   5.227 -4.7741 -0.1971  3.6953
  527MOL0     H71093   6.249   0.689   5.170  1.0539  0.8141 -3.4869
  527MOL0     H71094   6.346   0.478   4.977 -0.7759 -1.0238  2.0336
  527MOL0     H71095   6.288   0.630   4.942  0.5047  0.3411  0.0272
  527MOL0     H71096   6.608   0.453   5.056 -1.5337  0.1603  2.4339
  527MOL0     H71097   6.847   0.504   5.073 -1.2506  0.0157  0.0046
  527MOL0     H71098   6.915   0.663   5.032  0.4089 -0.3301  1.0313
  527MOL0     H71099   6.889   0.734   5.271 -2.6428  0.8665 -1.0826
  527MOL0     H71100   6.797   0.590   5.309  0.7338 -0.5366 -0.7473
  527MOL0     H71101   6.980   0.445   5.290 -2.7822 -0.5581 -0.6264
  527MOL0     H71102   7.019   0.574   5.387 -1.7073  1.3790 -0.5637
  527MOL0     H71103   7.113   0.558   5.096  2.2507 -1.7515 -0.2180
  527MOL0     H71104   7.197   0.492   5.239 -2.5719 -1.9718  0.6910
  527MOL0     H71105   7.307   0.703   5.030  0.0849 -1.8543 -0.2894
  527MOL0     H71106   7.562   0.699   4.998  0.1487  0.3929 -0.0531
  527MOL0     H71107   7.986   0.877   5.162 -2.4293 -2.6347  2.9312
  527MOL0     H71108   8.220   0.844   5.125 -1.2492 -0.9762  0.2932
  527MOL0     H71109   8.370   0.480   4.987  3.6389 -0.7952 -0.0990
  527MOL0     H71110   8.345   0.529   4.812 -4.1585 -0.4721  1.0999
  527MOL0     H71111   8.590   0.537   4.984 -1.4313  0.6728  0.9711
  527MOL0     H71112   8.569   0.521   4.805 -1.8190 -0.1423 -0.5801
  527MOL0     H71113   8.536   0.762   4.800  1.6581  0.2100 -0.5300
  527MOL0     H71114   8.548   0.769   4.974  1.1294  0.0998  1.3189
  527MOL0     H71115   8.765   0.679   4.768  1.3698  2.2449 -1.8648
  527MOL0     H71116   8.793   0.676   4.946  0.3749  1.2938 -0.6504
  527MOL0     H71117   8.820   0.875   4.969 -1.8534 -2.1567 -0.2902
  527MOL0     H71118   8.721   0.939   4.837  0.1785  0.9417  1.4745
  527MOL0     H71119   9.008   0.862   4.812 -1.3113  0.4702  2.3223
  527MOL0     H71120   8.891   0.862   4.667 -0.2771 -3.2557  0.6242
  527MOL0     H71121   8.942   1.087   4.872 -2.2874 -1.7082  1.0612
  527MOL0     H71122   8.838   1.110   4.746 -0.8874  0.1518 -0.3561
  527MOL0     H71123   9.045   1.044   4.582  1.3076  3.8283 -2.0277
  527MOL0     H71124   9.054   1.193   4.664 -1.2002 -0.2216 -1.8922
  527MOL0     H71125   8.119   0.497   4.869 -1.9660  1.9304 -1.7629
  527MOL0     H71126   7.900   0.521   4.934  1.1899  0.0958 -0.8166
  527MOL0     H71127   7.590   0.668   5.424  0.4180  0.0876 -0.6475
  527MOL0     H71128   7.340   0.704   5.452 -1.3584  2.5582 -0.0051
  527MOL0     H71129   5.268   0.414   4.805 -2.0285  0.8254 -1.7270
  527MOL0     H71130   5.045   0.474   4.775 -1.0808  0.0691  0.6761
  527MOL0     H71131   4.721   0.785   4.887 -0.8508  1.1808 -1.3440
  527MOL0     H71132   4.494   0.880   4.859 -1.4123 -0.4638 -1.1749
  527MOL0     H71133   4.278   0.892   4.795 -0.5003 -0.1724 -0.6589
  527MOL0     H71134   4.272   0.951   4.962 -0.5462  0.9893 -0.3970
  527MOL0     H71135   4.033   0.826   4.816 -0.5543 -1.6888  1.3809
  527MOL0     H71136   4.072   0.998   4.826  1.9005 -0.1223  0.3669
  527MOL0     H71137   4.075   0.938   5.096 -1.1319  2.5052  0.0876
  527MOL0     H71138   4.010   0.782   5.039 -1.3084  0.3499 -0.1881
  527MOL0     H71139   3.883   1.054   5.021 -2.8541  0.2924  2.3118
  527MOL0     H71140   3.816   0.901   4.938 -0.0610 -0.3298  0.0280
  527MOL0     H71141   3.748   0.860   5.354 -0.1338 -1.4058 -0.8799
  527MOL0     H71142   4.317   0.547   5.057  0.3754 -1.8456  0.6443
  527MOL0     H71143   4.439   0.368   5.140  0.5073 -0.2625 -2.8606
  527MOL0     H71144   4.600   0.345   5.074 -1.7855 -2.3543 -0.8769
  527MOL0     H71145   4.575   0.429   5.230  0.3283  1.4829 -1.2721
  528MOL0     O71146   2.309   3.251   0.385  0.2450 -0.8863  0.2678
  528MOL0     C71147   2.277   3.214   0.497 -0.8690 -0.5772  0.5624
  528MOL0     O71148   2.331   3.264   0.611  0.4168 -0.1517 -0.6474
  528MOL0     C71149   2.444   3.340   0.612  0.4163  0.5123 -0.4260
  528MOL0     C71150   2.558   3.294   0.556 -0.8175  0.0910 -1.0444
  528MOL0     C71151   2.678   3.375   0.565  0.4054  0.2457 -0.0285
  528MOL0     C71152   2.671   3.501   0.623  0.3388  0.8973  0.4940
  528MOL0     O71153   2.779   3.581   0.603  0.4178  0.4346  0.1858
  528MOL0     C71154   2.772   3.714   0.663  0.6052 -0.6295  0.0557
  528MOL0     C71155   2.911   3.767   0.661 -0.6935 -0.4556  0.0768
  528MOL0     C71156   2.901   3.915   0.687  0.1756 -0.6580  0.6896
  528MOL0     C71157   3.037   3.986   0.681  0.1324  0.4603 -0.9789
  528MOL0     C71158   3.091   3.989   0.537  0.2999  0.2544  0.0458
  528MOL0     C71159   3.225   4.060   0.549  0.9525  0.2664  0.6034
  528MOL0     C71160   3.298   4.052   0.406  0.1115  0.2690 -0.4974
  528MOL0     C71161   3.361   4.189   0.375 -0.9644 -0.4987 -0.4894
  528MOL0     N71162   3.461   4.225   0.472 -0.4896 -0.4604  0.5734
  528MOL0     C71163   3.580   4.151   0.501 -0.0625  0.3227  0.7501
  528MOL0     C71164   3.633   4.206   0.607 -0.5159  0.0549  0.4089
  528MOL0     C71165   3.754   4.160   0.687  0.0794 -0.3911  0.2447
  528MOL0     C71166   3.818   4.291   0.751 -0.1624  0.6536 -0.0090
  528MOL0     C71167   3.956   4.254   0.809 -0.6879  0.5216 -0.2205
  528MOL0     C71168   4.010   4.377   0.871  0.1947 -0.6229  0.6195
  528MOL0     O71169   4.137   4.346   0.927  0.5581  0.3251  0.4261
  528MOL0     C71170   4.190   4.423   1.029  0.1504  0.8138  0.0617
  528MOL0     C71171   4.322   4.400   1.059 -0.5191 -0.6983 -0.5908
  528MOL0     C71172   4.382   4.469   1.166  0.4452  0.2965 -0.1020
  528MOL0     C71173   4.316   4.565   1.240  0.3433 -0.1193  0.5555
  528MOL0     C71174   4.392   4.652   1.333  0.6620  0.0615 -0.1496
  528MOL0     O71175   4.527   4.649   1.348 -0.0189  0.3015 -0.1968
  528MOL0     C71176   4.577   4.720   1.450  0.3084 -0.1304  0.1486
  528MOL0     C71177   4.605   4.853   1.439  0.1797  0.7411 -0.0658
  528MOL0     C71178   4.684   4.918   1.534  0.4066  0.3686 -0.7219
  528MOL0     C71179   4.720   4.855   1.655  0.3955  0.2567 -0.0262
  528MOL0     O71180   4.798   4.912   1.748 -0.9320  0.3317 -0.4556
  528MOL0     C71181   4.792   5.052   1.771  0.0334 -0.3110  0.4304
  528MOL0     C71182   4.832   5.086   1.911 -0.4335 -0.3418 -0.5551
  528MOL0     C71183   4.805   5.239   1.948 -0.5425 -0.0856  0.4963
  528MOL0     C71184   4.788   5.237   2.097  1.1311 -0.3046 -0.4162
  528MOL0     C71185   4.772   5.377   2.153 -0.3024 -1.3229 -1.0080
  528MOL0     C71186   4.777   5.379   2.303 -0.4553  0.8531 -0.4064
  528MOL0     C71187   4.787   5.526   2.351  0.3015  0.5324 -0.1163
  528MOL0     C71188   4.779   5.544   2.506 -0.5724  0.4737  0.8615
  528MOL0    Cl71189   4.772   5.704   2.553 -0.2939 -0.4136 -0.3781
  528MOL0     C71190   4.684   4.716   1.668 -0.1682 -0.5140 -0.5875
  528MOL0     C71191   4.608   4.654   1.565  0.1124  0.0394 -1.2976
  528MOL0     O71192   4.314   4.723   1.401 -0.3285  0.5565  0.0225
  528MOL0     C71193   4.177   4.579   1.208  0.0944  0.3538 -0.3634
  528MOL0     C71194   4.110   4.505   1.112  0.7152  0.1535  0.2321
  528MOL0     N71195   3.550   4.307   0.643  0.2765 -0.3648 -0.2582
  528MOL0     N71196   3.450   4.316   0.571 -0.1538 -1.1086 -0.5164
  528MOL0     C71197   2.548   3.545   0.681  0.2025 -0.1752  0.6453
  528MOL0     C71198   2.434   3.462   0.674 -0.1186 -0.5116 -0.7109
  528MOL0     C71199   2.164   3.121   0.506  0.1138  1.0823  0.4347
  528MOL0     C71200   2.127   3.041   0.385 -0.1182 -0.5191 -0.4612
  528MOL0     C71201   2.010   2.963   0.388 -0.4582  0.1650 -0.3260
  528MOL0     C71202   1.929   2.962   0.510 -0.6064  0.0519  1.1177
  528MOL0     O71203   1.819   2.876   0.529 -0.2474 -0.6042  0.0037
  528MOL0     C71204   1.748   2.819   0.417  0.0501  0.1885 -0.2998
  528MOL0     C71205   1.680   2.924   0.332  0.5034 -0.1656  0.0578
  528MOL0     C71206   1.575   3.013   0.403 -0.3264  0.1805  0.5436
  528MOL0     C71207   1.539   3.155   0.340  0.4591  0.8692 -0.6399
  528MOL0     C71208   1.468   3.134   0.217  1.5379 -0.2276 -0.1669
  528MOL0     C71209   1.395   3.103   0.127 -0.7432 -0.3714  0.7412
  528MOL0     C71210   1.971   3.039   0.612  0.1931  0.1227  0.8202
  528MOL0     C71211   2.079   3.124   0.625 -0.3300  0.3753  0.1784
  528MOL0     C71212   2.110   3.196   0.758  0.6835  0.0042  0.7314
  528MOL0     H71213   2.579   3.197   0.513  0.4360 -0.6039  0.9951
  528MOL0     H71214   2.762   3.341   0.505  0.6268  0.8248 -0.0508
  528MOL0     H71215   2.702   3.774   0.605  0.9004 -1.3166 -1.0345
  528MOL0     H71216   2.739   3.717   0.768 -0.8091  1.1998 -0.3952
  528MOL0     H71217   2.958   3.742   0.566  0.9523  0.3186  0.6490
  528MOL0     H71218   2.975   3.713   0.732 -0.9514  0.4407  1.0224
  528MOL0     H71219   2.863   3.935   0.788 -2.6144  2.1307 -0.7547
  528MOL0     H71220   2.831   3.956   0.615  0.4687  0.0154  0.7825
  528MOL0     H71221   3.030   4.083   0.731  1.6321  0.0533  0.1008
  528MOL0     H71222   3.104   3.930   0.748 -0.2855  0.3510 -0.6485
  528MOL0     H71223   3.119   3.892   0.495  0.0775  0.6414 -1.0103
  528MOL0     H71224   3.021   4.042   0.472  0.0100  1.2796  1.1410
  528MOL0     H71225   3.225   4.164   0.584  2.5654 -0.0422  1.6213
  528MOL0     H71226   3.284   4.005   0.623 -0.8381 -0.4646  1.5432
  528MOL0     H71227   3.228   4.021   0.328 -1.2478  1.2416  0.2870
  528MOL0     H71228   3.376   3.978   0.422 -1.8317 -1.7910 -0.0346
  528MOL0     H71229   3.401   4.196   0.274 -0.7773  1.1238 -0.3292
  528MOL0     H71230   3.277   4.259   0.367 -0.6936 -0.2464 -1.1381
  528MOL0     H71231   3.620   4.072   0.438  0.3363  1.6266 -0.7042
  528MOL0     H71232   3.726   4.102   0.775  0.5904 -0.7543  0.1712
  528MOL0     H71233   3.824   4.104   0.625  0.2133  0.8854 -0.8114
  528MOL0     H71234   3.835   4.366   0.673  1.5948  0.1192 -0.1754
  528MOL0     H71235   3.758   4.333   0.832  0.9284 -0.0831  1.1970
  528MOL0     H71236   4.017   4.226   0.723  0.8926 -1.6200  1.4802
  528MOL0     H71237   3.954   4.179   0.889 -1.3446  0.1536 -0.5821
  528MOL0     H71238   3.946   4.406   0.955  1.6787  2.2755  0.9044
  528MOL0     H71239   4.012   4.468   0.810 -1.2761 -0.7081  0.4125
  528MOL0     H71240   4.390   4.334   1.006  1.9937 -0.8620  2.5377
  528MOL0     H71241   4.488   4.450   1.176  0.4764  0.2431 -0.5067
  528MOL0     H71242   4.585   4.917   1.354  2.6072  0.2049 -1.1294
  528MOL0     H71243   4.707   5.024   1.533 -0.2318  0.5436  0.6072
  528MOL0     H71244   4.858   5.093   1.694 -1.4009  0.5878 -0.3700
  528MOL0     H71245   4.688   5.083   1.757 -0.7810 -2.9456  0.1872
  528MOL0     H71246   4.780   5.027   1.987 -1.7682  0.3730 -0.8883
  528MOL0     H71247   4.936   5.057   1.928 -0.8357 -0.5942  1.8296
  528MOL0     H71248   4.892   5.295   1.912 -2.5050  2.1255 -1.1154
  528MOL0     H71249   4.715   5.281   1.902  0.1904  0.3854 -0.5355
  528MOL0     H71250   4.873   5.186   2.144  0.4407 -0.3952  0.7709
  528MOL0     H71251   4.702   5.177   2.128  0.5109  0.3465 -0.8439
  528MOL0     H71252   4.671   5.414   2.133 -0.0708 -1.0315 -1.6671
  528MOL0     H71253   4.854   5.438   2.114  0.8292 -2.1991 -0.0763
  528MOL0     H71254   4.684   5.341   2.346 -0.0564  0.5687  0.2287
  528MOL0     H71255   4.864   5.331   2.349  0.7688  2.3240 -1.0953
  528MOL0     H71256   4.703   5.576   2.302  1.2047  0.5760 -1.6860
  528MOL0     H71257   4.882   5.562   2.311 -0.7148 -0.6979 -4.0670
  528MOL0     H71258   4.694   5.492   2.552 -0.5313  2.7060  3.7054
  528MOL0     H71259   4.866   5.491   2.546  0.5540  2.2600  0.8487
  528MOL0     H71260   4.709   4.652   1.753 -0.2381 -1.3964 -1.2150
  528MOL0     H71261   4.572   4.552   1.557 -2.0002  0.3508  2.1228
  528MOL0     H71262   4.123   4.657   1.261 -0.6206 -0.8335  0.7458
  528MOL0     H71263   4.003   4.519   1.100  0.6815 -0.2872  0.0118
  528MOL0     H71264   2.531   3.645   0.721 -0.2810  0.2546 -0.6008
  528MOL0     H71265   2.340   3.484   0.723  1.3017 -0.6787  2.3665
  528MOL0     H71266   2.177   3.061   0.290 -1.1929  1.1926 -0.7204
  528MOL0     H71267   1.991   2.894   0.306  0.8401 -0.6216 -0.0066
  528MOL0     H71268   1.674   2.740   0.430  0.9680 -1.0392 -2.0757
  528MOL0     H71269   1.833   2.769   0.368  1.7682  2.1113  0.5653
  528MOL0     H71270   1.632   2.872   0.248 -1.0811 -1.0228  1.4203
  528MOL0     H71271   1.759   2.987   0.293 -0.3113  1.4084  0.8676
  528MOL0     H71272   1.615   3.039   0.501  2.4225  0.1042 -0.4624
  528MOL0     H71273   1.479   2.963   0.420 -0.9250  1.6246  1.6254
  528MOL0     H71274   1.478   3.199   0.420  1.2303 -1.3602  1.2998
  528MOL0     H71275   1.628   3.218   0.340 -1.9374  4.7746  2.4952
  528MOL0     H71276   1.344   3.087   0.034  0.1016 -1.3914  0.4370
  528MOL0     H71277   1.904   3.034   0.698 -1.8548  0.7912 -0.6517
  528MOL0     H71278   2.119   3.305   0.753  0.0184  0.0016 -0.8982
  528MOL0     H71279   2.029   3.184   0.830  0.5786 -2.5420  0.2763
  528MOL0     H71280   2.203   3.154   0.798  1.6858 -0.9471 -2.3439
  529MOL0     O71281   5.948   5.382   3.921 -0.5066  0.2590  0.5727
  529MOL0     C71282   5.960   5.261   3.942  0.8134  0.6282 -0.2732
  529MOL0     O71283   6.060   5.209   4.014 -0.6563 -0.1901 -0.2877
  529MOL0     C71284   6.170   5.295   4.027  0.2620  0.3339 -0.2051
  529MOL0     C71285   6.253   5.321   3.917  0.1016  0.3045  0.5864
  529MOL0     C71286   6.371   5.398   3.937  0.2993 -0.1012 -1.0224
  529MOL0     C71287   6.404   5.460   4.052  0.4319 -0.7912  0.3023
  529MOL0     O71288   6.504   5.553   4.050 -0.9382  0.7225 -0.0775
  529MOL0     C71289   6.470   5.685   4.085 -0.7858  0.0785 -0.4876
  529MOL0     C71290   6.405   5.772   3.974  0.3432  0.5705  0.4286
  529MOL0     C71291   6.499   5.778   3.849  0.2439 -0.0626  0.8024
  529MOL0     C71292   6.484   5.889   3.737  0.7318 -0.2315  0.6746
  529MOL0     C71293   6.558   6.016   3.791  0.1432 -0.1942  0.5708
  529MOL0     C71294   6.704   6.040   3.742 -0.7914 -0.3135 -0.1944
  529MOL0     C71295   6.757   6.176   3.784 -0.8014 -0.5924 -0.1322
  529MOL0     C71296   6.910   6.180   3.803 -0.3063  0.2038 -0.2425
  529MOL0     N71297   7.001   6.141   3.693  0.4210 -0.2514  0.2204
  529MOL0     C71298   6.981   6.182   3.564 -0.4438 -1.0281  0.9128
  529MOL0     C71299   7.098   6.190   3.496  0.0756  0.0225  0.7823
  529MOL0     C71300   7.136   6.222   3.357  0.5271  0.3537 -0.6448
  529MOL0     C71301   7.015   6.234   3.260 -0.6158 -1.1232  0.0758
  529MOL0     C71302   6.958   6.096   3.233  0.0865  0.6337 -0.7462
  529MOL0     C71303   6.821   6.099   3.156  0.1326 -0.1118 -0.2871
  529MOL0     O71304   6.728   6.140   3.260  0.1766 -0.0812 -0.4240
  529MOL0     C71305   6.587   6.122   3.251 -0.8810 -0.0810 -0.4943
  529MOL0     C71306   6.522   6.014   3.196 -1.2855 -0.2510  1.2638
  529MOL0     C71307   6.385   6.010   3.186 -0.2080  0.2553  0.3535
  529MOL0     C71308   6.315   6.124   3.222 -0.2383 -0.0369 -0.4433
  529MOL0     C71309   6.167   6.129   3.213 -0.1816 -0.2482 -0.1773
  529MOL0     O71310   6.113   5.998   3.200 -0.0930 -0.4393  0.5755
  529MOL0     C71311   5.980   6.001   3.159  0.0762 -0.2591 -0.9375
  529MOL0     C71312   5.887   5.950   3.252 -0.4025 -0.5733 -0.9017
  529MOL0     C71313   5.746   5.960   3.229 -0.3826  0.2379 -0.6463
  529MOL0     C71314   5.701   6.022   3.113 -0.0353 -0.2040 -0.0719
  529MOL0     O71315   5.568   6.035   3.084  0.3456  0.3354 -0.9544
  529MOL0     C71316   5.467   5.946   3.145 -0.0402  0.2389  0.1981
  529MOL0     C71317   5.322   5.981   3.096  0.0918 -0.7443  0.2276
  529MOL0     C71318   5.214   5.884   3.139 -0.2157  0.1754 -0.5005
  529MOL0     C71319   5.088   5.906   3.071 -0.5087 -0.1506 -0.1076
  529MOL0     C71320   4.983   5.806   3.113  0.6130  0.4005 -0.1379
  529MOL0     C71321   4.857   5.825   3.037  1.2078  0.3341  0.4982
  529MOL0     C71322   4.790   5.696   2.994 -1.1397 -0.2541 -0.6453
  529MOL0     C71323   4.680   5.713   2.891 -0.7955 -0.8217  1.2457
  529MOL0    Cl71324   4.597   5.560   2.869 -0.4364  0.2727 -0.1488
  529MOL0     C71325   5.797   6.069   3.017 -0.1642  1.2997 -0.4880
  529MOL0     C71326   5.936   6.056   3.035  0.6024 -0.2002 -0.8680
  529MOL0     O71327   6.105   6.237   3.213 -0.6069 -0.1747  0.1056
  529MOL0     C71328   6.381   6.237   3.276 -0.4057 -0.5728 -1.2398
  529MOL0     C71329   6.521   6.235   3.298  0.3327 -0.2481  0.6709
  529MOL0     N71330   7.182   6.143   3.590 -0.4598  0.0206  0.2473
  529MOL0     N71331   7.132   6.129   3.710 -0.6152 -0.0281 -0.0458
  529MOL0     C71332   6.312   5.439   4.156  0.4765  0.2945 -0.4717
  529MOL0     C71333   6.201   5.360   4.150 -0.7290  0.3238  1.1105
  529MOL0     C71334   5.857   5.170   3.880  0.6116  0.0674 -0.1951
  529MOL0     C71335   5.742   5.229   3.827 -0.2232 -0.2353 -0.1921
  529MOL0     C71336   5.640   5.151   3.773 -0.4249 -0.6046 -0.7016
  529MOL0     C71337   5.648   5.013   3.771 -0.8562  0.2018  0.5185
  529MOL0     O71338   5.547   4.935   3.727  0.6687  0.0016 -0.2162
  529MOL0     C71339   5.542   4.929   3.588  0.2763  0.5663  0.0346
  529MOL0     C71340   5.428   4.831   3.546 -0.0412 -0.1659  0.2122
  529MOL0     C71341   5.296   4.898   3.560  0.2238 -0.1247 -0.3864
  529MOL0     C71342   5.183   4.799   3.532 -0.2467  0.9665  0.2016
  529MOL0     C71343   5.057   4.865   3.501  0.3991  1.2464  0.0065
  529MOL0     C71344   4.949   4.918   3.478 -0.2682 -1.1213 -0.0530
  529MOL0     C71345   5.759   4.946   3.823 -0.3300  1.0519 -0.9342
  529MOL0     C71346   5.863   5.025   3.885 -0.3148 -0.0537 -0.3328
  529MOL0     C71347   5.979   4.944   3.941 -0.2519 -0.1720  0.5504
  529MOL0     H71348   6.230   5.286   3.817  0.7081  1.4414  0.0200
  529MOL0     H71349   6.426   5.419   3.846  3.3913 -1.3224  0.4055
  529MOL0     H71350   6.410   5.685   4.176  0.5433 -1.9660  0.4701
  529MOL0     H71351   6.563   5.731   4.118 -0.7947 -0.4169  0.2643
  529MOL0     H71352   6.390   5.872   4.015  2.5757 -0.0225  3.0331
  529MOL0     H71353   6.306   5.733   3.950 -0.0136  2.1711 -0.8573
  529MOL0     H71354   6.483   5.679   3.804 -3.6016  0.4591  0.6593
  529MOL0     H71355   6.603   5.782   3.880  0.4974  3.2300 -0.1405
  529MOL0     H71356   6.520   5.855   3.639 -1.4154  1.1742 -0.6731
  529MOL0     H71357   6.379   5.913   3.720  1.4251  2.1313 -0.9426
  529MOL0     H71358   6.491   6.094   3.755 -0.9950 -1.8476 -1.0531
  529MOL0     H71359   6.547   6.019   3.900  0.7469  3.4010  0.6631
  529MOL0     H71360   6.761   5.956   3.781  0.0611  0.1987 -0.3068
  529MOL0     H71361   6.706   6.037   3.632  0.1739 -1.3748 -0.1584
  529MOL0     H71362   6.711   6.200   3.880 -0.9087 -0.0083 -0.3279
  529MOL0     H71363   6.721   6.254   3.716  0.4626 -1.0849 -1.4099
  529MOL0     H71364   6.934   6.278   3.845  1.2762 -0.1695 -0.2116
  529MOL0     H71365   6.938   6.118   3.889 -1.7636  0.6218  0.5817
  529MOL0     H71366   6.890   6.212   3.512  0.3949 -0.2512 -0.1405
  529MOL0     H71367   7.198   6.310   3.339 -0.1467  0.6041 -1.8405
  529MOL0     H71368   7.205   6.143   3.323  1.1928  1.3010 -1.5778
  529MOL0     H71369   6.942   6.298   3.311  0.1574 -1.9508  2.3222
  529MOL0     H71370   7.043   6.283   3.166 -0.2136 -1.9354 -0.2281
  529MOL0     H71371   6.941   6.058   3.334  1.4559 -1.4246 -1.2339
  529MOL0     H71372   7.034   6.025   3.199  0.4824  0.9590 -0.5593
  529MOL0     H71373   6.791   6.005   3.109  0.3568  0.3063 -1.2914
  529MOL0     H71374   6.833   6.174   3.077 -4.0400  1.9598  0.7843
  529MOL0     H71375   6.577   5.929   3.155  1.9303  1.4865  1.6079
  529MOL0     H71376   6.323   5.928   3.151  0.8712 -1.1007  1.4841
  529MOL0     H71377   5.927   5.895   3.337  2.5079  1.2364 -0.9708
  529MOL0     H71378   5.679   5.916   3.302 -1.7988 -0.2046 -2.1608
  529MOL0     H71379   5.491   5.844   3.116 -0.6791  0.3439 -0.7638
  529MOL0     H71380   5.476   5.949   3.254  0.9720 -0.2971  0.1400
  529MOL0     H71381   5.295   6.078   3.136 -5.4753 -1.2836 -1.3809
  529MOL0     H71382   5.319   5.982   2.986  0.1963 -2.3393  0.1769
  529MOL0     H71383   5.255   5.785   3.116  0.0197  0.4716 -1.3948
  529MOL0     H71384   5.206   5.881   3.248 -1.1304  0.1559 -0.5630
  529MOL0     H71385   5.118   5.888   2.967 -1.0044  1.8860 -0.6439
  529MOL0     H71386   5.045   6.006   3.072 -2.3301 -0.8326 -2.4343
  529MOL0     H71387   4.968   5.822   3.220  2.0657 -0.9602  0.3253
  529MOL0     H71388   5.021   5.705   3.095  0.0555  0.5348 -2.4284
  529MOL0     H71389   4.794   5.884   3.104  1.7374 -1.4756  2.7002
  529MOL0     H71390   4.874   5.883   2.945  0.7954  1.5469  1.1658
  529MOL0     H71391   4.753   5.649   3.085  2.5415 -1.2749  0.5046
  529MOL0     H71392   4.861   5.625   2.951 -0.8277 -0.9126  0.9032
  529MOL0     H71393   4.605   5.787   2.921  0.1446  1.1294 -0.9613
  529MOL0     H71394   4.725   5.741   2.796 -0.2426 -0.1231  1.7083
  529MOL0     H71395   5.765   6.132   2.934  1.8081  2.6333 -0.3077
  529MOL0     H71396   5.993   6.099   2.954  0.5795  0.0960 -0.7296
  529MOL0     H71397   6.326   6.329   3.295  1.6573  0.6541 -0.8331
  529MOL0     H71398   6.579   6.321   3.329  0.7160 -0.5063  0.6681
  529MOL0     H71399   6.338   5.487   4.250 -2.7431  1.5994 -0.1085
  529MOL0     H71400   6.133   5.347   4.234  0.9678 -1.7485  2.2484
  529MOL0     H71401   5.747   5.337   3.819  2.2950 -0.3386 -1.1409
  529MOL0     H71402   5.542   5.177   3.735 -2.0422 -3.3257  1.2379
  529MOL0     H71403   5.637   4.895   3.546  0.3881  0.6539  0.2180
  529MOL0     H71404   5.521   5.027   3.543 -0.4588  0.0679 -0.7325
  529MOL0     H71405   5.430   4.740   3.607  1.3107  0.2674  0.8527
  529MOL0     H71406   5.442   4.792   3.444  0.1891  0.9328 -0.1873
  529MOL0     H71407   5.293   4.984   3.493 -1.5200  0.1804  0.0257
  529MOL0     H71408   5.289   4.942   3.660 -1.5264 -1.1931  0.0039
  529MOL0     H71409   5.220   4.744   3.444  2.7116  2.1478  0.6087
  529MOL0     H71410   5.164   4.732   3.616  2.2210 -0.9875 -0.6971
  529MOL0     H71411   4.859   4.960   3.440  1.3656  0.1830 -2.8076
  529MOL0     H71412   5.761   4.838   3.820  0.5438  0.9674  1.3016
  529MOL0     H71413   5.973   4.933   4.049  1.3767 -1.4968  0.5454
  529MOL0     H71414   5.977   4.837   3.916  0.1608 -0.9728  3.6318
  529MOL0     H71415   6.077   4.979   3.905  1.2101 -4.1259  0.2222
  530MOL0     O71416   3.414   7.711   3.013  0.2086  0.7950  0.1408
  530MOL0     C71417   3.431   7.667   3.123 -0.9537 -0.2273  0.9663
  530MOL0     O71418   3.556   7.637   3.167  0.7630  0.7179  0.5312
  530MOL0     C71419   3.651   7.598   3.077 -0.6909 -0.1725  0.4209
  530MOL0     C71420   3.629   7.524   2.957 -0.2268 -1.1102  0.3230
  530MOL0     C71421   3.736   7.483   2.885  0.1193 -0.5385  0.3543
  530MOL0     C71422   3.868   7.505   2.931 -0.2273 -0.5153  0.0549
  530MOL0     O71423   3.972   7.452   2.860  0.0564  0.1941 -0.4888
  530MOL0     C71424   4.104   7.452   2.929 -0.9494  0.6312  0.5222
  530MOL0     C71425   4.212   7.411   2.839 -0.8181  0.3420 -0.3021
  530MOL0     C71426   4.207   7.497   2.707 -0.1187  0.0084  0.5964
  530MOL0     C71427   4.224   7.645   2.730 -0.1258 -1.0544  0.1768
  530MOL0     C71428   4.229   7.739   2.605  0.2797 -0.1112  0.2299
  530MOL0     C71429   4.113   7.725   2.506 -1.0951 -0.3143 -0.2022
  530MOL0     C71430   4.072   7.848   2.432  0.0600  0.7501 -0.4765
  530MOL0     C71431   4.187   7.889   2.339 -0.4040 -0.1829 -0.2076
  530MOL0     N71432   4.128   7.995   2.256  0.4871 -1.1743  0.4456
  530MOL0     C71433   4.089   7.975   2.126  0.5169  0.4670 -1.3158
  530MOL0     C71434   4.078   8.106   2.079  0.8002  1.2947  0.1273
  530MOL0     C71435   4.038   8.141   1.939 -0.3072 -0.2644  0.1077
  530MOL0     C71436   4.080   8.031   1.839 -0.8102 -0.5636 -0.2240
  530MOL0     C71437   4.018   8.061   1.710 -0.5187 -0.7125  1.1730
  530MOL0     C71438   4.080   7.970   1.600  0.7161 -0.6214 -0.5031
  530MOL0     O71439   4.219   7.940   1.608 -0.3772  0.0757  0.1110
  530MOL0     C71440   4.263   7.834   1.529  0.5492 -0.0471  0.1070
  530MOL0     C71441   4.193   7.778   1.422 -0.4059 -0.3809  0.6780
  530MOL0     C71442   4.259   7.685   1.337  0.4563 -1.1161 -0.0503
  530MOL0     C71443   4.380   7.625   1.370 -0.6892 -0.1603 -0.1539
  530MOL0     C71444   4.442   7.527   1.274 -0.3831 -0.5473  0.0618
  530MOL0     O71445   4.563   7.467   1.299 -0.0022 -0.5669  0.4949
  530MOL0     C71446   4.608   7.396   1.192 -0.2202  0.5280 -0.2262
  530MOL0     C71447   4.718   7.435   1.124 -0.0445 -0.0380  0.7009
  530MOL0     C71448   4.785   7.356   1.030  0.1665 -0.1246 -0.3664
  530MOL0     C71449   4.740   7.226   1.001 -0.2969  0.2396 -0.4409
  530MOL0     O71450   4.815   7.159   0.909 -0.6445 -0.4190  0.2589
  530MOL0     C71451   4.758   7.047   0.842 -0.1623 -0.4178 -1.1048
  530MOL0     C71452   4.859   6.979   0.749  0.8850 -0.4771 -0.0010
  530MOL0     C71453   4.802   6.843   0.711  0.2597 -0.1273  0.5520
  530MOL0     C71454   4.913   6.761   0.649 -0.0992 -0.5790 -0.4119
  530MOL0     C71455   4.964   6.815   0.511 -0.2324 -0.6830 -0.8166
  530MOL0     C71456   5.098   6.889   0.506  0.7623 -0.0086 -0.9436
  530MOL0     C71457   5.111   6.942   0.358  0.8411 -0.2396 -0.1880
  530MOL0     C71458   5.234   7.035   0.348 -0.2063  0.6978 -0.1613
  530MOL0    Cl71459   5.387   6.963   0.421 -0.1138 -0.0945  0.2870
  530MOL0     C71460   4.629   7.182   1.070  1.0365  0.2265 -0.1739
  530MOL0     C71461   4.559   7.267   1.161 -0.0859  0.6647  0.1467
  530MOL0     O71462   4.375   7.504   1.173  0.2624  0.2749 -0.4109
  530MOL0     C71463   4.445   7.668   1.491 -0.0593 -0.4393  0.4548
  530MOL0     C71464   4.381   7.771   1.567  1.1343 -0.3376 -0.4153
  530MOL0     N71465   4.114   8.193   2.177  0.0846 -0.1820 -0.3404
  530MOL0     N71466   4.138   8.127   2.282  0.5455 -0.7341 -1.2002
  530MOL0     C71467   3.884   7.575   3.056 -0.1858 -0.0346  0.0865
  530MOL0     C71468   3.780   7.621   3.120 -0.5485  0.2741  0.0411
  530MOL0     C71469   3.305   7.672   3.207  0.3805 -0.0451 -0.0655
  530MOL0     C71470   3.181   7.696   3.147  0.6545 -0.1089 -0.5268
  530MOL0     C71471   3.055   7.686   3.205  0.8270  0.1527 -0.2940
  530MOL0     C71472   3.054   7.680   3.349 -0.8667  0.6082  0.6853
  530MOL0     O71473   2.935   7.686   3.405 -0.1289  0.1970  0.2632
  530MOL0     C71474   2.915   7.689   3.545  0.8666 -0.0220 -0.5721
  530MOL0     C71475   2.764   7.714   3.561 -0.3293  0.2892 -0.1947
  530MOL0     C71476   2.683   7.599   3.510 -0.0817 -0.4325  0.2119
  530MOL0     C71477   2.532   7.619   3.519 -0.7421  0.1562  0.3141
  530MOL0     C71478   2.489   7.645   3.659  1.1608 -0.9068 -0.3434
  530MOL0     C71479   2.454   7.673   3.770 -0.3227  1.0167 -0.2942
  530MOL0     C71480   3.176   7.650   3.421  0.0441  0.0669  0.2007
  530MOL0     C71481   3.303   7.631   3.351  0.7109 -0.3386  0.1990
  530MOL0     C71482   3.422   7.583   3.436  0.6864  0.6034 -0.4349
  530MOL0     H71483   3.530   7.498   2.919  0.1617 -0.0281 -1.5427
  530MOL0     H71484   3.717   7.436   2.789 -0.1157 -0.5542  0.4071
  530MOL0     H71485   4.141   7.550   2.960  1.1565 -0.3902  1.4482
  530MOL0     H71486   4.108   7.401   3.026  1.5740 -0.3730 -0.0244
  530MOL0     H71487   4.200   7.305   2.816  4.0791 -0.1908 -1.7326
  530MOL0     H71488   4.306   7.424   2.895 -2.8436  0.2297  3.4407
  530MOL0     H71489   4.104   7.489   2.672 -0.3825 -0.0086  1.3465
  530MOL0     H71490   4.274   7.466   2.627 -0.3187 -0.0950  0.4695
  530MOL0     H71491   4.138   7.683   2.786 -0.6013 -2.4156  0.3953
  530MOL0     H71492   4.313   7.667   2.790 -0.3393  1.8279 -0.3843
  530MOL0     H71493   4.235   7.841   2.645 -1.7439 -0.1191  0.6849
  530MOL0     H71494   4.313   7.721   2.538 -2.4650 -0.5864 -3.3794
  530MOL0     H71495   4.131   7.638   2.442 -0.6122 -2.5051  2.6791
  530MOL0     H71496   4.037   7.687   2.575  1.0124  1.7127  3.5923
  530MOL0     H71497   4.054   7.925   2.508  1.2043  0.0537  0.5370
  530MOL0     H71498   3.981   7.823   2.378  1.2984 -1.8073 -1.5604
  530MOL0     H71499   4.278   7.921   2.390 -0.2644 -1.0630  0.1215
  530MOL0     H71500   4.215   7.807   2.273  2.6080  0.9425 -0.4671
  530MOL0     H71501   4.064   7.877   2.088 -0.9130  0.1626  0.2900
  530MOL0     H71502   3.929   8.151   1.938 -0.3405  0.0569  2.1234
  530MOL0     H71503   4.082   8.239   1.918  1.7217 -1.4309 -1.3900
  530MOL0     H71504   4.189   8.036   1.845 -0.8939  0.7322  0.6421
  530MOL0     H71505   4.054   7.933   1.881 -1.1544  0.4598  2.0744
  530MOL0     H71506   4.042   8.165   1.687 -1.1239 -1.0213 -1.1351
  530MOL0     H71507   3.911   8.037   1.712 -0.2424 -2.2179  0.1821
  530MOL0     H71508   4.059   8.015   1.502  0.3074  3.9697  1.4658
  530MOL0     H71509   4.015   7.884   1.614  0.0775 -0.4264 -2.0202
  530MOL0     H71510   4.100   7.819   1.385 -0.5030 -2.1966 -1.2963
  530MOL0     H71511   4.221   7.670   1.237  3.2288  0.5652 -1.4740
  530MOL0     H71512   4.743   7.540   1.128 -2.9279  0.6881  1.2479
  530MOL0     H71513   4.865   7.396   0.969  0.4184 -0.9715 -0.6110
  530MOL0     H71514   4.724   6.971   0.912  0.6010 -2.1697 -2.5410
  530MOL0     H71515   4.673   7.075   0.779  0.5115 -0.7142 -2.1672
  530MOL0     H71516   4.881   7.034   0.657 -0.5933  0.4005  0.1383
  530MOL0     H71517   4.948   6.956   0.808  0.5551 -3.7994 -0.6084
  530MOL0     H71518   4.768   6.782   0.795 -2.3015 -1.7338 -1.4912
  530MOL0     H71519   4.718   6.851   0.641  0.0569  0.8216  0.8822
  530MOL0     H71520   4.878   6.659   0.629 -0.1449 -0.9776  1.5220
  530MOL0     H71521   4.987   6.736   0.726 -1.8099  0.0654  1.5103
  530MOL0     H71522   4.886   6.879   0.468 -1.5306 -0.7007  1.3509
  530MOL0     H71523   4.955   6.728   0.446  0.1599 -1.9093  0.7020
  530MOL0     H71524   5.094   6.976   0.571 -0.0488 -2.2821  2.2848
  530MOL0     H71525   5.179   6.820   0.531 -0.8035 -1.9203 -0.8815
  530MOL0     H71526   5.018   6.992   0.326  0.1185 -1.2437  0.2899
  530MOL0     H71527   5.129   6.855   0.293 -0.3543  0.6516 -1.8040
  530MOL0     H71528   5.256   7.055   0.242  2.1839  2.7378  0.6270
  530MOL0     H71529   5.207   7.129   0.397 -2.6086 -0.9714  1.9154
  530MOL0     H71530   4.597   7.080   1.049 -1.5878  1.2544 -1.7022
  530MOL0     H71531   4.474   7.224   1.213  2.9866 -3.6542  2.2176
  530MOL0     H71532   4.532   7.610   1.519  0.4007  0.5406  1.1301
  530MOL0     H71533   4.428   7.811   1.657  1.2327  0.9422 -1.0178
  530MOL0     H71534   3.976   7.605   3.104 -0.7614  1.2136  0.4715
  530MOL0     H71535   3.788   7.676   3.213 -1.8416 -2.3549  1.8343
  530MOL0     H71536   3.161   7.728   3.045 -0.4215  2.0251  0.3009
  530MOL0     H71537   2.966   7.683   3.143 -0.8472 -1.1178  1.9752
  530MOL0     H71538   2.971   7.772   3.588  0.0514 -1.1836  3.1396
  530MOL0     H71539   2.946   7.602   3.604  0.0843  0.6064  0.8426
  530MOL0     H71540   2.740   7.801   3.499 -0.3719 -0.5191 -1.3504
  530MOL0     H71541   2.751   7.725   3.669 -1.4768 -1.8479 -0.0642
  530MOL0     H71542   2.713   7.503   3.553 -0.0396 -0.6219 -0.2340
  530MOL0     H71543   2.698   7.578   3.403 -2.2942 -6.4373  0.6934
  530MOL0     H71544   2.507   7.700   3.449  1.6616 -1.2208 -2.3207
  530MOL0     H71545   2.497   7.520   3.487  1.8968 -1.0981  1.0474
  530MOL0     H71546   2.423   7.703   3.868 -0.2922  3.7091 -1.0073
  530MOL0     H71547   3.175   7.638   3.528  2.3183  1.2190  0.4183
  530MOL0     H71548   3.404   7.478   3.457  0.0625  0.3221 -2.2607
  530MOL0     H71549   3.521   7.585   3.389  1.7403  1.1991  1.6677
  530MOL0     H71550   3.427   7.639   3.530 -1.4816 -0.4799  0.3698
  531MOL0     O71551   6.508   5.605   9.123  0.3116  0.0555  0.6845
  531MOL0     C71552   6.395   5.642   9.123  0.6771 -0.2376 -0.4137
  531MOL0     O71553   6.363   5.753   9.189 -0.0094  0.1959  0.2892
  531MOL0     C71554   6.455   5.830   9.256 -0.1620  0.2708  0.7117
  531MOL0     C71555   6.429   5.876   9.386 -0.1654  0.2906  0.0136
  531MOL0     C71556   6.504   5.974   9.449 -0.1772 -0.3787 -0.1439
  531MOL0     C71557   6.613   6.037   9.383  0.2785 -0.0464  0.0621
  531MOL0     O71558   6.689   6.138   9.439  0.1282 -0.6851  0.2333
  531MOL0     C71559   6.829   6.130   9.447 -0.5208 -0.9516  0.3418
  531MOL0     C71560   6.881   6.256   9.391 -0.0708  0.0821 -0.1309
  531MOL0     C71561   7.034   6.271   9.406  0.6229 -0.5074 -0.5193
  531MOL0     C71562   7.096   6.298   9.548 -0.7780 -0.7171  0.4435
  531MOL0     C71563   7.244   6.317   9.529  0.4049  0.7785 -0.0826
  531MOL0     C71564   7.310   6.340   9.661 -0.5303  0.2618  0.0940
  531MOL0     C71565   7.319   6.211   9.753 -0.0127 -0.0785 -0.5457
  531MOL0     C71566   7.422   6.210   9.858 -0.5294  0.0847 -0.1620
  531MOL0     N71567   7.558   6.226   9.801 -0.3619  0.5443  0.0690
  531MOL0     C71568   7.668   6.275   9.867 -0.8991 -0.1879  0.8162
  531MOL0     C71569   7.771   6.250   9.784 -0.3412  0.0368 -0.3069
  531MOL0     C71570   7.915   6.300   9.779  0.2366 -0.4055  0.2326
  531MOL0     C71571   7.994   6.271   9.907  0.0593  1.0285  0.0293
  531MOL0     C71572   8.028   6.123   9.931 -0.2233 -0.0068  0.0134
  531MOL0     C71573   8.153   6.101  10.025 -0.4001 -0.4609 -0.3858
  531MOL0     O71574   8.280   6.143   9.971  0.1617  0.0691  0.3484
  531MOL0     C71575   8.341   6.085   9.860 -0.9948  0.8349 -0.1699
  531MOL0     C71576   8.457   6.144   9.829 -0.6126 -0.4651  0.7271
  531MOL0     C71577   8.534   6.102   9.721  0.2627  0.2780  0.4593
  531MOL0     C71578   8.494   5.980   9.647 -0.2503 -0.8539 -0.3722
  531MOL0     C71579   8.583   5.923   9.548  0.0518 -0.5752  0.2648
  531MOL0     O71580   8.697   5.999   9.517 -0.0424 -0.0510  0.2152
  531MOL0     C71581   8.787   5.949   9.421  0.5805 -0.4933 -0.3074
  531MOL0     C71582   8.906   6.021   9.413  0.3088 -0.0106 -0.1802
  531MOL0     C71583   9.013   5.991   9.340  0.4868  0.4838  0.0605
  531MOL0     C71584   9.015   5.885   9.250 -0.9034  0.7100 -0.5441
  531MOL0     O71585   9.120   5.842   9.174 -0.2970 -0.1887  0.3147
  531MOL0     C71586   9.242   5.906   9.200 -0.4151 -0.4445 -0.0927
  531MOL0     C71587   9.344   5.825   9.115 -0.6354  0.0585  0.4692
  531MOL0     C71588   9.492   5.879   9.118 -0.0671 -0.0970 -0.2491
  531MOL0     C71589   9.576   5.824   8.998 -0.2052  0.5932  0.7717
  531MOL0     C71590   9.719   5.842   9.037 -1.2252 -0.6020 -0.2001
  531MOL0     C71591   9.812   5.789   8.927  0.6984 -1.3766  0.1585
  531MOL0     C71592   9.787   5.645   8.893  0.7330 -0.1196 -0.0215
  531MOL0     C71593   9.905   5.583   8.812  0.5266 -0.7206 -0.2493
  531MOL0    Cl71594  10.064   5.598   8.904 -0.0251 -0.1260  0.4590
  531MOL0     C71595   8.897   5.802   9.254 -0.6143  0.1391 -0.0835
  531MOL0     C71596   8.785   5.833   9.334 -0.3541 -0.1459 -0.6398
  531MOL0     O71597   8.553   5.813   9.508 -0.3478 -0.0797  0.2009
  531MOL0     C71598   8.366   5.922   9.684 -0.4209 -0.3387 -0.3366
  531MOL0     C71599   8.300   5.967   9.796 -0.4051  0.4101 -0.5080
  531MOL0     N71600   7.721   6.207   9.668  0.2530 -0.1730  0.2435
  531MOL0     N71601   7.595   6.183   9.678 -0.1449  0.1824 -0.5871
  531MOL0     C71602   6.647   5.991   9.256 -0.3401  0.8743  0.8794
  531MOL0     C71603   6.571   5.883   9.195 -1.1957 -0.4731  0.4405
  531MOL0     C71604   6.290   5.563   9.065  0.5099 -0.2785  0.3582
  531MOL0     C71605   6.305   5.496   8.940 -0.0771 -1.0706  0.6426
  531MOL0     C71606   6.199   5.434   8.885  0.8902 -0.1257  0.0113
  531MOL0     C71607   6.069   5.429   8.949 -0.6270  0.3429  0.0277
  531MOL0     O71608   5.975   5.351   8.892  0.3425  0.8057  0.1568
  531MOL0     C71609   5.880   5.268   8.958  0.1183 -0.1928 -0.1299
  531MOL0     C71610   5.955   5.163   9.044  0.0142 -0.6778 -0.2456
  531MOL0     C71611   5.862   5.049   9.081 -0.0174  0.6419  0.5263
  531MOL0     C71612   5.722   5.088   9.136  0.4646 -0.2127  0.3492
  531MOL0     C71613   5.654   4.983   9.212 -0.4014 -1.1660  0.4047
  531MOL0     C71614   5.596   4.901   9.280  0.0067  0.8777 -0.0687
  531MOL0     C71615   6.058   5.482   9.075 -0.0579  1.3651 -0.2484
  531MOL0     C71616   6.160   5.554   9.130 -0.3589 -0.3233 -0.6686
  531MOL0     C71617   6.123   5.603   9.277 -0.7762  0.7608  0.2169
  531MOL0     H71618   6.337   5.846   9.435  0.5634  0.3488  1.4675
  531MOL0     H71619   6.491   6.010   9.551 -1.0569 -0.7212 -0.1195
  531MOL0     H71620   6.861   6.136   9.552 -0.6390  2.9081  0.2805
  531MOL0     H71621   6.871   6.044   9.395  5.0114  1.2658  0.5196
  531MOL0     H71622   6.830   6.339   9.440  2.0558  1.3379  0.1054
  531MOL0     H71623   6.866   6.267   9.283  1.6801  2.1899 -0.2273
  531MOL0     H71624   7.053   6.359   9.344  1.1027 -0.3258 -0.1152
  531MOL0     H71625   7.092   6.191   9.360  2.7642 -0.8004  2.4024
  531MOL0     H71626   7.045   6.393   9.569  0.7846  0.3230 -0.2333
  531MOL0     H71627   7.074   6.229   9.629  3.1489 -1.4006  1.1337
  531MOL0     H71628   7.289   6.231   9.479 -0.6023  0.0051  0.3058
  531MOL0     H71629   7.246   6.403   9.462 -0.1212 -0.8134 -2.2544
  531MOL0     H71630   7.409   6.385   9.654 -1.3026  1.7373 -2.6827
  531MOL0     H71631   7.259   6.420   9.715  0.4550  0.4058  0.8472
  531MOL0     H71632   7.331   6.118   9.696 -0.2533 -0.5431  0.1463
  531MOL0     H71633   7.226   6.196   9.808  1.7277  0.0339  2.6786
  531MOL0     H71634   7.404   6.291   9.929 -0.8464 -0.6256  0.5859
  531MOL0     H71635   7.420   6.116   9.913 -0.6145  0.0780 -0.1773
  531MOL0     H71636   7.671   6.317   9.967 -0.5636  0.2783  0.6174
  531MOL0     H71637   7.971   6.249   9.700  1.8633 -1.1118  1.7698
  531MOL0     H71638   7.918   6.409   9.770 -0.3110 -0.2880  1.3347
  531MOL0     H71639   8.086   6.330   9.908  1.2877 -0.7157  3.2810
  531MOL0     H71640   7.928   6.301   9.989 -0.0942  0.4246  0.1332
  531MOL0     H71641   8.051   6.063   9.842  0.3385 -0.2196  0.2946
  531MOL0     H71642   7.945   6.065   9.973 -2.5549  3.4743  0.5914
  531MOL0     H71643   8.175   5.997  10.051  3.9826  0.6628  1.2661
  531MOL0     H71644   8.128   6.161  10.113 -1.1405 -0.5290 -0.5373
  531MOL0     H71645   8.486   6.231   9.887 -1.4883  0.9057 -0.8101
  531MOL0     H71646   8.622   6.158   9.693 -1.4314  3.0398  0.3501
  531MOL0     H71647   8.917   6.112   9.471 -1.2934  0.1028 -0.0101
  531MOL0     H71648   9.096   6.060   9.347  0.2768  0.7406  0.0506
  531MOL0     H71649   9.243   6.009   9.163  0.2772 -1.2335 -2.4632
  531MOL0     H71650   9.275   5.907   9.304 -0.8138 -1.1955  0.0436
  531MOL0     H71651   9.346   5.721   9.150 -0.4528 -0.5234 -1.1927
  531MOL0     H71652   9.316   5.825   9.010  2.8181 -0.5669 -0.5877
  531MOL0     H71653   9.493   5.989   9.112 -1.2392  0.0643  1.6850
  531MOL0     H71654   9.536   5.850   9.214  0.4817 -0.2771 -0.5526
  531MOL0     H71655   9.548   5.861   8.899 -1.7536  0.5585  1.1700
  531MOL0     H71656   9.549   5.718   9.007  0.5243  0.3403  0.1742
  531MOL0     H71657   9.739   5.791   9.131  2.8059  1.3461  0.1748
  531MOL0     H71658   9.748   5.947   9.047 -0.9703 -0.5161 -1.5457
  531MOL0     H71659   9.790   5.851   8.840  2.8463 -1.7565 -0.7365
  531MOL0     H71660   9.918   5.801   8.950  0.7895  0.3901 -0.9925
  531MOL0     H71661   9.700   5.633   8.828 -2.6382  1.5577  3.7181
  531MOL0     H71662   9.772   5.578   8.978 -0.8608 -0.8963 -0.8611
  531MOL0     H71663   9.897   5.477   8.788 -4.2454  0.1497 -4.2940
  531MOL0     H71664   9.910   5.650   8.725  0.2290 -0.3750 -0.0018
  531MOL0     H71665   8.899   5.717   9.186 -0.6756  1.6278 -2.0292
  531MOL0     H71666   8.693   5.775   9.332 -1.3692  1.2811  1.1363
  531MOL0     H71667   8.340   5.824   9.645  0.2682 -0.8868  0.5299
  531MOL0     H71668   8.213   5.912   9.830  1.0176 -2.4574 -1.2245
  531MOL0     H71669   6.728   6.037   9.201 -0.2061 -0.1650  0.1771
  531MOL0     H71670   6.593   5.861   9.091 -0.0645  0.8139  0.3734
  531MOL0     H71671   6.394   5.509   8.880 -1.1104 -1.0300 -0.9455
  531MOL0     H71672   6.221   5.392   8.788 -0.9359  0.5415 -0.7361
  531MOL0     H71673   5.824   5.209   8.884  3.4943 -1.2707 -2.0625
  531MOL0     H71674   5.807   5.328   9.012 -1.9735 -2.0890 -0.6896
  531MOL0     H71675   5.999   5.211   9.133 -1.2918 -0.3558  0.2493
  531MOL0     H71676   6.031   5.121   8.978 -1.3618 -0.4124 -2.0782
  531MOL0     H71677   5.911   4.987   9.157 -0.6001  0.0070  0.3961
  531MOL0     H71678   5.859   4.980   8.997 -2.2049 -0.0330  1.0859
  531MOL0     H71679   5.729   5.174   9.203 -0.2876  1.5294 -1.6759
  531MOL0     H71680   5.654   5.104   9.051  1.4724 -1.9992 -0.8492
  531MOL0     H71681   5.548   4.824   9.338 -1.5728  1.3202 -0.7148
  531MOL0     H71682   5.975   5.463   9.143  0.4243 -1.3767 -0.3127
  531MOL0     H71683   6.216   5.600   9.335  0.0598 -0.6617 -1.1057
  531MOL0     H71684   6.089   5.707   9.272 -2.4941  0.2882  1.2399
  531MOL0     H71685   6.037   5.541   9.301  0.2930 -2.6016 -3.4696
  532MOL0     O71686  10.665   9.188   0.287 -0.6062  0.2766 -0.1578
  532MOL0     C71687  10.565   9.264   0.278 -0.3308 -0.6859 -0.1579
  532MOL0     O71688  10.561   9.387   0.219 -0.0302  0.2287  0.6584
  532MOL0     C71689  10.686   9.443   0.198  0.6607  0.2748 -0.8744
  532MOL0     C71690  10.790   9.456   0.291 -0.0502 -0.0781  0.6718
  532MOL0     C71691  10.913   9.504   0.254 -0.8800 -0.2891  0.5749
  532MOL0     C71692  10.927   9.572   0.133  0.0776  0.3060 -1.0147
  532MOL0     O71693  11.037   9.640   0.105 -0.0314  1.4409 -0.0129
  532MOL0     C71694  11.150   9.545   0.079 -0.0384  0.5460  0.3471
  532MOL0     C71695  11.213   9.572  -0.060  0.3293  0.1099  0.4993
  532MOL0     C71696  11.127   9.522  -0.171  0.1249  0.5350 -1.0353
  532MOL0     C71697  11.187   9.590  -0.294 -0.9761 -0.3186 -0.1289
  532MOL0     C71698  11.303   9.509  -0.349 -0.0320  0.3041 -0.0909
  532MOL0     C71699  11.361   9.568  -0.474 -1.1834  0.6002 -0.2237
  532MOL0     C71700  11.469   9.483  -0.545  0.2240 -0.2804 -0.2067
  532MOL0     C71701  11.421   9.345  -0.587 -0.2268 -0.8120 -0.1929
  532MOL0     N71702  11.542   9.283  -0.652  0.6207 -0.0520  1.3968
  532MOL0     C71703  11.673   9.272  -0.616  0.1348 -0.7957 -0.2599
  532MOL0     C71704  11.733   9.222  -0.726 -0.6205  0.0577  0.2424
  532MOL0     C71705  11.884   9.205  -0.744 -0.3232 -0.0003 -0.3696
  532MOL0     C71706  11.977   9.274  -0.640  0.8216 -0.1753 -0.0871
  532MOL0     C71707  12.121   9.262  -0.694  1.2975 -1.0303 -0.2436
  532MOL0     C71708  12.223   9.340  -0.618  0.2128  0.3984 -0.3877
  532MOL0     O71709  12.353   9.288  -0.668  0.4415 -0.3087  0.4781
  532MOL0     C71710  12.474   9.328  -0.614 -0.0722 -0.0816  0.6132
  532MOL0     C71711  12.585   9.236  -0.620  0.0054 -0.0127  0.1768
  532MOL0     C71712  12.705   9.258  -0.558 -0.6827 -0.3361  0.0876
  532MOL0     C71713  12.730   9.381  -0.509  0.8762 -0.4686 -0.4615
  532MOL0     C71714  12.859   9.421  -0.449  0.1615 -0.8362  0.0624
  532MOL0     O71715  12.959   9.334  -0.462  0.2330 -0.1093 -0.1002
  532MOL0     C71716  13.094   9.354  -0.431  0.0526  0.9565  0.1203
  532MOL0     C71717  13.165   9.235  -0.430 -1.0213  0.0707 -0.4790
  532MOL0     C71718  13.303   9.233  -0.410  0.1901  0.2643 -0.4442
  532MOL0     C71719  13.376   9.359  -0.401  0.1870  0.2280  0.8776
  532MOL0     O71720  13.513   9.353  -0.418  0.4575 -0.4605  0.5024
  532MOL0     C71721  13.561   9.473  -0.475  0.4845 -0.6638  0.2828
  532MOL0     C71722  13.686   9.436  -0.550  0.6676  0.7109  0.1293
  532MOL0     C71723  13.772   9.555  -0.593 -0.7592 -0.3225  0.6833
  532MOL0     C71724  13.907   9.529  -0.670 -0.0169  0.1611 -0.0680
  532MOL0     C71725  13.886   9.506  -0.822 -0.6830 -0.2251 -0.3051
  532MOL0     C71726  14.001   9.448  -0.898 -1.1147 -0.0761  0.3947
  532MOL0     C71727  14.138   9.473  -0.838 -0.4709  0.0249  0.7740
  532MOL0     C71728  14.249   9.433  -0.934  0.2446  0.5712  0.2749
  532MOL0    Cl71729  14.251   9.514  -1.090 -0.0299  0.1484  0.5722
  532MOL0     C71730  13.294   9.474  -0.400  0.0269 -0.1896  0.2416
  532MOL0     C71731  13.155   9.465  -0.416 -0.6458 -0.5577  0.3968
  532MOL0     O71732  12.864   9.539  -0.410  0.1348  0.4311  0.5095
  532MOL0     C71733  12.624   9.474  -0.503 -0.6387 -0.1768 -0.1457
  532MOL0     C71734  12.494   9.449  -0.548  0.2326 -0.9502  0.3548
  532MOL0     N71735  11.645   9.219  -0.823 -0.6478  0.1018 -0.2129
  532MOL0     N71736  11.529   9.247  -0.783  0.1922 -0.7001  0.3249
  532MOL0     C71737  10.818   9.571   0.048  0.5892 -0.3531  0.1625
  532MOL0     C71738  10.694   9.503   0.081 -0.1037 -0.0129 -0.8088
  532MOL0     C71739  10.441   9.209   0.332  0.0733 -0.1684 -0.4025
  532MOL0     C71740  10.330   9.252   0.265  0.2059  0.2232  0.2768
  532MOL0     C71741  10.208   9.206   0.311  0.5840  0.4098  0.4172
  532MOL0     C71742  10.199   9.117   0.422 -0.3701  0.4567 -1.2556
  532MOL0     O71743  10.071   9.073   0.457 -0.4191 -0.3474  0.2853
  532MOL0     C71744  10.029   9.090   0.593  0.1469 -0.3684  0.0872
  532MOL0     C71745   9.874   9.094   0.606  0.2862 -0.4075  0.3911
  532MOL0     C71746   9.832   9.098   0.761  0.1139  0.5185  1.3305
  532MOL0     C71747   9.683   9.145   0.772  0.2839  0.5656 -0.0237
  532MOL0     C71748   9.645   9.143   0.912  0.3354 -0.2544 -0.3228
  532MOL0     C71749   9.612   9.162   1.028 -0.5081  0.1723  0.3750
  532MOL0     C71750  10.313   9.069   0.488 -0.6530  0.4765  0.1109
  532MOL0     C71751  10.434   9.113   0.443 -0.1188 -0.3544  0.1045
  532MOL0     C71752  10.553   9.067   0.525 -0.5411  0.7163 -0.0806
  532MOL0     H71753  10.783   9.399   0.384 -0.5923 -2.6067 -0.8228
  532MOL0     H71754  10.995   9.495   0.324  1.4344  2.6159 -1.5093
  532MOL0     H71755  11.228   9.555   0.155  0.0584 -2.3572  0.7335
  532MOL0     H71756  11.112   9.443   0.074 -2.1766  1.3324 -2.5556
  532MOL0     H71757  11.302   9.509  -0.072 -0.5311 -1.8039  3.0710
  532MOL0     H71758  11.226   9.680  -0.073  1.6152 -0.2134 -1.2421
  532MOL0     H71759  11.024   9.559  -0.167  0.2202  0.6858  0.8639
  532MOL0     H71760  11.130   9.413  -0.177  2.6288  0.4013  0.7745
  532MOL0     H71761  11.115   9.610  -0.375  2.3495  5.0921 -2.3478
  532MOL0     H71762  11.216   9.694  -0.278 -2.1914 -0.0017  0.1638
  532MOL0     H71763  11.388   9.497  -0.281  0.6205 -1.6851 -1.1779
  532MOL0     H71764  11.270   9.408  -0.373 -1.5303  0.7147  0.1702
  532MOL0     H71765  11.281   9.590  -0.545 -1.1707  2.6190  0.3067
  532MOL0     H71766  11.411   9.664  -0.455  2.5219 -1.1966  0.0756
  532MOL0     H71767  11.545   9.464  -0.469  0.8335 -1.7524 -1.1406
  532MOL0     H71768  11.522   9.534  -0.627  1.6864 -1.3929  0.0101
  532MOL0     H71769  11.390   9.277  -0.508 -0.9972 -0.0122  0.2069
  532MOL0     H71770  11.335   9.344  -0.654 -0.7049  0.2134  0.3830
  532MOL0     H71771  11.716   9.299  -0.520 -3.0881 -0.1801  1.1242
  532MOL0     H71772  11.923   9.103  -0.750  2.7895  1.1242 -1.8864
  532MOL0     H71773  11.912   9.248  -0.841 -1.4261 -0.1857 -0.7741
  532MOL0     H71774  11.951   9.380  -0.635 -0.4657 -0.5189  2.7894
  532MOL0     H71775  11.968   9.223  -0.544 -0.6741 -1.0109 -0.6400
  532MOL0     H71776  12.130   9.294  -0.799 -0.9341 -0.1380 -0.2080
  532MOL0     H71777  12.143   9.156  -0.678 -0.2252 -1.5933 -1.5654
  532MOL0     H71778  12.191   9.310  -0.518 -3.1911  1.9425 -0.8675
  532MOL0     H71779  12.218   9.448  -0.633  0.7841  0.5813  0.6416
  532MOL0     H71780  12.566   9.139  -0.665 -0.5940 -0.5654  1.5726
  532MOL0     H71781  12.786   9.185  -0.561  1.2512  1.5202  2.7052
  532MOL0     H71782  13.120   9.142  -0.465 -0.3878  0.0218 -1.2192
  532MOL0     H71783  13.353   9.138  -0.425 -0.0113  0.2931 -1.3780
  532MOL0     H71784  13.500   9.509  -0.558  3.3214 -0.3357 -1.7878
  532MOL0     H71785  13.575   9.557  -0.406  2.4290 -1.0663  0.4409
  532MOL0     H71786  13.748   9.382  -0.477  0.8865  0.0276 -0.5474
  532MOL0     H71787  13.668   9.382  -0.643 -2.4738  2.7315 -0.5969
  532MOL0     H71788  13.695   9.612  -0.646 -2.7424 -1.3988  2.2629
  532MOL0     H71789  13.796   9.618  -0.506 -1.9830  2.1141 -0.6336
  532MOL0     H71790  13.960   9.446  -0.622 -3.2948 -1.2473  1.4534
  532MOL0     H71791  13.967   9.619  -0.653  0.1188 -0.0123  0.4048
  532MOL0     H71792  13.876   9.605  -0.868  2.6656 -0.5550 -2.0487
  532MOL0     H71793  13.790   9.455  -0.836 -2.2734  2.1378  1.1307
  532MOL0     H71794  13.979   9.344  -0.922  0.9977 -0.5596  0.3300
  532MOL0     H71795  13.996   9.496  -0.996 -3.0113  2.5267  1.6706
  532MOL0     H71796  14.151   9.406  -0.753  0.5421 -1.3976 -0.4603
  532MOL0     H71797  14.159   9.577  -0.810  1.7199 -0.0993 -0.1992
  532MOL0     H71798  14.342   9.433  -0.877  0.2023 -1.9118  0.4580
  532MOL0     H71799  14.233   9.325  -0.948 -2.7977  0.3586  3.7976
  532MOL0     H71800  13.328   9.577  -0.393  0.9346 -0.5106  0.7062
  532MOL0     H71801  13.104   9.560  -0.425 -1.8916 -1.1999  0.3374
  532MOL0     H71802  12.633   9.574  -0.461 -1.5436  0.0618 -0.4933
  532MOL0     H71803  12.411   9.519  -0.546  0.8614 -0.1583 -0.3731
  532MOL0     H71804  10.832   9.626  -0.045  2.4463 -1.1382 -0.0630
  532MOL0     H71805  10.608   9.509   0.016  1.9294  2.4152 -3.5735
  532MOL0     H71806  10.332   9.307   0.172  3.5990  2.0129  1.2304
  532MOL0     H71807  10.116   9.238   0.264 -1.3639 -1.7710  2.4811
  532MOL0     H71808  10.060   9.185   0.637  0.9109 -1.1321  1.2581
  532MOL0     H71809  10.063   9.004   0.651  0.6686 -1.9099 -2.3602
  532MOL0     H71810   9.836   9.002   0.561 -0.9929 -0.6347  1.8757
  532MOL0     H71811   9.832   9.174   0.545 -0.4957 -2.0483 -1.3056
  532MOL0     H71812   9.894   9.173   0.811  0.2264  0.4006  1.3701
  532MOL0     H71813   9.858   9.002   0.808  2.4289  0.7919  0.7718
  532MOL0     H71814   9.670   9.245   0.731  0.4369  2.0476  3.2135
  532MOL0     H71815   9.627   9.067   0.719  2.5251  0.0440 -1.7544
  532MOL0     H71816   9.596   9.172   1.134  1.5549  1.5189  0.6182
  532MOL0     H71817  10.298   9.003   0.572 -2.4196 -0.7855 -1.1323
  532MOL0     H71818  10.567   8.960   0.505 -3.8668 -0.4607  2.7229
  532MOL0     H71819  10.647   9.122   0.520  0.2562 -0.4768  1.1689
  532MOL0     H71820  10.522   9.084   0.628  1.6097  3.7376  0.1877
  533MOL0     O71821   5.529   0.378   7.081  0.0564  0.2551 -0.7466
  533MOL0     C71822   5.520   0.307   7.186 -1.1029 -0.6429  0.0575
  533MOL0     O71823   5.610   0.295   7.286 -0.5703 -0.7021  0.1192
  533MOL0     C71824   5.731   0.361   7.283  0.2725  0.2491  0.3059
  533MOL0     C71825   5.754   0.499   7.321 -0.5209  0.4652 -0.2840
  533MOL0     C71826   5.883   0.560   7.304 -0.7319  0.1546  0.5089
  533MOL0     C71827   5.992   0.474   7.252 -0.3916  0.7762  0.6133
  533MOL0     O71828   6.123   0.512   7.233 -0.0259 -0.2028  0.3880
  533MOL0     C71829   6.156   0.648   7.259  1.3349 -0.8523 -0.7120
  533MOL0     C71830   6.306   0.663   7.238  0.3624 -0.8102 -0.9004
  533MOL0     C71831   6.393   0.601   7.345 -0.8659 -0.9712 -0.2620
  533MOL0     C71832   6.416   0.705   7.465 -0.1552  0.7089  0.4600
  533MOL0     C71833   6.502   0.644   7.579 -0.3690  0.1518  0.1695
  533MOL0     C71834   6.656   0.631   7.564  0.0890  0.5296  0.4377
  533MOL0     C71835   6.730   0.746   7.628 -0.7848 -0.2597 -0.0568
  533MOL0     C71836   6.746   0.868   7.519  0.1017  0.0827  0.3603
  533MOL0     N71837   6.839   0.856   7.406 -1.3071  1.5478  0.2720
  533MOL0     C71838   6.870   0.969   7.326  0.4843  0.2027 -0.0798
  533MOL0     C71839   6.955   0.926   7.233  0.2452 -0.1928 -0.4947
  533MOL0     C71840   7.022   1.022   7.140  0.2971  0.1959  0.0556
  533MOL0     C71841   7.172   1.031   7.165 -0.0177 -0.1966 -0.4719
  533MOL0     C71842   7.228   1.169   7.114  0.7836 -0.4585 -0.3271
  533MOL0     C71843   7.382   1.177   7.118  0.1825 -0.8873  0.4849
  533MOL0     O71844   7.437   1.073   7.040 -0.4102 -0.2840 -0.5190
  533MOL0     C71845   7.575   1.064   7.054  0.6879  0.0146  0.6080
  533MOL0     C71846   7.632   0.955   6.980  0.5397 -0.3038  0.0932
  533MOL0     C71847   7.772   0.938   6.964 -0.3278  0.0199 -0.2513
  533MOL0     C71848   7.857   1.020   7.032 -0.0880 -0.0757 -0.6490
  533MOL0     C71849   8.005   0.991   7.048  0.1877  0.3249 -0.1584
  533MOL0     O71850   8.048   0.887   6.968  0.0348  0.4204  0.0243
  533MOL0     C71851   8.179   0.841   6.986  0.3065  0.7795  0.1920
  533MOL0     C71852   8.225   0.774   7.106  0.5298  0.8401  0.2083
  533MOL0     C71853   8.359   0.725   7.108 -0.1300 -0.1311 -0.2592
  533MOL0     C71854   8.441   0.721   6.995 -0.2521 -0.3795  0.2804
  533MOL0     O71855   8.576   0.668   6.995  0.4268  0.9165  0.4361
  533MOL0     C71856   8.661   0.670   7.114  0.1208  0.1425  0.9842
  533MOL0     C71857   8.800   0.643   7.074 -0.2614 -0.1758 -0.1001
  533MOL0     C71858   8.891   0.703   7.169 -0.0694 -0.7727  0.6676
  533MOL0     C71859   9.034   0.711   7.127  0.5450 -0.2226 -1.1115
  533MOL0     C71860   9.130   0.770   7.233 -0.4737 -0.9636 -0.4362
  533MOL0     C71861   9.272   0.792   7.180  0.3966 -1.2012  0.2591
  533MOL0     C71862   9.293   0.904   7.071 -0.4916  0.0270 -0.1606
  533MOL0     C71863   9.230   1.038   7.108 -0.2660 -0.8713 -0.7590
  533MOL0    Cl71864   9.310   1.115   7.257 -0.4059 -0.0996  0.0907
  533MOL0     C71865   8.387   0.791   6.887  1.0573 -0.0635 -0.2489
  533MOL0     C71866   8.261   0.848   6.884  0.1678 -0.4158 -0.0067
  533MOL0     O71867   8.076   1.067   7.112  0.4610  0.4156 -0.2770
  533MOL0     C71868   7.802   1.132   7.111 -0.5201  0.6479 -0.6896
  533MOL0     C71869   7.666   1.157   7.107 -0.4666 -0.6440 -0.4254
  533MOL0     N71870   6.963   0.781   7.246 -0.8991 -0.4805  0.3898
  533MOL0     N71871   6.906   0.741   7.356  0.2663  0.1956 -1.0719
  533MOL0     C71872   5.963   0.338   7.234  0.2993 -0.0903  0.5695
  533MOL0     C71873   5.840   0.284   7.252 -0.0034  0.4479  0.3649
  533MOL0     C71874   5.401   0.221   7.215  0.5895  0.0132  0.9396
  533MOL0     C71875   5.280   0.294   7.229  0.2110  1.0669 -0.1320
  533MOL0     C71876   5.161   0.216   7.250  0.4207  0.2214 -0.6233
  533MOL0     C71877   5.165   0.070   7.271 -0.6654 -0.8141  0.4217
  533MOL0     O71878   5.069  -0.011   7.319 -0.0368 -0.4357  0.3805
  533MOL0     C71879   4.939   0.044   7.321 -0.6842  0.1254  0.1987
  533MOL0     C71880   4.830  -0.069   7.345  0.2654  1.3704 -0.1109
  533MOL0     C71881   4.757  -0.036   7.475  1.3118  0.2529  0.9546
  533MOL0     C71882   4.649   0.070   7.466 -0.9733 -0.9311  0.7173
  533MOL0     C71883   4.658   0.184   7.368  0.1226  0.4817 -0.9101
  533MOL0     C71884   4.676   0.287   7.311  0.1656 -1.0570  0.2632
  533MOL0     C71885   5.289   0.013   7.254 -0.3678 -0.1307  0.1245
  533MOL0     C71886   5.405   0.083   7.230 -0.0456  0.2958  0.7960
  533MOL0     C71887   5.532   0.009   7.186 -0.6873 -0.5755 -0.6430
  533MOL0     H71888   5.673   0.559   7.360 -0.2752  0.8651 -0.3794
  533MOL0     H71889   5.897   0.663   7.335 -4.1924  0.8150  0.3396
  533MOL0     H71890   6.099   0.699   7.181  1.6740 -1.9672 -1.7064
  533MOL0     H71891   6.117   0.677   7.357 -1.5093 -0.4141 -1.8761
  533MOL0     H71892   6.331   0.769   7.242  0.6433 -0.8965 -0.0874
  533MOL0     H71893   6.322   0.626   7.136 -0.2348  0.9312 -1.6479
  533MOL0     H71894   6.495   0.584   7.309 -0.7105 -0.0918 -0.2469
  533MOL0     H71895   6.340   0.513   7.383 -4.5010 -0.0124 -2.6196
  533MOL0     H71896   6.475   0.783   7.417  1.7298 -1.1650 -0.4441
  533MOL0     H71897   6.322   0.742   7.506 -1.8400 -0.2497 -2.2434
  533MOL0     H71898   6.481   0.713   7.662 -1.6038 -1.2428  1.0812
  533MOL0     H71899   6.449   0.553   7.609 -0.9059  0.6633  0.8239
  533MOL0     H71900   6.682   0.541   7.620 -0.3647  0.6515  0.8598
  533MOL0     H71901   6.680   0.613   7.459 -3.8582 -0.2065 -0.4844
  533MOL0     H71902   6.839   0.735   7.639 -0.1118  1.2130 -3.8096
  533MOL0     H71903   6.685   0.769   7.725  1.0480 -3.5302  1.7672
  533MOL0     H71904   6.651   0.905   7.481  1.0610  1.5932 -0.6639
  533MOL0     H71905   6.776   0.943   7.593  0.1850  0.2080  0.1977
  533MOL0     H71906   6.850   1.074   7.343 -0.4245  0.1561 -0.7543
  533MOL0     H71907   6.997   0.984   7.041  1.1143  1.1872 -0.5478
  533MOL0     H71908   6.977   1.122   7.143  0.8495  0.4326  0.7949
  533MOL0     H71909   7.202   1.024   7.270 -2.0773 -0.2470  0.1643
  533MOL0     H71910   7.211   0.949   7.105 -2.2850 -0.6466 -1.4249
  533MOL0     H71911   7.185   1.243   7.182  2.4502 -0.9411  1.3400
  533MOL0     H71912   7.196   1.186   7.011 -0.7568 -0.2070  0.1672
  533MOL0     H71913   7.413   1.173   7.222  1.1108 -1.5124  0.2040
  533MOL0     H71914   7.416   1.270   7.071 -1.1955 -1.6150 -2.1717
  533MOL0     H71915   7.564   0.878   6.945  0.9574 -1.0964  1.0167
  533MOL0     H71916   7.810   0.852   6.908 -2.8008 -3.3465  2.7605
  533MOL0     H71917   8.156   0.760   7.188  1.5185 -0.2211  0.8945
  533MOL0     H71918   8.412   0.691   7.197 -1.8481 -1.2649  0.3884
  533MOL0     H71919   8.648   0.753   7.184  2.2712 -1.2128  3.1426
  533MOL0     H71920   8.634   0.578   7.166 -0.7368  0.3101  0.8388
  533MOL0     H71921   8.826   0.537   7.073 -0.4297 -0.2212  0.3342
  533MOL0     H71922   8.814   0.699   6.981 -1.9888  1.4937  0.5763
  533MOL0     H71923   8.861   0.807   7.187  2.8468  0.3252 -0.1236
  533MOL0     H71924   8.889   0.654   7.267  0.7803  1.3306  1.8204
  533MOL0     H71925   9.044   0.777   7.041  1.4387 -1.9659 -2.4132
  533MOL0     H71926   9.066   0.608   7.106 -2.2151 -1.2600 -0.6580
  533MOL0     H71927   9.142   0.706   7.321  0.8607  0.0684  0.1757
  533MOL0     H71928   9.091   0.866   7.268  2.2904  0.1474 -0.1413
  533MOL0     H71929   9.346   0.815   7.257  1.5480  1.2695 -1.4398
  533MOL0     H71930   9.297   0.703   7.122 -3.3386 -1.3183 -1.4967
  533MOL0     H71931   9.254   0.873   6.973  0.6828 -1.3118 -0.2280
  533MOL0     H71932   9.402   0.917   7.065 -0.6065  0.8685 -0.5174
  533MOL0     H71933   9.247   1.102   7.022  1.6004 -0.8205 -0.3812
  533MOL0     H71934   9.120   1.030   7.111 -0.3911 -0.1692 -2.5711
  533MOL0     H71935   8.459   0.793   6.806  1.6392 -0.4938  0.2449
  533MOL0     H71936   8.229   0.901   6.796  2.6337  0.4058 -0.4696
  533MOL0     H71937   7.870   1.190   7.174  3.3493  0.4669 -4.2747
  533MOL0     H71938   7.634   1.234   7.177  0.3213 -0.9922  0.3400
  533MOL0     H71939   6.038   0.273   7.190  2.6623  1.0684  2.6346
  533MOL0     H71940   5.832   0.180   7.220 -2.2196  0.4439  0.7554
  533MOL0     H71941   5.274   0.403   7.222  0.2950  1.0528 -0.4529
  533MOL0     H71942   5.067   0.269   7.258  0.4515  0.0980  0.8659
  533MOL0     H71943   4.922   0.093   7.225  1.6806 -1.4879 -1.1649
  533MOL0     H71944   4.933   0.117   7.403  0.2155  0.2843  0.1366
  533MOL0     H71945   4.877  -0.165   7.367  1.1212  1.2588 -2.1725
  533MOL0     H71946   4.763  -0.076   7.259  0.3696 -2.0193 -0.0309
  533MOL0     H71947   4.830  -0.001   7.548  1.8781  2.1556 -0.4343
  533MOL0     H71948   4.697  -0.122   7.504 -2.1314  2.3561  0.5527
  533MOL0     H71949   4.550   0.027   7.445 -0.3322 -0.9524 -3.0618
  533MOL0     H71950   4.658   0.124   7.560 -0.3982  0.2387  0.0175
  533MOL0     H71951   4.701   0.379   7.262 -0.0306 -0.2901  1.5582
  533MOL0     H71952   5.298  -0.095   7.266  3.6457 -0.1902 -1.7580
  533MOL0     H71953   5.610   0.036   7.259  1.8675 -1.5053 -2.8731
  533MOL0     H71954   5.517  -0.098   7.196 -0.0824 -0.4603  2.7157
  533MOL0     H71955   5.569   0.035   7.087  0.2114  2.1421  0.2963
  534MOL0     O71956   3.468   4.432   2.281  0.1951  0.4696 -0.3541
  534MOL0     C71957   3.425   4.319   2.268  0.3069  1.4814 -0.0757
  534MOL0     O71958   3.504   4.203   2.263  0.0844 -0.5429  1.0720
  534MOL0     C71959   3.641   4.212   2.275  0.1115  0.1560  0.6986
  534MOL0     C71960   3.705   4.094   2.301  0.1740 -0.3945  0.4366
  534MOL0     C71961   3.842   4.094   2.323  0.3643  0.3270  0.1753
  534MOL0     C71962   3.924   4.208   2.326  0.2022 -0.3470  0.0279
  534MOL0     O71963   4.058   4.198   2.357  0.2509 -0.3503  0.3264
  534MOL0     C71964   4.151   4.260   2.266  1.1631 -0.6823  0.8427
  534MOL0     C71965   4.286   4.206   2.282  0.4320 -0.5193  0.5124
  534MOL0     C71966   4.379   4.272   2.181  0.2170 -0.8539  0.7261
  534MOL0     C71967   4.521   4.215   2.185  0.6134  0.5633  0.2392
  534MOL0     C71968   4.625   4.303   2.253 -0.5626  0.1716  0.5826
  534MOL0     C71969   4.726   4.206   2.308  0.5572 -1.0132  0.8101
  534MOL0     C71970   4.825   4.275   2.399  0.0180 -0.0990  0.5595
  534MOL0     C71971   4.936   4.353   2.327 -1.0698 -0.9447 -0.0926
  534MOL0     N71972   5.027   4.428   2.425 -0.0008  0.6436  0.4506
  534MOL0     C71973   5.144   4.477   2.387 -1.7886  0.1982  0.2433
  534MOL0     C71974   5.204   4.518   2.505 -0.1710  0.1400 -0.0052
  534MOL0     C71975   5.340   4.595   2.512  0.9376  0.3505 -0.2374
  534MOL0     C71976   5.442   4.546   2.615  0.6327  0.4309  0.3381
  534MOL0     C71977   5.406   4.583   2.761 -0.3072  0.3144 -0.1897
  534MOL0     C71978   5.527   4.573   2.864  0.5510  0.2902  0.5542
  534MOL0     O71979   5.627   4.677   2.832 -0.1331  0.3578  0.0434
  534MOL0     C71980   5.747   4.683   2.904 -0.7331  0.3632  0.9024
  534MOL0     C71981   5.847   4.776   2.867  0.7300 -0.8808  0.1142
  534MOL0     C71982   5.974   4.781   2.930  0.4917 -0.9750  0.0267
  534MOL0     C71983   5.999   4.701   3.043 -0.4101  0.3348  0.0557
  534MOL0     C71984   6.131   4.704   3.111 -0.2877 -0.7885 -0.5535
  534MOL0     O71985   6.233   4.770   3.032 -0.4800  0.4804 -0.3510
  534MOL0     C71986   6.364   4.765   3.080  0.1716  0.3384 -0.3646
  534MOL0     C71987   6.428   4.885   3.080  0.0317 -0.6501 -0.6121
  534MOL0     C71988   6.566   4.885   3.104 -0.3665  0.2622  0.0599
  534MOL0     C71989   6.650   4.769   3.106 -0.1831  0.4489 -0.4264
  534MOL0     O71990   6.779   4.765   3.129 -1.1884  0.6427  0.3512
  534MOL0     C71991   6.854   4.879   3.186  0.7208  0.0449  0.0777
  534MOL0     C71992   6.801   4.893   3.327  0.1691 -0.3994  0.8149
  534MOL0     C71993   6.863   5.010   3.406  0.5478  1.2204  0.0967
  534MOL0     C71994   7.013   4.992   3.429  1.2780 -0.5848  0.2652
  534MOL0     C71995   7.065   5.113   3.514  1.2731 -0.5597  0.6940
  534MOL0     C71996   7.222   5.102   3.537  0.6184 -0.2311  0.1179
  534MOL0     C71997   7.308   5.101   3.406  0.2233 -0.2147  0.6155
  534MOL0     C71998   7.452   5.140   3.431  0.1533  0.4106  1.0635
  534MOL0    Cl71999   7.556   5.071   3.307 -0.2556 -0.0430 -0.3755
  534MOL0     C72000   6.573   4.651   3.102 -0.0757 -0.4692  1.1766
  534MOL0     C72001   6.431   4.647   3.081  0.6150  0.6468 -1.1623
  534MOL0     O72002   6.148   4.676   3.224  0.0806 -0.7320 -0.2904
  534MOL0     C72003   5.902   4.601   3.079 -0.6800 -0.0713 -0.0043
  534MOL0     C72004   5.777   4.599   3.012  0.7562 -0.3809 -0.7691
  534MOL0     N72005   5.109   4.511   2.603 -0.6206  0.3375  0.7842
  534MOL0     N72006   5.005   4.453   2.551 -0.0732  0.6372 -0.1324
  534MOL0     C72007   3.864   4.327   2.297  0.4283 -0.1461  0.5481
  534MOL0     C72008   3.728   4.326   2.268  0.0430  0.1343  0.2951
  534MOL0     C72009   3.273   4.302   2.268 -0.2908 -0.1680 -1.1447
  534MOL0     C72010   3.224   4.169   2.280 -0.5066  0.9732  0.3364
  534MOL0     C72011   3.093   4.140   2.281  1.7090  0.1411  0.8105
  534MOL0     C72012   3.004   4.246   2.266 -0.3434  0.1532  0.2489
  534MOL0     O72013   2.870   4.207   2.274 -0.7475  0.7057  0.6625
  534MOL0     C72014   2.761   4.297   2.296 -0.2876  0.6295  0.6849
  534MOL0     C72015   2.619   4.237   2.293  0.2962 -0.6578  0.8308
  534MOL0     C72016   2.510   4.346   2.327  0.4268  0.1156  0.2181
  534MOL0     C72017   2.528   4.413   2.464  0.1984 -0.6276 -0.0128
  534MOL0     C72018   2.410   4.497   2.491  0.2004  0.1751 -0.4382
  534MOL0     C72019   2.314   4.565   2.517 -0.6292  0.2460 -0.7204
  534MOL0     C72020   3.045   4.380   2.248  0.3082  0.8731  0.4242
  534MOL0     C72021   3.179   4.409   2.260  0.0927  0.1029 -0.2196
  534MOL0     C72022   3.223   4.551   2.233 -0.7302 -1.1509  0.4654
  534MOL0     H72023   3.639   4.009   2.316 -1.8658  0.6766 -1.8373
  534MOL0     H72024   3.892   3.998   2.335 -0.0306  0.3277  2.2081
  534MOL0     H72025   4.119   4.246   2.162  2.5661  1.4382  0.0548
  534MOL0     H72026   4.157   4.368   2.281  0.6775 -0.6395  0.7561
  534MOL0     H72027   4.285   4.097   2.274 -0.7546 -0.3590 -2.9006
  534MOL0     H72028   4.324   4.233   2.381  3.0198  0.7667 -0.7288
  534MOL0     H72029   4.377   4.380   2.196  0.7258 -0.6041 -0.8431
  534MOL0     H72030   4.347   4.261   2.077 -2.8921  0.5309  1.3999
  534MOL0     H72031   4.505   4.116   2.228 -0.8038  0.1918 -1.0538
  534MOL0     H72032   4.552   4.207   2.080  0.5712  0.2440  0.2510
  534MOL0     H72033   4.671   4.367   2.178 -0.8965 -1.2747 -0.9197
  534MOL0     H72034   4.574   4.369   2.323 -0.5407  0.7722  0.0380
  534MOL0     H72035   4.678   4.139   2.380  1.8874 -1.6766  1.1066
  534MOL0     H72036   4.768   4.151   2.223  0.3906  0.8792 -0.5707
  534MOL0     H72037   4.866   4.197   2.464  1.1461 -0.1311 -0.1725
  534MOL0     H72038   4.780   4.349   2.467  0.2368  2.0198 -1.4688
  534MOL0     H72039   4.995   4.281   2.270  0.9646  0.7176 -0.2421
  534MOL0     H72040   4.896   4.418   2.248 -2.1337  0.4261  1.4878
  534MOL0     H72041   5.180   4.489   2.285  1.2756  1.1970  1.3515
  534MOL0     H72042   5.384   4.574   2.414 -1.4378 -2.2996 -0.8757
  534MOL0     H72043   5.330   4.704   2.516  0.8392  0.3025  1.5698
  534MOL0     H72044   5.455   4.438   2.607  1.7549  0.5401  0.5624
  534MOL0     H72045   5.536   4.595   2.588  0.1713 -0.1383 -2.6098
  534MOL0     H72046   5.330   4.512   2.794 -0.6952 -0.5366 -2.7614
  534MOL0     H72047   5.371   4.686   2.773 -0.6728  0.1953 -0.2276
  534MOL0     H72048   5.575   4.475   2.855  2.4863  1.3646 -1.8776
  534MOL0     H72049   5.491   4.597   2.964 -2.4172  1.2966 -0.6369
  534MOL0     H72050   5.842   4.835   2.776  1.5451  1.4585  1.4976
  534MOL0     H72051   6.044   4.858   2.900 -0.0338 -0.1265  0.9006
  534MOL0     H72052   6.373   4.976   3.061  1.9196  1.1733  1.9998
  534MOL0     H72053   6.619   4.979   3.095 -0.3619  0.2510 -0.0307
  534MOL0     H72054   6.963   4.867   3.194  0.8729 -0.2581 -2.0332
  534MOL0     H72055   6.836   4.969   3.125 -1.4714 -0.0889  0.4483
  534MOL0     H72056   6.692   4.886   3.336 -0.0082  1.0504  0.0793
  534MOL0     H72057   6.825   4.797   3.375 -0.8130 -1.7518 -1.2444
  534MOL0     H72058   6.842   5.109   3.365  0.5362  1.2861  0.2584
  534MOL0     H72059   6.806   5.009   3.500  1.5051 -1.7251  0.7654
  534MOL0     H72060   7.068   4.998   3.335 -0.2287  1.3846 -0.5852
  534MOL0     H72061   7.029   4.898   3.482 -0.9429 -0.1277  1.9424
  534MOL0     H72062   7.006   5.121   3.606  0.2774  3.3090 -0.1145
  534MOL0     H72063   7.047   5.212   3.471  0.8249  0.2561  2.6314
  534MOL0     H72064   7.255   5.195   3.585  0.1111 -1.4721  3.0742
  534MOL0     H72065   7.255   5.017   3.597  0.4136  0.4284  1.1839
  534MOL0     H72066   7.269   5.175   3.334  1.5997  2.1921  2.1941
  534MOL0     H72067   7.307   5.001   3.361 -1.5207  0.2225 -0.4527
  534MOL0     H72068   7.465   5.248   3.443  1.5291  0.1913  1.8239
  534MOL0     H72069   7.477   5.100   3.530 -2.4964 -2.5772  0.7004
  534MOL0     H72070   6.629   4.558   3.102 -0.4790 -0.7255  0.3122
  534MOL0     H72071   6.372   4.556   3.075 -3.5599  3.2138 -2.4864
  534MOL0     H72072   5.920   4.537   3.164  0.8664  1.2155  0.6841
  534MOL0     H72073   5.699   4.530   3.043 -2.2281  2.2259 -1.9958
  534MOL0     H72074   3.916   4.422   2.289 -2.1022  1.3002  0.2426
  534MOL0     H72075   3.691   4.425   2.244 -1.0547  0.3415  2.6092
  534MOL0     H72076   3.298   4.091   2.299  0.9960  2.2355 -0.1141
  534MOL0     H72077   3.056   4.041   2.309 -0.5458  1.1395  1.6072
  534MOL0     H72078   2.772   4.370   2.216  3.4395 -1.2163 -0.7473
  534MOL0     H72079   2.773   4.354   2.389 -0.0861 -0.3337  1.2673
  534MOL0     H72080   2.612   4.166   2.376  0.4230  0.7083  2.0460
  534MOL0     H72081   2.597   4.195   2.194 -0.7840  1.0497  0.3026
  534MOL0     H72082   2.412   4.300   2.313 -0.4068  1.8989 -0.0349
  534MOL0     H72083   2.514   4.433   2.262  0.9765  2.3587  3.0654
  534MOL0     H72084   2.560   4.352   2.549  2.3839 -0.2231 -0.4916
  534MOL0     H72085   2.616   4.476   2.446 -1.2834  1.2638 -1.0147
  534MOL0     H72086   2.229   4.626   2.538 -0.0693  0.8893 -0.3126
  534MOL0     H72087   2.967   4.456   2.245  0.8836  1.5084  1.1897
  534MOL0     H72088   3.287   4.553   2.145 -1.8642 -1.4316 -0.3924
  534MOL0     H72089   3.135   4.616   2.223 -0.1430 -0.3850  0.1575
  534MOL0     H72090   3.275   4.582   2.324 -0.7213 -2.6328  0.9846
  535MOL0     O72091   5.992   6.921   0.428 -1.3536  0.6436 -0.2506
  535MOL0     C72092   6.024   7.029   0.476 -0.0366 -0.5313 -0.2884
  535MOL0     O72093   6.146   7.068   0.510 -0.4546 -0.2344 -0.3497
  535MOL0     C72094   6.257   6.995   0.530 -0.0216  0.3951 -0.8245
  535MOL0     C72095   6.340   7.012   0.642 -0.5152 -0.3684 -0.9216
  535MOL0     C72096   6.451   6.934   0.663  0.0042  0.0824 -0.0807
  535MOL0     C72097   6.500   6.845   0.565  0.7667  0.0180  0.2212
  535MOL0     O72098   6.619   6.774   0.578 -0.1940  0.4128  0.3057
  535MOL0     C72099   6.710   6.808   0.679  0.7296 -0.6300 -0.8018
  535MOL0     C72100   6.830   6.725   0.651 -0.0751  0.4002  0.5243
  535MOL0     C72101   6.943   6.749   0.745  0.4744 -0.0745 -0.1796
  535MOL0     C72102   7.062   6.653   0.714 -0.4297 -0.0415 -0.8708
  535MOL0     C72103   7.181   6.680   0.811  0.7423 -0.0303  0.4724
  535MOL0     C72104   7.278   6.556   0.801  0.5264 -0.0557 -0.1716
  535MOL0     C72105   7.306   6.496   0.662 -0.8800  0.6741  0.2703
  535MOL0     C72106   7.402   6.589   0.583 -0.5906  0.2863 -0.3010
  535MOL0     N72107   7.536   6.593   0.645 -0.2721  0.6300 -0.5301
  535MOL0     C72108   7.593   6.685   0.727 -0.6328 -0.0588 -0.0356
  535MOL0     C72109   7.712   6.638   0.765  0.2616 -0.8258  0.6963
  535MOL0     C72110   7.796   6.716   0.862  0.1245  0.4417  0.1661
  535MOL0     C72111   7.887   6.827   0.795 -0.3696 -0.2472  0.4603
  535MOL0     C72112   7.988   6.882   0.895  0.6235 -0.6600 -1.1015
  535MOL0     C72113   8.089   6.984   0.832  0.8276  0.0341 -0.1964
  535MOL0     O72114   8.146   6.920   0.715 -0.5007  0.3743 -0.0202
  535MOL0     C72115   8.273   6.953   0.673  0.1039 -0.0904  0.4002
  535MOL0     C72116   8.294   6.969   0.534  0.4751  0.2922 -0.3119
  535MOL0     C72117   8.424   7.002   0.492 -0.6287  0.3232  0.8592
  535MOL0     C72118   8.535   7.014   0.582  0.3389 -0.3534 -0.6399
  535MOL0     C72119   8.667   7.062   0.545  0.1855 -0.1167 -0.2943
  535MOL0     O72120   8.762   7.067   0.653  0.3750 -0.5215  0.0227
  535MOL0     C72121   8.885   7.136   0.654 -0.0426  0.1763  0.2353
  535MOL0     C72122   8.958   7.130   0.775 -0.4223 -0.2049  0.0188
  535MOL0     C72123   9.086   7.177   0.777 -0.5804 -0.5797 -0.4025
  535MOL0     C72124   9.146   7.244   0.674  0.3333 -0.2732  0.5635
  535MOL0     O72125   9.273   7.287   0.699 -0.6635 -0.0286  0.0115
  535MOL0     C72126   9.322   7.407   0.629 -0.1632  0.3628 -0.0581
  535MOL0     C72127   9.473   7.432   0.665  0.4496  0.9125 -0.2354
  535MOL0     C72128   9.516   7.557   0.594 -0.1922  0.4681  0.4561
  535MOL0     C72129   9.659   7.600   0.610  0.2166  0.2481 -0.2579
  535MOL0     C72130   9.732   7.558   0.734 -0.6895 -0.3680  0.3277
  535MOL0     C72131   9.864   7.634   0.746 -0.7891 -0.3078 -0.2528
  535MOL0     C72132   9.954   7.609   0.872 -1.0461 -0.2202  0.0448
  535MOL0     C72133   9.986   7.460   0.899  0.0235 -0.6069 -0.6546
  535MOL0    Cl72134  10.112   7.400   0.779 -0.5632 -0.1662 -0.3253
  535MOL0     C72135   9.068   7.264   0.560  0.5713 -0.3805 -0.2765
  535MOL0     C72136   8.943   7.212   0.550  0.8627 -0.1759  0.2624
  535MOL0     O72137   8.696   7.092   0.429 -1.1682 -0.1908  0.3732
  535MOL0     C72138   8.505   6.988   0.716 -0.4331  0.2415 -0.6805
  535MOL0     C72139   8.377   6.969   0.760  0.5553  0.1748 -0.2647
  535MOL0     N72140   7.735   6.518   0.703  1.0764  0.3428 -0.8553
  535MOL0     N72141   7.622   6.492   0.632 -0.1281 -0.7636  0.1407
  535MOL0     C72142   6.419   6.821   0.452  0.0352  0.3745  0.1430
  535MOL0     C72143   6.302   6.903   0.433 -0.1855 -0.8793  0.0224
  535MOL0     C72144   5.915   7.125   0.489  0.1947 -0.1917  0.5608
  535MOL0     C72145   5.811   7.125   0.393  1.0639  0.8292  0.0570
  535MOL0     C72146   5.713   7.224   0.394 -0.5498  0.0596 -0.1028
  535MOL0     C72147   5.714   7.325   0.486 -0.8383  0.1826 -0.2250
  535MOL0     O72148   5.613   7.415   0.487  0.0014 -0.3062  0.3798
  535MOL0     C72149   5.524   7.410   0.594 -0.2183  0.0076 -0.4916
  535MOL0     C72150   5.478   7.551   0.628  0.1765 -0.2260  0.0523
  535MOL0     C72151   5.389   7.537   0.748  0.8852 -0.3234 -0.5892
  535MOL0     C72152   5.241   7.511   0.712 -0.7018  0.2122 -0.2690
  535MOL0     C72153   5.191   7.418   0.807  0.4225  0.7952  0.0117
  535MOL0     C72154   5.145   7.337   0.884  0.8731  0.0975  1.0637
  535MOL0     C72155   5.819   7.326   0.575 -0.5500 -0.5544  0.1490
  535MOL0     C72156   5.912   7.225   0.584 -0.4869 -1.3088 -0.6111
  535MOL0     C72157   6.017   7.231   0.694  0.2504 -0.1983  0.4262
  535MOL0     H72158   6.325   7.094   0.712 -0.9390  0.3687 -1.8547
  535MOL0     H72159   6.505   6.947   0.756  0.6118 -2.0646 -0.0709
  535MOL0     H72160   6.728   6.916   0.681 -0.8660 -0.3438  0.6106
  535MOL0     H72161   6.667   6.772   0.773 -0.5469 -2.7316 -2.1086
  535MOL0     H72162   6.856   6.758   0.550 -0.5037 -2.7478 -0.7307
  535MOL0     H72163   6.810   6.618   0.647  3.1988 -0.3220  0.3984
  535MOL0     H72164   6.908   6.741   0.849  1.3656 -0.8392  0.0759
  535MOL0     H72165   6.965   6.855   0.731 -0.4054  0.1025 -0.2872
  535MOL0     H72166   7.023   6.552   0.730 -0.7843  0.4484  1.7773
  535MOL0     H72167   7.092   6.654   0.609 -0.3978  0.7300 -0.8586
  535MOL0     H72168   7.236   6.770   0.780 -0.6453  0.7906  0.3180
  535MOL0     H72169   7.150   6.697   0.914  0.3453 -0.0232  0.3533
  535MOL0     H72170   7.379   6.576   0.839  2.7188 -5.3283 -2.2751
  535MOL0     H72171   7.236   6.477   0.864 -0.5003  2.3465  2.3756
  535MOL0     H72172   7.225   6.483   0.589  1.7122 -1.1723 -2.5300
  535MOL0     H72173   7.344   6.395   0.681 -3.0326  0.0955  1.9297
  535MOL0     H72174   7.410   6.579   0.474 -0.7023  1.5188 -0.4419
  535MOL0     H72175   7.364   6.691   0.598  0.2629  0.2437  2.6755
  535MOL0     H72176   7.561   6.784   0.757 -1.6292 -0.6736  0.9883
  535MOL0     H72177   7.724   6.771   0.924  0.9291  2.9108 -0.9472
  535MOL0     H72178   7.854   6.650   0.926 -1.0948  0.6916  1.6001
  535MOL0     H72179   7.944   6.784   0.712 -1.0151 -2.9140  1.2711
  535MOL0     H72180   7.825   6.909   0.759  1.5962  0.2385 -2.1044
  535MOL0     H72181   8.047   6.799   0.936  2.6472  0.9237 -0.6886
  535MOL0     H72182   7.945   6.933   0.982  0.6321  1.5804 -2.3376
  535MOL0     H72183   8.169   7.013   0.901  1.3331  0.4585 -0.9459
  535MOL0     H72184   8.031   7.076   0.816 -1.0624 -1.1492 -0.4724
  535MOL0     H72185   8.209   6.942   0.471  0.1411 -2.6862  1.2123
  535MOL0     H72186   8.446   7.008   0.386  0.5647 -0.5301  1.0435
  535MOL0     H72187   8.925   7.060   0.851  2.0558 -0.9921  0.4533
  535MOL0     H72188   9.147   7.143   0.860 -2.1927 -3.0395 -0.1215
  535MOL0     H72189   9.320   7.397   0.520 -1.2602 -1.7784  0.0832
  535MOL0     H72190   9.260   7.488   0.669 -1.2831  0.4516 -1.8677
  535MOL0     H72191   9.482   7.439   0.773 -3.4351 -1.3479  0.4212
  535MOL0     H72192   9.530   7.341   0.641 -0.1087 -0.8909  4.3795
  535MOL0     H72193   9.498   7.556   0.486  1.7439 -0.9044  0.0885
  535MOL0     H72194   9.462   7.646   0.627 -0.2075  1.9891 -3.1501
  535MOL0     H72195   9.671   7.706   0.585 -2.5032  0.6827  0.0173
  535MOL0     H72196   9.716   7.548   0.532  1.5117 -2.3412  2.2162
  535MOL0     H72197   9.750   7.451   0.721  1.6895  0.1727 -1.4788
  535MOL0     H72198   9.688   7.581   0.832  1.9401  2.7323  0.9588
  535MOL0     H72199   9.924   7.616   0.656  1.3348  0.6735  0.8900
  535MOL0     H72200   9.847   7.741   0.756 -0.5643 -0.4189  1.5472
  535MOL0     H72201   9.909   7.645   0.965 -0.9544 -2.8889  1.2109
  535MOL0     H72202  10.046   7.666   0.859  0.2255 -1.7251  1.8841
  535MOL0     H72203  10.028   7.462   0.999  1.8536  3.5899 -1.3177
  535MOL0     H72204   9.905   7.386   0.897  0.2847 -0.8937 -1.0567
  535MOL0     H72205   9.110   7.324   0.480  1.3550 -1.7108 -0.8909
  535MOL0     H72206   8.884   7.232   0.461 -0.1619 -0.4046  0.8639
  535MOL0     H72207   8.580   6.984   0.795  0.5569  0.2519 -1.6014
  535MOL0     H72208   8.364   6.949   0.866  3.1930  1.7189  0.4368
  535MOL0     H72209   6.450   6.758   0.369  4.6175  1.9361  0.3708
  535MOL0     H72210   6.252   6.889   0.338  0.9134  0.0171 -0.7149
  535MOL0     H72211   5.796   7.049   0.317 -0.3915  1.9323 -0.8242
  535MOL0     H72212   5.627   7.217   0.329 -0.7970 -0.2239  0.2493
  535MOL0     H72213   5.567   7.353   0.676 -3.4493 -0.9476  0.6983
  535MOL0     H72214   5.442   7.346   0.560 -1.9070  2.0925 -0.5737
  535MOL0     H72215   5.427   7.592   0.541 -2.0788  0.4317  1.5703
  535MOL0     H72216   5.564   7.609   0.662  0.2195 -0.8069  0.9736
  535MOL0     H72217   5.393   7.634   0.798  2.2049 -1.3141  1.3325
  535MOL0     H72218   5.441   7.486   0.829  1.6211 -0.3444 -1.0593
  535MOL0     H72219   5.193   7.609   0.706  0.6439  0.7993 -4.7465
  535MOL0     H72220   5.245   7.456   0.617 -1.6264 -2.6660  1.2303
  535MOL0     H72221   5.096   7.276   0.957 -2.8506  2.9784  1.2698
  535MOL0     H72222   5.808   7.410   0.643 -2.6620  0.1250 -0.9530
  535MOL0     H72223   5.971   7.277   0.782  1.8985 -0.6181  1.5427
  535MOL0     H72224   6.057   7.137   0.732 -2.5893 -0.4320  3.2520
  535MOL0     H72225   6.099   7.298   0.667  0.0722  0.5847  1.7183
  536MOL0     O72226   9.777   8.535   3.647  0.0410 -0.1725 -0.2606
  536MOL0     C72227   9.849   8.554   3.748 -0.1305  0.3236  0.9270
  536MOL0     O72228   9.972   8.615   3.741 -0.4007  0.1750 -0.1259
  536MOL0     C72229  10.011   8.645   3.617 -1.1291 -0.0803 -0.1885
  536MOL0     C72230  10.073   8.545   3.535  0.1415 -0.4754  0.0480
  536MOL0     C72231  10.094   8.567   3.403 -0.8545  0.3354 -0.7796
  536MOL0     C72232  10.074   8.695   3.339 -0.2812 -0.3403  0.3193
  536MOL0     O72233  10.099   8.726   3.208  0.7742 -0.4825 -0.5951
  536MOL0     C72234  10.129   8.612   3.118 -0.2140 -0.4046 -0.1497
  536MOL0     C72235  10.016   8.506   3.100  0.3852 -0.2396  0.0326
  536MOL0     C72236   9.891   8.569   3.029 -1.3493  0.9539  0.4061
  536MOL0     C72237   9.762   8.494   3.071 -1.0540  0.5157 -0.2119
  536MOL0     C72238   9.646   8.552   3.001  0.3527  0.9368  0.2715
  536MOL0     C72239   9.520   8.469   3.007  0.0319 -0.2656  0.1278
  536MOL0     C72240   9.413   8.557   2.947 -0.3186 -0.3811 -0.4071
  536MOL0     C72241   9.329   8.467   2.868  0.1714  0.2959  0.3005
  536MOL0     N72242   9.199   8.523   2.839  0.1915 -0.0839 -1.3803
  536MOL0     C72243   9.071   8.467   2.816  0.0493  1.3253  0.0668
  536MOL0     C72244   9.001   8.550   2.749 -0.0135 -0.3256 -0.7709
  536MOL0     C72245   8.862   8.544   2.690 -0.0315  0.3927  0.2747
  536MOL0     C72246   8.750   8.582   2.783  0.3676  0.2408 -0.0741
  536MOL0     C72247   8.758   8.729   2.819 -1.4636  0.1045  0.5340
  536MOL0     C72248   8.632   8.789   2.873  0.5046  0.2139  0.0233
  536MOL0     O72249   8.527   8.776   2.778 -0.3724  0.2711  0.2280
  536MOL0     C72250   8.401   8.826   2.798  0.4050 -0.9859  0.4651
  536MOL0     C72251   8.302   8.801   2.702  0.1916  0.0301  0.8855
  536MOL0     C72252   8.172   8.850   2.722 -0.3036  0.0227 -0.0485
  536MOL0     C72253   8.144   8.925   2.838  0.3171  0.1060  0.1968
  536MOL0     C72254   8.006   8.956   2.859 -0.3794  0.1508 -0.7319
  536MOL0     O72255   7.916   8.955   2.761  0.5147  0.3947  0.3780
  536MOL0     C72256   7.783   8.981   2.779  0.5080 -0.3741 -0.1813
  536MOL0     C72257   7.711   9.040   2.674  0.3049  0.3705 -0.2303
  536MOL0     C72258   7.573   9.067   2.692 -0.9595  0.3001  0.3399
  536MOL0     C72259   7.505   9.043   2.809  0.4766 -0.4990  0.5917
  536MOL0     O72260   7.369   9.062   2.797  0.1428  0.5928 -0.5831
  536MOL0     C72261   7.300   9.006   2.909 -0.0202 -0.2085 -0.5641
  536MOL0     C72262   7.148   9.004   2.866 -0.0446  0.1292  0.3251
  536MOL0     C72263   7.054   8.947   2.968 -0.5471  0.9340 -0.3284
  536MOL0     C72264   6.907   8.980   2.928  0.1542 -0.2268 -0.0737
  536MOL0     C72265   6.810   8.889   3.009 -0.4514 -0.1492  0.3604
  536MOL0     C72266   6.671   8.910   2.972  0.1240 -0.4700 -0.2482
  536MOL0     C72267   6.597   9.029   3.038 -0.1797 -0.8136 -0.3857
  536MOL0     C72268   6.446   9.015   3.022 -0.0457 -0.7340  0.3765
  536MOL0    Cl72269   6.382   8.871   3.089  0.2047  0.0216  0.1423
  536MOL0     C72270   7.578   8.987   2.919 -0.1904 -0.2025  0.1293
  536MOL0     C72271   7.714   8.955   2.902  0.5219  0.1998 -0.4327
  536MOL0     O72272   7.988   8.985   2.974 -0.6518  0.1679  0.6225
  536MOL0     C72273   8.243   8.948   2.930 -0.2062  0.3232 -0.3435
  536MOL0     C72274   8.374   8.911   2.906 -0.5367  0.1629  0.1850
  536MOL0     N72275   9.076   8.670   2.746 -0.1693  0.7798 -0.2279
  536MOL0     N72276   9.193   8.651   2.799  0.3620 -0.0115 -0.5012
  536MOL0     C72277  10.020   8.796   3.423  0.2409  0.0801  0.4551
  536MOL0     C72278   9.989   8.769   3.554 -0.3507 -0.4664 -0.5363
  536MOL0     C72279   9.805   8.492   3.874 -0.2637  0.8469  0.3024
  536MOL0     C72280   9.892   8.482   3.987 -0.6182 -0.2618  0.7641
  536MOL0     C72281   9.857   8.437   4.107 -0.0489 -0.2560 -0.2416
  536MOL0     C72282   9.731   8.387   4.138  0.5059  0.2285 -0.6987
  536MOL0     O72283   9.692   8.352   4.269 -0.7050 -0.0668 -0.7354
  536MOL0     C72284   9.561   8.296   4.286 -0.5484  0.4851 -0.8329
  536MOL0     C72285   9.522   8.293   4.439  0.3725  0.4491 -0.3961
  536MOL0     C72286   9.483   8.441   4.477  0.3693 -0.0535 -0.8965
  536MOL0     C72287   9.607   8.526   4.513  0.2089 -0.9629 -0.3350
  536MOL0     C72288   9.549   8.636   4.589  0.8772 -0.2508  0.5437
  536MOL0     C72289   9.509   8.719   4.678 -0.4441  0.5650  0.5343
  536MOL0     C72290   9.638   8.395   4.028  0.7614  1.1442  0.0618
  536MOL0     C72291   9.672   8.450   3.893 -0.0182 -0.0281 -0.7297
  536MOL0     C72292   9.554   8.450   3.795  0.4549  0.2104  0.1516
  536MOL0     H72293  10.106   8.446   3.564  2.9089 -0.5035 -2.7475
  536MOL0     H72294  10.142   8.482   3.357  1.6395  1.1566  0.0965
  536MOL0     H72295  10.145   8.651   3.017  0.6077 -2.9490 -1.0854
  536MOL0     H72296  10.220   8.567   3.159 -1.4823  0.3026  3.9185
  536MOL0     H72297   9.974   8.463   3.191 -1.2988  0.4432 -0.3926
  536MOL0     H72298  10.052   8.429   3.030 -2.4048 -1.2568 -0.4018
  536MOL0     H72299   9.913   8.554   2.923  2.0109 -2.6698  1.3624
  536MOL0     H72300   9.880   8.677   3.043 -1.2041  0.9392  0.6392
  536MOL0     H72301   9.763   8.385   3.072  0.7381  0.5058  0.4128
  536MOL0     H72302   9.754   8.523   3.176 -1.4032  0.2863 -0.1747
  536MOL0     H72303   9.617   8.647   3.047 -0.8434  0.1695  1.1531
  536MOL0     H72304   9.678   8.582   2.901  2.3762 -0.4400  0.4392
  536MOL0     H72305   9.533   8.367   2.969 -2.8198 -0.7901  0.3554
  536MOL0     H72306   9.482   8.453   3.108 -1.1099  0.1275 -0.2159
  536MOL0     H72307   9.446   8.646   2.893 -2.3996  0.6883  0.0058
  536MOL0     H72308   9.351   8.593   3.030 -1.9344 -1.5288 -1.0591
  536MOL0     H72309   9.381   8.451   2.773 -1.8415 -0.3729 -0.7552
  536MOL0     H72310   9.321   8.376   2.929  0.9708 -0.2878 -0.4548
  536MOL0     H72311   9.044   8.366   2.846  1.0735  0.2781 -2.3277
  536MOL0     H72312   8.866   8.612   2.605  0.9783 -0.6453 -0.5334
  536MOL0     H72313   8.852   8.444   2.648  2.0037  1.1352 -2.2285
  536MOL0     H72314   8.664   8.561   2.718  1.7141 -0.5416 -1.6639
  536MOL0     H72315   8.760   8.514   2.868 -0.2811 -2.7602 -2.2367
  536MOL0     H72316   8.798   8.784   2.734  0.8194  0.8775  2.0301
  536MOL0     H72317   8.843   8.743   2.885  0.5286  1.6238 -2.1516
  536MOL0     H72318   8.645   8.894   2.900  0.9078  0.1208  0.2046
  536MOL0     H72319   8.613   8.737   2.968  0.7789 -1.5088 -0.8251
  536MOL0     H72320   8.323   8.743   2.613  0.6112  2.1617 -0.4640
  536MOL0     H72321   8.098   8.828   2.645 -0.1600  2.0773 -0.8151
  536MOL0     H72322   7.757   9.051   2.576  0.2839 -2.9373 -0.7140
  536MOL0     H72323   7.514   9.110   2.612  0.2608  0.7098 -0.3661
  536MOL0     H72324   7.331   8.901   2.904  0.1346 -0.1134 -2.0781
  536MOL0     H72325   7.323   9.056   3.004 -0.7185  2.2539 -1.6165
  536MOL0     H72326   7.123   9.110   2.853 -1.9802 -0.3241 -0.0026
  536MOL0     H72327   7.136   8.955   2.768 -1.3134  1.8144 -0.4115
  536MOL0     H72328   7.087   8.842   2.967  0.9037  1.2963  2.2575
  536MOL0     H72329   7.071   8.971   3.073 -1.0747 -1.5730  0.4187
  536MOL0     H72330   6.884   8.957   2.824  0.3309  1.3520 -0.4927
  536MOL0     H72331   6.895   9.088   2.939  2.5218  0.1531 -0.5179
  536MOL0     H72332   6.828   8.894   3.116  3.0048  2.0411 -0.2024
  536MOL0     H72333   6.840   8.786   2.987  0.9347 -0.0132  1.5110
  536MOL0     H72334   6.673   8.931   2.865  1.7140 -0.3670 -0.2205
  536MOL0     H72335   6.622   8.816   3.000 -1.6246  0.9586  1.8608
  536MOL0     H72336   6.629   9.122   2.990 -3.3307 -0.7262 -2.6401
  536MOL0     H72337   6.617   9.036   3.145  1.0310 -1.5887 -0.5323
  536MOL0     H72338   6.404   9.112   3.050  1.8227  0.3992 -0.5414
  536MOL0     H72339   6.431   9.013   2.913 -0.1926 -0.5561  0.3939
  536MOL0     H72340   7.540   8.964   3.018 -3.0025  0.3794 -0.7086
  536MOL0     H72341   7.762   8.914   2.990 -0.3196 -0.5589 -0.3104
  536MOL0     H72342   8.212   8.990   3.025  1.8514 -4.2658  2.7032
  536MOL0     H72343   8.444   8.938   2.985 -0.4810 -0.0280  0.2025
  536MOL0     H72344   9.998   8.895   3.386  1.1465  0.5249  1.0772
  536MOL0     H72345   9.939   8.850   3.607  0.0113  0.8411 -2.0846
  536MOL0     H72346   9.991   8.516   3.957 -1.1529 -0.2771 -1.1404
  536MOL0     H72347   9.922   8.440   4.195  1.1865 -1.6480 -1.0522
  536MOL0     H72348   9.550   8.196   4.242 -0.3778 -0.2599  0.7106
  536MOL0     H72349   9.490   8.356   4.230  0.0351  0.9083 -1.1190
  536MOL0     H72350   9.609   8.258   4.497  0.3103 -0.2658 -0.7336
  536MOL0     H72351   9.442   8.222   4.459  1.3864 -0.4653  0.5776
  536MOL0     H72352   9.410   8.441   4.559  3.1902  1.1992  1.8178
  536MOL0     H72353   9.435   8.481   4.387  1.9923  0.2645 -1.6550
  536MOL0     H72354   9.676   8.471   4.578  0.3586  0.0890  0.4175
  536MOL0     H72355   9.668   8.566   4.432 -2.1442 -1.1444 -2.3128
  536MOL0     H72356   9.462   8.782   4.750 -0.3329  2.0115 -0.6041
  536MOL0     H72357   9.539   8.354   4.042  1.7280 -1.4255 -0.0808
  536MOL0     H72358   9.459   8.428   3.843 -1.4921 -1.0890 -3.8450
  536MOL0     H72359   9.545   8.544   3.740 -0.0860 -0.7043 -1.3778
  536MOL0     H72360   9.579   8.360   3.738  2.0440 -2.3207  4.4169
  537MOL0     O72361   7.959   5.888   6.362  0.2525 -0.1105  0.1342
  537MOL0     C72362   7.950   5.779   6.301 -0.1758 -0.6364  0.3920
  537MOL0     O72363   8.044   5.731   6.207 -0.5672  0.1519 -0.0123
  537MOL0     C72364   8.174   5.774   6.191  0.3156  0.9047  1.1900
  537MOL0     C72365   8.231   5.887   6.247 -0.2713 -0.9487  0.2100
  537MOL0     C72366   8.360   5.920   6.213 -0.1940 -0.6629 -0.4007
  537MOL0     C72367   8.440   5.841   6.124  0.2824  0.2592  0.2136
  537MOL0     O72368   8.573   5.866   6.096 -0.3288 -0.3762 -0.2831
  537MOL0     C72369   8.634   5.978   6.170 -0.3749 -0.3970  0.9307
  537MOL0     C72370   8.618   6.110   6.088  0.2812 -0.9617 -0.3105
  537MOL0     C72371   8.662   6.243   6.165  0.2090  0.3104  0.2914
  537MOL0     C72372   8.799   6.300   6.139  0.0786 -0.4502 -0.1628
  537MOL0     C72373   8.824   6.446   6.185  0.7089  0.4908 -0.3455
  537MOL0     C72374   8.964   6.484   6.212  1.1072  0.0280  0.3796
  537MOL0     C72375   9.033   6.510   6.081  0.2753 -0.3796 -0.2142
  537MOL0     C72376   9.181   6.541   6.098 -0.4253 -0.8627  0.3473
  537MOL0     N72377   9.218   6.595   5.974 -0.5843  0.1660 -0.2142
  537MOL0     C72378   9.309   6.535   5.889 -0.5523  0.3411 -0.6220
  537MOL0     C72379   9.353   6.632   5.804  0.6419 -0.3868  0.2436
  537MOL0     C72380   9.449   6.623   5.686  0.4764 -0.0502  0.4821
  537MOL0     C72381   9.387   6.551   5.565  0.0676  0.5589  0.0879
  537MOL0     C72382   9.356   6.407   5.594  0.3468 -0.1437 -0.9308
  537MOL0     C72383   9.468   6.307   5.646  0.0405 -0.4308  0.6507
  537MOL0     O72384   9.572   6.304   5.538 -0.0137 -0.2582 -0.1059
  537MOL0     C72385   9.710   6.311   5.574 -0.4453 -0.7683  0.5677
  537MOL0     C72386   9.764   6.336   5.705  0.4266  0.5402 -0.6280
  537MOL0     C72387   9.902   6.335   5.736  0.6951  0.0840  0.7043
  537MOL0     C72388   9.983   6.292   5.628 -1.0548  0.5722 -0.3712
  537MOL0     C72389  10.127   6.269   5.659 -0.1017 -0.5881 -0.5338
  537MOL0     O72390  10.206   6.238   5.554 -0.0136 -0.3036  0.0320
  537MOL0     C72391  10.335   6.207   5.562 -0.7607  0.4447 -1.2362
  537MOL0     C72392  10.387   6.188   5.436 -0.0788  0.2840 -0.6048
  537MOL0     C72393  10.527   6.160   5.418  0.5663 -0.4691  0.4652
  537MOL0     C72394  10.609   6.159   5.520  0.4597 -1.4119  0.1780
  537MOL0     O72395  10.740   6.157   5.501  0.4555  0.1488 -0.2136
  537MOL0     C72396  10.835   6.125   5.606  0.1821 -0.4068  0.3962
  537MOL0     C72397  10.968   6.085   5.547 -0.1599 -0.5481  0.5237
  537MOL0     C72398  11.072   6.068   5.661  0.1664  0.8020  0.1407
  537MOL0     C72399  11.218   6.105   5.609 -0.0769  0.5806 -0.3901
  537MOL0     C72400  11.337   6.078   5.709 -0.4807  0.3966  0.1447
  537MOL0     C72401  11.448   6.145   5.643 -0.5376 -0.2805  0.5068
  537MOL0     C72402  11.566   6.156   5.738  0.4717  1.0140 -0.0948
  537MOL0     C72403  11.679   6.236   5.667  0.4195 -0.0717  0.8423
  537MOL0    Cl72404  11.831   6.205   5.735  0.4028  0.2935 -0.0939
  537MOL0     C72405  10.563   6.183   5.649  0.0906  0.1899  0.2902
  537MOL0     C72406  10.427   6.219   5.673 -0.4146 -0.3224 -0.0191
  537MOL0     O72407  10.160   6.271   5.783 -0.6333  0.3014  0.3448
  537MOL0     C72408   9.937   6.268   5.505  0.7550  0.0331  0.9441
  537MOL0     C72409   9.802   6.276   5.472 -0.1957  0.3046 -1.0468
  537MOL0     N72410   9.281   6.748   5.837  0.0415 -0.6701  0.2980
  537MOL0     N72411   9.200   6.726   5.934  0.2816  0.1678  0.0583
  537MOL0     C72412   8.379   5.728   6.057  0.1394 -0.7991  0.3691
  537MOL0     C72413   8.245   5.693   6.097 -0.6312  0.0526  0.7544
  537MOL0     C72414   7.820   5.702   6.305 -0.2468  0.5614 -0.0660
  537MOL0     C72415   7.697   5.773   6.315 -0.6649  0.3290 -0.2189
  537MOL0     C72416   7.576   5.704   6.326 -0.5434  0.0071  0.9392
  537MOL0     C72417   7.568   5.568   6.310 -0.7634  0.3886 -0.1291
  537MOL0     O72418   7.458   5.493   6.306 -0.1652  0.0201 -0.0471
  537MOL0     C72419   7.339   5.559   6.325  0.0529  0.1700  0.3583
  537MOL0     C72420   7.228   5.467   6.268  0.2037 -1.0750 -0.2750
  537MOL0     C72421   7.220   5.339   6.352  0.4031 -0.2824  0.4068
  537MOL0     C72422   7.122   5.246   6.290 -0.2611 -0.2534  0.0670
  537MOL0     C72423   7.105   5.119   6.358 -0.5533  0.8938 -0.4060
  537MOL0     C72424   7.072   5.018   6.412  0.0940  0.1114  0.7589
  537MOL0     C72425   7.685   5.498   6.305  0.2052 -0.1275  0.6500
  537MOL0     C72426   7.811   5.559   6.307  0.7130 -0.7679  0.1683
  537MOL0     C72427   7.933   5.471   6.303  0.5140 -0.2612 -0.1562
  537MOL0     H72428   8.180   5.957   6.312 -0.7136  0.2998 -1.4172
  537MOL0     H72429   8.391   6.015   6.256 -0.5201 -0.7073 -0.0707
  537MOL0     H72430   8.588   6.000   6.266 -1.4282  0.1672  0.3197
  537MOL0     H72431   8.739   5.953   6.185 -0.1709 -0.9164 -0.9915
  537MOL0     H72432   8.511   6.118   6.069  0.0934 -2.2145  0.1322
  537MOL0     H72433   8.666   6.110   5.989 -2.7145  2.2171 -1.9915
  537MOL0     H72434   8.658   6.230   6.274  0.5176  3.5731  0.7984
  537MOL0     H72435   8.597   6.329   6.149  0.3757  0.6617  1.3945
  537MOL0     H72436   8.857   6.231   6.202  1.3191  0.9473  0.3032
  537MOL0     H72437   8.834   6.282   6.037  0.4822  0.5247 -0.2051
  537MOL0     H72438   8.775   6.513   6.114 -2.7468 -0.3148  1.0333
  537MOL0     H72439   8.767   6.456   6.278  0.0001 -0.8614 -0.5993
  537MOL0     H72440   8.977   6.568   6.280  1.5219  0.6278 -0.4339
  537MOL0     H72441   9.012   6.394   6.252 -1.3676 -0.7434  1.8662
  537MOL0     H72442   8.988   6.601   6.040  3.1404  1.1973 -0.1210
  537MOL0     H72443   9.033   6.419   6.020  1.4516 -1.6271  1.5716
  537MOL0     H72444   9.190   6.620   6.174 -1.4252 -1.0041  0.6395
  537MOL0     H72445   9.246   6.458   6.127 -1.7527 -2.5565 -1.3064
  537MOL0     H72446   9.341   6.432   5.897  0.8458  0.8075  0.0574
  537MOL0     H72447   9.458   6.729   5.661  0.9523  1.2245  5.1684
  537MOL0     H72448   9.543   6.575   5.716 -0.1151 -0.8280  1.1433
  537MOL0     H72449   9.289   6.593   5.538  0.1696 -0.1326 -1.4144
  537MOL0     H72450   9.437   6.552   5.468 -3.0928 -0.1112 -1.6886
  537MOL0     H72451   9.307   6.369   5.504 -2.3908  1.5078 -0.2680
  537MOL0     H72452   9.281   6.401   5.673  1.4116  0.1468  0.1409
  537MOL0     H72453   9.423   6.208   5.651  2.4977 -1.5977  1.2752
  537MOL0     H72454   9.501   6.335   5.746  1.2574  1.6454 -0.2698
  537MOL0     H72455   9.702   6.348   5.793  1.2421 -1.6287  0.3190
  537MOL0     H72456   9.946   6.361   5.831 -0.2190  1.8176  0.6872
  537MOL0     H72457  10.322   6.199   5.349 -1.0204 -1.1717 -0.1127
  537MOL0     H72458  10.570   6.153   5.319  1.0221  2.8104  0.3055
  537MOL0     H72459  10.845   6.221   5.657 -1.5783  0.5934 -1.0009
  537MOL0     H72460  10.803   6.050   5.679  1.7740  0.0244  1.5801
  537MOL0     H72461  10.953   5.991   5.493 -0.8476  1.0675 -2.3073
  537MOL0     H72462  11.001   6.154   5.469  0.1929 -0.0167  1.1330
  537MOL0     H72463  11.050   6.142   5.738  0.5143  2.1533 -1.0137
  537MOL0     H72464  11.059   5.970   5.707 -0.2901  0.7568 -0.0773
  537MOL0     H72465  11.215   6.212   5.587  0.2334  0.8054  0.6495
  537MOL0     H72466  11.233   6.052   5.514 -3.4348  0.4956 -0.9824
  537MOL0     H72467  11.353   5.972   5.729  0.1093  0.2700 -0.9520
  537MOL0     H72468  11.316   6.126   5.805  3.5403  0.7298  1.0128
  537MOL0     H72469  11.462   6.080   5.556 -0.5382 -2.1089  1.8175
  537MOL0     H72470  11.434   6.248   5.608  1.2821 -0.4407 -0.8118
  537MOL0     H72471  11.606   6.055   5.750 -1.0685  0.0211 -2.5634
  537MOL0     H72472  11.536   6.205   5.830  1.4046  2.3768 -0.4914
  537MOL0     H72473  11.693   6.205   5.563  0.6986 -0.9978  1.1435
  537MOL0     H72474  11.651   6.342   5.662  2.6020  0.5040 -1.0254
  537MOL0     H72475  10.618   6.184   5.743  0.7289 -2.4641  0.0410
  537MOL0     H72476  10.400   6.234   5.777 -0.0223  2.4004 -0.2420
  537MOL0     H72477  10.005   6.238   5.426 -0.4997  0.9097 -0.5382
  537MOL0     H72478   9.775   6.253   5.369  0.2614 -0.8118 -0.9304
  537MOL0     H72479   8.434   5.657   5.997 -1.0892 -0.2913 -1.4469
  537MOL0     H72480   8.203   5.601   6.057 -2.4787  2.0582 -2.3902
  537MOL0     H72481   7.685   5.881   6.316  0.8941  0.5221 -0.1393
  537MOL0     H72482   7.489   5.765   6.344 -2.0019 -1.7014  0.0224
  537MOL0     H72483   7.335   5.653   6.269  1.4795  0.0177 -0.0150
  537MOL0     H72484   7.309   5.575   6.430 -2.6603 -0.8738 -0.1792
  537MOL0     H72485   7.254   5.448   6.163 -0.7887  0.7002 -0.9043
  537MOL0     H72486   7.139   5.530   6.266  1.8731  1.5284  1.3458
  537MOL0     H72487   7.181   5.364   6.451  2.3812 -0.0738  1.1843
  537MOL0     H72488   7.319   5.294   6.366  0.5233 -0.3267 -0.5458
  537MOL0     H72489   7.024   5.293   6.285  0.4816  1.1556 -2.8266
  537MOL0     H72490   7.160   5.232   6.189 -1.9157  1.9301 -0.9327
  537MOL0     H72491   7.044   4.927   6.461 -1.5267 -0.6006 -1.3247
  537MOL0     H72492   7.668   5.391   6.306  0.9070 -0.2360  1.5495
  537MOL0     H72493   7.987   5.463   6.208 -1.2080  1.2019 -1.3314
  537MOL0     H72494   7.998   5.509   6.383  0.4132  0.2999 -0.3372
  537MOL0     H72495   7.910   5.369   6.336  3.4194 -0.8232  0.4427
  538MOL0     O72496  10.311   2.637   7.161 -0.3467 -0.6190  0.0557
  538MOL0     C72497  10.384   2.561   7.098  0.4093 -0.2826 -0.0011
  538MOL0     O72498  10.414   2.437   7.132  0.0921  0.1283 -0.6586
  538MOL0     C72499  10.389   2.407   7.262 -0.1071 -0.2306 -0.4922
  538MOL0     C72500  10.491   2.420   7.360 -0.0156  0.3074 -0.0599
  538MOL0     C72501  10.466   2.383   7.494 -0.2894 -0.1610 -0.2626
  538MOL0     C72502  10.344   2.335   7.543  0.8733 -0.1042  1.0485
  538MOL0     O72503  10.336   2.291   7.670 -0.1627 -0.0264  0.2528
  538MOL0     C72504  10.210   2.317   7.735  0.4006 -0.0302  0.1603
  538MOL0     C72505  10.229   2.266   7.879  0.1988 -0.2695  0.0988
  538MOL0     C72506  10.328   2.340   7.966  1.1200  0.0455 -0.5480
  538MOL0     C72507  10.341   2.275   8.107  1.3190 -0.0406 -0.6865
  538MOL0     C72508  10.466   2.319   8.192  0.2104  0.5967 -0.6317
  538MOL0     C72509  10.448   2.267   8.334  1.1778 -0.1797 -0.0700
  538MOL0     C72510  10.559   2.296   8.430  0.5825 -0.7014  0.2804
  538MOL0     C72511  10.586   2.443   8.464 -0.9037  0.3274 -0.0520
  538MOL0     N72512  10.713   2.490   8.405  0.3890 -0.4098  0.5014
  538MOL0     C72513  10.761   2.464   8.278 -0.4558  0.5720 -0.2743
  538MOL0     C72514  10.885   2.512   8.276 -0.4016  0.4838  0.5059
  538MOL0     C72515  10.978   2.504   8.148  0.2939 -0.2549  0.4373
  538MOL0     C72516  11.120   2.518   8.195 -0.3215 -0.4978  0.1721
  538MOL0     C72517  11.207   2.515   8.071 -1.1749  0.1174  0.2194
  538MOL0     C72518  11.362   2.530   8.092  0.1617 -0.0539  0.6212
  538MOL0     O72519  11.374   2.661   8.136 -0.5109 -0.0229  0.4685
  538MOL0     C72520  11.501   2.705   8.143 -1.0144 -0.0248 -0.0882
  538MOL0     C72521  11.509   2.831   8.192 -0.6851 -0.1809 -0.5825
  538MOL0     C72522  11.631   2.896   8.202  0.0369 -0.5212 -0.4990
  538MOL0     C72523  11.749   2.832   8.164 -0.7203  0.1189  1.5090
  538MOL0     C72524  11.882   2.900   8.171 -0.7148 -0.2390 -0.2549
  538MOL0     O72525  11.991   2.824   8.164 -0.2652 -0.0926  0.2660
  538MOL0     C72526  12.121   2.873   8.156  0.6111  1.0821 -1.0988
  538MOL0     C72527  12.168   2.969   8.069  0.9798 -0.3883  0.6199
  538MOL0     C72528  12.303   3.015   8.060 -0.1201 -0.2017 -0.3126
  538MOL0     C72529  12.400   2.959   8.151  1.6053 -0.7094  0.2347
  538MOL0     O72530  12.521   3.019   8.136 -0.2864  0.6025  0.1311
  538MOL0     C72531  12.623   2.964   8.216  0.3411  0.6792 -0.7160
  538MOL0     C72532  12.760   3.032   8.190  0.2430  0.7846  0.0200
  538MOL0     C72533  12.869   2.935   8.169 -0.2528 -0.0007  0.2139
  538MOL0     C72534  12.997   2.999   8.140  0.0912  0.1379  0.0801
  538MOL0     C72535  13.115   2.898   8.153  0.0077 -0.8014 -0.1732
  538MOL0     C72536  13.245   2.972   8.157  0.2110  0.1251 -0.0412
  538MOL0     C72537  13.366   2.883   8.190  1.0113 -0.8240 -0.5211
  538MOL0     C72538  13.506   2.958   8.183  0.0957 -0.6913  0.1633
  538MOL0    Cl72539  13.524   3.102   8.290 -0.2190  0.0221 -0.1670
  538MOL0     C72540  12.350   2.860   8.249  0.1052 -0.5186  0.2797
  538MOL0     C72541  12.212   2.824   8.252  0.3773 -0.4178  0.3704
  538MOL0     O72542  11.889   3.024   8.186  0.1043  0.5002  0.3396
  538MOL0     C72543  11.741   2.701   8.118  0.1070  0.4364 -0.4005
  538MOL0     C72544  11.615   2.637   8.111  0.0014 -0.6239  0.2654
  538MOL0     N72545  10.910   2.582   8.388 -0.5366 -0.7191  0.3051
  538MOL0     N72546  10.801   2.569   8.466  0.0038  0.1390 -0.7129
  538MOL0     C72547  10.242   2.315   7.441  0.0829 -0.5099 -0.0640
  538MOL0     C72548  10.266   2.360   7.303 -0.2929  0.4921  0.1928
  538MOL0     C72549  10.455   2.616   6.983 -0.3242  0.0501 -0.7231
  538MOL0     C72550  10.586   2.655   7.012 -0.5197 -1.3251 -0.3107
  538MOL0     C72551  10.662   2.721   6.911 -0.2712  0.2745 -0.0792
  538MOL0     C72552  10.610   2.727   6.779 -0.4345  0.3398  0.7305
  538MOL0     O72553  10.687   2.769   6.672  0.9829 -0.4998  0.0685
  538MOL0     C72554  10.621   2.850   6.570 -0.7173 -0.7936 -0.2629
  538MOL0     C72555  10.685   2.992   6.559  0.3839  0.2627 -0.1058
  538MOL0     C72556  10.756   3.017   6.416  0.1308  0.5472  0.3159
  538MOL0     C72557  10.852   3.142   6.424  0.3091  0.0218 -0.4987
  538MOL0     C72558  10.931   3.161   6.302  0.4967 -0.8917  0.9545
  538MOL0     C72559  10.992   3.178   6.197  0.9714  0.3523  0.4706
  538MOL0     C72560  10.480   2.678   6.759 -0.5822  0.4420  0.5611
  538MOL0     C72561  10.400   2.629   6.860 -0.5049  0.3548  0.2684
  538MOL0     C72562  10.259   2.579   6.829  0.2736 -0.4886 -0.2950
  538MOL0     H72563  10.587   2.448   7.318 -1.9276  1.8398 -3.8368
  538MOL0     H72564  10.552   2.397   7.557 -0.0911 -1.0708 -0.3258
  538MOL0     H72565  10.188   2.425   7.738 -0.5770 -0.2298  0.7114
  538MOL0     H72566  10.125   2.264   7.691 -0.6035  1.8565 -0.2921
  538MOL0     H72567  10.265   2.163   7.870  0.5322 -0.2270  0.8139
  538MOL0     H72568  10.133   2.267   7.931  1.2914  2.9516  2.3932
  538MOL0     H72569  10.304   2.445   7.985  0.6259 -0.4806  2.1626
  538MOL0     H72570  10.421   2.342   7.908  0.5577  1.1621 -1.4593
  538MOL0     H72571  10.245   2.292   8.155  0.6039  1.9053 -2.6403
  538MOL0     H72572  10.354   2.166   8.101  0.3444 -0.3941  2.3137
  538MOL0     H72573  10.557   2.275   8.149 -0.0840 -1.1003  0.3824
  538MOL0     H72574  10.467   2.429   8.197 -0.9948  0.5779  1.2495
  538MOL0     H72575  10.359   2.316   8.376  0.5067 -0.5628 -0.9907
  538MOL0     H72576  10.436   2.158   8.327  1.7801 -0.3562  1.3685
  538MOL0     H72577  10.649   2.255   8.383 -0.4755 -0.1754 -2.4322
  538MOL0     H72578  10.538   2.246   8.525 -1.5697  1.6228  1.1437
  538MOL0     H72579  10.508   2.511   8.430 -0.1313  1.0834 -0.3456
  538MOL0     H72580  10.585   2.437   8.573  4.2461 -1.6483  0.1801
  538MOL0     H72581  10.696   2.415   8.205 -0.2299 -0.6777  0.3376
  538MOL0     H72582  10.963   2.402   8.110  0.5377 -0.6797  1.4447
  538MOL0     H72583  10.960   2.578   8.069 -1.4086 -0.7439  0.3221
  538MOL0     H72584  11.132   2.616   8.243  1.6874  0.2649 -1.7163
  538MOL0     H72585  11.160   2.445   8.266  3.7675  1.8772  0.6766
  538MOL0     H72586  11.173   2.593   8.001 -0.0231 -0.1896 -0.7271
  538MOL0     H72587  11.201   2.416   8.025  2.7653 -0.6882  1.0346
  538MOL0     H72588  11.408   2.506   7.996 -2.2455  1.8051 -1.1394
  538MOL0     H72589  11.387   2.455   8.169  0.9402  0.4393  0.8539
  538MOL0     H72590  11.416   2.883   8.209 -0.5065 -0.4715  1.6808
  538MOL0     H72591  11.623   3.003   8.217 -1.1963 -0.1693 -3.1305
  538MOL0     H72592  12.090   2.998   7.999  2.6575 -0.3368 -1.3088
  538MOL0     H72593  12.336   3.086   7.985 -1.9529  2.4214  1.2330
  538MOL0     H72594  12.602   2.973   8.323  0.5413 -1.8217 -0.4154
  538MOL0     H72595  12.627   2.856   8.200  2.1791  0.4579  0.8466
  538MOL0     H72596  12.756   3.109   8.112 -3.0599 -0.3635 -1.1237
  538MOL0     H72597  12.783   3.095   8.277 -0.8994  4.6326 -2.2093
  538MOL0     H72598  12.868   2.873   8.260 -1.0492 -1.1114 -0.5278
  538MOL0     H72599  12.856   2.868   8.084  1.4084 -0.4793  0.3044
  538MOL0     H72600  13.019   3.085   8.204 -0.9819 -0.1178  0.8201
  538MOL0     H72601  12.998   3.033   8.037  2.5990 -1.8021 -0.6422
  538MOL0     H72602  13.101   2.829   8.068 -0.8522 -1.0314  0.1399
  538MOL0     H72603  13.092   2.843   8.244 -3.7937 -0.6687 -0.8759
  538MOL0     H72604  13.272   3.027   8.067  1.3646  0.6737  0.6108
  538MOL0     H72605  13.236   3.043   8.240  1.5857 -0.7953  0.9516
  538MOL0     H72606  13.361   2.797   8.123 -0.0686 -0.3580 -1.0714
  538MOL0     H72607  13.351   2.849   8.292 -1.6556 -3.5031 -1.6800
  538MOL0     H72608  13.584   2.887   8.212  2.1025  1.3109 -0.0981
  538MOL0     H72609  13.537   2.986   8.082  1.6884  0.5552  0.9579
  538MOL0     H72610  12.416   2.796   8.307  1.5466 -0.7573 -1.5282
  538MOL0     H72611  12.177   2.740   8.312 -2.1330  0.6073  0.4750
  538MOL0     H72612  11.829   2.641   8.096  0.2527 -0.3783  2.0033
  538MOL0     H72613  11.609   2.532   8.083  1.4215 -1.2611  2.1284
  538MOL0     H72614  10.155   2.265   7.480  1.6727 -2.1971  1.4629
  538MOL0     H72615  10.190   2.340   7.229  0.3607 -0.5244 -0.2148
  538MOL0     H72616  10.619   2.652   7.116 -0.0545  0.2604 -0.3981
  538MOL0     H72617  10.763   2.760   6.916  0.1015 -0.7012  0.5093
  538MOL0     H72618  10.513   2.855   6.589 -0.8950 -1.2276 -1.1340
  538MOL0     H72619  10.640   2.801   6.474  0.1918  1.9327 -1.6034
  538MOL0     H72620  10.749   2.993   6.648 -0.6070 -0.4255  0.6406
  538MOL0     H72621  10.603   3.063   6.571 -0.9921 -1.1330 -0.9095
  538MOL0     H72622  10.666   3.025   6.355 -1.1658  1.4785  2.2547
  538MOL0     H72623  10.813   2.929   6.384 -2.9779 -0.7117 -2.2689
  538MOL0     H72624  10.789   3.230   6.441 -2.4307 -1.5233 -1.9191
  538MOL0     H72625  10.905   3.131   6.519 -1.9628 -0.1752  0.8178
  538MOL0     H72626  11.036   3.197   6.102  0.1877 -0.9738 -0.1847
  538MOL0     H72627  10.441   2.662   6.658 -0.4407 -1.7564  0.8157
  538MOL0     H72628  10.230   2.498   6.897 -0.6453 -0.5072 -0.7016
  538MOL0     H72629  10.193   2.666   6.836  0.0387 -0.6976  0.0956
  538MOL0     H72630  10.249   2.538   6.728 -0.0092  0.3914 -0.6324
  539MOL0     O72631   8.467   1.987   1.588 -0.3441 -0.2833 -0.3948
  539MOL0     C72632   8.354   2.015   1.564  0.6452 -0.5180 -0.0230
  539MOL0     O72633   8.310   2.102   1.470 -0.0783 -0.5047  0.6318
  539MOL0     C72634   8.407   2.147   1.386 -0.3367 -0.1660 -0.5314
  539MOL0     C72635   8.474   2.264   1.432 -0.8304  0.0613 -0.4291
  539MOL0     C72636   8.577   2.317   1.347 -0.2941  0.4852  0.8996
  539MOL0     C72637   8.599   2.268   1.216 -0.7229 -0.6472 -0.2841
  539MOL0     O72638   8.680   2.337   1.126 -0.4760  0.2777 -0.5178
  539MOL0     C72639   8.631   2.342   0.994  0.5838 -0.5574  0.4660
  539MOL0     C72640   8.734   2.406   0.910  0.5910 -0.2940  0.5082
  539MOL0     C72641   8.777   2.554   0.939 -0.2299  0.4987 -0.6273
  539MOL0     C72642   8.857   2.624   0.833  0.3607 -0.1329 -0.9067
  539MOL0     C72643   8.985   2.545   0.789  0.7214 -0.0816 -0.4031
  539MOL0     C72644   9.082   2.523   0.895 -0.9797  0.0519  0.1507
  539MOL0     C72645   9.141   2.386   0.889  0.9163 -0.0824  0.2133
  539MOL0     C72646   9.220   2.359   1.018  0.0717  0.1799 -0.3980
  539MOL0     N72647   9.318   2.456   1.076 -0.1561  0.0505  0.3502
  539MOL0     C72648   9.456   2.444   1.067 -0.0724  0.2438  0.1705
  539MOL0     C72649   9.503   2.547   1.142  0.1913  0.4198  1.4609
  539MOL0     C72650   9.650   2.599   1.155 -0.3561 -0.3893 -0.5274
  539MOL0     C72651   9.709   2.623   1.016 -0.0088 -0.2744  0.1293
  539MOL0     C72652   9.765   2.769   1.010  0.3245  0.4893 -0.9622
  539MOL0     C72653   9.888   2.785   0.918 -0.3793 -0.1178 -0.5237
  539MOL0     O72654  10.001   2.708   0.980 -0.2375  0.1392 -0.0646
  539MOL0     C72655  10.126   2.728   0.938 -0.5923  0.8006 -0.4447
  539MOL0     C72656  10.223   2.637   0.995  0.5063 -0.8116  0.6213
  539MOL0     C72657  10.349   2.644   0.945  0.4181  0.0081  1.1669
  539MOL0     C72658  10.394   2.747   0.861  0.5528  0.1818 -0.1130
  539MOL0     C72659  10.538   2.760   0.825 -1.2048  0.3163 -0.3024
  539MOL0     O72660  10.571   2.861   0.733 -0.5786 -0.6027 -0.0316
  539MOL0     C72661  10.708   2.882   0.720  0.1647  1.2417  0.1263
  539MOL0     C72662  10.788   2.797   0.638  0.0004  0.0510 -0.2369
  539MOL0     C72663  10.928   2.815   0.643 -0.5833  0.0882  0.5284
  539MOL0     C72664  10.986   2.906   0.733 -1.3902 -0.6825  0.8436
  539MOL0     O72665  11.119   2.928   0.748  0.5079  0.3638  0.2967
  539MOL0     C72666  11.220   2.841   0.680  1.3998 -0.3340 -0.5272
  539MOL0     C72667  11.355   2.915   0.692 -0.5539  0.4981 -0.2198
  539MOL0     C72668  11.383   3.026   0.586 -0.4783 -0.2332 -0.0071
  539MOL0     C72669  11.534   3.034   0.571 -0.4702  0.1220 -0.1056
  539MOL0     C72670  11.570   3.158   0.481  0.4090 -0.0561 -0.7600
  539MOL0     C72671  11.532   3.148   0.331  0.0760 -0.3120 -0.2884
  539MOL0     C72672  11.521   3.003   0.275 -0.1600 -1.0450  1.6713
  539MOL0     C72673  11.511   3.016   0.117 -0.2520 -0.7447  0.2443
  539MOL0    Cl72674  11.667   3.028   0.033  0.2943  0.0289 -0.4107
  539MOL0     C72675  10.904   2.986   0.819 -1.4248  1.1463  0.0911
  539MOL0     C72676  10.769   2.971   0.809 -0.1557 -0.0604 -1.1152
  539MOL0     O72677  10.624   2.692   0.886 -0.1105  0.2735  0.3827
  539MOL0     C72678  10.302   2.837   0.812  0.1188 -0.2329  0.4749
  539MOL0     C72679  10.168   2.822   0.840 -0.1202  0.0036  0.1698
  539MOL0     N72680   9.394   2.621   1.193  0.5939 -0.0288  0.0558
  539MOL0     N72681   9.288   2.556   1.165 -0.3225 -0.4610 -0.9534
  539MOL0     C72682   8.519   2.157   1.181 -0.4790 -0.2749  0.1056
  539MOL0     C72683   8.426   2.095   1.261  0.4423  0.0552 -1.1541
  539MOL0     C72684   8.243   1.961   1.642  0.2942  0.7039 -0.8149
  539MOL0     C72685   8.123   1.927   1.571  0.6274  0.8001 -0.9482
  539MOL0     C72686   8.015   1.883   1.643  0.0454 -0.8840 -0.0743
  539MOL0     C72687   8.014   1.862   1.785  0.9939 -0.1458 -0.2454
  539MOL0     O72688   7.895   1.834   1.854  0.4020  0.6479 -0.2572
  539MOL0     C72689   7.769   1.841   1.790  0.6410 -0.2083  0.5088
  539MOL0     C72690   7.709   1.983   1.775  0.9028 -0.6140  0.5268
  539MOL0     C72691   7.663   2.053   1.904 -0.2086 -0.2763  1.1519
  539MOL0     C72692   7.555   1.982   1.985 -0.9254 -1.1940 -0.0531
  539MOL0     C72693   7.559   2.030   2.122 -0.1053 -0.1348  0.8149
  539MOL0     C72694   7.570   2.069   2.234  0.3795  0.3937  0.5615
  539MOL0     C72695   8.133   1.880   1.855 -0.4654  0.5585  0.7306
  539MOL0     C72696   8.246   1.927   1.783  1.1414 -0.7239 -0.2829
  539MOL0     C72697   8.370   1.956   1.859  0.3116  0.3025  0.4219
  539MOL0     H72698   8.456   2.311   1.528  2.6534  1.5420 -0.3676
  539MOL0     H72699   8.627   2.407   1.383 -0.9509  0.7669  1.1231
  539MOL0     H72700   8.611   2.245   0.947  0.1893 -1.1090  1.7475
  539MOL0     H72701   8.539   2.400   0.984  0.8439 -0.3453 -0.8568
  539MOL0     H72702   8.694   2.399   0.809 -0.1051 -0.6083  0.7971
  539MOL0     H72703   8.817   2.334   0.912 -0.4132 -1.5287 -0.6540
  539MOL0     H72704   8.827   2.538   1.035  0.6157 -0.0920 -1.1522
  539MOL0     H72705   8.688   2.616   0.958  0.4379  0.9854  1.1375
  539MOL0     H72706   8.792   2.640   0.747 -1.1727  1.9622  0.5610
  539MOL0     H72707   8.884   2.727   0.861  2.1595  0.0312 -2.9903
  539MOL0     H72708   8.942   2.451   0.753 -3.5797  1.8008 -0.7100
  539MOL0     H72709   9.042   2.588   0.706  0.4475 -0.8049 -0.9828
  539MOL0     H72710   9.159   2.600   0.904 -1.9757  1.0659  0.2137
  539MOL0     H72711   9.042   2.528   0.997  1.4066 -0.8165  1.1960
  539MOL0     H72712   9.204   2.380   0.800 -3.5134 -2.8057 -3.1278
  539MOL0     H72713   9.067   2.308   0.870 -0.8146  1.0233  2.0465
  539MOL0     H72714   9.150   2.324   1.095  3.4488 -0.2366  2.7644
  539MOL0     H72715   9.267   2.265   0.988 -0.9075 -0.6151  0.4638
  539MOL0     H72716   9.513   2.384   0.997 -0.6598  1.4738 -1.4138
  539MOL0     H72717   9.645   2.682   1.226  2.7872  0.9400 -1.6919
  539MOL0     H72718   9.712   2.520   1.198  0.6107  0.9681  0.6759
  539MOL0     H72719   9.790   2.550   1.004 -0.2240 -0.7873  1.5969
  539MOL0     H72720   9.639   2.597   0.937 -0.7499 -0.5302  0.8581
  539MOL0     H72721   9.796   2.805   1.108  0.6791 -0.9643 -0.5238
  539MOL0     H72722   9.684   2.836   0.977 -3.7625 -2.2223  2.4789
  539MOL0     H72723   9.915   2.891   0.908  1.5167 -0.5261 -0.1767
  539MOL0     H72724   9.856   2.736   0.825  1.4408 -2.9597  0.2271
  539MOL0     H72725  10.199   2.564   1.071  1.0279 -3.6082 -1.6922
  539MOL0     H72726  10.419   2.572   0.985 -0.2834 -0.0359  2.3512
  539MOL0     H72727  10.743   2.725   0.570  1.1052 -0.4611 -0.4630
  539MOL0     H72728  10.996   2.759   0.580 -0.3781  2.2249 -1.2869
  539MOL0     H72729  11.223   2.744   0.730 -1.6328 -0.8276 -1.1234
  539MOL0     H72730  11.203   2.830   0.572  2.0162 -0.8624 -0.5765
  539MOL0     H72731  11.366   2.959   0.791 -2.4182 -0.5922  0.5289
  539MOL0     H72732  11.442   2.849   0.682 -2.7282 -2.2611 -4.2739
  539MOL0     H72733  11.330   3.001   0.494  1.1554 -0.3033 -0.9771
  539MOL0     H72734  11.343   3.118   0.629  0.6930  0.3521 -0.1469
  539MOL0     H72735  11.575   2.947   0.519  1.1168  0.8348 -0.1398
  539MOL0     H72736  11.584   3.035   0.668  0.2336  0.7735 -0.4606
  539MOL0     H72737  11.674   3.183   0.501  0.1647  0.4784 -0.1265
  539MOL0     H72738  11.519   3.249   0.513 -0.4488 -1.5019  2.3596
  539MOL0     H72739  11.431   3.191   0.335 -1.5090 -3.7174  0.1634
  539MOL0     H72740  11.596   3.216   0.275  0.2473  0.6422  0.9956
  539MOL0     H72741  11.427   2.952   0.297 -0.8799  0.2429  1.7046
  539MOL0     H72742  11.601   2.937   0.309 -0.6030 -2.3775  0.2599
  539MOL0     H72743  11.466   2.926   0.075 -2.0543  0.6595 -1.0048
  539MOL0     H72744  11.444   3.096   0.083  2.7945  0.9887 -2.2071
  539MOL0     H72745  10.949   3.049   0.895 -0.6648  0.8736 -0.1299
  539MOL0     H72746  10.709   3.026   0.881 -0.1293 -1.9606  0.4625
  539MOL0     H72747  10.338   2.910   0.740  1.3633 -2.1532 -0.9721
  539MOL0     H72748  10.102   2.895   0.795 -1.4427 -0.5217  1.2060
  539MOL0     H72749   8.529   2.112   1.083  0.9199  0.2326  0.0005
  539MOL0     H72750   8.355   2.022   1.224 -0.3806  1.2242 -1.9585
  539MOL0     H72751   8.120   1.935   1.463  0.1616  1.3466 -0.8977
  539MOL0     H72752   7.923   1.876   1.585 -0.0769  0.5826 -0.0978
  539MOL0     H72753   7.709   1.784   1.861 -0.0986  1.1296  0.9948
  539MOL0     H72754   7.767   1.797   1.690 -1.4487  1.1965 -0.1453
  539MOL0     H72755   7.617   1.962   1.718 -0.3625 -1.9753  2.8963
  539MOL0     H72756   7.788   2.042   1.729  1.0257 -1.4458 -0.3558
  539MOL0     H72757   7.637   2.153   1.869  1.7816  0.0003  0.3061
  539MOL0     H72758   7.753   2.071   1.965  0.3225  0.9035  0.0768
  539MOL0     H72759   7.454   1.992   1.945 -1.1772 -1.0030  0.6244
  539MOL0     H72760   7.590   1.879   1.997 -2.0105 -1.5146  0.5145
  539MOL0     H72761   7.573   2.098   2.337 -3.3040 -0.1421  0.9476
  539MOL0     H72762   8.129   1.864   1.962 -1.9699  1.6240  0.8709
  539MOL0     H72763   8.359   1.932   1.965  1.4378  0.2123  0.5363
  539MOL0     H72764   8.453   1.898   1.817 -0.7190 -1.7038  1.0797
  539MOL0     H72765   8.393   2.063   1.851  1.9004  0.1071  1.9013
  540MOL0     O72766   3.742   0.535   9.309 -0.5441 -0.3717 -0.6532
  540MOL0     C72767   3.683   0.497   9.209 -0.1466 -1.3268  0.4790
  540MOL0     O72768   3.733   0.421   9.109 -0.4600 -0.6488 -0.6320
  540MOL0     C72769   3.848   0.350   9.135 -0.4602  0.4103  0.1042
  540MOL0     C72770   3.939   0.331   9.026  0.8731  0.4522 -0.3189
  540MOL0     C72771   4.051   0.251   9.041 -0.9022  0.2409  0.0694
  540MOL0     C72772   4.087   0.204   9.164  0.2900  0.1211 -0.5564
  540MOL0     O72773   4.204   0.133   9.172  0.4008 -0.4518 -0.2964
  540MOL0     C72774   4.293   0.183   9.268 -0.7053 -1.4269  0.0270
  540MOL0     C72775   4.341   0.326   9.227  0.2503 -0.6435 -0.3837
  540MOL0     C72776   4.407   0.346   9.086  0.2595 -0.7700  0.6557
  540MOL0     C72777   4.558   0.298   9.092 -0.5026  0.4003  0.7469
  540MOL0     C72778   4.622   0.316   8.952  0.7119  0.2463  0.0547
  540MOL0     C72779   4.762   0.256   8.936  0.2351  0.5805 -0.5585
  540MOL0     C72780   4.797   0.291   8.785  0.1082 -0.1633 -0.7730
  540MOL0     C72781   4.922   0.209   8.744  0.2603  0.1562 -0.4188
  540MOL0     N72782   5.044   0.239   8.816  0.2141  0.0090  0.6087
  540MOL0     C72783   5.105   0.361   8.811 -0.6846 -0.1756 -0.1206
  540MOL0     C72784   5.222   0.342   8.874 -0.0120  0.2872  0.9363
  540MOL0     C72785   5.326   0.446   8.898 -0.8121 -0.6877 -0.5062
  540MOL0     C72786   5.306   0.546   9.013  0.1343 -0.3279 -0.7408
  540MOL0     C72787   5.400   0.666   9.022  0.2412  0.2200 -0.7382
  540MOL0     C72788   5.545   0.629   9.045  0.2854  0.4935 -0.0062
  540MOL0     O72789   5.593   0.593   8.909 -0.0806 -0.1681  0.4508
  540MOL0     C72790   5.730   0.597   8.879 -0.0638 -0.1540  0.3900
  540MOL0     C72791   5.768   0.523   8.762 -0.7621  0.9511 -0.5196
  540MOL0     C72792   5.901   0.537   8.724  0.5251 -0.4945  0.0993
  540MOL0     C72793   5.989   0.626   8.790 -0.8488  0.2087  0.0413
  540MOL0     C72794   6.127   0.636   8.751  0.4934  0.1669 -0.1809
  540MOL0     O72795   6.202   0.714   8.831 -0.3106 -0.7290 -0.4251
  540MOL0     C72796   6.340   0.728   8.817  1.3144 -0.0230  0.1205
  540MOL0     C72797   6.389   0.849   8.858  1.4004 -0.0901 -0.1498
  540MOL0     C72798   6.525   0.867   8.854  0.1789  0.4396 -0.1670
  540MOL0     C72799   6.607   0.761   8.822 -0.0296 -0.3077 -0.0789
  540MOL0     O72800   6.739   0.789   8.844 -0.1471  0.0152  0.5556
  540MOL0     C72801   6.833   0.716   8.759  0.5881  0.4700 -0.3012
  540MOL0     C72802   6.946   0.816   8.724  0.5617  0.1275  0.1882
  540MOL0     C72803   7.035   0.772   8.611 -0.5336 -0.1253 -0.0986
  540MOL0     C72804   7.126   0.880   8.552  0.6075  0.4360 -0.2175
  540MOL0     C72805   7.243   0.826   8.464 -0.3064 -0.0934  0.0072
  540MOL0     C72806   7.330   0.754   8.561  0.1713  0.4667 -0.8808
  540MOL0     C72807   7.472   0.756   8.512 -0.1965  0.3498  0.5041
  540MOL0     C72808   7.566   0.688   8.602 -0.6014  0.4525  0.4331
  540MOL0    Cl72809   7.727   0.741   8.547  0.6359  0.5108  0.0062
  540MOL0     C72810   6.552   0.635   8.779 -0.2915  0.0040  0.2550
  540MOL0     C72811   6.415   0.616   8.769  0.3106  0.6691  0.4417
  540MOL0     O72812   6.161   0.584   8.648 -0.4176  0.9574  0.4403
  540MOL0     C72813   5.940   0.697   8.902  0.2967 -0.0508  0.0801
  540MOL0     C72814   5.815   0.682   8.951  0.1061  0.3178  0.2763
  540MOL0     N72815   5.228   0.209   8.902  0.7378 -0.3544  0.0309
  540MOL0     N72816   5.115   0.147   8.874  0.1702 -0.2037  0.6084
  540MOL0     C72817   4.005   0.220   9.270 -0.3147  0.0507 -0.5590
  540MOL0     C72818   3.893   0.297   9.261  0.4680  1.0709  0.1319
  540MOL0     C72819   3.548   0.550   9.182 -0.1543 -0.7031 -0.3280
  540MOL0     C72820   3.473   0.507   9.073  0.0525  0.2007  0.1736
  540MOL0     C72821   3.342   0.541   9.046 -0.2606 -0.1850 -0.2633
  540MOL0     C72822   3.282   0.627   9.129  0.0482  0.0460 -0.1037
  540MOL0     O72823   3.146   0.657   9.098 -0.2892 -0.2758 -0.1185
  540MOL0     C72824   3.054   0.705   9.191 -0.1224 -0.2341  0.6526
  540MOL0     C72825   2.919   0.723   9.123  0.0001  0.4171  0.4246
  540MOL0     C72826   2.859   0.591   9.080  0.3148 -0.2803  0.0618
  540MOL0     C72827   2.861   0.574   8.932 -0.4507 -0.1403  0.2414
  540MOL0     C72828   2.757   0.654   8.865 -0.1416 -0.8281 -0.3025
  540MOL0     C72829   2.662   0.714   8.819 -0.5712 -0.3238  0.3719
  540MOL0     C72830   3.348   0.673   9.245  0.1640  0.1464  0.1312
  540MOL0     C72831   3.476   0.633   9.276 -0.8782 -0.4873  0.4497
  540MOL0     C72832   3.535   0.680   9.412  0.7843 -0.2968  1.0518
  540MOL0     H72833   3.912   0.372   8.929  1.3797 -0.2075 -0.7492
  540MOL0     H72834   4.104   0.222   8.952  0.5763 -0.4798  1.1428
  540MOL0     H72835   4.256   0.189   9.370  2.0578  0.4952  1.0441
  540MOL0     H72836   4.383   0.122   9.271 -0.1975 -0.8425 -1.8257
  540MOL0     H72837   4.411   0.360   9.304 -0.5270 -2.0968  1.0343
  540MOL0     H72838   4.259   0.398   9.234 -0.0671 -1.1288  1.4555
  540MOL0     H72839   4.410   0.450   9.053 -1.2088 -1.4942 -2.0609
  540MOL0     H72840   4.343   0.285   9.021 -0.6725 -0.5076  1.3012
  540MOL0     H72841   4.615   0.359   9.163  0.0084  1.9173 -0.8825
  540MOL0     H72842   4.568   0.194   9.123  1.6631  0.5881  0.7870
  540MOL0     H72843   4.562   0.265   8.877  3.4294 -1.7245 -0.9664
  540MOL0     H72844   4.625   0.423   8.929  0.7419  1.2795  4.1592
  540MOL0     H72845   4.828   0.300   9.012 -1.4291  0.9956  0.7056
  540MOL0     H72846   4.759   0.149   8.955 -1.7069  0.7932  0.5766
  540MOL0     H72847   4.816   0.397   8.769  0.0385  0.0639  0.5577
  540MOL0     H72848   4.709   0.265   8.725 -2.6648  0.6736  2.5743
  540MOL0     H72849   4.903   0.106   8.774  1.1327  0.6400  1.9873
  540MOL0     H72850   4.940   0.216   8.636 -0.2031 -0.3868 -0.5321
  540MOL0     H72851   5.080   0.454   8.761 -1.7621 -0.6790 -0.5333
  540MOL0     H72852   5.419   0.392   8.915 -0.5075 -0.7340 -2.1150
  540MOL0     H72853   5.343   0.510   8.810 -0.8612  0.9413  0.6177
  540MOL0     H72854   5.201   0.575   9.004  0.9454  2.3364 -3.1224
  540MOL0     H72855   5.318   0.506   9.114  2.5505 -1.8527 -1.5463
  540MOL0     H72856   5.358   0.738   9.092  0.2741  1.2498 -1.7541
  540MOL0     H72857   5.387   0.713   8.924 -2.2672  1.2850  0.0187
  540MOL0     H72858   5.552   0.549   9.119 -0.5984 -1.7262 -2.1607
  540MOL0     H72859   5.584   0.715   9.100 -5.4650  2.3536  2.0020
  540MOL0     H72860   5.698   0.451   8.719  0.8238  1.3050 -4.0699
  540MOL0     H72861   5.939   0.476   8.643  0.2123  0.3520 -0.7030
  540MOL0     H72862   6.329   0.928   8.903  1.2468 -1.7361  2.8465
  540MOL0     H72863   6.574   0.960   8.881 -1.6455  0.7194  2.5987
  540MOL0     H72864   6.859   0.617   8.797  0.1954  0.4685 -0.0304
  540MOL0     H72865   6.771   0.706   8.669 -1.0846 -1.0724  0.9429
  540MOL0     H72866   6.902   0.910   8.691  0.3843 -0.3440 -0.9565
  540MOL0     H72867   7.003   0.834   8.816  1.1099 -1.2208  0.1293
  540MOL0     H72868   7.100   0.699   8.661 -0.0408 -0.4680 -1.1993
  540MOL0     H72869   6.985   0.729   8.524  0.3776 -0.4873 -0.4600
  540MOL0     H72870   7.154   0.951   8.630  1.2626 -1.1914  1.0909
  540MOL0     H72871   7.071   0.937   8.477  0.1058  1.2087  0.7200
  540MOL0     H72872   7.299   0.913   8.431  1.2371 -0.5880  1.2177
  540MOL0     H72873   7.212   0.757   8.385  1.9007 -0.1137 -0.9049
  540MOL0     H72874   7.318   0.804   8.657 -0.0574  0.6527 -1.0068
  540MOL0     H72875   7.301   0.650   8.578  1.4326  0.0658 -1.0326
  540MOL0     H72876   7.502   0.859   8.490  2.0507 -0.7278 -2.0838
  540MOL0     H72877   7.476   0.705   8.416  1.1828 -1.8194  1.6371
  540MOL0     H72878   7.550   0.711   8.708 -1.6538  0.5660  0.2589
  540MOL0     H72879   7.558   0.580   8.585 -0.7906  0.6083 -0.4953
  540MOL0     H72880   6.610   0.550   8.744 -0.1725  0.1380  0.1262
  540MOL0     H72881   6.366   0.521   8.748 -2.2713  1.9280  0.4060
  540MOL0     H72882   6.009   0.765   8.951  1.1694 -1.7320  1.2942
  540MOL0     H72883   5.782   0.764   9.014 -1.8976  0.3712 -0.7276
  540MOL0     H72884   4.034   0.189   9.369  0.0560 -0.5430 -0.8455
  540MOL0     H72885   3.835   0.315   9.351 -3.2510 -1.7589 -1.4228
  540MOL0     H72886   3.512   0.441   8.996 -2.2376 -3.0484  1.5752
  540MOL0     H72887   3.285   0.510   8.959  1.3945 -0.0571 -1.4359
  540MOL0     H72888   3.086   0.802   9.230 -1.8775  0.3880  0.6320
  540MOL0     H72889   3.051   0.642   9.280  2.0754 -0.2129  0.7996
  540MOL0     H72890   2.939   0.785   9.036 -0.0796 -2.4220 -1.7737
  540MOL0     H72891   2.856   0.777   9.195  1.7348 -0.5232  2.7765
  540MOL0     H72892   2.754   0.588   9.110  0.2814 -1.9719 -0.1203
  540MOL0     H72893   2.917   0.508   9.121  0.4090  0.7504  2.1880
  540MOL0     H72894   2.949   0.608   8.876 -0.3938 -1.1549 -0.3222
  540MOL0     H72895   2.840   0.473   8.895 -2.0199 -0.5438  2.0963
  540MOL0     H72896   2.572   0.761   8.785 -0.1641  0.8663  0.9237
  540MOL0     H72897   3.295   0.735   9.317  0.0860 -2.3815  2.4064
  540MOL0     H72898   3.552   0.582   9.459  0.5329 -0.6283  0.4608
  540MOL0     H72899   3.632   0.729   9.423  0.3504  0.6925  0.5641
  540MOL0     H72900   3.466   0.741   9.471 -0.0688  2.8862 -2.8706
  541MOL0     O72901   7.714   9.384   0.360 -0.0647  0.2980  0.3040
  541MOL0     C72902   7.760   9.471   0.284  0.4867  0.8831  0.0386
  541MOL0     O72903   7.702   9.529   0.195  0.2125 -0.6581  0.5089
  541MOL0     C72904   7.565   9.513   0.175  0.5976 -0.2842  0.6237
  541MOL0     C72905   7.486   9.625   0.207 -0.3091 -0.3392  0.2112
  541MOL0     C72906   7.347   9.607   0.217  0.4901 -0.8639 -0.1048
  541MOL0     C72907   7.287   9.485   0.186 -0.7499 -0.6742 -0.9892
  541MOL0     O72908   7.155   9.461   0.221  0.2086  0.1223  0.2356
  541MOL0     C72909   7.061   9.565   0.189 -0.7567  0.1711  0.2590
  541MOL0     C72910   6.927   9.521   0.151 -0.0466  0.1344 -0.6979
  541MOL0     C72911   6.870   9.425   0.259  0.2535  0.1725 -0.0012
  541MOL0     C72912   6.722   9.392   0.244 -0.2278 -0.7959  0.6340
  541MOL0     C72913   6.680   9.311   0.366  0.7169  0.8710  0.4243
  541MOL0     C72914   6.740   9.163   0.358  0.5862  0.3580  0.2529
  541MOL0     C72915   6.835   9.123   0.473  0.2607  0.0468  0.4394
  541MOL0     C72916   6.770   9.046   0.594  0.2948  0.6856 -0.8188
  541MOL0     N72917   6.863   9.056   0.707 -0.4948  0.0987 -0.9116
  541MOL0     C72918   6.973   8.983   0.739  0.1364  0.4363 -0.2346
  541MOL0     C72919   7.031   9.047   0.842 -0.2326  0.4695 -0.4053
  541MOL0     C72920   7.163   9.008   0.903 -0.2100 -0.0857 -0.4454
  541MOL0     C72921   7.276   9.030   0.809 -0.7822  0.4972  0.1546
  541MOL0     C72922   7.408   8.976   0.871 -0.7657 -0.0521  0.0608
  541MOL0     C72923   7.521   9.022   0.788  0.3747  0.5238  0.6706
  541MOL0     O72924   7.640   8.956   0.840 -0.4813  0.0506  0.9368
  541MOL0     C72925   7.761   8.984   0.783  0.6853  0.2348 -0.3605
  541MOL0     C72926   7.869   8.908   0.831 -0.2253  0.1015  0.5964
  541MOL0     C72927   8.003   8.953   0.808  0.4361  0.0060 -1.7396
  541MOL0     C72928   8.029   9.062   0.719  0.6667 -0.2162  0.4963
  541MOL0     C72929   8.166   9.104   0.678 -0.0564  0.2133 -0.3153
  541MOL0     O72930   8.266   9.034   0.729 -0.3220  0.1715  0.9942
  541MOL0     C72931   8.390   9.058   0.663  0.0409  0.5437 -1.9008
  541MOL0     C72932   8.404   9.053   0.522  0.3374  0.4708 -0.1801
  541MOL0     C72933   8.520   9.077   0.443  0.2363  0.0647  0.0747
  541MOL0     C72934   8.633   9.114   0.516  0.2195  0.5535 -0.2566
  541MOL0     O72935   8.753   9.143   0.449  0.1307  0.5138 -0.3407
  541MOL0     C72936   8.784   9.063   0.335 -0.3830  0.0232  0.8020
  541MOL0     C72937   8.919   9.112   0.293 -0.2669  0.0747  0.1674
  541MOL0     C72938   8.981   9.014   0.178 -0.0314  0.0458  0.7567
  541MOL0     C72939   9.119   9.061   0.126  0.1917 -0.6849  0.1464
  541MOL0     C72940   9.189   8.951   0.047  0.4477  1.2729  0.2673
  541MOL0     C72941   9.289   9.005  -0.051  0.2474  0.0731  1.2341
  541MOL0     C72942   9.411   9.066   0.018 -0.2623 -0.4007 -0.0786
  541MOL0     C72943   9.490   9.155  -0.078 -0.5033  0.4702  0.4222
  541MOL0    Cl72944   9.573   9.051  -0.204 -0.2205  0.0344  0.0502
  541MOL0     C72945   8.622   9.126   0.662  0.6970  0.2616  0.4892
  541MOL0     C72946   8.504   9.093   0.735 -0.7650  0.1145 -0.1456
  541MOL0     O72947   8.164   9.199   0.598 -0.3505  0.3142 -0.3366
  541MOL0     C72948   7.917   9.132   0.671 -0.3684 -0.2576  0.2859
  541MOL0     C72949   7.786   9.103   0.707 -1.0420  0.5335 -0.7175
  541MOL0     N72950   6.944   9.148   0.879  0.2863 -0.2527  0.2886
  541MOL0     N72951   6.839   9.153   0.799 -0.3954  0.1908 -0.2600
  541MOL0     C72952   7.374   9.376   0.156  0.4176  0.6112  0.7971
  541MOL0     C72953   7.512   9.397   0.149 -0.6348 -0.1098  0.6292
  541MOL0     C72954   7.902   9.502   0.309  0.0878  0.1275  0.0158
  541MOL0     C72955   7.944   9.627   0.369  0.6178 -0.0470  0.0777
  541MOL0     C72956   8.080   9.643   0.404  0.3637  0.3362 -0.8257
  541MOL0     C72957   8.173   9.540   0.378 -0.2493  0.2759  0.4650
  541MOL0     O72958   8.301   9.568   0.418 -0.2872 -0.1195  0.0601
  541MOL0     C72959   8.333   9.508   0.549  0.4538  0.4111  0.9479
  541MOL0     C72960   8.462   9.433   0.530 -0.5199 -0.3364 -1.0461
  541MOL0     C72961   8.577   9.523   0.499 -0.3482  0.2343 -0.1191
  541MOL0     C72962   8.691   9.433   0.455  0.5317 -0.2336 -0.0645
  541MOL0     C72963   8.802   9.507   0.390 -0.0219 -0.3535 -0.5147
  541MOL0     C72964   8.896   9.553   0.339  0.0685 -0.9268 -0.1467
  541MOL0     C72965   8.133   9.423   0.325  0.5145  0.3244  0.6143
  541MOL0     C72966   8.000   9.399   0.286 -0.1276 -0.5926 -0.8536
  541MOL0     C72967   7.958   9.267   0.242  0.1845  1.1177 -0.0071
  541MOL0     H72968   7.540   9.717   0.229 -0.6007 -0.1380  0.1005
  541MOL0     H72969   7.291   9.694   0.251 -0.0451  0.2890 -3.5230
  541MOL0     H72970   7.053   9.620   0.284 -0.4276  0.0550  0.3538
  541MOL0     H72971   7.099   9.626   0.107  0.2142 -0.9233 -0.1473
  541MOL0     H72972   6.940   9.470   0.055 -0.0815 -1.1004 -0.0628
  541MOL0     H72973   6.866   9.612   0.142  1.4407  1.0143 -2.4421
  541MOL0     H72974   6.883   9.475   0.356 -0.3572 -0.7102  0.5506
  541MOL0     H72975   6.923   9.330   0.260 -3.8056 -2.3278 -0.8546
  541MOL0     H72976   6.667   9.484   0.225 -4.8195 -3.0077  1.8468
  541MOL0     H72977   6.705   9.333   0.154 -0.0072  0.5896 -0.3409
  541MOL0     H72978   6.711   9.368   0.455 -0.6668 -0.4652  1.8345
  541MOL0     H72979   6.571   9.305   0.358  0.7190  1.8899 -0.6541
  541MOL0     H72980   6.658   9.090   0.361  1.2962 -0.4424  2.4403
  541MOL0     H72981   6.801   9.143   0.270 -0.1459 -0.6611 -0.0407
  541MOL0     H72982   6.887   9.211   0.512 -1.6815  0.4884  2.1970
  541MOL0     H72983   6.904   9.054   0.422 -0.7432  0.2765 -1.3232
  541MOL0     H72984   6.675   9.092   0.626 -0.2722 -1.3371  0.5853
  541MOL0     H72985   6.758   8.941   0.566 -0.6703  1.2399 -2.6959
  541MOL0     H72986   7.012   8.891   0.698  1.1618  1.0227 -0.5888
  541MOL0     H72987   7.182   9.064   0.995 -1.5232 -0.5323  0.1356
  541MOL0     H72988   7.151   8.902   0.928  0.3303 -0.3744 -1.3558
  541MOL0     H72989   7.258   8.982   0.713 -1.9734  0.4059  0.4096
  541MOL0     H72990   7.293   9.136   0.791  2.5842  0.0733  0.0965
  541MOL0     H72991   7.407   8.868   0.891  0.0329 -0.5090 -2.1163
  541MOL0     H72992   7.423   9.025   0.968  1.7192  2.1594 -1.3044
  541MOL0     H72993   7.525   9.131   0.795 -3.4630  0.8110  0.8301
  541MOL0     H72994   7.504   8.996   0.683 -0.9809  0.1720  0.9558
  541MOL0     H72995   7.850   8.835   0.909  1.8574 -1.1837 -0.0271
  541MOL0     H72996   8.077   8.888   0.854 -1.5147 -1.4441 -0.4939
  541MOL0     H72997   8.321   9.016   0.463  0.2883  1.5200 -0.7965
  541MOL0     H72998   8.509   9.070   0.336 -1.9307 -0.7588  0.2920
  541MOL0     H72999   8.782   8.954   0.349  0.4179 -0.3450 -1.5235
  541MOL0     H73000   8.721   9.096   0.252 -0.7384 -2.6113 -0.0794
  541MOL0     H73001   8.922   9.216   0.259  0.3790  0.1022  0.3060
  541MOL0     H73002   8.984   9.104   0.381 -0.7998 -0.7468  0.4980
  541MOL0     H73003   8.990   8.916   0.226  0.6861 -0.2587  0.0133
  541MOL0     H73004   8.909   9.001   0.097 -0.1496 -2.3255  1.1644
  541MOL0     H73005   9.171   9.105   0.212 -1.8322  1.3310  0.4425
  541MOL0     H73006   9.098   9.145   0.059  0.0005 -0.3554  0.6084
  541MOL0     H73007   9.121   8.888  -0.010  3.2190 -2.3050  0.5565
  541MOL0     H73008   9.219   8.867   0.111  0.6479  0.4306 -0.8935
  541MOL0     H73009   9.328   8.929  -0.120  0.0076  1.3351 -0.3435
  541MOL0     H73010   9.243   9.078  -0.118  0.8089 -1.4155 -0.8526
  541MOL0     H73011   9.478   8.989   0.056 -0.2848 -0.4930 -0.2238
  541MOL0     H73012   9.370   9.137   0.091 -1.4060  0.5288 -1.5635
  541MOL0     H73013   9.419   9.214  -0.137  0.3492 -1.1118 -2.3851
  541MOL0     H73014   9.562   9.223  -0.031  1.0604  0.7175 -2.1131
  541MOL0     H73015   8.708   9.155   0.722  1.0663  1.1185 -0.4211
  541MOL0     H73016   8.517   9.098   0.843 -1.7672  1.9210 -0.0683
  541MOL0     H73017   7.930   9.211   0.598 -0.5652 -0.7311 -0.2726
  541MOL0     H73018   7.703   9.158   0.663 -0.3228  1.9599 -0.3364
  541MOL0     H73019   7.324   9.280   0.140  1.5981 -0.3264  2.4613
  541MOL0     H73020   7.576   9.315   0.119  0.8332  0.4960  2.0026
  541MOL0     H73021   7.864   9.700   0.372 -1.3746 -2.1427  1.2080
  541MOL0     H73022   8.118   9.738   0.441  1.8289  0.1124 -1.6743
  541MOL0     H73023   8.251   9.441   0.578 -0.8548  1.0261 -1.0993
  541MOL0     H73024   8.335   9.588   0.623  0.7191 -0.6782  2.1388
  541MOL0     H73025   8.446   9.356   0.455  0.7386 -0.7818 -0.8902
  541MOL0     H73026   8.493   9.388   0.625  2.4161 -0.2790 -1.8857
  541MOL0     H73027   8.614   9.580   0.585 -0.7815 -0.6541  0.6653
  541MOL0     H73028   8.553   9.592   0.418  2.6200  0.3015 -1.0368
  541MOL0     H73029   8.742   9.369   0.528 -0.2053 -1.2517 -0.4140
  541MOL0     H73030   8.653   9.372   0.372 -4.9582  0.8678  1.2571
  541MOL0     H73031   8.978   9.609   0.297  0.9952 -3.1905 -1.5731
  541MOL0     H73032   8.206   9.344   0.313  2.1192  1.8460 -0.0239
  541MOL0     H73033   7.899   9.262   0.150 -1.6078 -2.6648  1.1823
  541MOL0     H73034   8.043   9.200   0.224 -1.7324 -1.2612 -0.7129
  541MOL0     H73035   7.896   9.216   0.315  1.6534 -0.0489  0.4688
  542MOL0     O73036   3.368  10.943  10.272  0.2606  0.4696  0.0137
  542MOL0     C73037   3.340  10.887  10.376 -0.4850  0.1340 -0.5280
  542MOL0     O73038   3.409  10.888  10.488 -0.0828 -0.0102 -0.0328
  542MOL0     C73039   3.518  10.974  10.494  0.8612 -0.7645  0.6078
  542MOL0     C73040   3.648  10.942  10.458 -0.1909  0.1676 -0.9514
  542MOL0     C73041   3.753  11.028  10.492  0.2925  0.4373  0.1133
  542MOL0     C73042   3.728  11.155  10.550  0.8489  0.3797 -0.4461
  542MOL0     O73043   3.821  11.240  10.597  0.0786 -0.7699 -1.1433
  542MOL0     C73044   3.952  11.242  10.530  0.7378  0.4423 -0.1364
  542MOL0     C73045   4.056  11.192  10.629 -0.6225 -0.6370  0.0439
  542MOL0     C73046   4.187  11.168  10.552  0.0795  0.2420  0.5073
  542MOL0     C73047   4.295  11.125  10.652 -0.0966 -0.3825  0.0539
  542MOL0     C73048   4.440  11.099  10.588  0.7887  0.8388  0.2995
  542MOL0     C73049   4.467  10.956  10.535 -0.5357  0.9109 -0.1680
  542MOL0     C73050   4.593  10.946  10.451 -0.1689  0.7299 -0.0157
  542MOL0     C73051   4.694  10.852  10.512  0.4377 -0.0817  0.3255
  542MOL0     N73052   4.809  10.819  10.427  0.0405  0.3050  0.3023
  542MOL0     C73053   4.897  10.901  10.361 -0.6385 -0.1920  0.7604
  542MOL0     C73054   4.981  10.825  10.284  1.1115 -0.4112 -0.0714
  542MOL0     C73055   5.087  10.861  10.187 -0.1294 -0.5036  0.8486
  542MOL0     C73056   5.199  10.946  10.250  0.9965 -0.0027 -1.1641
  542MOL0     C73057   5.310  10.985  10.159 -0.0356 -0.3459  0.2090
  542MOL0     C73058   5.399  11.087  10.224 -1.1339  0.6136 -0.6120
  542MOL0     O73059   5.484  11.018  10.317  1.2332  0.0420 -0.1852
  542MOL0     C73060   5.616  11.049  10.314  0.3586  0.7271  0.5169
  542MOL0     C73061   5.662  11.162  10.387  1.3812 -0.7562  0.6822
  542MOL0     C73062   5.795  11.206  10.368  0.8855  0.0764 -0.8047
  542MOL0     C73063   5.876  11.133  10.287  0.0586 -0.6052 -0.1606
  542MOL0     C73064   6.013  11.182  10.265  0.1766  0.2592  0.3406
  542MOL0     O73065   6.093  11.092  10.198 -0.2677  0.4625  0.6018
  542MOL0     C73066   6.233  11.102  10.195  0.7510 -0.0396  0.3954
  542MOL0     C73067   6.289  11.022  10.100 -0.1811  0.1205  0.9412
  542MOL0     C73068   6.427  11.023  10.087 -0.6178  0.3466 -0.0129
  542MOL0     C73069   6.508  11.102  10.172 -0.3312 -0.0683 -0.8709
  542MOL0     O73070   6.649  11.119  10.166  0.4330  0.2188  0.1677
  542MOL0     C73071   6.719  11.041  10.070 -1.1129  0.0904 -0.0733
  542MOL0     C73072   6.875  11.066  10.096 -0.4946 -0.4708 -0.1213
  542MOL0     C73073   6.934  10.988  10.217 -0.2722  0.3670  0.3218
  542MOL0     C73074   7.077  11.031  10.230 -0.1418  0.7711 -0.1257
  542MOL0     C73075   7.151  10.948  10.338  0.7929  0.3838  0.2011
  542MOL0     C73076   7.296  10.990  10.356 -0.1778 -0.0626  0.0112
  542MOL0     C73077   7.364  10.920  10.472  1.5076 -0.4042  0.2026
  542MOL0     C73078   7.503  10.969  10.469  0.7789  0.8067 -1.0659
  542MOL0    Cl73079   7.583  10.917  10.312  0.1181  0.4891 -0.1606
  542MOL0     C73080   6.447  11.168  10.278  0.3982 -0.3038  1.0624
  542MOL0     C73081   6.310  11.167  10.290  0.4870 -0.4254  0.5642
  542MOL0     O73082   6.044  11.295  10.308 -0.1810 -0.5303 -0.4619
  542MOL0     C73083   5.835  11.020  10.222 -0.1087  0.2132  0.1578
  542MOL0     C73084   5.699  10.971  10.238  0.2151  0.8825 -0.8391
  542MOL0     N73085   4.928  10.701  10.307 -0.3347  0.9459  0.5958
  542MOL0     N73086   4.822  10.695  10.376  0.1899 -0.1815  0.0242
  542MOL0     C73087   3.599  11.191  10.577 -0.2398  0.1334 -0.3771
  542MOL0     C73088   3.489  11.098  10.551 -0.3191 -0.1406 -0.0765
  542MOL0     C73089   3.211  10.814  10.379 -0.3958 -0.7384  0.7679
  542MOL0     C73090   3.174  10.744  10.493 -0.6431 -0.4180  0.3140
  542MOL0     C73091   3.059  10.673  10.495  0.5316 -0.4402 -0.4004
  542MOL0     C73092   2.978  10.661  10.387 -0.1633 -0.1617  1.0755
  542MOL0     O73093   2.862  10.585  10.410  0.2597 -0.6394 -0.3409
  542MOL0     C73094   2.758  10.580  10.307 -0.3672 -0.1776 -0.2406
  542MOL0     C73095   2.626  10.580  10.372  0.9986  0.3654 -0.0619
  542MOL0     C73096   2.602  10.447  10.450  0.9345 -0.0153 -0.3944
  542MOL0     C73097   2.460  10.419  10.498  0.3313 -0.5302  1.0256
  542MOL0     C73098   2.355  10.406  10.389 -0.1891  0.6284 -0.1904
  542MOL0     C73099   2.288  10.380  10.290  0.0289 -0.9683 -0.2828
  542MOL0     C73100   3.021  10.716  10.264  0.3501  0.2682 -0.0385
  542MOL0     C73101   3.124  10.799  10.259 -0.4024 -0.5700 -0.1025
  542MOL0     C73102   3.151  10.858  10.128 -0.8535  0.5318 -0.3976
  542MOL0     H73103   3.666  10.842  10.419  0.0969  0.7824 -2.4926
  542MOL0     H73104   3.852  10.987  10.470 -0.5983 -2.7014  1.3619
  542MOL0     H73105   3.962  11.178  10.442 -0.7804  1.3419 -1.0007
  542MOL0     H73106   3.966  11.346  10.500 -0.3783  0.0235 -2.2839
  542MOL0     H73107   4.029  11.099  10.680 -1.2963 -0.8409 -0.6835
  542MOL0     H73108   4.071  11.267  10.707  1.1883 -1.6625  0.7611
  542MOL0     H73109   4.224  11.263  10.512  4.3170 -0.9778  1.0211
  542MOL0     H73110   4.174  11.098  10.469 -0.0594  0.5524  0.2636
  542MOL0     H73111   4.308  11.214  10.714  2.3455  1.1985 -2.5089
  542MOL0     H73112   4.259  11.042  10.714 -0.7750 -0.1834 -0.0601
  542MOL0     H73113   4.465  11.179  10.517 -0.7655 -0.1179 -1.4193
  542MOL0     H73114   4.510  11.114  10.670 -0.3027  1.1758  1.2014
  542MOL0     H73115   4.474  10.900  10.628  1.0572  1.3964  0.0260
  542MOL0     H73116   4.380  10.922  10.479 -0.9874 -0.6671  1.4115
  542MOL0     H73117   4.640  11.044  10.441  1.9957  0.0545  2.3053
  542MOL0     H73118   4.568  10.907  10.353  0.1574 -0.5600  0.3885
  542MOL0     H73119   4.732  10.909  10.597  1.3813  3.2332 -2.1298
  542MOL0     H73120   4.643  10.761  10.545  2.3125 -1.9181 -1.5845
  542MOL0     H73121   4.909  11.008  10.359 -0.7699 -0.1812  0.4216
  542MOL0     H73122   5.129  10.773  10.137  0.6299  0.4811 -0.3045
  542MOL0     H73123   5.033  10.912  10.107 -2.5679 -2.2409  1.2796
  542MOL0     H73124   5.157  11.042  10.281  1.7512 -0.2121  0.6052
  542MOL0     H73125   5.244  10.898  10.337 -3.7741  1.6943  2.6433
  542MOL0     H73126   5.270  11.029  10.067  1.7891 -0.4024 -0.6424
  542MOL0     H73127   5.374  10.907  10.118 -1.6237 -0.4802 -2.2329
  542MOL0     H73128   5.343  11.161  10.283  2.0167  1.7666  1.1401
  542MOL0     H73129   5.465  11.130  10.147 -0.0501 -2.9328 -1.8277
  542MOL0     H73130   5.585  11.213  10.445  0.0162 -1.4466 -0.4519
  542MOL0     H73131   5.831  11.292  10.424  0.0887  1.3225 -2.1231
  542MOL0     H73132   6.230  10.953  10.041  0.2217 -1.0242  1.8469
  542MOL0     H73133   6.469  10.969  10.002  0.9246 -0.4036  1.1696
  542MOL0     H73134   6.686  10.937  10.081 -0.8464 -0.0974 -0.9679
  542MOL0     H73135   6.689  11.081   9.973 -0.6757  3.2035  0.9664
  542MOL0     H73136   6.920  11.025  10.005  0.6398 -0.7475  0.5474
  542MOL0     H73137   6.907  11.170  10.105 -1.0961 -0.4362  1.9656
  542MOL0     H73138   6.875  11.010  10.306  1.1930  0.2578  1.3439
  542MOL0     H73139   6.923  10.880  10.206  0.7474 -0.1025  3.0992
  542MOL0     H73140   7.073  11.137  10.257 -3.6946  0.8270 -0.4616
  542MOL0     H73141   7.131  11.038  10.135 -0.4064  4.1896 -0.1354
  542MOL0     H73142   7.142  10.843  10.309  3.3350  1.0842 -4.0366
  542MOL0     H73143   7.089  10.969  10.426 -0.5957 -0.0056 -0.6601
  542MOL0     H73144   7.342  10.960  10.262  0.5709 -2.3315  1.0220
  542MOL0     H73145   7.300  11.098  10.374 -1.5717  0.0575 -0.3159
  542MOL0     H73146   7.354  10.811  10.469 -1.4571 -0.3880  3.2145
  542MOL0     H73147   7.314  10.954  10.564 -2.3496 -0.5277 -1.6459
  542MOL0     H73148   7.507  11.077  10.482 -0.8419  0.8465 -0.6846
  542MOL0     H73149   7.556  10.926  10.555 -2.4365  0.4623  0.8877
  542MOL0     H73150   6.517  11.218  10.344  2.1956  0.1859 -1.0955
  542MOL0     H73151   6.268  11.217  10.376  1.1332  0.2511  0.4967
  542MOL0     H73152   5.895  10.967  10.149  2.1468  2.0002  0.6126
  542MOL0     H73153   5.662  10.886  10.182 -1.0089  1.6071 -1.1700
  542MOL0     H73154   3.573  11.287  10.620  1.6380  1.0264 -1.1433
  542MOL0     H73155   3.389  11.113  10.592 -0.3684  1.0501 -0.5746
  542MOL0     H73156   3.238  10.750  10.580  1.2704  1.0704 -1.0899
  542MOL0     H73157   3.035  10.635  10.594  2.6847 -0.0120  0.3468
  542MOL0     H73158   2.780  10.484  10.260  1.6793 -0.0607  0.3818
  542MOL0     H73159   2.764  10.662  10.235 -0.5547 -0.4544 -0.5705
  542MOL0     H73160   2.553  10.578  10.291  1.3837 -1.1723 -0.4138
  542MOL0     H73161   2.619  10.663  10.442  6.0953  0.3668  0.8724
  542MOL0     H73162   2.671  10.439  10.535  3.9985  1.4667 -2.5595
  542MOL0     H73163   2.630  10.363  10.386  0.6544  1.1189 -2.0762
  542MOL0     H73164   2.456  10.320  10.545 -2.0733 -2.6710 -3.0942
  542MOL0     H73165   2.439  10.499  10.569  1.4810 -0.4529  1.3036
  542MOL0     H73166   2.229  10.364  10.202 -2.5039  1.3331  0.8226
  542MOL0     H73167   2.962  10.688  10.178 -0.1568 -0.5168  0.5421
  542MOL0     H73168   3.233  10.802  10.082 -0.4745  1.4524 -0.8760
  542MOL0     H73169   3.066  10.850  10.059  0.3021  1.3819 -1.9777
  542MOL0     H73170   3.171  10.965  10.135 -0.1908  0.3020  2.1402
  543MOL0     O73171   3.170   4.886   7.500  0.2044 -0.3259 -1.1004
  543MOL0     C73172   3.269   4.960   7.489 -0.1180  0.2409  0.2029
  543MOL0     O73173   3.269   5.085   7.431  0.2604 -0.0422  0.2689
  543MOL0     C73174   3.142   5.146   7.440 -0.3519 -0.0248 -0.2714
  543MOL0     C73175   3.082   5.179   7.561 -0.1625 -0.1998  0.0198
  543MOL0     C73176   2.952   5.234   7.558 -0.6327 -0.1361  0.7350
  543MOL0     C73177   2.889   5.264   7.432  0.7634 -0.1255 -0.4551
  543MOL0     O73178   2.773   5.327   7.450  0.6271 -0.1824  0.5574
  543MOL0     C73179   2.678   5.323   7.330  1.3543 -0.4460 -0.3965
  543MOL0     C73180   2.542   5.349   7.376  0.5892  0.1883 -0.7576
  543MOL0     C73181   2.486   5.236   7.464  0.1537  0.0910 -0.1229
  543MOL0     C73182   2.334   5.255   7.486  0.4698 -0.5537 -0.1671
  543MOL0     C73183   2.278   5.137   7.563  0.1708  0.1866 -0.4201
  543MOL0     C73184   2.208   5.036   7.458  0.1555 -0.6793  0.2340
  543MOL0     C73185   2.087   4.949   7.518 -0.4579 -0.2448  0.0953
  543MOL0     C73186   2.012   4.875   7.403 -0.0450 -0.3038  1.0712
  543MOL0     N73187   1.869   4.842   7.423 -0.7264 -0.0675 -0.3980
  543MOL0     C73188   1.836   4.728   7.495 -0.4568 -0.6362  0.0127
  543MOL0     C73189   1.704   4.735   7.498 -0.4299  0.0858 -0.4290
  543MOL0     C73190   1.607   4.631   7.543 -0.3163 -0.1104 -0.3684
  543MOL0     C73191   1.466   4.689   7.577 -0.0192 -0.5922 -0.1686
  543MOL0     C73192   1.375   4.604   7.668 -0.3189  0.1729  0.4592
  543MOL0     C73193   1.308   4.492   7.591 -0.8720 -0.2579 -0.4636
  543MOL0     O73194   1.394   4.399   7.528  0.2581  0.3711 -0.4326
  543MOL0     C73195   1.477   4.318   7.610 -0.1767 -0.7519 -0.0609
  543MOL0     C73196   1.454   4.285   7.744  0.1790  0.2042 -0.5330
  543MOL0     C73197   1.554   4.228   7.831  0.7735  0.0254  1.3894
  543MOL0     C73198   1.679   4.193   7.773 -0.1823  0.6703 -0.7583
  543MOL0     C73199   1.805   4.131   7.837  0.7923 -0.3986 -0.7122
  543MOL0     O73200   1.909   4.087   7.757  0.4414 -0.0943  0.0296
  543MOL0     C73201   2.018   4.046   7.824  0.3862 -0.0341  0.0148
  543MOL0     C73202   2.085   4.138   7.907 -0.1122 -0.5418 -0.1419
  543MOL0     C73203   2.200   4.088   7.971 -0.3806  0.2853 -0.8503
  543MOL0     C73204   2.246   3.960   7.960 -0.5237  0.9325  0.6640
  543MOL0     O73205   2.353   3.923   8.033  0.0168  0.1401 -0.5492
  543MOL0     C73206   2.472   3.896   7.957  0.3726  0.3608  1.1303
  543MOL0     C73207   2.584   3.884   8.060  0.2267  0.3207  0.4729
  543MOL0     C73208   2.670   4.012   8.060  0.6939 -0.1986 -0.5901
  543MOL0     C73209   2.774   4.023   7.950 -0.2207 -0.2340  0.5779
  543MOL0     C73210   2.904   3.956   7.987  0.2064  0.1201  0.0604
  543MOL0     C73211   3.007   3.977   7.872 -0.3986  0.4520  0.5961
  543MOL0     C73212   3.130   3.894   7.894 -0.8540  0.3815  0.4002
  543MOL0     C73213   3.246   3.956   7.834 -0.0985  0.3865  0.2723
  543MOL0    Cl73214   3.396   3.870   7.885  0.0381  0.0031  0.3283
  543MOL0     C73215   2.167   3.867   7.890  0.3422  0.3258 -0.2061
  543MOL0     C73216   2.049   3.907   7.817 -0.8712 -0.9238 -0.5320
  543MOL0     O73217   1.801   4.133   7.960  0.1323  0.7284 -0.3492
  543MOL0     C73218   1.697   4.225   7.637  0.5142 -0.0755  0.7349
  543MOL0     C73219   1.595   4.286   7.555  0.0433  0.3655 -0.3502
  543MOL0     N73220   1.664   4.843   7.421 -0.1752  0.8962  0.2543
  543MOL0     N73221   1.763   4.913   7.385  0.0467  0.1496 -0.5341
  543MOL0     C73222   2.952   5.231   7.313 -0.4767  0.3818 -0.4674
  543MOL0     C73223   3.081   5.174   7.323 -0.2905 -0.6496  1.3604
  543MOL0     C73224   3.406   4.909   7.545  0.4740 -0.4784  0.3577
  543MOL0     C73225   3.427   4.774   7.553 -0.0740 -1.1821 -0.0120
  543MOL0     C73226   3.538   4.721   7.616  0.2222  1.0324 -0.1543
  543MOL0     C73227   3.632   4.808   7.674 -0.1442  1.0776  0.2548
  543MOL0     O73228   3.744   4.752   7.730  0.0464  0.1975  0.3674
  543MOL0     C73229   3.812   4.656   7.649  0.2615  0.0466  0.2413
  543MOL0     C73230   3.878   4.727   7.529 -0.4566  0.4202 -0.0430
  543MOL0     C73231   3.936   4.620   7.435 -0.9643 -0.9876 -0.0692
  543MOL0     C73232   4.043   4.682   7.341  0.6546  0.2022  0.1874
  543MOL0     C73233   4.072   4.590   7.227  0.9072 -0.0421  0.1506
  543MOL0     C73234   4.087   4.503   7.143 -0.5563  0.0411  1.0963
  543MOL0     C73235   3.606   4.944   7.674 -0.1063  0.5511  0.2986
  543MOL0     C73236   3.495   4.996   7.607 -0.0573 -0.5295  0.3252
  543MOL0     C73237   3.479   5.141   7.599  0.0078 -0.6708  0.3907
  543MOL0     H73238   3.122   5.168   7.661  1.4639  0.7624 -0.4995
  543MOL0     H73239   2.897   5.265   7.646 -1.6142 -0.0176  0.0937
  543MOL0     H73240   2.720   5.392   7.256  2.2922  0.0197  0.5461
  543MOL0     H73241   2.671   5.228   7.276 -1.6287  0.2915 -1.5094
  543MOL0     H73242   2.469   5.357   7.295  1.2787 -0.3900 -1.4503
  543MOL0     H73243   2.548   5.439   7.439  1.5533 -0.8407  0.6980
  543MOL0     H73244   2.523   5.232   7.567 -1.9157 -0.3897  0.6510
  543MOL0     H73245   2.517   5.138   7.425  0.6861 -1.4175  3.6545
  543MOL0     H73246   2.315   5.347   7.543  2.1047 -1.2142  1.5734
  543MOL0     H73247   2.286   5.253   7.388 -1.7048 -0.7751  0.8610
  543MOL0     H73248   2.342   5.089   7.638 -3.7925  0.2156  3.3430
  543MOL0     H73249   2.200   5.176   7.629 -0.1421  1.4327 -1.4674
  543MOL0     H73250   2.169   5.090   7.371  3.1921  0.1884 -0.7096
  543MOL0     H73251   2.294   4.974   7.432 -0.7009 -3.5630  3.4819
  543MOL0     H73252   2.028   5.018   7.579  1.2302 -1.4093  3.3585
  543MOL0     H73253   2.122   4.870   7.585 -2.6704 -0.3539  1.2210
  543MOL0     H73254   2.023   4.930   7.309  0.1892 -0.2589  1.1235
  543MOL0     H73255   2.066   4.782   7.384  1.7062  0.4575  2.0752
  543MOL0     H73256   1.900   4.652   7.538  1.1139  0.9398  0.6170
  543MOL0     H73257   1.599   4.550   7.470  2.3581 -0.2251 -0.6503
  543MOL0     H73258   1.651   4.595   7.637  1.1487 -0.8839 -1.3015
  543MOL0     H73259   1.476   4.788   7.623  1.6258  0.4860 -2.6295
  543MOL0     H73260   1.418   4.711   7.481  2.7617  2.8228 -1.0245
  543MOL0     H73261   1.289   4.658   7.707 -0.7488 -0.2915  0.1588
  543MOL0     H73262   1.437   4.567   7.751 -1.2027 -0.8988  0.6661
  543MOL0     H73263   1.244   4.539   7.515  1.3343  1.3029 -1.4732
  543MOL0     H73264   1.234   4.452   7.661 -0.3945  2.3064  1.6902
  543MOL0     H73265   1.363   4.310   7.798 -0.2524 -0.1947 -1.0675
  543MOL0     H73266   1.544   4.201   7.936 -0.5636  0.3292  1.3660
  543MOL0     H73267   2.070   4.246   7.909 -1.8704 -0.7688  1.4246
  543MOL0     H73268   2.252   4.165   8.026 -0.3752  0.0650 -0.5502
  543MOL0     H73269   2.465   3.806   7.895  1.4410  1.4504 -0.6574
  543MOL0     H73270   2.500   3.973   7.885  0.0974  0.2565  0.9100
  543MOL0     H73271   2.546   3.868   8.161  0.0330  2.6395  0.8293
  543MOL0     H73272   2.651   3.800   8.040 -1.2632 -0.6153 -0.7748
  543MOL0     H73273   2.603   4.099   8.066  1.6312  0.4977  0.1290
  543MOL0     H73274   2.714   4.015   8.160 -3.0862 -1.8786  1.3560
  543MOL0     H73275   2.801   4.127   7.931  0.8122 -1.1751 -4.4341
  543MOL0     H73276   2.747   3.971   7.858  2.8855 -0.6102 -0.2600
  543MOL0     H73277   2.885   3.851   8.012 -1.7090  0.8714  2.1138
  543MOL0     H73278   2.939   3.988   8.086  1.5828 -2.0261  0.3452
  543MOL0     H73279   2.958   3.940   7.782 -0.7442  1.0149  0.5440
  543MOL0     H73280   3.031   4.084   7.862 -0.3592  0.8310  3.6783
  543MOL0     H73281   3.114   3.793   7.853 -0.0713 -0.1861  1.4328
  543MOL0     H73282   3.154   3.871   7.998  2.4076 -6.1115 -1.2176
  543MOL0     H73283   3.235   3.958   7.725 -0.2846  1.2062  0.3010
  543MOL0     H73284   3.247   4.063   7.859 -1.2444  0.7998 -1.3071
  543MOL0     H73285   2.201   3.766   7.870  1.3706  0.1809  1.9456
  543MOL0     H73286   1.993   3.842   7.750 -0.1903 -0.9173 -1.1214
  543MOL0     H73287   1.791   4.209   7.586  0.4363 -0.1874  0.6255
  543MOL0     H73288   1.630   4.312   7.455  0.9241 -0.5780 -0.2964
  543MOL0     H73289   2.908   5.246   7.215  0.3088  2.5559 -0.5507
  543MOL0     H73290   3.113   5.163   7.220 -0.1216 -0.8973  1.4371
  543MOL0     H73291   3.352   4.710   7.506 -0.2369 -0.5635 -0.6049
  543MOL0     H73292   3.543   4.614   7.630  1.4451  1.4777  3.9180
  543MOL0     H73293   3.754   4.567   7.625  0.9605 -1.0244  2.3115
  543MOL0     H73294   3.894   4.607   7.703  0.1756 -0.5792 -0.1827
  543MOL0     H73295   3.969   4.776   7.568  0.1942 -0.2142 -0.7354
  543MOL0     H73296   3.817   4.806   7.483 -1.6311  0.8035  2.0268
  543MOL0     H73297   3.853   4.589   7.371 -4.4394 -0.7514  3.8296
  543MOL0     H73298   3.971   4.533   7.491 -2.2887 -0.8312  1.0675
  543MOL0     H73299   4.000   4.775   7.301  2.6486  0.3156 -1.9315
  543MOL0     H73300   4.133   4.717   7.391 -0.0012 -1.3835  2.6512
  543MOL0     H73301   4.110   4.426   7.071 -0.6865  1.3943 -0.4577
  543MOL0     H73302   3.683   5.006   7.719 -0.5943 -1.4796  4.4615
  543MOL0     H73303   3.495   5.168   7.494  0.4042 -1.0412  0.3547
  543MOL0     H73304   3.378   5.173   7.626 -0.7210 -1.2553 -1.4739
  543MOL0     H73305   3.553   5.196   7.658  1.3874 -1.8479 -0.1709
  544MOL0     O73306   8.436   5.555   3.955  0.3943 -0.5494  0.5567
  544MOL0     C73307   8.362   5.514   3.868 -0.1939 -0.7546  0.2337
  544MOL0     O73308   8.344   5.577   3.751  0.3916 -0.1055 -0.2240
  544MOL0     C73309   8.430   5.674   3.708 -1.1273  0.7873  0.5260
  544MOL0     C73310   8.513   5.632   3.604  1.2443  0.2238  0.5767
  544MOL0     C73311   8.616   5.708   3.552 -0.6214 -0.7489  0.5320
  544MOL0     C73312   8.655   5.827   3.623  0.5671 -0.3416 -0.5165
  544MOL0     O73313   8.768   5.889   3.595  0.3413 -0.4564 -0.2913
  544MOL0     C73314   8.762   6.033   3.610  0.6675 -0.2954  0.5660
  544MOL0     C73315   8.880   6.081   3.523  0.2347 -0.0070  0.8170
  544MOL0     C73316   9.021   6.066   3.585  0.6984 -0.2763 -0.5403
  544MOL0     C73317   9.116   6.157   3.515 -0.1138 -0.2632 -0.6303
  544MOL0     C73318   9.262   6.106   3.502  0.5546 -0.0809 -0.6399
  544MOL0     C73319   9.275   5.970   3.434 -0.6250  0.4272  0.2116
  544MOL0     C73320   9.420   5.918   3.437  0.2773  0.1123 -0.7709
  544MOL0     C73321   9.489   5.943   3.576  0.1309  0.4237  0.7183
  544MOL0     N73322   9.615   5.873   3.594  0.4295  0.4080 -0.0739
  544MOL0     C73323   9.716   5.878   3.511 -0.7751 -0.3409  0.4591
  544MOL0     C73324   9.813   5.810   3.579  0.6443  0.4592  0.6476
  544MOL0     C73325   9.949   5.772   3.525  0.1606 -0.1880 -0.6899
  544MOL0     C73326  10.042   5.893   3.489 -0.4350 -0.0594 -0.1600
  544MOL0     C73327  10.166   5.843   3.410  0.1820 -0.4698  0.1113
  544MOL0     C73328  10.253   5.954   3.356  0.4612 -0.2948 -0.7809
  544MOL0     O73329  10.358   5.918   3.261  0.5539 -0.1152 -0.0595
  544MOL0     C73330  10.448   5.829   3.307 -0.2517  0.0525 -0.1562
  544MOL0     C73331  10.536   5.850   3.422 -0.2559 -0.2908 -0.1745
  544MOL0     C73332  10.644   5.761   3.447  0.0972 -0.4016 -0.6161
  544MOL0     C73333  10.662   5.650   3.369 -0.1429  0.1169  0.5343
  544MOL0     C73334  10.783   5.560   3.381  0.4551 -0.6573 -0.2233
  544MOL0     O73335  10.885   5.620   3.446  0.6216 -0.2921 -0.0591
  544MOL0     C73336  11.012   5.561   3.456 -0.0931 -0.2091 -0.3810
  544MOL0     C73337  11.033   5.439   3.517  0.0464 -0.5415  0.1791
  544MOL0     C73338  11.163   5.378   3.531 -0.0500  0.2637 -0.0273
  544MOL0     C73339  11.277   5.447   3.475  0.6230  0.7581  0.3439
  544MOL0     O73340  11.415   5.403   3.476 -0.1056 -0.3848 -0.4017
  544MOL0     C73341  11.440   5.263   3.513  0.2315  0.2724 -0.2138
  544MOL0     C73342  11.582   5.221   3.502 -0.4544  0.1251 -0.2178
  544MOL0     C73343  11.645   5.256   3.370  0.1449 -0.0902 -0.3152
  544MOL0     C73344  11.792   5.218   3.343 -0.5643  0.2795  0.0235
  544MOL0     C73345  11.835   5.249   3.198  0.1748  0.7589  0.7975
  544MOL0     C73346  11.957   5.169   3.152 -0.4936 -0.5005 -0.1782
  544MOL0     C73347  12.032   5.238   3.036 -0.6503  0.6573  0.8697
  544MOL0     C73348  12.166   5.162   3.008  0.2112  0.1837 -0.8178
  544MOL0    Cl73349  12.219   5.232   2.855 -0.0753 -0.1158 -0.3683
  544MOL0     C73350  11.250   5.569   3.413 -0.8781  0.4638  0.5469
  544MOL0     C73351  11.124   5.623   3.399  0.1277 -0.3140  0.4781
  544MOL0     O73352  10.777   5.448   3.341  0.7171  0.0737  0.2822
  544MOL0     C73353  10.560   5.614   3.278 -0.3956  0.7276  0.2217
  544MOL0     C73354  10.465   5.708   3.241 -0.0909  0.1205  0.2129
  544MOL0     N73355   9.768   5.777   3.710  0.4385  1.3505  0.0567
  544MOL0     N73356   9.646   5.814   3.716 -0.2880 -0.5621  0.4766
  544MOL0     C73357   8.563   5.879   3.722 -0.1989 -0.7156  0.0147
  544MOL0     C73358   8.451   5.801   3.764  0.4588 -0.5582  0.8835
  544MOL0     C73359   8.295   5.388   3.907  0.2239  0.0710 -0.5085
  544MOL0     C73360   8.190   5.347   3.828  0.1865 -0.5236 -0.8335
  544MOL0     C73361   8.131   5.218   3.853  0.0053 -0.4930  0.1505
  544MOL0     C73362   8.162   5.143   3.961  1.2909  0.0409 -0.0907
  544MOL0     O73363   8.088   5.024   3.975  0.1184 -0.1766 -0.0415
  544MOL0     C73364   8.151   4.921   4.061 -0.2431  0.0325  1.1340
  544MOL0     C73365   8.065   4.798   4.056  0.0091 -0.1066  0.3127
  544MOL0     C73366   8.048   4.736   3.911  0.8565  0.3198 -0.1056
  544MOL0     C73367   8.181   4.691   3.864  0.2201 -0.1784 -0.5742
  544MOL0     C73368   8.162   4.603   3.745 -0.6336  0.5495  0.3108
  544MOL0     C73369   8.152   4.520   3.660  0.1510  1.0459  0.1865
  544MOL0     C73370   8.266   5.186   4.044 -0.3850  0.4564 -0.2067
  544MOL0     C73371   8.333   5.303   4.022 -1.6135 -1.0615  0.1185
  544MOL0     C73372   8.445   5.328   4.124  1.1682 -0.1940  0.3492
  544MOL0     H73373   8.500   5.534   3.560  2.1820  0.2095  0.3154
  544MOL0     H73374   8.671   5.677   3.464  0.1445  1.3104  0.2381
  544MOL0     H73375   8.667   6.071   3.571  2.1487  3.2579  0.0389
  544MOL0     H73376   8.777   6.070   3.712  1.1757 -1.0682  0.7839
  544MOL0     H73377   8.872   6.188   3.498 -0.2163 -0.1988  0.0761
  544MOL0     H73378   8.879   6.025   3.429 -0.9055 -3.0390  2.4942
  544MOL0     H73379   9.060   5.964   3.575 -1.8684 -1.3494 -0.3837
  544MOL0     H73380   9.018   6.092   3.691 -1.5174 -3.4252  0.2956
  544MOL0     H73381   9.074   6.169   3.415 -0.9133 -0.7646 -0.3667
  544MOL0     H73382   9.113   6.255   3.562  1.3501  1.8789 -4.5720
  544MOL0     H73383   9.324   6.180   3.451  2.2074 -0.0885  1.1988
  544MOL0     H73384   9.293   6.094   3.606  0.6882 -0.0583 -0.6763
  544MOL0     H73385   9.224   5.890   3.489 -1.9171  0.2613 -1.1542
  544MOL0     H73386   9.230   5.969   3.334 -1.5615  0.9862  0.6113
  544MOL0     H73387   9.475   5.971   3.359 -0.6619  3.4843  0.6421
  544MOL0     H73388   9.411   5.812   3.413  0.3936  0.1946 -1.1728
  544MOL0     H73389   9.514   6.047   3.600 -0.8399  0.5649  1.1468
  544MOL0     H73390   9.420   5.905   3.652 -0.2259  1.4738  0.9276
  544MOL0     H73391   9.713   5.930   3.416 -0.9540 -0.8386  0.1866
  544MOL0     H73392  10.009   5.715   3.596  1.1243  0.6774 -0.7862
  544MOL0     H73393   9.933   5.713   3.434  0.5212 -0.3585 -0.6424
  544MOL0     H73394   9.982   5.959   3.427  0.4583  1.8984  0.9862
  544MOL0     H73395  10.075   5.953   3.574  0.4241  0.4689 -0.8341
  544MOL0     H73396  10.131   5.783   3.326 -1.7645  1.7939 -0.8235
  544MOL0     H73397  10.231   5.776   3.467 -0.0549 -1.8925 -1.2487
  544MOL0     H73398  10.308   6.000   3.439  0.4173 -1.6733  0.0480
  544MOL0     H73399  10.188   6.033   3.317 -0.9347  0.0325  1.9705
  544MOL0     H73400  10.524   5.936   3.487  1.4986 -1.6818  2.1202
  544MOL0     H73401  10.715   5.771   3.529 -2.8018  2.1202  1.8422
  544MOL0     H73402  10.939   5.393   3.545  0.1529 -1.3567 -0.7373
  544MOL0     H73403  11.169   5.285   3.587 -1.3923 -0.5511 -1.1666
  544MOL0     H73404  11.404   5.238   3.613 -1.8978 -0.3624 -1.0803
  544MOL0     H73405  11.397   5.192   3.442 -0.4758 -1.9270  2.2672
  544MOL0     H73406  11.641   5.274   3.578 -2.8305 -0.2540  2.0267
  544MOL0     H73407  11.603   5.116   3.523 -0.3241  0.3274  0.7566
  544MOL0     H73408  11.583   5.210   3.292 -2.3450 -2.2565  2.7249
  544MOL0     H73409  11.640   5.365   3.364 -0.4590 -0.0320  0.9582
  544MOL0     H73410  11.812   5.114   3.368  0.3615  0.5066  0.2281
  544MOL0     H73411  11.854   5.270   3.415  0.8348  0.8336 -1.5226
  544MOL0     H73412  11.853   5.357   3.189  0.7293  0.5653 -0.9749
  544MOL0     H73413  11.761   5.241   3.118  1.1763  1.0402 -0.1940
  544MOL0     H73414  12.033   5.171   3.231  0.8924  0.3044 -1.4789
  544MOL0     H73415  11.919   5.069   3.129 -1.9233  0.1836 -0.9274
  544MOL0     H73416  12.068   5.338   3.063  2.5201 -0.4754  1.3215
  544MOL0     H73417  11.971   5.255   2.947 -0.9178 -0.2399  0.8790
  544MOL0     H73418  12.234   5.169   3.093 -0.6784 -1.7423  0.1170
  544MOL0     H73419  12.145   5.055   2.997  0.1831 -0.3165  2.9365
  544MOL0     H73420  11.332   5.626   3.370 -0.9157  1.2635  1.5040
  544MOL0     H73421  11.104   5.725   3.367  1.1827  0.7421  2.9066
  544MOL0     H73422  10.569   5.522   3.222  2.6393  1.5498 -0.8840
  544MOL0     H73423  10.405   5.688   3.154  1.2740 -0.2690 -0.6665
  544MOL0     H73424   8.574   5.977   3.768 -0.9238 -0.6958  0.1619
  544MOL0     H73425   8.386   5.846   3.838  2.0823  2.0773  0.8380
  544MOL0     H73426   8.154   5.396   3.738 -1.8819 -3.1281 -1.5532
  544MOL0     H73427   8.060   5.195   3.774  0.9320 -0.2474 -0.7790
  544MOL0     H73428   8.157   4.961   4.163  0.9091  1.9584  0.3677
  544MOL0     H73429   8.245   4.892   4.012 -0.2212  1.7234  0.1089
  544MOL0     H73430   7.964   4.825   4.088 -0.2835 -1.3400  0.4738
  544MOL0     H73431   8.090   4.717   4.125  1.9953  2.2769  2.5974
  544MOL0     H73432   8.019   4.821   3.849  1.4738  2.5831  2.4900
  544MOL0     H73433   7.966   4.664   3.901  0.2535  1.1593 -1.5776
  544MOL0     H73434   8.252   4.769   3.834  0.2990  0.4535  1.1357
  544MOL0     H73435   8.217   4.630   3.947  0.7963  0.2215 -0.5240
  544MOL0     H73436   8.142   4.448   3.581  1.6670 -0.6678  1.4740
  544MOL0     H73437   8.291   5.132   4.134 -2.2044  2.3433  1.5471
  544MOL0     H73438   8.417   5.399   4.203  0.2962 -1.6469  1.3773
  544MOL0     H73439   8.467   5.232   4.171 -3.4177 -1.1833  0.9298
  544MOL0     H73440   8.528   5.368   4.064 -0.5037  2.5192 -0.3067
  545MOL0     O73441   6.165   4.126   2.231 -0.7216  0.2925  0.1272
  545MOL0     C73442   6.160   4.051   2.325  1.0538  0.2533  0.8067
  545MOL0     O73443   6.050   3.972   2.354 -0.3002  0.3248  0.5310
  545MOL0     C73444   5.930   3.967   2.280 -0.4110 -0.1913  0.9651
  545MOL0     C73445   5.868   4.070   2.211  0.4164  1.1584 -1.1748
  545MOL0     C73446   5.731   4.062   2.168  0.3313  0.4551 -0.5461
  545MOL0     C73447   5.657   3.945   2.194 -0.4302 -0.3251 -0.8890
  545MOL0     O73448   5.520   3.939   2.156  0.1659 -0.9468  0.5363
  545MOL0     C73449   5.499   3.845   2.047 -0.6044  0.2957  1.1438
  545MOL0     C73450   5.525   3.924   1.912 -0.8772  0.0078  0.2643
  545MOL0     C73451   5.546   3.828   1.788  0.1336  0.0807 -0.6324
  545MOL0     C73452   5.421   3.762   1.734  0.1691 -0.0030 -0.5119
  545MOL0     C73453   5.469   3.651   1.638  0.0367  0.4677  0.4141
  545MOL0     C73454   5.353   3.564   1.576  0.4129  0.0547  0.1536
  545MOL0     C73455   5.407   3.444   1.503  0.0162  0.5309 -0.4924
  545MOL0     C73456   5.488   3.474   1.375  0.2075 -0.6252  0.4538
  545MOL0     N73457   5.407   3.534   1.269  0.2900  0.4440 -0.7547
  545MOL0     C73458   5.317   3.466   1.190 -0.3380 -0.2555 -0.5423
  545MOL0     C73459   5.270   3.560   1.105  0.0993  0.0651 -0.4173
  545MOL0     C73460   5.169   3.534   0.999 -0.2219  0.0814  0.1173
  545MOL0     C73461   5.029   3.482   1.053  0.0637 -0.0179  0.4954
  545MOL0     C73462   4.919   3.498   0.938 -0.2234 -0.5090  0.4811
  545MOL0     C73463   4.919   3.376   0.863 -0.0788  0.4502 -0.4500
  545MOL0     O73464   4.829   3.376   0.752 -0.2251 -0.6359 -0.1436
  545MOL0     C73465   4.894   3.350   0.640 -0.7339  0.7399  0.4850
  545MOL0     C73466   5.016   3.390   0.603 -1.7739 -0.1598  0.1115
  545MOL0     C73467   5.067   3.331   0.487 -0.0591 -0.0310 -0.1575
  545MOL0     C73468   4.999   3.243   0.400  0.4213  0.6003 -0.3031
  545MOL0     C73469   5.052   3.198   0.271 -0.8169  0.5010  0.1102
  545MOL0     O73470   5.165   3.258   0.226  0.4729 -0.1028  0.2352
  545MOL0     C73471   5.236   3.216   0.112  1.1954  0.0798  0.4787
  545MOL0     C73472   5.361   3.155   0.119  0.0023  0.1368  0.6373
  545MOL0     C73473   5.431   3.116   0.004 -0.1597  0.6247  0.2605
  545MOL0     C73474   5.375   3.142  -0.127  0.1239  0.2916 -0.7262
  545MOL0     O73475   5.415   3.093  -0.249 -0.3462 -0.6906 -0.8030
  545MOL0     C73476   5.542   3.034  -0.259 -0.0858  0.2563 -0.2435
  545MOL0     C73477   5.556   2.959  -0.390  0.5387 -0.0765  0.5774
  545MOL0     C73478   5.678   2.872  -0.390 -0.8295  0.2158  0.9435
  545MOL0     C73479   5.705   2.814  -0.533 -1.0198  0.3239 -0.2158
  545MOL0     C73480   5.834   2.724  -0.536  0.5335 -0.3362 -0.4258
  545MOL0     C73481   5.861   2.671  -0.678  0.0944  0.0894  0.8501
  545MOL0     C73482   5.898   2.778  -0.789 -0.3370  0.2311 -1.0893
  545MOL0     C73483   6.015   2.864  -0.738 -0.8430 -0.2872  0.3161
  545MOL0    Cl73484   6.159   2.751  -0.718 -0.2689  0.3482 -0.1063
  545MOL0     C73485   5.253   3.208  -0.129  0.1678 -0.4706 -0.2241
  545MOL0     C73486   5.188   3.245  -0.014 -0.5223 -0.1169 -0.1323
  545MOL0     O73487   4.983   3.124   0.201  0.1214 -0.5627 -0.3955
  545MOL0     C73488   4.868   3.205   0.442  0.1848 -0.2121 -0.6479
  545MOL0     C73489   4.821   3.263   0.559  0.3724 -0.0897 -0.3968
  545MOL0     N73490   5.327   3.680   1.129 -0.9450  0.0353  0.2295
  545MOL0     N73491   5.410   3.665   1.231  0.0975 -0.3985  0.1826
  545MOL0     C73492   5.723   3.841   2.260  0.3668  0.5721 -0.3331
  545MOL0     C73493   5.858   3.855   2.307 -0.6536 -0.2927 -0.3793
  545MOL0     C73494   6.284   4.039   2.401 -0.1105  0.2538 -0.0152
  545MOL0     C73495   6.403   4.094   2.355 -0.4997 -0.3244 -0.2239
  545MOL0     C73496   6.527   4.074   2.418  0.4818 -1.4255  0.4306
  545MOL0     C73497   6.521   4.011   2.544 -0.2586  0.1211 -0.4753
  545MOL0     O73498   6.627   3.980   2.627 -0.3660 -0.2965  0.1500
  545MOL0     C73499   6.759   4.022   2.592 -0.0862  0.7400  0.8071
  545MOL0     C73500   6.849   3.964   2.707  0.1110 -0.4475  0.4256
  545MOL0     C73501   6.828   4.039   2.827  0.1404 -0.6221 -0.3216
  545MOL0     C73502   6.941   3.982   2.920 -0.3324  0.1631 -0.3378
  545MOL0     C73503   6.916   4.033   3.055  0.3523  0.1268 -0.7851
  545MOL0     C73504   6.867   4.081   3.163  0.1914 -0.4536 -0.3008
  545MOL0     C73505   6.404   3.967   2.597  0.5100  0.8780  0.2335
  545MOL0     C73506   6.280   3.978   2.530  0.9403  0.4844  0.2662
  545MOL0     C73507   6.151   3.934   2.606 -0.4652  0.7183 -0.4965
  545MOL0     H73508   5.925   4.161   2.193  3.4637  0.1702  2.2124
  545MOL0     H73509   5.684   4.151   2.127  1.6404  1.4830  0.0942
  545MOL0     H73510   5.572   3.764   2.048 -3.0862 -2.0803  0.7291
  545MOL0     H73511   5.397   3.805   2.050 -1.1764  1.4319 -0.8812
  545MOL0     H73512   5.618   3.982   1.913  0.5931 -2.1387 -1.6965
  545MOL0     H73513   5.443   3.996   1.902 -1.3646 -0.3510  1.4590
  545MOL0     H73514   5.619   3.750   1.813  0.4895  0.8856  0.9630
  545MOL0     H73515   5.590   3.887   1.708 -0.5786  2.6111  0.7255
  545MOL0     H73516   5.365   3.718   1.817 -1.3643 -0.6681 -1.8489
  545MOL0     H73517   5.360   3.839   1.684  0.5960  2.0739  1.9663
  545MOL0     H73518   5.529   3.693   1.557 -1.5288 -0.5314 -1.3339
  545MOL0     H73519   5.528   3.577   1.693 -2.5399 -2.5500 -0.5902
  545MOL0     H73520   5.288   3.541   1.661  1.8136  2.6500  2.0566
  545MOL0     H73521   5.295   3.630   1.511  1.4467  1.2103  0.3625
  545MOL0     H73522   5.320   3.387   1.468 -0.1073  1.4999 -1.8962
  545MOL0     H73523   5.464   3.390   1.578 -0.0147 -0.3355 -1.0845
  545MOL0     H73524   5.572   3.544   1.385  0.2994 -0.2901 -2.0646
  545MOL0     H73525   5.530   3.381   1.337 -0.2087  0.3759 -2.7703
  545MOL0     H73526   5.282   3.364   1.196 -4.3206  0.9958  2.1241
  545MOL0     H73527   5.157   3.630   0.947  1.8488  0.6266  0.5307
  545MOL0     H73528   5.209   3.455   0.936  1.5880  0.7133  0.4013
  545MOL0     H73529   5.036   3.380   1.091 -1.6366 -0.9022 -1.3474
  545MOL0     H73530   4.996   3.554   1.129 -0.8919 -2.4252  2.5176
  545MOL0     H73531   4.951   3.582   0.876  3.2968 -0.0509  2.6738
  545MOL0     H73532   4.825   3.523   0.989  0.7345 -0.8074  2.4838
  545MOL0     H73533   4.888   3.295   0.931  1.0866 -0.5596 -1.0701
  545MOL0     H73534   5.019   3.344   0.833 -0.2720 -1.0110  0.3271
  545MOL0     H73535   5.079   3.450   0.667 -0.9618  0.2509 -1.0314
  545MOL0     H73536   5.171   3.361   0.476  0.3550 -0.3582  2.3133
  545MOL0     H73537   5.393   3.121   0.217  3.4491  4.1824  1.1958
  545MOL0     H73538   5.521   3.055   0.010 -0.4361  0.3683  4.8370
  545MOL0     H73539   5.624   3.104  -0.244  2.7229 -2.5839 -1.0950
  545MOL0     H73540   5.552   2.960  -0.179 -0.2524 -0.3522 -0.7725
  545MOL0     H73541   5.468   2.899  -0.415  0.5711 -0.1555  0.6485
  545MOL0     H73542   5.566   3.037  -0.465  0.0035  2.2710  2.8181
  545MOL0     H73543   5.768   2.923  -0.355  0.8394 -0.5993 -1.8781
  545MOL0     H73544   5.646   2.784  -0.333 -0.0875 -1.7318 -1.4838
  545MOL0     H73545   5.710   2.896  -0.604  0.3678 -0.3167 -0.8909
  545MOL0     H73546   5.627   2.745  -0.564 -2.6310  0.9991  2.0447
  545MOL0     H73547   5.825   2.636  -0.471  2.1253  0.2149  0.6007
  545MOL0     H73548   5.914   2.787  -0.495 -0.9790  1.0357  0.5553
  545MOL0     H73549   5.935   2.590  -0.673  0.3113  0.1045 -1.4114
  545MOL0     H73550   5.778   2.608  -0.712  1.6476 -2.2591  1.1544
  545MOL0     H73551   5.802   2.829  -0.799 -0.4528  1.1505  3.1973
  545MOL0     H73552   5.928   2.729  -0.883 -1.1015 -0.9758 -0.7357
  545MOL0     H73553   6.045   2.939  -0.812  1.5765 -2.0440 -0.5883
  545MOL0     H73554   5.987   2.921  -0.649  1.9597  0.8147  0.5769
  545MOL0     H73555   5.205   3.216  -0.226 -0.2501  1.3066  0.1047
  545MOL0     H73556   5.099   3.307  -0.022  0.4056  1.3530  0.6185
  545MOL0     H73557   4.806   3.137   0.384 -2.5629 -0.6910  2.5225
  545MOL0     H73558   4.722   3.230   0.586  0.7918 -2.8569 -1.8966
  545MOL0     H73559   5.666   3.752   2.283  0.9750  0.6163  1.5171
  545MOL0     H73560   5.891   3.774   2.371  0.2656  0.7476  0.5071
  545MOL0     H73561   6.403   4.158   2.267 -2.1983 -3.0924 -2.3830
  545MOL0     H73562   6.622   4.090   2.368 -0.7918 -0.5250 -1.8632
  545MOL0     H73563   6.776   4.129   2.575  3.2000  0.0015 -1.6482
  545MOL0     H73564   6.798   3.967   2.506  2.0991  1.5900  1.1853
  545MOL0     H73565   6.953   3.980   2.675 -0.1396  0.1381 -0.1130
  545MOL0     H73566   6.818   3.862   2.730 -3.4433  0.4001 -0.1018
  545MOL0     H73567   6.732   4.020   2.875  0.3950 -0.5062  0.2490
  545MOL0     H73568   6.835   4.148   2.813 -3.3169 -0.3334 -0.6330
  545MOL0     H73569   6.956   3.874   2.921  1.4888  0.3744 -1.3233
  545MOL0     H73570   7.041   4.003   2.880 -0.6190  0.0959 -1.1101
  545MOL0     H73571   6.813   4.128   3.243  1.7268  2.8635 -1.0273
  545MOL0     H73572   6.404   3.904   2.686 -0.1592 -0.8519 -0.9424
  545MOL0     H73573   6.176   3.918   2.711 -3.4991 -1.6182 -0.0169
  545MOL0     H73574   6.076   4.010   2.585 -3.4692 -2.4311 -2.1081
  545MOL0     H73575   6.111   3.838   2.574 -2.0865  1.0415  0.4625
  546MOL0     O73576   8.328   7.608   0.139  0.2869 -0.9832 -0.1808
  546MOL0     C73577   8.306   7.508   0.211 -0.4527 -0.1416  0.4431
  546MOL0     O73578   8.402   7.420   0.246 -0.5489 -0.1972 -0.2214
  546MOL0     C73579   8.519   7.472   0.292 -0.9732 -0.6171 -0.1598
  546MOL0     C73580   8.641   7.433   0.237 -0.3063  0.5663  0.7624
  546MOL0     C73581   8.765   7.484   0.279 -0.3268  0.4381 -0.3512
  546MOL0     C73582   8.772   7.579   0.387  0.5660  0.0235  0.6236
  546MOL0     O73583   8.900   7.620   0.422  0.2840  0.1629  0.3756
  546MOL0     C73584   8.923   7.718   0.521  0.3479  0.3338 -0.6351
  546MOL0     C73585   9.071   7.738   0.551  0.5959  0.6347 -0.0092
  546MOL0     C73586   9.092   7.810   0.686  0.1285  0.7414  0.1365
  546MOL0     C73587   9.245   7.828   0.723 -0.4843 -0.0798  0.2982
  546MOL0     C73588   9.278   7.964   0.786  0.1734  0.6375 -0.7894
  546MOL0     C73589   9.427   7.976   0.816 -0.1542  0.3624 -1.1554
  546MOL0     C73590   9.447   8.114   0.890 -0.1207 -0.5075 -0.0950
  546MOL0     C73591   9.564   8.186   0.825  0.0669 -0.0788  0.4207
  546MOL0     N73592   9.699   8.154   0.875 -0.3304 -0.7071 -0.4088
  546MOL0     C73593   9.808   8.233   0.863 -0.9432  0.0797  0.2825
  546MOL0     C73594   9.924   8.166   0.896  0.1136 -0.7291 -0.5384
  546MOL0     C73595  10.066   8.224   0.883 -0.1180 -0.4563  0.6071
  546MOL0     C73596  10.183   8.138   0.931  0.1603  0.0821 -0.4529
  546MOL0     C73597  10.329   8.193   0.898  0.2181 -0.2424  0.3758
  546MOL0     C73598  10.360   8.307   1.000  0.3372  0.4499  0.0579
  546MOL0     O73599  10.435   8.412   0.940  0.0304  0.0191 -0.3810
  546MOL0     C73600  10.567   8.380   0.924  0.0342 -0.0407  0.0703
  546MOL0     C73601  10.634   8.361   1.037  0.5181  0.5389  0.1072
  546MOL0     C73602  10.769   8.318   1.037  0.0349 -0.4129  0.3379
  546MOL0     C73603  10.839   8.314   0.916  0.0026  0.0320  0.3181
  546MOL0     C73604  10.980   8.276   0.911 -0.3933  0.4977  0.4383
  546MOL0     O73605  11.036   8.215   1.021 -0.0088  0.2832  0.6359
  546MOL0     C73606  11.162   8.188   0.999 -0.2485 -0.0770  0.5569
  546MOL0     C73607  11.251   8.255   1.090  0.7796 -0.3602 -0.5062
  546MOL0     C73608  11.384   8.219   1.103  0.6184  0.7820  0.0737
  546MOL0     C73609  11.433   8.119   1.022  0.6892  0.4852  0.0619
  546MOL0     O73610  11.558   8.071   1.043  0.2863 -0.3122 -0.2754
  546MOL0     C73611  11.588   7.933   1.043  0.8598 -0.1406 -0.0067
  546MOL0     C73612  11.646   7.891   0.912 -0.7490  0.4842  0.1228
  546MOL0     C73613  11.787   7.945   0.877  0.1039  0.6797 -0.3635
  546MOL0     C73614  11.897   7.861   0.938 -1.1395 -0.5724 -0.3499
  546MOL0     C73615  12.039   7.916   0.908 -0.2407  0.8764 -0.0686
  546MOL0     C73616  12.137   7.901   1.032  0.5847  0.1025 -0.7974
  546MOL0     C73617  12.172   7.750   1.043 -0.2479 -0.4580 -0.2558
  546MOL0     C73618  12.317   7.742   1.110 -0.8897 -0.6317  0.3747
  546MOL0    Cl73619  12.371   7.583   1.102 -0.2590  0.2086  0.0013
  546MOL0     C73620  11.350   8.060   0.931 -0.5246 -0.5252 -0.1584
  546MOL0     C73621  11.212   8.087   0.920 -0.1418 -0.0655  0.4546
  546MOL0     O73622  11.043   8.322   0.814 -0.5158 -0.2554  0.2634
  546MOL0     C73623  10.764   8.328   0.798 -0.2731 -0.1491  0.3453
  546MOL0     C73624  10.625   8.354   0.801  0.2420 -0.3431  0.0609
  546MOL0     N73625   9.885   8.044   0.931 -0.2667  0.0514  0.3092
  546MOL0     N73626   9.754   8.037   0.923  0.4512  0.3929 -0.1991
  546MOL0     C73627   8.648   7.609   0.450 -0.1438 -0.6250  0.1668
  546MOL0     C73628   8.535   7.563   0.394  0.3766 -0.5450 -0.1656
  546MOL0     C73629   8.165   7.472   0.239  0.4650  0.1345  0.1653
  546MOL0     C73630   8.064   7.561   0.185 -0.3141  0.7035 -1.2263
  546MOL0     C73631   7.933   7.555   0.239 -0.0923 -0.5140  0.5352
  546MOL0     C73632   7.893   7.468   0.339 -0.2659  0.0382  0.1582
  546MOL0     O73633   7.763   7.466   0.391 -0.3581  0.2857 -0.3598
  546MOL0     C73634   7.652   7.483   0.295 -1.0857  0.2164  0.2878
  546MOL0     C73635   7.528   7.443   0.370  1.1393 -0.7717  0.1832
  546MOL0     C73636   7.391   7.501   0.318  0.5237  0.0718  0.1762
  546MOL0     C73637   7.274   7.436   0.389 -0.1902 -0.0744  0.0984
  546MOL0     C73638   7.149   7.468   0.327  0.8026 -0.3090 -0.1369
  546MOL0     C73639   7.048   7.505   0.265  0.1893  0.1427 -0.3182
  546MOL0     C73640   7.987   7.370   0.375 -0.0395  0.1822  0.3772
  546MOL0     C73641   8.118   7.367   0.327 -0.1454 -0.2036  0.2389
  546MOL0     C73642   8.207   7.251   0.360  0.0054  0.0938  0.5948
  546MOL0     H73643   8.643   7.361   0.156  0.9257 -0.4001  1.6145
  546MOL0     H73644   8.852   7.447   0.225  0.4212  3.3043 -1.3128
  546MOL0     H73645   8.873   7.815   0.516  0.1392  0.6381  3.5585
  546MOL0     H73646   8.885   7.672   0.612 -3.1965 -0.4944 -2.3520
  546MOL0     H73647   9.126   7.779   0.466  0.2678 -1.1992 -1.1760
  546MOL0     H73648   9.105   7.634   0.550 -1.4081 -0.0696 -1.0748
  546MOL0     H73649   9.047   7.768   0.777  0.1599  1.9452  0.7200
  546MOL0     H73650   9.047   7.908   0.669  1.6336  1.9663  2.6088
  546MOL0     H73651   9.264   7.745   0.792  1.5485 -0.6719 -0.8741
  546MOL0     H73652   9.306   7.809   0.634 -1.4874 -1.4081 -0.1520
  546MOL0     H73653   9.260   8.043   0.712 -1.0582  0.5752 -0.5759
  546MOL0     H73654   9.219   7.982   0.876  1.1968  2.0656 -0.3475
  546MOL0     H73655   9.448   7.894   0.885  2.7969  1.1659 -0.9830
  546MOL0     H73656   9.488   7.967   0.727 -0.7837 -0.0994 -1.5512
  546MOL0     H73657   9.458   8.088   0.995 -2.0368 -0.5151  0.1369
  546MOL0     H73658   9.365   8.187   0.880 -0.3452 -0.9210 -1.6585
  546MOL0     H73659   9.569   8.176   0.716 -1.5635  0.2078  0.2913
  546MOL0     H73660   9.559   8.293   0.848  0.4736  0.4164 -1.5941
  546MOL0     H73661   9.806   8.336   0.828  0.2127 -0.6835 -2.2367
  546MOL0     H73662  10.077   8.241   0.776 -1.1512  0.5736  0.6416
  546MOL0     H73663  10.059   8.325   0.924 -0.3016  0.9784 -2.6557
  546MOL0     H73664  10.175   8.118   1.038  1.6550 -4.8511 -1.0063
  546MOL0     H73665  10.179   8.044   0.876  0.3054 -0.1341 -0.0940
  546MOL0     H73666  10.333   8.223   0.793 -2.9426  1.3847  0.6042
  546MOL0     H73667  10.407   8.118   0.913  2.2624  1.6743 -0.1156
  546MOL0     H73668  10.410   8.257   1.082 -2.3408 -2.6811 -0.0152
  546MOL0     H73669  10.271   8.342   1.053  1.4715 -0.5799  2.7893
  546MOL0     H73670  10.596   8.369   1.139 -1.3686 -0.0605 -0.5199
  546MOL0     H73671  10.817   8.308   1.134  2.7773  2.9767 -0.4648
  546MOL0     H73672  11.220   8.330   1.162  2.4398 -0.9385  0.8881
  546MOL0     H73673  11.450   8.266   1.175  1.1156 -2.3613  1.8627
  546MOL0     H73674  11.653   7.914   1.129 -2.0458  0.5835  2.4817
  546MOL0     H73675  11.498   7.873   1.057  0.6976 -0.2048 -1.2140
  546MOL0     H73676  11.644   7.782   0.900 -3.3269 -0.0174  3.4469
  546MOL0     H73677  11.576   7.920   0.833 -2.4345 -0.4265  1.2015
  546MOL0     H73678  11.802   7.939   0.769  0.9707 -0.7208 -0.1869
  546MOL0     H73679  11.799   8.042   0.927  0.1375 -0.0881  1.1928
  546MOL0     H73680  11.893   7.756   0.907 -0.6630 -0.1564 -1.9431
  546MOL0     H73681  11.886   7.866   1.046 -0.9566  1.3328 -0.3958
  546MOL0     H73682  12.036   8.020   0.875 -3.4030  1.2105  0.8693
  546MOL0     H73683  12.072   7.859   0.822  3.2827  1.9648  0.4000
  546MOL0     H73684  12.220   7.969   1.010 -0.3504  0.8992 -2.0275
  546MOL0     H73685  12.088   7.933   1.124  0.1768  1.1709 -1.3654
  546MOL0     H73686  12.178   7.702   0.945  0.7224 -0.4830 -0.2005
  546MOL0     H73687  12.093   7.696   1.095 -0.4808 -0.2240 -0.3622
  546MOL0     H73688  12.390   7.798   1.050 -0.6809 -0.0074  1.1958
  546MOL0     H73689  12.316   7.781   1.212  0.7282  2.3962 -0.6573
  546MOL0     H73690  11.395   7.981   0.872  3.1457  0.0500  1.6114
  546MOL0     H73691  11.142   8.037   0.854  2.3444  0.7613 -3.1113
  546MOL0     H73692  10.816   8.319   0.704 -0.4840  0.5606  0.1546
  546MOL0     H73693  10.575   8.373   0.707  2.0943  0.5918 -0.7940
  546MOL0     H73694   8.639   7.677   0.534 -0.5873 -3.5164  2.6131
  546MOL0     H73695   8.440   7.600   0.431 -0.9439 -3.1475 -0.7234
  546MOL0     H73696   8.106   7.642   0.127  0.7641  2.6603  2.0083
  546MOL0     H73697   7.867   7.633   0.202  3.1929  1.8591 -0.7037
  546MOL0     H73698   7.671   7.430   0.201  2.9446 -0.3230  1.2192
  546MOL0     H73699   7.654   7.588   0.262 -2.5552  0.2658  0.2999
  546MOL0     H73700   7.533   7.474   0.475 -0.5258 -1.0290  0.3605
  546MOL0     H73701   7.523   7.335   0.381 -2.1883 -0.5766  1.8154
  546MOL0     H73702   7.376   7.492   0.210  0.4482  2.5773 -0.0648
  546MOL0     H73703   7.378   7.606   0.345  0.1453  0.2908 -0.8147
  546MOL0     H73704   7.278   7.327   0.377  0.7651  0.1231 -1.7604
  546MOL0     H73705   7.277   7.458   0.496 -0.8121 -2.1384  0.5917
  546MOL0     H73706   6.952   7.533   0.227 -0.3856  2.2139  2.3231
  546MOL0     H73707   7.959   7.296   0.450  2.1311 -0.2610  0.8276
  546MOL0     H73708   8.158   7.167   0.409 -2.3577  1.1258  0.1745
  546MOL0     H73709   8.259   7.214   0.271 -1.6551 -1.1750  0.1058
  546MOL0     H73710   8.292   7.281   0.421  0.1670  0.7068  0.0813
  547MOL0     O73711   6.533  10.720   2.032  0.5809 -0.3204 -0.4029
  547MOL0     C73712   6.495  10.608   2.067 -0.7167 -0.1167  0.3501
  547MOL0     O73713   6.553  10.531   2.166  0.3244  0.3128  0.2236
  547MOL0     C73714   6.659  10.574   2.245 -0.3862  1.0190 -0.7611
  547MOL0     C73715   6.693  10.711   2.270 -0.0357  0.4530  0.0887
  547MOL0     C73716   6.803  10.747   2.345  0.2969 -0.5845  0.1025
  547MOL0     C73717   6.884  10.650   2.403 -0.2673  0.2709 -0.5970
  547MOL0     O73718   6.995  10.690   2.473 -0.7036 -0.0868  0.1797
  547MOL0     C73719   7.100  10.601   2.493 -0.9360 -0.0164  0.1980
  547MOL0     C73720   7.199  10.664   2.594 -1.1729  0.1151 -0.6424
  547MOL0     C73721   7.265  10.800   2.545  0.5883  0.3141  0.0837
  547MOL0     C73722   7.395  10.851   2.608  1.1093 -0.5280  0.2805
  547MOL0     C73723   7.372  10.917   2.746 -1.5818  0.9765  0.6675
  547MOL0     C73724   7.304  11.050   2.741 -0.2984  0.4395  0.4461
  547MOL0     C73725   7.296  11.106   2.882  0.2908 -0.2792  0.8874
  547MOL0     C73726   7.181  11.054   2.959 -0.8107 -0.2031  0.3558
  547MOL0     N73727   7.171  11.114   3.098  0.4515 -0.4634 -0.6919
  547MOL0     C73728   7.136  11.248   3.128 -0.1531  0.8209 -0.1916
  547MOL0     C73729   7.195  11.273   3.251  0.1313 -0.3523 -0.5257
  547MOL0     C73730   7.202  11.408   3.311 -0.1776 -0.4569  0.5451
  547MOL0     C73731   7.279  11.503   3.220 -1.1470 -0.2332  0.1210
  547MOL0     C73732   7.417  11.455   3.163 -0.5242  0.1151  0.2421
  547MOL0     C73733   7.516  11.575   3.155 -0.8216  1.0083 -1.2620
  547MOL0     O73734   7.622  11.547   3.061  0.2240 -0.6549 -0.1586
  547MOL0     C73735   7.750  11.554   3.113  0.0161  0.3789  0.1254
  547MOL0     C73736   7.782  11.486   3.227 -0.0162  0.3475 -0.3364
  547MOL0     C73737   7.921  11.467   3.258  0.4334  0.4982 -0.8078
  547MOL0     C73738   8.025  11.497   3.162  0.3457 -0.3583 -1.1014
  547MOL0     C73739   8.165  11.473   3.204  0.6370  0.1244  0.2875
  547MOL0     O73740   8.261  11.499   3.116  0.0379  0.6637 -0.7771
  547MOL0     C73741   8.392  11.456   3.128  0.2654 -0.3253 -0.5374
  547MOL0     C73742   8.490  11.552   3.097 -0.3101  0.8959  0.1383
  547MOL0     C73743   8.628  11.512   3.100 -0.2637  0.4495  0.0133
  547MOL0     C73744   8.664  11.380   3.132  0.3809  0.2685 -0.5710
  547MOL0     O73745   8.792  11.329   3.146  0.4025  0.5973 -0.8922
  547MOL0     C73746   8.897  11.399   3.086  0.2264  0.6108 -0.9540
  547MOL0     C73747   9.019  11.305   3.077 -0.0427 -0.3993 -0.7502
  547MOL0     C73748   9.122  11.387   2.996 -0.3504 -0.0600  0.1823
  547MOL0     C73749   9.257  11.306   2.996 -0.7541 -0.3476 -0.1117
  547MOL0     C73750   9.374  11.402   2.965  0.4019 -0.4220 -0.4209
  547MOL0     C73751   9.506  11.329   2.950 -0.5416 -0.3124 -0.7913
  547MOL0     C73752   9.614  11.434   2.969 -0.2234  0.5496 -0.3077
  547MOL0     C73753   9.753  11.373   2.961 -0.0190 -0.3836 -0.3667
  547MOL0    Cl73754   9.868  11.503   2.927 -0.1821 -0.3595  0.1845
  547MOL0     C73755   8.562  11.291   3.163  0.1898  0.0988 -0.4244
  547MOL0     C73756   8.427  11.325   3.163 -0.2841  0.1174  0.3085
  547MOL0     O73757   8.187  11.421   3.315  0.1846 -0.9787  0.1545
  547MOL0     C73758   7.989  11.561   3.044  0.0726  0.2349 -1.1032
  547MOL0     C73759   7.850  11.590   3.017 -0.3546  0.9850 -0.1234
  547MOL0     N73760   7.242  11.155   3.306 -0.7280  0.5702 -0.0326
  547MOL0     N73761   7.241  11.065   3.208 -0.1611 -0.1654  0.2359
  547MOL0     C73762   6.846  10.515   2.385 -0.3382 -1.0538 -0.1634
  547MOL0     C73763   6.741  10.480   2.304  0.3848 -0.3279  0.2122
  547MOL0     C73764   6.387  10.558   1.986 -0.4045  0.3187 -0.2842
  547MOL0     C73765   6.353  10.627   1.865  0.1135 -0.3575 -0.4394
  547MOL0     C73766   6.241  10.583   1.792  0.2276  0.0781  0.3952
  547MOL0     C73767   6.166  10.473   1.828  0.5568 -0.8123  0.5200
  547MOL0     O73768   6.056  10.434   1.760  0.2014  0.0067 -0.8169
  547MOL0     C73769   6.077  10.419   1.625  0.5790 -0.9940 -0.0439
  547MOL0     C73770   5.992  10.307   1.565 -0.5640 -0.6527 -0.4172
  547MOL0     C73771   5.844  10.343   1.534  0.2416  0.4688  0.4819
  547MOL0     C73772   5.748  10.321   1.648 -0.7047 -0.3840 -0.1717
  547MOL0     C73773   5.747  10.175   1.688  1.2789 -1.3446 -0.4452
  547MOL0     C73774   5.753  10.065   1.730 -0.4193 -0.5586 -0.0517
  547MOL0     C73775   6.203  10.405   1.947 -0.9692  0.3033 -0.3253
  547MOL0     C73776   6.311  10.443   2.026 -0.6367 -0.1644  0.0203
  547MOL0     C73777   6.321  10.356   2.142 -0.6948  0.5922  0.0281
  547MOL0     H73778   6.631  10.794   2.238  0.2209  0.9228  0.7953
  547MOL0     H73779   6.832  10.850   2.363  0.1842 -0.5018 -0.1839
  547MOL0     H73780   7.074  10.506   2.542 -0.0577  0.5548  1.8572
  547MOL0     H73781   7.156  10.587   2.400  0.1766  0.0695  0.8389
  547MOL0     H73782   7.286  10.598   2.603 -0.1538  1.5630  0.9161
  547MOL0     H73783   7.157  10.672   2.694  0.9528  0.0861  0.2989
  547MOL0     H73784   7.191  10.877   2.568  2.3379  1.2789  2.9017
  547MOL0     H73785   7.293  10.793   2.439  0.3892  2.0488 -0.1051
  547MOL0     H73786   7.473  10.775   2.619 -0.9377 -2.5422  2.1437
  547MOL0     H73787   7.432  10.932   2.545  0.8843 -0.6200  0.0282
  547MOL0     H73788   7.322  10.844   2.809 -0.7996  0.6639  0.9310
  547MOL0     H73789   7.471  10.929   2.789 -0.6586 -0.3951 -0.9267
  547MOL0     H73790   7.356  11.114   2.670 -1.5839  1.5577  0.4792
  547MOL0     H73791   7.202  11.039   2.702 -1.9432  1.5497  4.0140
  547MOL0     H73792   7.296  11.215   2.879  0.7529 -0.2857  0.5312
  547MOL0     H73793   7.386  11.077   2.937  1.3857 -2.0895 -1.6890
  547MOL0     H73794   7.086  11.090   2.920 -0.0374  2.9150  1.0232
  547MOL0     H73795   7.176  10.945   2.962 -1.4004 -0.2593 -1.4340
  547MOL0     H73796   7.090  11.311   3.053 -0.0344  0.2493 -0.7558
  547MOL0     H73797   7.103  11.455   3.315 -0.2461 -0.6704  2.5050
  547MOL0     H73798   7.243  11.407   3.412  1.0526 -0.0463  0.0676
  547MOL0     H73799   7.229  11.524   3.125  0.0300  1.3928 -0.1787
  547MOL0     H73800   7.282  11.593   3.283 -3.4282 -0.3285  0.4534
  547MOL0     H73801   7.406  11.416   3.061 -1.3061  2.9175 -0.8583
  547MOL0     H73802   7.448  11.380   3.236 -0.2368 -1.9751 -1.8966
  547MOL0     H73803   7.545  11.581   3.260 -4.2323 -1.1560 -0.0389
  547MOL0     H73804   7.463  11.665   3.123 -1.8339 -0.0134 -2.5578
  547MOL0     H73805   7.716  11.434   3.296  0.1872 -0.6259 -0.8581
  547MOL0     H73806   7.941  11.410   3.348 -0.5796  1.6222  0.1658
  547MOL0     H73807   8.450  11.651   3.076 -1.0379  0.1322 -2.3451
  547MOL0     H73808   8.700  11.588   3.070  0.2367  0.6919  1.7231
  547MOL0     H73809   8.875  11.453   2.994 -1.3038  1.7914  0.0706
  547MOL0     H73810   8.924  11.479   3.155 -2.1933 -0.4120  1.3134
  547MOL0     H73811   9.062  11.280   3.175 -1.3451  0.8940  0.1980
  547MOL0     H73812   8.990  11.215   3.022 -2.7274  0.3475 -0.7363
  547MOL0     H73813   9.094  11.396   2.890  2.5720 -0.5232 -0.7249
  547MOL0     H73814   9.134  11.489   3.034 -0.4044 -0.5022  1.4030
  547MOL0     H73815   9.249  11.224   2.924  0.4683 -2.6352  2.1891
  547MOL0     H73816   9.279  11.257   3.092 -1.6093  0.4345  0.5028
  547MOL0     H73817   9.379  11.476   3.045 -3.6436  0.5347 -0.8840
  547MOL0     H73818   9.345  11.453   2.873 -0.6588 -1.7448 -0.8529
  547MOL0     H73819   9.520  11.246   3.021 -0.3560  1.8319  1.8414
  547MOL0     H73820   9.515  11.282   2.852 -1.4346 -2.0479 -0.0846
  547MOL0     H73821   9.608  11.474   3.070  1.7235 -1.5299  0.7370
  547MOL0     H73822   9.607  11.514   2.895 -1.5539  0.3667 -0.4174
  547MOL0     H73823   9.774  11.324   3.057 -1.7746  0.0342  0.2610
  547MOL0     H73824   9.748  11.302   2.878  0.1403  0.8029 -1.4226
  547MOL0     H73825   8.599  11.190   3.176 -3.7284 -1.6914 -1.5772
  547MOL0     H73826   8.355  11.246   3.183 -1.0413  0.9642  1.0023
  547MOL0     H73827   8.061  11.585   2.967  0.3080 -0.8007 -1.2264
  547MOL0     H73828   7.813  11.637   2.927 -1.4904 -2.4760 -1.6259
  547MOL0     H73829   6.904  10.445   2.446 -0.0911  0.3511  1.2698
  547MOL0     H73830   6.718  10.374   2.300 -3.1322  0.2937  0.4921
  547MOL0     H73831   6.403  10.716   1.827 -0.9930  1.8254  2.8230
  547MOL0     H73832   6.209  10.635   1.702 -2.9757 -3.4050 -0.7546
  547MOL0     H73833   6.178  10.409   1.585  0.9460  3.3523 -0.7099
  547MOL0     H73834   6.057  10.514   1.575  1.3966 -2.1357 -2.7349
  547MOL0     H73835   6.006  10.220   1.631  0.7951  0.0301  0.2496
  547MOL0     H73836   6.036  10.281   1.469 -0.8372  1.7717 -1.2659
  547MOL0     H73837   5.805  10.286   1.449  0.7378 -0.8772  1.1280
  547MOL0     H73838   5.842  10.444   1.494  0.8463 -0.5260 -2.3041
  547MOL0     H73839   5.788  10.377   1.733 -0.7727 -1.0356  0.3020
  547MOL0     H73840   5.647  10.358   1.628 -0.4314  0.8849  0.6897
  547MOL0     H73841   5.750   9.962   1.762 -1.7966  0.0800  2.0785
  547MOL0     H73842   6.159  10.311   1.980  2.4552 -1.4253 -0.2207
  547MOL0     H73843   6.274  10.393   2.234  1.2062  2.4426  0.3409
  547MOL0     H73844   6.287  10.254   2.124  0.1704  0.2770  0.1236
  547MOL0     H73845   6.426  10.337   2.167 -1.4495 -1.6982  1.9359
  548MOL0     O73846   5.181   2.086   2.444  0.7589  0.0111 -0.3136
  548MOL0     C73847   5.160   1.982   2.508  0.2791  0.5138 -0.2471
  548MOL0     O73848   5.261   1.908   2.563  0.0787  0.4523 -0.2611
  548MOL0     C73849   5.380   1.964   2.591 -0.4251 -0.5805  0.2547
  548MOL0     C73850   5.501   1.891   2.575 -1.1208 -1.0340 -0.4905
  548MOL0     C73851   5.631   1.950   2.614 -0.1239 -0.1033 -0.6351
  548MOL0     C73852   5.628   2.066   2.686 -0.4245  0.3881  0.8517
  548MOL0     O73853   5.747   2.118   2.735 -0.0195  0.6143 -0.0880
  548MOL0     C73854   5.744   2.237   2.816  0.3447  0.4659  0.3098
  548MOL0     C73855   5.887   2.269   2.875  0.0512 -0.8131 -0.1273
  548MOL0     C73856   5.980   2.259   2.751 -0.3440  0.0921  0.2001
  548MOL0     C73857   6.124   2.274   2.784  0.0863 -0.1822  0.1769
  548MOL0     C73858   6.223   2.237   2.663  0.3060 -0.2919 -0.9904
  548MOL0     C73859   6.213   2.345   2.546  0.2758 -0.1449 -0.1785
  548MOL0     C73860   6.335   2.373   2.463  0.6887  0.6719  1.0691
  548MOL0     C73861   6.339   2.262   2.352  0.1728 -0.1655 -0.0930
  548MOL0     N73862   6.486   2.242   2.333 -0.0689  0.4852  0.1230
  548MOL0     C73863   6.576   2.165   2.408  0.2867 -0.2155  0.6528
  548MOL0     C73864   6.697   2.170   2.342  0.5271  0.1117  0.5613
  548MOL0     C73865   6.821   2.089   2.360 -0.6955 -0.4691  1.2097
  548MOL0     C73866   6.950   2.164   2.324 -0.5338  0.5668  0.7312
  548MOL0     C73867   6.970   2.308   2.371  0.3324  0.5105  0.2676
  548MOL0     C73868   7.099   2.378   2.309  0.3582 -0.0137  0.0814
  548MOL0     O73869   7.218   2.320   2.363  0.9315 -0.0172  0.2624
  548MOL0     C73870   7.341   2.374   2.334 -0.5895 -0.1472  1.0208
  548MOL0     C73871   7.357   2.460   2.227 -0.4245  0.5041  1.2243
  548MOL0     C73872   7.484   2.528   2.208 -0.5730  0.2858 -0.1798
  548MOL0     C73873   7.578   2.528   2.319  0.6045 -0.5206 -0.3120
  548MOL0     C73874   7.697   2.621   2.320 -0.3435  0.7748 -0.0908
  548MOL0     O73875   7.755   2.638   2.441 -0.2888 -0.4397  0.0836
  548MOL0     C73876   7.868   2.723   2.440  0.1370 -0.5901  0.1271
  548MOL0     C73877   7.996   2.666   2.425 -0.0267 -0.3348 -0.2899
  548MOL0     C73878   8.118   2.742   2.448 -0.1610  0.6376 -0.4367
  548MOL0     C73879   8.096   2.882   2.469 -0.7630 -0.4302  0.5671
  548MOL0     O73880   8.197   2.975   2.470  0.2196 -0.7046  0.4126
  548MOL0     C73881   8.323   2.951   2.410  0.1650  0.0634 -1.0009
  548MOL0     C73882   8.387   3.085   2.383  1.0289 -0.0825 -0.2596
  548MOL0     C73883   8.525   3.065   2.316  0.6365 -0.3300 -0.0726
  548MOL0     C73884   8.585   3.201   2.279  0.8486 -0.2871  0.1029
  548MOL0     C73885   8.722   3.194   2.226 -0.1347 -0.3621 -0.0132
  548MOL0     C73886   8.766   3.327   2.164  0.1804 -0.3089  0.4317
  548MOL0     C73887   8.901   3.323   2.115 -0.0183  0.5528 -1.2229
  548MOL0     C73888   9.000   3.362   2.213  0.5430 -0.2905 -0.2641
  548MOL0    Cl73889   9.157   3.358   2.126 -0.2747 -0.2217 -0.1215
  548MOL0     C73890   7.966   2.943   2.479 -0.3112  0.2667  0.1274
  548MOL0     C73891   7.852   2.863   2.462  0.1666  0.1211  0.1420
  548MOL0     O73892   7.725   2.682   2.213  0.0566 -0.0262  0.2159
  548MOL0     C73893   7.555   2.440   2.429 -0.0683 -0.6969 -0.3760
  548MOL0     C73894   7.437   2.365   2.437 -0.1652 -0.6181  0.3836
  548MOL0     N73895   6.676   2.250   2.234 -1.4084 -0.3204  0.7167
  548MOL0     N73896   6.549   2.287   2.220  0.0814  0.1485 -0.2053
  548MOL0     C73897   5.507   2.143   2.688  0.4872  0.3824 -0.0218
  548MOL0     C73898   5.389   2.095   2.646  0.6735  0.1170 -0.5253
  548MOL0     C73899   5.027   1.914   2.516 -0.5356 -0.6491 -0.0332
  548MOL0     C73900   5.024   1.771   2.543  1.0057 -0.0313  0.4146
  548MOL0     C73901   4.900   1.703   2.556  0.3317  0.1280 -0.4030
  548MOL0     C73902   4.778   1.778   2.535  0.4776  0.2740 -0.6391
  548MOL0     O73903   4.664   1.711   2.560 -0.2654  0.6586  0.3954
  548MOL0     C73904   4.535   1.777   2.558 -0.2585  0.0849 -0.0442
  548MOL0     C73905   4.422   1.674   2.588 -0.8973  0.1322 -0.4620
  548MOL0     C73906   4.270   1.723   2.573  0.2490 -0.4498  0.0429
  548MOL0     C73907   4.216   1.736   2.432  0.4133  0.2316  0.3671
  548MOL0     C73908   4.071   1.774   2.436  0.5857 -0.0450 -0.0701
  548MOL0     C73909   3.952   1.793   2.442 -0.8235 -0.7869 -0.1154
  548MOL0     C73910   4.777   1.917   2.512  1.2193 -0.1676 -0.1873
  548MOL0     C73911   4.901   1.987   2.511  0.3127 -0.3183  0.2952
  548MOL0     C73912   4.894   2.136   2.491  0.4727 -0.0203  0.4394
  548MOL0     H73913   5.513   1.787   2.544 -0.7996 -1.4944  1.1042
  548MOL0     H73914   5.723   1.897   2.593  1.4951  2.7589 -1.2066
  548MOL0     H73915   5.711   2.321   2.754 -0.2686  1.3068  1.7241
  548MOL0     H73916   5.670   2.227   2.896  1.1426 -0.9087  0.9125
  548MOL0     H73917   5.912   2.199   2.955  2.3483  1.7076  1.5380
  548MOL0     H73918   5.892   2.367   2.923  2.9614 -0.1899 -1.4486
  548MOL0     H73919   5.954   2.332   2.674 -2.4647  1.6309  2.2146
  548MOL0     H73920   5.971   2.163   2.701 -3.5939  2.0753 -3.5119
  548MOL0     H73921   6.132   2.382   2.800 -1.8110  0.1199 -0.6801
  548MOL0     H73922   6.161   2.217   2.870  0.4485 -0.6002 -0.2454
  548MOL0     H73923   6.325   2.229   2.700 -0.3386 -0.0217  0.9608
  548MOL0     H73924   6.185   2.141   2.629  3.5831 -1.8518 -0.5856
  548MOL0     H73925   6.125   2.317   2.488 -0.0791 -2.5148  1.3675
  548MOL0     H73926   6.195   2.442   2.593  2.1053  0.4752 -0.6603
  548MOL0     H73927   6.429   2.374   2.520  0.4876  1.7834  1.3970
  548MOL0     H73928   6.331   2.472   2.416  0.4424  0.7717  1.2968
  548MOL0     H73929   6.298   2.165   2.382  0.4275 -0.1426  0.3428
  548MOL0     H73930   6.286   2.299   2.264 -0.7484  3.0768  1.6608
  548MOL0     H73931   6.549   2.114   2.500 -1.2160 -0.2855  0.1898
  548MOL0     H73932   6.824   2.042   2.459 -0.6389 -3.5344 -0.1082
  548MOL0     H73933   6.808   2.002   2.295  0.5293 -0.1704  0.5480
  548MOL0     H73934   7.038   2.103   2.346 -0.4025 -0.5103 -2.3558
  548MOL0     H73935   6.949   2.165   2.215 -0.3690  1.0810  0.7291
  548MOL0     H73936   6.983   2.307   2.480  0.8422 -1.4290  0.2301
  548MOL0     H73937   6.887   2.371   2.339  0.5714 -0.1151 -1.6904
  548MOL0     H73938   7.098   2.485   2.329  0.0396  0.0676 -0.3612
  548MOL0     H73939   7.096   2.361   2.201 -2.5189  3.8279 -0.6706
  548MOL0     H73940   7.292   2.456   2.140  2.6109 -2.2753 -1.1679
  548MOL0     H73941   7.506   2.589   2.121  2.1685  0.8861  0.8119
  548MOL0     H73942   7.993   2.558   2.411  1.6956 -0.8196  2.3934
  548MOL0     H73943   8.216   2.698   2.431  0.1393 -0.4098  3.2097
  548MOL0     H73944   8.379   2.894   2.485 -3.6429 -1.5606  0.8302
  548MOL0     H73945   8.325   2.903   2.312  1.2116  1.2028 -1.5672
  548MOL0     H73946   8.318   3.147   2.326 -0.8030  0.4133  2.3538
  548MOL0     H73947   8.402   3.133   2.481  0.7422 -0.9809  0.2355
  548MOL0     H73948   8.587   3.009   2.387 -0.3938  0.1016  1.2073
  548MOL0     H73949   8.508   2.999   2.231  0.2147 -2.6194  1.6680
  548MOL0     H73950   8.576   3.271   2.362  0.3661  0.0215 -0.2040
  548MOL0     H73951   8.521   3.255   2.208  1.1831  3.5265  2.4222
  548MOL0     H73952   8.720   3.118   2.147  1.5600 -2.5255  1.8852
  548MOL0     H73953   8.807   3.171   2.290  1.4361  0.2091 -1.8241
  548MOL0     H73954   8.696   3.344   2.082  1.0225  0.4456 -0.1388
  548MOL0     H73955   8.764   3.405   2.241 -0.5749 -2.2846  2.5388
  548MOL0     H73956   8.904   3.396   2.033  1.0018  2.1344  0.1608
  548MOL0     H73957   8.911   3.221   2.078 -0.7961  0.8813 -2.3908
  548MOL0     H73958   8.984   3.467   2.237 -0.5263  0.7627 -4.7479
  548MOL0     H73959   8.987   3.306   2.307 -0.2219  2.8432  1.6663
  548MOL0     H73960   7.959   3.049   2.504 -3.7855  0.5260 -1.3913
  548MOL0     H73961   7.750   2.895   2.478 -0.3025 -0.7381 -0.9951
  548MOL0     H73962   7.618   2.448   2.517  0.4252 -1.9104 -0.5951
  548MOL0     H73963   7.416   2.312   2.529 -1.9287  0.4667  0.6499
  548MOL0     H73964   5.501   2.241   2.733 -1.4380  0.6938 -0.8667
  548MOL0     H73965   5.302   2.157   2.668 -0.9938 -2.2552 -0.0103
  548MOL0     H73966   5.121   1.723   2.551  0.2512 -1.7846 -0.3929
  548MOL0     H73967   4.898   1.598   2.582  1.1053  0.1741 -0.1572
  548MOL0     H73968   4.511   1.817   2.459 -2.6555  0.6096  0.6808
  548MOL0     H73969   4.513   1.855   2.632 -2.7723 -0.1998 -0.4096
  548MOL0     H73970   4.437   1.630   2.687 -0.9937 -1.4163 -1.1023
  548MOL0     H73971   4.425   1.591   2.518 -1.3491 -0.4791  0.2210
  548MOL0     H73972   4.263   1.813   2.634 -1.3830 -2.5598  3.2532
  548MOL0     H73973   4.212   1.640   2.616  0.0814 -1.5031 -2.0692
  548MOL0     H73974   4.272   1.816   2.383 -0.4755  0.9460  0.4842
  548MOL0     H73975   4.232   1.641   2.381 -0.5010  0.4316 -0.3204
  548MOL0     H73976   3.847   1.808   2.457 -1.6589 -3.5970 -2.3790
  548MOL0     H73977   4.689   1.978   2.499 -1.3749 -3.6194 -0.2800
  548MOL0     H73978   4.902   2.167   2.387  0.9760 -0.6869  0.2738
  548MOL0     H73979   4.799   2.173   2.531 -0.2164 -1.1287 -0.1367
  548MOL0     H73980   4.975   2.191   2.540 -0.5909  1.4887  0.5570
  549MOL0     O73981   5.352   1.982  10.673  0.0954 -0.2082 -0.2746
  549MOL0     C73982   5.230   1.962  10.674 -0.6214 -0.4047  0.2960
  549MOL0     O73983   5.162   1.881  10.588  0.4347 -0.2245  0.0948
  549MOL0     C73984   5.227   1.852  10.466 -0.2053  0.3593  0.3734
  549MOL0     C73985   5.320   1.743  10.448  0.8404 -0.5139 -0.5846
  549MOL0     C73986   5.351   1.702  10.317 -0.6453 -1.0975  0.0115
  549MOL0     C73987   5.299   1.763  10.199  0.3374 -0.1390 -0.8477
  549MOL0     O73988   5.321   1.727  10.071  0.5084 -0.4408 -0.0782
  549MOL0     C73989   5.441   1.661  10.042  0.1407 -0.1052 -0.0240
  549MOL0     C73990   5.541   1.764  10.003  0.3619  0.3922  0.4124
  549MOL0     C73991   5.677   1.692  10.029  0.1872 -0.1685  0.4112
  549MOL0     C73992   5.809   1.783  10.022  0.8242 -0.0601  0.5630
  549MOL0     C73993   5.820   1.850   9.883 -0.8213 -0.0618  0.3925
  549MOL0     C73994   5.964   1.923   9.869 -0.2573  0.2910 -0.1257
  549MOL0     C73995   6.050   1.853   9.771 -0.3020 -0.1118 -1.2982
  549MOL0     C73996   6.196   1.900   9.788 -0.3557 -0.0127  0.0584
  549MOL0     N73997   6.269   1.844   9.664 -0.3064 -0.4808 -0.4291
  549MOL0     C73998   6.292   1.715   9.628  0.3402  0.5450 -0.6980
  549MOL0     C73999   6.349   1.727   9.504 -0.1272  0.0274 -0.3576
  549MOL0     C74000   6.384   1.611   9.410 -0.4328 -0.1207 -0.0360
  549MOL0     C74001   6.480   1.510   9.472 -0.2101  0.6349 -0.7054
  549MOL0     C74002   6.595   1.582   9.529 -0.4942 -0.3709 -0.1023
  549MOL0     C74003   6.713   1.481   9.549 -0.4281  0.4573  0.0554
  549MOL0     O74004   6.779   1.420   9.426  0.0691 -0.0172  0.4779
  549MOL0     C74005   6.873   1.323   9.448  0.4269  0.0113 -0.2384
  549MOL0     C74006   6.932   1.279   9.334  1.0562  0.2729  0.3135
  549MOL0     C74007   7.040   1.191   9.339  0.3723 -0.3315 -0.7352
  549MOL0     C74008   7.092   1.141   9.457  0.1428 -0.4539 -0.8584
  549MOL0     C74009   7.192   1.037   9.457 -0.5218  0.9325  0.5464
  549MOL0     O74010   7.256   1.015   9.335 -0.1876  0.3085 -0.1421
  549MOL0     C74011   7.375   0.941   9.326 -0.4774 -0.7365 -0.0492
  549MOL0     C74012   7.406   0.824   9.392 -0.2229  1.0466 -0.5808
  549MOL0     C74013   7.528   0.752   9.376  0.7976 -0.1492  0.2255
  549MOL0     C74014   7.625   0.800   9.282 -0.0483 -0.6027 -1.0272
  549MOL0     O74015   7.736   0.737   9.247  0.3886 -0.1812  0.4828
  549MOL0     C74016   7.785   0.627   9.334  0.4473  0.3496 -0.2771
  549MOL0     C74017   7.924   0.588   9.280  0.4838 -0.2115  0.1226
  549MOL0     C74018   8.023   0.699   9.314 -0.7730 -0.0746  0.7017
  549MOL0     C74019   8.155   0.657   9.233  0.0508 -0.2103 -0.3136
  549MOL0     C74020   8.269   0.738   9.289  0.2284 -0.1842 -0.0580
  549MOL0     C74021   8.410   0.708   9.225 -0.4670  0.1970 -0.2667
  549MOL0     C74022   8.509   0.791   9.313 -0.3125  0.2940  0.3258
  549MOL0     C74023   8.650   0.756   9.281 -0.2731 -0.1582  0.2543
  549MOL0    Cl74024   8.753   0.808   9.407  0.0335  0.1404 -0.5931
  549MOL0     C74025   7.597   0.927   9.222 -0.2194  0.1504  0.0278
  549MOL0     C74026   7.476   0.994   9.250  0.6643 -0.6199 -0.8426
  549MOL0     O74027   7.233   0.996   9.560  0.6192  1.0449  0.3007
  549MOL0     C74028   7.036   1.196   9.576  0.3887 -0.4110 -0.4595
  549MOL0     C74029   6.930   1.285   9.570  0.9554 -0.7724  0.3334
  549MOL0     N74030   6.350   1.859   9.469 -0.1148  0.1817 -0.8610
  549MOL0     N74031   6.289   1.930   9.559  0.0175  0.3069  0.3991
  549MOL0     C74032   5.217   1.874  10.220  0.1397  0.7914  0.6133
  549MOL0     C74033   5.180   1.918  10.347  0.0937 -0.0282 -0.3881
  549MOL0     C74034   5.144   2.038  10.763 -0.1381 -0.0048 -0.3009
  549MOL0     C74035   5.036   2.095  10.713  0.5431  0.2918  0.0817
  549MOL0     C74036   4.948   2.175  10.787 -0.2324  0.9378 -0.0092
  549MOL0     C74037   4.974   2.192  10.924  0.0231 -0.8128 -0.6175
  549MOL0     O74038   4.903   2.280  11.008  0.1104 -0.1013  0.4318
  549MOL0     C74039   4.794   2.365  10.956 -0.3737 -0.3044  0.2868
  549MOL0     C74040   4.741   2.462  11.062  0.1759 -0.4299  0.4989
  549MOL0     C74041   4.847   2.552  11.117  0.4849 -0.3776  0.1021
  549MOL0     C74042   4.805   2.638  11.233 -0.9711  0.5677  0.5958
  549MOL0     C74043   4.910   2.738  11.252 -0.3467  0.8675  0.0349
  549MOL0     C74044   5.005   2.813  11.272 -0.1758 -0.2801 -0.5781
  549MOL0     C74045   5.083   2.123  10.980 -0.5349  1.3113  1.0071
  549MOL0     C74046   5.168   2.041  10.900  0.7314  0.1598  0.6463
  549MOL0     C74047   5.280   1.958  10.963  0.5083 -0.4734 -0.0570
  549MOL0     H74048   5.355   1.675  10.525 -0.8878 -2.0696 -1.0869
  549MOL0     H74049   5.415   1.614  10.309 -0.3164 -0.7323 -1.8132
  549MOL0     H74050   5.481   1.596  10.120 -3.2618 -3.0157 -0.4274
  549MOL0     H74051   5.419   1.591   9.960 -1.9479 -2.4086  2.3203
  549MOL0     H74052   5.530   1.850  10.069 -0.9031  1.1373 -0.7286
  549MOL0     H74053   5.530   1.789   9.898  0.3345 -0.9018  0.0837
  549MOL0     H74054   5.694   1.608   9.962  0.7164 -0.4155  0.8480
  549MOL0     H74055   5.688   1.657  10.132  1.0702  0.1040  0.4145
  549MOL0     H74056   5.800   1.869  10.089  0.4416  1.9389 -1.8979
  549MOL0     H74057   5.903   1.743  10.062  0.6014  0.5361  1.7528
  549MOL0     H74058   5.811   1.774   9.805  1.1509 -0.9110  0.9547
  549MOL0     H74059   5.742   1.927   9.878 -0.2869  0.4233 -0.8885
  549MOL0     H74060   5.956   2.028   9.840  1.5893 -0.0434 -2.0744
  549MOL0     H74061   6.001   1.916   9.972 -0.2200  0.2898 -0.1395
  549MOL0     H74062   6.012   1.866   9.669 -3.5489 -0.0406 -0.2110
  549MOL0     H74063   6.041   1.746   9.795 -3.1720  0.4070  0.4780
  549MOL0     H74064   6.186   2.009   9.774 -2.8728 -0.1478  0.4705
  549MOL0     H74065   6.245   1.865   9.879 -0.3029  1.6684  0.7169
  549MOL0     H74066   6.267   1.630   9.691  0.2219  0.6769 -0.5662
  549MOL0     H74067   6.291   1.562   9.380  0.1178 -0.5912 -1.0230
  549MOL0     H74068   6.431   1.649   9.318  1.1768 -1.7424  0.0499
  549MOL0     H74069   6.434   1.451   9.552  2.9746 -0.0760  0.7493
  549MOL0     H74070   6.532   1.459   9.392  2.5839  1.2741  0.5927
  549MOL0     H74071   6.577   1.635   9.623  1.2593 -0.3652  0.2700
  549MOL0     H74072   6.623   1.665   9.464 -2.1874  0.2289 -0.0935
  549MOL0     H74073   6.682   1.396   9.611 -1.0271  0.6284 -0.0080
  549MOL0     H74074   6.797   1.531   9.598 -0.9505  2.6307 -1.1265
  549MOL0     H74075   6.898   1.306   9.235 -2.2751  1.1695  1.5729
  549MOL0     H74076   7.081   1.159   9.244  0.5365  0.6018 -0.9872
  549MOL0     H74077   7.336   0.784   9.465  0.8093 -0.9211 -0.5938
  549MOL0     H74078   7.544   0.663   9.436 -1.7051 -1.1623 -0.4663
  549MOL0     H74079   7.788   0.647   9.442 -2.6076  0.8239 -0.1959
  549MOL0     H74080   7.717   0.541   9.334  1.6977 -0.7027  0.8359
  549MOL0     H74081   7.951   0.497   9.335 -2.0193 -1.0227  0.1382
  549MOL0     H74082   7.918   0.563   9.174 -2.8070 -1.5508  0.4962
  549MOL0     H74083   7.995   0.792   9.264  2.6782  0.5151 -0.3548
  549MOL0     H74084   8.047   0.710   9.420  1.2164 -0.6493  0.3442
  549MOL0     H74085   8.134   0.678   9.127 -3.4506  0.2798  0.3595
  549MOL0     H74086   8.187   0.553   9.243  2.1607  0.5035  1.1401
  549MOL0     H74087   8.265   0.721   9.397 -2.2217 -1.4957 -0.2709
  549MOL0     H74088   8.244   0.842   9.266 -0.2165 -0.4599 -0.8738
  549MOL0     H74089   8.437   0.603   9.230 -1.5276 -0.0392  1.4119
  549MOL0     H74090   8.414   0.751   9.124 -2.8089  0.8462 -0.1591
  549MOL0     H74091   8.495   0.768   9.419  1.0650  2.6178  1.0921
  549MOL0     H74092   8.484   0.897   9.304 -1.3220  0.0977  0.7412
  549MOL0     H74093   8.663   0.648   9.269  1.2905  0.3185 -3.9431
  549MOL0     H74094   8.680   0.805   9.188  0.2473 -1.4224 -0.2658
  549MOL0     H74095   7.666   0.977   9.155 -2.5668  0.6397 -2.2151
  549MOL0     H74096   7.460   1.087   9.197 -0.7368 -1.0627 -1.2399
  549MOL0     H74097   7.058   1.156   9.674  0.6827  2.3039  0.6390
  549MOL0     H74098   6.887   1.320   9.664  0.3145 -0.7627  0.0448
  549MOL0     H74099   5.170   1.934  10.143 -1.2297  1.7429  2.1378
  549MOL0     H74100   5.113   2.003  10.357  0.9093  0.4668  1.3191
  549MOL0     H74101   5.008   2.075  10.609  0.7948 -0.5865  0.1737
  549MOL0     H74102   4.852   2.209  10.749 -0.7404 -1.5073 -1.1125
  549MOL0     H74103   4.723   2.292  10.916 -0.2022  1.1505 -2.9471
  549MOL0     H74104   4.823   2.421  10.867 -1.2374 -0.4168 -0.0763
  549MOL0     H74105   4.702   2.397  11.141 -2.8302 -0.4196 -0.8276
  549MOL0     H74106   4.665   2.526  11.015  1.3341 -1.9273 -3.8738
  549MOL0     H74107   4.880   2.615  11.033  1.5233 -1.2152 -0.1445
  549MOL0     H74108   4.928   2.482  11.140  0.3765  0.1158  2.1042
  549MOL0     H74109   4.706   2.684  11.223 -0.6977  0.8344 -1.1613
  549MOL0     H74110   4.793   2.578  11.324  2.0996 -1.0503  0.0453
  549MOL0     H74111   5.097   2.858  11.301  0.7273 -3.3704  1.8725
  549MOL0     H74112   5.103   2.140  11.086 -0.0676 -0.7057  1.2980
  549MOL0     H74113   5.233   1.900  11.044 -1.7928  2.2979  0.7537
  549MOL0     H74114   5.321   1.878  10.901  0.0765 -0.1396 -0.7787
  549MOL0     H74115   5.358   2.015  11.014  1.1259 -0.4158 -1.0434
  550MOL0     O74116   1.145   3.710   1.502 -0.8720  0.4104  0.0694
  550MOL0     C74117   1.180   3.826   1.471  0.1732  0.1033 -0.7509
  550MOL0     O74118   1.299   3.875   1.488 -0.0034 -0.4383 -0.3884
  550MOL0     C74119   1.375   3.862   1.596 -0.1891 -0.4242 -0.3968
  550MOL0     C74120   1.503   3.908   1.576 -0.2132 -0.0190 -0.6004
  550MOL0     C74121   1.592   3.904   1.681 -0.0913  0.6315  0.2609
  550MOL0     C74122   1.546   3.875   1.814 -0.3717 -0.3009  0.5961
  550MOL0     O74123   1.612   3.888   1.931 -0.5563 -0.0457 -0.3299
  550MOL0     C74124   1.754   3.915   1.924  0.8289 -0.0709 -0.8443
  550MOL0     C74125   1.816   3.841   2.040  0.5214  0.1468  0.5102
  550MOL0     C74126   1.968   3.874   2.047  0.7456 -0.6309  0.0034
  550MOL0     C74127   2.050   3.808   1.936  0.1914  0.4898 -0.2605
  550MOL0     C74128   2.207   3.797   1.942 -0.2019  0.3553 -0.1676
  550MOL0     C74129   2.249   3.723   2.067 -0.3132  0.2149  0.9437
  550MOL0     C74130   2.398   3.743   2.087 -0.4346  0.7404  0.5946
  550MOL0     C74131   2.482   3.656   1.990 -0.1947 -0.6437  0.6747
  550MOL0     N74132   2.607   3.721   1.965 -0.5917  0.0736 -0.3842
  550MOL0     C74133   2.689   3.773   2.059  0.3131 -0.5967 -0.9332
  550MOL0     C74134   2.780   3.848   1.988  0.1684  0.1306 -0.1743
  550MOL0     C74135   2.902   3.909   2.056 -0.2272 -0.0294  0.6982
  550MOL0     C74136   3.041   3.850   2.014 -0.9555  1.0831 -0.0247
  550MOL0     C74137   3.052   3.696   2.048  0.3573  0.3573  0.0898
  550MOL0     C74138   3.075   3.651   2.189  0.1865  0.4893 -0.9560
  550MOL0     O74139   3.150   3.740   2.273  0.1189  0.9742 -0.2938
  550MOL0     C74140   3.287   3.703   2.269  0.7087 -0.3274 -0.1119
  550MOL0     C74141   3.371   3.806   2.216 -0.2610  0.0703 -0.1425
  550MOL0     C74142   3.510   3.797   2.217  0.2599 -0.0927  0.7007
  550MOL0     C74143   3.574   3.675   2.259  0.1067 -1.0384 -0.1384
  550MOL0     C74144   3.721   3.651   2.245  0.1025 -0.5539  0.0595
  550MOL0     O74145   3.774   3.530   2.252 -0.1854 -0.0045 -0.0179
  550MOL0     C74146   3.905   3.514   2.218  0.0647  0.0296  0.4408
  550MOL0     C74147   3.989   3.453   2.312  0.5374 -1.2074  0.2368
  550MOL0     C74148   4.118   3.426   2.272  0.1706 -0.2135  0.4959
  550MOL0     C74149   4.167   3.482   2.155 -0.0114  0.3011 -0.1513
  550MOL0     O74150   4.307   3.482   2.137 -0.2625  0.5651  0.0334
  550MOL0     C74151   4.363   3.431   2.022 -1.0910  0.2754 -0.0234
  550MOL0     C74152   4.507   3.394   2.047  0.9953 -0.3026 -0.1951
  550MOL0     C74153   4.566   3.346   1.916 -0.0851 -0.5112 -1.1893
  550MOL0     C74154   4.718   3.321   1.927 -0.2603 -0.3409 -0.6761
  550MOL0     C74155   4.770   3.300   1.791  0.6825 -0.4533 -0.5878
  550MOL0     C74156   4.917   3.319   1.781  0.3660 -0.0191 -0.1620
  550MOL0     C74157   4.965   3.278   1.633  0.4437 -0.1303  0.0006
  550MOL0     C74158   4.982   3.407   1.557  0.3000  0.6469 -0.3982
  550MOL0    Cl74159   5.046   3.381   1.390  0.3260  0.1269 -0.2229
  550MOL0     C74160   4.080   3.546   2.065 -0.1515 -0.0085  0.0340
  550MOL0     C74161   3.944   3.559   2.088 -0.0745  0.5703 -0.1341
  550MOL0     O74162   3.791   3.757   2.231 -0.0991 -0.0921  0.4620
  550MOL0     C74163   3.484   3.571   2.307  0.1949 -0.5959 -0.2255
  550MOL0     C74164   3.345   3.589   2.315  0.0934 -1.2164  0.1258
  550MOL0     N74165   2.752   3.847   1.857 -0.5638  0.4537  0.3294
  550MOL0     N74166   2.647   3.773   1.846 -0.6445  0.5056 -0.5293
  550MOL0     C74167   1.415   3.836   1.825  0.8356  0.6611 -0.4851
  550MOL0     C74168   1.330   3.829   1.721 -0.4180  0.6106 -0.1787
  550MOL0     C74169   1.073   3.905   1.408 -0.5860 -0.6962 -0.1230
  550MOL0     C74170   1.104   4.045   1.383 -0.2935 -0.1684 -0.5571
  550MOL0     C74171   1.017   4.126   1.313  0.3483  0.7497 -0.7224
  550MOL0     C74172   0.890   4.078   1.270  0.3750  0.1883  0.3467
  550MOL0     O74173   0.791   4.141   1.199 -0.3737  0.1408  0.2646
  550MOL0     C74174   0.812   4.277   1.161  0.4183  0.2867 -0.5142
  550MOL0     C74175   0.685   4.326   1.101  0.1445 -1.2229 -0.6577
  550MOL0     C74176   0.638   4.248   0.981  0.3637  0.2590  0.2272
  550MOL0     C74177   0.500   4.291   0.934  0.3171  0.1345  0.6745
  550MOL0     C74178   0.514   4.420   0.874  0.2756 -0.0718 -0.3741
  550MOL0     C74179   0.530   4.527   0.814  0.9142  0.6851  0.5044
  550MOL0     C74180   0.862   3.946   1.296 -0.1901  0.7421 -0.5025
  550MOL0     C74181   0.944   3.863   1.372  0.3157 -0.0695 -0.6798
  550MOL0     C74182   0.886   3.726   1.411 -0.3186  0.2173 -0.6961
  550MOL0     H74183   1.539   3.932   1.476 -0.6720  0.9478 -0.5389
  550MOL0     H74184   1.691   3.939   1.655  0.4357 -0.1127  1.1868
  550MOL0     H74185   1.798   3.885   1.829 -1.2264 -0.0891 -1.8345
  550MOL0     H74186   1.772   4.022   1.941  0.5404  0.5603 -3.9485
  550MOL0     H74187   1.796   3.734   2.029  0.0473  0.3474 -0.8575
  550MOL0     H74188   1.769   3.878   2.131 -2.4850 -1.2038 -0.3566
  550MOL0     H74189   1.992   3.845   2.150 -2.1746  0.3036  1.0630
  550MOL0     H74190   1.987   3.982   2.039  0.5263 -0.6696 -1.2497
  550MOL0     H74191   2.007   3.707   1.929  0.1040  0.3205  1.9580
  550MOL0     H74192   2.022   3.841   1.836 -1.5742  0.5230  0.2169
  550MOL0     H74193   2.248   3.746   1.855 -2.2523 -0.0092 -0.9802
  550MOL0     H74194   2.241   3.901   1.938 -1.4335  0.8734  1.5162
  550MOL0     H74195   2.200   3.767   2.154  0.4877 -0.0296  1.5253
  550MOL0     H74196   2.217   3.618   2.069 -2.5880  0.8533  0.7263
  550MOL0     H74197   2.419   3.716   2.191 -0.3712  1.5601  0.7973
  550MOL0     H74198   2.432   3.845   2.071  2.4718 -0.0251  1.3795
  550MOL0     H74199   2.504   3.553   2.019 -3.9158 -1.4448  1.1098
  550MOL0     H74200   2.434   3.641   1.893 -0.9218 -0.6149  1.0236
  550MOL0     H74201   2.691   3.760   2.167 -0.6022 -0.4976 -0.8992
  550MOL0     H74202   2.899   4.018   2.050  1.4062  0.0611  1.0424
  550MOL0     H74203   2.880   3.894   2.162 -1.5168  5.0371  1.3905
  550MOL0     H74204   3.042   3.864   1.906  0.5353  3.4157  0.2180
  550MOL0     H74205   3.126   3.901   2.060 -1.3068 -0.2524  2.2893
  550MOL0     H74206   3.137   3.668   1.986 -0.5836  2.2859 -2.2479
  550MOL0     H74207   2.972   3.646   1.993  1.1813  0.8295 -1.6072
  550MOL0     H74208   3.114   3.550   2.200 -1.9968 -0.3761 -0.6418
  550MOL0     H74209   2.979   3.644   2.241  0.1988 -2.1023 -1.1717
  550MOL0     H74210   3.316   3.895   2.187 -1.9044 -0.5282  0.9516
  550MOL0     H74211   3.563   3.880   2.172 -1.0773 -0.0376 -0.8617
  550MOL0     H74212   3.953   3.433   2.413 -0.6379  0.1099  0.1070
  550MOL0     H74213   4.184   3.380   2.345  3.2264 -0.4494 -2.2079
  550MOL0     H74214   4.316   3.336   1.993  0.1172 -0.7543  1.3003
  550MOL0     H74215   4.355   3.503   1.940 -0.6211  1.1996  0.7253
  550MOL0     H74216   4.554   3.483   2.088  0.2430  0.5164 -1.0519
  550MOL0     H74217   4.512   3.322   2.129 -0.1143 -1.2853 -0.9424
  550MOL0     H74218   4.509   3.258   1.884 -0.3687 -1.0878  0.7948
  550MOL0     H74219   4.560   3.426   1.841  2.1554 -0.2660 -1.1799
  550MOL0     H74220   4.741   3.242   2.000 -2.5331  1.3592  2.1080
  550MOL0     H74221   4.756   3.412   1.974  0.8972 -1.6502  1.0638
  550MOL0     H74222   4.712   3.357   1.718 -3.8732 -1.3478  1.9093
  550MOL0     H74223   4.755   3.192   1.777 -1.8815 -0.2068 -0.2588
  550MOL0     H74224   4.952   3.419   1.809  2.8707 -1.1073  0.8756
  550MOL0     H74225   4.964   3.248   1.850 -2.5672 -0.9573  1.0221
  550MOL0     H74226   4.890   3.220   1.579 -0.8971  1.9237 -0.4348
  550MOL0     H74227   5.064   3.231   1.639  0.4024 -0.1009  1.1187
  550MOL0     H74228   4.885   3.455   1.541  0.5735  0.5751 -2.5923
  550MOL0     H74229   5.049   3.459   1.627 -0.3803 -1.0441  1.6200
  550MOL0     H74230   4.127   3.572   1.971 -0.3590 -0.1569 -0.1127
  550MOL0     H74231   3.875   3.600   2.015  0.3585  0.4578 -0.6130
  550MOL0     H74232   3.534   3.483   2.345 -0.3768 -1.7787 -2.0588
  550MOL0     H74233   3.280   3.515   2.360 -0.9894  1.1409  2.7399
  550MOL0     H74234   1.380   3.798   1.920 -0.2112  2.0053 -0.3123
  550MOL0     H74235   1.226   3.798   1.727  0.4022 -2.1340  1.7040
  550MOL0     H74236   1.201   4.090   1.401  0.0741 -1.5280  1.0863
  550MOL0     H74237   1.042   4.229   1.290  1.6920  0.3925 -0.9408
  550MOL0     H74238   0.898   4.294   1.095  1.6681  3.0131  1.6072
  550MOL0     H74239   0.835   4.335   1.251 -3.0866 -2.5378  2.5397
  550MOL0     H74240   0.699   4.430   1.070  1.7053 -1.1435  0.2306
  550MOL0     H74241   0.612   4.326   1.182  0.1911  1.6241 -0.5240
  550MOL0     H74242   0.639   4.141   1.005 -1.9595 -0.1241 -1.0600
  550MOL0     H74243   0.706   4.259   0.896 -2.8202  2.1105 -2.3291
  550MOL0     H74244   0.454   4.218   0.866  0.2524 -0.9636  1.8539
  550MOL0     H74245   0.441   4.301   1.025 -0.2622  0.9492  0.2193
  550MOL0     H74246   0.526   4.615   0.754  2.9972 -0.2568 -1.1445
  550MOL0     H74247   0.765   3.901   1.274 -0.7615  0.6658  1.9026
  550MOL0     H74248   0.925   3.657   1.336  4.1391 -0.5077  1.9342
  550MOL0     H74249   0.903   3.692   1.513 -0.4813  1.2470 -0.3156
  550MOL0     H74250   0.777   3.730   1.401 -0.3041 -1.2252 -1.9443
  551MOL0     O74251  10.176   3.724   6.052 -0.0716  0.0122  0.4087
  551MOL0     C74252  10.170   3.774   5.938 -0.7691  1.2597 -0.3065
  551MOL0     O74253  10.279   3.782   5.858 -0.4314 -0.4496 -0.6331
  551MOL0     C74254  10.407   3.763   5.910 -0.1799 -0.3442 -1.0302
  551MOL0     C74255  10.469   3.855   6.004 -0.1551 -0.3458 -0.0191
  551MOL0     C74256  10.603   3.851   6.044  0.7823 -0.1615 -0.6666
  551MOL0     C74257  10.676   3.736   6.004  0.5740  0.2755  0.7630
  551MOL0     O74258  10.806   3.705   6.042 -0.0580 -0.0343 -0.4249
  551MOL0     C74259  10.878   3.815   6.093 -0.1613 -0.3565 -0.4774
  551MOL0     C74260  11.027   3.789   6.119  0.2528 -0.1847 -0.1205
  551MOL0     C74261  11.045   3.649   6.188 -0.7595  0.7087  0.1034
  551MOL0     C74262  11.193   3.626   6.225  0.2617 -0.1097  0.0974
  551MOL0     C74263  11.216   3.479   6.248 -0.2894 -0.1008  0.1921
  551MOL0     C74264  11.365   3.450   6.257 -0.4777 -0.7657 -1.0310
  551MOL0     C74265  11.442   3.516   6.371  0.6597 -1.1101 -0.1471
  551MOL0     C74266  11.409   3.457   6.509  0.3564  0.4898 -0.3317
  551MOL0     N74267  11.451   3.320   6.531  0.2776 -0.0176  0.4140
  551MOL0     C74268  11.569   3.252   6.507 -0.9983  0.1261 -0.7979
  551MOL0     C74269  11.566   3.142   6.575  0.4911  0.0144 -0.3588
  551MOL0     C74270  11.672   3.038   6.575 -0.6149 -0.9252  0.9780
  551MOL0     C74271  11.718   3.023   6.720  0.0477 -0.0153 -0.7403
  551MOL0     C74272  11.613   2.953   6.817  0.1389 -0.5533 -0.3020
  551MOL0     C74273  11.569   2.819   6.753 -1.0205  1.0007  0.3208
  551MOL0     O74274  11.494   2.733   6.846  0.1159  0.3365 -0.3304
  551MOL0     C74275  11.555   2.639   6.933 -0.1234  0.5885 -0.0597
  551MOL0     C74276  11.690   2.601   6.925  0.5417  0.9449  0.3174
  551MOL0     C74277  11.755   2.511   7.008 -0.4420  0.4749 -0.6042
  551MOL0     C74278  11.685   2.437   7.104 -0.2962 -0.0725 -0.3846
  551MOL0     C74279  11.746   2.337   7.187 -0.0036  0.3239 -0.2718
  551MOL0     O74280  11.871   2.307   7.161 -0.5010 -0.0796  0.2121
  551MOL0     C74281  11.961   2.287   7.267 -0.2538  0.2116 -0.1185
  551MOL0     C74282  12.052   2.186   7.264  0.2437 -0.2987  0.4606
  551MOL0     C74283  12.153   2.174   7.362  0.4984 -0.0456 -0.5542
  551MOL0     C74284  12.159   2.255   7.476 -0.1806 -0.0591 -0.7498
  551MOL0     O74285  12.265   2.232   7.560 -0.4386 -0.8561  0.1483
  551MOL0     C74286  12.276   2.322   7.679 -0.6774 -0.1354  0.0047
  551MOL0     C74287  12.402   2.297   7.770 -0.0159  1.4532  1.1087
  551MOL0     C74288  12.404   2.167   7.846  0.0228  0.4907 -0.5585
  551MOL0     C74289  12.541   2.141   7.920  0.3122  0.2771 -0.3783
  551MOL0     C74290  12.534   2.010   8.003 -1.1396 -0.5338  0.0581
  551MOL0     C74291  12.510   1.888   7.916 -0.7137 -0.4032 -0.1400
  551MOL0     C74292  12.499   1.761   7.996  0.3341 -0.2094  0.4466
  551MOL0     C74293  12.474   1.632   7.932 -0.2659  0.4457 -0.4441
  551MOL0    Cl74294  12.588   1.610   7.795  0.1596  0.3200 -0.2334
  551MOL0     C74295  12.062   2.347   7.485 -0.5190 -0.2525 -0.7082
  551MOL0     C74296  11.968   2.362   7.388  0.0503 -0.2079 -0.1620
  551MOL0     O74297  11.684   2.287   7.277  0.3017  0.2494  0.4812
  551MOL0     C74298  11.545   2.470   7.113 -0.2910  0.4894 -0.7573
  551MOL0     C74299  11.483   2.563   7.027 -0.2143  0.4638 -0.3471
  551MOL0     N74300  11.437   3.132   6.623 -0.7659  0.5346 -0.4754
  551MOL0     N74301  11.364   3.238   6.601 -0.5522 -0.2012 -0.2453
  551MOL0     C74302  10.623   3.658   5.895 -0.0962 -0.4792  0.0651
  551MOL0     C74303  10.493   3.668   5.851  0.3673 -0.8943  1.0208
  551MOL0     C74304  10.039   3.819   5.884 -0.5520  0.5669 -0.9022
  551MOL0     C74305   9.953   3.886   5.967  0.2080  0.2320 -0.0025
  551MOL0     C74306   9.832   3.940   5.918 -0.0756 -0.1403  0.0619
  551MOL0     C74307   9.814   3.940   5.782  0.1105  0.3924 -1.3061
  551MOL0     O74308   9.710   3.986   5.716  0.0174 -0.2644 -0.1261
  551MOL0     C74309   9.588   4.030   5.782 -0.3317  0.0738  0.4114
  551MOL0     C74310   9.476   4.056   5.681  0.4036  1.2784 -0.0564
  551MOL0     C74311   9.335   4.033   5.729  1.0735  0.2224 -0.5088
  551MOL0     C74312   9.311   4.063   5.879 -0.1697 -0.1896 -0.3165
  551MOL0     C74313   9.355   4.198   5.923  0.9572  0.5850 -0.1482
  551MOL0     C74314   9.393   4.302   5.968  1.3756  0.5004 -0.3734
  551MOL0     C74315   9.907   3.879   5.696 -0.2555  0.3006 -0.1142
  551MOL0     C74316  10.019   3.813   5.747  0.9071 -0.0121  0.0191
  551MOL0     C74317  10.111   3.766   5.639  0.2325  0.4383 -0.3728
  551MOL0     H74318  10.405   3.937   6.034 -2.4892 -1.3380 -1.8713
  551MOL0     H74319  10.645   3.926   6.110  1.9195 -1.7236  0.4443
  551MOL0     H74320  10.876   3.899   6.023 -1.1479 -0.2781 -0.3668
  551MOL0     H74321  10.831   3.842   6.188 -1.3118 -0.7038 -0.9263
  551MOL0     H74322  11.073   3.865   6.183  0.6537  0.4488 -1.1417
  551MOL0     H74323  11.085   3.774   6.028  0.1473 -0.2905 -0.1713
  551MOL0     H74324  11.010   3.572   6.119  2.0132  0.7736 -1.5442
  551MOL0     H74325  10.996   3.647   6.286 -0.2436  2.4593  0.4407
  551MOL0     H74326  11.260   3.662   6.146  0.4721 -3.0149 -1.1989
  551MOL0     H74327  11.215   3.694   6.308 -0.0555  0.1048  0.0082
  551MOL0     H74328  11.166   3.440   6.337  2.2606 -0.5482  1.5456
  551MOL0     H74329  11.190   3.430   6.154  1.8912 -1.8238  0.4073
  551MOL0     H74330  11.364   3.342   6.272  0.3396 -0.5425  0.9758
  551MOL0     H74331  11.408   3.471   6.159 -0.2073 -1.3681 -1.0430
  551MOL0     H74332  11.413   3.621   6.379  0.4461 -1.0532 -1.4519
  551MOL0     H74333  11.549   3.496   6.356  0.8458 -1.0695  1.0110
  551MOL0     H74334  11.463   3.521   6.580 -0.5189  1.9847 -0.9673
  551MOL0     H74335  11.304   3.448   6.539  0.6212 -0.5408  0.3253
  551MOL0     H74336  11.660   3.291   6.461 -0.3310 -2.8478 -2.2610
  551MOL0     H74337  11.648   2.941   6.531 -1.9055 -0.8159  1.3920
  551MOL0     H74338  11.759   3.080   6.524 -2.5944  1.6070 -0.5715
  551MOL0     H74339  11.807   2.961   6.711 -0.9903 -1.5970 -0.5471
  551MOL0     H74340  11.746   3.118   6.768  1.9904 -0.4488 -0.9531
  551MOL0     H74341  11.528   3.013   6.848  0.1989 -0.9937  0.7511
  551MOL0     H74342  11.663   2.939   6.913 -0.0618 -1.3156 -0.3039
  551MOL0     H74343  11.647   2.751   6.717  0.3933  0.3045  4.2137
  551MOL0     H74344  11.508   2.843   6.665 -2.1201 -0.8365  0.5416
  551MOL0     H74345  11.758   2.646   6.853  1.8686 -2.5810 -0.8620
  551MOL0     H74346  11.860   2.488   6.995 -0.6728  0.3103 -2.4019
  551MOL0     H74347  12.052   2.120   7.177 -0.0194 -2.7485  2.1988
  551MOL0     H74348  12.229   2.096   7.368 -1.6769 -2.1931  2.0401
  551MOL0     H74349  12.308   2.420   7.640  2.6551 -0.6495  1.1444
  551MOL0     H74350  12.182   2.322   7.735  0.4295  1.7638  2.0344
  551MOL0     H74351  12.492   2.302   7.707 -0.0844 -2.1161  0.4956
  551MOL0     H74352  12.414   2.377   7.843  0.8183  1.4274  1.0100
  551MOL0     H74353  12.321   2.175   7.917  0.1525  3.4327 -0.6016
  551MOL0     H74354  12.384   2.088   7.773 -1.0254  2.1783 -2.2186
  551MOL0     H74355  12.551   2.232   7.981  2.4277 -1.4472  2.0506
  551MOL0     H74356  12.620   2.131   7.846  0.4906  0.2218 -0.1819
  551MOL0     H74357  12.465   2.011   8.088  3.6741  2.8964  4.6319
  551MOL0     H74358  12.631   1.994   8.051  0.6291  3.0365 -1.9040
  551MOL0     H74359  12.414   1.904   7.865 -1.5534  0.4781  1.6398
  551MOL0     H74360  12.598   1.876   7.852  0.3781 -1.0647  1.4200
  551MOL0     H74361  12.422   1.772   8.073 -0.1032 -1.6351  0.2371
  551MOL0     H74362  12.590   1.748   8.056  0.2264 -2.3062  0.2547
  551MOL0     H74363  12.505   1.557   8.005  1.8474  3.1236  1.6407
  551MOL0     H74364  12.367   1.622   7.915 -0.3806  0.8315  0.0505
  551MOL0     H74365  12.056   2.415   7.571 -0.1727  0.1010 -0.9603
  551MOL0     H74366  11.894   2.439   7.408  0.4082 -0.2251  1.3011
  551MOL0     H74367  11.488   2.415   7.186 -0.1855 -1.2765 -1.9587
  551MOL0     H74368  11.375   2.570   7.038 -0.6900 -2.9731 -1.4936
  551MOL0     H74369  10.676   3.578   5.845 -0.2375  0.2793 -1.3703
  551MOL0     H74370  10.457   3.599   5.775 -1.2459 -1.5514  2.2983
  551MOL0     H74371   9.973   3.884   6.073  0.7052 -1.5098 -0.0895
  551MOL0     H74372   9.759   3.995   5.977  1.5641  0.0877  2.0000
  551MOL0     H74373   9.616   4.115   5.844 -2.2270 -0.4685  2.0957
  551MOL0     H74374   9.562   3.959   5.860 -0.1573  1.0443  1.3757
  551MOL0     H74375   9.485   3.990   5.594 -0.4823  0.7288  0.2534
  551MOL0     H74376   9.478   4.159   5.642 -1.3395  1.3309 -0.1297
  551MOL0     H74377   9.303   3.930   5.712  1.1304  0.1391 -0.1212
  551MOL0     H74378   9.276   4.101   5.667 -0.1336  0.3511  0.7318
  551MOL0     H74379   9.207   4.051   5.912  0.2439 -3.1533  0.2200
  551MOL0     H74380   9.366   3.996   5.946  1.8181  3.3436  1.8671
  551MOL0     H74381   9.418   4.386   6.029 -2.2116  1.4145  0.0587
  551MOL0     H74382   9.877   3.897   5.593 -3.6188  2.6823  1.0984
  551MOL0     H74383  10.058   3.739   5.548  0.0117  1.2038 -0.4780
  551MOL0     H74384  10.201   3.827   5.627 -0.3734  2.2553  2.9426
  551MOL0     H74385  10.143   3.670   5.679  1.2771  1.2020  0.7009
  552MOL0     O74386  10.213   6.313   5.165 -0.3592  0.3099  0.0428
  552MOL0     C74387  10.147   6.261   5.071  0.1852 -0.1398  0.2262
  552MOL0     O74388  10.207   6.193   4.961  0.9726  0.4721  0.4416
  552MOL0     C74389  10.337   6.155   4.957  0.4301 -0.1826  0.8375
  552MOL0     C74390  10.440   6.230   5.008 -0.4523  0.1649 -0.0716
  552MOL0     C74391  10.574   6.173   4.990 -0.0330 -0.3381 -0.1855
  552MOL0     C74392  10.600   6.043   4.929 -0.2855 -0.1792 -0.1510
  552MOL0     O74393  10.722   5.979   4.924 -0.5512 -0.2698  0.5183
  552MOL0     C74394  10.814   6.012   5.031  0.9184  0.4857  0.1850
  552MOL0     C74395  10.941   5.945   5.008 -0.1565 -0.0407 -0.6417
  552MOL0     C74396  11.035   5.997   5.120 -0.2939 -0.0314  0.3757
  552MOL0     C74397  11.164   5.919   5.095 -0.0805 -0.4510 -0.1219
  552MOL0     C74398  11.269   5.999   5.163 -0.5092 -0.2038  0.3024
  552MOL0     C74399  11.412   5.935   5.139  0.5205  0.1370  1.0005
  552MOL0     C74400  11.515   6.011   5.225  0.0430  0.3096  0.8579
  552MOL0     C74401  11.654   5.956   5.190 -0.5882 -0.8661 -0.2495
  552MOL0     N74402  11.743   6.038   5.262  0.0187 -0.5305 -0.9290
  552MOL0     C74403  11.853   5.995   5.327  0.2132  0.5564  0.3645
  552MOL0     C74404  11.927   6.103   5.347  0.4132 -0.1072 -0.6918
  552MOL0     C74405  12.061   6.098   5.416 -0.4437 -0.2684 -0.2096
  552MOL0     C74406  12.077   6.020   5.547 -0.0960 -0.1986  0.1096
  552MOL0     C74407  12.226   6.030   5.588  0.1173  0.4448 -0.2243
  552MOL0     C74408  12.346   6.005   5.481 -0.2139  0.1490 -0.4294
  552MOL0     O74409  12.358   5.867   5.451  0.6234 -1.0889 -0.1950
  552MOL0     C74410  12.459   5.781   5.498  0.4958 -0.2473 -0.2627
  552MOL0     C74411  12.540   5.816   5.610 -0.1846  0.4709 -0.2588
  552MOL0     C74412  12.638   5.723   5.650  0.3898  0.3630  0.2381
  552MOL0     C74413  12.659   5.604   5.583  0.2371  0.4600 -0.7827
  552MOL0     C74414  12.772   5.527   5.619 -0.0246  0.3805  0.4756
  552MOL0     O74415  12.794   5.422   5.536 -0.7796  0.1622 -0.3672
  552MOL0     C74416  12.903   5.343   5.563 -0.3152  0.2056  0.7979
  552MOL0     C74417  12.880   5.209   5.572  0.4197 -0.6024 -0.9808
  552MOL0     C74418  12.987   5.122   5.574 -0.4494  0.6751  0.2648
  552MOL0     C74419  13.122   5.159   5.571  0.1810  0.9461 -0.0195
  552MOL0     O74420  13.219   5.065   5.575 -0.7041  0.4371 -0.1753
  552MOL0     C74421  13.349   5.104   5.629  0.3307  0.4519  0.0579
  552MOL0     C74422  13.426   4.970   5.653  0.5116  0.4443 -0.1913
  552MOL0     C74423  13.563   5.007   5.731  0.1354 -0.1034 -0.4583
  552MOL0     C74424  13.667   4.909   5.696  0.1511 -0.1357  0.7975
  552MOL0     C74425  13.803   4.964   5.748  0.0393  0.7301 -0.3056
  552MOL0     C74426  13.912   4.875   5.707 -0.6257 -0.0089  0.3862
  552MOL0     C74427  14.030   4.930   5.778  0.2997  0.4811 -0.3979
  552MOL0     C74428  14.156   4.841   5.735 -0.1746 -0.6194  0.4095
  552MOL0    Cl74429  14.130   4.697   5.830  0.3485 -0.4833  0.1315
  552MOL0     C74430  13.141   5.296   5.571  0.4296 -1.0295  0.3373
  552MOL0     C74431  13.037   5.390   5.559  0.1669  0.3075 -0.1803
  552MOL0     O74432  12.830   5.540   5.725 -0.3723  0.4629  0.2894
  552MOL0     C74433  12.585   5.578   5.470  0.2751 -0.1267 -0.3956
  552MOL0     C74434  12.488   5.664   5.426  1.0088 -0.0158 -0.6100
  552MOL0     N74435  11.856   6.211   5.305  0.0686 -0.1160  0.0258
  552MOL0     N74436  11.749   6.173   5.252  0.4979 -0.0171  1.1081
  552MOL0     C74437  10.486   5.980   4.866 -0.0651 -1.2399 -0.3996
  552MOL0     C74438  10.358   6.042   4.876 -0.3547 -0.0739 -0.8112
  552MOL0     C74439  10.001   6.257   5.078  0.6873 -0.5511 -0.4731
  552MOL0     C74440   9.928   6.135   5.039  0.1471 -0.0141 -0.1613
  552MOL0     C74441   9.787   6.126   5.055 -0.3765  0.2605  0.4355
  552MOL0     C74442   9.718   6.247   5.090 -0.0081 -0.1470 -0.4735
  552MOL0     O74443   9.584   6.238   5.093  0.0016 -0.0383  1.4443
  552MOL0     C74444   9.517   6.341   5.158 -0.1669  0.2296  1.1649
  552MOL0     C74445   9.375   6.303   5.178 -0.1896  0.2745  0.2671
  552MOL0     C74446   9.346   6.176   5.265 -0.7104  0.3694  0.5053
  552MOL0     C74447   9.194   6.164   5.287  0.1289  0.5747 -0.6873
  552MOL0     C74448   9.173   6.049   5.370 -0.8511 -0.1612 -0.5525
  552MOL0     C74449   9.185   5.937   5.422  1.0421 -0.8439  0.4446
  552MOL0     C74450   9.788   6.363   5.129 -0.0339 -0.0510  0.0702
  552MOL0     C74451   9.926   6.381   5.113 -0.4976 -0.4165  0.2618
  552MOL0     C74452   9.991   6.514   5.137  0.0289 -0.3959  0.2106
  552MOL0     H74453  10.432   6.329   5.050 -1.1700 -0.2052  0.6948
  552MOL0     H74454  10.652   6.237   5.030  0.0936  0.1383 -1.1440
  552MOL0     H74455  10.830   6.120   5.028  0.0767  0.6048 -2.1145
  552MOL0     H74456  10.774   5.989   5.130 -2.2897 -1.4584 -1.3580
  552MOL0     H74457  10.972   5.980   4.909 -2.1074  3.9171 -0.0869
  552MOL0     H74458  10.932   5.837   5.022  1.6657 -0.4306 -2.1724
  552MOL0     H74459  10.997   5.974   5.220  0.2112 -0.6000  0.4427
  552MOL0     H74460  11.048   6.106   5.122 -0.2522 -0.0458  1.2045
  552MOL0     H74461  11.159   5.818   5.137 -1.0856  0.2648  1.6024
  552MOL0     H74462  11.190   5.907   4.989 -0.5164  2.4028 -0.6391
  552MOL0     H74463  11.275   6.099   5.120 -0.1382  0.0420  0.9182
  552MOL0     H74464  11.242   6.004   5.269 -2.4792  1.5655 -0.2267
  552MOL0     H74465  11.417   5.827   5.156  0.3418 -0.0274  0.0826
  552MOL0     H74466  11.434   5.955   5.034 -2.1957  0.0931  0.3392
  552MOL0     H74467  11.489   5.994   5.330 -2.1216  3.7748  1.0591
  552MOL0     H74468  11.507   6.118   5.204 -0.8087  0.1182  0.1559
  552MOL0     H74469  11.669   5.849   5.207  1.0668 -0.5285  0.5876
  552MOL0     H74470  11.667   5.972   5.083 -1.2967 -1.8916 -0.5101
  552MOL0     H74471  11.885   5.893   5.346 -3.4814 -0.6542  0.8389
  552MOL0     H74472  12.122   6.054   5.336  0.3010 -0.0406  0.2241
  552MOL0     H74473  12.103   6.197   5.438  0.1226 -0.4430 -0.4875
  552MOL0     H74474  12.016   6.067   5.624 -0.5925 -2.5393  1.2265
  552MOL0     H74475  12.046   5.915   5.545  3.4889 -1.4084 -1.0365
  552MOL0     H74476  12.234   5.957   5.669 -2.1396  1.4128  0.9580
  552MOL0     H74477  12.229   6.132   5.628 -0.0212  0.5405 -0.4541
  552MOL0     H74478  12.436   6.040   5.533  0.1107 -0.0706 -0.8364
  552MOL0     H74479  12.349   6.065   5.389  0.9201 -0.5701 -0.8750
  552MOL0     H74480  12.527   5.907   5.668 -0.9256 -0.5252  1.2190
  552MOL0     H74481  12.703   5.752   5.731  2.7771 -2.3319 -0.5490
  552MOL0     H74482  12.776   5.178   5.566 -0.0794  0.8038 -0.0107
  552MOL0     H74483  12.965   5.015   5.576  0.1986  0.5350  2.3877
  552MOL0     H74484  13.402   5.166   5.556  0.0105  1.5997  0.7737
  552MOL0     H74485  13.341   5.161   5.721  3.5092  1.8126 -0.4033
  552MOL0     H74486  13.369   4.901   5.715  0.0291  1.1004  0.1039
  552MOL0     H74487  13.436   4.926   5.553 -1.9965 -1.4552  0.3132
  552MOL0     H74488  13.598   5.107   5.701  0.6484  0.3908  1.6021
  552MOL0     H74489  13.544   5.012   5.838 -3.4010 -1.7041 -0.8981
  552MOL0     H74490  13.670   4.886   5.589  1.3955  2.1524  0.2873
  552MOL0     H74491  13.642   4.816   5.747 -0.5008 -0.6035 -0.3396
  552MOL0     H74492  13.801   4.973   5.857  3.2302 -1.6114  0.0855
  552MOL0     H74493  13.818   5.066   5.712  2.1787  0.3526 -0.5678
  552MOL0     H74494  13.888   4.772   5.734  2.3426 -1.0867 -0.6312
  552MOL0     H74495  13.928   4.877   5.598  0.2448  0.3280  0.5132
  552MOL0     H74496  14.014   4.922   5.886  0.9296 -3.8325 -0.4348
  552MOL0     H74497  14.049   5.032   5.745 -3.3919  1.3027 -0.4904
  552MOL0     H74498  14.162   4.829   5.626 -0.5077 -1.4810  0.4762
  552MOL0     H74499  14.245   4.892   5.773  1.3595 -2.9007  0.1047
  552MOL0     H74500  13.246   5.320   5.581  0.2249 -0.1343  0.3949
  552MOL0     H74501  13.061   5.495   5.544 -2.0551  1.4585  3.2049
  552MOL0     H74502  12.604   5.494   5.404  1.2357  2.2313 -3.3190
  552MOL0     H74503  12.420   5.643   5.344 -0.6594 -0.0372  0.7052
  552MOL0     H74504  10.505   5.888   4.812 -0.7759 -1.0643 -0.9579
  552MOL0     H74505  10.277   5.989   4.828 -1.2763  0.8622 -0.3136
  552MOL0     H74506   9.974   6.039   5.015  1.2988  0.3421  0.5375
  552MOL0     H74507   9.745   6.027   5.045 -1.7994  1.0683 -2.6267
  552MOL0     H74508   9.500   6.435   5.106  1.4271  0.3856  0.8915
  552MOL0     H74509   9.577   6.371   5.244  2.4241  0.2197 -0.5333
  552MOL0     H74510   9.329   6.281   5.081 -0.0138  1.2676 -0.0530
  552MOL0     H74511   9.322   6.390   5.217  0.1058  0.1294  1.0037
  552MOL0     H74512   9.400   6.183   5.361  0.4709  0.2560 -0.1311
  552MOL0     H74513   9.381   6.084   5.218  2.5896  1.7350  0.0141
  552MOL0     H74514   9.155   6.255   5.332  0.5387  0.8690 -0.9246
  552MOL0     H74515   9.149   6.154   5.188 -2.1319 -1.6914  0.4450
  552MOL0     H74516   9.203   5.839   5.462  2.3942 -0.0969  1.7657
  552MOL0     H74517   9.735   6.458   5.128 -1.8834 -0.9163 -3.7433
  552MOL0     H74518   9.918   6.595   5.147  0.4684 -0.0919  1.0542
  552MOL0     H74519  10.041   6.512   5.234 -0.4483  1.5983  0.5346
  552MOL0     H74520  10.058   6.536   5.054  0.6939 -0.7732  0.6370
  553MOL0     O74521  11.219   8.543   1.609  0.7640  0.5668 -0.0097
  553MOL0     C74522  11.308   8.478   1.656  0.0270  0.0250 -0.9282
  553MOL0     O74523  11.438   8.484   1.619 -0.6163  0.4611  0.2742
  553MOL0     C74524  11.463   8.560   1.509 -0.4478 -0.5892 -1.3375
  553MOL0     C74525  11.489   8.501   1.389  0.5335  0.0287  0.6297
  553MOL0     C74526  11.507   8.576   1.279  0.5714  0.3769 -0.0717
  553MOL0     C74527  11.508   8.719   1.282 -0.8971  0.0683 -0.1473
  553MOL0     O74528  11.535   8.782   1.164  0.7239  0.0211 -0.3763
  553MOL0     C74529  11.560   8.924   1.167  0.5588 -0.0523 -0.1890
  553MOL0     C74530  11.650   8.960   1.044  0.0249  0.4290  0.1066
  553MOL0     C74531  11.733   9.091   1.054 -0.3751  0.1823  0.5373
  553MOL0     C74532  11.634   9.213   1.051  0.1315  1.0729  0.3346
  553MOL0     C74533  11.703   9.348   1.057 -0.0410 -0.1168 -0.2419
  553MOL0     C74534  11.781   9.382   1.186 -1.0640  0.2521  0.2021
  553MOL0     C74535  11.869   9.510   1.170 -0.3727  0.2633 -0.1786
  553MOL0     C74536  11.946   9.541   1.303 -0.3093 -0.0621  0.0174
  553MOL0     N74537  12.028   9.666   1.286  0.4974  0.0765 -0.1934
  553MOL0     C74538  12.156   9.689   1.254  0.4477 -0.3992 -0.0505
  553MOL0     C74539  12.156   9.820   1.253 -0.8689 -0.6977  0.3828
  553MOL0     C74540  12.281   9.894   1.223 -0.3387 -0.6328 -0.5614
  553MOL0     C74541  12.265  10.043   1.267  0.6260 -0.9628 -1.0783
  553MOL0     C74542  12.258  10.063   1.422  1.1225  0.2250  0.4211
  553MOL0     C74543  12.377  10.012   1.500 -0.0731  0.4696 -0.1019
  553MOL0     O74544  12.506  10.028   1.433 -0.4494  0.6725  0.2853
  553MOL0     C74545  12.616  10.000   1.511  0.2874  0.4668 -0.3728
  553MOL0     C74546  12.625   9.957   1.645  0.7661 -0.4284 -0.3114
  553MOL0     C74547  12.742   9.922   1.715  0.3016  0.5171 -0.1992
  553MOL0     C74548  12.858   9.919   1.642 -0.8421 -0.0250  0.1259
  553MOL0     C74549  12.980   9.884   1.714 -0.0939 -0.5363 -0.5297
  553MOL0     O74550  12.963   9.811   1.834  0.3225  0.0316 -0.6406
  553MOL0     C74551  13.075   9.797   1.919  0.1241 -0.1378 -0.4313
  553MOL0     C74552  13.197   9.734   1.879  1.1266  0.1724  0.8665
  553MOL0     C74553  13.297   9.709   1.971 -0.6836  0.6201  0.0591
  553MOL0     C74554  13.290   9.750   2.104  0.7049 -0.3375  0.9208
  553MOL0     O74555  13.374   9.713   2.206  0.0482 -0.2769 -0.1712
  553MOL0     C74556  13.477   9.617   2.186  0.5666 -0.0587  0.3186
  553MOL0     C74557  13.535   9.595   2.323  0.2992 -0.3899 -0.5534
  553MOL0     C74558  13.640   9.479   2.315 -0.0103  0.2665 -0.5295
  553MOL0     C74559  13.716   9.442   2.448  0.1219 -0.3681 -0.4395
  553MOL0     C74560  13.834   9.343   2.417  1.2820  0.0865  0.3180
  553MOL0     C74561  13.795   9.192   2.396 -0.5035 -0.0794 -0.4969
  553MOL0     C74562  13.912   9.124   2.324  0.5016  0.0951  0.0242
  553MOL0     C74563  14.035   9.121   2.411  0.0066  0.1611  0.1633
  553MOL0    Cl74564  14.004   9.061   2.576 -0.0897 -0.0047 -0.3866
  553MOL0     C74565  13.175   9.823   2.134 -0.6498  0.2681 -0.3728
  553MOL0     C74566  13.068   9.838   2.048  0.3570  0.3445 -0.1176
  553MOL0     O74567  13.088   9.917   1.678 -0.0192 -0.6213 -0.0435
  553MOL0     C74568  12.860   9.970   1.505  0.4447 -0.0973 -0.1627
  553MOL0     C74569  12.733  10.009   1.444  0.1240  0.3749  0.4044
  553MOL0     N74570  12.030   9.879   1.264  0.2199 -0.8452 -0.3838
  553MOL0     N74571  11.956   9.778   1.298 -0.6465 -0.8398 -0.0445
  553MOL0     C74572  11.471   8.781   1.400 -0.1828 -0.8572  0.1357
  553MOL0     C74573  11.458   8.703   1.516  0.1324  0.2935 -0.5753
  553MOL0     C74574  11.271   8.394   1.770 -0.1969  0.8920  0.7936
  553MOL0     C74575  11.372   8.302   1.826  0.2170 -0.2614  0.5001
  553MOL0     C74576  11.349   8.221   1.941  1.0865 -0.4902  0.6184
  553MOL0     C74577  11.219   8.221   1.997  0.1259 -0.1183  0.6325
  553MOL0     O74578  11.200   8.139   2.107  0.3831 -0.1711  0.1126
  553MOL0     C74579  11.067   8.149   2.166 -0.3669  0.4414  0.6711
  553MOL0     C74580  11.053   8.071   2.296 -0.9855 -0.1881 -0.4073
  553MOL0     C74581  11.132   8.140   2.416 -0.8052 -0.3816 -0.0349
  553MOL0     C74582  11.095   8.073   2.556 -0.3760  0.0034  0.9940
  553MOL0     C74583  10.955   8.096   2.590 -0.3973  0.7822 -0.4865
  553MOL0     C74584  10.844   8.111   2.642 -0.4388  0.4256 -0.6860
  553MOL0     C74585  11.121   8.297   1.927  0.0657  0.6303 -0.4778
  553MOL0     C74586  11.140   8.388   1.829 -0.6696 -0.5220 -0.3626
  553MOL0     C74587  11.020   8.476   1.797 -0.1321  1.4263  0.4504
  553MOL0     H74588  11.484   8.394   1.373  0.5168 -0.2211  2.1400
  553MOL0     H74589  11.508   8.524   1.184  0.3885 -1.6971  1.0054
  553MOL0     H74590  11.462   8.973   1.166 -1.2834 -3.2080  2.4659
  553MOL0     H74591  11.619   8.948   1.256 -0.6914 -0.3761  0.7627
  553MOL0     H74592  11.585   8.955   0.956 -2.4361  0.1447  1.8231
  553MOL0     H74593  11.728   8.888   1.019 -1.3638 -1.2652  0.3788
  553MOL0     H74594  11.789   9.087   0.961  1.0157  2.2542  1.2375
  553MOL0     H74595  11.802   9.101   1.138  0.1366  1.0150  0.0262
  553MOL0     H74596  11.569   9.213   0.962  0.1534 -1.0014  0.2755
  553MOL0     H74597  11.560   9.205   1.131  0.2000 -1.7838  0.2104
  553MOL0     H74598  11.778   9.346   0.978 -0.3034 -0.3962 -0.4877
  553MOL0     H74599  11.629   9.427   1.043 -1.2812 -1.1113  0.4557
  553MOL0     H74600  11.710   9.389   1.269 -0.2237  0.6738  0.9015
  553MOL0     H74601  11.841   9.293   1.209 -0.5794 -0.0429 -1.9820
  553MOL0     H74602  11.796   9.588   1.146 -1.5686 -1.4234 -2.2854
  553MOL0     H74603  11.928   9.488   1.081 -1.0418  0.5186 -0.6906
  553MOL0     H74604  11.867   9.561   1.377 -0.4269  0.1428 -0.1623
  553MOL0     H74605  12.012   9.459   1.331  0.9837  0.7688 -0.5156
  553MOL0     H74606  12.235   9.615   1.243  1.4018  0.7747 -1.3763
  553MOL0     H74607  12.372   9.848   1.264  0.1963  1.4018  0.6280
  553MOL0     H74608  12.295   9.896   1.114  0.3972 -1.7605 -0.5035
  553MOL0     H74609  12.355  10.095   1.231 -0.8921  1.5520 -1.4644
  553MOL0     H74610  12.175  10.076   1.216  0.8456  1.1632 -0.1960
  553MOL0     H74611  12.175  10.004   1.460  0.8742 -0.4747 -1.1473
  553MOL0     H74612  12.243  10.169   1.447  1.0225  0.1190  0.8225
  553MOL0     H74613  12.355   9.905   1.508  0.6462  0.2335 -1.0526
  553MOL0     H74614  12.372  10.059   1.598 -1.0090 -2.0933  1.1482
  553MOL0     H74615  12.534   9.947   1.703  1.7688 -0.7545  1.3035
  553MOL0     H74616  12.719   9.889   1.816 -0.0367  1.2389 -0.0375
  553MOL0     H74617  13.214   9.694   1.780  0.5996 -0.1965  0.9206
  553MOL0     H74618  13.386   9.659   1.934  0.3458  0.7395  2.1977
  553MOL0     H74619  13.445   9.516   2.158  0.5384  0.3500 -1.1779
  553MOL0     H74620  13.552   9.653   2.116  0.1450  1.0748  0.4264
  553MOL0     H74621  13.573   9.690   2.361 -0.4564  0.3167 -1.5134
  553MOL0     H74622  13.464   9.555   2.396  0.4555 -1.8916 -1.1882
  553MOL0     H74623  13.597   9.392   2.264  0.9941 -1.1342  0.9157
  553MOL0     H74624  13.717   9.517   2.248 -0.6914  1.7332 -0.5095
  553MOL0     H74625  13.654   9.408   2.531  0.3056  0.3415 -0.0016
  553MOL0     H74626  13.763   9.533   2.485  0.4805 -0.5469 -0.4479
  553MOL0     H74627  13.915   9.347   2.490 -0.1680  2.6548  1.9283
  553MOL0     H74628  13.886   9.382   2.329  4.1927 -1.0492  1.4074
  553MOL0     H74629  13.774   9.136   2.488  0.7613 -1.3491 -0.9552
  553MOL0     H74630  13.701   9.191   2.339 -2.4731 -3.8691  2.3511
  553MOL0     H74631  13.930   9.177   2.230 -2.2450  0.7949 -0.1918
  553MOL0     H74632  13.886   9.021   2.299 -1.0936  0.9086 -1.9723
  553MOL0     H74633  14.119   9.064   2.372  3.5912  2.9191  3.1931
  553MOL0     H74634  14.077   9.221   2.426  2.8822 -1.1158  1.2804
  553MOL0     H74635  13.173   9.858   2.237 -1.2518  1.5166 -0.7884
  553MOL0     H74636  12.976   9.870   2.095  0.9725 -0.7803  1.9816
  553MOL0     H74637  12.941   9.974   1.433 -0.0890 -2.4379 -1.0073
  553MOL0     H74638  12.733  10.029   1.337  1.2480  0.9096  0.4846
  553MOL0     H74639  11.459   8.889   1.406 -3.6330 -1.0755 -0.8416
  553MOL0     H74640  11.426   8.758   1.604 -1.7331  2.5187 -2.5016
  553MOL0     H74641  11.472   8.300   1.784  0.0805 -2.8484  0.1535
  553MOL0     H74642  11.429   8.160   1.982 -0.1195 -2.7541 -0.2457
  553MOL0     H74643  11.005   8.111   2.084  1.0297  2.2772 -1.3507
  553MOL0     H74644  11.031   8.250   2.188  1.6554  1.4230 -0.2367
  553MOL0     H74645  11.089   7.969   2.280  0.9085  0.4944 -0.8283
  553MOL0     H74646  10.950   8.063   2.330 -0.4867 -2.3911  0.7588
  553MOL0     H74647  11.108   8.246   2.426 -1.5902 -0.7002  1.8378
  553MOL0     H74648  11.240   8.130   2.400 -0.5149 -0.5057  1.8404
  553MOL0     H74649  11.118   7.966   2.553 -2.7404 -0.5692  1.4981
  553MOL0     H74650  11.144   8.123   2.640 -1.1826  0.6997  1.0675
  553MOL0     H74651  10.747   8.128   2.685  0.0354 -0.8894  1.0261
  553MOL0     H74652  11.021   8.287   1.969  1.0742 -1.2430  1.6920
  553MOL0     H74653  10.987   8.461   1.694 -1.2283  0.7569  0.8895
  553MOL0     H74654  10.933   8.457   1.860 -1.0606  2.2730 -0.5372
  553MOL0     H74655  11.045   8.581   1.816 -0.2776  1.0371  3.2098
  554MOL0     O74656   3.942   2.399  10.201  0.1024  0.1074 -0.0430
  554MOL0     C74657   3.873   2.322  10.133  0.4427 -0.3741  0.2015
  554MOL0     O74658   3.910   2.201  10.088  0.3655  0.2921  0.4575
  554MOL0     C74659   4.024   2.128  10.141  0.3909 -1.0211 -0.0931
  554MOL0     C74660   3.999   2.029  10.240 -0.3588  0.2118 -0.9175
  554MOL0     C74661   4.105   1.945  10.280 -0.2007 -1.1213  0.4119
  554MOL0     C74662   4.228   1.962  10.212 -0.3953 -0.1244 -0.6894
  554MOL0     O74663   4.327   1.869  10.234  0.1646 -0.1926 -0.1086
  554MOL0     C74664   4.337   1.764  10.139  0.5769 -0.1677  0.1359
  554MOL0     C74665   4.480   1.724  10.132 -1.3315  0.3479 -0.9274
  554MOL0     C74666   4.527   1.630  10.251 -0.7992  0.0005 -0.0959
  554MOL0     C74667   4.684   1.606  10.262  0.7696 -0.3371  0.4801
  554MOL0     C74668   4.746   1.615  10.399 -0.3315 -0.5386 -0.5430
  554MOL0     C74669   4.894   1.609  10.396 -1.0642  0.0304 -0.4284
  554MOL0     C74670   4.955   1.474  10.362  0.7303  0.2286 -0.4694
  554MOL0     C74671   5.104   1.482  10.368  0.4375 -0.3483 -0.2974
  554MOL0     N74672   5.180   1.368  10.311  0.0443  0.1472 -0.3236
  554MOL0     C74673   5.193   1.349  10.170 -0.0318  0.0852  0.1646
  554MOL0     C74674   5.291   1.254  10.156 -1.0506 -0.0513  0.5331
  554MOL0     C74675   5.326   1.183  10.025  0.0710  0.3206  0.0843
  554MOL0     C74676   5.480   1.165  10.001  0.0989 -0.5370 -0.0638
  554MOL0     C74677   5.543   1.303   9.963 -0.1943 -0.0935  0.4804
  554MOL0     C74678   5.690   1.293   9.922 -0.2427  0.8751 -0.3690
  554MOL0     O74679   5.771   1.320  10.031 -0.7096  0.3214 -1.0119
  554MOL0     C74680   5.898   1.390  10.016  0.6672 -0.3770  0.4237
  554MOL0     C74681   5.961   1.416   9.899 -1.1680  0.6171 -0.7709
  554MOL0     C74682   6.091   1.468   9.903 -1.2901  1.3090 -0.4421
  554MOL0     C74683   6.167   1.509  10.019  0.5312  0.0155  0.3648
  554MOL0     C74684   6.311   1.555  10.024 -0.8006  0.1673  0.6522
  554MOL0     O74685   6.377   1.579   9.903  0.7615  0.5997 -0.5352
  554MOL0     C74686   6.513   1.588   9.906 -0.7236  0.9725  0.0121
  554MOL0     C74687   6.597   1.477   9.892 -0.3853  0.3965  0.3806
  554MOL0     C74688   6.739   1.483   9.888 -0.6668 -0.4516  0.1044
  554MOL0     C74689   6.809   1.607   9.901  0.4594 -0.8831 -0.5660
  554MOL0     O74690   6.946   1.619   9.906  0.5666  0.3586  0.2568
  554MOL0     C74691   7.021   1.513   9.952  0.0358 -0.0300 -0.9018
  554MOL0     C74692   7.161   1.555  10.009  0.8985  0.4089  0.2249
  554MOL0     C74693   7.225   1.460  10.112  0.3699  0.5872 -0.2229
  554MOL0     C74694   7.362   1.514  10.165 -0.2737 -0.2890  0.0939
  554MOL0     C74695   7.474   1.469  10.072 -0.7328  0.0441 -0.2932
  554MOL0     C74696   7.610   1.510  10.121 -1.0427 -0.1377 -0.7568
  554MOL0     C74697   7.730   1.494  10.019 -0.4412 -0.6866  0.3621
  554MOL0     C74698   7.725   1.584   9.900 -0.7845 -1.0789 -0.1549
  554MOL0    Cl74699   7.848   1.559   9.780  0.2487 -0.0374 -0.0929
  554MOL0     C74700   6.717   1.717   9.914  0.0003 -0.9273  0.2476
  554MOL0     C74701   6.579   1.707   9.912 -0.8674  0.7127  0.0728
  554MOL0     O74702   6.371   1.548  10.133  0.1398  0.3842  0.4496
  554MOL0     C74703   6.090   1.482  10.133  0.4545  0.0266 -0.0498
  554MOL0     C74704   5.960   1.424  10.130 -0.1334 -0.0574  0.1467
  554MOL0     N74705   5.340   1.232  10.284  0.0067  0.5659 -0.2362
  554MOL0     N74706   5.276   1.306  10.370  0.6274  0.0635 -0.9168
  554MOL0     C74707   4.249   2.072  10.122  0.3536  0.5772  0.4721
  554MOL0     C74708   4.145   2.161  10.088  0.3082  0.2325  0.2338
  554MOL0     C74709   3.734   2.360  10.098 -0.3741  0.5052  0.4380
  554MOL0     C74710   3.647   2.253  10.086 -0.3635 -0.5476  0.4752
  554MOL0     C74711   3.506   2.273  10.094 -0.0767 -0.9505  0.9831
  554MOL0     C74712   3.454   2.406  10.096  0.0647 -0.8878  0.4132
  554MOL0     O74713   3.326   2.440  10.076  0.2555  0.2090 -0.5729
  554MOL0     C74714   3.243   2.346  10.007 -0.3317  0.2403 -0.6809
  554MOL0     C74715   3.096   2.395  10.021 -0.5131  0.4801  0.3950
  554MOL0     C74716   3.083   2.543  10.017 -0.5724  0.0181  0.5175
  554MOL0     C74717   2.941   2.588  10.052 -0.1001 -0.0336 -0.5196
  554MOL0     C74718   2.851   2.561   9.944 -0.6117 -0.7296  1.4043
  554MOL0     C74719   2.786   2.554   9.843  0.2513  1.2450  0.3897
  554MOL0     C74720   3.538   2.512  10.098 -1.1628  0.8771  0.3525
  554MOL0     C74721   3.680   2.490  10.107 -0.2261 -0.1633 -0.6861
  554MOL0     C74722   3.772   2.617  10.120 -0.8942  0.5634  0.6856
  554MOL0     H74723   3.896   2.023  10.274  0.6763  1.9783  3.1211
  554MOL0     H74724   4.090   1.859  10.346 -0.1261 -0.5180  1.2286
  554MOL0     H74725   4.270   1.681  10.161 -3.0120  1.9646 -1.6480
  554MOL0     H74726   4.313   1.798  10.037  1.8939 -0.5924 -0.3315
  554MOL0     H74727   4.553   1.805  10.119  0.6395 -0.6092  2.8139
  554MOL0     H74728   4.476   1.656  10.046 -2.4633 -1.4822  0.5115
  554MOL0     H74729   4.470   1.537  10.245 -0.0060 -0.4988 -0.0388
  554MOL0     H74730   4.497   1.684  10.341 -1.1128  0.1934 -0.3110
  554MOL0     H74731   4.715   1.518  10.207  1.2386  2.3967 -4.1858
  554MOL0     H74732   4.722   1.689  10.200  1.2569  1.3695  2.9226
  554MOL0     H74733   4.729   1.707  10.455 -1.2678 -1.7576  1.2981
  554MOL0     H74734   4.714   1.531  10.463 -0.5043  1.0929  1.6430
  554MOL0     H74735   4.919   1.685  10.322  3.3674  2.7429  3.3059
  554MOL0     H74736   4.931   1.635  10.496 -2.3926 -0.1400  0.1309
  554MOL0     H74737   4.928   1.448  10.259 -1.3920 -1.9150  0.5209
  554MOL0     H74738   4.908   1.403  10.430  0.3860  1.6603  0.8412
  554MOL0     H74739   5.133   1.576  10.319  0.6387  1.0980  2.4196
  554MOL0     H74740   5.135   1.502  10.471  0.2197 -4.1653  0.6280
  554MOL0     H74741   5.130   1.385  10.090  0.9617  0.7144 -0.3539
  554MOL0     H74742   5.273   1.088  10.018  0.2275  0.3648 -3.2522
  554MOL0     H74743   5.285   1.242   9.943  0.3657 -1.8971 -1.7514
  554MOL0     H74744   5.523   1.112  10.086 -0.4884  1.3760  1.4920
  554MOL0     H74745   5.494   1.103   9.912 -0.3958  1.2773 -1.4793
  554MOL0     H74746   5.545   1.369  10.051 -1.1779 -0.9508  1.1849
  554MOL0     H74747   5.490   1.353   9.881  1.3573 -2.1978 -1.9273
  554MOL0     H74748   5.703   1.374   9.850  0.9017  0.4147 -0.7038
  554MOL0     H74749   5.715   1.197   9.875  0.8442  2.3349 -2.9731
  554MOL0     H74750   5.918   1.390   9.803 -0.3283  2.0176 -1.5634
  554MOL0     H74751   6.143   1.471   9.807 -0.9279 -4.0855 -0.7601
  554MOL0     H74752   6.542   1.384   9.900 -1.1550  0.8653  0.6317
  554MOL0     H74753   6.799   1.394   9.879  1.2686  0.8098 -0.1860
  554MOL0     H74754   6.971   1.471  10.039  0.4765  1.7624  0.2881
  554MOL0     H74755   7.026   1.432   9.879 -0.9954 -2.5095  1.6285
  554MOL0     H74756   7.226   1.568   9.922 -0.7002  1.0812 -0.9055
  554MOL0     H74757   7.140   1.650  10.058 -1.3278 -1.2173  2.7382
  554MOL0     H74758   7.150   1.453  10.191 -0.7021  0.4311 -1.2127
  554MOL0     H74759   7.247   1.372  10.051 -1.4608  1.3468 -2.1316
  554MOL0     H74760   7.384   1.467  10.261 -1.6814 -1.7821 -0.2554
  554MOL0     H74761   7.353   1.623  10.165  1.6914 -0.0639  2.2625
  554MOL0     H74762   7.456   1.507   9.971  1.4048  0.2637 -0.6376
  554MOL0     H74763   7.475   1.360  10.058  0.8538  0.1562 -1.2844
  554MOL0     H74764   7.606   1.615  10.154 -0.2356 -0.3974  0.2232
  554MOL0     H74765   7.646   1.462  10.212 -0.5532  1.3155 -0.1589
  554MOL0     H74766   7.743   1.390   9.990  1.5483 -0.0903 -1.1158
  554MOL0     H74767   7.817   1.528  10.078  0.5145  0.5854 -1.6708
  554MOL0     H74768   7.631   1.571   9.845 -1.7520  1.9396  0.5500
  554MOL0     H74769   7.731   1.685   9.942  1.2816 -0.7556 -1.1322
  554MOL0     H74770   6.769   1.811   9.924 -2.1515  0.2394  1.0978
  554MOL0     H74771   6.535   1.806   9.920 -0.5282  0.7410  2.6092
  554MOL0     H74772   6.120   1.517  10.231  0.9760  2.8868 -1.1263
  554MOL0     H74773   5.905   1.399  10.220  0.2656 -1.6229 -0.0234
  554MOL0     H74774   4.341   2.097  10.071 -0.9973  2.0424 -1.3736
  554MOL0     H74775   4.160   2.248  10.024  4.9597 -1.1452 -0.9507
  554MOL0     H74776   3.677   2.150  10.099 -2.4490 -1.2970 -0.1573
  554MOL0     H74777   3.438   2.188  10.103 -0.0588 -1.4087 -2.0936
  554MOL0     H74778   3.248   2.244  10.045 -2.0355 -0.6872 -2.7603
  554MOL0     H74779   3.270   2.346   9.901  1.4164  0.3503 -0.2619
  554MOL0     H74780   3.056   2.362  10.117  1.9250  0.9039  1.6280
  554MOL0     H74781   3.046   2.346   9.937  1.7324  0.1470 -0.8331
  554MOL0     H74782   3.113   2.583   9.919  2.5727 -2.2546  0.3880
  554MOL0     H74783   3.143   2.591  10.094  1.1118  0.6768 -1.1188
  554MOL0     H74784   2.908   2.533  10.141 -1.4806 -1.5491 -1.8951
  554MOL0     H74785   2.945   2.689  10.094  5.2971 -0.9859  2.1729
  554MOL0     H74786   2.728   2.531   9.756  2.5967  1.5669 -1.3553
  554MOL0     H74787   3.485   2.606  10.087 -1.1935  1.1518  2.4574
  554MOL0     H74788   3.728   2.696  10.059  1.4624 -0.5842 -2.8177
  554MOL0     H74789   3.788   2.659  10.220 -1.5514  1.0136  0.6090
  554MOL0     H74790   3.868   2.600  10.071 -0.7168 -0.0372  1.2244
  555MOL0     O74791   6.523   7.515   2.916 -0.2101  0.0157  0.2634
  555MOL0     C74792   6.613   7.569   2.854  0.0497 -0.2109  0.9298
  555MOL0     O74793   6.690   7.671   2.897  0.0832  1.2775 -0.8979
  555MOL0     C74794   6.706   7.707   3.025  0.1249  0.0222 -0.2102
  555MOL0     C74795   6.781   7.820   3.037  0.7696 -0.8718 -0.5387
  555MOL0     C74796   6.819   7.866   3.168 -1.0770  0.0223 -0.2102
  555MOL0     C74797   6.777   7.802   3.288  0.8541  0.0417  0.2406
  555MOL0     O74798   6.799   7.861   3.412 -0.0007  0.0901 -0.5815
  555MOL0     C74799   6.884   7.975   3.432 -0.3510 -0.1881  0.5016
  555MOL0     C74800   6.901   7.995   3.581  0.3014 -0.3594  0.2074
  555MOL0     C74801   7.014   8.092   3.626  0.3319  0.5212  0.6227
  555MOL0     C74802   7.156   8.041   3.587 -0.5279  0.7525 -1.2913
  555MOL0     C74803   7.264   8.131   3.650  0.4582 -0.7615  0.7065
  555MOL0     C74804   7.401   8.089   3.608 -0.0009  0.1893 -0.1794
  555MOL0     C74805   7.489   8.084   3.720 -0.3749  0.3541 -0.3816
  555MOL0     C74806   7.516   8.216   3.794 -0.1271  0.0891  0.1951
  555MOL0     N74807   7.611   8.212   3.899  0.5169 -0.2409  0.0581
  555MOL0     C74808   7.732   8.144   3.894  0.9441 -0.1390  0.5332
  555MOL0     C74809   7.778   8.163   4.019 -1.1545 -0.8061  0.1758
  555MOL0     C74810   7.891   8.092   4.074  0.1306 -0.0342  0.2107
  555MOL0     C74811   8.021   8.087   3.995  0.4600  0.4750  0.9251
  555MOL0     C74812   8.135   8.033   4.083  0.1166  0.2632  0.3803
  555MOL0     C74813   8.263   8.050   4.003 -0.2824  0.4055  0.5730
  555MOL0     O74814   8.285   8.191   3.987  0.4648  0.4619  0.0513
  555MOL0     C74815   8.401   8.243   3.952 -1.0556  0.8184 -1.1188
  555MOL0     C74816   8.404   8.377   3.905 -0.0772 -0.1212 -0.1641
  555MOL0     C74817   8.525   8.436   3.887 -0.6666 -0.4024  0.0673
  555MOL0     C74818   8.645   8.367   3.893 -0.4442  0.8805  0.1850
  555MOL0     C74819   8.771   8.437   3.851 -0.5162  0.3297  0.6997
  555MOL0     O74820   8.760   8.571   3.817 -0.6190  0.2033 -0.0232
  555MOL0     C74821   8.884   8.636   3.793  0.4801  1.1899 -0.1899
  555MOL0     C74822   8.969   8.675   3.896 -0.5039  0.6091  0.2875
  555MOL0     C74823   9.085   8.748   3.870  0.2961  0.6796 -0.2682
  555MOL0     C74824   9.120   8.778   3.736 -0.2350  0.0917 -0.3899
  555MOL0     O74825   9.230   8.845   3.692  0.1809  0.3229  0.7044
  555MOL0     C74826   9.298   8.940   3.780  0.0132  0.5754  0.3275
  555MOL0     C74827   9.408   9.013   3.700  0.0503  0.0159 -0.3212
  555MOL0     C74828   9.361   9.091   3.580  0.0160 -0.0818 -0.5879
  555MOL0     C74829   9.481   9.168   3.523  0.5194  0.6056 -0.9711
  555MOL0     C74830   9.435   9.276   3.433  0.6157 -0.6681  0.6889
  555MOL0     C74831   9.378   9.201   3.297 -0.1240 -0.2708 -0.3939
  555MOL0     C74832   9.349   9.315   3.201  0.1467 -0.0990 -0.2463
  555MOL0     C74833   9.252   9.272   3.092  0.1511 -0.3177  0.3177
  555MOL0    Cl74834   9.335   9.160   2.982  0.2371 -0.1341 -0.4644
  555MOL0     C74835   9.041   8.734   3.635 -0.4718 -0.1632 -0.9109
  555MOL0     C74836   8.919   8.673   3.662 -0.2080  0.1552  0.0268
  555MOL0     O74837   8.881   8.376   3.857  0.0190 -0.5225 -0.5565
  555MOL0     C74838   8.644   8.232   3.922  0.4802  0.8748 -0.3470
  555MOL0     C74839   8.525   8.168   3.959 -0.4560  0.3521 -0.1243
  555MOL0     N74840   7.692   8.246   4.086  0.5420  0.0131 -0.0114
  555MOL0     N74841   7.585   8.268   4.026  0.2199  1.0675  0.3923
  555MOL0     C74842   6.697   7.689   3.274 -0.3891 -0.1001 -0.2085
  555MOL0     C74843   6.666   7.635   3.148  0.7208 -0.1787 -0.1662
  555MOL0     C74844   6.649   7.511   2.716 -0.7443 -0.8627  0.4774
  555MOL0     C74845   6.777   7.537   2.664 -0.5303 -0.3022 -0.0749
  555MOL0     C74846   6.815   7.504   2.535 -0.0292 -0.0444  0.0185
  555MOL0     C74847   6.725   7.438   2.458 -0.2565  0.8101 -0.4182
  555MOL0     O74848   6.741   7.411   2.327 -0.3616 -0.7241  0.2287
  555MOL0     C74849   6.815   7.514   2.249  0.2693  0.0476  0.9106
  555MOL0     C74850   6.787   7.478   2.101  0.1359 -0.3935 -0.4128
  555MOL0     C74851   6.838   7.347   2.049 -0.5130  0.1571 -0.0040
  555MOL0     C74852   6.964   7.360   1.960  0.0467 -0.4194 -1.2322
  555MOL0     C74853   6.932   7.419   1.831  0.5739 -0.1363  0.5696
  555MOL0     C74854   6.880   7.471   1.734 -0.0940 -0.0348 -0.0902
  555MOL0     C74855   6.611   7.394   2.519  0.3337  0.6333  0.4892
  555MOL0     C74856   6.566   7.428   2.644 -0.6288 -0.4144  0.1956
  555MOL0     C74857   6.428   7.377   2.678 -0.0650  0.8466  0.4085
  555MOL0     H74858   6.818   7.870   2.949 -0.8568  1.1934 -0.1400
  555MOL0     H74859   6.881   7.954   3.172  0.4238 -1.0280  1.0248
  555MOL0     H74860   6.980   7.939   3.393 -0.2744  1.3411 -0.8421
  555MOL0     H74861   6.851   8.067   3.384  0.0060  0.0054  0.6178
  555MOL0     H74862   6.917   7.897   3.625 -0.8919  0.0671  1.6938
  555MOL0     H74863   6.812   8.036   3.630  0.3487 -1.5614  1.3677
  555MOL0     H74864   6.996   8.102   3.733 -1.8750  1.1880  0.2389
  555MOL0     H74865   6.999   8.192   3.585 -1.2345  1.3229  2.9841
  555MOL0     H74866   7.173   7.938   3.619  0.3798  1.3849  0.4179
  555MOL0     H74867   7.168   8.036   3.479 -0.9198 -0.9312 -1.2871
  555MOL0     H74868   7.250   8.234   3.619 -1.1109 -1.6148 -1.6983
  555MOL0     H74869   7.253   8.120   3.758  0.8509 -0.7765  0.7479
  555MOL0     H74870   7.399   7.990   3.562 -0.7380  0.4381 -0.7022
  555MOL0     H74871   7.445   8.153   3.531  2.6789 -1.6642 -0.3187
  555MOL0     H74872   7.587   8.053   3.682 -0.3512  0.5494 -0.4794
  555MOL0     H74873   7.449   8.002   3.780  0.0975  0.6209  0.3151
  555MOL0     H74874   7.542   8.288   3.717  0.2726 -1.4826 -1.1876
  555MOL0     H74875   7.421   8.244   3.840 -0.6452  1.3677 -1.5574
  555MOL0     H74876   7.761   8.087   3.806 -1.1947  0.5080 -0.6659
  555MOL0     H74877   7.907   8.149   4.166 -1.2718  0.0482  0.4362
  555MOL0     H74878   7.848   7.994   4.097  2.3036 -0.4582  2.9509
  555MOL0     H74879   8.009   8.022   3.908 -0.6054 -0.5488  1.8091
  555MOL0     H74880   8.021   8.192   3.961 -3.4894 -1.0418 -5.5706
  555MOL0     H74881   8.113   7.930   4.112 -0.4564  0.1088 -0.5594
  555MOL0     H74882   8.133   8.102   4.168 -1.6718  0.1961  0.4299
  555MOL0     H74883   8.259   8.001   3.905  0.7347  3.5478 -1.1627
  555MOL0     H74884   8.334   7.996   4.066 -2.3082  1.0169  3.6039
  555MOL0     H74885   8.311   8.431   3.893 -0.5468 -0.6183  1.0038
  555MOL0     H74886   8.518   8.541   3.861  1.6129  0.0196  0.9007
  555MOL0     H74887   8.956   8.636   3.997 -0.7616  1.2578  0.5091
  555MOL0     H74888   9.151   8.772   3.953  0.0373 -0.8175  0.3958
  555MOL0     H74889   9.229   9.010   3.827  1.9326  2.2231  0.8148
  555MOL0     H74890   9.361   8.886   3.851  5.2025  1.0713 -3.2881
  555MOL0     H74891   9.470   9.081   3.760  0.4354 -2.1115  1.8705
  555MOL0     H74892   9.472   8.934   3.660  0.9912  1.0124 -0.8502
  555MOL0     H74893   9.319   9.027   3.503 -3.5072 -2.1236  2.6626
  555MOL0     H74894   9.277   9.153   3.615 -2.5982 -3.1122 -1.0805
  555MOL0     H74895   9.551   9.102   3.471  3.4593  2.7082  0.0166
  555MOL0     H74896   9.537   9.213   3.605 -3.2494  2.8955  0.6443
  555MOL0     H74897   9.514   9.343   3.399  3.0846 -3.2446  0.9983
  555MOL0     H74898   9.347   9.329   3.473  0.5680  0.7609 -1.1669
  555MOL0     H74899   9.461   9.141   3.257 -0.4604  0.5035 -2.3279
  555MOL0     H74900   9.288   9.141   3.315  0.3017 -0.4854  1.2395
  555MOL0     H74901   9.434   9.350   3.142  1.9002 -0.9766  1.6398
  555MOL0     H74902   9.308   9.402   3.252  2.7205  1.7601 -1.1162
  555MOL0     H74903   9.163   9.227   3.137  0.2383 -0.8208 -0.0080
  555MOL0     H74904   9.220   9.354   3.027  0.1162 -1.5981 -1.3508
  555MOL0     H74905   9.056   8.780   3.538  0.1428 -0.5222 -0.9913
  555MOL0     H74906   8.862   8.664   3.570 -1.0581 -0.5832  0.6064
  555MOL0     H74907   8.743   8.190   3.937  1.8755  3.3589 -1.8337
  555MOL0     H74908   8.522   8.069   4.003 -0.4235  0.2491 -0.3523
  555MOL0     H74909   6.660   7.640   3.364  0.2135 -3.3741 -1.5776
  555MOL0     H74910   6.594   7.554   3.150  1.1200 -0.5719 -1.1080
  555MOL0     H74911   6.846   7.599   2.721  1.9760 -1.9361 -1.1480
  555MOL0     H74912   6.913   7.539   2.506  0.8979  0.5048  3.3600
  555MOL0     H74913   6.924   7.517   2.256  0.3682  1.2590 -0.7227
  555MOL0     H74914   6.772   7.613   2.265  0.0444  0.0347  0.4053
  555MOL0     H74915   6.822   7.557   2.034  3.3865  0.4528  2.0422
  555MOL0     H74916   6.680   7.487   2.084 -0.0971 -1.1212  0.5855
  555MOL0     H74917   6.757   7.292   2.001 -0.3075  1.0763 -1.4829
  555MOL0     H74918   6.877   7.289   2.134  0.4615 -2.3266 -2.0166
  555MOL0     H74919   7.022   7.436   2.012  1.2890 -0.8712 -1.9319
  555MOL0     H74920   7.012   7.263   1.947  3.0635  0.3163  2.6113
  555MOL0     H74921   6.840   7.506   1.641  0.3092 -0.2181 -0.3353
  555MOL0     H74922   6.547   7.328   2.463  2.8033 -1.3018 -0.2362
  555MOL0     H74923   6.398   7.303   2.603  1.8373  1.4243 -0.9902
  555MOL0     H74924   6.415   7.326   2.774 -1.8898  1.4701  0.5520
  555MOL0     H74925   6.356   7.460   2.678 -1.2856 -0.1780  0.5817
  556MOL0     O74926  11.219  11.079   0.771 -0.2008 -0.2995  0.3123
  556MOL0     C74927  11.225  11.090   0.652 -0.2846 -0.4439  0.6625
  556MOL0     O74928  11.346  11.114   0.584  0.5089 -0.2171 -0.3747
  556MOL0     C74929  11.454  11.110   0.657 -0.4018  0.6803  0.0391
  556MOL0     C74930  11.512  11.221   0.710  1.1402 -1.5385 -0.7014
  556MOL0     C74931  11.625  11.213   0.787  0.6592  0.6041  0.5370
  556MOL0     C74932  11.693  11.090   0.797 -0.5283  0.7093  0.1879
  556MOL0     O74933  11.820  11.080   0.855 -0.1531 -0.6311 -0.1504
  556MOL0     C74934  11.847  11.187   0.947  0.2570  0.1616 -0.4066
  556MOL0     C74935  11.969  11.157   1.026 -0.0084 -0.3986 -0.1069
  556MOL0     C74936  12.106  11.128   0.948  0.3825 -0.1157 -0.0943
  556MOL0     C74937  12.163  11.250   0.879  0.2957  0.0110  0.8286
  556MOL0     C74938  12.290  11.209   0.792 -0.0817  0.8495 -0.3093
  556MOL0     C74939  12.352  11.335   0.726 -0.0839  0.6010  0.2642
  556MOL0     C74940  12.439  11.418   0.814  0.0353  0.0974  0.3370
  556MOL0     C74941  12.567  11.349   0.865 -0.3716  0.7229 -0.8356
  556MOL0     N74942  12.647  11.271   0.775 -0.2581  0.1737  0.7279
  556MOL0     C74943  12.713  11.331   0.666 -0.2068 -0.5019 -0.0826
  556MOL0     C74944  12.773  11.215   0.613 -0.5149 -0.2365  1.7755
  556MOL0     C74945  12.825  11.217   0.478 -0.3328  0.0747  0.4923
  556MOL0     C74946  12.972  11.171   0.469 -0.2049  0.1434  0.0043
  556MOL0     C74947  13.013  11.140   0.323 -0.3837  0.2393 -0.5479
  556MOL0     C74948  13.148  11.060   0.313 -0.0401  0.3485  0.1135
  556MOL0     O74949  13.255  11.150   0.339  0.2315 -0.0845 -0.0586
  556MOL0     C74950  13.376  11.124   0.277 -0.4405  0.1718 -0.1092
  556MOL0     C74951  13.473  11.227   0.279  0.5886 -0.9123  0.6333
  556MOL0     C74952  13.599  11.231   0.226  0.2047 -0.3743  0.0743
  556MOL0     C74953  13.634  11.113   0.159 -0.0616 -0.2416 -0.1504
  556MOL0     C74954  13.768  11.101   0.095  0.0006  0.2186  0.3547
  556MOL0     O74955  13.808  10.972   0.053  0.2137 -0.3728 -0.3570
  556MOL0     C74956  13.942  10.948   0.015  0.5750  0.4104 -0.0583
  556MOL0     C74957  14.040  10.955   0.110 -0.1284  0.2928  0.6210
  556MOL0     C74958  14.181  10.954   0.085  0.2532  0.9207  0.0651
  556MOL0     C74959  14.222  10.945  -0.048 -0.4262  0.7216  1.0539
  556MOL0     O74960  14.356  10.932  -0.092 -0.1632 -0.6467  0.3461
  556MOL0     C74961  14.455  10.906   0.001  0.0771 -1.0365  0.4101
  556MOL0     C74962  14.587  10.867  -0.072  0.1163  0.8921  0.1341
  556MOL0     C74963  14.714  10.860   0.012  0.5593 -0.0583  0.5011
  556MOL0     C74964  14.817  10.762  -0.043 -0.0510  0.2324  0.3004
  556MOL0     C74965  14.955  10.796   0.002  0.7188 -0.5652 -0.5340
  556MOL0     C74966  15.064  10.681  -0.002  0.0408  0.8536  0.3325
  556MOL0     C74967  15.202  10.745   0.039 -0.1183  0.4151 -0.5337
  556MOL0     C74968  15.300  10.634   0.053  0.1455  0.3800  0.4621
  556MOL0    Cl74969  15.332  10.522  -0.087  0.2760  0.2669  0.0238
  556MOL0     C74970  14.118  10.936  -0.150 -0.2001 -1.1298  0.3134
  556MOL0     C74971  13.985  10.943  -0.116  0.6985 -0.2254  0.2840
  556MOL0     O74972  13.837  11.196   0.075  0.1152 -0.1365  0.3634
  556MOL0     C74973  13.548  11.005   0.157  0.0518 -0.0975 -0.2868
  556MOL0     C74974  13.415  11.010   0.212  0.4099 -0.4257  0.4530
  556MOL0     N74975  12.755  11.108   0.692  0.7406 -0.3313  0.2341
  556MOL0     N74976  12.678  11.139   0.788  0.5667 -0.2805  0.1436
  556MOL0     C74977  11.643  10.971   0.726 -0.3197 -0.4135 -0.1374
  556MOL0     C74978  11.517  10.980   0.667 -0.0691  0.1795  0.0347
  556MOL0     C74979  11.097  11.085   0.578  0.2090  0.3828  0.1344
  556MOL0     C74980  11.102  11.024   0.452  0.1286  0.2629 -0.2696
  556MOL0     C74981  10.990  10.996   0.376 -0.8502  0.2281  0.0802
  556MOL0     C74982  10.871  11.051   0.417 -1.4239 -0.4183  0.3257
  556MOL0     O74983  10.762  11.049   0.344  1.0756  0.0628 -0.7514
  556MOL0     C74984  10.721  10.929   0.272  0.3350 -0.3096  0.2624
  556MOL0     C74985  10.566  10.920   0.240 -0.5000 -0.1088 -0.1220
  556MOL0     C74986  10.488  10.893   0.376 -0.2738  0.2350 -0.2556
  556MOL0     C74987  10.341  10.862   0.337 -0.0504  0.7479 -0.1624
  556MOL0     C74988  10.268  10.974   0.273 -0.6320  0.6163 -0.1167
  556MOL0     C74989  10.222  11.070   0.217  0.0768  0.4119  0.1808
  556MOL0     C74990  10.860  11.115   0.542  0.1022  0.5078  0.2342
  556MOL0     C74991  10.967  11.125   0.628 -0.4463 -0.4858  0.8838
  556MOL0     C74992  10.946  11.198   0.760  1.3684 -0.5971 -0.1385
  556MOL0     H74993  11.461  11.316   0.702  3.0619 -0.2891  1.0337
  556MOL0     H74994  11.665  11.307   0.825 -0.8104  1.5793 -0.2096
  556MOL0     H74995  11.878  11.270   0.884  1.2421  1.0689  1.2150
  556MOL0     H74996  11.762  11.216   1.009  0.7543 -4.0420  2.7179
  556MOL0     H74997  11.954  11.072   1.094  0.8063  0.5234  1.2908
  556MOL0     H74998  11.993  11.242   1.092 -0.1662 -0.8719  0.5783
  556MOL0     H74999  12.073  11.063   0.866  2.6434  0.3332 -1.4337
  556MOL0     H75000  12.181  11.078   1.010  1.1032 -0.2483 -1.0545
  556MOL0     H75001  12.091  11.291   0.807  1.0439  0.5552  0.3713
  556MOL0     H75002  12.200  11.327   0.948 -1.7224  3.3325 -1.5012
  556MOL0     H75003  12.363  11.161   0.858 -1.6496 -1.3265 -0.0819
  556MOL0     H75004  12.251  11.140   0.717  1.6128 -0.1153 -0.3520
  556MOL0     H75005  12.417  11.312   0.641 -0.8326  0.0535 -0.1702
  556MOL0     H75006  12.275  11.402   0.686  1.4201  2.4324  0.2705
  556MOL0     H75007  12.391  11.472   0.896 -0.5162 -0.5826  0.4620
  556MOL0     H75008  12.479  11.496   0.748 -0.2978  1.5689  1.7956
  556MOL0     H75009  12.636  11.415   0.918  0.8533 -1.0755 -0.0657
  556MOL0     H75010  12.536  11.282   0.946  1.4372  1.5318  0.5688
  556MOL0     H75011  12.706  11.433   0.628 -0.5078 -0.2468  0.6557
  556MOL0     H75012  12.765  11.143   0.424  0.1494  1.1261 -1.6140
  556MOL0     H75013  12.827  11.316   0.431  4.7250  0.6759  1.3703
  556MOL0     H75014  13.037  11.255   0.498 -1.8524  0.9645  1.5304
  556MOL0     H75015  12.992  11.088   0.537  0.9628 -0.8471 -1.4733
  556MOL0     H75016  13.010  11.234   0.267 -0.3468  0.0069 -0.9425
  556MOL0     H75017  12.943  11.068   0.280 -0.1747  0.8315 -1.9235
  556MOL0     H75018  13.155  11.019   0.212  0.9750  0.5177  0.1083
  556MOL0     H75019  13.152  10.977   0.384 -2.0727 -0.6695 -0.8448
  556MOL0     H75020  13.437  11.317   0.329  1.8661  0.4766 -0.8369
  556MOL0     H75021  13.660  11.320   0.215 -0.9784  0.1054 -3.9446
  556MOL0     H75022  14.002  10.967   0.211  4.9458  1.3300  2.6843
  556MOL0     H75023  14.254  10.964   0.165  1.5524  1.7998 -1.1947
  556MOL0     H75024  14.480  10.996   0.059 -2.2631 -0.7000  0.9774
  556MOL0     H75025  14.437  10.823   0.070 -1.6473 -0.9616  0.0762
  556MOL0     H75026  14.562  10.767  -0.106  2.2907  0.2131  0.3381
  556MOL0     H75027  14.612  10.930  -0.158 -1.9437  2.4037  0.5636
  556MOL0     H75028  14.764  10.957   0.007 -0.5524  0.4596 -1.1574
  556MOL0     H75029  14.697  10.840   0.118 -0.8147 -1.0650  0.1290
  556MOL0     H75030  14.815  10.752  -0.152 -0.1258 -1.0140  0.4024
  556MOL0     H75031  14.793  10.662  -0.006 -1.1758  1.1415  2.2067
  556MOL0     H75032  14.944  10.835   0.104  0.9755  2.0960 -1.4495
  556MOL0     H75033  14.986  10.882  -0.059 -1.0080 -0.7090 -1.6674
  556MOL0     H75034  15.039  10.597   0.064 -0.2409  1.5192  1.0926
  556MOL0     H75035  15.068  10.651  -0.107  0.2365  0.9743  0.3052
  556MOL0     H75036  15.192  10.802   0.132 -2.3790 -2.1589  0.9674
  556MOL0     H75037  15.243  10.801  -0.045 -2.2569 -1.5540 -3.0498
  556MOL0     H75038  15.399  10.674   0.079  0.6824  0.9735 -2.2463
  556MOL0     H75039  15.268  10.575   0.140 -1.5972 -1.5090 -1.3494
  556MOL0     H75040  14.142  10.936  -0.256  2.0997 -0.4813  0.7893
  556MOL0     H75041  13.921  10.943  -0.204 -0.5960  7.1741  0.5965
  556MOL0     H75042  13.573  10.912   0.106 -1.4423 -0.6098 -0.1417
  556MOL0     H75043  13.354  10.921   0.199  1.7354 -1.1492 -1.2793
  556MOL0     H75044  11.695  10.876   0.715  1.1524  0.3263  0.1498
  556MOL0     H75045  11.474  10.900   0.609  2.1386 -2.0612  1.3370
  556MOL0     H75046  11.203  11.003   0.418  0.3077  2.1285 -0.9845
  556MOL0     H75047  11.004  10.947   0.280  0.3352  1.2269 -0.2811
  556MOL0     H75048  10.755  10.847   0.337  0.9717  0.1031  0.4511
  556MOL0     H75049  10.774  10.921   0.177 -1.3557  1.9499 -0.9477
  556MOL0     H75050  10.552  10.843   0.163 -0.2465 -1.8821  1.5403
  556MOL0     H75051  10.536  11.014   0.194  0.2293  0.9816  1.5651
  556MOL0     H75052  10.494  10.973   0.450 -0.5387  0.5953 -0.6174
  556MOL0     H75053  10.528  10.805   0.427 -3.9059 -0.6123  1.4483
  556MOL0     H75054  10.333  10.776   0.270 -1.7172  1.0346 -0.3823
  556MOL0     H75055  10.285  10.825   0.424  1.1167 -1.8875 -0.4318
  556MOL0     H75056  10.183  11.165   0.186  1.0996  0.5413 -0.7703
  556MOL0     H75057  10.768  11.167   0.567  0.6639  0.8850  1.6515
  556MOL0     H75058  10.853  11.160   0.804 -0.1857  1.7789 -1.1492
  556MOL0     H75059  11.021  11.178   0.838  1.3785 -1.1821 -0.2957
  556MOL0     H75060  10.934  11.305   0.739 -1.6830 -1.0111 -1.0377
  557MOL0     O75061   6.527   9.844   2.040  0.3874 -0.0555  0.8392
  557MOL0     C75062   6.439   9.922   2.070 -0.5022  0.1840 -0.4905
  557MOL0     O75063   6.465  10.040   2.137  0.6733  0.2478  0.5252
  557MOL0     C75064   6.600  10.065   2.147 -0.1031  0.9995 -0.2346
  557MOL0     C75065   6.648  10.176   2.071  0.1099 -0.0907  0.1053
  557MOL0     C75066   6.781  10.215   2.084  0.7813 -1.6935 -0.4468
  557MOL0     C75067   6.865  10.147   2.178 -0.7671 -0.1829  0.2020
  557MOL0     O75068   6.995  10.177   2.214 -0.0056 -0.4112  0.8901
  557MOL0     C75069   7.074  10.248   2.121 -0.4863  0.3220 -0.2513
  557MOL0     C75070   7.234  10.231   2.147 -0.6435 -0.0992  0.2087
  557MOL0     C75071   7.271  10.288   2.280 -0.0954 -0.5914  0.2389
  557MOL0     C75072   7.426  10.273   2.323  0.2293  0.1840 -0.1272
  557MOL0     C75073   7.446  10.324   2.463 -0.1122  0.1437  0.1025
  557MOL0     C75074   7.587  10.278   2.512  0.4655 -0.0053 -0.2762
  557MOL0     C75075   7.699  10.330   2.423 -0.8397  0.1035 -0.2416
  557MOL0     C75076   7.836  10.304   2.479  0.6735 -0.7429 -0.0514
  557MOL0     N75077   7.950  10.387   2.434  0.7561 -0.6731 -0.4256
  557MOL0     C75078   8.033  10.377   2.327  0.1089  0.6306  0.4746
  557MOL0     C75079   8.124  10.473   2.345 -0.2043 -1.0012 -0.2350
  557MOL0     C75080   8.247  10.479   2.263 -0.1287 -0.0382  0.3363
  557MOL0     C75081   8.261  10.611   2.181 -0.7222 -0.0237 -0.6649
  557MOL0     C75082   8.399  10.646   2.141  0.7528 -0.0190  0.1359
  557MOL0     C75083   8.408  10.790   2.086 -0.5387 -0.5438 -0.8532
  557MOL0     O75084   8.544  10.810   2.066 -1.2331 -0.6424  0.6194
  557MOL0     C75085   8.590  10.931   2.012  0.1522 -0.2044  0.2831
  557MOL0     C75086   8.728  10.961   2.022  0.5219 -0.4128 -0.3957
  557MOL0     C75087   8.779  11.076   1.968 -0.1321 -0.6259  0.3729
  557MOL0     C75088   8.696  11.180   1.923  0.5035 -0.0800 -0.9304
  557MOL0     C75089   8.743  11.311   1.873  0.0985 -0.8947 -0.6025
  557MOL0     O75090   8.880  11.325   1.868 -0.3764 -0.5314 -0.2441
  557MOL0     C75091   8.934  11.450   1.830 -0.1194  1.1367 -0.8397
  557MOL0     C75092   8.903  11.569   1.899  1.0542 -0.2741 -0.1994
  557MOL0     C75093   8.973  11.692   1.863 -0.7281  1.3620 -0.1886
  557MOL0     C75094   9.068  11.689   1.756 -1.0428 -0.0073  0.1749
  557MOL0     O75095   9.127  11.798   1.710 -0.3919 -0.1960  0.3875
  557MOL0     C75096   9.109  11.930   1.768 -0.7199  0.1874 -0.3233
  557MOL0     C75097   9.184  12.029   1.669 -0.1362 -0.3724  0.0209
  557MOL0     C75098   9.338  12.013   1.648 -0.6644  0.3321  0.8551
  557MOL0     C75099   9.382  12.130   1.563  0.4454  0.0030 -0.7831
  557MOL0     C75100   9.536  12.141   1.552  0.2647 -0.0642  0.1708
  557MOL0     C75101   9.593  12.227   1.443 -0.6946 -0.7622  0.5402
  557MOL0     C75102   9.743  12.210   1.440 -0.0107 -0.3798 -0.4814
  557MOL0     C75103   9.794  12.103   1.351  0.4847  0.0442 -0.3590
  557MOL0    Cl75104   9.965  12.070   1.378 -0.4940 -0.2044 -0.1948
  557MOL0     C75105   9.090  11.567   1.684  0.3169 -0.5116 -0.4710
  557MOL0     C75106   9.043  11.445   1.737  0.2892 -0.7461 -0.1088
  557MOL0     O75107   8.664  11.404   1.852  0.2171  0.4080  1.4541
  557MOL0     C75108   8.559  11.146   1.915  0.2099  0.8486 -0.1605
  557MOL0     C75109   8.506  11.015   1.948  0.9903 -0.3306  0.1131
  557MOL0     N75110   8.092  10.556   2.451  0.1746 -1.0145 -0.3857
  557MOL0     N75111   7.991  10.497   2.506  0.2196 -0.1923 -0.1650
  557MOL0     C75112   6.818  10.035   2.240  0.5890  0.4363 -0.8885
  557MOL0     C75113   6.689   9.986   2.220  0.8442  0.3734 -0.6612
  557MOL0     C75114   6.306   9.891   2.017 -0.4232 -0.1438 -0.3144
  557MOL0     C75115   6.243   9.775   2.073 -0.2042 -0.1233 -0.3047
  557MOL0     C75116   6.112   9.750   2.040  1.3129  0.7931  0.1042
  557MOL0     C75117   6.037   9.827   1.942  0.8736  0.5610  0.6320
  557MOL0     O75118   5.908   9.802   1.899  0.0212 -0.0815 -0.7608
  557MOL0     C75119   5.840   9.701   1.970  0.1157 -0.9560  0.4756
  557MOL0     C75120   5.697   9.710   1.932  0.4656 -0.9064  0.5016
  557MOL0     C75121   5.605   9.614   2.012  0.4549 -0.2794  0.2400
  557MOL0     C75122   5.582   9.653   2.162 -0.2864 -0.4794  0.2627
  557MOL0     C75123   5.489   9.567   2.237 -0.4311  0.5677 -0.8191
  557MOL0     C75124   5.416   9.486   2.291 -1.0941 -0.3175  0.2330
  557MOL0     C75125   6.106   9.938   1.887  0.5402  0.1625  0.6177
  557MOL0     C75126   6.239   9.972   1.926  0.7814 -0.2793  0.7082
  557MOL0     C75127   6.300  10.074   1.849 -0.2425 -0.1205 -0.1472
  557MOL0     H75128   6.582  10.237   2.011  1.4984  0.1225 -1.2888
  557MOL0     H75129   6.810  10.304   2.030 -1.4986 -0.2264  0.5487
  557MOL0     H75130   7.052  10.212   2.020  0.8562  0.5107 -0.6371
  557MOL0     H75131   7.038  10.351   2.129  0.9736  0.7058  3.5509
  557MOL0     H75132   7.287  10.276   2.062  0.9443 -0.8577  0.7645
  557MOL0     H75133   7.266  10.127   2.149  1.1067  0.4260  1.6257
  557MOL0     H75134   7.205  10.247   2.357 -1.0041  4.4330  2.5359
  557MOL0     H75135   7.243  10.394   2.276  0.8044 -0.3366  0.5769
  557MOL0     H75136   7.466  10.171   2.322 -2.5335 -1.0161  1.0654
  557MOL0     H75137   7.485  10.335   2.255  2.0250 -2.4999 -1.1496
  557MOL0     H75138   7.446  10.433   2.470  1.0538  0.2619 -1.2743
  557MOL0     H75139   7.367  10.283   2.526 -0.2864  1.0065  0.4650
  557MOL0     H75140   7.603  10.309   2.616  2.6126  2.6401 -1.2789
  557MOL0     H75141   7.582  10.169   2.523 -0.7505 -0.4664 -3.9276
  557MOL0     H75142   7.694  10.439   2.424 -0.2428  0.1389  1.5942
  557MOL0     H75143   7.697  10.289   2.321  1.1719 -1.4555  0.2833
  557MOL0     H75144   7.822  10.312   2.587 -0.5456  0.2522 -0.2698
  557MOL0     H75145   7.886  10.207   2.471  0.1238 -1.0036 -0.3536
  557MOL0     H75146   8.044  10.293   2.259 -2.3612  1.1356 -0.6510
  557MOL0     H75147   8.335  10.474   2.328  0.9142 -3.1021 -1.0777
  557MOL0     H75148   8.251  10.391   2.198  0.2972 -0.1662  0.5305
  557MOL0     H75149   8.195  10.605   2.094 -2.6060  1.3642  0.5937
  557MOL0     H75150   8.212  10.674   2.257 -1.2312 -1.3554  0.1463
  557MOL0     H75151   8.437  10.569   2.074  0.6548  1.1711 -1.3521
  557MOL0     H75152   8.463  10.647   2.229  2.1687  0.0451 -0.8645
  557MOL0     H75153   8.366  10.863   2.155 -0.2160  1.3679 -2.5891
  557MOL0     H75154   8.345  10.796   1.996 -0.7759  1.1120 -0.6067
  557MOL0     H75155   8.789  10.882   2.065  1.8105  0.9053  0.2955
  557MOL0     H75156   8.888  11.069   1.966 -0.2479 -3.1971  0.3119
  557MOL0     H75157   8.837  11.575   1.985  1.1735 -1.4152 -0.0209
  557MOL0     H75158   8.956  11.778   1.927  3.0311  2.4499 -0.4496
  557MOL0     H75159   9.010  11.975   1.763 -0.1667  1.4538 -0.3651
  557MOL0     H75160   9.151  11.929   1.869 -3.3456  2.7256  0.9514
  557MOL0     H75161   9.137  12.014   1.571  1.4075  3.5540 -1.5477
  557MOL0     H75162   9.154  12.128   1.703  0.5886 -0.7080  1.7101
  557MOL0     H75163   9.388  12.014   1.746 -1.0922  1.6166  1.0795
  557MOL0     H75164   9.358  11.918   1.597  0.2287 -0.7504  3.0423
  557MOL0     H75165   9.351  12.223   1.612  1.7280 -0.4229  0.9425
  557MOL0     H75166   9.347  12.125   1.459  0.9408 -1.1503 -0.9032
  557MOL0     H75167   9.565  12.036   1.542 -1.5675 -0.5840 -0.0704
  557MOL0     H75168   9.564  12.198   1.641 -1.3630  2.5258 -0.8454
  557MOL0     H75169   9.544  12.210   1.347  0.3346  0.2571 -0.1970
  557MOL0     H75170   9.569  12.331   1.463 -0.0789 -0.4459 -0.3047
  557MOL0     H75171   9.780  12.202   1.542 -3.1030 -2.1254  0.6453
  557MOL0     H75172   9.789  12.299   1.395  1.0130 -0.1678  0.9146
  557MOL0     H75173   9.740  12.009   1.365 -0.1378  0.4230 -0.2241
  557MOL0     H75174   9.767  12.135   1.250 -2.7033 -0.0157  0.3805
  557MOL0     H75175   9.159  11.555   1.602  1.7852 -1.7342  0.8794
  557MOL0     H75176   9.068  11.344   1.704  1.1724 -1.4510  2.4938
  557MOL0     H75177   8.480  11.212   1.881 -1.4553 -0.3211  1.2345
  557MOL0     H75178   8.402  10.992   1.931  1.6113 -3.1850 -0.3830
  557MOL0     H75179   6.875   9.981   2.315 -1.0040  0.5016  0.4193
  557MOL0     H75180   6.660   9.888   2.257  0.9185  1.2047  1.8382
  557MOL0     H75181   6.300   9.711   2.140  1.3008  1.9879  0.5801
  557MOL0     H75182   6.074   9.663   2.092 -1.7202  1.7744 -0.2650
  557MOL0     H75183   5.845   9.719   2.078 -1.1084  0.6326  0.3046
  557MOL0     H75184   5.883   9.601   1.960  0.1849 -0.9325  0.5312
  557MOL0     H75185   5.684   9.683   1.827 -1.8770 -0.5095  0.6374
  557MOL0     H75186   5.667   9.815   1.939  3.2498 -0.0326  0.7380
  557MOL0     H75187   5.645   9.513   2.002  3.3837  0.7333  0.7015
  557MOL0     H75188   5.508   9.618   1.961  0.9415 -1.2842 -0.8170
  557MOL0     H75189   5.680   9.647   2.210 -0.5496 -0.5580  0.8050
  557MOL0     H75190   5.543   9.756   2.168  0.7478 -0.1534  2.2239
  557MOL0     H75191   5.345   9.424   2.339  0.1451 -0.8553  1.4298
  557MOL0     H75192   6.050   9.994   1.813 -2.3367 -2.9994  0.1085
  557MOL0     H75193   6.362  10.019   1.778 -0.9577 -2.1686  0.7519
  557MOL0     H75194   6.231  10.132   1.787 -0.7545 -0.5036  0.0571
  557MOL0     H75195   6.366  10.138   1.909 -2.1382  1.5415  0.2586
  558MOL0     O75196  11.148   6.763   5.802  0.2725  1.2147  0.8279
  558MOL0     C75197  11.108   6.648   5.814 -0.0049  0.1785 -0.1460
  558MOL0     O75198  11.185   6.534   5.808  0.3204  0.4859  0.1812
  558MOL0     C75199  11.313   6.550   5.764  0.9285 -0.3305 -0.3707
  558MOL0     C75200  11.333   6.579   5.629  0.6996 -0.2974  0.1907
  558MOL0     C75201  11.466   6.605   5.575  0.7058 -0.5145 -0.3725
  558MOL0     C75202  11.574   6.613   5.667 -1.2022 -0.2384 -0.6345
  558MOL0     O75203  11.692   6.652   5.608 -0.3099  0.5842 -0.0468
  558MOL0     C75204  11.816   6.653   5.678 -0.7845  0.8831  0.5944
  558MOL0     C75205  11.926   6.646   5.576 -0.8681 -0.4802 -0.4476
  558MOL0     C75206  12.053   6.591   5.636 -1.1225  0.5776 -0.3011
  558MOL0     C75207  12.177   6.595   5.551 -0.9557  0.0163 -0.0411
  558MOL0     C75208  12.301   6.506   5.610 -0.0127 -0.3659  0.4566
  558MOL0     C75209  12.427   6.521   5.535  1.4257 -0.4912 -0.0386
  558MOL0     C75210  12.544   6.474   5.610  1.5408  0.3414  0.0282
  558MOL0     C75211  12.617   6.358   5.544  0.0002 -0.1277 -0.0854
  558MOL0     N75212  12.739   6.321   5.613 -0.3617  0.3781  0.4129
  558MOL0     C75213  12.753   6.243   5.730 -1.0476  0.1114  0.0036
  558MOL0     C75214  12.887   6.242   5.742 -0.8779 -0.2381 -0.8800
  558MOL0     C75215  12.949   6.173   5.859  0.0688 -0.6744 -0.0800
  558MOL0     C75216  12.979   6.025   5.824 -0.1379 -0.0397 -0.1799
  558MOL0     C75217  12.857   5.926   5.852 -0.2298  0.0443  0.4952
  558MOL0     C75218  12.815   5.915   5.990  0.1783  0.6098  0.0527
  558MOL0     O75219  12.730   6.023   6.022  0.2598 -0.0102  0.3822
  558MOL0     C75220  12.623   6.019   6.101  0.0019  0.6122 -0.8335
  558MOL0     C75221  12.526   5.920   6.102 -0.2649  0.3030 -0.6034
  558MOL0     C75222  12.423   5.917   6.203  0.3284 -0.2593  0.1113
  558MOL0     C75223  12.411   6.022   6.291  0.8322  0.3883  0.6651
  558MOL0     C75224  12.300   6.026   6.386  0.4277 -0.7083 -0.1491
  558MOL0     O75225  12.218   5.911   6.400 -0.0123  0.7673 -0.0657
  558MOL0     C75226  12.100   5.910   6.472 -0.4361 -0.4299  0.6017
  558MOL0     C75227  11.991   5.852   6.402 -0.0520 -0.0757 -0.2593
  558MOL0     C75228  11.864   5.857   6.453 -0.1583 -0.6546  0.5399
  558MOL0     C75229  11.844   5.928   6.573 -0.3223  0.7160 -0.2397
  558MOL0     O75230  11.715   5.928   6.622 -0.1965 -0.5517 -0.1227
  558MOL0     C75231  11.686   5.987   6.744  0.0687 -0.0569 -0.7149
  558MOL0     C75232  11.674   6.143   6.722  0.0835  0.4297 -0.7293
  558MOL0     C75233  11.570   6.172   6.613 -0.1745 -1.4498  0.3346
  558MOL0     C75234  11.567   6.329   6.589 -0.6377 -0.2431 -0.5435
  558MOL0     C75235  11.443   6.384   6.511  0.5437 -0.0443  0.2605
  558MOL0     C75236  11.311   6.364   6.590 -1.1414  0.1874 -0.0480
  558MOL0     C75237  11.195   6.393   6.492 -0.3416 -0.2417 -0.1715
  558MOL0     C75238  11.069   6.330   6.552  0.0112  0.4373 -0.0100
  558MOL0    Cl75239  11.039   6.394   6.710  0.4835  0.2455  0.0061
  558MOL0     C75240  11.945   5.988   6.648  0.2470 -0.5289 -0.1350
  558MOL0     C75241  12.074   5.982   6.591  0.1687  0.4473 -0.0567
  558MOL0     O75242  12.283   6.128   6.450 -0.5707 -0.1261 -0.1930
  558MOL0     C75243  12.498   6.124   6.280 -0.8762 -0.4745  0.6669
  558MOL0     C75244  12.608   6.117   6.192 -1.0117 -0.3143 -0.6157
  558MOL0     N75245  12.951   6.311   5.641 -0.6772  0.8900 -0.1304
  558MOL0     N75246  12.861   6.352   5.566 -0.1371 -0.7104 -0.0136
  558MOL0     C75247  11.551   6.570   5.796 -0.5985  1.2184 -0.4274
  558MOL0     C75248  11.425   6.545   5.843 -0.0437  0.1648 -0.9649
  558MOL0     C75249  10.969   6.628   5.827  0.2881  0.7771 -0.5616
  558MOL0     C75250  10.920   6.498   5.798 -0.3062 -0.6231 -0.2797
  558MOL0     C75251  10.786   6.465   5.845 -0.0139 -0.1538  0.2092
  558MOL0     C75252  10.696   6.556   5.898 -0.3908  0.4478 -0.1968
  558MOL0     O75253  10.570   6.520   5.931  0.1109  0.4185  0.0617
  558MOL0     C75254  10.517   6.573   6.048 -0.3707  0.0279 -0.2287
  558MOL0     C75255  10.377   6.509   6.080  0.8119  0.1858 -0.8124
  558MOL0     C75256  10.274   6.557   5.977  1.1624  0.5469 -0.2589
  558MOL0     C75257  10.132   6.501   6.025  1.1457 -0.3112 -0.2486
  558MOL0     C75258  10.017   6.595   5.989  0.0867 -0.4395  0.9736
  558MOL0     C75259   9.911   6.668   5.969 -0.6236  0.4128  0.5105
  558MOL0     C75260  10.738   6.688   5.902  0.3028 -1.4983 -0.1575
  558MOL0     C75261  10.872   6.724   5.876 -0.6577 -1.0538  0.2668
  558MOL0     C75262  10.911   6.865   5.917 -0.1060  0.5870 -0.2122
  558MOL0     H75263  11.248   6.569   5.561  1.4545 -1.1353 -0.6633
  558MOL0     H75264  11.476   6.638   5.472 -0.0760  2.0269  0.2974
  558MOL0     H75265  11.832   6.746   5.733 -0.9109  0.6228  1.0785
  558MOL0     H75266  11.820   6.572   5.751 -0.6843  1.8948  1.7448
  558MOL0     H75267  11.946   6.749   5.544 -1.1702 -0.0291  0.7727
  558MOL0     H75268  11.886   6.580   5.498 -1.2825  1.5347 -2.0459
  558MOL0     H75269  12.031   6.487   5.660 -0.8163  1.1231  2.6569
  558MOL0     H75270  12.082   6.632   5.733  1.0511 -2.2770  0.3982
  558MOL0     H75271  12.150   6.565   5.449 -0.8271  0.3343 -0.1714
  558MOL0     H75272  12.211   6.699   5.548 -1.5615  0.1993 -1.0643
  558MOL0     H75273  12.323   6.537   5.713 -1.3448 -1.1708  1.0061
  558MOL0     H75274  12.265   6.403   5.609 -1.8655  0.2411 -0.0889
  558MOL0     H75275  12.409   6.470   5.440 -1.7136  1.5791 -0.7226
  558MOL0     H75276  12.447   6.623   5.501 -2.7835 -0.4319 -3.2170
  558MOL0     H75277  12.521   6.445   5.713  0.1099 -0.8963 -0.6110
  558MOL0     H75278  12.616   6.556   5.620  1.3539  0.3686  1.4732
  558MOL0     H75279  12.558   6.266   5.542 -2.7744  1.5343  0.3264
  558MOL0     H75280  12.651   6.395   5.447  0.5764  1.1019  0.5575
  558MOL0     H75281  12.680   6.204   5.800  0.1795 -0.1962  1.1488
  558MOL0     H75282  13.040   6.228   5.882 -1.5699  1.2961  2.1800
  558MOL0     H75283  12.889   6.184   5.949 -4.6413  0.9353 -3.0294
  558MOL0     H75284  13.011   6.021   5.719 -3.9577  0.9459 -1.5444
  558MOL0     H75285  13.050   5.991   5.900 -0.4897 -0.0204  0.1637
  558MOL0     H75286  12.893   5.824   5.837  1.1037  0.2286  2.1050
  558MOL0     H75287  12.779   5.948   5.779 -0.6974 -1.4193  0.5237
  558MOL0     H75288  12.905   5.902   6.051  2.5152  1.0380 -3.0579
  558MOL0     H75289  12.753   5.826   5.995  0.1501  0.6265  0.0004
  558MOL0     H75290  12.535   5.843   6.025 -2.2606  0.4731 -1.0743
  558MOL0     H75291  12.372   5.822   6.192  2.8495 -1.5035 -1.6842
  558MOL0     H75292  12.031   5.801   6.315  1.6076  2.7428 -1.2765
  558MOL0     H75293  11.772   5.818   6.410 -1.6242 -0.5458  3.3104
  558MOL0     H75294  11.595   5.942   6.785  1.0419 -0.5908  0.9955
  558MOL0     H75295  11.758   5.953   6.820 -0.9384  2.3891  1.5068
  558MOL0     H75296  11.630   6.177   6.816  0.3657  0.4068 -0.5861
  558MOL0     H75297  11.766   6.200   6.702  1.8345 -2.4128 -1.4157
  558MOL0     H75298  11.605   6.135   6.517 -2.0881 -1.7375 -0.2944
  558MOL0     H75299  11.481   6.114   6.637  1.2652 -4.5263 -1.2111
  558MOL0     H75300  11.659   6.358   6.536 -0.0059 -0.3952  0.4514
  558MOL0     H75301  11.572   6.384   6.683  1.5273 -2.1474  0.5383
  558MOL0     H75302  11.432   6.327   6.418  0.6964 -2.5201  1.6713
  558MOL0     H75303  11.465   6.490   6.490  3.3431 -0.5840 -0.0110
  558MOL0     H75304  11.312   6.263   6.633  0.9120  0.5724  0.9440
  558MOL0     H75305  11.305   6.436   6.673  3.8756  0.7744  0.0729
  558MOL0     H75306  11.206   6.342   6.396 -0.6791  2.8730 -2.0054
  558MOL0     H75307  11.171   6.499   6.476 -0.7583 -0.1885  0.7320
  558MOL0     H75308  10.983   6.347   6.487 -0.5418  1.2276  0.9027
  558MOL0     H75309  11.073   6.221   6.553  0.1089  0.4423  0.1501
  558MOL0     H75310  11.933   6.041   6.742 -1.3784  0.4012 -0.8203
  558MOL0     H75311  12.160   6.023   6.644 -0.3013 -0.9411  1.9053
  558MOL0     H75312  12.488   6.215   6.339  0.0830  0.5829 -0.7318
  558MOL0     H75313  12.684   6.193   6.206 -0.1990 -0.9690 -1.2872
  558MOL0     H75314  11.627   6.578   5.873  1.1787  1.4906 -2.1050
  558MOL0     H75315  11.430   6.514   5.947 -0.4819  0.9635 -0.6905
  558MOL0     H75316  10.973   6.420   5.746 -1.0888 -2.4791  1.5400
  558MOL0     H75317  10.754   6.363   5.823 -0.4103 -0.1069  0.5569
  558MOL0     H75318  10.505   6.681   6.037 -0.2273  0.2710  1.6952
  558MOL0     H75319  10.572   6.559   6.141  0.2111 -0.8377 -0.6798
  558MOL0     H75320  10.343   6.526   6.183 -0.2339  0.3543 -1.1739
  558MOL0     H75321  10.391   6.401   6.086  2.6465  0.3543 -1.4609
  558MOL0     H75322  10.299   6.509   5.881 -0.7031 -0.8900 -0.0864
  558MOL0     H75323  10.276   6.666   5.972  4.5212  0.6532  1.0817
  558MOL0     H75324  10.116   6.400   5.987  2.2752 -0.4525 -0.3947
  558MOL0     H75325  10.130   6.500   6.134  0.7720  0.0040 -0.2512
  558MOL0     H75326   9.821   6.725   5.964  0.3035  1.9606  0.5227
  558MOL0     H75327  10.681   6.773   5.939  1.7420 -0.2820 -0.6346
  558MOL0     H75328  10.921   6.934   5.832 -1.4227  6.0123  3.5172
  558MOL0     H75329  10.831   6.903   5.981 -0.5108 -0.7319  0.0970
  558MOL0     H75330  11.004   6.871   5.974  0.0770 -1.9203 -0.1412
  559MOL0     O75331   3.956  10.412   3.777  0.1111  0.8384 -0.1775
  559MOL0     C75332   3.933  10.492   3.689 -0.6682  1.0931  0.3340
  559MOL0     O75333   4.011  10.514   3.584  0.1937 -0.3759 -0.0240
  559MOL0     C75334   4.135  10.461   3.585  0.0907 -0.0071 -0.3563
  559MOL0     C75335   4.191  10.428   3.467 -0.1080  0.7405 -0.1005
  559MOL0     C75336   4.328  10.391   3.458  0.2638  0.0930 -0.0766
  559MOL0     C75337   4.405  10.368   3.571 -0.4579 -0.3671 -1.2165
  559MOL0     O75338   4.538  10.322   3.553 -0.6112 -0.5030 -0.9839
  559MOL0     C75339   4.605  10.293   3.680 -0.7809  0.7542  0.1318
  559MOL0     C75340   4.727  10.227   3.632 -0.4747 -0.1030  0.2485
  559MOL0     C75341   4.853  10.315   3.575  0.0198 -0.3323  0.4811
  559MOL0     C75342   4.989  10.271   3.637 -0.2186 -0.0896 -0.6682
  559MOL0     C75343   5.103  10.364   3.580  0.3836 -0.6934  0.1794
  559MOL0     C75344   5.239  10.301   3.610 -0.4732  0.2433  0.0951
  559MOL0     C75345   5.356  10.379   3.545  0.2117  0.0665  0.0170
  559MOL0     C75346   5.422  10.482   3.631 -0.6918 -0.3210  0.1100
  559MOL0     N75347   5.386  10.621   3.607  0.5543 -0.6913  0.0603
  559MOL0     C75348   5.304  10.703   3.683 -0.1624 -0.3024 -0.9885
  559MOL0     C75349   5.328  10.825   3.628  0.1407 -0.8866  0.2701
  559MOL0     C75350   5.262  10.953   3.666 -0.3346 -0.1675 -0.1572
  559MOL0     C75351   5.335  11.032   3.774 -0.0284  0.0844 -1.3903
  559MOL0     C75352   5.430  11.129   3.718  0.4790 -0.3374  0.0475
  559MOL0     C75353   5.502  11.223   3.823  0.4281  0.6308 -0.5736
  559MOL0     O75354   5.567  11.340   3.761 -0.1355  0.4913 -0.1533
  559MOL0     C75355   5.703  11.342   3.769  0.2847  1.1369  0.2173
  559MOL0     C75356   5.784  11.306   3.887 -0.5906  1.2312  1.1591
  559MOL0     C75357   5.923  11.302   3.873 -0.6816 -0.3072 -0.3828
  559MOL0     C75358   5.982  11.327   3.749  0.2710 -0.0475 -1.0724
  559MOL0     C75359   6.127  11.292   3.733 -0.3083  0.0193  0.4464
  559MOL0     O75360   6.165  11.284   3.606 -0.3837  0.8169  0.1030
  559MOL0     C75361   6.297  11.275   3.569 -0.1075  0.1603  0.1812
  559MOL0     C75362   6.389  11.379   3.590 -0.1105  0.5008  0.7383
  559MOL0     C75363   6.526  11.368   3.552  0.1472 -0.2180  0.7852
  559MOL0     C75364   6.561  11.260   3.463 -0.8227  0.1074 -0.5343
  559MOL0     O75365   6.680  11.263   3.405 -0.1782 -0.6768  0.7722
  559MOL0     C75366   6.708  11.190   3.288  0.0172 -0.3900  0.3337
  559MOL0     C75367   6.817  11.271   3.208 -0.5084 -0.3918 -0.0342
  559MOL0     C75368   6.798  11.265   3.058 -1.1458  0.3498  0.5141
  559MOL0     C75369   6.784  11.121   3.008 -0.2703  0.3193  0.1724
  559MOL0     C75370   6.759  11.130   2.856  0.9671  0.1521  0.3410
  559MOL0     C75371   6.687  11.006   2.801 -0.7684 -0.6380  0.1846
  559MOL0     C75372   6.659  11.036   2.654 -0.2654  0.1578  0.5139
  559MOL0     C75373   6.556  10.946   2.583  0.8842 -0.4090  0.1022
  559MOL0    Cl75374   6.383  10.978   2.643 -0.0897 -0.1558  0.2329
  559MOL0     C75375   6.469  11.147   3.456 -0.4379 -0.3133  0.4772
  559MOL0     C75376   6.337  11.150   3.507  0.4750  1.0412 -0.0972
  559MOL0     O75377   6.200  11.283   3.825  0.1366 -0.1864 -0.3409
  559MOL0     C75378   5.908  11.370   3.647  0.5168  0.1474 -0.4007
  559MOL0     C75379   5.769  11.374   3.653 -0.4855 -0.3551  0.1201
  559MOL0     N75380   5.419  10.819   3.525  0.0566 -0.2802 -0.2451
  559MOL0     N75381   5.451  10.690   3.508 -0.7217  0.6949  0.0435
  559MOL0     C75382   4.353  10.405   3.694 -0.4260 -0.2121 -0.1320
  559MOL0     C75383   4.220  10.457   3.698  0.1980 -0.5908 -0.9744
  559MOL0     C75384   3.812  10.578   3.695  0.0402  0.4097 -0.4583
  559MOL0     C75385   3.772  10.643   3.572  0.2984  0.1034 -0.0548
  559MOL0     C75386   3.655  10.711   3.564  0.0922 -0.1694  0.2783
  559MOL0     C75387   3.574  10.732   3.680  0.5686  0.3380  0.3931
  559MOL0     O75388   3.459  10.810   3.677  0.1172  0.0663 -0.1913
  559MOL0     C75389   3.365  10.752   3.587  0.9599  0.2409 -0.8418
  559MOL0     C75390   3.229  10.822   3.598  0.3384  0.6755  0.0009
  559MOL0     C75391   3.246  10.979   3.588  0.3483 -0.6012  0.1692
  559MOL0     C75392   3.251  11.053   3.724  0.2983  0.4859 -0.0682
  559MOL0     C75393   3.106  11.066   3.767 -0.0837 -0.4282  0.3345
  559MOL0     C75394   2.987  11.080   3.772 -0.4122 -0.5553  0.0116
  559MOL0     C75395   3.617  10.674   3.801  0.5259 -0.5990  1.3521
  559MOL0     C75396   3.730  10.596   3.808  0.0968  0.3644 -0.6223
  559MOL0     C75397   3.756  10.554   3.949 -0.5476  0.2123  0.1687
  559MOL0     H75398   4.135  10.435   3.374 -2.4469  1.8644  1.3151
  559MOL0     H75399   4.382  10.382   3.365 -0.5678 -1.4876 -0.4388
  559MOL0     H75400   4.625  10.383   3.739  1.2512 -0.7420  1.9105
  559MOL0     H75401   4.551  10.219   3.739 -0.3637  0.0542 -0.3450
  559MOL0     H75402   4.707  10.159   3.549 -0.4226  0.8840 -0.5857
  559MOL0     H75403   4.768  10.176   3.719  1.1121 -0.0865 -0.4721
  559MOL0     H75404   4.839  10.421   3.596 -0.9501 -0.3363 -0.0901
  559MOL0     H75405   4.853  10.299   3.467 -1.7988  1.3637  0.1931
  559MOL0     H75406   4.986  10.273   3.747 -1.0675  2.5847 -0.6756
  559MOL0     H75407   4.999  10.167   3.606 -1.3021 -0.7770  1.1098
  559MOL0     H75408   5.088  10.373   3.472 -1.1059  0.2971  0.4354
  559MOL0     H75409   5.088  10.464   3.621  0.4495 -0.4331 -0.4259
  559MOL0     H75410   5.253  10.292   3.718 -0.0806  0.8160  0.0983
  559MOL0     H75411   5.241  10.201   3.565  1.4698 -0.1246  0.8935
  559MOL0     H75412   5.334  10.432   3.452  2.7775 -0.8109 -1.1834
  559MOL0     H75413   5.423  10.300   3.511  2.7107  2.0297  0.1101
  559MOL0     H75414   5.397  10.462   3.736  0.6191 -1.2793  0.2606
  559MOL0     H75415   5.530  10.467   3.625 -0.6241  0.6062 -1.6023
  559MOL0     H75416   5.243  10.663   3.763 -0.0414 -3.2651 -2.2320
  559MOL0     H75417   5.257  11.009   3.572 -2.8703 -0.1767 -0.1045
  559MOL0     H75418   5.156  10.936   3.686 -0.0351  0.2885  2.1708
  559MOL0     H75419   5.260  11.082   3.836 -0.4249 -1.4897 -0.5511
  559MOL0     H75420   5.383  10.961   3.841  1.0929 -1.6183 -3.8451
  559MOL0     H75421   5.369  11.203   3.667 -2.1604  1.4473  5.0769
  559MOL0     H75422   5.500  11.088   3.644 -0.3601  1.5351 -1.8878
  559MOL0     H75423   5.580  11.161   3.869  1.2773  0.9662 -1.5106
  559MOL0     H75424   5.425  11.256   3.893  0.0241  0.1849 -0.8044
  559MOL0     H75425   5.745  11.268   3.980 -4.2178  2.0288  0.1336
  559MOL0     H75426   5.986  11.277   3.958  1.2845 -0.1217 -1.7124
  559MOL0     H75427   6.355  11.467   3.644 -0.0952  2.7102 -2.5503
  559MOL0     H75428   6.574  11.464   3.568 -2.0355  0.7733  1.7303
  559MOL0     H75429   6.733  11.084   3.303  0.6811 -0.3765 -0.6256
  559MOL0     H75430   6.620  11.191   3.223  1.6009  1.9731 -1.9775
  559MOL0     H75431   6.802  11.379   3.210 -0.1250 -0.2037 -2.8993
  559MOL0     H75432   6.917  11.237   3.237 -0.2821  1.6247  1.7302
  559MOL0     H75433   6.716  11.330   3.026  0.0976  2.2145  0.9067
  559MOL0     H75434   6.892  11.303   3.016 -0.4028 -1.0269  0.8963
  559MOL0     H75435   6.704  11.069   3.060 -0.7029  1.4373  0.6587
  559MOL0     H75436   6.877  11.066   3.021 -1.1029 -0.8400  1.4669
  559MOL0     H75437   6.861  11.141   2.818  0.4111  0.7897 -1.0485
  559MOL0     H75438   6.697  11.214   2.824 -1.4240 -2.1550 -1.5651
  559MOL0     H75439   6.747  10.915   2.803  0.4364  0.1093 -0.6249
  559MOL0     H75440   6.599  10.989   2.864 -0.0334  0.4192  1.5544
  559MOL0     H75441   6.749  11.040   2.592 -0.1888 -0.2202  0.5955
  559MOL0     H75442   6.612  11.134   2.648 -1.5452 -0.5233 -3.1253
  559MOL0     H75443   6.558  10.980   2.479  0.8234 -0.2076  0.1657
  559MOL0     H75444   6.593  10.844   2.586  1.7771 -0.0816  0.4010
  559MOL0     H75445   6.500  11.071   3.385  2.6946  1.8448 -0.6890
  559MOL0     H75446   6.279  11.059   3.493 -0.0603  1.1612  1.1993
  559MOL0     H75447   5.952  11.393   3.551  0.2665 -0.7450 -0.7377
  559MOL0     H75448   5.715  11.397   3.562  0.5762  1.9882  0.0119
  559MOL0     H75449   4.405  10.392   3.788  0.0596 -0.7229 -0.4619
  559MOL0     H75450   4.188  10.486   3.798 -1.6213 -1.9059 -1.1310
  559MOL0     H75451   3.839  10.633   3.488  0.0109  0.4352 -0.3217
  559MOL0     H75452   3.626  10.763   3.474 -1.3573  0.6824  1.1852
  559MOL0     H75453   3.366  10.646   3.611 -1.2660  0.6378  1.3555
  559MOL0     H75454   3.402  10.781   3.488  3.7106  3.3374  0.8771
  559MOL0     H75455   3.189  10.802   3.697  0.5222 -1.0837 -0.2450
  559MOL0     H75456   3.158  10.782   3.525  0.1243 -0.5306  0.8552
  559MOL0     H75457   3.168  11.028   3.530  1.0629  2.4062  1.5132
  559MOL0     H75458   3.340  11.005   3.539  0.2999 -0.5720  0.0924
  559MOL0     H75459   3.295  10.985   3.797  2.8181  1.1080 -0.9104
  559MOL0     H75460   3.309  11.146   3.726 -0.8075  1.1824  2.1306
  559MOL0     H75461   2.882  11.102   3.779 -0.3786 -0.7612  1.4626
  559MOL0     H75462   3.566  10.711   3.889  0.5133  2.3538  0.2243
  559MOL0     H75463   3.773  10.446   3.960  0.4949  0.4751  1.4470
  559MOL0     H75464   3.848  10.607   3.977 -2.2897  2.2441  2.5246
  559MOL0     H75465   3.675  10.579   4.018 -0.1008  2.7028 -0.1266
  560MOL0     O75466   5.035   6.254   9.968 -0.0917  0.0749  0.4125
  560MOL0     C75467   4.978   6.155  10.008  0.0173  0.7526 -0.0268
  560MOL0     O75468   5.043   6.030  10.017  0.2517  0.0958  0.5106
  560MOL0     C75469   5.176   6.010  10.016 -0.6316 -0.7055  0.0456
  560MOL0     C75470   5.230   5.925  10.107 -0.1412  0.0671 -1.2147
  560MOL0     C75471   5.375   5.916  10.106  0.6897 -0.0702 -0.1560
  560MOL0     C75472   5.450   5.976  10.013 -0.0487  0.4473  0.1739
  560MOL0     O75473   5.590   5.967  10.001 -0.0349 -0.6299 -1.2691
  560MOL0     C75474   5.651   5.918  10.125 -0.7376  0.9970  0.0782
  560MOL0     C75475   5.794   5.931  10.116 -0.6383  0.7690  0.4804
  560MOL0     C75476   5.874   5.885  10.236  0.0883  0.4429  0.5727
  560MOL0     C75477   6.021   5.915  10.205 -0.5815 -0.0125 -0.3833
  560MOL0     C75478   6.100   5.916  10.337 -0.0996  0.4539  0.1131
  560MOL0     C75479   6.239   5.975  10.311 -1.0118 -0.7935  0.0858
  560MOL0     C75480   6.308   6.008  10.446 -0.2771  0.2666  0.1461
  560MOL0     C75481   6.440   6.082  10.420  0.2305  0.6420 -0.5326
  560MOL0     N75482   6.499   6.146  10.534 -0.0781 -0.7842 -0.9414
  560MOL0     C75483   6.613   6.125  10.599  0.4249 -0.3730 -0.0900
  560MOL0     C75484   6.631   6.203  10.707 -0.1681  0.0445  0.6782
  560MOL0     C75485   6.738   6.208  10.808 -0.6818  0.7648  0.6196
  560MOL0     C75486   6.846   6.310  10.756  0.8662  0.2211 -0.6233
  560MOL0     C75487   6.800   6.462  10.761  0.3657  0.2008 -0.1440
  560MOL0     C75488   6.749   6.501  10.898  0.0586  0.8046 -0.1505
  560MOL0     O75489   6.842   6.479  11.010 -0.2011 -0.4148 -0.1455
  560MOL0     C75490   6.962   6.551  10.998  0.4274  0.0422  1.0347
  560MOL0     C75491   7.083   6.483  11.029 -0.0717 -0.7192  0.3468
  560MOL0     C75492   7.205   6.559  11.040  0.2002  0.0474 -0.0178
  560MOL0     C75493   7.203   6.699  11.010  0.3115 -0.7542 -0.2456
  560MOL0     C75494   7.323   6.785  11.009  0.1799 -0.1610 -0.7341
  560MOL0     O75495   7.434   6.731  11.063 -0.1066  0.3260  0.4934
  560MOL0     C75496   7.544   6.806  11.057  0.6952 -0.2265 -1.2315
  560MOL0     C75497   7.622   6.807  10.943 -0.0696 -0.0420 -0.9307
  560MOL0     C75498   7.747   6.868  10.937  0.4117  0.2512 -0.7274
  560MOL0     C75499   7.791   6.949  11.041 -0.2786  0.1032 -0.9519
  560MOL0     O75500   7.912   7.017  11.048  0.0685  0.0492  0.3066
  560MOL0     C75501   8.003   7.025  10.941  0.3279 -0.1761 -0.4943
  560MOL0     C75502   8.087   6.899  10.916  2.0844  0.3107 -0.9798
  560MOL0     C75503   8.219   6.913  10.846 -0.3704 -0.3514  0.6006
  560MOL0     C75504   8.207   6.996  10.724 -0.0145  0.7804  0.4769
  560MOL0     C75505   8.334   7.010  10.634 -0.1577  0.5757 -0.1670
  560MOL0     C75506   8.443   7.088  10.712  0.3814 -0.2177  0.3038
  560MOL0     C75507   8.555   7.136  10.612  0.5658  0.2226  0.2668
  560MOL0     C75508   8.642   7.233  10.689  0.0782 -0.2222  0.2611
  560MOL0    Cl75509   8.745   7.144  10.805 -0.0909  0.0859  0.2486
  560MOL0     C75510   7.708   6.964  11.158  1.2531 -1.2612  0.0893
  560MOL0     C75511   7.591   6.882  11.168 -0.2696 -0.0399 -0.3450
  560MOL0     O75512   7.315   6.903  10.965 -0.4675  0.3070 -0.1636
  560MOL0     C75513   7.081   6.766  10.977 -0.2979  0.0190  0.0985
  560MOL0     C75514   6.962   6.689  10.988  0.5539  0.8412  0.1875
  560MOL0     N75515   6.516   6.283  10.712 -1.1146 -0.3148 -0.6778
  560MOL0     N75516   6.443   6.254  10.605 -1.1754 -0.0773 -0.6878
  560MOL0     C75517   5.385   6.041   9.910  0.7908  0.6471 -0.2853
  560MOL0     C75518   5.247   6.064   9.910  0.6967  0.5732  0.3742
  560MOL0     C75519   4.839   6.145  10.040 -0.2533  0.2405  0.3588
  560MOL0     C75520   4.800   6.046  10.111  0.8394  0.2419 -0.2852
  560MOL0     C75521   4.656   6.015  10.113 -0.1973  0.3024 -0.1680
  560MOL0     C75522   4.562   6.090  10.049  0.0761 -1.4871  0.3764
  560MOL0     O75523   4.428   6.056  10.069  0.4279 -0.2527 -0.3957
  560MOL0     C75524   4.326   6.143  10.025 -0.3406  0.3390 -0.8764
  560MOL0     C75525   4.197   6.115  10.101 -0.4364 -0.9516  0.1588
  560MOL0     C75526   4.066   6.173  10.041  0.4839  1.2553 -0.0579
  560MOL0     C75527   3.931   6.132  10.127 -0.7876  0.0517  0.5399
  560MOL0     C75528   3.937   6.184  10.266 -0.7613  0.2548  0.8905
  560MOL0     C75529   3.941   6.208  10.378 -0.0997  0.1570 -0.7079
  560MOL0     C75530   4.605   6.194   9.967 -0.9121  0.4562  0.4302
  560MOL0     C75531   4.750   6.219   9.954  1.2618 -0.2129 -0.9429
  560MOL0     C75532   4.784   6.309   9.840  0.4425  0.7104 -1.2458
  560MOL0     H75533   5.166   5.894  10.188 -1.1506  1.4142 -1.4636
  560MOL0     H75534   5.423   5.847  10.174 -0.5263 -1.9918 -1.1543
  560MOL0     H75535   5.610   5.984  10.203  0.6204  1.4320  0.4660
  560MOL0     H75536   5.621   5.815  10.142 -1.5656  1.3680  0.9300
  560MOL0     H75537   5.821   6.036  10.101  2.3383  0.0576  0.0687
  560MOL0     H75538   5.825   5.873  10.028  1.3016  1.0974  0.8959
  560MOL0     H75539   5.849   5.779  10.243  2.1130 -0.1116  0.0500
  560MOL0     H75540   5.840   5.941  10.324 -2.7560 -2.0829  1.2251
  560MOL0     H75541   6.062   5.837  10.140  1.4965 -1.1677  2.1357
  560MOL0     H75542   6.023   6.012  10.155 -0.6489 -0.0433 -0.4467
  560MOL0     H75543   6.064   5.986  10.413  1.1308  0.4005  0.7819
  560MOL0     H75544   6.100   5.820  10.389 -0.6082  1.6824  2.5276
  560MOL0     H75545   6.312   5.910  10.263 -0.8200  0.4376 -1.3604
  560MOL0     H75546   6.227   6.070  10.258 -0.3891 -1.6811 -1.7179
  560MOL0     H75547   6.336   5.913  10.492 -1.7245 -0.4707 -0.4429
  560MOL0     H75548   6.239   6.066  10.508  2.8405  4.2370  0.3125
  560MOL0     H75549   6.512   6.009  10.383 -1.8035 -1.9872  0.3532
  560MOL0     H75550   6.416   6.160  10.347 -2.9303 -1.5595 -2.1208
  560MOL0     H75551   6.687   6.050  10.571  0.7698  0.3205 -1.0848
  560MOL0     H75552   6.697   6.231  10.907 -1.5332 -0.0571  0.4698
  560MOL0     H75553   6.776   6.105  10.804 -3.1316 -0.1702 -1.4640
  560MOL0     H75554   6.929   6.289  10.824  0.3105 -2.9808 -0.7706
  560MOL0     H75555   6.892   6.293  10.658  1.8195 -5.6032  0.4717
  560MOL0     H75556   6.722   6.477  10.685 -0.5832 -1.4833  0.4241
  560MOL0     H75557   6.878   6.533  10.733  1.3607 -0.5921  0.5324
  560MOL0     H75558   6.661   6.441  10.924  0.2979  0.7927  0.6649
  560MOL0     H75559   6.721   6.606  10.892  0.7457  0.9306 -1.6605
  560MOL0     H75560   7.101   6.383  11.067  0.9720 -0.6755  0.0197
  560MOL0     H75561   7.294   6.511  11.078 -0.7008 -0.5794  1.3993
  560MOL0     H75562   7.598   6.740  10.861  0.7436 -0.7970 -0.5720
  560MOL0     H75563   7.807   6.853  10.848  1.4820 -0.6815  0.1345
  560MOL0     H75564   7.954   7.056  10.849 -1.9717  0.7051  0.9514
  560MOL0     H75565   8.064   7.107  10.981 -0.0765 -1.5030  3.2835
  560MOL0     H75566   8.093   6.841  11.009 -1.2308  2.2028  0.6027
  560MOL0     H75567   8.028   6.820  10.868  2.1707 -1.9150  2.2054
  560MOL0     H75568   8.285   6.959  10.920 -1.9115  0.6392  1.4003
  560MOL0     H75569   8.252   6.810  10.827 -0.0070 -0.0137 -0.7270
  560MOL0     H75570   8.165   7.093  10.750 -0.8896  0.1998  1.3092
  560MOL0     H75571   8.142   6.937  10.659  0.7900  0.1973  0.1895
  560MOL0     H75572   8.302   7.058  10.541  0.5180 -0.1278 -0.7766
  560MOL0     H75573   8.369   6.908  10.614 -3.9769 -1.7417  3.4269
  560MOL0     H75574   8.377   7.170  10.742 -3.2097 -2.4407 -0.9270
  560MOL0     H75575   8.484   7.031  10.796 -0.8901 -0.2221  0.9407
  560MOL0     H75576   8.502   7.181  10.528 -0.1408 -1.5897 -0.3062
  560MOL0     H75577   8.621   7.054  10.581  0.9329 -0.0691  1.7609
  560MOL0     H75578   8.700   7.294  10.619 -1.8187  0.8110 -0.4834
  560MOL0     H75579   8.594   7.313  10.746  1.9134  0.6535  0.6496
  560MOL0     H75580   7.738   7.035  11.235 -0.7458  1.3483 -1.3591
  560MOL0     H75581   7.542   6.884  11.265 -0.6127  0.8984 -0.5314
  560MOL0     H75582   7.073   6.871  10.948 -2.3792  0.3773  1.7471
  560MOL0     H75583   6.871   6.745  10.966  1.4288  2.9724  1.6115
  560MOL0     H75584   5.453   6.065   9.829  1.0103  0.8692 -0.0378
  560MOL0     H75585   5.201   6.116   9.827 -0.8029  1.8035  1.9168
  560MOL0     H75586   4.863   5.985  10.175  0.8428 -0.4921 -0.9706
  560MOL0     H75587   4.634   5.929  10.175  2.4312  0.9745  1.8670
  560MOL0     H75588   4.314   6.119   9.919 -3.0207  2.1130 -1.0671
  560MOL0     H75589   4.364   6.243  10.049  2.0716 -1.4764  4.3053
  560MOL0     H75590   4.211   6.161  10.199  0.5605 -2.7191  0.9004
  560MOL0     H75591   4.183   6.009  10.122  0.1339 -1.0128  0.2555
  560MOL0     H75592   4.052   6.139   9.938 -0.5474  0.2174  0.4033
  560MOL0     H75593   4.064   6.282  10.033  0.2378  1.1944 -0.9511
  560MOL0     H75594   3.840   6.180  10.088 -0.8833 -0.5513 -0.0060
  560MOL0     H75595   3.914   6.024  10.136 -0.2692  0.0182  1.1856
  560MOL0     H75596   3.953   6.226  10.483  0.1552 -0.0309 -0.7054
  560MOL0     H75597   4.532   6.263   9.924 -2.8443 -0.2196  2.4512
  560MOL0     H75598   4.837   6.397   9.877  1.9033 -1.0686  1.0968
  560MOL0     H75599   4.846   6.240   9.782 -0.3112 -2.5906  1.5485
  560MOL0     H75600   4.704   6.352   9.779 -0.6856  2.8998  1.5582
  561MOL0     O75601   7.967   0.036   5.812  0.0937 -0.1494  0.0759
  561MOL0     C75602   7.983   0.033   5.692 -0.5015 -0.9969 -0.1008
  561MOL0     O75603   8.094   0.081   5.629  0.4931 -0.8394 -1.2366
  561MOL0     C75604   8.205   0.103   5.711 -0.7632 -0.3959  0.2706
  561MOL0     C75605   8.276   0.003   5.776 -0.4371 -0.3446  0.0765
  561MOL0     C75606   8.394   0.038   5.843  0.0336 -0.1067 -0.1957
  561MOL0     C75607   8.453   0.164   5.843  0.4967  0.1870  0.2773
  561MOL0     O75608   8.578   0.200   5.894 -0.1968 -0.2196 -0.5008
  561MOL0     C75609   8.676   0.097   5.901 -0.4205 -0.1723  0.1681
  561MOL0     C75610   8.815   0.165   5.903 -0.3566  0.0699  0.3249
  561MOL0     C75611   8.838   0.299   5.831  0.4072  0.2600 -0.3695
  561MOL0     C75612   8.989   0.330   5.838  1.0344  0.4508 -0.0633
  561MOL0     C75613   9.014   0.465   5.775 -0.3572  0.4094  0.7948
  561MOL0     C75614   9.162   0.512   5.804  0.9695  0.6796 -0.0084
  561MOL0     C75615   9.204   0.645   5.729  0.4637 -0.0121 -0.2243
  561MOL0     C75616   9.361   0.657   5.723  0.2337  0.3626  0.4636
  561MOL0     N75617   9.418   0.685   5.855  0.1991 -0.3190 -0.6795
  561MOL0     C75618   9.383   0.793   5.932 -0.5053 -0.2619 -0.2190
  561MOL0     C75619   9.443   0.768   6.054  0.2991 -0.0657 -0.5709
  561MOL0     C75620   9.431   0.843   6.187 -0.4354 -0.0362 -0.6044
  561MOL0     C75621   9.566   0.858   6.258 -0.1280 -0.7997  0.8680
  561MOL0     C75622   9.551   0.909   6.399  0.1411 -0.3342 -0.9730
  561MOL0     C75623   9.685   0.965   6.457 -0.2701  0.3693 -0.0041
  561MOL0     O75624   9.722   1.077   6.374 -0.0337 -0.7947  0.1918
  561MOL0     C75625   9.833   1.147   6.419  0.0895  0.1668 -0.5312
  561MOL0     C75626   9.953   1.082   6.446 -0.2543  0.5285 -0.9501
  561MOL0     C75627  10.069   1.149   6.483  0.5638  0.2555  0.0379
  561MOL0     C75628  10.069   1.289   6.496 -0.0269  0.1968 -0.7580
  561MOL0     C75629  10.187   1.354   6.543 -0.2681 -0.9196 -0.3182
  561MOL0     O75630  10.310   1.287   6.533  0.2888 -0.1532 -0.4868
  561MOL0     C75631  10.421   1.367   6.540  0.0789  0.5577 -0.3055
  561MOL0     C75632  10.456   1.431   6.420  0.0619  0.7756  0.3524
  561MOL0     C75633  10.571   1.504   6.421 -0.9734  0.2980 -0.2758
  561MOL0     C75634  10.654   1.504   6.530  0.2499  0.1152 -0.4280
  561MOL0     O75635  10.775   1.567   6.514  0.0419 -0.1793 -0.2543
  561MOL0     C75636  10.835   1.627   6.624  1.2079 -0.6230 -0.2794
  561MOL0     C75637  10.953   1.696   6.572  0.1627 -0.0856 -0.3515
  561MOL0     C75638  11.074   1.601   6.553 -1.3910 -0.1843 -0.0751
  561MOL0     C75639  11.205   1.676   6.528 -0.6748  0.1955 -0.1151
  561MOL0     C75640  11.320   1.582   6.513 -0.0803  0.8471 -0.0065
  561MOL0     C75641  11.424   1.659   6.430 -0.4022 -0.1773  0.0826
  561MOL0     C75642  11.559   1.586   6.435 -0.0726 -0.6517  0.7194
  561MOL0     C75643  11.653   1.655   6.350 -0.4335  0.6765  0.7201
  561MOL0    Cl75644  11.810   1.720   6.422  0.3865  0.2988 -0.5157
  561MOL0     C75645  10.617   1.434   6.653  0.1107 -0.1958  0.0025
  561MOL0     C75646  10.493   1.375   6.658  0.0300  0.2010 -0.2239
  561MOL0     O75647  10.165   1.459   6.597  0.7391 -0.1731  0.1305
  561MOL0     C75648   9.943   1.349   6.471  0.3732 -0.1416  0.3008
  561MOL0     C75649   9.837   1.283   6.428  0.7415  0.3945  0.6132
  561MOL0     N75650   9.522   0.653   6.040 -0.2232  0.3135  0.1638
  561MOL0     N75651   9.503   0.608   5.926  0.3840  0.0526  0.4059
  561MOL0     C75652   8.368   0.263   5.780 -0.1378  0.8000 -0.5938
  561MOL0     C75653   8.249   0.229   5.722 -0.0466 -0.4054  0.1139
  561MOL0     C75654   7.881  -0.034   5.619 -0.2478 -0.5150  0.6701
  561MOL0     C75655   7.823   0.037   5.519 -0.5023 -0.0262 -0.4443
  561MOL0     C75656   7.699   0.004   5.463 -0.8500 -0.1623  0.0246
  561MOL0     C75657   7.641  -0.118   5.503  1.0760 -0.0329 -0.8402
  561MOL0     O75658   7.519  -0.155   5.463  0.3402  0.3514  0.2709
  561MOL0     C75659   7.446  -0.075   5.366  0.2404  0.3897  0.2236
  561MOL0     C75660   7.293  -0.103   5.367 -0.3725 -0.5422 -0.0944
  561MOL0     C75661   7.249  -0.248   5.398 -0.5196  0.3118 -1.2713
  561MOL0     C75662   7.315  -0.351   5.309 -0.5689  0.2115 -0.8102
  561MOL0     C75663   7.207  -0.450   5.280 -0.2045  0.0083  0.2794
  561MOL0     C75664   7.109  -0.518   5.256  0.5442 -0.4145  0.1027
  561MOL0     C75665   7.705  -0.203   5.587 -1.0094  0.0105 -1.0233
  561MOL0     C75666   7.825  -0.168   5.653  0.7770  0.0658  0.7852
  561MOL0     C75667   7.879  -0.268   5.747 -0.0485  0.8422  0.1407
  561MOL0     H75668   8.241  -0.099   5.763 -1.2928 -0.2919  1.6972
  561MOL0     H75669   8.443  -0.037   5.904  1.9775  2.2485  1.3538
  561MOL0     H75670   8.661   0.029   5.985  0.1869  0.9824  1.2402
  561MOL0     H75671   8.686   0.041   5.807  2.9648  0.5568 -0.0331
  561MOL0     H75672   8.883   0.091   5.859 -1.0952  0.3194 -1.3252
  561MOL0     H75673   8.835   0.175   6.010  1.3128  1.1390 -0.0498
  561MOL0     H75674   8.788   0.378   5.888  2.1583  2.4988 -1.7237
  561MOL0     H75675   8.803   0.291   5.728  1.8140  0.2504 -0.8698
  561MOL0     H75676   9.031   0.330   5.939  0.9001  2.9258  0.0404
  561MOL0     H75677   9.052   0.257   5.785  1.4159 -0.4997  1.6374
  561MOL0     H75678   8.987   0.463   5.669 -2.9217  3.5107  1.2472
  561MOL0     H75679   8.938   0.528   5.822 -2.0459  1.2170 -2.6620
  561MOL0     H75680   9.179   0.538   5.909 -0.4844 -1.6107  0.8759
  561MOL0     H75681   9.232   0.429   5.787 -1.7944 -1.5906 -1.1017
  561MOL0     H75682   9.164   0.739   5.768 -4.5870 -0.5395 -3.2258
  561MOL0     H75683   9.178   0.646   5.622 -0.1152 -2.8248 -0.1838
  561MOL0     H75684   9.401   0.563   5.684 -2.5244  0.9135 -4.5429
  561MOL0     H75685   9.387   0.743   5.660 -0.9589 -0.2004 -0.8811
  561MOL0     H75686   9.317   0.878   5.914 -1.7050 -1.1726 -0.1901
  561MOL0     H75687   9.391   0.942   6.158 -0.5668 -0.4506 -1.9220
  561MOL0     H75688   9.357   0.797   6.253 -2.5533  1.6084 -1.6627
  561MOL0     H75689   9.614   0.760   6.262  0.7844 -0.5100 -1.1418
  561MOL0     H75690   9.626   0.924   6.194 -2.2882 -1.4767 -2.0797
  561MOL0     H75691   9.520   0.831   6.470 -0.3661  0.8540  0.1498
  561MOL0     H75692   9.480   0.992   6.399  0.0212 -0.4360 -1.8192
  561MOL0     H75693   9.754   0.881   6.473 -3.7652 -2.5474  1.0922
  561MOL0     H75694   9.673   0.991   6.563 -1.3321 -2.4312  0.6469
  561MOL0     H75695   9.971   0.975   6.443 -1.0553  0.3009  0.9186
  561MOL0     H75696  10.157   1.088   6.500 -0.8281 -1.9494 -0.2851
  561MOL0     H75697  10.393   1.420   6.332  0.1497 -1.0394  0.4689
  561MOL0     H75698  10.607   1.556   6.333  4.1904 -3.0326 -0.5784
  561MOL0     H75699  10.764   1.697   6.669  0.7617 -1.6566  0.6684
  561MOL0     H75700  10.861   1.563   6.709 -1.1609  4.1014  4.6270
  561MOL0     H75701  10.935   1.761   6.486 -0.4656  0.8074  0.4405
  561MOL0     H75702  10.982   1.767   6.650  2.0573 -1.8220  0.6434
  561MOL0     H75703  11.089   1.546   6.646  2.7474  3.5323  1.7947
  561MOL0     H75704  11.047   1.528   6.475 -0.6764  0.7247 -1.2106
  561MOL0     H75705  11.232   1.755   6.599  0.1020 -0.1412 -0.0203
  561MOL0     H75706  11.191   1.729   6.434 -1.4916  1.3351  0.6222
  561MOL0     H75707  11.297   1.490   6.458  2.5590  0.0721  0.0148
  561MOL0     H75708  11.357   1.545   6.609 -0.5746 -1.4531 -0.6223
  561MOL0     H75709  11.376   1.675   6.333 -0.8618  0.8343  0.4635
  561MOL0     H75710  11.438   1.754   6.483 -1.0584 -1.5314  2.9018
  561MOL0     H75711  11.566   1.480   6.410  0.9677 -0.8572  1.8234
  561MOL0     H75712  11.603   1.594   6.535  2.1591 -0.2497 -0.2334
  561MOL0     H75713  11.679   1.578   6.278 -0.3539  0.2706  1.1786
  561MOL0     H75714  11.588   1.733   6.309 -0.1620  1.4500  1.7173
  561MOL0     H75715  10.675   1.427   6.744  0.5980  0.7239 -0.2266
  561MOL0     H75716  10.451   1.333   6.749  0.8918  2.9494  1.5749
  561MOL0     H75717   9.933   1.452   6.504  1.1596 -0.2767  0.9789
  561MOL0     H75718   9.748   1.334   6.392  0.4560 -0.9660 -0.6647
  561MOL0     H75719   8.405   0.364   5.771 -0.5118  0.8056 -2.4640
  561MOL0     H75720   8.193   0.305   5.668 -1.6753 -1.4215  0.2945
  561MOL0     H75721   7.864   0.133   5.488  0.8663 -0.4769 -0.0882
  561MOL0     H75722   7.670   0.072   5.383  0.2682  0.5137  0.1724
  561MOL0     H75723   7.478  -0.096   5.263  0.7669 -0.0554  0.4751
  561MOL0     H75724   7.463   0.032   5.380 -1.7358  0.5447  1.9466
  561MOL0     H75725   7.255  -0.068   5.270 -1.1381  1.8426  0.9953
  561MOL0     H75726   7.242  -0.044   5.444 -0.4326  1.6851 -1.7461
  561MOL0     H75727   7.140  -0.259   5.394 -0.5124 -1.0291  0.8286
  561MOL0     H75728   7.282  -0.273   5.500 -0.0851 -2.3256 -1.9888
  561MOL0     H75729   7.343  -0.314   5.210 -0.6150  0.6498 -0.6614
  561MOL0     H75730   7.401  -0.399   5.358  0.8644  2.2914 -1.1564
  561MOL0     H75731   7.029  -0.582   5.225  3.0589 -3.3265 -0.7805
  561MOL0     H75732   7.655  -0.298   5.603  1.3138 -0.8292  2.5654
  561MOL0     H75733   7.842  -0.371   5.742 -0.8539  1.1721 -1.4987
  561MOL0     H75734   7.985  -0.283   5.723 -0.3856 -0.1761 -0.8139
  561MOL0     H75735   7.856  -0.236   5.849 -2.5244  0.5912 -0.2821
  562MOL0     O75736   4.468   2.090   8.226 -0.4197  0.7572 -0.1723
  562MOL0     C75737   4.401   2.039   8.136  0.4359 -0.5039  0.1603
  562MOL0     O75738   4.444   1.955   8.037 -0.5313 -0.8855 -0.7039
  562MOL0     C75739   4.564   1.890   8.037 -0.7143  0.2886  0.8056
  562MOL0     C75740   4.672   1.924   7.954 -0.2252 -0.8805 -0.0874
  562MOL0     C75741   4.791   1.856   7.959  0.1026  0.4902 -0.3719
  562MOL0     C75742   4.811   1.750   8.053  0.2214 -0.1420  0.4703
  562MOL0     O75743   4.925   1.675   8.073 -0.3615 -0.5463 -0.1947
  562MOL0     C75744   5.026   1.676   7.971 -0.0832  0.6371  0.3525
  562MOL0     C75745   5.072   1.530   7.968 -0.4093  0.2082 -0.4049
  562MOL0     C75746   5.201   1.491   7.892  0.0402  0.6195  0.0136
  562MOL0     C75747   5.329   1.563   7.957  0.7534  0.2820 -0.7670
  562MOL0     C75748   5.458   1.557   7.878 -0.0396 -0.5614 -0.6506
  562MOL0     C75749   5.492   1.410   7.842 -0.3823  0.1765  0.2248
  562MOL0     C75750   5.629   1.402   7.763  0.0743 -0.8128 -0.0587
  562MOL0     C75751   5.661   1.271   7.696  0.4672 -0.7415 -0.9924
  562MOL0     N75752   5.790   1.278   7.633 -0.3325  0.3309  0.7827
  562MOL0     C75753   5.823   1.298   7.504  0.4068 -0.3297  0.1476
  562MOL0     C75754   5.954   1.339   7.493 -0.2471  0.9644  0.3906
  562MOL0     C75755   6.032   1.357   7.368  0.5090  0.1174  0.8945
  562MOL0     C75756   5.959   1.437   7.265  1.0058 -1.2398  0.0510
  562MOL0     C75757   6.033   1.440   7.137  0.0034 -0.2881  0.5121
  562MOL0     C75758   6.180   1.484   7.141 -0.2981 -1.0921 -0.2491
  562MOL0     O75759   6.188   1.631   7.151 -0.0435  0.0764  0.0839
  562MOL0     C75760   6.300   1.671   7.220 -0.2553  0.3990  0.1050
  562MOL0     C75761   6.422   1.655   7.154 -0.0064 -0.8224 -0.1599
  562MOL0     C75762   6.541   1.689   7.223  0.4055  0.3467  0.0978
  562MOL0     C75763   6.545   1.732   7.359  0.2913  0.6402 -0.2719
  562MOL0     C75764   6.669   1.761   7.429  0.8946  0.0046 -0.1264
  562MOL0     O75765   6.671   1.776   7.564  0.2021  0.4886 -0.1458
  562MOL0     C75766   6.787   1.764   7.630  0.1190 -0.3249 -0.8169
  562MOL0     C75767   6.795   1.677   7.739 -0.2593  0.4457 -0.8464
  562MOL0     C75768   6.907   1.661   7.812 -0.9365  0.0543 -0.6717
  562MOL0     C75769   7.031   1.729   7.777 -1.0225  0.3106  0.7069
  562MOL0     O75770   7.150   1.715   7.839 -0.0057  0.1683 -0.2957
  562MOL0     C75771   7.187   1.597   7.906 -0.7088  0.1579  0.0647
  562MOL0     C75772   7.346   1.575   7.895 -0.0054 -0.3997 -0.8670
  562MOL0     C75773   7.398   1.453   7.972  0.0650 -0.1819  0.2707
  562MOL0     C75774   7.533   1.399   7.925  0.3919  1.0772  0.0014
  562MOL0     C75775   7.541   1.250   7.991  0.1590  0.2533  0.6342
  562MOL0     C75776   7.659   1.162   7.940  0.2147  0.3958  0.7764
  562MOL0     C75777   7.652   1.156   7.786  0.4932  0.9552  0.4751
  562MOL0     C75778   7.726   1.038   7.734  0.2340 -0.6818  0.1055
  562MOL0    Cl75779   7.887   1.018   7.821  0.0340 -0.3494 -0.0552
  562MOL0     C75780   7.019   1.821   7.674 -0.3203  0.0005 -0.2027
  562MOL0     C75781   6.893   1.843   7.611 -0.9464  0.0543  0.1202
  562MOL0     O75782   6.775   1.758   7.363 -0.2355 -0.1017  0.1963
  562MOL0     C75783   6.418   1.733   7.433 -0.3111  1.0246  0.6718
  562MOL0     C75784   6.302   1.708   7.361 -0.8714  0.3358  0.7815
  562MOL0     N75785   6.002   1.332   7.618  0.0251  0.1491 -0.0070
  562MOL0     N75786   5.914   1.296   7.699  0.7956  0.0952  0.6354
  562MOL0     C75787   4.703   1.706   8.126  0.1782 -0.4991 -0.4766
  562MOL0     C75788   4.580   1.777   8.113 -0.0954  0.0727 -0.1309
  562MOL0     C75789   4.257   2.068   8.158  0.6362 -0.0915 -0.2797
  562MOL0     C75790   4.220   2.173   8.248  0.0884  0.2061 -0.7879
  562MOL0     C75791   4.087   2.196   8.275  0.0071  0.0140  0.3812
  562MOL0     C75792   3.993   2.132   8.198 -0.2282  0.1757 -0.2901
  562MOL0     O75793   3.858   2.175   8.222  0.3912  0.5348 -1.3439
  562MOL0     C75794   3.748   2.129   8.131  0.4728 -0.0368 -0.1858
  562MOL0     C75795   3.642   2.235   8.138  0.0914  0.4343 -0.2989
  562MOL0     C75796   3.676   2.356   8.046  0.6106  0.1686 -0.3546
  562MOL0     C75797   3.566   2.471   8.039  0.5197  0.1088 -0.1117
  562MOL0     C75798   3.431   2.421   7.997  0.1207  1.5474  0.3268
  562MOL0     C75799   3.321   2.381   7.959 -0.1357 -0.2222  0.2407
  562MOL0     C75800   4.025   2.023   8.109 -0.2051 -0.2199 -0.8678
  562MOL0     C75801   4.154   1.987   8.100  0.7710  0.7120 -0.4563
  562MOL0     C75802   4.173   1.852   8.029 -0.4819 -0.8824 -0.0316
  562MOL0     H75803   4.679   2.022   7.907 -1.2355  0.0732  1.6287
  562MOL0     H75804   4.877   1.885   7.899  0.8326  0.9084  0.8248
  562MOL0     H75805   4.988   1.717   7.877 -1.2067  0.2982  0.6394
  562MOL0     H75806   5.104   1.745   8.003  0.7569 -1.0925  2.2265
  562MOL0     H75807   4.988   1.478   7.923 -1.5685  2.6312 -1.1811
  562MOL0     H75808   5.081   1.494   8.071 -1.3768  1.6064  0.2066
  562MOL0     H75809   5.182   1.520   7.788 -1.1663 -0.3610 -0.0728
  562MOL0     H75810   5.201   1.381   7.899 -2.0960  0.5582 -0.2330
  562MOL0     H75811   5.298   1.667   7.971  2.6645  1.9581 -6.3698
  562MOL0     H75812   5.342   1.516   8.055  0.6576  0.4618 -0.6660
  562MOL0     H75813   5.435   1.620   7.792 -1.2962 -0.9947 -0.6537
  562MOL0     H75814   5.543   1.598   7.932  1.7748 -0.2429 -3.5519
  562MOL0     H75815   5.502   1.347   7.930  0.8189  0.2125  0.1280
  562MOL0     H75816   5.415   1.365   7.778  0.6074 -0.5911 -0.4505
  562MOL0     H75817   5.705   1.423   7.839 -0.9785  1.3126  0.4914
  562MOL0     H75818   5.644   1.469   7.678 -1.5276 -3.1871 -2.3488
  562MOL0     H75819   5.651   1.182   7.759 -0.9034 -1.1360 -1.7177
  562MOL0     H75820   5.585   1.252   7.619 -1.3995 -0.5190  0.7174
  562MOL0     H75821   5.756   1.286   7.419  1.1369 -4.5419 -0.0646
  562MOL0     H75822   6.131   1.396   7.393  0.4668  1.1555 -0.4424
  562MOL0     H75823   6.056   1.258   7.328 -0.6178 -0.5228  1.7401
  562MOL0     H75824   5.859   1.395   7.250  1.1637 -1.2313 -1.1396
  562MOL0     H75825   5.947   1.540   7.302  1.0822 -1.5594  1.0024
  562MOL0     H75826   5.987   1.503   7.061 -0.4817  2.3020  2.8229
  562MOL0     H75827   6.036   1.334   7.110 -0.3855  0.3879 -2.5822
  562MOL0     H75828   6.219   1.455   7.043  0.3595  0.3929 -0.4617
  562MOL0     H75829   6.242   1.427   7.211  0.4788  0.1639  0.1328
  562MOL0     H75830   6.427   1.631   7.049  0.4116 -0.1944 -0.2868
  562MOL0     H75831   6.629   1.677   7.161 -0.6959 -4.6701 -0.8861
  562MOL0     H75832   6.709   1.613   7.756 -0.1397 -0.1598 -2.3327
  562MOL0     H75833   6.912   1.585   7.889  1.0851 -1.1522 -1.8928
  562MOL0     H75834   7.152   1.603   8.010 -0.8298  0.3554  0.0133
  562MOL0     H75835   7.139   1.510   7.858  1.3035  0.4569 -2.7219
  562MOL0     H75836   7.366   1.558   7.788  0.9947 -1.5937 -0.5092
  562MOL0     H75837   7.407   1.659   7.929  0.3738 -0.6671 -0.8694
  562MOL0     H75838   7.400   1.482   8.078  2.4456 -0.4103  0.3575
  562MOL0     H75839   7.319   1.379   7.961 -1.6679  1.0039  3.4285
  562MOL0     H75840   7.614   1.462   7.962  1.9904 -1.2205  0.6220
  562MOL0     H75841   7.544   1.387   7.817  2.7055  2.5190  0.0084
  562MOL0     H75842   7.447   1.194   7.984 -0.0310  0.3903  1.8974
  562MOL0     H75843   7.556   1.267   8.098  0.4380 -1.4312  0.8805
  562MOL0     H75844   7.756   1.205   7.963  0.5813 -0.2030  0.3772
  562MOL0     H75845   7.656   1.070   8.000 -4.8120 -0.1644  0.1625
  562MOL0     H75846   7.703   1.241   7.741  3.2560 -0.4390  0.7633
  562MOL0     H75847   7.553   1.154   7.741  1.4539 -0.6205 -1.7477
  562MOL0     H75848   7.669   0.947   7.757  0.8362 -1.2209 -0.4723
  562MOL0     H75849   7.739   1.030   7.625 -2.3463  1.0799 -0.4161
  562MOL0     H75850   7.096   1.894   7.649  0.2402 -0.2105  0.8505
  562MOL0     H75851   6.897   1.913   7.529 -0.5667 -0.5428 -0.3837
  562MOL0     H75852   6.417   1.762   7.538  2.3098  0.8910  0.8137
  562MOL0     H75853   6.210   1.696   7.417 -0.6399  3.2349  1.9487
  562MOL0     H75854   4.699   1.613   8.182 -0.4325  0.2373  0.7511
  562MOL0     H75855   4.490   1.737   8.160 -0.7434  1.6159 -0.0008
  562MOL0     H75856   4.291   2.236   8.301  0.6577  1.7647 -3.2514
  562MOL0     H75857   4.055   2.269   8.348  1.4820 -0.3150  1.3914
  562MOL0     H75858   3.702   2.035   8.161 -2.8411  0.6761 -2.3664
  562MOL0     H75859   3.767   2.118   8.024 -0.5363  1.5942 -0.5792
  562MOL0     H75860   3.634   2.258   8.245  1.3388 -2.5109  0.5426
  562MOL0     H75861   3.543   2.204   8.105 -1.0300  0.3230  2.7921
  562MOL0     H75862   3.696   2.315   7.947 -1.0712 -0.1738 -0.5786
  562MOL0     H75863   3.769   2.400   8.085  0.6423  0.5043 -0.7970
  562MOL0     H75864   3.550   2.513   8.139 -1.2487 -1.9656  0.5542
  562MOL0     H75865   3.597   2.544   7.964 -1.8899 -1.3613 -2.7337
  562MOL0     H75866   3.221   2.347   7.942  0.2021 -1.0172 -0.1586
  562MOL0     H75867   3.950   1.973   8.049  1.6873  0.1934 -3.8095
  562MOL0     H75868   4.208   1.858   7.926 -0.5295  1.2110  0.0290
  562MOL0     H75869   4.236   1.785   8.089 -0.4346 -1.0188 -0.2340
  562MOL0     H75870   4.076   1.803   8.030 -1.4333  0.8470  1.8918
  563MOL0     O75871   4.333   9.219   1.965 -0.1719 -0.2674  0.0269
  563MOL0     C75872   4.281   9.305   2.049 -0.1073  0.0868 -0.2512
  563MOL0     O75873   4.355   9.377   2.132  0.5436 -0.9377 -0.0322
  563MOL0     C75874   4.492   9.395   2.108 -0.1662 -0.9212 -0.0714
  563MOL0     C75875   4.539   9.471   1.996 -0.1524 -0.3403  0.0038
  563MOL0     C75876   4.677   9.493   1.983 -0.4736 -0.0311  0.1614
  563MOL0     C75877   4.773   9.440   2.072 -0.4743  0.4016  0.4532
  563MOL0     O75878   4.906   9.473   2.029 -0.0259  0.6507 -0.1445
  563MOL0     C75879   5.003   9.372   2.079  0.0450 -0.9293 -0.0131
  563MOL0     C75880   5.146   9.413   2.041 -0.0473 -0.2572  0.3478
  563MOL0     C75881   5.247   9.293   2.062  0.1609 -0.1460  0.5540
  563MOL0     C75882   5.373   9.300   1.969  0.0420  0.2036  0.1137
  563MOL0     C75883   5.465   9.179   1.990 -0.0337 -0.0007 -0.4708
  563MOL0     C75884   5.575   9.145   1.880 -0.4665  0.1235  0.1545
  563MOL0     C75885   5.711   9.231   1.903  0.4941 -0.1302 -0.1712
  563MOL0     C75886   5.819   9.178   1.809  0.2811 -0.5769  0.1382
  563MOL0     N75887   5.908   9.281   1.749  0.0769  0.0569 -0.0941
  563MOL0     C75888   6.015   9.336   1.816  0.4545  0.0948  0.0135
  563MOL0     C75889   6.058   9.426   1.732 -0.1114  0.6225  0.4889
  563MOL0     C75890   6.167   9.520   1.766 -0.8807 -0.1369 -0.0543
  563MOL0     C75891   6.307   9.446   1.743 -0.5642 -0.1895 -0.7099
  563MOL0     C75892   6.420   9.544   1.762 -0.0128 -0.0462  0.6877
  563MOL0     C75893   6.561   9.483   1.779 -0.0270 -0.4431  0.9083
  563MOL0     O75894   6.608   9.429   1.654  0.4883  0.2916  0.3404
  563MOL0     C75895   6.730   9.377   1.657 -0.3561  0.1057 -0.0795
  563MOL0     C75896   6.739   9.243   1.608  0.0424 -0.7155 -0.2694
  563MOL0     C75897   6.858   9.175   1.586 -0.5871  0.1441 -0.1647
  563MOL0     C75898   6.981   9.233   1.623  0.7071 -0.8476 -1.2583
  563MOL0     C75899   7.114   9.169   1.610  0.6524 -0.9045  0.2966
  563MOL0     O75900   7.220   9.239   1.643  0.0006 -0.0429 -0.4293
  563MOL0     C75901   7.341   9.175   1.660 -1.3077  0.0419  0.7810
  563MOL0     C75902   7.458   9.245   1.635  0.3344  0.0325  0.1622
  563MOL0     C75903   7.582   9.181   1.626  0.1623 -0.1625 -0.0663
  563MOL0     C75904   7.591   9.039   1.666  0.3668  0.2113 -0.4151
  563MOL0     O75905   7.714   8.983   1.666 -0.1580  0.3678 -0.2183
  563MOL0     C75906   7.744   8.870   1.598  0.2325 -0.0466 -0.3949
  563MOL0     C75907   7.765   8.895   1.447  0.3460  0.4879  0.4971
  563MOL0     C75908   7.890   8.814   1.392  0.0075  0.7335 -0.4353
  563MOL0     C75909   7.904   8.813   1.236  0.4779  0.3107  0.2267
  563MOL0     C75910   8.039   8.760   1.185 -0.6741 -0.4449  0.2626
  563MOL0     C75911   8.168   8.824   1.234 -0.0308  0.9857 -1.2364
  563MOL0     C75912   8.289   8.786   1.146 -0.0278 -0.3147 -0.1306
  563MOL0     C75913   8.318   8.909   1.063 -0.2114 -0.5124  0.4917
  563MOL0    Cl75914   8.467   8.863   0.987  0.3040 -0.0388  0.1215
  563MOL0     C75915   7.476   8.970   1.700 -0.0676  0.2245 -0.6122
  563MOL0     C75916   7.349   9.037   1.697  0.3997 -1.1082  0.5453
  563MOL0     O75917   7.115   9.063   1.543 -0.3863 -0.1069 -0.4929
  563MOL0     C75918   6.977   9.364   1.681  0.3713  0.8100  1.1473
  563MOL0     C75919   6.852   9.438   1.697  0.1703  0.3665  0.3371
  563MOL0     N75920   5.986   9.422   1.616  0.3956 -0.9544 -0.4603
  563MOL0     N75921   5.892   9.331   1.632 -0.4438  0.0892  0.5513
  563MOL0     C75922   4.729   9.369   2.182 -0.6251 -0.6680  0.5346
  563MOL0     C75923   4.597   9.346   2.199  1.0636 -0.2097  0.3162
  563MOL0     C75924   4.132   9.323   2.051  0.0354  0.3512 -0.2217
  563MOL0     C75925   4.051   9.206   2.059 -0.1863 -0.2475  0.5076
  563MOL0     C75926   3.916   9.228   2.072  1.1012  0.0861  0.1808
  563MOL0     C75927   3.857   9.356   2.069  1.0086 -0.2839  0.8165
  563MOL0     O75928   3.721   9.368   2.073  0.1250  0.5864 -0.4022
  563MOL0     C75929   3.666   9.414   2.201 -0.6380  0.5617  0.6066
  563MOL0     C75930   3.515   9.443   2.198  0.2551  0.5038  0.8528
  563MOL0     C75931   3.486   9.543   2.081  0.4218  0.3127 -0.0264
  563MOL0     C75932   3.338   9.553   2.061  0.9109 -0.0689 -0.9096
  563MOL0     C75933   3.257   9.629   2.166 -0.3433 -0.7000  0.2977
  563MOL0     C75934   3.190   9.697   2.237  0.7341  0.2681  0.3664
  563MOL0     C75935   3.942   9.464   2.079 -0.4860 -0.3172  0.6753
  563MOL0     C75936   4.077   9.458   2.064  0.5759  0.1352  0.0379
  563MOL0     C75937   4.154   9.584   2.050  0.3426 -0.2512 -0.2170
  563MOL0     H75938   4.480   9.510   1.913 -1.0199 -0.2174  0.6693
  563MOL0     H75939   4.706   9.564   1.907  1.4542  0.6254  1.4379
  563MOL0     H75940   4.995   9.354   2.186 -2.6988  0.8355  0.1912
  563MOL0     H75941   4.995   9.280   2.020  1.4700  0.6883 -2.9952
  563MOL0     H75942   5.171   9.496   2.107 -0.0693  1.5145 -1.7716
  563MOL0     H75943   5.149   9.460   1.943 -0.4423 -2.1550 -0.6387
  563MOL0     H75944   5.196   9.197   2.049  1.7302 -1.0365  0.7605
  563MOL0     H75945   5.293   9.287   2.161  1.4076 -1.9890 -0.0909
  563MOL0     H75946   5.337   9.315   1.867 -0.7027  0.7680  0.4470
  563MOL0     H75947   5.423   9.397   1.978 -0.3535  0.3263  1.2006
  563MOL0     H75948   5.500   9.175   2.094 -3.2318  0.6635  0.7502
  563MOL0     H75949   5.393   9.096   1.988 -0.7060  0.5885 -2.0260
  563MOL0     H75950   5.592   9.038   1.892 -1.3568  0.0433  0.7858
  563MOL0     H75951   5.544   9.173   1.778  0.0754  1.3086  0.2896
  563MOL0     H75952   5.735   9.204   2.007  0.1702 -3.2285 -0.7857
  563MOL0     H75953   5.693   9.338   1.888 -0.6684 -0.5806 -2.3141
  563MOL0     H75954   5.883   9.101   1.853  1.6888 -2.0201 -3.9509
  563MOL0     H75955   5.766   9.139   1.721 -1.4722  2.5832 -0.3621
  563MOL0     H75956   6.055   9.311   1.914  0.8825  1.0370  0.0863
  563MOL0     H75957   6.153   9.607   1.702 -1.8711  1.4198  2.1357
  563MOL0     H75958   6.161   9.565   1.866  1.2506 -1.3911  0.7046
  563MOL0     H75959   6.315   9.368   1.820 -0.5683  1.1241  0.6792
  563MOL0     H75960   6.306   9.395   1.646  2.3383  2.8236 -2.5068
  563MOL0     H75961   6.399   9.609   1.848 -1.0355  1.6006 -0.7235
  563MOL0     H75962   6.415   9.596   1.666 -1.9236 -2.2265 -0.5137
  563MOL0     H75963   6.567   9.408   1.859  1.3931  0.5358  1.7607
  563MOL0     H75964   6.618   9.567   1.818 -2.5069  1.7982  0.0387
  563MOL0     H75965   6.646   9.190   1.592 -0.5564 -0.8853  3.0741
  563MOL0     H75966   6.860   9.072   1.551  1.3227 -0.7616  2.3006
  563MOL0     H75967   7.482   9.351   1.627 -0.6888  0.1209 -2.8348
  563MOL0     H75968   7.672   9.231   1.591  0.8151 -0.8379  0.5786
  563MOL0     H75969   7.834   8.825   1.638 -1.3519 -1.7499  1.4659
  563MOL0     H75970   7.667   8.792   1.603 -0.3141  0.5376  0.6510
  563MOL0     H75971   7.679   8.885   1.381  0.9754  1.8675 -0.5800
  563MOL0     H75972   7.789   9.002   1.444  0.7485  0.4207  1.1664
  563MOL0     H75973   7.982   8.861   1.428  1.0517 -0.6081 -1.2085
  563MOL0     H75974   7.888   8.710   1.427 -0.8411  1.4070  1.6757
  563MOL0     H75975   7.875   8.914   1.205  0.2462  0.9691  2.4057
  563MOL0     H75976   7.832   8.740   1.198  0.4272  0.4473  0.0577
  563MOL0     H75977   8.046   8.753   1.076  2.7490 -0.2500  0.3593
  563MOL0     H75978   8.056   8.657   1.218  3.8775  0.1438  0.3593
  563MOL0     H75979   8.152   8.932   1.242  0.6228  1.0883 -1.2377
  563MOL0     H75980   8.187   8.786   1.335 -0.2464  0.8826 -1.2349
  563MOL0     H75981   8.265   8.710   1.071 -0.8941  0.1803 -0.3679
  563MOL0     H75982   8.382   8.766   1.200 -1.0510 -2.6339  0.8793
  563MOL0     H75983   8.241   8.931   0.988  1.1687  2.2588 -0.2406
  563MOL0     H75984   8.336   8.999   1.122  3.3675 -1.4166  1.0303
  563MOL0     H75985   7.480   8.867   1.733 -1.3218 -0.9898 -3.8056
  563MOL0     H75986   7.273   8.961   1.714 -0.4105 -1.1716 -2.6971
  563MOL0     H75987   7.065   9.418   1.712  0.2946  0.7317  1.5029
  563MOL0     H75988   6.849   9.536   1.743 -1.0914  0.4413  0.1352
  563MOL0     H75989   4.803   9.319   2.244  0.8036  1.4983  0.6855
  563MOL0     H75990   4.571   9.280   2.282 -0.3611  1.9598  1.6892
  563MOL0     H75991   4.101   9.111   2.042  0.4019  0.2932 -0.9207
  563MOL0     H75992   3.842   9.150   2.059 -1.1868  2.3835 -1.7467
  563MOL0     H75993   3.714   9.509   2.225  0.0377 -0.6164  4.7734
  563MOL0     H75994   3.674   9.333   2.274 -5.1883 -1.6323 -0.9649
  563MOL0     H75995   3.485   9.468   2.300  1.1506  0.3972  1.1479
  563MOL0     H75996   3.466   9.348   2.172 -0.6918  1.3898 -0.7854
  563MOL0     H75997   3.530   9.511   1.986 -0.5989  2.0537 -1.1516
  563MOL0     H75998   3.518   9.647   2.096 -2.4873  1.2981 -0.0028
  563MOL0     H75999   3.317   9.581   1.958  0.6558 -1.7380 -1.3454
  563MOL0     H76000   3.299   9.451   2.070  0.5796 -0.0281 -1.7793
  563MOL0     H76001   3.120   9.741   2.305  1.6805  1.9939  0.2735
  563MOL0     H76002   3.892   9.558   2.097  0.2330 -0.3093  3.0784
  563MOL0     H76003   4.165   9.641   2.142 -0.6127  0.0869 -0.2999
  563MOL0     H76004   4.251   9.564   2.004  0.4199 -1.9516  0.6164
  563MOL0     H76005   4.090   9.654   1.996 -2.1515 -1.5661  0.8812
  564MOL0     O76006   6.810   7.465   4.496 -0.3102  0.1854 -0.0853
  564MOL0     C76007   6.716   7.508   4.435 -0.2588 -0.3735 -0.1643
  564MOL0     O76008   6.711   7.638   4.380 -0.1605  0.5518 -0.6907
  564MOL0     C76009   6.820   7.717   4.402  1.0989  0.3474 -0.0759
  564MOL0     C76010   6.804   7.830   4.475  0.0771  1.1890 -0.3069
  564MOL0     C76011   6.914   7.915   4.490 -0.6793  0.1126 -0.2543
  564MOL0     C76012   7.039   7.889   4.429 -0.3807  0.1632 -0.4804
  564MOL0     O76013   7.154   7.969   4.438  0.2396  0.0990 -0.3899
  564MOL0     C76014   7.145   8.082   4.529 -0.1671 -0.0484 -0.5084
  564MOL0     C76015   7.278   8.163   4.528  0.2643  0.2103 -0.1210
  564MOL0     C76016   7.398   8.081   4.593 -0.4613 -0.3426  0.2783
  564MOL0     C76017   7.527   8.159   4.590 -0.4829 -0.0936  0.5264
  564MOL0     C76018   7.524   8.286   4.679 -0.0651 -0.7599  0.5652
  564MOL0     C76019   7.670   8.341   4.670 -0.1833  0.0441  0.4227
  564MOL0     C76020   7.693   8.437   4.796  0.1337  0.5351 -0.2910
  564MOL0     C76021   7.686   8.379   4.941 -0.6191  0.6062  0.8045
  564MOL0     N76022   7.792   8.285   4.981 -0.4772 -0.6000 -0.2882
  564MOL0     C76023   7.918   8.319   5.023  0.1746  0.1153 -0.5391
  564MOL0     C76024   7.997   8.208   5.008 -0.0492  0.8576 -0.3070
  564MOL0     C76025   8.137   8.187   5.060 -0.0762 -0.0146 -0.1051
  564MOL0     C76026   8.257   8.239   4.981  0.6076 -0.5442 -0.4741
  564MOL0     C76027   8.389   8.168   5.029 -0.5611  0.7021  0.0108
  564MOL0     C76028   8.502   8.201   4.925  0.3077  0.6835  0.4209
  564MOL0     O76029   8.543   8.335   4.938  0.5269 -0.8958  0.6281
  564MOL0     C76030   8.650   8.354   4.852 -0.1169  0.6679 -0.8680
  564MOL0     C76031   8.637   8.381   4.718  0.0427 -0.2293 -0.3728
  564MOL0     C76032   8.744   8.411   4.631 -0.3426  0.3899  0.4057
  564MOL0     C76033   8.874   8.427   4.684  0.1433 -0.1045  0.3318
  564MOL0     C76034   8.980   8.469   4.598  0.2864  0.0966  0.3771
  564MOL0     O76035   8.957   8.503   4.472  0.1768 -0.0163 -0.1367
  564MOL0     C76036   9.060   8.535   4.390  0.0603 -0.1888  0.6279
  564MOL0     C76037   9.116   8.659   4.411  0.9162  0.2684 -0.3831
  564MOL0     C76038   9.212   8.710   4.321 -0.0215 -0.3114  0.2446
  564MOL0     C76039   9.246   8.629   4.208 -0.6785  0.3041  0.7175
  564MOL0     O76040   9.334   8.671   4.108  0.4286 -0.4842  0.1503
  564MOL0     C76041   9.436   8.765   4.138  0.0775  0.8819  0.1438
  564MOL0     C76042   9.558   8.740   4.053  0.4622 -0.3776  0.6133
  564MOL0     C76043   9.647   8.865   4.018  0.1009 -0.0059 -0.3262
  564MOL0     C76044   9.781   8.845   3.951  1.0319 -0.1938  0.2283
  564MOL0     C76045   9.860   8.965   3.900  0.5842 -0.6368 -0.1233
  564MOL0     C76046   9.784   9.055   3.794  0.8508  0.1795 -0.4682
  564MOL0     C76047   9.861   9.185   3.767  1.1083  0.0752 -0.1738
  564MOL0     C76048   9.961   9.158   3.665  0.1046  0.5182 -0.0807
  564MOL0    Cl76049   9.891   9.148   3.501 -0.1565  0.3438 -0.0234
  564MOL0     C76050   9.184   8.507   4.188  0.7699  0.4834 -0.2196
  564MOL0     C76051   9.093   8.462   4.277 -0.0812  0.3281 -0.2494
  564MOL0     O76052   9.091   8.461   4.644  0.1579  0.9247  0.1340
  564MOL0     C76053   8.889   8.413   4.823  0.4612  0.2082 -0.1805
  564MOL0     C76054   8.775   8.386   4.905 -0.2925  0.7536  0.0603
  564MOL0     N76055   7.916   8.111   4.950 -0.6302  0.6592  0.8486
  564MOL0     N76056   7.798   8.163   4.926 -0.6826 -0.2033 -0.3176
  564MOL0     C76057   7.055   7.767   4.355  0.0967  0.2557  0.4768
  564MOL0     C76058   6.944   7.683   4.348  0.3458 -0.1647  0.6351
  564MOL0     C76059   6.598   7.421   4.396 -0.1763 -0.0884 -0.3652
  564MOL0     C76060   6.482   7.496   4.362 -0.4397 -0.2260  0.0914
  564MOL0     C76061   6.365   7.424   4.341  0.1844  0.6670  0.1683
  564MOL0     C76062   6.354   7.278   4.336 -0.1423  0.4653 -0.4839
  564MOL0     O76063   6.244   7.195   4.323  0.1334 -0.7520 -1.1368
  564MOL0     C76064   6.116   7.261   4.359  0.6114  0.0360  0.0013
  564MOL0     C76065   6.062   7.320   4.233  0.5342 -0.6248 -0.1875
  564MOL0     C76066   5.917   7.358   4.254 -0.5167 -0.5713 -0.1222
  564MOL0     C76067   5.882   7.423   4.124 -0.7006 -0.0852  0.0665
  564MOL0     C76068   5.745   7.475   4.132 -0.5495  0.0179  0.8778
  564MOL0     C76069   5.639   7.534   4.120  0.5926 -0.4793 -0.2588
  564MOL0     C76070   6.465   7.212   4.363 -0.3703  0.3186  0.2479
  564MOL0     C76071   6.589   7.282   4.388  0.5109  0.1402 -0.1621
  564MOL0     C76072   6.707   7.174   4.406  0.4970 -0.1163 -0.2110
  564MOL0     H76073   6.706   7.842   4.520 -0.7908 -2.6257 -0.8539
  564MOL0     H76074   6.913   8.006   4.549 -1.1015  0.9088 -1.4392
  564MOL0     H76075   7.068   8.154   4.500  0.6615  0.7558 -0.7715
  564MOL0     H76076   7.115   8.054   4.631  2.2508  2.8110  1.1705
  564MOL0     H76077   7.251   8.254   4.583  0.3719 -0.0787  0.4208
  564MOL0     H76078   7.297   8.188   4.423 -3.7659  0.9116 -0.8242
  564MOL0     H76079   7.419   7.996   4.528 -1.2964 -0.3039 -0.0563
  564MOL0     H76080   7.373   8.047   4.694 -1.6942  0.1687  0.1707
  564MOL0     H76081   7.607   8.090   4.618  2.4134  3.3202  1.4525
  564MOL0     H76082   7.556   8.191   4.489 -0.2014  0.3533  0.7458
  564MOL0     H76083   7.464   8.367   4.636  2.2884 -0.1205 -1.8860
  564MOL0     H76084   7.498   8.261   4.782  0.5824  1.2214  1.2717
  564MOL0     H76085   7.744   8.261   4.668 -2.5195 -2.3027 -2.6215
  564MOL0     H76086   7.677   8.397   4.576 -2.5268  1.8806  1.2386
  564MOL0     H76087   7.620   8.518   4.790  1.4419  1.8447  0.6345
  564MOL0     H76088   7.793   8.483   4.791  0.3565  0.5381  2.6817
  564MOL0     H76089   7.679   8.462   5.012 -4.0011  2.4331 -1.3855
  564MOL0     H76090   7.590   8.328   4.949 -0.4090 -0.1557 -1.0413
  564MOL0     H76091   7.942   8.408   5.080 -1.2952  0.2775 -0.1506
  564MOL0     H76092   8.144   8.235   5.158  1.1098 -1.0002  0.3235
  564MOL0     H76093   8.153   8.078   5.056 -1.5442 -0.2313 -1.3177
  564MOL0     H76094   8.243   8.229   4.873  0.9504 -0.1768 -0.5550
  564MOL0     H76095   8.264   8.348   4.991  3.8769 -0.6367 -0.7071
  564MOL0     H76096   8.376   8.060   5.040 -0.0996  0.4421 -1.7376
  564MOL0     H76097   8.430   8.192   5.127  1.5212  0.2210 -0.6976
  564MOL0     H76098   8.470   8.177   4.824  1.9071  2.5221 -0.5747
  564MOL0     H76099   8.583   8.131   4.946  0.9393  1.4095  0.4628
  564MOL0     H76100   8.537   8.388   4.678  0.4470 -1.4061 -1.6491
  564MOL0     H76101   8.721   8.433   4.527 -2.8503 -0.6141  0.6503
  564MOL0     H76102   9.081   8.718   4.495 -0.0017 -2.6105  1.3935
  564MOL0     H76103   9.249   8.811   4.337  0.0613  0.2859 -3.0436
  564MOL0     H76104   9.385   8.856   4.104  0.2860  0.8079 -0.3776
  564MOL0     H76105   9.475   8.763   4.240  0.8751 -1.7517 -0.1511
  564MOL0     H76106   9.622   8.672   4.110  0.5462 -0.5987  0.2581
  564MOL0     H76107   9.528   8.701   3.956 -1.1184  1.4652  0.2979
  564MOL0     H76108   9.585   8.939   3.967  1.6182  0.4676 -1.5541
  564MOL0     H76109   9.670   8.909   4.116  3.4119  1.8850 -1.8065
  564MOL0     H76110   9.760   8.787   3.860  0.1117 -1.8074  1.4115
  564MOL0     H76111   9.844   8.783   4.016  2.1831  0.7774  0.0572
  564MOL0     H76112   9.951   8.931   3.849  1.8798 -0.1493  1.7489
  564MOL0     H76113   9.884   9.035   3.981  0.2519  0.6688 -1.1187
  564MOL0     H76114   9.763   9.006   3.698 -1.1650  2.3672 -1.2440
  564MOL0     H76115   9.685   9.083   3.832  0.7688 -1.0556  0.3013
  564MOL0     H76116   9.907   9.214   3.862  1.8694  2.8524 -1.2952
  564MOL0     H76117   9.795   9.267   3.736  1.6653  0.0088 -1.6089
  564MOL0     H76118  10.038   9.236   3.667 -1.0167  1.6574  1.7572
  564MOL0     H76119  10.023   9.072   3.692 -0.5216 -0.4281 -1.5282
  564MOL0     H76120   9.189   8.450   4.095 -0.0934  0.7620 -0.4485
  564MOL0     H76121   9.040   8.370   4.252 -1.9094  1.4516 -0.7063
  564MOL0     H76122   8.988   8.407   4.868 -0.0416  1.2200  1.1469
  564MOL0     H76123   8.799   8.394   5.010  0.9402 -1.9242  0.0342
  564MOL0     H76124   7.147   7.734   4.308 -0.3623 -0.4362  0.0554
  564MOL0     H76125   6.943   7.600   4.279 -1.5057  2.0223 -2.2431
  564MOL0     H76126   6.465   7.603   4.369 -2.6581 -0.5678  0.5356
  564MOL0     H76127   6.274   7.477   4.314  0.4202  1.3527  0.6872
  564MOL0     H76128   6.119   7.331   4.443 -0.7506  1.0012 -0.7303
  564MOL0     H76129   6.039   7.189   4.389 -0.0256  1.1427  1.1142
  564MOL0     H76130   6.072   7.258   4.144  1.2088 -0.1212 -0.4762
  564MOL0     H76131   6.116   7.412   4.206  1.9889 -1.9934 -2.2386
  564MOL0     H76132   5.913   7.431   4.336  0.3238  0.7269 -1.1932
  564MOL0     H76133   5.856   7.272   4.282  0.7630 -0.8592  1.9781
  564MOL0     H76134   5.940   7.515   4.106  1.0580 -1.4999 -2.0261
  564MOL0     H76135   5.896   7.352   4.042  0.6529 -1.0100  1.0543
  564MOL0     H76136   5.541   7.576   4.124  0.9662  0.4219 -0.4068
  564MOL0     H76137   6.466   7.104   4.349  0.1262  0.0214  2.2521
  564MOL0     H76138   6.669   7.077   4.439 -0.4156  0.3013 -0.0103
  564MOL0     H76139   6.768   7.167   4.316 -0.2773 -2.6238 -0.6186
  564MOL0     H76140   6.776   7.205   4.486 -0.0382  1.7309 -0.4136
  565MOL0     O76141   4.685   9.671   1.099  0.5504  0.6200 -0.2386
  565MOL0     C76142   4.640   9.708   1.210 -0.8356  0.3516  0.0973
  565MOL0     O76143   4.714   9.787   1.286  0.1991 -0.2649 -1.1242
  565MOL0     C76144   4.820   9.857   1.225  0.3846 -0.7096  0.7671
  565MOL0     C76145   4.804   9.938   1.112 -0.2005 -0.4873 -0.3558
  565MOL0     C76146   4.914   9.994   1.046  0.0978 -0.1334  0.1217
  565MOL0     C76147   5.045   9.983   1.096 -0.2412  0.3388 -0.4665
  565MOL0     O76148   5.155  10.046   1.042 -0.5992 -0.6065  0.4719
  565MOL0     C76149   5.136  10.162   0.959 -1.1669  0.0856 -0.7011
  565MOL0     C76150   5.265  10.204   0.893 -0.0087  0.1514  0.4247
  565MOL0     C76151   5.309  10.115   0.780 -0.1358 -0.2746  0.0456
  565MOL0     C76152   5.433  10.177   0.716 -0.3306 -0.6242 -0.0894
  565MOL0     C76153   5.483  10.099   0.594  0.2267  0.2416  1.0699
  565MOL0     C76154   5.602  10.179   0.542 -0.2414  0.1440 -0.3905
  565MOL0     C76155   5.667  10.110   0.427  0.3640  0.2708  0.7478
  565MOL0     C76156   5.790  10.183   0.375 -0.7606  0.4132 -0.5170
  565MOL0     N76157   5.865  10.132   0.258  0.1665  1.0180  0.1766
  565MOL0     C76158   5.799  10.084   0.156 -0.4034  0.7897 -0.1818
  565MOL0     C76159   5.895  10.037   0.069 -1.0730 -0.3699 -0.9980
  565MOL0     C76160   5.859   9.993  -0.070  0.5257  0.1596  0.4684
  565MOL0     C76161   5.884  10.092  -0.186  0.3653  0.4370 -1.0979
  565MOL0     C76162   6.026  10.074  -0.261  0.0204  0.4531  0.3054
  565MOL0     C76163   6.015   9.983  -0.380 -0.8967  0.0584  0.1999
  565MOL0     O76164   6.125  10.003  -0.477  0.3749 -0.1253 -0.0509
  565MOL0     C76165   6.240   9.929  -0.464 -0.3372 -0.2336  0.3533
  565MOL0     C76166   6.262   9.823  -0.385 -0.5618  0.1459 -0.1947
  565MOL0     C76167   6.385   9.763  -0.376 -1.0442  0.1517  0.2547
  565MOL0     C76168   6.493   9.806  -0.459  0.6835 -0.8169  0.3321
  565MOL0     C76169   6.627   9.748  -0.446  0.5231 -0.7404 -0.4671
  565MOL0     O76170   6.657   9.684  -0.337  0.1377  0.3806 -0.2583
  565MOL0     C76171   6.772   9.616  -0.331  0.8333  0.6894 -0.5268
  565MOL0     C76172   6.888   9.656  -0.268  0.3932  0.0952 -0.3978
  565MOL0     C76173   6.991   9.572  -0.239 -0.0233  0.7729 -0.5324
  565MOL0     C76174   6.983   9.441  -0.281 -0.0741 -0.3134 -1.6720
  565MOL0     O76175   7.085   9.357  -0.248  0.8342 -0.6680  0.2013
  565MOL0     C76176   7.197   9.374  -0.326 -0.3340  0.2008  0.0793
  565MOL0     C76177   7.320   9.300  -0.260 -0.4745  0.0903 -0.8007
  565MOL0     C76178   7.459   9.353  -0.297  0.2526  0.1019  0.4199
  565MOL0     C76179   7.579   9.275  -0.230 -0.5850 -0.3413  0.6324
  565MOL0     C76180   7.709   9.353  -0.230 -0.0136 -0.2446  0.0326
  565MOL0     C76181   7.824   9.290  -0.159  0.8593  1.0607 -0.1213
  565MOL0     C76182   7.961   9.339  -0.213  0.6223 -0.5875 -0.2521
  565MOL0     C76183   8.064   9.310  -0.115 -0.2135 -0.1504 -0.3568
  565MOL0    Cl76184   8.217   9.269  -0.209 -0.1868 -0.4007  0.2919
  565MOL0     C76185   6.875   9.388  -0.347  0.6613 -0.3027 -0.0720
  565MOL0     C76186   6.761   9.477  -0.367 -0.0518 -0.2295  0.2979
  565MOL0     O76187   6.695   9.756  -0.547 -0.5359 -0.0091  0.4209
  565MOL0     C76188   6.469   9.912  -0.558  0.5192 -0.2263 -0.4731
  565MOL0     C76189   6.335   9.964  -0.564 -0.1315 -0.3405 -0.7335
  565MOL0     N76190   6.015  10.074   0.126 -0.5200 -0.3057 -0.1971
  565MOL0     N76191   5.999  10.118   0.244  0.4049 -0.1194 -0.1874
  565MOL0     C76192   5.063   9.918   1.215 -0.1801  0.7087  0.1287
  565MOL0     C76193   4.952   9.852   1.278 -0.1191 -0.3765 -0.7218
  565MOL0     C76194   4.510   9.675   1.259 -0.6882 -0.0039  0.9952
  565MOL0     C76195   4.435   9.772   1.327  0.7861 -0.5637 -0.2636
  565MOL0     C76196   4.312   9.748   1.373 -0.4133  0.8160  0.5290
  565MOL0     C76197   4.248   9.624   1.357  0.3013  1.0504 -0.3347
  565MOL0     O76198   4.122   9.616   1.419 -0.3618 -0.2686 -0.2164
  565MOL0     C76199   4.066   9.488   1.446  0.2585 -0.3098  0.8425
  565MOL0     C76200   4.108   9.420   1.577 -0.2169 -0.7126  0.1273
  565MOL0     C76201   4.043   9.273   1.594  0.2675  0.0154  0.2531
  565MOL0     C76202   4.052   9.233   1.736  0.0722  0.2570  0.3365
  565MOL0     C76203   3.975   9.104   1.743  0.5362 -0.0676 -0.7991
  565MOL0     C76204   3.911   8.996   1.751 -0.6362 -0.4741 -0.2512
  565MOL0     C76205   4.322   9.523   1.290 -0.4001  0.1293 -0.1151
  565MOL0     C76206   4.445   9.546   1.226 -1.2995 -0.1832 -0.4133
  565MOL0     C76207   4.520   9.427   1.169 -0.7145  0.3653 -0.6532
  565MOL0     H76208   4.707   9.940   1.063 -0.0824 -2.0218 -0.7251
  565MOL0     H76209   4.891  10.044   0.952  1.0494  4.4184  2.0139
  565MOL0     H76210   5.055  10.134   0.891 -0.4380 -0.0278 -1.5479
  565MOL0     H76211   5.095  10.240   1.023 -1.7820 -3.0323  3.1417
  565MOL0     H76212   5.342  10.226   0.967  2.3714  0.2171 -1.9155
  565MOL0     H76213   5.257  10.297   0.836  0.9493  0.0851  0.1702
  565MOL0     H76214   5.236  10.115   0.699  3.0506 -1.3811 -3.1364
  565MOL0     H76215   5.336  10.019   0.823 -1.0105 -0.4421  0.2172
  565MOL0     H76216   5.406  10.281   0.696 -1.1348 -0.7622  0.2446
  565MOL0     H76217   5.507  10.187   0.797 -1.1968 -1.1484  0.7849
  565MOL0     H76218   5.511   9.994   0.609  2.0128  0.1051 -2.2693
  565MOL0     H76219   5.410  10.100   0.513  1.2331 -1.6793  0.0430
  565MOL0     H76220   5.573  10.283   0.521 -1.3052  0.3989  1.9917
  565MOL0     H76221   5.675  10.192   0.623 -0.7445  0.0268  0.0910
  565MOL0     H76222   5.593  10.103   0.347  1.0980 -1.8111  0.1812
  565MOL0     H76223   5.678  10.004   0.453 -2.0869  0.2543  2.0767
  565MOL0     H76224   5.765  10.284   0.342  0.7387  1.9862  2.7776
  565MOL0     H76225   5.862  10.203   0.455  1.2153 -3.7885 -0.9129
  565MOL0     H76226   5.695  10.082   0.127  0.5086  2.3826 -4.2171
  565MOL0     H76227   5.911   9.900  -0.094  0.3894  0.2648 -0.2517
  565MOL0     H76228   5.754   9.962  -0.060  0.6661  0.0437  1.7238
  565MOL0     H76229   5.799  10.075  -0.253  1.4163  0.4871 -2.4884
  565MOL0     H76230   5.881  10.196  -0.153  1.9399  0.8263 -2.1256
  565MOL0     H76231   6.104  10.035  -0.194 -0.0853 -0.3750 -0.0542
  565MOL0     H76232   6.045  10.172  -0.307  0.8068 -0.1833 -0.7692
  565MOL0     H76233   5.936  10.032  -0.436  2.3889  2.9372 -2.3646
  565MOL0     H76234   5.979   9.884  -0.350 -0.0363 -0.4242 -0.3014
  565MOL0     H76235   6.195   9.787  -0.308  0.9183 -1.3787  0.4706
  565MOL0     H76236   6.406   9.684  -0.305  2.3140  0.8615  0.2025
  565MOL0     H76237   6.895   9.757  -0.227  0.7890 -1.4442  3.8922
  565MOL0     H76238   7.073   9.614  -0.183  0.2288  1.2604 -1.2521
  565MOL0     H76239   7.183   9.342  -0.430 -0.8169  0.6992 -0.0124
  565MOL0     H76240   7.211   9.482  -0.318 -2.2842  0.3794  1.6230
  565MOL0     H76241   7.318   9.293  -0.151 -2.4436 -0.6889 -0.8627
  565MOL0     H76242   7.330   9.199  -0.299  0.5164  0.2921 -1.1015
  565MOL0     H76243   7.478   9.341  -0.404  1.3022  2.2943  0.3111
  565MOL0     H76244   7.472   9.460  -0.280  0.2868 -0.0314  1.3302
  565MOL0     H76245   7.587   9.178  -0.280 -1.4211 -0.0988  0.0152
  565MOL0     H76246   7.563   9.257  -0.123  1.1456  2.0455  1.3816
  565MOL0     H76247   7.688   9.444  -0.172  0.8393  0.8486 -1.3145
  565MOL0     H76248   7.728   9.378  -0.335  0.6812  1.4517  0.5311
  565MOL0     H76249   7.818   9.323  -0.055  1.6408 -0.9812  0.6231
  565MOL0     H76250   7.811   9.181  -0.167 -1.6346  1.3727 -1.1225
  565MOL0     H76251   7.956   9.445  -0.236 -0.7373 -0.8462 -1.2204
  565MOL0     H76252   7.980   9.282  -0.304 -0.9168  1.5344 -1.9911
  565MOL0     H76253   8.084   9.400  -0.056 -0.7014  0.9476 -1.7912
  565MOL0     H76254   8.037   9.228  -0.048 -0.3693 -0.3149 -0.6165
  565MOL0     H76255   6.868   9.283  -0.373 -0.0070 -0.2732 -0.0322
  565MOL0     H76256   6.669   9.442  -0.413 -0.2741  1.0368 -0.2460
  565MOL0     H76257   6.550   9.944  -0.624 -0.3626  2.8638 -0.2120
  565MOL0     H76258   6.295  10.035  -0.635 -0.7011 -0.6978 -0.7725
  565MOL0     H76259   5.165   9.908   1.250  0.2423 -1.6587 -1.5737
  565MOL0     H76260   4.973   9.812   1.377  0.7030 -1.6579 -1.3986
  565MOL0     H76261   4.478   9.871   1.342 -1.8294  0.5319  0.6803
  565MOL0     H76262   4.255   9.818   1.434  0.7635  1.3964  0.9899
  565MOL0     H76263   4.106   9.415   1.375  1.3487 -0.7965  1.9258
  565MOL0     H76264   3.958   9.492   1.428  0.1461 -2.3218  0.8448
  565MOL0     H76265   4.079   9.487   1.658 -2.0459  0.7166 -1.5783
  565MOL0     H76266   4.217   9.417   1.582 -0.0210  0.5404 -1.8759
  565MOL0     H76267   4.091   9.196   1.533 -1.5717 -0.8808 -0.1398
  565MOL0     H76268   3.939   9.282   1.561  0.7032  0.2928 -1.1332
  565MOL0     H76269   4.157   9.224   1.765  1.0259 -0.4247 -2.9464
  565MOL0     H76270   4.011   9.312   1.800 -0.0393  1.8201 -1.5693
  565MOL0     H76271   3.872   8.900   1.775 -0.5108 -1.0291 -2.1393
  565MOL0     H76272   4.283   9.422   1.283 -0.7831  0.0488  2.2716
  565MOL0     H76273   4.598   9.385   1.232  1.3199  2.0284 -1.9367
  565MOL0     H76274   4.466   9.335   1.147  1.9746 -1.0885 -1.5889
  565MOL0     H76275   4.566   9.455   1.074 -1.8821  0.3707 -1.2437
  566MOL0     O76276   3.531   1.288   7.778  0.5243  0.3146 -0.1044
  566MOL0     C76277   3.609   1.256   7.686  0.6026 -0.8229 -1.0081
  566MOL0     O76278   3.569   1.187   7.573  0.2882  0.2415 -0.1873
  566MOL0     C76279   3.442   1.165   7.555 -0.0371  0.8170  0.1001
  566MOL0     C76280   3.388   1.035   7.585  0.1532 -0.8181 -0.3306
  566MOL0     C76281   3.253   1.024   7.569 -0.7554 -0.1922  0.8696
  566MOL0     C76282   3.167   1.123   7.513  0.1460  0.4550 -0.5261
  566MOL0     O76283   3.031   1.085   7.499 -0.5355 -0.0474 -0.1339
  566MOL0     C76284   2.951   1.202   7.472  0.3220 -0.0875 -0.2308
  566MOL0     C76285   2.805   1.144   7.470  0.3573  0.3538  0.3946
  566MOL0     C76286   2.770   1.079   7.602  0.3018  0.2259  0.1522
  566MOL0     C76287   2.633   1.008   7.598 -0.4982 -0.5099  0.4149
  566MOL0     C76288   2.587   0.978   7.741  0.5551 -0.4632 -0.9874
  566MOL0     C76289   2.483   0.865   7.735  0.7180  0.3820  0.3258
  566MOL0     C76290   2.418   0.836   7.872 -0.8673  0.1472  0.9884
  566MOL0     C76291   2.338   0.710   7.875 -0.2729  0.3320 -0.4590
  566MOL0     N76292   2.218   0.724   7.796  0.7650 -0.6719  0.4644
  566MOL0     C76293   2.110   0.802   7.830  0.6039  0.4229  0.3881
  566MOL0     C76294   2.028   0.787   7.725 -0.3371 -0.0563 -0.0816
  566MOL0     C76295   1.894   0.855   7.706 -0.1705 -0.5533 -0.5738
  566MOL0     C76296   1.781   0.774   7.639 -0.7878  0.1256  0.4123
  566MOL0     C76297   1.648   0.834   7.612  0.2545 -0.3111  0.5073
  566MOL0     C76298   1.573   0.750   7.510 -0.0627  1.3505  0.2238
  566MOL0     O76299   1.510   0.637   7.579  0.1456 -0.7953 -0.4000
  566MOL0     C76300   1.388   0.590   7.541  0.3857 -0.0019  0.0144
  566MOL0     C76301   1.332   0.502   7.633  0.5333  0.4589  0.1171
  566MOL0     C76302   1.214   0.429   7.606 -0.2990  0.1668 -0.1527
  566MOL0     C76303   1.149   0.448   7.479 -0.2991 -0.3597  0.3438
  566MOL0     C76304   1.017   0.400   7.450 -0.3009  0.0210 -0.2625
  566MOL0     O76305   0.954   0.446   7.334  0.0347 -0.5946 -0.2103
  566MOL0     C76306   0.830   0.393   7.305  0.0533  0.5051  0.0034
  566MOL0     C76307   0.723   0.473   7.329 -0.3489  0.3386  0.1107
  566MOL0     C76308   0.593   0.437   7.296 -0.1212  0.4408 -0.7384
  566MOL0     C76309   0.570   0.307   7.238 -0.1583 -0.2017 -0.4068
  566MOL0     O76310   0.447   0.278   7.179 -0.0776  0.4510 -0.4373
  566MOL0     C76311   0.383   0.386   7.112  0.2734  0.4771 -0.0697
  566MOL0     C76312   0.256   0.331   7.051  0.3023  0.5156 -0.5796
  566MOL0     C76313   0.273   0.223   6.937 -0.3780  0.5498 -0.1803
  566MOL0     C76314   0.140   0.166   6.894  1.0379  0.1598  0.2286
  566MOL0     C76315   0.026   0.276   6.860 -0.3835 -0.3531  0.4234
  566MOL0     C76316  -0.105   0.202   6.834  0.9872  0.0825 -0.5562
  566MOL0     C76317  -0.180   0.137   6.954 -0.3982 -1.2151 -0.2431
  566MOL0     C76318  -0.307   0.200   6.985 -0.2687 -0.0303 -0.1133
  566MOL0    Cl76319  -0.370   0.118   7.126 -0.3970 -0.4194 -0.1740
  566MOL0     C76320   0.680   0.230   7.200 -0.5350 -0.4802  0.4604
  566MOL0     C76321   0.815   0.272   7.232  0.0332 -0.4463  0.7352
  566MOL0     O76322   0.968   0.321   7.529  0.3946  0.6040  0.5709
  566MOL0     C76323   1.205   0.540   7.393  0.0937  0.2547  0.1100
  566MOL0     C76324   1.317   0.608   7.423  0.2544 -0.3591 -0.2344
  566MOL0     N76325   2.081   0.696   7.635  0.2297  0.5531 -0.2275
  566MOL0     N76326   2.193   0.660   7.678  0.0017  0.3845  0.2352
  566MOL0     C76327   3.222   1.245   7.484  0.7489  0.4089  0.3538
  566MOL0     C76328   3.354   1.263   7.503  0.5279  0.2526 -0.9827
  566MOL0     C76329   3.752   1.301   7.680  0.7789  0.2524 -0.0123
  566MOL0     C76330   3.841   1.251   7.581  0.0890 -0.1130 -0.4333
  566MOL0     C76331   3.974   1.288   7.573  0.0398 -0.7523 -0.2275
  566MOL0     C76332   4.036   1.371   7.669  0.2487 -1.0773 -0.4961
  566MOL0     O76333   4.172   1.393   7.671 -0.2351  0.2887 -0.4595
  566MOL0     C76334   4.226   1.506   7.734  0.5127  0.1004 -0.1966
  566MOL0     C76335   4.369   1.522   7.701 -0.8360  0.1580  0.5168
  566MOL0     C76336   4.442   1.625   7.784 -0.1202 -0.7250 -0.9671
  566MOL0     C76337   4.585   1.636   7.739  0.8618 -0.1852  0.6835
  566MOL0     C76338   4.606   1.660   7.589  0.1100 -0.1214 -0.6557
  566MOL0     C76339   4.627   1.673   7.469  0.3226 -0.5703 -0.6693
  566MOL0     C76340   3.947   1.415   7.769 -0.0079  1.1701  0.6037
  566MOL0     C76341   3.811   1.387   7.777 -0.6268 -0.2878 -0.3221
  566MOL0     C76342   3.736   1.458   7.886 -0.2973 -0.3306  0.5627
  566MOL0     H76343   3.452   0.953   7.617  1.5103  0.4694  0.3584
  566MOL0     H76344   3.211   0.933   7.611 -2.4995  0.3195  0.3521
  566MOL0     H76345   2.956   1.287   7.540  0.5633 -0.1575 -0.1624
  566MOL0     H76346   2.959   1.230   7.366 -1.1656 -0.8097 -0.5665
  566MOL0     H76347   2.802   1.070   7.390  0.5120 -2.0664  2.5128
  566MOL0     H76348   2.720   1.213   7.472 -2.3593 -2.7634  3.1587
  566MOL0     H76349   2.771   1.149   7.686 -2.1488  1.1997 -0.5438
  566MOL0     H76350   2.845   1.008   7.638  0.6828 -0.2114 -1.4315
  566MOL0     H76351   2.558   1.070   7.549  1.2551  2.0921  0.8447
  566MOL0     H76352   2.641   0.915   7.541  1.7866  0.5643 -1.1750
  566MOL0     H76353   2.668   0.953   7.811 -1.2697 -1.6340  0.8110
  566MOL0     H76354   2.535   1.065   7.783  0.2231 -1.3823  0.5935
  566MOL0     H76355   2.401   0.895   7.669  0.3497 -0.2068  0.5057
  566MOL0     H76356   2.531   0.774   7.700  0.9352  0.7034 -0.2261
  566MOL0     H76357   2.358   0.920   7.906 -0.5958  0.7679 -0.0362
  566MOL0     H76358   2.501   0.818   7.941 -2.4416 -0.1869  2.8652
  566MOL0     H76359   2.381   0.620   7.829 -1.1773 -0.0094 -0.6697
  566MOL0     H76360   2.310   0.677   7.975  2.5331 -0.6061  0.1093
  566MOL0     H76361   2.096   0.882   7.902  0.1127 -0.8334  1.7534
  566MOL0     H76362   1.859   0.877   7.808  2.3680 -1.5025  0.5925
  566MOL0     H76363   1.908   0.953   7.659 -0.7256 -1.1412 -2.0043
  566MOL0     H76364   1.829   0.729   7.551  2.6961 -0.1016  2.2506
  566MOL0     H76365   1.764   0.693   7.710 -4.0574  0.5549  0.2624
  566MOL0     H76366   1.669   0.936   7.577  0.1020 -0.5207 -0.2139
  566MOL0     H76367   1.585   0.835   7.701  0.7511  0.6618  0.8637
  566MOL0     H76368   1.638   0.705   7.435 -0.0323 -0.2948  1.1700
  566MOL0     H76369   1.492   0.807   7.464  0.4316  0.7345 -1.4908
  566MOL0     H76370   1.383   0.482   7.727  0.4254 -2.5083 -0.3572
  566MOL0     H76371   1.171   0.381   7.693  2.0733 -2.2889 -0.1861
  566MOL0     H76372   0.749   0.573   7.362  1.9565 -0.5662  1.2713
  566MOL0     H76373   0.515   0.508   7.321 -0.9825 -1.3505  2.1039
  566MOL0     H76374   0.353   0.470   7.176  0.8785  1.9845 -1.6632
  566MOL0     H76375   0.454   0.410   7.032 -0.4501 -0.2968 -0.9657
  566MOL0     H76376   0.191   0.285   7.126 -1.3950  0.7772 -1.7993
  566MOL0     H76377   0.199   0.412   7.003 -1.3068  0.7112  1.5446
  566MOL0     H76378   0.337   0.264   6.858 -1.3772  4.1007  0.6368
  566MOL0     H76379   0.329   0.134   6.964 -1.2120  0.3729  1.0230
  566MOL0     H76380   0.113   0.101   6.978  4.7326 -0.3174  1.2452
  566MOL0     H76381   0.147   0.117   6.797 -2.9728  0.9902 -0.6518
  566MOL0     H76382   0.070   0.327   6.775 -0.3415 -0.6267  0.2806
  566MOL0     H76383  -0.009   0.343   6.940  0.1573 -1.5327  1.6961
  566MOL0     H76384  -0.170   0.276   6.787 -1.4116 -2.4164 -1.4564
  566MOL0     H76385  -0.087   0.115   6.770  2.5321 -0.9588  1.1982
  566MOL0     H76386  -0.113   0.134   7.040  0.5088  1.8706 -0.7240
  566MOL0     H76387  -0.221   0.040   6.922 -1.4312 -0.8022 -0.2055
  566MOL0     H76388  -0.288   0.301   7.022  1.8259 -0.3217 -0.2625
  566MOL0     H76389  -0.374   0.190   6.900  0.9174  1.7615 -1.3294
  566MOL0     H76390   0.675   0.129   7.161 -3.6316 -0.5547  0.8228
  566MOL0     H76391   0.902   0.209   7.216  2.7800  2.1695  3.9799
  566MOL0     H76392   1.163   0.543   7.293  1.7543  0.3365 -0.6062
  566MOL0     H76393   1.362   0.670   7.346  0.2318 -0.2168 -0.1342
  566MOL0     H76394   3.157   1.324   7.446  0.1742 -1.5243 -3.0553
  566MOL0     H76395   3.389   1.360   7.471 -1.4908  1.0370 -0.9405
  566MOL0     H76396   3.813   1.174   7.509  0.6734 -0.5163 -0.2358
  566MOL0     H76397   4.039   1.254   7.493 -0.5238 -0.3706 -0.8566
  566MOL0     H76398   4.220   1.495   7.843  1.2790  0.8335 -0.0703
  566MOL0     H76399   4.163   1.594   7.718 -1.3528 -0.8818  1.3034
  566MOL0     H76400   4.366   1.552   7.596  1.8782  1.6352  0.7456
  566MOL0     H76401   4.412   1.421   7.707 -4.4315 -1.4559  2.3164
  566MOL0     H76402   4.444   1.604   7.892  0.3356  0.2861 -0.7665
  566MOL0     H76403   4.389   1.720   7.773  1.0153 -0.1981 -2.1517
  566MOL0     H76404   4.626   1.718   7.799 -2.3365 -1.2518  4.7933
  566MOL0     H76405   4.633   1.545   7.776  0.1291 -1.5723 -1.5768
  566MOL0     H76406   4.659   1.661   7.367  3.4422 -0.7662  0.2355
  566MOL0     H76407   3.999   1.469   7.847 -0.0756  0.9301  0.8173
  566MOL0     H76408   3.800   1.534   7.933  1.6592 -1.0682 -0.7455
  566MOL0     H76409   3.658   1.521   7.843  0.5176  0.1144 -0.3228
  566MOL0     H76410   3.697   1.395   7.966 -0.2650  1.2124  1.8606
  567MOL0     O76411   0.251   0.854   2.634  0.2128  0.8555 -0.3027
  567MOL0     C76412   0.228   0.967   2.594 -0.2564 -0.2441 -0.3571
  567MOL0     O76413   0.330   1.062   2.571 -0.4557  0.0250 -1.3096
  567MOL0     C76414   0.466   1.046   2.590 -0.1728  0.4794  0.4928
  567MOL0     C76415   0.554   1.121   2.514  0.0586 -0.2197 -0.3812
  567MOL0     C76416   0.694   1.096   2.507 -0.2693 -0.2396 -0.1204
  567MOL0     C76417   0.749   0.996   2.589  0.0274  0.1731 -0.2954
  567MOL0     O76418   0.881   0.978   2.603 -0.5349  0.3073 -0.2865
  567MOL0     C76419   0.940   1.028   2.723  0.2689 -0.2520  0.1356
  567MOL0     C76420   1.094   0.994   2.719  0.1254 -0.6443 -0.0848
  567MOL0     C76421   1.175   1.069   2.827 -0.1835 -0.5293  0.1496
  567MOL0     C76422   1.303   1.142   2.780 -0.1494 -0.2792  0.2490
  567MOL0     C76423   1.352   1.226   2.898  0.0597 -0.0812  0.5859
  567MOL0     C76424   1.486   1.291   2.868 -0.4791  0.2760  0.0211
  567MOL0     C76425   1.476   1.386   2.754 -0.0556  0.6633  0.6536
  567MOL0     C76426   1.606   1.469   2.752  0.2637  0.2486 -0.3521
  567MOL0     N76427   1.609   1.580   2.653 -0.2155 -0.6184 -0.5911
  567MOL0     C76428   1.724   1.596   2.574  0.1070 -0.2949 -0.4374
  567MOL0     C76429   1.709   1.724   2.523 -0.7436 -0.0807 -1.1109
  567MOL0     C76430   1.802   1.783   2.429 -0.1129  0.0251  0.2649
  567MOL0     C76431   1.834   1.937   2.439  0.3431 -0.5611  0.2235
  567MOL0     C76432   1.920   1.961   2.554 -0.8646  0.2214  0.0991
  567MOL0     C76433   2.068   1.982   2.512 -0.3962 -0.4220  0.0725
  567MOL0     O76434   2.131   1.857   2.477 -0.1683 -0.2664 -0.9852
  567MOL0     C76435   2.263   1.871   2.441  0.3313  0.0947  0.2281
  567MOL0     C76436   2.323   1.990   2.392 -0.5811 -1.0379  0.2006
  567MOL0     C76437   2.464   1.990   2.361  0.1560  0.8162 -0.0371
  567MOL0     C76438   2.547   1.879   2.373 -1.0943 -0.3172  0.1958
  567MOL0     C76439   2.688   1.878   2.366  0.8515 -0.0007 -0.0887
  567MOL0     O76440   2.755   1.980   2.301 -0.1117  0.4087 -0.0710
  567MOL0     C76441   2.888   1.966   2.286  0.3678  0.3650 -0.2773
  567MOL0     C76442   2.947   1.950   2.158  0.3047  0.7215 -0.1077
  567MOL0     C76443   3.081   1.971   2.136 -0.5517  0.8995  0.5538
  567MOL0     C76444   3.174   2.001   2.244  0.9920  0.0334 -0.2320
  567MOL0     O76445   3.304   2.016   2.232  0.7165  0.0047 -0.0981
  567MOL0     C76446   3.357   2.004   2.097  0.5523 -0.3546 -0.8823
  567MOL0     C76447   3.498   2.060   2.091 -0.2648  0.5917  1.2641
  567MOL0     C76448   3.553   2.049   1.947 -0.7356 -0.2785 -0.2015
  567MOL0     C76449   3.702   2.038   1.936  0.1323 -0.2239 -0.1643
  567MOL0     C76450   3.745   1.997   1.803 -0.4756  0.4012  1.3390
  567MOL0     C76451   3.895   2.024   1.776  0.1814 -0.3239  0.6137
  567MOL0     C76452   3.944   1.993   1.628  0.3721 -0.1225  0.0592
  567MOL0     C76453   3.987   1.838   1.630  1.1223  0.1025  0.3365
  567MOL0    Cl76454   4.139   1.797   1.710  0.3886 -0.4166  0.1326
  567MOL0     C76455   3.111   2.016   2.378  0.1695  0.5805  0.2799
  567MOL0     C76456   2.978   1.992   2.395  0.2027 -0.5578  0.3597
  567MOL0     O76457   2.741   1.777   2.408 -0.1443  0.4586  0.1053
  567MOL0     C76458   2.468   1.753   2.386 -1.0760  0.5271 -1.3341
  567MOL0     C76459   2.336   1.753   2.421  1.2164  0.6211 -0.2068
  567MOL0     N76460   1.583   1.772   2.560 -0.9636 -0.5223 -0.1655
  567MOL0     N76461   1.537   1.691   2.649 -0.1379 -0.0920 -0.1209
  567MOL0     C76462   0.659   0.926   2.681 -0.3783 -0.6516  0.7227
  567MOL0     C76463   0.516   0.948   2.686 -0.4831 -1.3187  0.0895
  567MOL0     C76464   0.090   1.014   2.562 -0.0918  0.3107  0.8719
  567MOL0     C76465   0.074   1.147   2.522 -1.1281  0.1449 -0.3044
  567MOL0     C76466  -0.036   1.201   2.467 -0.4954  0.2008  0.5892
  567MOL0     C76467  -0.150   1.124   2.447 -0.0573  0.3596  0.3196
  567MOL0     O76468  -0.254   1.169   2.374  0.4853  0.6646 -0.3392
  567MOL0     C76469  -0.330   1.251   2.461 -0.5080 -0.0235  0.2441
  567MOL0     C76470  -0.469   1.195   2.501 -0.1731  0.7052  1.0903
  567MOL0     C76471  -0.560   1.174   2.375  0.0744  0.5436 -0.4555
  567MOL0     C76472  -0.686   1.097   2.421 -0.2483  0.5577 -0.3884
  567MOL0     C76473  -0.758   1.162   2.526 -0.6763  0.6521  0.1684
  567MOL0     C76474  -0.835   1.216   2.600 -0.5967 -0.4692 -1.0741
  567MOL0     C76475  -0.149   0.993   2.506 -0.0621  0.1306 -0.5552
  567MOL0     C76476  -0.029   0.942   2.563  0.0076  0.7279 -0.4927
  567MOL0     C76477  -0.032   0.798   2.618  1.0600  0.3884 -0.3679
  567MOL0     H76478   0.514   1.198   2.448 -0.8637 -0.2661  0.1087
  567MOL0     H76479   0.759   1.148   2.438 -0.2530  1.2616  0.9936
  567MOL0     H76480   0.934   1.137   2.724  2.0056 -0.0267 -2.5726
  567MOL0     H76481   0.897   0.987   2.815 -1.9995 -0.1560 -0.8230
  567MOL0     H76482   1.134   1.027   2.623 -1.7083 -1.5009 -1.2031
  567MOL0     H76483   1.110   0.887   2.728  0.6007 -0.5797 -0.1286
  567MOL0     H76484   1.207   0.996   2.902 -0.7272 -3.2385 -2.1154
  567MOL0     H76485   1.101   1.137   2.872 -1.0163 -3.4633  3.6982
  567MOL0     H76486   1.383   1.073   2.751 -0.7310 -1.3325  1.0603
  567MOL0     H76487   1.276   1.206   2.696 -1.8768  0.1027  1.0470
  567MOL0     H76488   1.276   1.300   2.925  0.8974  1.4320 -0.9910
  567MOL0     H76489   1.354   1.162   2.986 -0.2750 -0.1461  0.5482
  567MOL0     H76490   1.532   1.335   2.957 -0.3847 -1.1122  0.7008
  567MOL0     H76491   1.544   1.201   2.841  0.0871  0.4115  0.7468
  567MOL0     H76492   1.389   1.449   2.775 -0.0741  0.4084  1.3532
  567MOL0     H76493   1.473   1.343   2.653  2.0828 -0.5682  1.0594
  567MOL0     H76494   1.622   1.516   2.849 -0.0963 -1.5640  0.6233
  567MOL0     H76495   1.682   1.395   2.726  1.0051  0.9349 -0.1973
  567MOL0     H76496   1.804   1.526   2.553 -0.9034 -1.9245  0.8735
  567MOL0     H76497   1.892   1.721   2.426 -1.7176 -2.4125 -0.6177
  567MOL0     H76498   1.760   1.780   2.328  0.3918 -0.2790  0.0585
  567MOL0     H76499   1.889   1.964   2.349 -1.7109  0.1559 -0.8758
  567MOL0     H76500   1.738   1.989   2.438 -0.1609 -1.3691 -2.2533
  567MOL0     H76501   1.914   1.888   2.635 -0.0597  2.1294  1.9625
  567MOL0     H76502   1.873   2.052   2.592 -0.1788 -0.2441  2.1592
  567MOL0     H76503   2.105   2.023   2.606 -2.0234  0.9314  0.1653
  567MOL0     H76504   2.076   2.052   2.428 -0.4803  1.0923  1.2863
  567MOL0     H76505   2.281   2.089   2.374  0.8883 -0.6598 -1.5066
  567MOL0     H76506   2.516   2.077   2.321 -1.2156  1.0299 -1.4330
  567MOL0     H76507   2.874   1.922   2.083 -1.7390  0.1347  1.9943
  567MOL0     H76508   3.114   1.956   2.034  0.4707 -2.6220  1.2748
  567MOL0     H76509   3.349   1.900   2.066 -0.1592 -1.3345  2.2232
  567MOL0     H76510   3.302   2.075   2.034 -0.7180 -0.5351 -0.0058
  567MOL0     H76511   3.495   2.159   2.136  0.1359  0.6032  1.2684
  567MOL0     H76512   3.549   1.988   2.156  0.8711  0.9977  0.8516
  567MOL0     H76513   3.524   1.951   1.906  0.8529 -1.1936  0.7560
  567MOL0     H76514   3.511   2.131   1.889 -2.1132 -1.9048 -1.6343
  567MOL0     H76515   3.739   1.969   2.013 -2.5281 -0.5525  0.9173
  567MOL0     H76516   3.738   2.139   1.955  1.5906 -1.0004  1.6588
  567MOL0     H76517   3.682   2.056   1.735  1.3117 -0.3371 -1.0816
  567MOL0     H76518   3.724   1.889   1.798  1.0664  0.1263 -0.8282
  567MOL0     H76519   3.917   2.129   1.796  1.1689 -0.6067  1.0719
  567MOL0     H76520   3.956   1.963   1.844  3.2975 -0.8028 -2.3232
  567MOL0     H76521   4.026   2.058   1.597 -1.2242  1.5337 -0.9224
  567MOL0     H76522   3.862   2.003   1.555 -1.2496  0.8758  1.9080
  567MOL0     H76523   3.907   1.784   1.682  0.5705 -0.6856 -1.2323
  567MOL0     H76524   3.991   1.812   1.523  1.8239 -1.6681  0.7543
  567MOL0     H76525   3.167   2.040   2.468 -3.4403 -1.0321  3.2549
  567MOL0     H76526   2.931   2.002   2.492 -4.5353 -2.6689 -1.4121
  567MOL0     H76527   2.518   1.657   2.379  0.7039  1.2470  0.3700
  567MOL0     H76528   2.278   1.662   2.430  0.4523  1.2257  1.1733
  567MOL0     H76529   0.712   0.861   2.750 -0.0588 -0.4837  0.6366
  567MOL0     H76530   0.460   0.905   2.768  1.2541  2.1429  3.4037
  567MOL0     H76531   0.162   1.211   2.526 -1.0654  0.0035  1.4887
  567MOL0     H76532  -0.012   1.295   2.416  2.9700 -1.2165 -0.7095
  567MOL0     H76533  -0.335   1.348   2.411  1.9451  0.8805  1.5717
  567MOL0     H76534  -0.278   1.273   2.555  0.2590 -0.8039  0.0121
  567MOL0     H76535  -0.529   1.268   2.555 -1.6544  1.7256 -1.7258
  567MOL0     H76536  -0.459   1.095   2.544 -1.7072  0.1579  0.2270
  567MOL0     H76537  -0.516   1.099   2.308 -0.6481 -1.2379  0.9609
  567MOL0     H76538  -0.584   1.265   2.319 -0.0817  0.3671 -0.6755
  567MOL0     H76539  -0.759   1.085   2.341  0.6453  0.5661 -1.2144
  567MOL0     H76540  -0.661   0.994   2.449  1.6914  0.9955 -0.3772
  567MOL0     H76541  -0.896   1.260   2.676  2.5180 -0.6325  1.7527
  567MOL0     H76542  -0.246   0.944   2.515  0.0574 -0.4086 -1.9404
  567MOL0     H76543   0.011   0.783   2.717  0.2750 -3.0222 -0.4096
  567MOL0     H76544  -0.135   0.766   2.631  1.1352  1.0710  2.3969
  567MOL0     H76545   0.016   0.723   2.554 -0.9289 -1.8202  0.6190
  568MOL0     O76546   4.701   1.034  11.064  0.7228 -0.5807  0.3467
  568MOL0     C76547   4.640   1.135  11.109 -0.4838 -0.0817 -0.6318
  568MOL0     O76548   4.696   1.224  11.205  0.1430 -0.5905 -0.2761
  568MOL0     C76549   4.830   1.207  11.234  0.3153 -0.8569 -0.8246
  568MOL0     C76550   4.859   1.188  11.367 -0.7704  0.0968  0.0292
  568MOL0     C76551   4.996   1.187  11.407  0.4132  0.6144 -0.1614
  568MOL0     C76552   5.095   1.204  11.315 -0.9681 -0.2970 -0.0421
  568MOL0     O76553   5.233   1.215  11.353  0.9037 -0.1615  0.4011
  568MOL0     C76554   5.274   1.173  11.480 -0.3091  0.7136  0.1857
  568MOL0     C76555   5.429   1.183  11.493 -0.0350  0.5374 -0.6648
  568MOL0     C76556   5.489   1.077  11.580 -0.3389  0.0131  0.5057
  568MOL0     C76557   5.643   1.081  11.568  0.4015 -0.8783  0.0410
  568MOL0     C76558   5.706   0.988  11.663  0.3990  0.0951 -0.4280
  568MOL0     C76559   5.858   1.006  11.654  0.4971  0.1791  0.0447
  568MOL0     C76560   5.933   0.907  11.735  0.6720 -0.6088 -0.0661
  568MOL0     C76561   6.079   0.937  11.706 -0.6930  0.4372  0.5057
  568MOL0     N76562   6.164   0.822  11.745 -0.7015 -0.5109  0.1293
  568MOL0     C76563   6.131   0.693  11.754  0.3871 -0.3682 -0.3513
  568MOL0     C76564   6.228   0.624  11.808 -0.0736  0.1210 -0.4084
  568MOL0     C76565   6.233   0.478  11.841  0.3256  0.3753  0.4096
  568MOL0     C76566   6.334   0.406  11.761  0.1491 -0.4704  0.5228
  568MOL0     C76567   6.353   0.262  11.810 -0.1565 -0.0543  1.0515
  568MOL0     C76568   6.492   0.207  11.765  1.2854 -0.7947 -0.7657
  568MOL0     O76569   6.605   0.294  11.773  0.6887 -0.1317  0.4778
  568MOL0     C76570   6.733   0.238  11.773  0.2688  0.1760 -0.4640
  568MOL0     C76571   6.761   0.103  11.744 -0.2669  1.4050  0.0611
  568MOL0     C76572   6.890   0.064  11.745 -0.3303  0.5929  0.6856
  568MOL0     C76573   6.995   0.162  11.755 -0.2817 -0.0971  0.4044
  568MOL0     C76574   7.133   0.109  11.761  0.7623 -0.9152 -0.3220
  568MOL0     O76575   7.161  -0.019  11.710 -0.2500  0.1459 -0.4849
  568MOL0     C76576   7.293  -0.070  11.725 -0.5115 -0.0859 -0.1569
  568MOL0     C76577   7.320  -0.140  11.842  0.5309 -0.4134  0.1557
  568MOL0     C76578   7.453  -0.179  11.861 -0.5535  0.4352 -0.0760
  568MOL0     C76579   7.554  -0.172  11.770  0.1717  0.1224  0.3589
  568MOL0     O76580   7.678  -0.231  11.772 -0.4651 -0.1220 -0.5561
  568MOL0     C76581   7.697  -0.348  11.852  0.6922 -0.1052  0.0336
  568MOL0     C76582   7.779  -0.293  11.968  0.8208 -0.1894  0.3021
  568MOL0     C76583   7.843  -0.401  12.049 -0.1494 -0.3184  0.5610
  568MOL0     C76584   7.746  -0.478  12.127  0.4652 -0.2613  0.1007
  568MOL0     C76585   7.793  -0.614  12.185 -0.3513 -0.0366  0.0593
  568MOL0     C76586   7.900  -0.610  12.288  0.0960 -0.3078 -0.8811
  568MOL0     C76587   7.861  -0.540  12.415  0.7218 -0.1799 -0.5771
  568MOL0     C76588   7.975  -0.519  12.515 -0.1534  0.0181 -0.2136
  568MOL0    Cl76589   8.104  -0.415  12.446 -0.0144  0.0525 -0.1728
  568MOL0     C76590   7.524  -0.113  11.645  0.3480 -0.3213 -0.1388
  568MOL0     C76591   7.395  -0.064  11.623 -0.4537 -0.4572 -0.4860
  568MOL0     O76592   7.219   0.191  11.812  0.5129 -0.2568  0.0123
  568MOL0     C76593   6.961   0.294  11.778 -0.1171  0.3421 -0.2480
  568MOL0     C76594   6.833   0.335  11.788 -1.0512 -0.9606 -0.1085
  568MOL0     N76595   6.328   0.716  11.840  0.6661 -0.8767 -0.0080
  568MOL0     N76596   6.293   0.839  11.801  0.2971  0.9836  0.4580
  568MOL0     C76597   5.063   1.223  11.179 -0.1259  0.3923 -0.7708
  568MOL0     C76598   4.930   1.234  11.137  0.3935  0.0918  0.5127
  568MOL0     C76599   4.499   1.140  11.064  0.1353 -0.3007  1.2653
  568MOL0     C76600   4.435   1.052  10.971 -0.0759  0.4977  0.3725
  568MOL0     C76601   4.313   1.062  10.910  0.3667 -0.5988  1.2923
  568MOL0     C76602   4.218   1.167  10.940 -0.3314  0.3287  0.0307
  568MOL0     O76603   4.098   1.196  10.884  0.2510  0.3362 -0.0893
  568MOL0     C76604   4.054   1.116  10.763  0.0427  0.3855  1.0128
  568MOL0     C76605   3.945   1.187  10.683  0.9239  0.3990 -0.1463
  568MOL0     C76606   3.839   1.246  10.781  0.4106 -0.1974 -0.0384
  568MOL0     C76607   3.727   1.302  10.703  0.0361  0.1889 -0.4367
  568MOL0     C76608   3.635   1.204  10.649 -0.4675 -0.3263  0.1144
  568MOL0     C76609   3.545   1.127  10.610  0.8695 -0.7771  0.4211
  568MOL0     C76610   4.280   1.254  11.037  0.8657 -0.9104  0.7549
  568MOL0     C76611   4.403   1.240  11.100 -1.2067 -1.0532 -1.0075
  568MOL0     C76612   4.437   1.358  11.191 -0.1937  0.4240 -0.3125
  568MOL0     H76613   4.771   1.175  11.429 -0.9264  0.7699 -0.0365
  568MOL0     H76614   5.017   1.181  11.513  0.8337 -0.6969 -0.3090
  568MOL0     H76615   5.230   1.227  11.565  2.2042 -0.0303  2.0560
  568MOL0     H76616   5.263   1.065  11.490  1.9003  0.6581  3.3892
  568MOL0     H76617   5.447   1.281  11.539 -0.9517  0.6768 -0.5750
  568MOL0     H76618   5.467   1.180  11.391 -0.3441 -2.6146 -0.7915
  568MOL0     H76619   5.460   0.978  11.546  0.5980 -0.6058  1.4389
  568MOL0     H76620   5.452   1.077  11.683 -0.3816  3.0504  0.5826
  568MOL0     H76621   5.674   1.056  11.466 -3.2428 -1.2771 -1.1133
  568MOL0     H76622   5.678   1.184  11.586  1.4450 -1.1723 -0.2551
  568MOL0     H76623   5.673   1.011  11.765  1.4540 -2.7522  0.6616
  568MOL0     H76624   5.675   0.886  11.643 -1.1005  0.0544  1.7697
  568MOL0     H76625   5.885   0.993  11.548 -1.0779 -0.0204 -0.3638
  568MOL0     H76626   5.888   1.105  11.689  1.4996 -0.2631  0.4729
  568MOL0     H76627   5.901   0.803  11.725  2.8579 -1.5765  2.0204
  568MOL0     H76628   5.915   0.936  11.839 -3.5838  1.7671 -1.2075
  568MOL0     H76629   6.100   0.953  11.600 -0.1887 -0.4595  0.4546
  568MOL0     H76630   6.118   1.025  11.758  1.4503  1.8471 -3.1566
  568MOL0     H76631   6.048   0.637  11.712  0.3295  0.2000 -1.0202
  568MOL0     H76632   6.265   0.465  11.945  0.0713 -0.3912  0.4007
  568MOL0     H76633   6.131   0.441  11.829  0.8085 -0.5104 -1.2857
  568MOL0     H76634   6.310   0.411  11.654 -3.3436 -0.5012  1.1964
  568MOL0     H76635   6.429   0.456  11.782 -0.2096  0.4238  0.0683
  568MOL0     H76636   6.269   0.199  11.780  0.6982 -1.1963  0.9763
  568MOL0     H76637   6.357   0.254  11.919 -1.6614 -0.8358  1.0742
  568MOL0     H76638   6.483   0.161  11.666 -2.3084 -1.3971 -0.2974
  568MOL0     H76639   6.512   0.130  11.839 -0.9668  0.2815  1.0741
  568MOL0     H76640   6.682   0.033  11.716 -1.2706  4.0127 -4.7746
  568MOL0     H76641   6.915  -0.038  11.721 -1.1301  0.3155  1.0153
  568MOL0     H76642   7.239  -0.149  11.914 -0.4683 -2.5516 -1.1297
  568MOL0     H76643   7.460  -0.229  11.958 -0.2192 -2.9921 -1.7256
  568MOL0     H76644   7.605  -0.402  11.877  0.9906 -1.2534 -1.2033
  568MOL0     H76645   7.750  -0.418  11.787  1.0519  1.1531 -1.0879
  568MOL0     H76646   7.864  -0.240  11.924  2.4067 -3.4022 -0.8016
  568MOL0     H76647   7.716  -0.227  12.029 -0.7145  2.4053 -3.6273
  568MOL0     H76648   7.883  -0.469  11.974 -3.7359 -2.6765  0.5675
  568MOL0     H76649   7.919  -0.363  12.119 -0.5689  0.8280  0.4250
  568MOL0     H76650   7.656  -0.501  12.069  1.3639 -0.0454 -1.4204
  568MOL0     H76651   7.713  -0.417  12.212  0.0501  0.3559 -0.4935
  568MOL0     H76652   7.827  -0.674  12.101  2.6241 -0.3906  1.4114
  568MOL0     H76653   7.707  -0.661  12.234  0.4902 -0.6082  1.0233
  568MOL0     H76654   7.921  -0.715  12.313  0.9821  0.1544  0.4258
  568MOL0     H76655   7.992  -0.571  12.243 -0.9835  0.5119 -2.4848
  568MOL0     H76656   7.785  -0.597  12.469  0.4178  0.4680 -0.3178
  568MOL0     H76657   7.816  -0.441  12.406 -3.0647 -1.8486 -2.1799
  568MOL0     H76658   7.936  -0.465  12.601  1.0889  1.3971 -0.4701
  568MOL0     H76659   8.014  -0.611  12.559 -1.9444  0.0727  1.6121
  568MOL0     H76660   7.595  -0.129  11.565 -0.2528 -0.9509 -0.5542
  568MOL0     H76661   7.371  -0.016  11.529  1.1425  0.3423 -0.5158
  568MOL0     H76662   7.042   0.365  11.793  0.5656 -0.4209 -0.2508
  568MOL0     H76663   6.804   0.438  11.810  0.4955 -0.7884  1.3473
  568MOL0     H76664   5.149   1.228  11.113  3.0046 -3.8176  2.4120
  568MOL0     H76665   4.905   1.268  11.037  1.5785 -1.3607 -0.3025
  568MOL0     H76666   4.493   0.973  10.925 -1.0320  0.5798 -1.0324
  568MOL0     H76667   4.282   1.000  10.826  2.4363  2.3988 -1.9898
  568MOL0     H76668   4.002   1.024  10.791 -1.3817 -0.1916 -2.9350
  568MOL0     H76669   4.132   1.086  10.692  0.2445 -0.6751  1.6605
  568MOL0     H76670   3.907   1.109  10.617 -1.0124  0.7237  0.5172
  568MOL0     H76671   3.989   1.268  10.623 -0.7851  1.1679 -0.4094
  568MOL0     H76672   3.891   1.327  10.835 -1.0219 -0.0999  1.2447
  568MOL0     H76673   3.801   1.178  10.857  1.1379 -2.4019 -1.5632
  568MOL0     H76674   3.650   1.355  10.760 -1.4257 -1.4081 -0.8278
  568MOL0     H76675   3.773   1.360  10.623  3.1432 -1.1578  0.2597
  568MOL0     H76676   3.470   1.053  10.586 -0.5374  1.0052 -1.0355
  568MOL0     H76677   4.214   1.338  11.058  2.1646  0.6488 -1.0294
  568MOL0     H76678   4.507   1.425  11.140  1.7221  0.9369  2.7856
  568MOL0     H76679   4.352   1.418  11.224 -0.5562  0.1286 -0.6893
  568MOL0     H76680   4.489   1.327  11.281 -0.9860  0.8620  0.3072
  569MOL0     O76681  10.168   7.007   0.021 -0.4834  0.0662  0.3407
  569MOL0     C76682  10.140   6.939   0.124 -0.1463 -0.7756 -0.3758
  569MOL0     O76683  10.232   6.895   0.212  0.1156 -0.1102 -0.0580
  569MOL0     C76684  10.366   6.898   0.181  0.2162 -0.1512  1.2613
  569MOL0     C76685  10.432   6.790   0.122 -1.0546  0.0984 -0.2262
  569MOL0     C76686  10.568   6.788   0.085  0.4323  0.1001 -0.1225
  569MOL0     C76687  10.648   6.895   0.113 -0.4026  0.2599  0.0390
  569MOL0     O76688  10.782   6.903   0.100 -0.2359 -0.9007 -0.4411
  569MOL0     C76689  10.847   6.768   0.132  0.0993 -0.3641  0.1021
  569MOL0     C76690  11.005   6.793   0.147 -0.7629 -0.0385  0.0427
  569MOL0     C76691  11.062   6.834   0.018 -0.1138 -0.6418  0.6523
  569MOL0     C76692  11.211   6.825   0.015 -0.0109 -1.0690 -0.6799
  569MOL0     C76693  11.262   6.897  -0.112  0.6957  0.2631 -0.8080
  569MOL0     C76694  11.415   6.890  -0.108 -0.0025 -0.0987  0.8754
  569MOL0     C76695  11.477   6.983  -0.011  0.1420  0.6009  0.2503
  569MOL0     C76696  11.495   6.921   0.127  0.7359  0.1368  0.8511
  569MOL0     N76697  11.520   6.776   0.143  0.2708  0.0268 -0.7470
  569MOL0     C76698  11.445   6.696   0.220  0.2445  0.6823 -0.1092
  569MOL0     C76699  11.531   6.595   0.257  0.7884 -0.6303  0.0948
  569MOL0     C76700  11.488   6.473   0.334  0.3617 -0.6806 -0.2081
  569MOL0     C76701  11.469   6.484   0.489  0.1587  0.8114  0.8160
  569MOL0     C76702  11.333   6.431   0.533  0.3279 -0.1730  0.4508
  569MOL0     C76703  11.314   6.429   0.686  0.1914 -1.2045 -0.3392
  569MOL0     O76704  11.377   6.310   0.744 -0.6646 -0.2412 -0.3204
  569MOL0     C76705  11.487   6.321   0.830  0.2354 -0.7696  0.4523
  569MOL0     C76706  11.554   6.441   0.858 -0.5413 -1.4107  0.5907
  569MOL0     C76707  11.665   6.439   0.945  0.1165  0.6529  0.6762
  569MOL0     C76708  11.711   6.318   0.997 -0.1475 -0.1499 -0.2897
  569MOL0     C76709  11.833   6.316   1.087 -0.5448 -0.9125  0.2154
  569MOL0     O76710  11.876   6.200   1.139  0.7687  0.3487  0.1458
  569MOL0     C76711  11.984   6.220   1.222 -0.3652 -0.5291  0.1369
  569MOL0     C76712  12.096   6.134   1.206  0.3024  0.8166 -0.2591
  569MOL0     C76713  12.200   6.135   1.300 -0.0493 -0.0921  0.1017
  569MOL0     C76714  12.209   6.230   1.399 -0.0443 -0.1036  0.0742
  569MOL0     O76715  12.305   6.232   1.496 -0.5709  0.1332 -0.0121
  569MOL0     C76716  12.436   6.221   1.442  0.6628 -0.2936  0.4693
  569MOL0     C76717  12.523   6.297   1.541  0.8948  0.2114  0.1722
  569MOL0     C76718  12.543   6.214   1.671  0.1006  0.0225  0.6882
  569MOL0     C76719  12.549   6.298   1.799 -0.1198  0.1006 -0.2313
  569MOL0     C76720  12.539   6.196   1.915 -0.3007  0.6937  0.2371
  569MOL0     C76721  12.540   6.271   2.043  0.5468 -0.3200 -0.2806
  569MOL0     C76722  12.505   6.187   2.169 -0.2248  0.3813  0.1963
  569MOL0     C76723  12.498   6.287   2.293  0.3131 -1.0168  1.0449
  569MOL0    Cl76724  12.650   6.374   2.319  0.1468 -0.1334 -0.1051
  569MOL0     C76725  12.099   6.324   1.415  0.1209  1.2617 -0.4721
  569MOL0     C76726  11.990   6.310   1.326  0.8906  0.2069  0.2327
  569MOL0     O76727  11.898   6.420   1.077 -0.2364 -0.0446  0.7138
  569MOL0     C76728  11.649   6.201   0.956  0.9907  0.1333  0.8536
  569MOL0     C76729  11.542   6.196   0.870  0.4134  0.5262  0.3508
  569MOL0     N76730  11.650   6.618   0.191  0.5325 -0.5339 -0.2678
  569MOL0     N76731  11.646   6.732   0.126  0.0920 -0.5713 -0.3266
  569MOL0     C76732  10.587   7.008   0.156  0.7314 -0.4819 -0.7005
  569MOL0     C76733  10.445   7.012   0.200  0.3731  0.1465 -0.5616
  569MOL0     C76734  10.004   6.925   0.155  0.9488  0.2546 -0.9853
  569MOL0     C76735   9.964   6.817   0.230  0.1784  0.7884 -0.9050
  569MOL0     C76736   9.835   6.792   0.267  0.0037 -0.3299  0.9526
  569MOL0     C76737   9.734   6.869   0.217 -0.6105 -0.5312  0.3161
  569MOL0     O76738   9.604   6.829   0.243 -0.4968  0.0744 -0.3534
  569MOL0     C76739   9.503   6.883   0.165  0.1429  0.5209 -0.0549
  569MOL0     C76740   9.372   6.809   0.180 -0.6147 -0.3379  0.6023
  569MOL0     C76741   9.269   6.860   0.084  0.1315  0.7296 -0.6624
  569MOL0     C76742   9.133   6.787   0.096  0.0492  0.6731  0.0234
  569MOL0     C76743   9.077   6.828   0.227  0.6071 -0.1848  0.7141
  569MOL0     C76744   9.023   6.845   0.333 -0.3120 -0.2060 -0.4451
  569MOL0     C76745   9.762   6.968   0.119  0.1426  0.5321  0.1395
  569MOL0     C76746   9.896   7.000   0.105  0.4335  0.9158  0.4562
  569MOL0     C76747   9.912   7.120   0.013 -0.2077  0.5258  0.2703
  569MOL0     H76748  10.370   6.701   0.116 -3.0571  1.4478 -0.5853
  569MOL0     H76749  10.588   6.696   0.031  0.5911 -0.2409  0.5136
  569MOL0     H76750  10.806   6.730   0.226 -1.5944 -0.5252 -0.6612
  569MOL0     H76751  10.827   6.709   0.042  2.3654  2.2424 -2.3028
  569MOL0     H76752  11.059   6.703   0.176 -1.3621  0.3322  2.4784
  569MOL0     H76753  11.022   6.868   0.224 -0.7637 -0.2426  0.2407
  569MOL0     H76754  11.026   6.938   0.015 -1.1012 -0.9862 -0.4502
  569MOL0     H76755  11.015   6.784  -0.067  2.3145  0.9514 -1.7976
  569MOL0     H76756  11.253   6.879   0.100  1.2957 -0.7800 -1.4807
  569MOL0     H76757  11.246   6.722   0.027  2.7845  0.0429  2.3759
  569MOL0     H76758  11.241   6.828  -0.194  1.6996 -2.3451  0.9805
  569MOL0     H76759  11.219   6.995  -0.136 -0.0922  0.1810  0.1891
  569MOL0     H76760  11.450   6.789  -0.083 -0.8124  0.2543  3.7583
  569MOL0     H76761  11.451   6.908  -0.210 -2.0040  1.5371  0.3941
  569MOL0     H76762  11.413   7.071  -0.001 -1.6734 -0.3122 -2.4026
  569MOL0     H76763  11.568   7.027  -0.052  0.2591  1.5386  1.4572
  569MOL0     H76764  11.573   6.975   0.180 -0.5901  0.3597  2.6539
  569MOL0     H76765  11.407   6.941   0.189  1.0106 -0.7594  1.5416
  569MOL0     H76766  11.343   6.708   0.254 -0.0176  1.3110 -1.0966
  569MOL0     H76767  11.391   6.446   0.291 -0.1037  2.6511 -1.4781
  569MOL0     H76768  11.572   6.406   0.313  0.1163 -1.2244  0.4767
  569MOL0     H76769  11.561   6.446   0.533  0.7618  1.0698 -0.1937
  569MOL0     H76770  11.464   6.591   0.512 -0.8895  1.5167 -2.2634
  569MOL0     H76771  11.321   6.329   0.497  0.1564 -1.4701  3.8404
  569MOL0     H76772  11.255   6.499   0.497  1.5706  0.7914 -0.5418
  569MOL0     H76773  11.207   6.427   0.707 -0.0344  0.2539 -1.2398
  569MOL0     H76774  11.335   6.525   0.735  0.4962 -1.1378 -0.5946
  569MOL0     H76775  11.524   6.541   0.827  0.9991 -0.4795  1.8762
  569MOL0     H76776  11.724   6.526   0.975  2.8898 -1.7892  2.8806
  569MOL0     H76777  12.101   6.069   1.120  1.7419  0.1973  0.2666
  569MOL0     H76778  12.278   6.061   1.287  0.4239  0.3332  0.4771
  569MOL0     H76779  12.472   6.121   1.418 -1.9216 -0.8063 -1.8337
  569MOL0     H76780  12.444   6.272   1.345  0.0429 -1.2119 -0.0788
  569MOL0     H76781  12.617   6.315   1.488  2.2749 -0.7206  2.1991
  569MOL0     H76782  12.480   6.394   1.567 -1.4668 -0.9958  1.1036
  569MOL0     H76783  12.458   6.146   1.683  0.1572  0.2309  2.5817
  569MOL0     H76784  12.634   6.154   1.660  0.3943  0.9233 -3.0306
  569MOL0     H76785  12.459   6.360   1.809 -2.1761 -2.8319  0.6917
  569MOL0     H76786  12.641   6.353   1.818 -0.6935  0.1730  2.9304
  569MOL0     H76787  12.633   6.141   1.915 -0.0287  1.1493  0.0502
  569MOL0     H76788  12.456   6.125   1.909  2.4646 -2.7424 -0.8383
  569MOL0     H76789  12.640   6.315   2.048  0.4400  0.0751 -1.3998
  569MOL0     H76790  12.464   6.349   2.034  1.1798  0.3411 -0.0414
  569MOL0     H76791  12.579   6.110   2.191  0.6420  1.0244 -0.4042
  569MOL0     H76792  12.412   6.131   2.157  1.9233 -3.1324 -1.5090
  569MOL0     H76793  12.422   6.365   2.284  2.6767  1.3149 -0.0111
  569MOL0     H76794  12.477   6.217   2.374  1.2596 -4.8747 -1.7669
  569MOL0     H76795  12.092   6.390   1.500  0.4720  1.2062 -0.3989
  569MOL0     H76796  11.912   6.386   1.328 -0.0433 -0.7406  0.1528
  569MOL0     H76797  11.705   6.113   0.984  0.6926  0.2202  1.7569
  569MOL0     H76798  11.490   6.108   0.834  0.4108 -0.1740  1.9571
  569MOL0     H76799  10.647   7.096   0.174  0.1401 -0.5234  1.7865
  569MOL0     H76800  10.395   7.102   0.233  0.3668 -0.1046  0.1275
  569MOL0     H76801  10.033   6.744   0.270  0.1013  1.2085  0.0143
  569MOL0     H76802   9.799   6.731   0.348  0.0929  1.1829  2.1758
  569MOL0     H76803   9.525   6.881   0.058  0.1766 -1.8129 -0.0626
  569MOL0     H76804   9.500   6.982   0.210  1.0950  0.1633  0.8475
  569MOL0     H76805   9.347   6.805   0.286 -0.1823 -0.5840  0.6948
  569MOL0     H76806   9.399   6.706   0.155 -0.2984 -0.1239  0.0201
  569MOL0     H76807   9.301   6.851  -0.020  2.1580  2.9361 -0.3267
  569MOL0     H76808   9.261   6.965   0.113 -0.3672  0.4339  0.3340
  569MOL0     H76809   9.072   6.836   0.019 -2.3841  0.7902  1.8897
  569MOL0     H76810   9.129   6.679   0.084 -3.7632  0.6117  0.4277
  569MOL0     H76811   8.983   6.860   0.431  1.8623  3.3658  0.0762
  569MOL0     H76812   9.683   7.027   0.074 -1.7630  0.1803  2.7536
  569MOL0     H76813   9.842   7.203   0.027 -1.0187  0.2284 -1.6722
  569MOL0     H76814  10.010   7.168   0.022  0.2159  0.6924 -3.4090
  569MOL0     H76815   9.908   7.083  -0.090  1.1272 -0.3269  0.4960
  570MOL0     O76816   9.583   3.311   6.239  0.2309 -0.3543  0.1006
  570MOL0     C76817   9.588   3.193   6.277  0.6196  0.0901  0.6253
  570MOL0     O76818   9.699   3.124   6.320  0.7748  0.3720  0.5141
  570MOL0     C76819   9.815   3.195   6.321 -0.2721 -0.0681 -0.2785
  570MOL0     C76820   9.875   3.242   6.205  0.6561 -0.2299 -0.3720
  570MOL0     C76821   9.996   3.305   6.213  0.4529  1.4232  0.3696
  570MOL0     C76822  10.069   3.308   6.336  0.0432 -0.3712  0.0084
  570MOL0     O76823  10.189   3.372   6.355 -0.1136 -0.2518 -0.4728
  570MOL0     C76824  10.263   3.426   6.249  0.3044  0.1018 -0.5110
  570MOL0     C76825  10.351   3.540   6.305  0.1018  0.0558 -0.4790
  570MOL0     C76826  10.481   3.478   6.352  1.0152  0.3052  0.4615
  570MOL0     C76827  10.569   3.566   6.430  0.6291  0.6347  0.2192
  570MOL0     C76828  10.709   3.513   6.457 -0.0779 -0.0475  0.1069
  570MOL0     C76829  10.792   3.630   6.510 -0.2749 -0.1548  0.4264
  570MOL0     C76830  10.935   3.579   6.563 -0.5525  0.1333 -0.1110
  570MOL0     C76831  10.923   3.520   6.705  0.0771  0.0618 -1.2762
  570MOL0     N76832  10.884   3.624   6.804 -0.6099 -0.3738 -0.4013
  570MOL0     C76833  10.774   3.623   6.885 -0.4774 -0.6427  0.0807
  570MOL0     C76834  10.789   3.721   6.977 -0.0049 -0.3448 -0.3589
  570MOL0     C76835  10.684   3.766   7.084  1.1955 -0.1977  0.0561
  570MOL0     C76836  10.687   3.907   7.142 -1.3443 -0.0301  0.1627
  570MOL0     C76837  10.557   3.937   7.217  1.1295  0.1529 -0.0100
  570MOL0     C76838  10.499   3.839   7.326 -0.0478 -0.2016  0.6346
  570MOL0     O76839  10.400   3.906   7.397  0.5409  0.2178 -0.0995
  570MOL0     C76840  10.351   3.849   7.514  0.1298 -0.1905  0.3137
  570MOL0     C76841  10.307   3.936   7.606 -0.7320  0.1011 -0.3647
  570MOL0     C76842  10.276   3.894   7.736 -0.5427 -0.0640 -0.1011
  570MOL0     C76843  10.264   3.754   7.763 -0.5529 -0.0088 -0.3479
  570MOL0     C76844  10.214   3.702   7.896  0.3237  0.2545  0.9525
  570MOL0     O76845  10.172   3.568   7.892  0.1238 -0.1973  0.0274
  570MOL0     C76846  10.133   3.508   8.001 -0.8334  0.3128 -0.8963
  570MOL0     C76847  10.206   3.403   8.058 -0.0808  0.8417  0.1049
  570MOL0     C76848  10.168   3.340   8.180 -0.5106 -0.4077 -0.2356
  570MOL0     C76849  10.043   3.373   8.238  0.2397  0.5988 -0.2690
  570MOL0     O76850  10.001   3.287   8.340 -0.1722 -0.4055 -0.1928
  570MOL0     C76851   9.948   3.352   8.456  0.2112 -0.0404  0.7434
  570MOL0     C76852   9.793   3.370   8.437  0.0166  0.1269 -0.7088
  570MOL0     C76853   9.731   3.227   8.411 -0.3521 -0.8792 -0.0162
  570MOL0     C76854   9.574   3.243   8.418  0.1198 -0.3246  0.2364
  570MOL0     C76855   9.500   3.112   8.410 -0.3277  0.1933 -0.4316
  570MOL0     C76856   9.344   3.127   8.420 -0.8886 -0.3188 -1.0039
  570MOL0     C76857   9.301   3.152   8.569 -0.8805  0.1258 -0.4789
  570MOL0     C76858   9.154   3.186   8.578  1.1468  0.1475 -0.2602
  570MOL0    Cl76859   9.043   3.064   8.551  0.0353  0.0854  0.0159
  570MOL0     C76860   9.974   3.475   8.176  0.3959 -1.7708 -0.5710
  570MOL0     C76861  10.012   3.546   8.059  0.0165  0.5847 -0.1470
  570MOL0     O76862  10.218   3.776   7.994 -0.0390 -0.4206  0.1724
  570MOL0     C76863  10.301   3.667   7.657 -0.1488 -0.3717 -0.3104
  570MOL0     C76864  10.346   3.710   7.529  0.7724 -0.6391 -0.2062
  570MOL0     N76865  10.918   3.776   6.956 -0.2889 -0.4416  0.5322
  570MOL0     N76866  10.978   3.714   6.856  0.0402 -0.4538  0.1143
  570MOL0     C76867  10.007   3.262   6.447  0.5782 -0.0045  0.1292
  570MOL0     C76868   9.878   3.202   6.442 -0.0934 -0.3142  0.0755
  570MOL0     C76869   9.452   3.121   6.288 -0.5396 -0.1322  0.3500
  570MOL0     C76870   9.346   3.161   6.204 -0.2663  0.7593 -1.0620
  570MOL0     C76871   9.219   3.103   6.207  0.5530 -0.4655 -0.5077
  570MOL0     C76872   9.189   3.002   6.291 -0.3484 -0.8623 -0.3700
  570MOL0     O76873   9.070   2.942   6.315  0.3877 -1.1442  0.2640
  570MOL0     C76874   8.955   2.980   6.238  0.0777 -0.1690 -0.3918
  570MOL0     C76875   8.842   2.886   6.263  0.7320  0.3046  0.2473
  570MOL0     C76876   8.877   2.732   6.251 -0.1619  0.1811 -0.0306
  570MOL0     C76877   8.751   2.647   6.233  0.4392 -0.3380 -0.1930
  570MOL0     C76878   8.672   2.653   6.361  0.4713 -0.7742  0.3602
  570MOL0     C76879   8.614   2.668   6.461 -0.4199 -0.8403  0.6243
  570MOL0     C76880   9.290   2.968   6.381  0.1580  0.7027 -0.5510
  570MOL0     C76881   9.420   3.014   6.378 -0.4305 -0.5174 -0.8616
  570MOL0     C76882   9.517   2.962   6.486 -0.4891 -0.9298 -0.0755
  570MOL0     H76883   9.823   3.230   6.111  1.3328  2.6829 -1.2349
  570MOL0     H76884  10.051   3.335   6.125 -0.1469 -2.6607 -1.6149
  570MOL0     H76885  10.324   3.346   6.207  0.9680 -0.1581  0.9172
  570MOL0     H76886  10.205   3.481   6.174  0.6357  1.5506  0.2550
  570MOL0     H76887  10.306   3.604   6.382  0.3738  0.0359 -0.3029
  570MOL0     H76888  10.373   3.607   6.222 -0.0443  3.6136  2.1113
  570MOL0     H76889  10.539   3.431   6.271 -0.8591 -0.2544 -0.6189
  570MOL0     H76890  10.455   3.395   6.417  1.3098  0.6614  1.0373
  570MOL0     H76891  10.566   3.660   6.373 -1.4485  0.8196  0.5781
  570MOL0     H76892  10.524   3.583   6.528  1.4068 -0.3637  0.7767
  570MOL0     H76893  10.709   3.428   6.525 -2.1932  0.2521  0.5821
  570MOL0     H76894  10.746   3.476   6.361  1.3900  1.8843 -0.1319
  570MOL0     H76895  10.803   3.700   6.427 -0.4930 -0.5693  0.0443
  570MOL0     H76896  10.728   3.669   6.589 -1.0567 -0.9028  0.1828
  570MOL0     H76897  10.997   3.668   6.558  0.9942 -0.9178 -4.4645
  570MOL0     H76898  10.979   3.502   6.498  3.4504  1.3166  0.9515
  570MOL0     H76899  10.852   3.438   6.719 -0.2935  0.5869  0.1091
  570MOL0     H76900  11.015   3.466   6.728  0.3990  0.2012 -2.2041
  570MOL0     H76901  10.699   3.545   6.884 -2.0110  0.7795 -1.6173
  570MOL0     H76902  10.583   3.736   7.053  1.3504 -0.2362 -0.4270
  570MOL0     H76903  10.703   3.699   7.169 -1.1174  0.4191  1.1484
  570MOL0     H76904  10.775   3.914   7.205  0.1501 -0.8533 -1.7343
  570MOL0     H76905  10.701   3.977   7.059 -0.1556  0.5435  0.8350
  570MOL0     H76906  10.476   3.963   7.148  0.6208  1.8252  1.1443
  570MOL0     H76907  10.575   4.032   7.268  2.0509 -0.1992  0.3456
  570MOL0     H76908  10.582   3.798   7.385 -0.0877 -1.8486 -0.3720
  570MOL0     H76909  10.443   3.760   7.275 -2.0196  0.4160  1.7412
  570MOL0     H76910  10.309   4.040   7.575 -1.9149  0.3104  0.1911
  570MOL0     H76911  10.249   3.975   7.802  1.4607 -0.6166  1.5099
  570MOL0     H76912  10.295   3.360   8.014 -0.7986 -0.4625 -0.1290
  570MOL0     H76913  10.232   3.257   8.207 -2.7512 -1.8138  1.0479
  570MOL0     H76914   9.968   3.301   8.551  4.1341  0.6264  0.4332
  570MOL0     H76915   9.996   3.450   8.460 -2.4429  1.3696  0.2989
  570MOL0     H76916   9.757   3.421   8.526 -2.3610 -1.6656 -0.5385
  570MOL0     H76917   9.756   3.434   8.356 -1.1038  0.9747  0.4373
  570MOL0     H76918   9.759   3.212   8.307 -2.0224  0.9190 -0.7992
  570MOL0     H76919   9.777   3.153   8.478  2.0442  1.7649  1.4832
  570MOL0     H76920   9.537   3.312   8.343 -0.4764  1.5481  2.1675
  570MOL0     H76921   9.555   3.290   8.514 -1.6013 -1.5934  0.5594
  570MOL0     H76922   9.538   3.048   8.490 -0.9386 -0.5449 -0.7175
  570MOL0     H76923   9.529   3.059   8.318 -0.8093  0.0981 -0.5299
  570MOL0     H76924   9.315   3.209   8.354  0.5792  2.1395  1.2051
  570MOL0     H76925   9.287   3.037   8.396 -0.0803 -1.4406  1.0058
  570MOL0     H76926   9.361   3.230   8.617 -0.9859 -1.0175  1.6108
  570MOL0     H76927   9.320   3.058   8.620  3.6075  1.3697  0.6082
  570MOL0     H76928   9.147   3.218   8.683  0.2578  1.2620 -0.6262
  570MOL0     H76929   9.127   3.273   8.517  0.3101  1.2880  1.6217
  570MOL0     H76930   9.881   3.515   8.216  2.4206  1.6501  1.1802
  570MOL0     H76931   9.941   3.613   8.011 -1.2407 -2.1468 -2.3975
  570MOL0     H76932  10.292   3.559   7.663 -0.3117 -0.2875  1.1729
  570MOL0     H76933  10.373   3.627   7.463  2.7308 -0.0438 -0.2377
  570MOL0     H76934  10.062   3.260   6.541  0.2753  0.0224  0.3093
  570MOL0     H76935   9.819   3.155   6.521 -2.0251 -0.2630 -1.2767
  570MOL0     H76936   9.365   3.237   6.128 -0.9718 -0.4040 -2.4553
  570MOL0     H76937   9.155   3.139   6.128  1.9714  0.9611 -1.0754
  570MOL0     H76938   8.973   2.985   6.130 -0.6146  0.8985 -0.4650
  570MOL0     H76939   8.938   3.085   6.262  1.9895  0.3881 -1.2364
  570MOL0     H76940   8.761   2.904   6.192  0.3259 -1.1653  0.2890
  570MOL0     H76941   8.810   2.909   6.365 -0.0441  1.7678 -0.2998
  570MOL0     H76942   8.934   2.705   6.341  0.7350  2.1777  0.0438
  570MOL0     H76943   8.950   2.714   6.171  0.4320  0.7306  0.3730
  570MOL0     H76944   8.692   2.672   6.145 -1.8358  1.9393  1.8318
  570MOL0     H76945   8.786   2.544   6.216  1.2119 -0.8868  3.6633
  570MOL0     H76946   8.576   2.687   6.560  2.3787  2.9264  1.2128
  570MOL0     H76947   9.261   2.902   6.463  2.3438  0.5029  0.1192
  570MOL0     H76948   9.480   2.887   6.557  0.7055 -1.8210 -0.3623
  570MOL0     H76949   9.599   2.918   6.427  2.3286  1.3032  1.8707
  570MOL0     H76950   9.561   3.043   6.545  1.5524 -0.5317 -2.0003
  571MOL0     O76951   3.226   0.225  10.621  0.1000 -1.3305 -1.0250
  571MOL0     C76952   3.137   0.162  10.562  0.1226 -0.2381  0.9080
  571MOL0     O76953   3.157   0.066  10.473 -0.3833 -0.1620  0.7489
  571MOL0     C76954   3.269   0.065  10.384  0.3785  0.2013 -0.8985
  571MOL0     C76955   3.331   0.184  10.339 -0.7310  0.0449 -0.0040
  571MOL0     C76956   3.435   0.165  10.245 -0.0367 -0.3888 -0.1963
  571MOL0     C76957   3.487   0.045  10.200 -0.2802 -0.6460  0.2086
  571MOL0     O76958   3.601   0.045  10.128 -0.6214  0.1469 -0.3217
  571MOL0     C76959   3.686  -0.072  10.123  0.7221 -0.1307 -0.2507
  571MOL0     C76960   3.833  -0.031  10.167  1.3496 -0.6341  0.3068
  571MOL0     C76961   3.925  -0.152  10.134 -0.3123 -0.7258 -0.4390
  571MOL0     C76962   4.068  -0.108  10.159  0.4508 -0.7108  1.0234
  571MOL0     C76963   4.178  -0.212  10.134 -0.1025 -1.0902 -0.6275
  571MOL0     C76964   4.317  -0.155  10.161  1.0741 -0.0175  0.0059
  571MOL0     C76965   4.438  -0.236  10.113  0.1580 -0.5993 -0.1017
  571MOL0     C76966   4.485  -0.189   9.970 -0.4766 -0.4608  0.9354
  571MOL0     N76967   4.548  -0.054   9.969  0.4566  0.4204  0.4872
  571MOL0     C76968   4.660  -0.016  10.033  0.8269  1.2265 -0.6176
  571MOL0     C76969   4.689   0.107   9.994  0.3893 -1.1502  0.0657
  571MOL0     C76970   4.791   0.190  10.057 -0.1793 -0.6844 -0.3147
  571MOL0     C76971   4.918   0.162   9.985 -0.0095  0.5987  0.4079
  571MOL0     C76972   5.049   0.215  10.042  0.0120  0.4638  0.2070
  571MOL0     C76973   5.175   0.201   9.937  0.5740  0.0242 -0.0867
  571MOL0     O76974   5.295   0.262   9.997 -0.2314  0.3548 -0.2254
  571MOL0     C76975   5.400   0.298   9.912 -0.4920 -0.3848  0.2074
  571MOL0     C76976   5.421   0.235   9.785 -0.5439 -0.5752  0.0892
  571MOL0     C76977   5.539   0.282   9.714  0.3659 -0.5638  0.5589
  571MOL0     C76978   5.629   0.377   9.770  0.1346 -0.3251 -0.5659
  571MOL0     C76979   5.764   0.409   9.715 -0.0646 -0.1606 -0.0989
  571MOL0     O76980   5.834   0.516   9.761  0.3137 -0.7677 -0.4929
  571MOL0     C76981   5.959   0.537   9.712  0.3066 -0.5889  0.0157
  571MOL0     C76982   5.997   0.666   9.668  0.2461  0.5393 -0.1725
  571MOL0     C76983   6.132   0.690   9.631  0.2194  0.0716 -0.2018
  571MOL0     C76984   6.227   0.590   9.630 -0.4562 -0.5824 -0.2633
  571MOL0     O76985   6.354   0.607   9.577  0.3332 -0.8834 -0.8732
  571MOL0     C76986   6.446   0.497   9.562  0.4191 -0.1913 -1.0282
  571MOL0     C76987   6.576   0.535   9.487  0.4999  0.2541 -0.1570
  571MOL0     C76988   6.684   0.430   9.507 -0.0714 -0.2831  1.1440
  571MOL0     C76989   6.810   0.510   9.477  0.9720  0.5506 -0.5172
  571MOL0     C76990   6.919   0.403   9.476  0.9860 -0.5260  0.6562
  571MOL0     C76991   7.062   0.466   9.453  0.1996 -0.2851 -0.0224
  571MOL0     C76992   7.154   0.346   9.461 -0.2926 -0.1548 -0.6910
  571MOL0     C76993   7.300   0.384   9.460  0.1489  0.7525 -0.2503
  571MOL0    Cl76994   7.344   0.464   9.303 -0.4887  0.1595  0.3016
  571MOL0     C76995   6.188   0.474   9.699  0.8756  0.8057  0.3031
  571MOL0     C76996   6.053   0.440   9.728  0.1354  0.4910 -0.5873
  571MOL0     O76997   5.806   0.335   9.625  0.1906 -0.3414 -0.7326
  571MOL0     C76998   5.589   0.439   9.890  0.4561  0.0587  1.1037
  571MOL0     C76999   5.485   0.391   9.957  0.5518 -0.4559  0.7177
  571MOL0     N77000   4.595   0.146   9.898 -0.1446 -0.5549 -0.1433
  571MOL0     N77001   4.516   0.045   9.875  0.4628  0.1071 -0.4580
  571MOL0     C77002   3.410  -0.069  10.230 -0.0719 -0.0247  0.0965
  571MOL0     C77003   3.305  -0.056  10.321  0.8109 -0.8847 -0.1118
  571MOL0     C77004   3.001   0.199  10.591  0.5748  1.3029  0.1305
  571MOL0     C77005   2.907   0.186  10.486  0.0358  0.1305  0.4261
  571MOL0     C77006   2.770   0.217  10.500 -0.2823  0.4220  0.3002
  571MOL0     C77007   2.716   0.258  10.619 -0.2784  0.2241  0.8471
  571MOL0     O77008   2.584   0.280  10.624 -0.0313 -0.0738 -0.7111
  571MOL0     C77009   2.551   0.366  10.735  0.1326  0.4376  0.4496
  571MOL0     C77010   2.397   0.382  10.734  0.8486  0.0216 -0.4462
  571MOL0     C77011   2.352   0.493  10.827 -0.4140  0.4378  0.5093
  571MOL0     C77012   2.229   0.456  10.912 -0.0061 -0.3116  0.5184
  571MOL0     C77013   2.190   0.583  10.974 -0.1930  0.3471 -0.6230
  571MOL0     C77014   2.167   0.698  11.006 -0.0251  0.6755 -0.3823
  571MOL0     C77015   2.810   0.285  10.723  0.0165  0.2166 -0.3128
  571MOL0     C77016   2.951   0.256  10.710  0.4733  0.0118 -0.1543
  571MOL0     C77017   3.033   0.271  10.838 -0.5845  0.9286  0.2167
  571MOL0     H77018   3.317   0.286  10.372 -0.5459  0.2424 -0.5276
  571MOL0     H77019   3.491   0.249  10.205  0.1752  0.6029  2.0294
  571MOL0     H77020   3.659  -0.144  10.201 -2.6809  0.3229 -0.8533
  571MOL0     H77021   3.677  -0.117  10.024  2.7110 -0.2206 -0.4259
  571MOL0     H77022   3.813  -0.003  10.271 -1.4247 -0.5679 -0.1654
  571MOL0     H77023   3.863   0.056  10.108  0.6973 -1.8818 -1.9532
  571MOL0     H77024   3.921  -0.196  10.034 -2.4774 -0.7773 -0.3757
  571MOL0     H77025   3.895  -0.225  10.210 -0.8608  1.4946  1.6030
  571MOL0     H77026   4.100  -0.023  10.098  2.2332 -0.0060  2.8368
  571MOL0     H77027   4.060  -0.063  10.258 -0.1732  0.4383  0.4724
  571MOL0     H77028   4.170  -0.298  10.201 -1.9489 -1.4583 -1.2431
  571MOL0     H77029   4.160  -0.247  10.032 -2.1089  1.6023 -1.3178
  571MOL0     H77030   4.318  -0.055  10.116 -0.5457 -0.2757 -0.6618
  571MOL0     H77031   4.321  -0.135  10.269  0.4248  0.7400 -0.0913
  571MOL0     H77032   4.416  -0.342  10.103  0.5196 -0.8343  1.3581
  571MOL0     H77033   4.514  -0.228  10.191  0.6730 -1.8651 -0.4454
  571MOL0     H77034   4.554  -0.259   9.922 -0.6310 -0.2845  0.4519
  571MOL0     H77035   4.398  -0.185   9.904 -1.7044  0.0280  2.5292
  571MOL0     H77036   4.717  -0.070  10.108 -0.6574 -0.8667 -0.9079
  571MOL0     H77037   4.763   0.295  10.048 -0.1042 -0.7184 -1.0261
  571MOL0     H77038   4.790   0.151  10.159 -0.7387  0.0356 -0.0318
  571MOL0     H77039   4.931   0.053   9.987  4.8736  0.9664  1.1574
  571MOL0     H77040   4.908   0.200   9.883 -1.1173 -1.3226 -0.2420
  571MOL0     H77041   5.063   0.163  10.137 -2.2856  1.6209  1.2454
  571MOL0     H77042   5.034   0.320  10.067 -1.5781  0.2448  0.2753
  571MOL0     H77043   5.155   0.255   9.844 -1.2236  0.1834  0.3451
  571MOL0     H77044   5.185   0.097   9.906 -0.7248 -0.1322 -0.0329
  571MOL0     H77045   5.342   0.169   9.751  0.9841 -1.7819 -1.2575
  571MOL0     H77046   5.554   0.233   9.617 -0.7083  0.8284 -0.3469
  571MOL0     H77047   5.924   0.746   9.654  0.0427  0.5150  0.6987
  571MOL0     H77048   6.154   0.791   9.596 -2.7399  0.5535 -0.9677
  571MOL0     H77049   6.468   0.454   9.660 -2.2553 -1.7437 -1.0347
  571MOL0     H77050   6.402   0.412   9.510  1.7147 -0.0811 -2.3611
  571MOL0     H77051   6.551   0.553   9.382 -1.2129 -1.9383 -0.1928
  571MOL0     H77052   6.610   0.627   9.534  0.5868 -0.4559  1.2240
  571MOL0     H77053   6.686   0.404   9.613 -2.4575  2.1995  1.9027
  571MOL0     H77054   6.662   0.345   9.442  1.5831 -0.8914  1.3374
  571MOL0     H77055   6.831   0.584   9.555 -0.7691 -0.5409  1.0768
  571MOL0     H77056   6.792   0.557   9.380 -1.7129  2.0642  0.6052
  571MOL0     H77057   6.895   0.327   9.400 -0.0452 -0.8372  1.2770
  571MOL0     H77058   6.912   0.344   9.567  0.5780 -1.6888 -0.1029
  571MOL0     H77059   7.057   0.516   9.356  1.9553  0.4014  0.2017
  571MOL0     H77060   7.086   0.543   9.526 -2.2745 -1.4904  2.2332
  571MOL0     H77061   7.133   0.274   9.381 -2.3178 -1.3069  0.7800
  571MOL0     H77062   7.119   0.291   9.549  0.0381 -2.9547 -2.1851
  571MOL0     H77063   7.327   0.447   9.545  2.1328 -0.8147  0.3678
  571MOL0     H77064   7.366   0.297   9.475  0.7657  0.9587 -1.5683
  571MOL0     H77065   6.258   0.397   9.729 -1.1901 -1.3220 -0.0446
  571MOL0     H77066   6.032   0.346   9.777  0.0585  1.7070  1.8712
  571MOL0     H77067   5.657   0.505   9.943  1.1906 -1.4745  2.1701
  571MOL0     H77068   5.474   0.430  10.058  2.2330  2.9500 -0.2650
  571MOL0     H77069   3.445  -0.163  10.189  0.4024 -0.4518  1.4306
  571MOL0     H77070   3.244  -0.145  10.332 -0.2772 -0.4727 -2.4363
  571MOL0     H77071   2.941   0.153  10.388 -1.0668  2.8741 -0.9837
  571MOL0     H77072   2.697   0.203  10.421  0.7240  0.7521 -0.7143
  571MOL0     H77073   2.604   0.461  10.720  0.2217  0.7292  2.3936
  571MOL0     H77074   2.576   0.321  10.832 -1.1297  1.4635  1.2861
  571MOL0     H77075   2.355   0.286  10.765  1.4936 -0.3559 -0.7484
  571MOL0     H77076   2.357   0.400  10.634  0.7257 -2.4184 -0.8847
  571MOL0     H77077   2.338   0.581  10.764  1.5033 -1.4920 -2.9077
  571MOL0     H77078   2.433   0.507  10.900 -0.9951 -1.1298  1.4963
  571MOL0     H77079   2.143   0.423  10.852 -0.3108 -0.3440  0.9697
  571MOL0     H77080   2.267   0.384  10.984  1.8497  0.6531  0.5450
  571MOL0     H77081   2.143   0.799  11.033  1.2804  1.9336 -3.5084
  571MOL0     H77082   2.777   0.336  10.813 -0.1013 -1.9118  0.9188
  571MOL0     H77083   3.090   0.364  10.842 -0.0419  0.6029  0.1361
  571MOL0     H77084   2.958   0.267  10.918 -1.7226 -0.1482 -0.8499
  571MOL0     H77085   3.096   0.183  10.852 -2.0080 -0.1875 -0.1152
  572MOL0     O77086  11.066   1.455   0.854  0.2659 -0.0115  0.1293
  572MOL0     C77087  11.109   1.361   0.797 -0.4909  0.2089 -0.3379
  572MOL0     O77088  11.218   1.364   0.715 -0.2288 -0.0396 -0.2349
  572MOL0     C77089  11.262   1.486   0.686  0.5179 -0.0479  0.1606
  572MOL0     C77090  11.253   1.526   0.547 -0.3165 -0.4193 -0.0287
  572MOL0     C77091  11.299   1.655   0.510 -0.1588  0.0030  0.7926
  572MOL0     C77092  11.339   1.745   0.607 -0.3465  0.3202 -0.0543
  572MOL0     O77093  11.379   1.869   0.559 -0.3952 -0.1807  0.0766
  572MOL0     C77094  11.398   1.976   0.649 -0.2772 -0.0540  0.1382
  572MOL0     C77095  11.438   2.102   0.574  0.4668 -0.5121  0.2733
  572MOL0     C77096  11.584   2.089   0.519  0.9322  0.3233 -0.7307
  572MOL0     C77097  11.677   2.152   0.628 -1.5255  0.1197 -0.3927
  572MOL0     C77098  11.817   2.159   0.569 -0.0193 -0.3648  0.5168
  572MOL0     C77099  11.909   2.199   0.683  0.5146 -0.0674  0.2415
  572MOL0     C77100  12.057   2.202   0.644  0.0308  0.1172  0.2674
  572MOL0     C77101  12.102   2.342   0.598 -0.2473 -0.4565 -0.5906
  572MOL0     N77102  12.246   2.339   0.548 -0.0147  0.0734  0.0281
  572MOL0     C77103  12.349   2.262   0.588  0.2469  0.1095  0.5521
  572MOL0     C77104  12.454   2.299   0.509  0.6550  0.4503 -0.3203
  572MOL0     C77105  12.596   2.246   0.519 -0.8237 -0.2969 -0.3875
  572MOL0     C77106  12.669   2.288   0.651  0.1597  0.5431 -0.1564
  572MOL0     C77107  12.788   2.205   0.682 -0.2992  0.8311 -0.0105
  572MOL0     C77108  12.915   2.259   0.607  0.5036  0.0050  0.2414
  572MOL0     O77109  12.948   2.390   0.653 -0.5915  0.0321 -0.3499
  572MOL0     C77110  13.083   2.434   0.671  0.5086  0.3452  0.1217
  572MOL0     C77111  13.174   2.342   0.723 -0.0736 -0.1035 -0.3901
  572MOL0     C77112  13.305   2.382   0.754  0.5063  1.0665  0.6286
  572MOL0     C77113  13.358   2.504   0.705  0.4522  0.8339 -0.5610
  572MOL0     C77114  13.501   2.531   0.698 -0.0654 -0.9269 -0.1511
  572MOL0     O77115  13.549   2.635   0.625 -0.0979 -0.4584  0.3939
  572MOL0     C77116  13.675   2.688   0.630 -0.3344 -0.3188  0.3519
  572MOL0     C77117  13.682   2.816   0.567 -0.2686 -0.0358  0.2064
  572MOL0     C77118  13.800   2.880   0.560  0.1793  0.6603  0.3195
  572MOL0     C77119  13.917   2.838   0.614 -0.3334  0.5490  0.5284
  572MOL0     O77120  14.025   2.912   0.590  0.1026 -0.4907  0.1575
  572MOL0     C77121  14.152   2.849   0.564 -0.3633 -0.0386  0.0511
  572MOL0     C77122  14.235   2.842   0.692  1.0022 -0.5850 -0.7313
  572MOL0     C77123  14.376   2.801   0.674  0.2398 -0.5730  0.2367
  572MOL0     C77124  14.470   2.912   0.667 -0.1531 -0.2246 -0.0051
  572MOL0     C77125  14.612   2.857   0.660 -0.3229  0.5582  0.8874
  572MOL0     C77126  14.678   2.834   0.796  0.0951  0.3822 -0.2973
  572MOL0     C77127  14.808   2.750   0.793  0.5894 -0.5477 -0.3021
  572MOL0     C77128  14.926   2.842   0.816 -0.4772 -0.1804 -0.1405
  572MOL0    Cl77129  15.090   2.762   0.821 -0.3280  0.3620 -0.1111
  572MOL0     C77130  13.920   2.717   0.684  0.0434  1.3153 -0.0258
  572MOL0     C77131  13.794   2.645   0.689 -0.3427 -0.5143 -0.3015
  572MOL0     O77132  13.574   2.454   0.754 -0.1574 -0.1120 -0.1253
  572MOL0     C77133  13.262   2.588   0.652 -0.3059 -0.1946  0.3798
  572MOL0     C77134  13.122   2.567   0.651 -0.5313  0.2943  0.2067
  572MOL0     N77135  12.420   2.416   0.440  0.7701 -0.6108 -0.4593
  572MOL0     N77136  12.290   2.424   0.453 -0.5123  0.3230 -0.2689
  572MOL0     C77137  11.339   1.707   0.739 -0.2890 -0.3572  0.1103
  572MOL0     C77138  11.301   1.583   0.777 -0.6122  0.2792 -0.1460
  572MOL0     C77139  11.026   1.241   0.806 -0.1717  0.2594 -0.0344
  572MOL0     C77140  10.915   1.243   0.893  0.1501  0.5614 -0.1181
  572MOL0     C77141  10.819   1.139   0.890  1.0033 -0.4296 -0.0266
  572MOL0     C77142  10.832   1.029   0.805  0.1334 -0.6005  0.3121
  572MOL0     O77143  10.736   0.931   0.791  0.4592 -0.3530 -0.1677
  572MOL0     C77144  10.659   0.913   0.912 -0.3542  0.5934 -0.5240
  572MOL0     C77145  10.611   0.766   0.915 -0.1062  1.0009 -0.0053
  572MOL0     C77146  10.500   0.748   1.030  0.0963  0.2302  0.7937
  572MOL0     C77147  10.439   0.608   1.037  0.0869  0.4770 -0.3374
  572MOL0     C77148  10.329   0.599   1.134  0.3112  0.2012  0.4606
  572MOL0     C77149  10.236   0.596   1.213 -0.0128  0.2000  0.2957
  572MOL0     C77150  10.946   1.019   0.729 -0.9235  0.9062  0.4246
  572MOL0     C77151  11.037   1.126   0.720 -0.0409  0.1697 -0.0484
  572MOL0     C77152  11.142   1.104   0.615 -0.0556 -0.0525 -0.4800
  572MOL0     H77153  11.227   1.464   0.461  4.7910 -1.7239 -1.0017
  572MOL0     H77154  11.299   1.692   0.408  1.2153 -1.0448  0.3719
  572MOL0     H77155  11.316   1.995   0.719  1.0131 -0.2904  1.7787
  572MOL0     H77156  11.487   1.946   0.705  1.7166  3.5096 -0.8151
  572MOL0     H77157  11.434   2.189   0.641  1.5890 -0.1017 -0.1564
  572MOL0     H77158  11.373   2.126   0.489 -1.3367  0.4497  1.8492
  572MOL0     H77159  11.590   2.144   0.425 -2.7037  0.3812 -1.0689
  572MOL0     H77160  11.612   1.986   0.498  1.5850  0.9346 -3.1586
  572MOL0     H77161  11.652   2.250   0.668  1.5189 -0.3579  3.3996
  572MOL0     H77162  11.680   2.087   0.717 -2.5886 -1.0283 -1.1578
  572MOL0     H77163  11.841   2.058   0.535  0.8098  0.1684 -0.5413
  572MOL0     H77164  11.814   2.229   0.485  2.3684  0.4696  1.0422
  572MOL0     H77165  11.871   2.288   0.735 -1.0784 -0.4368 -0.2521
  572MOL0     H77166  11.899   2.124   0.762 -0.0004  1.4231  1.6483
  572MOL0     H77167  12.072   2.124   0.569 -1.4865  0.0906 -0.0566
  572MOL0     H77168  12.118   2.178   0.732  1.7207  0.0876 -0.8709
  572MOL0     H77169  12.034   2.382   0.522  2.4547  0.4629 -2.6813
  572MOL0     H77170  12.093   2.410   0.683  1.5812 -0.9506  0.0479
  572MOL0     H77171  12.354   2.184   0.664 -1.1774  1.3084  1.9574
  572MOL0     H77172  12.597   2.137   0.515 -0.8395 -0.2615 -2.0492
  572MOL0     H77173  12.663   2.270   0.436  0.6091 -1.2102  0.4673
  572MOL0     H77174  12.696   2.394   0.643 -2.6164  1.3382  0.0610
  572MOL0     H77175  12.599   2.277   0.734  0.7630  0.9708  0.4279
  572MOL0     H77176  12.766   2.100   0.664  0.2789  0.7066 -0.0050
  572MOL0     H77177  12.813   2.213   0.788  1.2797 -1.1895 -0.1789
  572MOL0     H77178  12.888   2.270   0.502 -2.0867  1.4134  0.9747
  572MOL0     H77179  12.995   2.184   0.607  1.2898  0.8130  0.7953
  572MOL0     H77180  13.149   2.240   0.750  0.0395  0.3689  1.6609
  572MOL0     H77181  13.366   2.317   0.816  1.9138  2.6328  0.9392
  572MOL0     H77182  13.598   2.859   0.514 -0.7725  0.1129  1.1057
  572MOL0     H77183  13.808   2.968   0.498  1.2996 -0.0172 -0.5333
  572MOL0     H77184  14.143   2.750   0.518  1.6764  0.9340 -2.7493
  572MOL0     H77185  14.202   2.916   0.493 -1.9615  0.1757 -0.9293
  572MOL0     H77186  14.234   2.936   0.748  0.9374  0.1348 -1.9149
  572MOL0     H77187  14.197   2.768   0.764 -0.9896  0.9344 -0.1424
  572MOL0     H77188  14.416   2.739   0.755  1.2031 -0.8489 -0.4241
  572MOL0     H77189  14.392   2.730   0.592  2.0368  0.9447 -0.8227
  572MOL0     H77190  14.454   2.989   0.743 -0.9155 -1.9401  1.6496
  572MOL0     H77191  14.452   2.961   0.571  0.0306  0.9221  0.5285
  572MOL0     H77192  14.657   2.937   0.600  1.3178 -2.4270 -2.2052
  572MOL0     H77193  14.601   2.762   0.608 -1.6986  0.4925  1.2752
  572MOL0     H77194  14.683   2.930   0.848 -0.2708  0.6579 -0.7674
  572MOL0     H77195  14.604   2.780   0.856 -0.8077  1.4839 -0.3835
  572MOL0     H77196  14.816   2.693   0.700 -0.7101 -1.0433 -0.1223
  572MOL0     H77197  14.818   2.681   0.878  0.5669  0.0038  0.1530
  572MOL0     H77198  14.929   2.915   0.734  1.6225  1.2845  1.1517
  572MOL0     H77199  14.909   2.910   0.900  1.8251  3.8573 -2.5621
  572MOL0     H77200  14.009   2.675   0.731  0.3327  2.0704  0.1134
  572MOL0     H77201  13.813   2.545   0.728  1.8226 -0.5105 -1.2109
  572MOL0     H77202  13.293   2.690   0.636  2.4582 -0.8461  1.0059
  572MOL0     H77203  13.044   2.639   0.627 -0.6642 -0.5611 -2.1500
  572MOL0     H77204  11.364   1.778   0.818  3.0319 -0.3078 -0.8186
  572MOL0     H77205  11.302   1.554   0.881 -1.1977  2.7002  0.6149
  572MOL0     H77206  10.891   1.334   0.947  0.8016  0.3636  0.5102
  572MOL0     H77207  10.730   1.154   0.951  1.4802 -0.1574  0.6195
  572MOL0     H77208  10.573   0.981   0.913 -0.5856  0.3037  0.0929
  572MOL0     H77209  10.717   0.923   1.004 -0.4456 -0.5364 -0.3241
  572MOL0     H77210  10.692   0.697   0.943 -0.4397  0.7930  0.4651
  572MOL0     H77211  10.563   0.749   0.819 -0.6796  0.8696  0.2977
  572MOL0     H77212  10.416   0.812   1.002  0.5054  0.8028  0.8626
  572MOL0     H77213  10.549   0.775   1.124  3.6847 -0.6361 -0.6801
  572MOL0     H77214  10.400   0.596   0.935 -1.4168  1.0256  0.1585
  572MOL0     H77215  10.521   0.535   1.049  0.0558  0.4660 -0.1935
  572MOL0     H77216  10.156   0.603   1.284 -1.4978  2.9084 -1.4661
  572MOL0     H77217  10.959   0.933   0.665 -2.3353 -2.1335  3.8890
  572MOL0     H77218  11.143   1.001   0.578  4.3919 -0.6023  0.5958
  572MOL0     H77219  11.133   1.178   0.536  1.2907  0.2504 -0.3796
  572MOL0     H77220  11.239   1.114   0.664 -1.2908  1.2562  1.8556
  573MOL0     O77221   0.666   6.942   6.658 -0.4694 -0.0444 -0.1174
  573MOL0     C77222   0.597   6.866   6.589  0.2559  1.5179 -0.3268
  573MOL0     O77223   0.640   6.742   6.537 -0.7651 -0.4125  0.4303
  573MOL0     C77224   0.775   6.704   6.546 -0.1863  0.1812  0.9486
  573MOL0     C77225   0.818   6.608   6.452 -0.5706 -0.5274 -0.8762
  573MOL0     C77226   0.949   6.555   6.454 -0.0733  0.0191  0.2515
  573MOL0     C77227   1.045   6.601   6.538  1.0315 -0.2993  0.2302
  573MOL0     O77228   1.172   6.541   6.523  0.0227  0.3570 -0.7083
  573MOL0     C77229   1.289   6.618   6.558  0.1199 -0.5161 -0.3665
  573MOL0     C77230   1.389   6.577   6.453 -1.0281 -0.3753 -0.5265
  573MOL0     C77231   1.531   6.619   6.488  0.9903 -0.1310  0.1158
  573MOL0     C77232   1.633   6.573   6.383 -0.2319 -0.7129 -0.0621
  573MOL0     C77233   1.778   6.612   6.417  0.2270 -0.0600  0.6529
  573MOL0     C77234   1.822   6.539   6.543  0.8465 -0.7437 -0.9070
  573MOL0     C77235   1.960   6.510   6.536 -0.5481 -0.2384  0.1535
  573MOL0     C77236   2.010   6.448   6.669 -0.1467 -0.1601 -0.2801
  573MOL0     N77237   2.159   6.424   6.668  0.1885 -0.3616 -0.4100
  573MOL0     C77238   2.248   6.514   6.715  0.0081 -0.8312  0.6876
  573MOL0     C77239   2.353   6.434   6.743  0.2196  0.0183  0.1530
  573MOL0     C77240   2.478   6.473   6.827 -0.0826  0.0110  0.3391
  573MOL0     C77241   2.499   6.623   6.834  0.6628 -0.1894  0.3716
  573MOL0     C77242   2.535   6.693   6.706 -0.5712  0.1322 -0.5434
  573MOL0     C77243   2.602   6.834   6.727 -0.0337 -0.7674  0.6877
  573MOL0     O77244   2.662   6.871   6.601 -0.8590  0.0571 -0.4984
  573MOL0     C77245   2.789   6.834   6.601 -1.0435  0.6526 -0.1713
  573MOL0     C77246   2.825   6.766   6.487 -0.5023  0.5968  0.4884
  573MOL0     C77247   2.963   6.727   6.469 -1.2503  0.5074  0.1961
  573MOL0     C77248   3.063   6.776   6.557  0.3534  1.2042  0.0220
  573MOL0     C77249   3.209   6.761   6.532  0.1522 -0.1514  0.3204
  573MOL0     O77250   3.301   6.779   6.642  0.5177 -0.0178  0.4704
  573MOL0     C77251   3.437   6.819   6.624 -0.4492  0.5091 -0.1582
  573MOL0     C77252   3.520   6.814   6.742 -0.4672  0.1944  0.2884
  573MOL0     C77253   3.657   6.822   6.735 -0.1640  0.1351 -0.2544
  573MOL0     C77254   3.722   6.862   6.616 -0.0093  0.9162  0.5358
  573MOL0     O77255   3.856   6.894   6.604 -0.5890 -0.3106 -0.5788
  573MOL0     C77256   3.924   6.967   6.707  0.0273 -0.0789  0.6459
  573MOL0     C77257   4.060   6.998   6.655 -0.3260  1.0263 -0.7534
  573MOL0     C77258   4.139   7.102   6.734 -0.5700  0.9108 -0.1960
  573MOL0     C77259   4.273   7.114   6.667  0.1695  0.4586  0.6255
  573MOL0     C77260   4.365   7.210   6.738 -0.1319  0.0250 -0.1013
  573MOL0     C77261   4.504   7.218   6.675 -0.5201  0.1167  0.1210
  573MOL0     C77262   4.573   7.354   6.702 -0.6623 -0.0149  0.0206
  573MOL0     C77263   4.723   7.340   6.692 -0.3655  0.0836 -0.3475
  573MOL0    Cl77264   4.817   7.485   6.755  0.2655  0.0436 -0.5095
  573MOL0     C77265   3.640   6.873   6.502  0.2713  0.5096  0.2276
  573MOL0     C77266   3.498   6.853   6.503 -1.0675  0.3456 -0.4005
  573MOL0     O77267   3.245   6.737   6.418 -0.3176 -0.0487  0.0846
  573MOL0     C77268   3.026   6.843   6.671 -0.1667 -0.3513 -0.6964
  573MOL0     C77269   2.888   6.866   6.696 -0.5450  0.0364 -0.1692
  573MOL0     N77270   2.331   6.309   6.701 -0.6687 -0.0346 -0.1527
  573MOL0     N77271   2.212   6.301   6.659  0.4402 -0.4740 -0.7886
  573MOL0     C77272   1.006   6.700   6.640 -0.2023 -0.7283  0.2455
  573MOL0     C77273   0.876   6.742   6.637  0.1747 -1.1507  0.8521
  573MOL0     C77274   0.457   6.905   6.563  0.5278 -0.2180  0.0509
  573MOL0     C77275   0.422   7.042   6.568 -0.0688  0.2836  0.1341
  573MOL0     C77276   0.296   7.090   6.534 -0.8977 -0.4376  0.2598
  573MOL0     C77277   0.194   7.010   6.491 -0.1135 -0.6903  0.3112
  573MOL0     O77278   0.074   7.075   6.453 -0.5027 -0.7535  0.4348
  573MOL0     C77279  -0.037   7.003   6.395 -0.1373  0.2040  0.6443
  573MOL0     C77280  -0.004   6.981   6.241 -0.1007 -0.3776 -0.1085
  573MOL0     C77281  -0.118   6.889   6.172 -0.0916  0.3802  0.2143
  573MOL0     C77282  -0.134   6.745   6.219  0.2858  0.3925 -0.3310
  573MOL0     C77283  -0.006   6.672   6.205 -0.4783 -0.1893 -0.8613
  573MOL0     C77284   0.099   6.603   6.207  0.2014  0.1951  0.2174
  573MOL0     C77285   0.226   6.871   6.493  0.7370  0.4709  0.3859
  573MOL0     C77286   0.351   6.819   6.537  0.0389  0.2331  0.0376
  573MOL0     C77287   0.357   6.670   6.571  0.5730  0.2116 -0.3568
  573MOL0     H77288   0.745   6.560   6.388 -1.6354 -0.2999  0.1463
  573MOL0     H77289   0.974   6.476   6.384 -0.2387  1.4621 -1.4956
  573MOL0     H77290   1.265   6.724   6.546 -1.7261 -0.9613 -0.9383
  573MOL0     H77291   1.323   6.597   6.659  0.2623 -0.7119 -0.4551
  573MOL0     H77292   1.344   6.601   6.356 -4.6748 -1.0255  0.8682
  573MOL0     H77293   1.400   6.469   6.458  1.2150 -0.1956 -0.3763
  573MOL0     H77294   1.561   6.572   6.582 -0.0890 -0.4220  0.3371
  573MOL0     H77295   1.537   6.727   6.500 -1.1656 -0.2121  3.0380
  573MOL0     H77296   1.628   6.465   6.373 -1.7116 -0.6738  0.0063
  573MOL0     H77297   1.604   6.615   6.287 -1.6458  2.9677  1.7647
  573MOL0     H77298   1.837   6.572   6.334 -1.4900 -1.5534  0.0823
  573MOL0     H77299   1.801   6.719   6.423  1.6882 -0.2540 -0.7387
  573MOL0     H77300   1.804   6.603   6.630 -0.5073  2.0194 -3.0598
  573MOL0     H77301   1.760   6.452   6.564 -0.7330  0.9459  2.2141
  573MOL0     H77302   2.022   6.599   6.521  1.1218 -1.3642  0.1914
  573MOL0     H77303   1.979   6.445   6.450  2.4283  1.0265 -0.2718
  573MOL0     H77304   1.984   6.522   6.745 -0.4108 -0.0344 -0.4905
  573MOL0     H77305   1.960   6.354   6.694  0.1160 -0.2693 -0.1638
  573MOL0     H77306   2.223   6.615   6.744  1.2484 -0.4694  0.5609
  573MOL0     H77307   2.459   6.443   6.931 -0.7872  2.1376  0.8800
  573MOL0     H77308   2.565   6.428   6.779  1.6161  2.6383  0.7230
  573MOL0     H77309   2.407   6.664   6.877  0.8128 -0.1482  0.6586
  573MOL0     H77310   2.572   6.646   6.913 -0.3950  0.3887  1.2112
  573MOL0     H77311   2.452   6.700   6.635 -0.2404  1.0097 -0.8635
  573MOL0     H77312   2.607   6.637   6.646  1.6117  0.1030  1.9102
  573MOL0     H77313   2.673   6.828   6.810 -1.6037  0.1447  2.1531
  573MOL0     H77314   2.524   6.907   6.751  0.6739 -0.0810  0.9577
  573MOL0     H77315   2.747   6.739   6.416 -1.2601  3.0846  0.2717
  573MOL0     H77316   3.002   6.681   6.379 -0.3293  3.3627 -0.9847
  573MOL0     H77317   3.466   6.795   6.834  0.6448  0.2910  0.9686
  573MOL0     H77318   3.712   6.810   6.828  0.1656  1.6539 -0.2322
  573MOL0     H77319   3.881   7.065   6.730 -2.4763 -0.8057 -0.6306
  573MOL0     H77320   3.918   6.903   6.796 -2.9785 -0.2710  0.3947
  573MOL0     H77321   4.112   6.902   6.647 -0.0947  0.9287  1.4820
  573MOL0     H77322   4.058   7.031   6.550  1.1845  1.1728 -0.7591
  573MOL0     H77323   4.096   7.203   6.731 -1.1536  0.6607 -0.4933
  573MOL0     H77324   4.145   7.074   6.839 -1.8323 -0.1211 -0.3734
  573MOL0     H77325   4.254   7.134   6.561 -0.5972  0.9980  0.8510
  573MOL0     H77326   4.322   7.016   6.666  0.7013  0.7068 -0.9066
  573MOL0     H77327   4.373   7.168   6.839  1.5748 -1.0505 -0.6396
  573MOL0     H77328   4.306   7.302   6.735 -1.4243 -0.6832  1.7889
  573MOL0     H77329   4.564   7.131   6.704 -1.0054 -0.6534 -1.1121
  573MOL0     H77330   4.478   7.206   6.569 -3.7157  1.5409  0.6269
  573MOL0     H77331   4.548   7.386   6.804  2.0938  0.6653  0.5698
  573MOL0     H77332   4.542   7.435   6.636 -0.5349 -1.5535 -2.0105
  573MOL0     H77333   4.758   7.257   6.754 -0.6423  0.1950 -0.0378
  573MOL0     H77334   4.743   7.321   6.587  2.1693 -2.4540  0.4673
  573MOL0     H77335   3.689   6.895   6.408  0.4545 -0.3435  0.1191
  573MOL0     H77336   3.444   6.861   6.409 -0.4429  2.0927 -0.6475
  573MOL0     H77337   3.098   6.883   6.742  0.1902 -1.4714 -0.4064
  573MOL0     H77338   2.866   6.940   6.773 -0.6252  2.3041 -2.2545
  573MOL0     H77339   1.072   6.750   6.710 -0.0284  1.4981 -1.3858
  573MOL0     H77340   0.846   6.811   6.716 -0.1930 -0.2804 -0.0292
  573MOL0     H77341   0.494   7.120   6.592  0.1859  0.5833 -1.4507
  573MOL0     H77342   0.284   7.198   6.527 -0.2462 -0.0381  3.4582
  573MOL0     H77343  -0.126   7.067   6.392 -1.3748 -1.4580  0.7986
  573MOL0     H77344  -0.041   6.912   6.455 -0.1743  0.5091  1.1173
  573MOL0     H77345   0.095   6.934   6.242 -0.4089 -1.0802  1.7492
  573MOL0     H77346   0.006   7.071   6.179  2.3449 -2.8837 -3.8229
  573MOL0     H77347  -0.109   6.886   6.063 -4.3900  0.1397 -0.2984
  573MOL0     H77348  -0.213   6.937   6.196 -0.3938 -1.4321  3.1370
  573MOL0     H77349  -0.176   6.730   6.319  0.6600 -1.7422 -0.4293
  573MOL0     H77350  -0.205   6.702   6.148 -0.2919  2.3203 -0.9663
  573MOL0     H77351   0.178   6.534   6.186 -3.1211 -3.4550 -1.4800
  573MOL0     H77352   0.159   6.797   6.451  0.1700  0.3445  1.4910
  573MOL0     H77353   0.270   6.613   6.606  0.1735 -1.7778 -4.1113
  573MOL0     H77354   0.399   6.629   6.479  1.2138  1.6520 -0.7319
  573MOL0     H77355   0.426   6.645   6.652 -0.5277 -2.4994 -0.1614
  574MOL0     O77356  10.755   0.709   6.468 -0.3883  0.0657  0.4447
  574MOL0     C77357  10.779   0.590   6.453 -0.0034 -0.7867 -0.1464
  574MOL0     O77358  10.896   0.534   6.410 -0.2340 -0.7604 -0.9762
  574MOL0     C77359  11.014   0.603   6.416 -0.5658 -0.5159  0.0824
  574MOL0     C77360  11.119   0.530   6.357  0.5845 -0.4516  0.0710
  574MOL0     C77361  11.242   0.590   6.334  1.2279  1.0969 -0.0345
  574MOL0     C77362  11.272   0.721   6.369  0.7883  0.2586  0.1445
  574MOL0     O77363  11.396   0.774   6.350  0.5262  0.5894  0.0313
  574MOL0     C77364  11.397   0.912   6.317  0.3795  0.7049 -0.7874
  574MOL0     C77365  11.534   0.961   6.251  0.1351 -0.2608  0.1188
  574MOL0     C77366  11.668   0.951   6.335  0.7232  0.1754  0.3363
  574MOL0     C77367  11.794   0.940   6.242  0.7655  0.7739  0.6136
  574MOL0     C77368  11.930   0.917   6.317 -0.3837 -0.5449  0.1350
  574MOL0     C77369  12.047   0.893   6.223 -0.6032 -0.6198  0.0030
  574MOL0     C77370  12.183   0.931   6.291 -0.1473  0.4600 -0.4879
  574MOL0     C77371  12.301   0.918   6.192  0.0396  0.7683 -0.0271
  574MOL0     N77372  12.418   0.993   6.235 -0.2240  0.2506  0.1385
  574MOL0     C77373  12.427   1.108   6.308 -0.3374 -1.1929 -1.0162
  574MOL0     C77374  12.558   1.114   6.335  0.0524 -0.2273 -0.6569
  574MOL0     C77375  12.635   1.218   6.412  0.3242  0.2859  0.0667
  574MOL0     C77376  12.782   1.207   6.404 -0.9913 -0.3334  0.3341
  574MOL0     C77377  12.837   1.272   6.267  0.1849  0.5710 -0.3856
  574MOL0     C77378  12.984   1.266   6.266  0.0892  0.6601  0.2527
  574MOL0     O77379  13.047   1.364   6.347  0.6056 -0.8172  0.0629
  574MOL0     C77380  13.178   1.382   6.322 -0.1083  0.1713 -0.0169
  574MOL0     C77381  13.260   1.297   6.244 -0.5786 -0.5247  0.5921
  574MOL0     C77382  13.391   1.335   6.220  0.6246  0.1335 -0.4313
  574MOL0     C77383  13.458   1.427   6.304  0.2764 -0.4611 -0.1003
  574MOL0     C77384  13.600   1.441   6.295 -1.0362 -0.1954  0.3283
  574MOL0     O77385  13.675   1.328   6.266 -0.2840 -0.6345 -0.1956
  574MOL0     C77386  13.810   1.350   6.240  0.3307  0.2113  0.0850
  574MOL0     C77387  13.859   1.450   6.160 -0.6338  0.3979  0.3006
  574MOL0     C77388  13.996   1.455   6.136  0.4364 -0.2975  0.0329
  574MOL0     C77389  14.090   1.372   6.201  0.5896  0.4287 -0.2017
  574MOL0     O77390  14.230   1.390   6.188  0.2897 -0.3284  0.2250
  574MOL0     C77391  14.319   1.280   6.225 -0.5467 -0.2414  0.4275
  574MOL0     C77392  14.465   1.326   6.222  0.1104  0.0243 -1.0947
  574MOL0     C77393  14.568   1.213   6.208 -0.8269  0.3332 -0.5996
  574MOL0     C77394  14.543   1.088   6.309 -0.3835  0.7227  0.0863
  574MOL0     C77395  14.604   0.966   6.243  0.1136  1.5575  0.9884
  574MOL0     C77396  14.760   0.962   6.259  0.4108  0.1928 -0.1441
  574MOL0     C77397  14.825   0.830   6.213  0.8289 -1.0781 -0.3540
  574MOL0     C77398  14.979   0.841   6.192 -0.3266 -0.0548 -0.3578
  574MOL0    Cl77399  15.064   0.857   6.344  0.2317 -0.2947 -0.1133
  574MOL0     C77400  14.032   1.268   6.283 -0.6310  0.1984 -0.3752
  574MOL0     C77401  13.899   1.260   6.308 -0.4378  0.9484 -0.0673
  574MOL0     O77402  13.645   1.555   6.324 -0.1182 -0.2243  0.2866
  574MOL0     C77403  13.376   1.503   6.387  0.0447  0.8723  0.0820
  574MOL0     C77404  13.236   1.485   6.398 -0.1030 -0.0123 -0.4647
  574MOL0     N77405  12.625   1.012   6.272 -0.0716  0.6867  0.0662
  574MOL0     N77406  12.547   0.938   6.214 -0.7036  0.8127 -0.0004
  574MOL0     C77407  11.170   0.793   6.439  0.5626 -0.1244 -0.3198
  574MOL0     C77408  11.046   0.736   6.464 -0.1774 -0.5301  0.1946
  574MOL0     C77409  10.661   0.497   6.447 -0.3951 -0.0814  0.0954
  574MOL0     C77410  10.537   0.548   6.401  0.4260  0.3521  0.5422
  574MOL0     C77411  10.417   0.472   6.394  0.0482 -1.3104 -0.6350
  574MOL0     C77412  10.425   0.341   6.446  0.2665 -0.1506 -0.8541
  574MOL0     O77413  10.303   0.275   6.455  0.6255 -0.3858 -0.2710
  574MOL0     C77414  10.283   0.156   6.526  0.2063 -0.2295 -1.2316
  574MOL0     C77415  10.288   0.165   6.690 -0.7239 -0.4228  1.0735
  574MOL0     C77416  10.277   0.018   6.739 -0.0436  0.1422 -0.3933
  574MOL0     C77417  10.306   0.006   6.882  0.2713  0.1436 -1.2462
  574MOL0     C77418  10.444   0.046   6.919  0.2601  0.4006 -0.2577
  574MOL0     C77419  10.554   0.087   6.953 -0.3230  0.2031 -0.1676
  574MOL0     C77420  10.543   0.281   6.498 -0.2187 -0.0164  0.0659
  574MOL0     C77421  10.664   0.360   6.495 -0.4856 -0.4759 -0.3127
  574MOL0     C77422  10.785   0.292   6.550  0.6876 -0.5869 -0.3147
  574MOL0     H77423  11.106   0.424   6.338  1.0475 -0.5089  0.0542
  574MOL0     H77424  11.318   0.540   6.275  0.6726  0.9371 -0.6228
  574MOL0     H77425  11.315   0.941   6.250 -1.0929 -2.2100 -0.3877
  574MOL0     H77426  11.393   0.963   6.413  0.4126 -4.2749  2.2021
  574MOL0     H77427  11.519   1.063   6.216 -2.2986 -0.9761 -1.1706
  574MOL0     H77428  11.542   0.894   6.165 -1.0738  0.1763 -0.3602
  574MOL0     H77429  11.670   0.863   6.400  1.3273 -1.4237 -1.7551
  574MOL0     H77430  11.679   1.044   6.392  1.4054  0.6053 -0.4782
  574MOL0     H77431  11.782   0.857   6.171  2.8372  0.2228  0.8347
  574MOL0     H77432  11.788   1.027   6.176 -1.2798  0.6587  0.5837
  574MOL0     H77433  11.941   1.008   6.377 -1.2963 -0.5846  0.3752
  574MOL0     H77434  11.920   0.836   6.390  0.5271 -0.8585 -0.0784
  574MOL0     H77435  12.052   0.787   6.195  0.5133 -0.3079 -1.0583
  574MOL0     H77436  12.031   0.956   6.135 -1.6119  1.7898  1.7879
  574MOL0     H77437  12.204   0.866   6.376 -1.7057  0.7984  0.1836
  574MOL0     H77438  12.178   1.035   6.322  0.1230 -0.1745  1.8235
  574MOL0     H77439  12.323   0.811   6.186  0.1757  0.4548  3.5590
  574MOL0     H77440  12.272   0.940   6.089 -0.0647 -1.7065 -0.5990
  574MOL0     H77441  12.354   1.176   6.352  1.2039  1.5279 -2.4205
  574MOL0     H77442  12.601   1.320   6.392  1.9972  1.0545  0.8940
  574MOL0     H77443  12.618   1.209   6.520 -0.5699  0.6844 -0.0329
  574MOL0     H77444  12.826   1.261   6.489  0.1721 -2.1182  0.9305
  574MOL0     H77445  12.811   1.102   6.420 -0.8178 -0.7863 -2.3743
  574MOL0     H77446  12.813   1.378   6.254  2.7809  0.8709 -4.7379
  574MOL0     H77447  12.790   1.223   6.181 -0.8691  0.9185 -0.0134
  574MOL0     H77448  13.011   1.280   6.161  2.4431 -0.1856  0.6878
  574MOL0     H77449  13.016   1.167   6.299  1.6879  1.6431  1.8384
  574MOL0     H77450  13.225   1.206   6.197 -0.3281 -1.0555  1.4145
  574MOL0     H77451  13.436   1.292   6.130  3.7625  1.4392  0.3847
  574MOL0     H77452  13.789   1.519   6.113 -2.9782 -0.2268  2.6751
  574MOL0     H77453  14.047   1.524   6.069  1.1994  0.6591  1.5375
  574MOL0     H77454  14.291   1.243   6.324 -0.7137  1.9996  1.2616
  574MOL0     H77455  14.313   1.195   6.156 -0.6432  0.6812 -0.7258
  574MOL0     H77456  14.465   1.389   6.132 -1.1105  0.8719 -0.5281
  574MOL0     H77457  14.481   1.389   6.310 -2.1934 -0.7696 -0.0272
  574MOL0     H77458  14.575   1.182   6.103 -0.5983 -1.0596 -0.1959
  574MOL0     H77459  14.660   1.260   6.243 -1.4779 -0.0097  1.7905
  574MOL0     H77460  14.437   1.080   6.335 -0.1059 -0.0960  1.0110
  574MOL0     H77461  14.606   1.121   6.393  1.5849 -2.1602 -0.1249
  574MOL0     H77462  14.565   0.966   6.141 -1.3285  1.1622  1.5178
  574MOL0     H77463  14.564   0.877   6.293  1.7758 -0.6629 -1.3725
  574MOL0     H77464  14.811   1.044   6.208  0.1698  0.2217 -0.3402
  574MOL0     H77465  14.771   0.972   6.367  2.4837  1.0534 -0.3930
  574MOL0     H77466  14.772   0.793   6.125  0.8581  1.8298 -1.7115
  574MOL0     H77467  14.813   0.751   6.288 -0.8755 -1.6966 -1.2310
  574MOL0     H77468  15.012   0.749   6.142 -0.6619 -2.2927  3.1534
  574MOL0     H77469  15.009   0.927   6.131  1.7665 -1.1195 -0.9367
  574MOL0     H77470  14.094   1.196   6.336  1.7562  0.6016 -2.3973
  574MOL0     H77471  13.834   1.190   6.359 -2.7293  2.0365 -1.3222
  574MOL0     H77472  13.427   1.570   6.455  1.8266  0.3547 -0.6848
  574MOL0     H77473  13.178   1.544   6.467 -0.6826 -1.8489  0.6968
  574MOL0     H77474  11.194   0.895   6.467  1.2724 -0.4595  0.3502
  574MOL0     H77475  10.966   0.798   6.505 -0.0263  0.4145 -0.8897
  574MOL0     H77476  10.533   0.651   6.367 -0.1932  0.4831  1.0013
  574MOL0     H77477  10.319   0.504   6.359 -0.3473 -2.7269 -0.8855
  574MOL0     H77478  10.353   0.080   6.488  2.8475  1.9108 -0.9656
  574MOL0     H77479  10.181   0.137   6.492 -0.1675  2.2760 -1.7068
  574MOL0     H77480  10.204   0.225   6.728  0.4553  0.3661  2.5613
  574MOL0     H77481  10.380   0.213   6.725  0.3653 -2.7711  1.6363
  574MOL0     H77482  10.354  -0.042   6.688 -0.4642 -0.4551 -0.3412
  574MOL0     H77483  10.181  -0.031   6.723 -1.4930  1.9262  2.0999
  574MOL0     H77484  10.233   0.063   6.939 -0.3458 -1.5868 -0.2225
  574MOL0     H77485  10.282  -0.090   6.929  1.5236 -0.1437 -1.1481
  574MOL0     H77486  10.648   0.130   6.979 -0.6145  1.5883 -1.3128
  574MOL0     H77487  10.544   0.181   6.539 -1.7045 -0.5798 -1.2100
  574MOL0     H77488  10.767   0.189   6.582 -1.3500 -0.2315 -0.1645
  574MOL0     H77489  10.880   0.303   6.495  0.8781  1.5317  0.3339
  574MOL0     H77490  10.800   0.338   6.648 -2.6571  0.8461 -0.3397
  575MOL0     O77491   3.830   3.055   0.544  0.2589  1.0318  0.2085
  575MOL0     C77492   3.826   3.177   0.532 -0.4055  0.3297  0.1001
  575MOL0     O77493   3.883   3.252   0.436 -0.0436  0.3520  0.1395
  575MOL0     C77494   3.963   3.195   0.340 -0.3794  0.2910  0.5048
  575MOL0     C77495   4.098   3.194   0.339 -0.1475  0.5210 -0.4470
  575MOL0     C77496   4.180   3.150   0.238  0.7101 -0.5260  0.5144
  575MOL0     C77497   4.112   3.085   0.134  0.2374  0.3655  0.9005
  575MOL0     O77498   4.179   3.037   0.029  0.4368  0.1761 -0.5098
  575MOL0     C77499   4.288   3.111  -0.030  0.3541 -0.8535 -0.2415
  575MOL0     C77500   4.426   3.053   0.018 -0.6538 -0.6309  0.4118
  575MOL0     C77501   4.538   3.101  -0.076  0.3888 -0.9189 -0.1824
  575MOL0     C77502   4.668   3.039  -0.030 -1.0139  0.9636 -1.0055
  575MOL0     C77503   4.791   3.093  -0.101 -0.4277  0.2184  0.3750
  575MOL0     C77504   4.792   3.060  -0.249 -0.4065  0.4884 -0.4332
  575MOL0     C77505   4.909   3.127  -0.320  0.4138  0.6420 -0.0690
  575MOL0     C77506   4.958   3.053  -0.440 -0.0078  0.2966 -0.4284
  575MOL0     N77507   5.046   3.139  -0.526  0.3765  0.2113 -0.4766
  575MOL0     C77508   5.180   3.139  -0.525  0.0973 -0.5936 -0.5588
  575MOL0     C77509   5.225   3.224  -0.615  0.4380  0.1803  0.1922
  575MOL0     C77510   5.358   3.279  -0.640 -0.8081 -0.2345 -0.0401
  575MOL0     C77511   5.450   3.314  -0.516 -0.0131 -0.2590 -0.2114
  575MOL0     C77512   5.381   3.424  -0.428 -0.1852  0.0564  0.2445
  575MOL0     C77513   5.490   3.485  -0.336  0.2758 -0.6801 -0.2602
  575MOL0     O77514   5.560   3.394  -0.261 -0.9008  0.2396 -0.0764
  575MOL0     C77515   5.636   3.436  -0.156  0.1886 -0.7814  0.2213
  575MOL0     C77516   5.691   3.345  -0.064  0.5384  0.3405 -0.1866
  575MOL0     C77517   5.763   3.388   0.045  0.3733  0.1317 -0.0677
  575MOL0     C77518   5.787   3.531   0.069  0.3241 -0.3906  0.1402
  575MOL0     C77519   5.867   3.584   0.183  0.2601 -0.0123  0.5043
  575MOL0     O77520   5.889   3.497   0.291  0.2140 -0.3211  0.1440
  575MOL0     C77521   5.964   3.544   0.396  0.6063 -0.4778 -0.3706
  575MOL0     C77522   5.898   3.629   0.491 -0.9315  0.2744 -0.0992
  575MOL0     C77523   5.977   3.670   0.604  1.0291  0.3336  0.4828
  575MOL0     C77524   6.109   3.623   0.623  0.4155  0.3281  0.1766
  575MOL0     O77525   6.167   3.656   0.741 -0.2418 -0.7486 -0.4285
  575MOL0     C77526   6.300   3.612   0.768 -0.5818  0.8374  0.0638
  575MOL0     C77527   6.322   3.635   0.918  0.1033 -0.0149 -1.3789
  575MOL0     C77528   6.443   3.557   0.985  0.0377  0.0775  0.5631
  575MOL0     C77529   6.485   3.615   1.115  0.9508  0.0954 -0.0054
  575MOL0     C77530   6.605   3.533   1.164 -0.1428  0.6099 -0.0123
  575MOL0     C77531   6.688   3.608   1.271 -0.5563 -0.1128  0.0543
  575MOL0     C77532   6.821   3.554   1.295 -0.0798  0.1459 -0.2459
  575MOL0     C77533   6.907   3.643   1.385 -0.0935  0.0720 -1.2860
  575MOL0    Cl77534   7.063   3.647   1.301  0.2445 -0.2763  0.4919
  575MOL0     C77535   6.174   3.559   0.517  0.2659 -0.0060  0.7393
  575MOL0     C77536   6.100   3.510   0.408  0.3949 -0.2433  0.5133
  575MOL0     O77537   5.907   3.705   0.179 -0.2946 -0.2356 -0.3632
  575MOL0     C77538   5.727   3.620  -0.022  0.3201 -0.3382 -0.0406
  575MOL0     C77539   5.660   3.574  -0.135 -0.1222 -0.1445  0.3348
  575MOL0     N77540   5.113   3.277  -0.676 -0.5174  0.6584  0.1252
  575MOL0     N77541   5.005   3.223  -0.613 -0.7270 -0.1955  0.1421
  575MOL0     C77542   3.978   3.072   0.134  0.4953  0.4655 -0.1582
  575MOL0     C77543   3.900   3.121   0.243 -0.2428  0.0409  1.0442
  575MOL0     C77544   3.733   3.249   0.620 -1.1573 -0.3189  0.3535
  575MOL0     C77545   3.615   3.186   0.656 -0.0026 -0.2833  0.2424
  575MOL0     C77546   3.525   3.248   0.741 -0.5144 -0.0356  0.2657
  575MOL0     C77547   3.565   3.364   0.811  0.1166  0.7708  0.1937
  575MOL0     O77548   3.477   3.432   0.887 -0.0959  0.3324  0.1222
  575MOL0     C77549   3.342   3.382   0.924 -1.0637  0.5270  0.3710
  575MOL0     C77550   3.237   3.434   0.821 -0.4167  0.8535 -0.1461
  575MOL0     C77551   3.100   3.389   0.854  0.4799 -0.0869 -0.6687
  575MOL0     C77552   2.997   3.401   0.733  0.2391 -0.8601 -0.0176
  575MOL0     C77553   3.006   3.290   0.647 -0.2621  0.2269 -0.4121
  575MOL0     C77554   3.016   3.215   0.556  0.2000 -0.6959  0.1276
  575MOL0     C77555   3.682   3.427   0.790 -0.4765 -0.3694  0.4820
  575MOL0     C77556   3.776   3.367   0.700  0.5088  0.3181  0.5482
  575MOL0     C77557   3.912   3.422   0.683 -0.0716 -0.0451 -0.0880
  575MOL0     H77558   4.143   3.252   0.420 -0.4017 -1.0499  0.8744
  575MOL0     H77559   4.289   3.154   0.237  0.6989  2.0914 -1.7308
  575MOL0     H77560   4.273   3.092  -0.136 -0.0605 -5.2929  0.4154
  575MOL0     H77561   4.288   3.218  -0.010  1.4391 -0.8787 -0.0600
  575MOL0     H77562   4.423   2.945   0.037 -1.0365 -1.4090 -3.3493
  575MOL0     H77563   4.453   3.095   0.116  0.8598  0.5607 -0.4717
  575MOL0     H77564   4.548   3.210  -0.084  3.8321 -1.1092 -0.0072
  575MOL0     H77565   4.506   3.078  -0.178  0.9725 -0.2027 -0.5392
  575MOL0     H77566   4.682   3.074   0.072  0.6311  1.5158 -1.3800
  575MOL0     H77567   4.662   2.930  -0.023  4.3867  0.5015  3.2666
  575MOL0     H77568   4.795   3.200  -0.078  0.2953  0.4122 -0.6101
  575MOL0     H77569   4.870   3.037  -0.052 -0.8289 -1.6458 -1.0070
  575MOL0     H77570   4.798   2.953  -0.271 -3.3055  0.6283 -2.3788
  575MOL0     H77571   4.700   3.103  -0.290 -0.7298 -0.6493 -0.9149
  575MOL0     H77572   4.994   3.128  -0.251  0.9850  2.2428 -0.7463
  575MOL0     H77573   4.889   3.233  -0.336 -0.0071  0.7872  1.2699
  575MOL0     H77574   5.013   2.967  -0.403  0.2850  0.9685  0.7429
  575MOL0     H77575   4.873   3.008  -0.493  0.2624 -0.9859  0.2114
  575MOL0     H77576   5.238   3.078  -0.456 -0.5133 -1.0837 -0.4688
  575MOL0     H77577   5.418   3.207  -0.697  1.7576 -1.1010  3.3901
  575MOL0     H77578   5.340   3.370  -0.697  0.2521  1.2727  1.9061
  575MOL0     H77579   5.473   3.232  -0.447 -0.2266 -1.7442 -1.8451
  575MOL0     H77580   5.542   3.367  -0.543 -1.1910  1.2341 -1.4573
  575MOL0     H77581   5.302   3.377  -0.370  0.3467 -1.4176 -0.1773
  575MOL0     H77582   5.338   3.500  -0.494  1.2704 -0.4903 -1.4039
  575MOL0     H77583   5.444   3.566  -0.278 -1.6732  0.7102 -3.4750
  575MOL0     H77584   5.555   3.532  -0.409 -2.0798  2.7553 -0.4221
  575MOL0     H77585   5.657   3.243  -0.077  1.2651  0.1051 -0.2673
  575MOL0     H77586   5.813   3.314   0.106  0.2626 -1.3996 -1.7702
  575MOL0     H77587   5.791   3.652   0.490 -1.3101 -1.1981  1.5688
  575MOL0     H77588   5.920   3.731   0.673 -2.0335 -0.3513 -1.2700
  575MOL0     H77589   6.318   3.504   0.759 -1.1459  0.5309  2.1341
  575MOL0     H77590   6.375   3.666   0.710  0.0110  0.4375  0.4479
  575MOL0     H77591   6.344   3.739   0.942 -0.0100 -0.4868  1.0763
  575MOL0     H77592   6.233   3.607   0.975  1.7718 -1.3978  0.7350
  575MOL0     H77593   6.414   3.452   0.996  0.3524 -0.1429 -0.6084
  575MOL0     H77594   6.524   3.552   0.911 -1.9747 -1.7225 -1.7009
  575MOL0     H77595   6.389   3.614   1.166 -1.5043 -2.2975 -4.1552
  575MOL0     H77596   6.524   3.716   1.096  3.2025 -0.4535  1.2917
  575MOL0     H77597   6.673   3.502   1.084  2.3968 -1.9859  2.8664
  575MOL0     H77598   6.570   3.438   1.204  1.2799 -0.2297 -0.6788
  575MOL0     H77599   6.691   3.715   1.250 -2.5115  0.0523  0.3681
  575MOL0     H77600   6.645   3.614   1.371  0.1927  0.3385  0.3525
  575MOL0     H77601   6.872   3.550   1.198 -0.6095 -0.7542 -0.4956
  575MOL0     H77602   6.810   3.455   1.338  4.0393 -0.0313  0.8276
  575MOL0     H77603   6.874   3.747   1.374  0.1465  0.2382 -0.4423
  575MOL0     H77604   6.914   3.617   1.491 -1.1141  1.6829 -0.7859
  575MOL0     H77605   6.282   3.543   0.518  0.2673 -1.2746 -2.8921
  575MOL0     H77606   6.148   3.457   0.326  1.7102 -2.4209  2.5788
  575MOL0     H77607   5.741   3.725  -0.002  2.7506  0.0667 -3.1361
  575MOL0     H77608   5.646   3.656  -0.205 -0.0219 -0.5190 -0.1200
  575MOL0     H77609   3.920   3.020   0.058 -0.0513 -0.0535  0.6060
  575MOL0     H77610   3.792   3.118   0.250 -0.2637  0.5153  0.9677
  575MOL0     H77611   3.573   3.098   0.608 -0.6997 -0.5928  1.3766
  575MOL0     H77612   3.421   3.216   0.749 -1.1972  2.3955  2.4186
  575MOL0     H77613   3.313   3.413   1.024 -0.1970  2.7446 -0.0070
  575MOL0     H77614   3.352   3.273   0.923  1.6239  0.6881  0.7673
  575MOL0     H77615   3.271   3.397   0.724 -0.0794 -1.1059  0.6746
  575MOL0     H77616   3.240   3.544   0.821 -1.7517  1.0401 -3.9145
  575MOL0     H77617   3.067   3.433   0.949  1.4382  1.9958 -1.2516
  575MOL0     H77618   3.100   3.283   0.880  1.9930  0.4562  1.8791
  575MOL0     H77619   2.893   3.403   0.768  1.3366 -0.8250  3.6088
  575MOL0     H77620   3.032   3.490   0.680 -1.8566 -0.0253 -0.1029
  575MOL0     H77621   3.029   3.156   0.468  0.2108 -1.8758  0.8996
  575MOL0     H77622   3.698   3.520   0.845  1.7417  1.1800 -2.4780
  575MOL0     H77623   3.928   3.461   0.582  2.5588 -2.1509 -0.5929
  575MOL0     H77624   3.938   3.503   0.751  0.5134 -2.0512  2.2257
  575MOL0     H77625   3.985   3.343   0.702 -0.2754 -0.2505 -0.1423
  576MOL0     O77626  11.303   3.717   0.172 -0.2355 -0.8495  1.1076
  576MOL0     C77627  11.226   3.653   0.108  0.1434 -0.9439  0.0707
  576MOL0     O77628  11.247   3.573   0.001 -0.0331 -0.1667  0.1466
  576MOL0     C77629  11.373   3.555  -0.059  0.0190  0.1458 -0.2599
  576MOL0     C77630  11.460   3.485   0.027  0.7553 -0.4133 -0.2723
  576MOL0     C77631  11.593   3.449  -0.012 -0.2783 -0.4294 -0.2987
  576MOL0     C77632  11.650   3.500  -0.134 -0.1352  0.1269  0.5151
  576MOL0     O77633  11.779   3.466  -0.165  0.6667 -0.4925  0.4244
  576MOL0     C77634  11.859   3.558  -0.250  0.2974 -0.1141  0.0791
  576MOL0     C77635  12.010   3.525  -0.255  0.1988  0.5176 -0.5141
  576MOL0     C77636  12.089   3.640  -0.314 -0.0446  0.9094 -0.3010
  576MOL0     C77637  12.238   3.606  -0.323  0.2138 -0.4707 -0.1049
  576MOL0     C77638  12.313   3.722  -0.404  1.1575 -0.4759 -0.0086
  576MOL0     C77639  12.464   3.696  -0.406  0.6370 -0.0212  0.9436
  576MOL0     C77640  12.543   3.769  -0.298 -0.2525 -0.4624 -0.3855
  576MOL0     C77641  12.639   3.663  -0.238 -0.4745 -0.0639 -1.0670
  576MOL0     N77642  12.725   3.726  -0.138 -0.3316  0.2157 -0.0679
  576MOL0     C77643  12.849   3.770  -0.165 -0.6090  0.1098  0.5188
  576MOL0     C77644  12.915   3.797  -0.050  0.5000 -0.4041  0.3005
  576MOL0     C77645  13.060   3.853  -0.027  0.0319  0.0983 -0.6479
  576MOL0     C77646  13.147   3.750   0.043 -0.3695  0.6138  1.8093
  576MOL0     C77647  13.270   3.823   0.080  0.3101 -0.6784  0.1817
  576MOL0     C77648  13.376   3.738   0.148  0.5091  0.2322 -0.2035
  576MOL0     O77649  13.484   3.820   0.195 -0.0037 -0.5737  0.2084
  576MOL0     C77650  13.612   3.773   0.217 -0.0432  0.1032 -0.9570
  576MOL0     C77651  13.709   3.859   0.262  0.0480  0.1762  0.5494
  576MOL0     C77652  13.841   3.826   0.287 -0.3697 -0.5547 -0.3106
  576MOL0     C77653  13.887   3.696   0.269 -0.6148  0.2630  0.1208
  576MOL0     C77654  14.026   3.665   0.277 -0.3686 -0.1197  0.5999
  576MOL0     O77655  14.054   3.526   0.254 -0.6142  0.0935 -0.2111
  576MOL0     C77656  14.185   3.502   0.231  0.0561 -0.3421  0.0163
  576MOL0     C77657  14.280   3.503   0.338  0.2505 -0.9831  0.7771
  576MOL0     C77658  14.413   3.467   0.310  0.6761  0.0697  0.0932
  576MOL0     C77659  14.453   3.437   0.177  0.6274 -0.5974  0.4976
  576MOL0     O77660  14.584   3.402   0.164  0.2277  0.4007 -0.1677
  576MOL0     C77661  14.648   3.400   0.039 -0.7898 -0.1952 -0.1609
  576MOL0     C77662  14.801   3.399   0.068 -1.0486 -0.3282  0.4634
  576MOL0     C77663  14.846   3.527   0.137 -0.6701  0.5868  0.0977
  576MOL0     C77664  14.819   3.535   0.288  0.3617  0.7934  0.2911
  576MOL0     C77665  14.922   3.618   0.362  0.3179  0.9092  0.6740
  576MOL0     C77666  14.904   3.606   0.508 -0.1280 -0.6439 -0.1885
  576MOL0     C77667  14.782   3.689   0.560 -0.6100  0.1936 -0.3484
  576MOL0     C77668  14.792   3.724   0.703  0.1619 -0.0389 -0.0774
  576MOL0    Cl77669  14.939   3.837   0.735  0.2265  0.1658 -0.4977
  576MOL0     C77670  14.365   3.457   0.069  0.0832  0.4722  0.4897
  576MOL0     C77671  14.230   3.488   0.096  0.0675  0.6747 -0.0309
  576MOL0     O77672  14.116   3.747   0.299 -0.1683 -0.6662  0.7598
  576MOL0     C77673  13.789   3.599   0.235 -0.6524  0.5027  0.2357
  576MOL0     C77674  13.655   3.631   0.222 -0.0186  0.3734 -0.2660
  576MOL0     N77675  12.818   3.759   0.053  0.1970  0.6396 -0.0147
  576MOL0     N77676  12.716   3.709  -0.002  0.1180  0.1044  0.2623
  576MOL0     C77677  11.552   3.564  -0.217 -0.9183 -0.0986  0.4384
  576MOL0     C77678  11.411   3.593  -0.187  0.0800 -0.0655 -0.2056
  576MOL0     C77679  11.082   3.661   0.149  0.7230 -0.6525  0.7252
  576MOL0     C77680  10.996   3.766   0.110 -0.2790 -0.6711  0.6769
  576MOL0     C77681  10.866   3.771   0.161  0.1773  0.4811  0.1949
  576MOL0     C77682  10.819   3.668   0.245 -0.2118 -0.4121  0.6203
  576MOL0     O77683  10.705   3.694   0.313 -0.0925 -0.5012 -0.0295
  576MOL0     C77684  10.654   3.609   0.420 -0.8051  0.8473 -0.3922
  576MOL0     C77685  10.524   3.652   0.466 -0.4249  0.2341  0.3090
  576MOL0     C77686  10.408   3.591   0.392  0.0027  0.3253  0.2373
  576MOL0     C77687  10.276   3.628   0.465  0.3248 -0.6040 -0.0879
  576MOL0     C77688  10.247   3.768   0.484  0.5118  0.1863  0.2181
  576MOL0     C77689  10.222   3.891   0.476 -0.1770  1.0573  0.2298
  576MOL0     C77690  10.901   3.557   0.271  0.4726  0.4326 -0.0273
  576MOL0     C77691  11.028   3.554   0.220  0.1603  0.4581 -0.2209
  576MOL0     C77692  11.121   3.435   0.263  0.6618 -0.0344 -0.1925
  576MOL0     H77693  11.420   3.449   0.122 -0.4759  3.5222  0.9194
  576MOL0     H77694  11.667   3.405   0.053  1.6344  2.3625 -0.4111
  576MOL0     H77695  11.823   3.541  -0.352  1.4468 -1.3334 -0.1514
  576MOL0     H77696  11.844   3.656  -0.205 -1.3791 -1.4816  2.7786
  576MOL0     H77697  12.022   3.427  -0.302 -1.0291 -0.1533  0.4778
  576MOL0     H77698  12.042   3.520  -0.150 -1.6890  1.1180  0.1397
  576MOL0     H77699  12.066   3.729  -0.255  1.5665  0.0840  1.6644
  576MOL0     H77700  12.056   3.649  -0.418 -0.0059  2.7453 -0.1741
  576MOL0     H77701  12.270   3.601  -0.219  1.1332  0.6441 -0.3204
  576MOL0     H77702  12.264   3.508  -0.365  1.5484 -0.0325 -0.3589
  576MOL0     H77703  12.278   3.731  -0.507 -1.1414 -0.4551  0.7078
  576MOL0     H77704  12.282   3.820  -0.368 -2.1115 -1.3652 -0.1119
  576MOL0     H77705  12.476   3.587  -0.401  0.0085 -0.1350  0.2076
  576MOL0     H77706  12.507   3.742  -0.495  2.0205  0.1413  1.6758
  576MOL0     H77707  12.476   3.798  -0.216  0.5357  1.0273 -0.2227
  576MOL0     H77708  12.596   3.858  -0.334 -2.9577  0.5418 -2.1858
  576MOL0     H77709  12.585   3.578  -0.195  0.9942  0.5305  2.3162
  576MOL0     H77710  12.707   3.624  -0.314  0.5456 -1.3804  0.4560
  576MOL0     H77711  12.887   3.789  -0.265  0.2436  1.1456  1.0229
  576MOL0     H77712  13.106   3.878  -0.123  1.3506 -1.1548 -0.3742
  576MOL0     H77713  13.045   3.944   0.033 -0.3216  0.7331 -1.6728
  576MOL0     H77714  13.089   3.697   0.119  0.2588 -1.9954  0.5773
  576MOL0     H77715  13.170   3.677  -0.035 -1.4704  0.9994  1.0865
  576MOL0     H77716  13.243   3.906   0.146  0.8797  0.0090 -0.4409
  576MOL0     H77717  13.316   3.873  -0.005  3.2615  1.5652  2.8393
  576MOL0     H77718  13.413   3.664   0.076  2.9923 -1.5249  2.6337
  576MOL0     H77719  13.337   3.685   0.236  0.2342 -1.0126 -1.0515
  576MOL0     H77720  13.683   3.964   0.270  0.7957  0.3530  0.7897
  576MOL0     H77721  13.909   3.902   0.325  0.0879 -0.1333 -1.9314
  576MOL0     H77722  14.248   3.531   0.437 -1.5923  1.8615 -0.4915
  576MOL0     H77723  14.474   3.447   0.398  0.7739  1.1714  0.2932
  576MOL0     H77724  14.622   3.310  -0.017 -1.1793 -0.8249  1.0057
  576MOL0     H77725  14.632   3.487  -0.026 -1.0565 -1.4229 -1.7829
  576MOL0     H77726  14.824   3.312   0.130 -0.4299  0.7832  1.8495
  576MOL0     H77727  14.856   3.386  -0.025 -1.2461  1.9773 -0.0468
  576MOL0     H77728  14.953   3.530   0.120 -1.0739 -1.0310 -3.6040
  576MOL0     H77729  14.808   3.615   0.084  3.0667  1.8446 -0.7367
  576MOL0     H77730  14.813   3.432   0.326 -0.1221 -0.6072 -3.2218
  576MOL0     H77731  14.725   3.589   0.296  0.1922  0.5151  0.1966
  576MOL0     H77732  14.918   3.716   0.313  2.2082 -0.3291 -2.2689
  576MOL0     H77733  15.023   3.577   0.355 -0.2137 -0.6395  1.5451
  576MOL0     H77734  14.900   3.499   0.530 -0.2247 -1.3179 -3.0887
  576MOL0     H77735  14.995   3.648   0.552 -1.4037  0.8532  1.1381
  576MOL0     H77736  14.695   3.624   0.548 -1.8552  1.0866  2.8015
  576MOL0     H77737  14.777   3.787   0.512  1.7975  0.4723 -0.1755
  576MOL0     H77738  14.694   3.767   0.727 -0.8957 -1.1123 -2.1242
  576MOL0     H77739  14.813   3.633   0.760  2.2978  0.5666  0.1830
  576MOL0     H77740  14.395   3.442  -0.034  0.4916  1.1671  0.4962
  576MOL0     H77741  14.168   3.509   0.010 -1.3878  1.5662  1.1827
  576MOL0     H77742  13.814   3.495   0.219 -1.5230  0.4726 -1.0511
  576MOL0     H77743  13.578   3.556   0.203  0.8433 -0.6628  0.2653
  576MOL0     H77744  11.567   3.584  -0.323 -0.8212 -2.1758  0.0173
  576MOL0     H77745  11.346   3.625  -0.268  0.4953 -3.3682 -2.0123
  576MOL0     H77746  11.038   3.838   0.039  1.3239 -0.2240  2.0101
  576MOL0     H77747  10.791   3.841   0.125  0.9441  0.6861 -1.0768
  576MOL0     H77748  10.716   3.607   0.511 -2.2739  0.4709  0.6326
  576MOL0     H77749  10.646   3.510   0.376 -2.5962 -0.0641  1.7822
  576MOL0     H77750  10.520   3.761   0.457  0.9887  0.5405  2.5539
  576MOL0     H77751  10.512   3.637   0.573  2.7313  1.9925  1.0419
  576MOL0     H77752  10.422   3.483   0.398 -0.6139  0.3329  2.7140
  576MOL0     H77753  10.414   3.615   0.285  0.9830 -2.3478 -0.3864
  576MOL0     H77754  10.190   3.580   0.417 -0.1361  0.7156 -0.6471
  576MOL0     H77755  10.273   3.598   0.570  1.7030  0.9293  0.4424
  576MOL0     H77756  10.188   3.992   0.467 -0.4307  0.8612 -1.2734
  576MOL0     H77757  10.871   3.484   0.345  2.1959  2.3368  2.7528
  576MOL0     H77758  11.074   3.372   0.340 -1.9521  2.6480  0.6219
  576MOL0     H77759  11.146   3.379   0.173  1.3596  0.6695 -0.4447
  576MOL0     H77760  11.219   3.461   0.304  1.0990 -0.0695 -1.1838
  577MOL0     O77761   8.817   9.247   9.765  0.4249 -0.0454 -0.3474
  577MOL0     C77762   8.762   9.174   9.851  0.5452 -0.5109  0.0950
  577MOL0     O77763   8.811   9.144   9.975  0.1578 -0.8416  0.2320
  577MOL0     C77764   8.921   9.212  10.032 -0.0123  0.5123 -0.4449
  577MOL0     C77765   8.966   9.145  10.145 -0.0405  0.0102  0.1368
  577MOL0     C77766   9.059   9.202  10.227 -0.2183 -0.3243 -0.2539
  577MOL0     C77767   9.105   9.336  10.204 -0.4875  1.1762  0.0652
  577MOL0     O77768   9.206   9.380  10.286  0.0550 -0.2460 -0.1699
  577MOL0     C77769   9.149   9.469  10.385  0.2352  0.4896  0.2266
  577MOL0     C77770   9.265   9.534  10.464 -0.4078  0.0272 -0.3595
  577MOL0     C77771   9.365   9.609  10.377 -0.0927 -0.5385 -0.8362
  577MOL0     C77772   9.495   9.531  10.369  0.4800  0.4899 -0.2201
  577MOL0     C77773   9.614   9.582  10.284 -0.3621  0.3198  0.1942
  577MOL0     C77774   9.730   9.471  10.260 -0.1563  0.8675  0.5605
  577MOL0     C77775   9.781   9.415  10.396  0.2151 -0.1163 -0.8681
  577MOL0     C77776   9.921   9.357  10.391 -0.3270  0.9147 -0.1273
  577MOL0     N77777  10.018   9.458  10.348  0.1964  0.5401 -0.1488
  577MOL0     C77778  10.124   9.430  10.257  0.3120  0.6667 -0.7056
  577MOL0     C77779  10.171   9.551  10.222  0.7725  0.7492  0.5819
  577MOL0     C77780  10.271   9.588  10.119  0.1464  0.0148 -0.3736
  577MOL0     C77781  10.399   9.640  10.190  0.8455  0.5104 -0.6035
  577MOL0     C77782  10.472   9.739  10.104  0.1936  0.7816 -0.7822
  577MOL0     C77783  10.584   9.817  10.178 -0.5377  0.4008 -0.5866
  577MOL0     O77784  10.660   9.907  10.097  0.2535 -0.0784 -0.3954
  577MOL0     C77785  10.774   9.961  10.165 -0.1820 -0.0239  0.2739
  577MOL0     C77786  10.872  10.003  10.072 -0.4636  0.1065  0.3744
  577MOL0     C77787  10.992  10.057  10.123 -0.1835  0.5235  0.0313
  577MOL0     C77788  11.012  10.067  10.263  0.0153 -0.5339  0.0257
  577MOL0     C77789  11.143  10.123  10.312 -0.1024  0.5117 -0.6795
  577MOL0     O77790  11.229  10.176  10.219  0.1356 -0.4209  0.1479
  577MOL0     C77791  11.342  10.224  10.268 -0.0507  0.1848  0.5317
  577MOL0     C77792  11.434  10.140  10.326 -0.1565  0.4124  0.3146
  577MOL0     C77793  11.549  10.192  10.401  1.2126  0.8979  0.1256
  577MOL0     C77794  11.559  10.332  10.408  0.5112 -0.7511  0.2312
  577MOL0     O77795  11.662  10.404  10.466  0.4334  0.1859 -0.5012
  577MOL0     C77796  11.744  10.322  10.558  0.7627 -0.3904  0.0829
  577MOL0     C77797  11.811  10.406  10.657 -0.3160 -0.4468 -0.1403
  577MOL0     C77798  11.891  10.332  10.760 -0.0271 -1.0133 -0.2994
  577MOL0     C77799  12.029  10.281  10.719  0.4091  0.3911  0.1233
  577MOL0     C77800  12.119  10.231  10.823  0.1576  0.0838  0.2190
  577MOL0     C77801  12.239  10.163  10.752 -0.7662  1.4416 -0.4359
  577MOL0     C77802  12.360  10.142  10.851 -1.0160 -0.3798  0.4002
  577MOL0     C77803  12.479  10.084  10.765 -0.1978 -0.0094 -0.5935
  577MOL0    Cl77804  12.606  10.043  10.901  0.1454  0.1756  0.3107
  577MOL0     C77805  11.459  10.415  10.348  0.9058  0.8145  0.8926
  577MOL0     C77806  11.358  10.354  10.266  0.5236  0.1674  0.4261
  577MOL0     O77807  11.151  10.120  10.435 -0.5103 -0.2189 -0.0476
  577MOL0     C77808  10.907  10.036  10.350  0.7044 -0.2979 -0.2596
  577MOL0     C77809  10.795   9.973  10.300  0.2372  0.1969  0.3758
  577MOL0     N77810  10.107   9.645  10.303 -0.6177 -0.1466  0.0241
  577MOL0     N77811  10.009   9.591  10.370  0.4700 -0.8980  0.2038
  577MOL0     C77812   9.049   9.417  10.103  0.1743  0.8568 -0.0920
  577MOL0     C77813   8.954   9.350  10.014  0.3585  0.4451 -0.6055
  577MOL0     C77814   8.647   9.088   9.813  0.8480  0.4462 -0.2046
  577MOL0     C77815   8.583   9.007   9.913 -1.0196 -0.7029  0.0288
  577MOL0     C77816   8.478   8.918   9.896  0.1374  0.8888  0.1391
  577MOL0     C77817   8.432   8.903   9.771  0.1308  0.7032 -0.2238
  577MOL0     O77818   8.339   8.810   9.742  0.4752  0.1173 -0.1719
  577MOL0     C77819   8.195   8.852   9.751  0.2810  0.1387 -0.0395
  577MOL0     C77820   8.129   8.724   9.787  0.4323 -0.0731  0.0418
  577MOL0     C77821   7.986   8.746   9.847  0.3103 -0.2255 -0.0714
  577MOL0     C77822   7.872   8.744   9.741  0.2364  0.2207  0.1246
  577MOL0     C77823   7.891   8.832   9.629  0.1748  0.1713  0.6028
  577MOL0     C77824   7.910   8.894   9.526 -0.2829 -0.5012  0.2174
  577MOL0     C77825   8.488   8.976   9.670  0.0022  0.0636 -0.1656
  577MOL0     C77826   8.592   9.063   9.689  0.3996 -0.4990 -0.0844
  577MOL0     C77827   8.638   9.132   9.565 -0.1391  0.5424  0.2452
  577MOL0     H77828   8.922   9.058  10.192 -0.2163 -1.7589 -3.0576
  577MOL0     H77829   9.087   9.146  10.316 -1.8783 -0.3194  0.3028
  577MOL0     H77830   9.088   9.547  10.339 -1.4083 -0.4513  0.7204
  577MOL0     H77831   9.086   9.409  10.451  1.2063 -0.7703  0.0597
  577MOL0     H77832   9.322   9.460  10.522 -2.6182 -0.5053  1.2475
  577MOL0     H77833   9.224   9.605  10.536  2.6968  1.1430  0.4666
  577MOL0     H77834   9.387   9.702  10.429 -1.8990 -2.3234  3.5765
  577MOL0     H77835   9.325   9.633  10.277  1.2285  2.1793 -0.8168
  577MOL0     H77836   9.536   9.519  10.470 -0.2094  1.4695  0.1870
  577MOL0     H77837   9.467   9.437  10.321  2.5206  0.8320 -2.2349
  577MOL0     H77838   9.569   9.620  10.192  1.5618  0.7011 -0.6506
  577MOL0     H77839   9.649   9.664  10.347  0.1148 -0.9825  1.6884
  577MOL0     H77840   9.691   9.387  10.202  2.3932 -0.1971  0.2993
  577MOL0     H77841   9.814   9.508  10.201  0.4925 -0.6318  0.5036
  577MOL0     H77842   9.708   9.338  10.422 -0.6937  1.8542  3.2986
  577MOL0     H77843   9.775   9.501  10.463  4.7938  2.4796 -3.2373
  577MOL0     H77844   9.955   9.323  10.489 -2.8198 -1.2373  0.0905
  577MOL0     H77845   9.922   9.270  10.325 -2.5771  0.8195 -0.1289
  577MOL0     H77846  10.163   9.333  10.229 -1.5911 -0.4427  0.2323
  577MOL0     H77847  10.290   9.495  10.063 -1.6166  0.5191 -1.9536
  577MOL0     H77848  10.222   9.656  10.048 -2.6879 -0.3545  1.0890
  577MOL0     H77849  10.381   9.689  10.286  1.8981  3.1155 -1.6196
  577MOL0     H77850  10.462   9.552  10.204 -0.5368 -0.7214 -1.7889
  577MOL0     H77851  10.402   9.817  10.074 -1.1167  0.3138  0.9364
  577MOL0     H77852  10.523   9.690  10.020 -2.1387 -3.1783 -0.1537
  577MOL0     H77853  10.647   9.748  10.236  0.0604  0.5305 -1.0706
  577MOL0     H77854  10.533   9.873  10.257 -1.4021 -0.6414 -0.3851
  577MOL0     H77855  10.831   9.989   9.973 -0.3764 -3.3911  0.6908
  577MOL0     H77856  11.063  10.105  10.056 -2.5958  4.5338  0.0366
  577MOL0     H77857  11.416  10.033  10.318  0.9685  0.0180  2.3446
  577MOL0     H77858  11.617  10.117  10.441  2.7387 -0.0888 -3.9083
  577MOL0     H77859  11.691  10.248  10.619  0.7024 -0.0563  0.4425
  577MOL0     H77860  11.817  10.267  10.499  2.0784  0.9214  0.4191
  577MOL0     H77861  11.875  10.484  10.613  0.4949 -0.5034  0.9109
  577MOL0     H77862  11.732  10.454  10.715 -1.0936 -0.2767 -1.2999
  577MOL0     H77863  11.894  10.395  10.849 -1.1772 -1.2007 -0.1046
  577MOL0     H77864  11.838  10.238  10.780 -0.8677 -0.3167  0.8890
  577MOL0     H77865  12.086  10.360  10.670 -0.0208  1.4006  1.2110
  577MOL0     H77866  12.013  10.203  10.644 -1.5090  0.8538  0.0164
  577MOL0     H77867  12.057  10.157  10.876 -1.4312  1.1777 -0.0280
  577MOL0     H77868  12.161  10.303  10.894  0.9405  0.5965 -0.7469
  577MOL0     H77869  12.205  10.070  10.706 -3.0610  1.6053  0.7692
  577MOL0     H77870  12.273  10.225  10.668  1.3887 -0.6853 -1.2285
  577MOL0     H77871  12.342  10.075  10.936  1.5270 -0.8644  0.6369
  577MOL0     H77872  12.403  10.227  10.906  1.2444 -1.0471 -0.2057
  577MOL0     H77873  12.447   9.991  10.719  3.7191 -1.8590  0.0484
  577MOL0     H77874  12.528  10.142  10.686  2.3793  1.1570  1.6711
  577MOL0     H77875  11.451  10.523  10.358  0.9789  0.9830 -0.6880
  577MOL0     H77876  11.283  10.414  10.217  0.2746 -1.3742 -1.2040
  577MOL0     H77877  10.914  10.055  10.457  0.4822  1.9119 -0.5911
  577MOL0     H77878  10.716   9.942  10.368  1.6067 -1.8332  1.1405
  577MOL0     H77879   9.074   9.522  10.101 -1.2609  1.2219  0.4621
  577MOL0     H77880   8.898   9.405   9.939  1.7341  0.1657 -1.8914
  577MOL0     H77881   8.613   9.027  10.016 -2.9001  1.5606  0.1978
  577MOL0     H77882   8.430   8.865   9.977 -0.4355  0.3312 -0.5626
  577MOL0     H77883   8.154   8.888   9.657  2.5331  1.4742 -0.5827
  577MOL0     H77884   8.179   8.939   9.815 -0.6748  0.5364 -0.7867
  577MOL0     H77885   8.192   8.680   9.865  1.0186 -0.9558 -0.9033
  577MOL0     H77886   8.130   8.657   9.701  0.3417 -0.2485  0.1771
  577MOL0     H77887   7.983   8.839   9.905 -1.0916  1.5629 -2.8085
  577MOL0     H77888   7.958   8.660   9.909  1.6660 -0.3679  0.3618
  577MOL0     H77889   7.874   8.645   9.695  0.5744 -0.8572  2.3460
  577MOL0     H77890   7.772   8.757   9.782  1.2855 -1.3535  3.5641
  577MOL0     H77891   7.940   8.954   9.442 -0.3338 -2.6613 -1.4447
  577MOL0     H77892   8.442   8.965   9.572  0.8264 -1.5421 -0.4096
  577MOL0     H77893   8.662   9.238   9.573  0.3159  0.7464 -2.5718
  577MOL0     H77894   8.725   9.085   9.520 -1.7530  0.4944 -3.2246
  577MOL0     H77895   8.559   9.147   9.490  0.1261  3.4946  0.4425
  578MOL0     O77896   3.899   9.581   8.764  0.0684  0.5792 -0.5215
  578MOL0     C77897   3.843   9.665   8.694  0.1612  1.6697  0.3244
  578MOL0     O77898   3.896   9.779   8.646 -0.1939  0.4447 -0.4852
  578MOL0     C77899   4.009   9.826   8.707 -0.2239  0.1843 -0.5978
  578MOL0     C77900   4.130   9.801   8.643  0.0918  1.1208  0.0857
  578MOL0     C77901   4.245   9.857   8.699 -0.0742  0.9851 -0.2806
  578MOL0     C77902   4.247   9.942   8.813 -0.2875  0.4042 -0.2155
  578MOL0     O77903   4.361  10.009   8.856  0.1849  0.6699  0.5183
  578MOL0     C77904   4.469  10.035   8.767 -0.0469 -0.0545 -0.3485
  578MOL0     C77905   4.568  10.143   8.803 -0.2820  0.9599 -0.5870
  578MOL0     C77906   4.650  10.123   8.928 -0.8430 -0.2059  0.3837
  578MOL0     C77907   4.792  10.187   8.917 -0.2276  0.3613  0.9427
  578MOL0     C77908   4.862  10.174   9.055 -0.4848 -0.5783 -0.8363
  578MOL0     C77909   5.001  10.235   9.046  0.0096 -0.0848 -1.1094
  578MOL0     C77910   5.073  10.247   9.188  0.4003  1.2870  0.1424
  578MOL0     C77911   5.199  10.317   9.176  0.2586  0.4740 -0.7210
  578MOL0     N77912   5.306  10.235   9.112 -0.5312  0.3042  0.5420
  578MOL0     C77913   5.337  10.099   9.127 -0.5149  0.1279 -0.0819
  578MOL0     C77914   5.452  10.092   9.054 -0.1918 -0.5580 -0.7750
  578MOL0     C77915   5.540   9.972   9.019  0.2127  0.7638  0.8630
  578MOL0     C77916   5.686   9.983   9.060 -0.4582  0.1248  0.1228
  578MOL0     C77917   5.781  10.073   8.972  0.1207  0.4053 -0.3781
  578MOL0     C77918   5.930  10.029   8.979  0.2672 -0.0094  0.0517
  578MOL0     O77919   5.942   9.892   8.939 -0.0892 -0.5680 -0.2355
  578MOL0     C77920   6.071   9.839   8.940  0.8580  0.3400 -0.7360
  578MOL0     C77921   6.187   9.907   8.961 -0.4586 -0.9440  0.1612
  578MOL0     C77922   6.311   9.843   8.959  0.3160  0.2126  0.1370
  578MOL0     C77923   6.328   9.708   8.926 -0.4140 -0.7677  0.2517
  578MOL0     C77924   6.469   9.658   8.918 -0.2720 -0.0362 -0.1547
  578MOL0     O77925   6.484   9.518   8.923 -0.2904  0.0259 -0.1495
  578MOL0     C77926   6.603   9.459   8.889  0.0517 -0.4415  0.4006
  578MOL0     C77927   6.728   9.500   8.935 -0.3216  0.3600 -0.3997
  578MOL0     C77928   6.846   9.436   8.885 -0.4631 -0.1692  0.1354
  578MOL0     C77929   6.845   9.331   8.794 -1.0520  0.3556 -0.8128
  578MOL0     O77930   6.963   9.280   8.731  0.0662  0.2640 -0.1554
  578MOL0     C77931   7.085   9.287   8.798  0.3165 -1.0590 -0.2721
  578MOL0     C77932   7.181   9.176   8.763  0.6549  0.5411  0.6316
  578MOL0     C77933   7.319   9.193   8.829  0.0171 -0.0326  0.7184
  578MOL0     C77934   7.415   9.298   8.757 -0.2852  0.3908 -0.4588
  578MOL0     C77935   7.426   9.422   8.845  0.2308  1.1197 -0.2619
  578MOL0     C77936   7.469   9.547   8.770 -0.8695  0.4092  0.3046
  578MOL0     C77937   7.611   9.537   8.711  0.0682  0.2953 -0.8988
  578MOL0     C77938   7.676   9.662   8.690  0.7846 -0.3378 -0.5947
  578MOL0    Cl77939   7.843   9.646   8.634 -0.4937  0.4449  0.1867
  578MOL0     C77940   6.720   9.285   8.757  0.1336  0.7720 -0.7478
  578MOL0     C77941   6.598   9.354   8.794  0.5032 -0.0235  0.6153
  578MOL0     O77942   6.562   9.740   8.924 -0.0764  1.2461  0.0575
  578MOL0     C77943   6.209   9.639   8.904  0.3842  0.3843  0.6419
  578MOL0     C77944   6.082   9.703   8.913 -0.2457  0.1475  0.2689
  578MOL0     N77945   5.477  10.218   9.000  0.1903 -0.5409 -0.5903
  578MOL0     N77946   5.390  10.297   9.026  0.0592  0.1565 -0.6609
  578MOL0     C77947   4.125   9.969   8.867 -0.2907 -0.6591  0.6228
  578MOL0     C77948   4.005   9.917   8.818  0.2245  0.3881 -0.2760
  578MOL0     C77949   3.700   9.649   8.643 -0.3574  0.0413 -0.1898
  578MOL0     C77950   3.623   9.763   8.640  0.0756 -1.0460 -0.2357
  578MOL0     C77951   3.488   9.762   8.614 -0.0989  0.5163  0.7175
  578MOL0     C77952   3.428   9.634   8.590  0.5972  0.8536 -0.0429
  578MOL0     O77953   3.289   9.632   8.578 -0.4285 -0.0043 -0.3577
  578MOL0     C77954   3.226   9.532   8.506  0.9119 -0.2512  0.1307
  578MOL0     C77955   3.071   9.555   8.504 -0.1427  0.4608 -0.7132
  578MOL0     C77956   3.030   9.653   8.390 -0.1335  0.6001  0.4690
  578MOL0     C77957   2.875   9.633   8.385  0.0988  0.1873  0.0747
  578MOL0     C77958   2.812   9.701   8.492  0.8339 -0.2577  0.3071
  578MOL0     C77959   2.780   9.770   8.587  1.0666 -0.6534 -0.1106
  578MOL0     C77960   3.505   9.514   8.594  0.2146 -1.2175 -0.2398
  578MOL0     C77961   3.638   9.521   8.619  0.4748  0.2584 -0.3708
  578MOL0     C77962   3.714   9.384   8.624  0.4402 -0.3503  0.5492
  578MOL0     H77963   4.130   9.744   8.550 -0.9982 -0.4181  0.9954
  578MOL0     H77964   4.334   9.838   8.640 -0.0252 -2.6090  0.7156
  578MOL0     H77965   4.530   9.946   8.750 -0.3604 -0.2162 -0.6300
  578MOL0     H77966   4.424  10.061   8.671  0.4396  1.4560 -0.1907
  578MOL0     H77967   4.508  10.235   8.808  1.0259  1.8606 -0.7139
  578MOL0     H77968   4.646  10.159   8.728  0.5488  3.9680  0.7362
  578MOL0     H77969   4.665  10.017   8.949  4.9758  0.1993 -0.1328
  578MOL0     H77970   4.590  10.166   9.008 -1.2358 -0.1937  0.0853
  578MOL0     H77971   4.853  10.137   8.842 -0.4330  1.6787 -0.1447
  578MOL0     H77972   4.775  10.291   8.886 -0.7937  0.9564  3.0661
  578MOL0     H77973   4.801  10.211   9.138  0.3531  2.4199 -1.4294
  578MOL0     H77974   4.875  10.068   9.082 -2.2256 -1.1489 -2.0583
  578MOL0     H77975   5.072  10.192   8.975  0.2003  0.0445 -0.9968
  578MOL0     H77976   4.991  10.339   9.013  2.4542 -0.0472 -1.9115
  578MOL0     H77977   5.097  10.145   9.219 -2.6439  0.1907 -0.7757
  578MOL0     H77978   5.023  10.295   9.272 -2.3006 -1.9128  0.5783
  578MOL0     H77979   5.186  10.412   9.124 -3.2830 -0.0900 -1.0798
  578MOL0     H77980   5.230  10.342   9.278  0.6350  2.8506 -1.3547
  578MOL0     H77981   5.292  10.011   9.173  3.3314 -2.4191 -0.7007
  578MOL0     H77982   5.500   9.876   9.053  0.9314  0.8127  1.8879
  578MOL0     H77983   5.539   9.955   8.911 -1.4816  0.1647  0.9373
  578MOL0     H77984   5.688  10.028   9.160 -0.7475  0.5159 -0.0453
  578MOL0     H77985   5.732   9.885   9.074 -1.3052 -0.2488  0.3508
  578MOL0     H77986   5.757  10.176   9.001 -5.7449 -1.6902  4.3034
  578MOL0     H77987   5.756  10.074   8.865  2.7288 -3.1526 -1.2099
  578MOL0     H77988   5.962  10.043   9.083  0.6792  0.0585 -0.0824
  578MOL0     H77989   5.977  10.088   8.899  0.4323  2.5841  1.9117
  578MOL0     H77990   6.183  10.006   9.005 -3.3230 -0.8565 -0.1177
  578MOL0     H77991   6.397   9.907   8.975  0.6574  0.2392 -1.5516
  578MOL0     H77992   6.747   9.585   9.000  0.3079 -0.0127 -0.0827
  578MOL0     H77993   6.935   9.488   8.919 -1.9273  1.8054  1.1412
  578MOL0     H77994   7.127   9.384   8.770 -0.5903 -1.2260 -2.3886
  578MOL0     H77995   7.071   9.284   8.907 -0.3391 -0.0996 -0.3219
  578MOL0     H77996   7.137   9.078   8.784  2.1849 -0.6764 -1.4451
  578MOL0     H77997   7.195   9.173   8.654  1.8219 -0.7249  0.7795
  578MOL0     H77998   7.301   9.210   8.936  0.4622 -1.2692  1.0000
  578MOL0     H77999   7.363   9.093   8.831  1.9322  0.7662  2.1287
  578MOL0     H78000   7.377   9.315   8.656 -1.4083 -2.8398 -0.7033
  578MOL0     H78001   7.515   9.253   8.751 -0.6838 -1.2878  2.9621
  578MOL0     H78002   7.487   9.410   8.935  0.0186  3.3175  0.2383
  578MOL0     H78003   7.323   9.449   8.868 -1.5090 -1.1902 -4.2279
  578MOL0     H78004   7.414   9.576   8.680  0.5751 -2.2728 -1.6142
  578MOL0     H78005   7.464   9.625   8.846 -2.9733  0.3866  0.2229
  578MOL0     H78006   7.601   9.488   8.613 -3.7872 -0.2084 -0.4348
  578MOL0     H78007   7.682   9.479   8.771 -3.3135 -0.6401  2.6207
  578MOL0     H78008   7.612   9.715   8.619  4.1732  1.9409 -2.2484
  578MOL0     H78009   7.668   9.728   8.777 -0.4208 -1.6151  0.3076
  578MOL0     H78010   6.720   9.201   8.688  1.2405  0.2745 -0.1686
  578MOL0     H78011   6.503   9.308   8.769  0.2862  0.5703  0.3485
  578MOL0     H78012   6.220   9.531   8.892  0.5815  0.6374 -2.0490
  578MOL0     H78013   5.993   9.644   8.890  0.6623 -1.3105  0.3414
  578MOL0     H78014   4.119  10.051   8.938 -2.3576  1.4891 -1.8394
  578MOL0     H78015   3.906   9.946   8.852  0.0903 -0.8495  0.4367
  578MOL0     H78016   3.674   9.858   8.654 -2.3249  0.5908 -1.6018
  578MOL0     H78017   3.430   9.853   8.617  0.7826  1.1308 -0.3904
  578MOL0     H78018   3.235   9.435   8.556 -2.2767  0.6396  2.8021
  578MOL0     H78019   3.266   9.528   8.404 -0.9852 -2.2402 -0.6201
  578MOL0     H78020   3.046   9.608   8.596 -0.1513  0.8552 -0.9411
  578MOL0     H78021   3.016   9.460   8.502 -2.9137  1.9290  0.3167
  578MOL0     H78022   3.066   9.614   8.295  1.5905  2.3297  0.3433
  578MOL0     H78023   3.063   9.755   8.411  1.3498  0.3853 -0.6717
  578MOL0     H78024   2.835   9.669   8.290  1.9417  2.5353  0.1052
  578MOL0     H78025   2.845   9.528   8.384 -1.8362  0.6855  0.2340
  578MOL0     H78026   2.751   9.839   8.663  2.8587  0.2606 -0.2076
  578MOL0     H78027   3.466   9.417   8.563  0.8548 -0.9224 -2.1188
  578MOL0     H78028   3.735   9.353   8.727 -1.8065 -1.5017  0.7388
  578MOL0     H78029   3.649   9.305   8.583 -2.9196  1.2797  2.2917
  578MOL0     H78030   3.799   9.391   8.556  0.5316 -0.8973  0.5993
  579MOL0     O78031   6.557   2.744   3.325 -0.2139  0.1839 -0.0265
  579MOL0     C78032   6.662   2.681   3.338 -0.1249 -0.3168  0.3014
  579MOL0     O78033   6.678   2.565   3.417 -0.0993  0.5652  0.9992
  579MOL0     C78034   6.578   2.528   3.505  0.0631  0.7273 -0.0051
  579MOL0     C78035   6.558   2.390   3.501  0.7676  1.2822 -0.4080
  579MOL0     C78036   6.473   2.335   3.597 -1.1546  0.3962 -0.5916
  579MOL0     C78037   6.413   2.410   3.701 -0.1851 -0.9000  0.4488
  579MOL0     O78038   6.333   2.341   3.786  0.1630  0.3717 -0.9405
  579MOL0     C78039   6.273   2.419   3.901  0.6717  0.3836 -0.3882
  579MOL0     C78040   6.151   2.509   3.866  0.6529 -0.6754  0.1558
  579MOL0     C78041   6.039   2.433   3.783  0.4462  0.1622  0.3869
  579MOL0     C78042   5.911   2.395   3.872 -0.4431 -0.5614 -0.3801
  579MOL0     C78043   5.804   2.324   3.793  0.3968 -0.3931 -0.2116
  579MOL0     C78044   5.841   2.192   3.728  0.7298 -0.5317 -0.2989
  579MOL0     C78045   5.845   2.074   3.825  1.8177 -1.0151  0.0832
  579MOL0     C78046   5.897   1.948   3.750  0.1850  0.1785 -0.2066
  579MOL0     N78047   6.044   1.949   3.717  0.0254  0.7565 -0.2693
  579MOL0     C78048   6.143   1.884   3.790  0.1003 -0.3461  0.7940
  579MOL0     C78049   6.259   1.928   3.735 -0.0851  0.1237  0.0594
  579MOL0     C78050   6.393   1.876   3.767 -0.6848  0.1824  1.3043
  579MOL0     C78051   6.440   1.770   3.653  0.3384 -0.3411  0.3414
  579MOL0     C78052   6.551   1.681   3.686 -0.8629  0.3148  0.0126
  579MOL0     C78053   6.685   1.745   3.675  0.0274  0.5441 -0.0024
  579MOL0     O78054   6.788   1.656   3.732  0.5702 -0.0190  0.2024
  579MOL0     C78055   6.916   1.700   3.718 -0.2416  0.8200  0.7760
  579MOL0     C78056   7.015   1.610   3.759 -0.9714 -0.1956  0.6383
  579MOL0     C78057   7.154   1.643   3.744 -0.2454 -1.2531 -0.6212
  579MOL0     C78058   7.193   1.776   3.703  0.6246 -0.4066  0.0665
  579MOL0     C78059   7.332   1.819   3.706  0.4465  0.3533 -0.1613
  579MOL0     O78060   7.352   1.953   3.705 -0.3037 -0.4161 -0.3380
  579MOL0     C78061   7.481   1.991   3.697  0.1719 -0.6919 -0.5364
  579MOL0     C78062   7.568   1.969   3.804 -0.6196 -0.0390  0.0334
  579MOL0     C78063   7.699   2.030   3.807  0.4103 -0.2001 -0.6300
  579MOL0     C78064   7.740   2.104   3.695 -0.2592 -0.8875  0.7015
  579MOL0     O78065   7.862   2.170   3.697 -0.2161 -0.7194 -0.5779
  579MOL0     C78066   7.859   2.297   3.770 -0.3509 -0.2551 -0.1270
  579MOL0     C78067   7.998   2.315   3.831  0.2582  0.3340 -0.4407
  579MOL0     C78068   8.061   2.187   3.904 -0.3538  0.3647  0.4006
  579MOL0     C78069   7.987   2.160   4.043 -0.1014 -0.2574  1.0033
  579MOL0     C78070   8.048   2.026   4.098 -0.4257 -0.1053 -0.4898
  579MOL0     C78071   8.028   2.024   4.245 -0.0525 -0.3427  0.7017
  579MOL0     C78072   8.093   1.888   4.294  0.0440 -0.1490 -0.1174
  579MOL0     C78073   8.000   1.764   4.302 -0.5476  0.1299  0.4762
  579MOL0    Cl78074   7.882   1.773   4.433 -0.1334 -0.5956 -0.2488
  579MOL0     C78075   7.655   2.117   3.586 -0.1031  0.3558  0.4277
  579MOL0     C78076   7.525   2.067   3.586  0.1135 -0.0115  0.1791
  579MOL0     O78077   7.424   1.737   3.712 -0.0521  0.2199 -0.0417
  579MOL0     C78078   7.083   1.874   3.680 -0.1361 -0.1776 -0.9872
  579MOL0     C78079   6.947   1.831   3.685 -0.3130  0.0109 -0.0404
  579MOL0     N78080   6.233   2.009   3.622  0.2121 -0.2469 -0.0867
  579MOL0     N78081   6.107   2.010   3.614 -0.1911 -0.3329 -0.2082
  579MOL0     C78082   6.433   2.548   3.693  0.2576  0.3427 -0.2186
  579MOL0     C78083   6.521   2.607   3.602  1.2366 -1.1466 -0.9633
  579MOL0     C78084   6.788   2.749   3.282 -0.3228  0.3315  0.1828
  579MOL0     C78085   6.904   2.671   3.264 -0.1879  0.8167 -0.3447
  579MOL0     C78086   7.020   2.717   3.208  0.0824  0.3751  0.3967
  579MOL0     C78087   7.031   2.847   3.166 -0.4050  0.0950  0.3919
  579MOL0     O78088   7.151   2.875   3.112 -0.1278  0.3456  0.2284
  579MOL0     C78089   7.183   3.010   3.078 -0.3471  0.1487 -0.0022
  579MOL0     C78090   7.122   3.057   2.945  0.3179 -0.5293  0.5211
  579MOL0     C78091   7.218   3.065   2.828 -0.1856  0.3585 -0.7683
  579MOL0     C78092   7.344   3.164   2.837  1.0477 -0.5866 -0.2411
  579MOL0     C78093   7.412   3.180   2.710  0.2290  0.4440  0.1059
  579MOL0     C78094   7.466   3.186   2.599 -1.0096  0.1212 -0.5589
  579MOL0     C78095   6.924   2.928   3.181  0.2847  0.6193 -0.0045
  579MOL0     C78096   6.798   2.885   3.231  0.1291 -0.8610  0.5039
  579MOL0     C78097   6.682   2.982   3.249 -0.2060  0.2821 -0.0540
  579MOL0     H78098   6.612   2.330   3.429  0.0739 -2.3833  1.8844
  579MOL0     H78099   6.462   2.227   3.597 -0.3487  0.2494  2.0979
  579MOL0     H78100   6.240   2.343   3.973  2.7412 -0.9596 -0.7388
  579MOL0     H78101   6.348   2.482   3.949 -0.6979  1.1351  0.8292
  579MOL0     H78102   6.196   2.589   3.806  0.8814 -2.1949 -1.7805
  579MOL0     H78103   6.116   2.546   3.963 -0.5880  0.4299 -0.6806
  579MOL0     H78104   6.094   2.350   3.739  1.4810  0.1754  1.6164
  579MOL0     H78105   6.007   2.492   3.697  0.3155  2.1296  1.7131
  579MOL0     H78106   5.959   2.335   3.949 -0.0273  1.9361  1.4232
  579MOL0     H78107   5.870   2.481   3.926 -1.9591 -1.9373  0.7706
  579MOL0     H78108   5.718   2.318   3.859  0.0569  0.0169 -0.6127
  579MOL0     H78109   5.777   2.393   3.713  2.1037 -0.2671 -0.7273
  579MOL0     H78110   5.768   2.176   3.648 -1.8919  3.2829  1.0567
  579MOL0     H78111   5.934   2.200   3.670 -0.9998  1.4521 -3.0154
  579MOL0     H78112   5.746   2.054   3.865  2.6027  0.6911  3.2580
  579MOL0     H78113   5.907   2.092   3.913 -0.1090 -0.5759  1.4169
  579MOL0     H78114   5.880   1.864   3.817  2.5452  2.3516  3.5245
  579MOL0     H78115   5.834   1.926   3.664 -1.5585 -0.4372  1.1900
  579MOL0     H78116   6.132   1.809   3.868 -0.2009 -2.7492 -1.4119
  579MOL0     H78117   6.469   1.953   3.755  0.0438 -0.8539 -1.8154
  579MOL0     H78118   6.396   1.835   3.868 -3.8548  2.1094  2.3153
  579MOL0     H78119   6.356   1.706   3.624 -0.4022  1.1455 -0.9533
  579MOL0     H78120   6.473   1.838   3.574  0.6065 -0.8486  0.0174
  579MOL0     H78121   6.540   1.601   3.612 -1.0656  2.3252 -2.2421
  579MOL0     H78122   6.548   1.640   3.787 -1.0957 -0.3914 -0.2732
  579MOL0     H78123   6.681   1.840   3.730 -1.3784  1.8600 -2.1887
  579MOL0     H78124   6.716   1.778   3.575  0.1873  0.3504 -0.0161
  579MOL0     H78125   6.984   1.509   3.786  2.2160 -0.3899  4.4676
  579MOL0     H78126   7.235   1.578   3.776 -0.1789 -0.7011  0.3420
  579MOL0     H78127   7.532   1.922   3.895  0.5292  0.9437  1.0260
  579MOL0     H78128   7.762   2.019   3.895  1.6087 -2.9373 -1.7106
  579MOL0     H78129   7.826   2.383   3.711 -3.8005 -1.1360  0.2680
  579MOL0     H78130   7.788   2.296   3.853 -0.6722  0.9961 -0.3652
  579MOL0     H78131   8.071   2.370   3.771  0.6720  0.0681 -0.1777
  579MOL0     H78132   7.979   2.388   3.910  1.0903 -0.0691  0.1313
  579MOL0     H78133   8.052   2.096   3.844  2.4568 -1.2703  2.1871
  579MOL0     H78134   8.168   2.208   3.916 -0.0277 -0.3677 -1.0203
  579MOL0     H78135   7.879   2.159   4.027  0.1767 -0.6082 -1.1869
  579MOL0     H78136   8.013   2.245   4.108 -2.7884  0.9043  0.6615
  579MOL0     H78137   8.149   2.022   4.056 -1.1747  0.1741 -2.4295
  579MOL0     H78138   7.999   1.940   4.051 -0.6306  0.2880 -1.0028
  579MOL0     H78139   8.079   2.114   4.279 -0.1863 -0.8563  2.3264
  579MOL0     H78140   7.923   2.032   4.274  0.2191  2.0947  1.2382
  579MOL0     H78141   8.134   1.913   4.392  2.1930  2.1331 -1.4686
  579MOL0     H78142   8.175   1.848   4.234 -1.4074 -2.4110 -0.7293
  579MOL0     H78143   7.950   1.753   4.206 -1.2706  1.7760  0.6266
  579MOL0     H78144   8.062   1.674   4.308 -2.1260 -0.9246  1.6551
  579MOL0     H78145   7.685   2.164   3.492  0.6614  1.4417  1.1828
  579MOL0     H78146   7.462   2.068   3.498  1.5758  1.0980 -0.9187
  579MOL0     H78147   7.114   1.974   3.653  2.5744 -0.4659  0.6614
  579MOL0     H78148   6.870   1.905   3.667  2.1931  2.2060 -2.8364
  579MOL0     H78149   6.375   2.612   3.757 -0.5741 -2.3734  1.9284
  579MOL0     H78150   6.539   2.714   3.606  1.3302 -1.1310 -1.7294
  579MOL0     H78151   6.900   2.565   3.284  0.6284  0.2971 -2.7270
  579MOL0     H78152   7.103   2.648   3.195 -1.2428 -1.4247  1.0524
  579MOL0     H78153   7.292   3.010   3.075 -0.2192 -3.2193 -3.5741
  579MOL0     H78154   7.153   3.084   3.152  1.0552  1.1108 -0.3680
  579MOL0     H78155   7.077   3.156   2.956 -0.6928 -0.6040 -2.2696
  579MOL0     H78156   7.046   2.989   2.906  2.5102 -1.6876 -2.0149
  579MOL0     H78157   7.159   3.100   2.744  0.9933  0.3346 -1.6336
  579MOL0     H78158   7.259   2.966   2.806 -1.7699 -0.3276 -0.7029
  579MOL0     H78159   7.314   3.263   2.872  2.0551 -0.5779  0.6596
  579MOL0     H78160   7.408   3.128   2.918  0.7852  1.7466  1.0858
  579MOL0     H78161   7.522   3.197   2.508  0.5378  2.6550  0.6050
  579MOL0     H78162   6.922   3.027   3.137  2.0013  0.7709  0.1655
  579MOL0     H78163   6.588   2.953   3.201  0.4538  1.8901 -2.5295
  579MOL0     H78164   6.664   3.001   3.355  2.7440  0.9897  0.4017
  579MOL0     H78165   6.709   3.083   3.216  3.8003 -0.4205  0.5647
  580MOL0     O78166   2.771   4.755   1.721 -0.4805 -0.0724  0.4343
  580MOL0     C78167   2.851   4.817   1.649 -0.6835  0.5223 -0.8258
  580MOL0     O78168   2.823   4.888   1.542  0.3195  0.0568  0.2237
  580MOL0     C78169   2.693   4.890   1.498  1.3383 -1.7117 -0.5950
  580MOL0     C78170   2.616   4.783   1.450  1.0364  0.5608  0.2014
  580MOL0     C78171   2.482   4.793   1.402 -0.9958 -0.2798  0.0250
  580MOL0     C78172   2.431   4.927   1.390  0.1877 -0.4182 -0.3853
  580MOL0     O78173   2.315   4.947   1.324  0.5848  0.1603  0.0698
  580MOL0     C78174   2.223   5.042   1.377 -0.1715 -0.2834 -0.5438
  580MOL0     C78175   2.090   5.040   1.298 -0.1739  0.5649  0.0057
  580MOL0     C78176   2.013   4.900   1.309 -0.2111  0.7587 -0.0297
  580MOL0     C78177   1.884   4.902   1.230  0.1571  0.0967  0.6917
  580MOL0     C78178   1.824   4.763   1.232 -0.4900 -0.1431  0.0680
  580MOL0     C78179   1.692   4.764   1.157 -0.2121 -0.0461 -0.3885
  580MOL0     C78180   1.628   4.628   1.178  0.2960 -1.1897  0.3344
  580MOL0     C78181   1.489   4.610   1.108  0.0772  0.1528 -0.0355
  580MOL0     N78182   1.430   4.478   1.130  0.1993 -0.4173  1.0072
  580MOL0     C78183   1.478   4.360   1.072 -0.2329 -0.2979 -0.0743
  580MOL0     C78184   1.408   4.264   1.131 -0.5662  0.3361 -0.0950
  580MOL0     C78185   1.430   4.122   1.102  0.6717  1.1465  0.2640
  580MOL0     C78186   1.546   4.064   1.189 -0.8233 -0.1529  0.4774
  580MOL0     C78187   1.580   3.926   1.160 -0.0107  0.0764  0.8680
  580MOL0     C78188   1.635   3.911   1.010  0.6437 -0.7581 -0.6945
  580MOL0     O78189   1.772   3.864   1.015  0.7594 -0.0077  0.2006
  580MOL0     C78190   1.873   3.951   1.040 -0.3261 -0.5474  0.7290
  580MOL0     C78191   1.869   4.091   1.033 -0.2839  0.1216 -0.0867
  580MOL0     C78192   1.962   4.178   1.090 -0.5849  0.0052 -0.0746
  580MOL0     C78193   2.073   4.121   1.153  0.2440 -0.6071 -0.1434
  580MOL0     C78194   2.173   4.218   1.202  0.3171  0.1751 -0.4607
  580MOL0     O78195   2.296   4.166   1.224 -0.0100 -0.1704 -0.4080
  580MOL0     C78196   2.396   4.249   1.281  0.5755 -0.0732 -0.1016
  580MOL0     C78197   2.428   4.377   1.240  0.3436 -0.6978  0.7958
  580MOL0     C78198   2.550   4.443   1.283  0.2869 -0.2751 -1.1974
  580MOL0     C78199   2.637   4.378   1.370 -0.4171 -0.2273 -0.3755
  580MOL0     O78200   2.763   4.431   1.382 -0.7182  0.7564 -0.3422
  580MOL0     C78201   2.836   4.421   1.507  0.2807 -0.2241 -1.0738
  580MOL0     C78202   2.973   4.489   1.502 -0.2242 -0.1961  0.2280
  580MOL0     C78203   3.077   4.399   1.440  0.1839  0.1189  0.1406
  580MOL0     C78204   3.209   4.481   1.430 -0.5474  0.4379 -0.2517
  580MOL0     C78205   3.313   4.377   1.376 -0.6564  0.1820 -0.0663
  580MOL0     C78206   3.457   4.425   1.386  0.1634  0.5217  0.0111
  580MOL0     C78207   3.488   4.481   1.524 -0.3937 -1.2564 -0.7497
  580MOL0     C78208   3.628   4.526   1.514  0.1431  0.0678  0.5927
  580MOL0    Cl78209   3.648   4.661   1.404 -0.1678  0.0595 -0.0245
  580MOL0     C78210   2.597   4.253   1.418  0.3556  0.7326 -0.2260
  580MOL0     C78211   2.480   4.186   1.379 -0.1101 -0.7491  0.3035
  580MOL0     O78212   2.134   4.328   1.237 -0.0692  0.0329  0.1102
  580MOL0     C78213   2.088   3.979   1.160 -0.0445  0.2843  0.1899
  580MOL0     C78214   1.989   3.904   1.099  0.3163  0.3678  0.8113
  580MOL0     N78215   1.314   4.321   1.221  0.3451 -0.5575  1.0048
  580MOL0     N78216   1.332   4.454   1.217 -0.3234  0.1632 -0.1811
  580MOL0     C78217   2.511   5.034   1.429 -0.7873 -0.0072  0.2079
  580MOL0     C78218   2.632   5.013   1.492 -0.8714  0.7275  0.2902
  580MOL0     C78219   2.993   4.815   1.694  1.4784 -0.6120 -0.7252
  580MOL0     C78220   3.023   4.788   1.834 -0.0494 -0.0296 -0.2977
  580MOL0     C78221   3.152   4.774   1.877  0.3565 -0.6898  0.0566
  580MOL0     C78222   3.256   4.783   1.779  0.7189 -0.2213  0.1846
  580MOL0     O78223   3.390   4.779   1.823  0.0197 -0.8141  0.2859
  580MOL0     C78224   3.432   4.763   1.960 -1.0029  0.5483 -0.1868
  580MOL0     C78225   3.584   4.736   1.953  0.4805  0.5847 -0.6899
  580MOL0     C78226   3.622   4.588   1.941 -0.6579  0.1294 -0.0528
  580MOL0     C78227   3.768   4.577   1.922  0.3746  0.8311  0.3497
  580MOL0     C78228   3.851   4.611   2.033 -0.9900 -0.0077 -0.2623
  580MOL0     C78229   3.912   4.630   2.138  1.0987  0.3720  0.3708
  580MOL0     C78230   3.226   4.822   1.648 -0.6186  0.3667  0.1578
  580MOL0     C78231   3.098   4.848   1.604 -0.9439  0.4058  0.1383
  580MOL0     C78232   3.090   4.898   1.460  0.3113  0.3545 -0.1379
  580MOL0     H78233   2.666   4.687   1.459  2.5392  1.4455  2.4166
  580MOL0     H78234   2.422   4.705   1.381  0.7278 -1.5537  0.2164
  580MOL0     H78235   2.201   5.023   1.482 -0.6044 -2.9980 -1.0559
  580MOL0     H78236   2.262   5.144   1.366  1.5340 -0.7221  0.9179
  580MOL0     H78237   2.104   5.054   1.190  0.0225 -0.1922 -0.0742
  580MOL0     H78238   2.022   5.114   1.340 -1.8465 -0.8944 -0.0098
  580MOL0     H78239   1.991   4.868   1.412 -3.4180 -3.5847 -1.7666
  580MOL0     H78240   2.071   4.818   1.265 -0.4133  2.2544 -3.3314
  580MOL0     H78241   1.814   4.980   1.263  0.7372  2.0297 -2.2876
  580MOL0     H78242   1.901   4.925   1.125 -2.8939 -0.6889 -0.0945
  580MOL0     H78243   1.896   4.693   1.189 -0.3342  0.6395 -0.9883
  580MOL0     H78244   1.804   4.731   1.335  0.9797  1.7098  1.0134
  580MOL0     H78245   1.635   4.840   1.212  0.6303 -0.3372  0.9513
  580MOL0     H78246   1.701   4.776   1.049  0.5016 -2.4702 -0.6520
  580MOL0     H78247   1.615   4.612   1.285 -0.6196 -3.5029 -0.0649
  580MOL0     H78248   1.685   4.550   1.128 -1.3676 -0.5867 -2.7432
  580MOL0     H78249   1.416   4.681   1.147 -1.4681 -0.9034 -0.9322
  580MOL0     H78250   1.503   4.616   1.000 -2.2299 -1.5116 -0.5088
  580MOL0     H78251   1.563   4.340   1.007 -0.2543 -3.0469  0.6266
  580MOL0     H78252   1.333   4.077   1.127 -0.1795  2.8983  0.3109
  580MOL0     H78253   1.443   4.109   0.995 -0.9340 -0.9588  0.2621
  580MOL0     H78254   1.632   4.128   1.168 -1.4224  0.2435 -0.9120
  580MOL0     H78255   1.519   4.076   1.295 -1.0788 -0.9071  0.5032
  580MOL0     H78256   1.492   3.862   1.173 -0.0998  0.4025  2.0382
  580MOL0     H78257   1.656   3.886   1.228 -0.0993 -0.5464  0.6008
  580MOL0     H78258   1.629   3.999   0.944 -1.5361 -1.2359 -1.2150
  580MOL0     H78259   1.575   3.838   0.955 -0.9444  1.2909 -1.8510
  580MOL0     H78260   1.781   4.135   0.987 -1.3614 -3.2948 -1.5660
  580MOL0     H78261   1.945   4.283   1.067  1.0973  0.0819 -1.1142
  580MOL0     H78262   2.379   4.409   1.149 -2.9441 -0.4284  2.4991
  580MOL0     H78263   2.575   4.539   1.240  0.3374  0.3267  0.1334
  580MOL0     H78264   2.774   4.473   1.580  1.1085  0.2610 -0.7043
  580MOL0     H78265   2.850   4.316   1.537  1.0173 -0.2831 -1.6091
  580MOL0     H78266   2.956   4.587   1.457 -1.6256 -0.5095  0.0480
  580MOL0     H78267   2.999   4.494   1.608 -3.0413 -1.3562  1.0662
  580MOL0     H78268   3.071   4.307   1.498 -2.6369 -1.1200 -1.8578
  580MOL0     H78269   3.053   4.372   1.336 -0.7373 -1.4876  0.7417
  580MOL0     H78270   3.236   4.515   1.530 -2.9093  1.7792  0.0073
  580MOL0     H78271   3.192   4.575   1.375 -1.6724 -0.2556 -1.1266
  580MOL0     H78272   3.308   4.363   1.268 -2.2773  1.9753 -0.2616
  580MOL0     H78273   3.315   4.281   1.430  1.8845 -0.1441 -0.6090
  580MOL0     H78274   3.517   4.338   1.356 -2.5409 -0.6536 -2.5022
  580MOL0     H78275   3.473   4.500   1.308  1.9581 -0.5473 -0.7153
  580MOL0     H78276   3.467   4.415   1.608 -0.9400 -1.6374 -1.1778
  580MOL0     H78277   3.426   4.565   1.557 -0.0006 -1.7419  1.3212
  580MOL0     H78278   3.656   4.565   1.613 -0.4029  0.1030  0.7350
  580MOL0     H78279   3.701   4.449   1.488  0.9461  0.6095  1.1771
  580MOL0     H78280   2.670   4.190   1.467  1.4101  2.0240 -0.0862
  580MOL0     H78281   2.447   4.087   1.409 -3.1694  0.1695  0.2746
  580MOL0     H78282   2.175   3.933   1.206 -0.8595 -2.0995 -0.4691
  580MOL0     H78283   2.000   3.795   1.100 -2.5534  0.0078  2.0640
  580MOL0     H78284   2.491   5.139   1.410  2.7966  0.2871 -3.1743
  580MOL0     H78285   2.687   5.100   1.525 -2.7476  2.0010  0.2155
  580MOL0     H78286   2.941   4.773   1.904  0.4409  0.1954  0.3318
  580MOL0     H78287   3.167   4.747   1.981 -1.9033 -2.0818  0.0725
  580MOL0     H78288   3.375   4.686   2.012  0.4997 -0.7032 -0.3055
  580MOL0     H78289   3.429   4.856   2.018  2.7886 -0.5001  2.0119
  580MOL0     H78290   3.630   4.783   2.041  0.3794  0.6508 -0.6712
  580MOL0     H78291   3.628   4.785   1.866 -0.0937 -1.0267 -1.9487
  580MOL0     H78292   3.567   4.544   1.858  1.2509 -0.5206 -1.0322
  580MOL0     H78293   3.599   4.525   2.028  2.6287 -1.1998 -0.0165
  580MOL0     H78294   3.787   4.469   1.915 -0.4926  0.6761  0.3325
  580MOL0     H78295   3.800   4.622   1.828 -0.4548 -1.7382 -1.2681
  580MOL0     H78296   3.937   4.666   2.235 -0.8042 -0.1393  1.0977
  580MOL0     H78297   3.309   4.855   1.586  1.6885 -2.0961  1.6872
  580MOL0     H78298   3.042   4.822   1.398 -0.9470 -0.6789  1.9996
  580MOL0     H78299   3.028   4.988   1.465 -0.1791  0.1690 -1.9469
  580MOL0     H78300   3.181   4.919   1.403  0.5845  0.4168  0.3167
  581MOL0     O78301   7.134   8.682   0.585 -0.5336  0.2201 -0.5174
  581MOL0     C78302   7.169   8.591   0.503 -0.1733 -0.2861 -0.7285
  581MOL0     O78303   7.089   8.541   0.406 -0.0123 -0.6235  0.5809
  581MOL0     C78304   6.971   8.608   0.391 -0.0748  0.5049 -0.0166
  581MOL0     C78305   6.962   8.716   0.309  0.0731 -0.4905  0.5819
  581MOL0     C78306   6.843   8.790   0.289  0.0294  0.6124 -1.3283
  581MOL0     C78307   6.719   8.750   0.351 -0.1451 -0.0131 -0.1602
  581MOL0     O78308   6.622   8.836   0.335  0.1812  0.4033 -0.5528
  581MOL0     C78309   6.489   8.810   0.381  0.0788  1.3006 -0.5358
  581MOL0     C78310   6.406   8.913   0.301  0.1712 -0.6400 -0.2319
  581MOL0     C78311   6.266   8.952   0.361  0.4408  0.1648  0.5813
  581MOL0     C78312   6.299   9.048   0.471 -0.5886 -0.1643 -0.0058
  581MOL0     C78313   6.160   9.094   0.531 -0.3900  0.0185 -0.5171
  581MOL0     C78314   6.163   9.202   0.648  0.4641  0.5899  0.4514
  581MOL0     C78315   6.259   9.314   0.611 -0.3219  0.0127  0.0398
  581MOL0     C78316   6.260   9.408   0.729  0.1579  0.2189 -0.4789
  581MOL0     N78317   6.371   9.502   0.710 -0.1033 -0.1894 -0.1809
  581MOL0     C78318   6.490   9.487   0.769 -0.5940 -0.6037 -0.9396
  581MOL0     C78319   6.563   9.600   0.730 -0.3207  0.8518 -0.7216
  581MOL0     C78320   6.707   9.629   0.772  0.9558  0.7863 -0.8221
  581MOL0     C78321   6.806   9.565   0.672 -0.1545  0.2062 -0.8778
  581MOL0     C78322   6.939   9.649   0.679  0.4347  0.0567 -0.4318
  581MOL0     C78323   7.000   9.649   0.828 -0.5219  0.0236 -0.5069
  581MOL0     O78324   7.124   9.721   0.814 -0.7275  0.0919 -0.2485
  581MOL0     C78325   7.208   9.719   0.928  0.6524 -0.4601  0.3250
  581MOL0     C78326   7.183   9.686   1.059  0.4485  0.6437 -0.6153
  581MOL0     C78327   7.289   9.675   1.154  0.1164  0.4275  0.0721
  581MOL0     C78328   7.418   9.719   1.125  0.5580  0.1407  0.2638
  581MOL0     C78329   7.522   9.711   1.231 -0.5604  0.0345 -0.0550
  581MOL0     O78330   7.498   9.630   1.343  0.0331 -0.2555  0.2583
  581MOL0     C78331   7.584   9.622   1.449  0.6859  0.2376 -0.0321
  581MOL0     C78332   7.541   9.653   1.576  0.9449 -0.0012 -0.1324
  581MOL0     C78333   7.624   9.630   1.690 -0.1666 -0.4575 -0.1259
  581MOL0     C78334   7.749   9.581   1.669  0.3784 -0.0901  0.3395
  581MOL0     O78335   7.845   9.556   1.766  0.4990 -0.3321 -0.3142
  581MOL0     C78336   7.861   9.663   1.861  0.8187 -0.9643  0.2269
  581MOL0     C78337   7.975   9.638   1.952  0.0376  0.5055  0.5110
  581MOL0     C78338   8.108   9.617   1.878 -0.0971 -1.2529 -0.1219
  581MOL0     C78339   8.180   9.506   1.952 -0.2920 -0.1639 -0.6230
  581MOL0     C78340   8.311   9.489   1.891  0.2243  0.2303 -0.0582
  581MOL0     C78341   8.405   9.397   1.970  0.8050  0.0431  0.6252
  581MOL0     C78342   8.537   9.360   1.901  0.1774 -0.5132 -0.5356
  581MOL0     C78343   8.626   9.269   1.991 -0.1946 -0.4697  0.0143
  581MOL0    Cl78344   8.782   9.232   1.901  0.0682  0.5121  0.2960
  581MOL0     C78345   7.784   9.537   1.543  0.9859 -0.8169  0.3836
  581MOL0     C78346   7.704   9.560   1.430  0.0862 -0.0756 -0.1391
  581MOL0     O78347   7.626   9.773   1.210 -0.0958  0.3761  0.1050
  581MOL0     C78348   7.438   9.761   0.990 -0.3660 -1.1158  0.3202
  581MOL0     C78349   7.339   9.760   0.893  0.0409 -0.4013 -0.0507
  581MOL0     N78350   6.482   9.680   0.645  0.6936  0.2951 -0.1040
  581MOL0     N78351   6.369   9.617   0.628  0.2435 -0.6487 -0.1878
  581MOL0     C78352   6.729   8.633   0.430  0.3085 -0.6924  0.1343
  581MOL0     C78353   6.852   8.564   0.451  0.6346 -0.0111  0.4946
  581MOL0     C78354   7.310   8.531   0.513  0.4812  0.1178  0.3397
  581MOL0     C78355   7.344   8.435   0.417 -0.5662 -0.3505  0.2125
  581MOL0     C78356   7.470   8.386   0.407  0.5808  0.0013  0.3090
  581MOL0     C78357   7.567   8.408   0.500 -0.9791 -0.4238 -0.2595
  581MOL0     O78358   7.699   8.365   0.511  0.1007 -0.4139  0.5650
  581MOL0     C78359   7.738   8.264   0.415  1.3535 -0.1656 -0.2981
  581MOL0     C78360   7.892   8.254   0.402  0.9038  0.1737  0.1518
  581MOL0     C78361   7.973   8.222   0.525 -0.2419  0.8161  1.0722
  581MOL0     C78362   8.124   8.233   0.489  0.3926 -0.4543  0.4440
  581MOL0     C78363   8.204   8.165   0.583 -1.0697  0.4196 -0.2500
  581MOL0     C78364   8.260   8.076   0.639 -0.3991  1.5053 -0.0511
  581MOL0     C78365   7.529   8.494   0.603  0.1411 -0.8041 -0.6275
  581MOL0     C78366   7.409   8.561   0.611 -0.5835 -0.2990  0.4393
  581MOL0     C78367   7.397   8.658   0.726  0.0225  0.7542  0.4011
  581MOL0     H78368   7.059   8.734   0.263  0.0833 -2.4833 -0.2856
  581MOL0     H78369   6.833   8.868   0.214 -0.3566  0.2783 -1.6298
  581MOL0     H78370   6.453   8.714   0.342 -3.7103  1.7593  1.4097
  581MOL0     H78371   6.478   8.802   0.489  2.7073 -2.2948 -0.3372
  581MOL0     H78372   6.384   8.871   0.202 -0.7943 -0.9037  0.0847
  581MOL0     H78373   6.459   9.009   0.298 -3.7401  1.7058 -0.8275
  581MOL0     H78374   6.219   8.869   0.414  0.5667  1.4601  2.8576
  581MOL0     H78375   6.204   8.993   0.280  1.2901  2.0617  0.8318
  581MOL0     H78376   6.369   9.008   0.545 -0.7930 -0.3123  0.1080
  581MOL0     H78377   6.346   9.141   0.436 -1.4023  1.3194  2.6103
  581MOL0     H78378   6.103   9.122   0.443 -0.0794  2.8216  0.0860
  581MOL0     H78379   6.107   9.006   0.569  0.1717 -1.1649 -2.3175
  581MOL0     H78380   6.060   9.235   0.665 -0.4423 -2.6192  2.0853
  581MOL0     H78381   6.203   9.141   0.730  0.7232  1.6412  1.1299
  581MOL0     H78382   6.214   9.364   0.525 -1.0920 -1.1911 -0.2958
  581MOL0     H78383   6.352   9.264   0.583 -0.7484 -2.1695  2.1477
  581MOL0     H78384   6.161   9.451   0.745 -0.6792 -1.7682  0.0132
  581MOL0     H78385   6.281   9.360   0.825 -0.5374  0.4690 -0.1918
  581MOL0     H78386   6.519   9.405   0.834  0.6899  0.0078 -0.7095
  581MOL0     H78387   6.731   9.735   0.782  1.9522  0.6324 -1.4457
  581MOL0     H78388   6.720   9.595   0.875 -0.6502  1.1198 -0.4790
  581MOL0     H78389   6.826   9.458   0.684 -1.0998  0.2409  1.4914
  581MOL0     H78390   6.773   9.572   0.568  1.7107 -3.7482 -1.9131
  581MOL0     H78391   6.936   9.754   0.648  0.2921 -0.3989 -2.0477
  581MOL0     H78392   7.012   9.607   0.610  0.8450 -0.0479  0.0608
  581MOL0     H78393   7.022   9.544   0.847  2.5290  0.5547 -0.6158
  581MOL0     H78394   6.951   9.700   0.912 -1.2498 -1.5738  0.0893
  581MOL0     H78395   7.080   9.671   1.093  1.7446 -1.6754  2.8926
  581MOL0     H78396   7.258   9.654   1.256 -0.3925  1.6334  0.1812
  581MOL0     H78397   7.443   9.697   1.594  0.1748 -1.1827 -1.2364
  581MOL0     H78398   7.585   9.658   1.787 -3.1709  1.1532 -1.6798
  581MOL0     H78399   7.879   9.762   1.817 -1.2889  0.1462  1.6610
  581MOL0     H78400   7.769   9.658   1.921 -0.1724  0.6542 -1.0556
  581MOL0     H78401   7.974   9.716   2.028 -2.4726 -0.5292  1.6444
  581MOL0     H78402   7.960   9.546   2.009 -0.2800  0.6017  0.5872
  581MOL0     H78403   8.097   9.600   1.770 -0.8613  1.3297 -0.5407
  581MOL0     H78404   8.162   9.711   1.893 -0.1985 -1.3894  1.1966
  581MOL0     H78405   8.123   9.414   1.935 -0.7914  0.1056 -0.4365
  581MOL0     H78406   8.196   9.527   2.059 -0.4888 -1.8503 -0.2277
  581MOL0     H78407   8.348   9.592   1.880  1.5459 -0.0986  1.0775
  581MOL0     H78408   8.292   9.463   1.786  1.1212  2.0298 -0.7116
  581MOL0     H78409   8.423   9.448   2.065  0.8556 -1.6267  1.5516
  581MOL0     H78410   8.353   9.303   1.992 -0.3636  0.4482 -0.2708
  581MOL0     H78411   8.602   9.447   1.897 -0.2932  0.0848  2.5037
  581MOL0     H78412   8.528   9.297   1.812  0.9425 -2.4481  0.6828
  581MOL0     H78413   8.657   9.320   2.083 -0.6173 -2.2136  1.1735
  581MOL0     H78414   8.578   9.177   2.024  3.8031 -3.0114 -0.5882
  581MOL0     H78415   7.878   9.484   1.533  0.7008 -1.5508  1.4114
  581MOL0     H78416   7.731   9.515   1.335 -1.3729 -2.8597  0.6470
  581MOL0     H78417   7.539   9.793   0.965 -0.0711 -0.7471  1.8740
  581MOL0     H78418   7.355   9.787   0.789  0.8098 -0.2767  0.0958
  581MOL0     H78419   6.639   8.612   0.487  0.0186  1.0343  0.3821
  581MOL0     H78420   6.857   8.482   0.521  0.7470 -0.3737  0.0684
  581MOL0     H78421   7.275   8.405   0.338 -0.3488  0.3381 -0.2528
  581MOL0     H78422   7.492   8.317   0.326 -0.5905 -0.4019  0.3280
  581MOL0     H78423   7.694   8.282   0.317 -1.0402 -1.5326  0.4652
  581MOL0     H78424   7.696   8.167   0.442 -4.5061  2.4602  1.7315
  581MOL0     H78425   7.925   8.348   0.358  1.6188 -0.0477  0.1974
  581MOL0     H78426   7.912   8.170   0.335 -3.2038  1.8754 -3.7089
  581MOL0     H78427   7.941   8.120   0.551  1.6268 -0.0614  0.0851
  581MOL0     H78428   7.952   8.285   0.612 -1.6051  1.8057  0.0822
  581MOL0     H78429   8.151   8.201   0.388 -2.0876 -0.5395 -0.2566
  581MOL0     H78430   8.144   8.340   0.481 -3.1911  0.3472  0.8734
  581MOL0     H78431   8.312   7.989   0.675  1.0395  1.4514 -2.1250
  581MOL0     H78432   7.597   8.514   0.686 -1.5126 -0.1419  0.6120
  581MOL0     H78433   7.494   8.660   0.777  0.5167  1.8824 -0.5295
  581MOL0     H78434   7.392   8.762   0.691 -0.2353 -0.1517 -2.5614
  581MOL0     H78435   7.311   8.631   0.788  0.2528 -2.3662 -0.4775
  582MOL0     O78436   1.758   4.060   3.776  0.3952  0.1895  0.0698
  582MOL0     C78437   1.693   4.040   3.677  0.8616 -0.3231 -0.5453
  582MOL0     O78438   1.725   3.957   3.573 -0.6965 -0.8376  0.2692
  582MOL0     C78439   1.849   3.899   3.573  0.6173 -1.0935 -0.8420
  582MOL0     C78440   1.868   3.788   3.656  0.3360 -0.8581  0.7514
  582MOL0     C78441   1.996   3.735   3.663  0.4391  0.4899  0.4003
  582MOL0     C78442   2.099   3.786   3.581  0.1863  0.4905 -0.1573
  582MOL0     O78443   2.222   3.719   3.586  0.0703  0.3959  0.5971
  582MOL0     C78444   2.317   3.769   3.681  0.3319  0.7142 -0.6210
  582MOL0     C78445   2.460   3.730   3.622 -0.1687 -0.3832 -0.5549
  582MOL0     C78446   2.489   3.580   3.653  0.4218 -0.1912 -0.0853
  582MOL0     C78447   2.601   3.530   3.562 -0.1720 -0.5027  0.0974
  582MOL0     C78448   2.745   3.575   3.617  0.6651  0.4380 -0.1631
  582MOL0     C78449   2.855   3.542   3.518 -0.8171 -0.9507 -0.5578
  582MOL0     C78450   2.867   3.400   3.469 -0.0854  0.7823 -0.3745
  582MOL0     C78451   3.008   3.351   3.422  0.7774 -0.0594 -0.5026
  582MOL0     N78452   3.103   3.302   3.528  0.1675 -0.5766  0.6564
  582MOL0     C78453   3.099   3.322   3.664 -0.3636  0.0282 -0.3875
  582MOL0     C78454   3.190   3.233   3.718 -0.4472 -0.2961  0.1064
  582MOL0     C78455   3.246   3.214   3.857 -0.3809  0.2811 -0.7000
  582MOL0     C78456   3.400   3.259   3.851 -0.0319  0.0628  0.4244
  582MOL0     C78457   3.465   3.262   3.997  1.0794 -0.4145  0.3240
  582MOL0     C78458   3.605   3.318   4.015 -0.0421  0.5674 -0.4055
  582MOL0     O78459   3.682   3.255   3.912  0.0304 -0.2599 -1.0838
  582MOL0     C78460   3.813   3.238   3.944 -0.2535 -0.3101  0.3104
  582MOL0     C78461   3.872   3.123   3.896  0.2617 -0.1412  0.3309
  582MOL0     C78462   4.002   3.093   3.929 -1.6811 -0.0020  0.7144
  582MOL0     C78463   4.084   3.190   3.999 -0.3147  1.1287  0.0070
  582MOL0     C78464   4.225   3.152   4.027 -0.6124 -0.0949 -0.0373
  582MOL0     O78465   4.300   3.231   4.116  0.0447 -0.2656 -0.2113
  582MOL0     C78466   4.424   3.192   4.156  0.2192 -0.6385 -0.1037
  582MOL0     C78467   4.449   3.170   4.284 -0.3112 -0.6191 -1.1045
  582MOL0     C78468   4.573   3.127   4.323 -0.0711  0.2553  0.0765
  582MOL0     C78469   4.670   3.107   4.226  0.6783 -0.1513 -0.0274
  582MOL0     O78470   4.788   3.071   4.280  0.2012 -0.0095 -0.2614
  582MOL0     C78471   4.877   2.993   4.206  0.1691 -0.8234  0.8480
  582MOL0     C78472   5.012   2.962   4.274  0.2203  0.8304 -1.0547
  582MOL0     C78473   5.105   2.875   4.188  0.3096 -0.1620  0.4756
  582MOL0     C78474   5.243   2.856   4.240  0.8051  0.0017  0.0269
  582MOL0     C78475   5.332   2.762   4.155 -0.0829  0.2646  0.5863
  582MOL0     C78476   5.470   2.752   4.226 -0.9117 -0.4301 -0.5365
  582MOL0     C78477   5.573   2.673   4.150 -0.5731  0.2070 -0.8656
  582MOL0     C78478   5.711   2.685   4.227 -0.5811  0.2991  0.8195
  582MOL0    Cl78479   5.853   2.657   4.120  0.5730  0.6043  0.0456
  582MOL0     C78480   4.643   3.122   4.090  0.3032 -0.4822 -0.0175
  582MOL0     C78481   4.522   3.174   4.058 -0.1193  0.2080 -0.1370
  582MOL0     O78482   4.272   3.069   3.952 -0.2642  0.1395  0.1315
  582MOL0     C78483   4.024   3.310   4.048 -0.9590 -0.5044  0.3118
  582MOL0     C78484   3.891   3.331   4.009  0.3820  0.4070  0.0756
  582MOL0     N78485   3.243   3.162   3.611 -0.3649  0.4151 -0.5002
  582MOL0     N78486   3.188   3.197   3.506  0.4877  0.1490 -1.0320
  582MOL0     C78487   2.083   3.898   3.494  0.4904 -0.4074  0.4282
  582MOL0     C78488   1.955   3.956   3.499 -0.3109  0.2494  0.0076
  582MOL0     C78489   1.564   4.111   3.676  0.7258  0.4576  0.0846
  582MOL0     C78490   1.454   4.031   3.643  0.8482  1.0181 -0.1359
  582MOL0     C78491   1.329   4.091   3.637  0.5574  0.6429  0.0484
  582MOL0     C78492   1.309   4.229   3.675  0.5033 -0.6043  0.5851
  582MOL0     O78493   1.180   4.269   3.700 -0.3953  0.2385 -0.0238
  582MOL0     C78494   1.155   4.352   3.816  0.1475 -0.2839  0.2232
  582MOL0     C78495   1.149   4.262   3.937  0.2394 -0.4911 -0.5630
  582MOL0     C78496   1.080   4.342   4.052 -0.4398 -0.0023 -0.0330
  582MOL0     C78497   1.116   4.278   4.190  0.1798 -0.8165  0.8054
  582MOL0     C78498   1.053   4.152   4.207  0.2358 -0.4494 -0.2274
  582MOL0     C78499   0.994   4.060   4.258  0.8751  0.3748  0.8956
  582MOL0     C78500   1.417   4.308   3.699 -0.0763 -0.2410  0.4883
  582MOL0     C78501   1.544   4.251   3.702 -0.3098 -0.5592 -0.5325
  582MOL0     C78502   1.665   4.334   3.710 -0.1262 -0.0138 -0.8541
  582MOL0     H78503   1.784   3.748   3.711 -0.8948 -0.6021 -0.8523
  582MOL0     H78504   2.018   3.652   3.730  1.0191  2.0629  2.2714
  582MOL0     H78505   2.305   3.877   3.694 -1.8713  0.5289 -0.7314
  582MOL0     H78506   2.304   3.717   3.776 -2.7064 -0.2079 -1.4166
  582MOL0     H78507   2.529   3.794   3.678  1.2557  0.5448 -3.2110
  582MOL0     H78508   2.482   3.745   3.516  0.8300  0.1900 -0.2718
  582MOL0     H78509   2.396   3.526   3.635 -0.0492 -0.2170  2.1524
  582MOL0     H78510   2.505   3.563   3.760 -1.1944 -2.2970 -0.1052
  582MOL0     H78511   2.588   3.422   3.551 -1.2966 -0.2510 -1.5033
  582MOL0     H78512   2.587   3.560   3.458 -0.6953 -1.9983 -0.2906
  582MOL0     H78513   2.761   3.681   3.639 -0.2172  0.9541 -1.7872
  582MOL0     H78514   2.759   3.511   3.704 -0.7861 -1.0711 -0.9875
  582MOL0     H78515   2.840   3.596   3.424 -0.8004 -0.6270 -0.3760
  582MOL0     H78516   2.945   3.576   3.570 -2.0812  0.2145  0.9708
  582MOL0     H78517   2.793   3.388   3.389 -2.0274 -0.5127  1.5058
  582MOL0     H78518   2.844   3.319   3.539  3.2447  0.6141  0.7010
  582MOL0     H78519   2.994   3.285   3.336  0.7269 -0.6436 -0.0485
  582MOL0     H78520   3.069   3.437   3.394  3.4430 -1.2649  1.2784
  582MOL0     H78521   3.036   3.385   3.725  0.7476  1.1854 -0.4089
  582MOL0     H78522   3.196   3.277   3.931 -0.8948 -0.3572 -0.4981
  582MOL0     H78523   3.237   3.107   3.877  1.0844 -0.2520 -2.6553
  582MOL0     H78524   3.456   3.197   3.780 -1.0528  1.8328 -2.0735
  582MOL0     H78525   3.415   3.360   3.810  1.7189 -0.5770 -0.6094
  582MOL0     H78526   3.473   3.160   4.035 -1.6044 -0.0347  2.2745
  582MOL0     H78527   3.402   3.321   4.066  2.6580  1.7918 -0.0024
  582MOL0     H78528   3.648   3.303   4.115  1.1869  1.4907 -0.7778
  582MOL0     H78529   3.595   3.424   3.992 -1.9063 -0.0182 -2.8313
  582MOL0     H78530   3.805   3.050   3.851  1.3982  0.4521 -2.5037
  582MOL0     H78531   4.041   3.000   3.890 -1.4446  0.1883  0.4860
  582MOL0     H78532   4.376   3.200   4.359 -0.9871 -3.1072 -0.6854
  582MOL0     H78533   4.586   3.106   4.428  1.3278 -0.3999 -0.2032
  582MOL0     H78534   4.829   2.896   4.188  1.0047 -0.9380 -1.0410
  582MOL0     H78535   4.906   3.035   4.109  3.0132 -0.8209  1.6004
  582MOL0     H78536   5.053   3.059   4.301 -2.4035  2.4669 -2.5044
  582MOL0     H78537   4.993   2.903   4.364  0.8144 -0.7736 -1.9354
  582MOL0     H78538   5.062   2.774   4.187  0.8063 -0.3761 -0.3860
  582MOL0     H78539   5.102   2.912   4.085  2.9629  1.4232  0.8548
  582MOL0     H78540   5.231   2.820   4.342  1.0343 -1.1957 -0.3538
  582MOL0     H78541   5.295   2.950   4.257  0.1685  0.1083  1.5542
  582MOL0     H78542   5.330   2.795   4.051 -2.6905 -2.2587 -0.2945
  582MOL0     H78543   5.280   2.666   4.158  0.1760  0.1293  3.3292
  582MOL0     H78544   5.510   2.852   4.240 -0.5925 -0.7791  1.2973
  582MOL0     H78545   5.466   2.701   4.322 -0.2517 -2.9627 -1.7473
  582MOL0     H78546   5.593   2.718   4.052 -0.2111 -1.6499 -1.7007
  582MOL0     H78547   5.535   2.571   4.141  2.5089 -1.2712  1.1618
  582MOL0     H78548   5.717   2.787   4.267 -1.1572  1.0188 -0.8669
  582MOL0     H78549   5.713   2.611   4.308  0.8668 -1.1614 -0.4755
  582MOL0     H78550   4.710   3.085   4.013 -0.4039  3.1552 -2.6175
  582MOL0     H78551   4.500   3.163   3.953 -0.6765  0.6067 -0.0653
  582MOL0     H78552   4.084   3.383   4.103  3.0802 -2.2220 -1.4152
  582MOL0     H78553   3.840   3.418   4.051  0.2548 -1.2334  3.7496
  582MOL0     H78554   2.165   3.940   3.437  2.0422  0.4922  3.1717
  582MOL0     H78555   1.952   4.053   3.451 -2.7281  0.8609  1.2617
  582MOL0     H78556   1.473   3.926   3.625  0.1982  1.2161 -2.1801
  582MOL0     H78557   1.237   4.035   3.630  0.7633  0.1932  0.8453
  582MOL0     H78558   1.054   4.395   3.809 -0.1359  0.0722  4.2560
  582MOL0     H78559   1.233   4.427   3.835  0.7519 -0.6420 -0.7682
  582MOL0     H78560   1.249   4.226   3.960  0.1726 -0.7103 -0.6144
  582MOL0     H78561   1.086   4.179   3.903  0.8921 -1.4091  0.4135
  582MOL0     H78562   0.972   4.342   4.036 -0.1268  0.2679 -2.4846
  582MOL0     H78563   1.111   4.447   4.052  2.4316 -0.7292  1.6343
  582MOL0     H78564   1.224   4.267   4.183  0.6170  2.1644  1.4409
  582MOL0     H78565   1.088   4.343   4.274 -2.1652  0.3652 -0.7565
  582MOL0     H78566   0.957   3.968   4.299  2.5560 -0.8338 -0.1666
  582MOL0     H78567   1.412   4.411   3.734 -0.1308 -0.1887  0.3276
  582MOL0     H78568   1.722   4.324   3.617  0.9649  0.1639 -0.2268
  582MOL0     H78569   1.653   4.442   3.723  0.8774  0.1565 -1.2325
  582MOL0     H78570   1.728   4.298   3.792 -2.1289 -0.6184  0.5040
  583MOL0     O78571   7.964   6.543   5.439 -0.2311  0.1684  0.2521
  583MOL0     C78572   7.904   6.629   5.506  0.1523 -0.2594  0.6369
  583MOL0     O78573   7.963   6.745   5.545  0.1471  0.2648 -0.2060
  583MOL0     C78574   8.095   6.771   5.527  0.4167  0.0531  0.2520
  583MOL0     C78575   8.201   6.680   5.548 -0.1838 -0.3441  1.1348
  583MOL0     C78576   8.338   6.710   5.531 -0.1585 -0.6806  0.3718
  583MOL0     C78577   8.377   6.838   5.491  0.3627 -0.1186 -0.0111
  583MOL0     O78578   8.505   6.884   5.464  0.4397  0.2510 -0.1198
  583MOL0     C78579   8.611   6.794   5.466 -0.1074  0.2691 -0.7636
  583MOL0     C78580   8.724   6.870   5.399 -0.1767  0.0016 -0.0093
  583MOL0     C78581   8.857   6.799   5.416 -0.4403  0.6555 -0.6062
  583MOL0     C78582   8.985   6.855   5.343 -0.6538  0.1780 -0.7651
  583MOL0     C78583   9.107   6.762   5.379 -0.0374  0.1908  0.1698
  583MOL0     C78584   9.242   6.818   5.314  0.1227 -0.4118  0.4205
  583MOL0     C78585   9.293   6.927   5.406 -0.2704 -0.0088 -0.1166
  583MOL0     C78586   9.417   7.001   5.350  0.3118 -0.0710 -0.2637
  583MOL0     N78587   9.532   6.914   5.331 -0.7784 -0.8542  0.0613
  583MOL0     C78588   9.604   6.852   5.434 -0.8304  0.4709 -0.0157
  583MOL0     C78589   9.673   6.754   5.362 -0.1413 -1.4002  0.4660
  583MOL0     C78590   9.765   6.652   5.419  0.3001  0.2199 -0.1351
  583MOL0     C78591   9.900   6.724   5.463 -0.2801  0.2584  0.6730
  583MOL0     C78592   9.988   6.622   5.533 -0.7880  0.5088 -0.8117
  583MOL0     C78593  10.132   6.674   5.556 -0.7911  0.1202 -0.6044
  583MOL0     O78594  10.197   6.696   5.429  0.7076 -0.1051  0.2411
  583MOL0     C78595  10.329   6.656   5.412 -0.2540  0.3296  0.0526
  583MOL0     C78596  10.366   6.643   5.278 -0.3667  0.6058  1.0324
  583MOL0     C78597  10.493   6.597   5.251  0.0181 -0.2394 -0.3290
  583MOL0     C78598  10.594   6.564   5.345  0.0961 -0.4949  0.1384
  583MOL0     C78599  10.720   6.518   5.293 -0.6554 -0.3254  0.4858
  583MOL0     O78600  10.831   6.532   5.381 -0.4316  0.7953 -0.4834
  583MOL0     C78601  10.958   6.516   5.333  0.1131  0.2571  0.1156
  583MOL0     C78602  11.015   6.405   5.261  0.0514 -0.1459 -0.6212
  583MOL0     C78603  11.139   6.410   5.207 -0.0238 -0.3599  0.4137
  583MOL0     C78604  11.221   6.514   5.238 -1.2417  0.0085  0.0920
  583MOL0     O78605  11.352   6.526   5.198  0.1686  0.3160  0.4842
  583MOL0     C78606  11.406   6.426   5.101 -0.1802 -1.2032 -0.3270
  583MOL0     C78607  11.562   6.416   5.121  0.3728  0.8646 -0.4755
  583MOL0     C78608  11.645   6.543   5.093 -0.1222 -0.7523  0.3820
  583MOL0     C78609  11.794   6.507   5.094  0.3527  0.2263 -0.9009
  583MOL0     C78610  11.869   6.639   5.065 -0.0355  0.0065 -0.2679
  583MOL0     C78611  12.014   6.623   5.096 -0.9635  0.8617 -0.4193
  583MOL0     C78612  12.088   6.492   5.058 -0.8445  0.1253  0.8239
  583MOL0     C78613  12.238   6.498   5.094  0.3760  0.6252  0.2297
  583MOL0    Cl78614  12.320   6.637   5.016 -0.0466 -0.1136  0.4385
  583MOL0     C78615  11.179   6.619   5.319  0.0687  0.6356 -0.0703
  583MOL0     C78616  11.046   6.614   5.376 -1.5139 -0.2089  0.3548
  583MOL0     O78617  10.735   6.489   5.170 -0.3694  0.3899 -0.1127
  583MOL0     C78618  10.562   6.587   5.478  0.3368 -0.2839  0.1637
  583MOL0     C78619  10.426   6.623   5.508 -0.6778 -0.4086  0.3821
  583MOL0     N78620   9.646   6.764   5.230 -1.1242 -0.4667 -0.1748
  583MOL0     N78621   9.553   6.853   5.209 -0.4828 -0.3665 -0.1754
  583MOL0     C78622   8.280   6.931   5.468 -0.4245 -0.0270  0.9139
  583MOL0     C78623   8.140   6.904   5.489  0.0485  0.3174 -0.2398
  583MOL0     C78624   7.776   6.595   5.565  0.1851  0.9473 -0.5038
  583MOL0     C78625   7.674   6.693   5.564  0.5657  0.7706  0.1250
  583MOL0     C78626   7.541   6.658   5.600  0.0042  0.1593 -0.3228
  583MOL0     C78627   7.511   6.535   5.650 -0.8288 -0.2757 -0.3183
  583MOL0     O78628   7.382   6.525   5.701  0.0276 -0.1675  0.0916
  583MOL0     C78629   7.355   6.421   5.789 -0.3421  0.4459 -0.3083
  583MOL0     C78630   7.280   6.478   5.910  0.8165 -0.3780 -0.0170
  583MOL0     C78631   7.379   6.553   5.997  0.0214 -0.1386  0.0017
  583MOL0     C78632   7.320   6.609   6.120 -0.8411  0.7613  0.6882
  583MOL0     C78633   7.411   6.705   6.176  0.5599  0.5417  0.1351
  583MOL0     C78634   7.484   6.794   6.217  0.3817 -0.2693 -0.2869
  583MOL0     C78635   7.610   6.433   5.644  0.1123 -0.7580 -0.2083
  583MOL0     C78636   7.742   6.467   5.618  0.0029  0.2346 -0.0597
  583MOL0     C78637   7.836   6.354   5.621  0.3583  0.1619 -0.2024
  583MOL0     H78638   8.181   6.579   5.583 -2.9703 -1.2007 -2.3291
  583MOL0     H78639   8.415   6.633   5.533 -1.2516 -1.8493 -0.7277
  583MOL0     H78640   8.629   6.760   5.569 -2.1767 -0.3623 -0.5542
  583MOL0     H78641   8.591   6.708   5.401  1.4766 -1.1408  0.5302
  583MOL0     H78642   8.735   6.971   5.440 -4.1315  0.8200 -0.5909
  583MOL0     H78643   8.703   6.886   5.293  0.3479  0.7550 -0.0051
  583MOL0     H78644   8.840   6.698   5.377  0.1598  0.0191  0.7035
  583MOL0     H78645   8.880   6.791   5.523  1.7431 -0.9023 -1.1262
  583MOL0     H78646   8.971   6.852   5.234  0.1035 -0.2329 -0.8596
  583MOL0     H78647   8.988   6.963   5.363 -0.3747  0.7436 -3.3855
  583MOL0     H78648   9.118   6.769   5.487 -1.2093 -0.4157  0.3397
  583MOL0     H78649   9.099   6.655   5.357 -0.0075  0.5123 -1.5986
  583MOL0     H78650   9.317   6.738   5.317 -1.1664 -1.6813 -0.1453
  583MOL0     H78651   9.221   6.850   5.211 -2.0600 -1.5640  0.4439
  583MOL0     H78652   9.302   6.882   5.506  0.5102 -2.4107 -1.1800
  583MOL0     H78653   9.219   7.007   5.413  0.0778  0.3659 -0.6082
  583MOL0     H78654   9.388   7.035   5.250 -2.4451 -0.2944  0.3675
  583MOL0     H78655   9.444   7.092   5.405 -0.6583  1.6056 -2.4051
  583MOL0     H78656   9.598   6.875   5.540 -0.6408  2.8056 -0.4531
  583MOL0     H78657   9.713   6.592   5.494  0.7144 -2.8718 -2.1354
  583MOL0     H78658   9.787   6.578   5.342 -0.1078  0.5854 -0.6059
  583MOL0     H78659   9.941   6.775   5.375  2.5027 -1.6541  0.7462
  583MOL0     H78660   9.874   6.798   5.539  0.3501 -2.2981  3.5932
  583MOL0     H78661   9.992   6.535   5.467  5.7640 -0.3763  0.0174
  583MOL0     H78662   9.946   6.595   5.630 -0.1392  0.2778 -0.5924
  583MOL0     H78663  10.191   6.603   5.614  2.3023  1.2319 -2.1526
  583MOL0     H78664  10.125   6.767   5.613  0.2112 -1.5189  2.4157
  583MOL0     H78665  10.294   6.656   5.198 -0.3247 -0.8561  0.7311
  583MOL0     H78666  10.507   6.574   5.146  2.5237  2.5759 -0.7341
  583MOL0     H78667  10.953   6.319   5.241  0.3658 -0.6317  0.4293
  583MOL0     H78668  11.162   6.321   5.149 -1.2317 -2.2790  2.7271
  583MOL0     H78669  11.362   6.333   5.137  0.6471 -0.6476  2.3567
  583MOL0     H78670  11.386   6.448   4.995 -0.3343 -0.1874 -0.0960
  583MOL0     H78671  11.586   6.389   5.224 -4.3164 -0.4021  0.5222
  583MOL0     H78672  11.597   6.338   5.053 -0.1630  3.1099 -3.5537
  583MOL0     H78673  11.609   6.587   5.000  0.2965 -2.3511 -0.5584
  583MOL0     H78674  11.616   6.605   5.179 -3.2888 -2.4850  0.7345
  583MOL0     H78675  11.812   6.431   5.017 -0.2338 -0.4417 -0.3916
  583MOL0     H78676  11.823   6.465   5.191  0.5209 -0.1007 -1.0876
  583MOL0     H78677  11.837   6.717   5.134 -0.0600  0.3427 -0.6500
  583MOL0     H78678  11.844   6.672   4.963  3.0602  3.0934 -0.2437
  583MOL0     H78679  12.072   6.712   5.072 -0.1949  0.1502 -1.2959
  583MOL0     H78680  12.006   6.625   5.205 -0.8586 -0.6100 -0.3583
  583MOL0     H78681  12.079   6.477   4.950  0.4890 -2.5661  1.0193
  583MOL0     H78682  12.046   6.402   5.104 -0.3015 -0.9088 -0.6404
  583MOL0     H78683  12.239   6.496   5.203 -2.8038  1.2466  0.3821
  583MOL0     H78684  12.281   6.409   5.048  1.1241  1.2963 -0.3945
  583MOL0     H78685  11.238   6.707   5.339  0.2589 -0.2713  4.5752
  583MOL0     H78686  11.019   6.690   5.447  0.3289  1.0174 -0.1820
  583MOL0     H78687  10.635   6.569   5.556 -1.8773  0.3832  2.5422
  583MOL0     H78688  10.407   6.629   5.615 -0.8862  0.9613  0.2869
  583MOL0     H78689   8.309   7.032   5.439  2.9741 -1.1446  0.0181
  583MOL0     H78690   8.066   6.976   5.455  0.0589  0.8045  0.7358
  583MOL0     H78691   7.692   6.798   5.542  0.2102  1.2178  1.7997
  583MOL0     H78692   7.468   6.736   5.621 -1.5630 -1.6212  1.1404
  583MOL0     H78693   7.436   6.361   5.832 -1.5928  0.3544  2.1021
  583MOL0     H78694   7.297   6.339   5.746 -1.7654  0.5626  1.3056
  583MOL0     H78695   7.226   6.401   5.966  1.1981  0.6275  1.8170
  583MOL0     H78696   7.198   6.542   5.876  1.3480 -1.4602 -3.7930
  583MOL0     H78697   7.428   6.629   5.935  1.7573  0.5220  2.0984
  583MOL0     H78698   7.462   6.489   6.026  1.8116  0.7419 -2.7330
  583MOL0     H78699   7.225   6.663   6.108 -0.2213  2.0565  1.4603
  583MOL0     H78700   7.311   6.523   6.186  0.0901 -0.3582 -0.5921
  583MOL0     H78701   7.530   6.886   6.249  0.7707 -0.9764  1.2935
  583MOL0     H78702   7.565   6.336   5.663 -2.4282  0.3476 -0.0885
  583MOL0     H78703   7.927   6.389   5.670  0.9014  2.1079 -2.4642
  583MOL0     H78704   7.796   6.270   5.680  0.0517 -1.2515 -2.3050
  583MOL0     H78705   7.859   6.320   5.520 -3.7725 -0.2460 -1.1863
  584MOL0     O78706   7.113   4.169   1.525 -0.5016 -0.7440 -0.3790
  584MOL0     C78707   7.034   4.092   1.582  0.2119  0.6128  0.4436
  584MOL0     O78708   7.073   4.010   1.679 -0.1580  0.2030 -0.1471
  584MOL0     C78709   7.201   4.016   1.713  0.4724  0.2563 -0.1176
  584MOL0     C78710   7.285   3.942   1.635 -0.5099  0.1544  0.5418
  584MOL0     C78711   7.414   3.923   1.675 -0.2422 -0.8552 -0.3858
  584MOL0     C78712   7.470   3.974   1.789  0.2988  0.1187  0.2157
  584MOL0     O78713   7.600   3.953   1.834  0.0113 -0.8056  0.1920
  584MOL0     C78714   7.711   3.980   1.743  0.6031 -0.0512 -0.0705
  584MOL0     C78715   7.837   3.950   1.830  0.6310  1.1958  0.5242
  584MOL0     C78716   7.959   4.017   1.771 -0.5620 -0.5087  0.7321
  584MOL0     C78717   8.096   3.970   1.839  0.2002 -0.1940 -0.5997
  584MOL0     C78718   8.223   4.037   1.775 -0.0421 -0.7420  0.2741
  584MOL0     C78719   8.359   4.019   1.845  0.7086  0.0397 -1.2305
  584MOL0     C78720   8.463   4.105   1.787  0.2119 -0.6691  0.3685
  584MOL0     C78721   8.563   4.160   1.894 -0.0142 -0.1608  0.2320
  584MOL0     N78722   8.647   4.062   1.966 -0.3046  0.1649  0.2068
  584MOL0     C78723   8.753   3.979   1.915 -0.2470  0.2625 -0.8270
  584MOL0     C78724   8.764   3.884   2.013  0.8012 -0.4146  0.4516
  584MOL0     C78725   8.842   3.756   1.994  0.8019  0.7488 -0.0158
  584MOL0     C78726   8.989   3.761   2.015 -0.1776 -0.4176 -0.3466
  584MOL0     C78727   9.069   3.802   1.889 -0.4469 -0.2240 -1.1316
  584MOL0     C78728   9.215   3.821   1.933  1.1531  0.9562 -0.2866
  584MOL0     O78729   9.269   3.684   1.966 -0.1451 -0.6565  0.3838
  584MOL0     C78730   9.405   3.671   1.987  0.1105  0.0250  0.6304
  584MOL0     C78731   9.498   3.780   1.994  0.0066 -0.5272  0.5123
  584MOL0     C78732   9.641   3.766   2.019  0.8552  0.1449 -0.4400
  584MOL0     C78733   9.684   3.631   2.030 -0.1862  0.2898  0.1710
  584MOL0     C78734   9.829   3.612   2.050  0.0967  0.0792  0.1834
  584MOL0     O78735   9.926   3.712   2.019  0.5975  0.3949  1.2614
  584MOL0     C78736  10.053   3.677   1.980 -0.5348  0.6284  0.6862
  584MOL0     C78737  10.108   3.732   1.862  0.3386  0.4148  0.0662
  584MOL0     C78738  10.242   3.726   1.829 -0.7000  0.5447 -0.7021
  584MOL0     C78739  10.331   3.651   1.908 -0.7805 -0.0566 -0.6358
  584MOL0     O78740  10.465   3.651   1.869 -0.5014  0.0204 -0.0832
  584MOL0     C78741  10.558   3.596   1.968  0.4969  0.2649 -0.0732
  584MOL0     C78742  10.703   3.621   1.930  0.0291 -0.4908 -0.2006
  584MOL0     C78743  10.742   3.767   1.898 -0.5617 -0.0210 -0.1502
  584MOL0     C78744  10.875   3.781   1.815  0.2811  0.3425 -0.8592
  584MOL0     C78745  10.996   3.766   1.908 -0.7279  0.3229 -0.1267
  584MOL0     C78746  11.121   3.692   1.851  0.1602 -1.3962 -0.2136
  584MOL0     C78747  11.245   3.707   1.948 -0.6115  0.3688 -0.9354
  584MOL0     C78748  11.358   3.775   1.869 -0.1143  0.0852 -0.4575
  584MOL0    Cl78749  11.320   3.953   1.863 -0.2862 -0.1506 -0.5120
  584MOL0     C78750  10.277   3.588   2.026  0.2991  0.2969 -0.5679
  584MOL0     C78751  10.133   3.599   2.058 -0.6545 -0.6874 -0.6257
  584MOL0     O78752   9.860   3.500   2.092  0.5587 -0.2587  0.5660
  584MOL0     C78753   9.591   3.525   2.029  0.4553 -0.1941 -0.1314
  584MOL0     C78754   9.452   3.540   2.001 -0.9446 -0.6539 -0.4639
  584MOL0     N78755   8.701   3.930   2.129 -0.2050 -0.9998  0.1801
  584MOL0     N78756   8.640   4.038   2.101  0.9484 -0.3635 -0.0614
  584MOL0     C78757   7.380   4.042   1.868  0.1392 -1.2161 -0.4837
  584MOL0     C78758   7.252   4.062   1.829  0.2974  0.4804 -0.1045
  584MOL0     C78759   6.891   4.083   1.534  1.0155 -0.2017  0.7097
  584MOL0     C78760   6.814   3.972   1.581 -0.9224 -0.3447  0.5852
  584MOL0     C78761   6.681   3.955   1.534 -0.1577  0.5553  0.3564
  584MOL0     C78762   6.627   4.041   1.442 -0.2725 -0.5070 -1.1995
  584MOL0     O78763   6.500   4.004   1.407  0.0810 -0.0382 -0.5446
  584MOL0     C78764   6.412   4.095   1.335  0.4518 -0.3619  0.6080
  584MOL0     C78765   6.274   4.030   1.316 -0.8678 -0.4189 -0.3801
  584MOL0     C78766   6.272   3.922   1.205  0.1975  0.5001 -0.1644
  584MOL0     C78767   6.134   3.879   1.150 -0.2903  0.5364 -0.4249
  584MOL0     C78768   6.058   3.995   1.100  0.2289 -0.6937 -0.2859
  584MOL0     C78769   5.975   4.066   1.045 -0.2222 -0.5199  0.4525
  584MOL0     C78770   6.696   4.152   1.396 -0.2895 -0.1187  1.0051
  584MOL0     C78771   6.829   4.174   1.440 -0.3139 -0.3344  0.2239
  584MOL0     C78772   6.891   4.303   1.392  0.4879 -0.0902 -0.3513
  584MOL0     H78773   7.248   3.894   1.545  1.0231 -2.1595  1.0578
  584MOL0     H78774   7.462   3.853   1.607 -0.2796 -0.2675 -1.0374
  584MOL0     H78775   7.701   3.917   1.654 -2.1284  0.2238 -0.0430
  584MOL0     H78776   7.707   4.085   1.712  1.2001  0.4985  1.5556
  584MOL0     H78777   7.848   3.842   1.837 -1.4186  0.8398 -0.9392
  584MOL0     H78778   7.817   3.995   1.928 -3.0272 -1.6974  1.3135
  584MOL0     H78779   7.963   4.126   1.770 -0.3422 -0.5101  1.2717
  584MOL0     H78780   7.970   3.981   1.668  0.3525  1.0159  0.2626
  584MOL0     H78781   8.093   3.981   1.948 -2.6406  0.2502 -0.6537
  584MOL0     H78782   8.107   3.862   1.827  0.6886 -0.3296  0.8663
  584MOL0     H78783   8.229   4.014   1.668 -3.4653  0.6989 -0.3600
  584MOL0     H78784   8.198   4.143   1.783  0.8384 -0.5843  1.0995
  584MOL0     H78785   8.342   4.050   1.948  0.1535  0.4283 -1.4355
  584MOL0     H78786   8.386   3.913   1.856 -0.3735 -0.2858 -1.5587
  584MOL0     H78787   8.415   4.184   1.728 -0.7671  0.3029  2.3442
  584MOL0     H78788   8.529   4.050   1.719 -1.2421 -0.7272 -1.0695
  584MOL0     H78789   8.625   4.238   1.848 -0.6963  0.0814 -0.2939
  584MOL0     H78790   8.505   4.217   1.967  0.6695 -3.7498  3.8849
  584MOL0     H78791   8.803   3.963   1.820  2.3499  0.4621  0.4258
  584MOL0     H78792   8.814   3.686   2.074  0.2882 -0.1276 -0.9389
  584MOL0     H78793   8.825   3.712   1.896 -1.7693 -1.5823  1.3126
  584MOL0     H78794   9.001   3.819   2.107 -0.1294  2.0151 -1.8056
  584MOL0     H78795   9.019   3.661   2.046 -2.1170 -0.9158  0.0133
  584MOL0     H78796   9.034   3.897   1.848  1.5711  0.6031 -1.0397
  584MOL0     H78797   9.057   3.730   1.808  0.2681 -0.6139 -0.8995
  584MOL0     H78798   9.205   3.885   2.021 -3.8367 -1.4873  1.3056
  584MOL0     H78799   9.269   3.867   1.849  0.1983 -0.6542 -1.8603
  584MOL0     H78800   9.460   3.882   1.984 -1.6498 -1.0207  1.4249
  584MOL0     H78801   9.713   3.847   2.029  0.2855  0.5057  0.9505
  584MOL0     H78802  10.036   3.793   1.808  2.0160  1.1253 -1.4465
  584MOL0     H78803  10.286   3.756   1.735 -0.2999 -0.5799 -0.8890
  584MOL0     H78804  10.532   3.631   2.068 -0.2395 -0.0707 -0.1336
  584MOL0     H78805  10.538   3.489   1.971 -0.3830  0.4124 -0.1406
  584MOL0     H78806  10.766   3.584   2.011  0.2615  0.8566  0.2647
  584MOL0     H78807  10.729   3.552   1.850 -2.0028 -1.4168 -0.1122
  584MOL0     H78808  10.662   3.798   1.830 -1.2089 -0.8532  0.2100
  584MOL0     H78809  10.740   3.837   1.982  3.4828 -1.3061  1.2752
  584MOL0     H78810  10.863   3.882   1.774 -2.5355  0.2525 -0.4502
  584MOL0     H78811  10.884   3.704   1.738  0.9082  1.5771 -2.0851
  584MOL0     H78812  10.969   3.713   2.000  0.4907 -0.0670  0.0247
  584MOL0     H78813  11.032   3.863   1.942 -0.7607  0.5886 -0.8268
  584MOL0     H78814  11.097   3.589   1.823  0.0298 -0.5907 -3.4813
  584MOL0     H78815  11.148   3.735   1.754  0.6993 -0.3712  0.3803
  584MOL0     H78816  11.283   3.606   1.968 -3.0242 -0.6270 -1.0875
  584MOL0     H78817  11.214   3.753   2.042  1.2999  0.5255 -0.3437
  584MOL0     H78818  11.456   3.771   1.917 -0.2734  1.1632 -0.0064
  584MOL0     H78819  11.373   3.726   1.772  1.9809 -0.0345 -0.1217
  584MOL0     H78820  10.326   3.531   2.104  2.2177 -0.2544 -2.1023
  584MOL0     H78821  10.092   3.569   2.154 -0.4812 -0.4534 -0.4777
  584MOL0     H78822   9.632   3.427   2.053 -1.3308 -1.0184 -0.3028
  584MOL0     H78823   9.377   3.462   1.999 -3.6325  1.5819  2.8993
  584MOL0     H78824   7.413   4.083   1.963 -0.6134 -1.4694 -0.1102
  584MOL0     H78825   7.176   4.109   1.891 -0.5356  0.8993 -1.4121
  584MOL0     H78826   6.855   3.898   1.649  2.3408 -0.3704 -1.1958
  584MOL0     H78827   6.616   3.879   1.577 -0.4125  0.8424  0.4775
  584MOL0     H78828   6.450   4.125   1.237 -1.5134 -1.6214 -0.6064
  584MOL0     H78829   6.395   4.189   1.388 -0.4946 -0.9514  1.3886
  584MOL0     H78830   6.203   4.109   1.290  0.4358  1.4242  1.3328
  584MOL0     H78831   6.234   3.985   1.407 -0.2967 -0.5115 -0.1752
  584MOL0     H78832   6.322   3.833   1.243 -0.9799  0.2093  0.7547
  584MOL0     H78833   6.329   3.958   1.119  1.3582  0.9165  0.7467
  584MOL0     H78834   6.145   3.802   1.073 -0.0960 -2.3120  2.2502
  584MOL0     H78835   6.067   3.836   1.226 -0.4840  2.1620  0.3717
  584MOL0     H78836   5.915   4.135   0.989  0.6924  0.3922  0.5559
  584MOL0     H78837   6.657   4.222   1.322  1.0319 -1.5554 -1.1833
  584MOL0     H78838   6.946   4.351   1.474 -0.9326  2.0017 -0.5363
  584MOL0     H78839   6.965   4.271   1.318  0.0333 -0.0831 -0.8103
  584MOL0     H78840   6.827   4.370   1.334  2.4045  0.5894 -1.8066
  585MOL0     O78841   4.594   7.086  10.726  0.8399 -0.3040  0.2618
  585MOL0     C78842   4.643   6.983  10.684 -0.4989  0.0808  0.3202
  585MOL0     O78843   4.714   6.977  10.565 -0.1977 -0.4365  0.3391
  585MOL0     C78844   4.743   7.098  10.496  0.1698  0.1840 -0.6711
  585MOL0     C78845   4.742   7.078  10.355  0.4483  0.2308  0.1118
  585MOL0     C78846   4.785   7.177  10.269 -0.6023 -0.4027 -0.8292
  585MOL0     C78847   4.850   7.295  10.314 -0.3803 -0.7583  0.1577
  585MOL0     O78848   4.904   7.396  10.228  0.1264  0.6367 -0.2823
  585MOL0     C78849   4.929   7.353  10.094 -0.2550 -0.8152 -0.2390
  585MOL0     C78850   5.040   7.446  10.032  0.7822 -0.5116  0.6105
  585MOL0     C78851   5.177   7.433  10.094  0.2689 -0.5442 -0.0402
  585MOL0     C78852   5.264   7.549  10.052  0.1975 -0.2470 -0.2390
  585MOL0     C78853   5.398   7.521  10.114 -0.3560  0.5922 -0.1154
  585MOL0     C78854   5.487   7.419  10.042  0.7154 -0.8277  0.5941
  585MOL0     C78855   5.628   7.420  10.091 -0.0993  0.4647  0.7077
  585MOL0     C78856   5.723   7.325  10.014  0.7636  0.2348  0.6714
  585MOL0     N78857   5.866   7.353  10.047 -0.0443 -0.3019  0.1515
  585MOL0     C78858   5.971   7.277  10.002 -1.1617 -1.1658  0.4721
  585MOL0     C78859   6.079   7.336  10.055  0.1126  0.0251  0.1810
  585MOL0     C78860   6.223   7.285  10.037 -0.7046 -0.3839  0.1906
  585MOL0     C78861   6.264   7.336   9.895 -0.3073 -0.2697 -0.3513
  585MOL0     C78862   6.409   7.303   9.861  0.4030  0.0857  0.2092
  585MOL0     C78863   6.440   7.353   9.713 -0.5579  0.9110 -0.2932
  585MOL0     O78864   6.494   7.487   9.703 -0.1977  0.4299  0.9806
  585MOL0     C78865   6.627   7.497   9.716  0.1398  0.5510  0.2102
  585MOL0     C78866   6.688   7.563   9.825 -0.0136 -0.0411  0.3886
  585MOL0     C78867   6.826   7.597   9.804 -0.2620  0.8405  0.1601
  585MOL0     C78868   6.903   7.565   9.684 -0.1001 -0.8509 -0.6048
  585MOL0     C78869   7.045   7.594   9.698 -0.3888 -0.2534  0.9703
  585MOL0     O78870   7.099   7.652   9.808  0.1401  0.5128  0.4556
  585MOL0     C78871   7.235   7.683   9.816 -0.2160 -0.6347  0.1068
  585MOL0     C78872   7.340   7.627   9.740  0.9081  0.5666 -0.4326
  585MOL0     C78873   7.474   7.664   9.772  1.1346  0.0727 -0.1875
  585MOL0     C78874   7.505   7.764   9.870 -0.4151  0.4141 -0.0093
  585MOL0     O78875   7.636   7.801   9.903 -0.3106 -0.8607 -0.2642
  585MOL0     C78876   7.738   7.776   9.810  0.4683 -0.1214  0.0049
  585MOL0     C78877   7.868   7.827   9.874 -0.1714  0.6978  0.8923
  585MOL0     C78878   7.945   7.914   9.777 -0.6378 -0.3736 -0.2458
  585MOL0     C78879   8.019   7.839   9.676 -0.7476 -0.3501  0.2366
  585MOL0     C78880   8.071   7.928   9.567 -0.4571  1.3137  0.1852
  585MOL0     C78881   8.223   7.903   9.539 -1.2826  0.3697  0.1868
  585MOL0     C78882   8.267   8.002   9.430  0.8513 -0.6700 -0.1680
  585MOL0     C78883   8.414   8.023   9.408 -0.2335  0.1338  0.0962
  585MOL0    Cl78884   8.482   7.877   9.327  0.1163  0.1582  0.1732
  585MOL0     C78885   7.391   7.819   9.925  0.8204  0.0646 -0.5721
  585MOL0     C78886   7.263   7.772   9.911  0.0559 -0.0233  0.0603
  585MOL0     O78887   7.105   7.576   9.597 -0.5153 -0.0605 -0.0351
  585MOL0     C78888   6.833   7.500   9.581 -0.4591  0.1641  0.0836
  585MOL0     C78889   6.697   7.470   9.595 -0.1991  0.2763  0.5480
  585MOL0     N78890   6.044   7.458  10.109 -0.0177  0.5561  0.7129
  585MOL0     N78891   5.920   7.472  10.100 -0.0282 -0.0167 -0.0908
  585MOL0     C78892   4.879   7.298  10.451 -0.3527  0.7414  0.7644
  585MOL0     C78893   4.811   7.209  10.543  0.2482  0.0207 -0.3708
  585MOL0     C78894   4.609   6.846  10.736  0.2237  0.6556 -0.5044
  585MOL0     C78895   4.676   6.729  10.693  0.4374 -0.4751 -0.2342
  585MOL0     C78896   4.655   6.605  10.741 -0.2816  0.7248 -0.1644
  585MOL0     C78897   4.563   6.591  10.841 -0.0851  0.0036  0.2968
  585MOL0     O78898   4.555   6.461  10.906  0.0741  0.0193 -0.2744
  585MOL0     C78899   4.680   6.433  10.973  0.1355 -0.9249 -0.3933
  585MOL0     C78900   4.635   6.346  11.098 -0.1659  0.2024  0.7367
  585MOL0     C78901   4.596   6.210  11.043  0.0874 -0.3846 -0.3113
  585MOL0     C78902   4.549   6.129  11.164  0.4618  0.6494  0.1381
  585MOL0     C78903   4.653   6.097  11.260  0.1167  0.2104 -0.2766
  585MOL0     C78904   4.746   6.066  11.334 -0.1318 -0.3975 -0.1574
  585MOL0     C78905   4.480   6.690  10.880 -0.1357 -0.3571 -0.0446
  585MOL0     C78906   4.507   6.824  10.833 -0.3055 -0.3524  0.8918
  585MOL0     C78907   4.418   6.926  10.903  0.5775 -0.0915  0.5819
  585MOL0     H78908   4.714   6.984  10.309  0.0154 -0.2867  1.3793
  585MOL0     H78909   4.762   7.156  10.165 -1.7708 -3.2597 -0.0958
  585MOL0     H78910   4.955   7.247  10.096  1.1061 -0.5028 -0.5773
  585MOL0     H78911   4.832   7.351  10.043 -0.8979  0.4717  0.8674
  585MOL0     H78912   5.009   7.550  10.045  0.9227 -0.3760 -0.1396
  585MOL0     H78913   5.042   7.424   9.925  0.1069  0.4836  0.3769
  585MOL0     H78914   5.218   7.332  10.079  1.7845  0.1864 -1.0401
  585MOL0     H78915   5.170   7.431  10.203 -1.9374 -1.6346 -0.1436
  585MOL0     H78916   5.279   7.562   9.945  1.9606 -0.6202 -0.0656
  585MOL0     H78917   5.207   7.635  10.088 -1.5489 -1.6415  0.5402
  585MOL0     H78918   5.455   7.614  10.112  1.5671 -0.4898  0.7917
  585MOL0     H78919   5.400   7.486  10.218  3.1866 -0.3739 -0.3733
  585MOL0     H78920   5.443   7.320  10.056 -0.4076 -0.3649  0.4499
  585MOL0     H78921   5.485   7.434   9.933 -1.6256  0.8683  0.7639
  585MOL0     H78922   5.621   7.390  10.196 -0.5075 -3.0526 -0.2164
  585MOL0     H78923   5.675   7.518  10.080  1.7069 -0.5460 -1.2656
  585MOL0     H78924   5.702   7.222  10.043 -1.9524  0.2333 -1.0213
  585MOL0     H78925   5.704   7.345   9.909 -0.8356  2.7645  1.3452
  585MOL0     H78926   5.977   7.182   9.949 -3.1275  0.4611 -2.9820
  585MOL0     H78927   6.286   7.324  10.117 -0.3412 -1.1922  0.3116
  585MOL0     H78928   6.225   7.176  10.046  2.1160 -0.3823  0.4451
  585MOL0     H78929   6.192   7.289   9.827 -0.9847 -2.7618  1.9345
  585MOL0     H78930   6.258   7.444   9.881  1.9159  0.1676  1.4584
  585MOL0     H78931   6.413   7.194   9.864 -0.0341  0.0812  1.0258
  585MOL0     H78932   6.474   7.357   9.931 -0.1537  3.2717 -1.5486
  585MOL0     H78933   6.351   7.341   9.650 -0.0575 -3.7246 -0.4583
  585MOL0     H78934   6.507   7.277   9.672 -0.9120  1.8455 -2.7943
  585MOL0     H78935   6.628   7.584   9.913 -4.1973 -2.1162 -1.6513
  585MOL0     H78936   6.881   7.635   9.890  0.2483  1.9370 -0.6262
  585MOL0     H78937   7.318   7.552   9.664  1.2507  2.5059 -2.5656
  585MOL0     H78938   7.548   7.605   9.718 -1.6415 -2.3551 -1.6924
  585MOL0     H78939   7.753   7.673   9.776 -0.1494  0.1229 -1.0482
  585MOL0     H78940   7.719   7.848   9.730  1.3990 -0.3930 -0.4811
  585MOL0     H78941   7.842   7.896   9.955 -0.1218 -1.2266  2.6152
  585MOL0     H78942   7.929   7.752   9.925  2.2012  1.2314 -0.9845
  585MOL0     H78943   7.874   7.985   9.734 -2.2979 -0.3931  2.2569
  585MOL0     H78944   8.026   7.963   9.832  0.0072 -0.8478 -0.7460
  585MOL0     H78945   7.968   7.749   9.639  1.2596 -1.3374 -0.2913
  585MOL0     H78946   8.105   7.804   9.734 -1.4723 -0.6405  1.1522
  585MOL0     H78947   8.053   8.034   9.587 -2.7067  0.7546  1.5454
  585MOL0     H78948   8.024   7.902   9.472 -1.4299  1.5100  0.6023
  585MOL0     H78949   8.282   7.923   9.630 -1.2255 -0.8130  0.4297
  585MOL0     H78950   8.243   7.799   9.512 -2.5183  0.5480 -1.5835
  585MOL0     H78951   8.233   8.101   9.460 -0.0117 -0.6534 -1.1309
  585MOL0     H78952   8.228   7.968   9.333  2.7477 -1.7845 -0.5926
  585MOL0     H78953   8.441   8.116   9.356  1.4733  0.1577  0.9587
  585MOL0     H78954   8.472   8.029   9.500  2.5318 -0.7927 -1.4705
  585MOL0     H78955   7.408   7.892  10.003  0.3910 -0.7417  0.2884
  585MOL0     H78956   7.179   7.797   9.976 -1.8460 -2.4306 -1.2944
  585MOL0     H78957   6.895   7.470   9.497  1.1832 -1.7775  1.8778
  585MOL0     H78958   6.645   7.435   9.507  0.7811  1.9316 -0.7334
  585MOL0     H78959   4.948   7.373  10.486  2.0607 -1.3988  0.9234
  585MOL0     H78960   4.839   7.221  10.647 -0.6736  1.9254 -0.2916
  585MOL0     H78961   4.730   6.738  10.599 -2.1321 -1.0772 -1.8764
  585MOL0     H78962   4.711   6.516  10.715  0.2759  1.0429 -0.0645
  585MOL0     H78963   4.729   6.526  11.003  1.0788 -0.6704 -2.5398
  585MOL0     H78964   4.755   6.375  10.918  0.7373 -0.8487  0.3356
  585MOL0     H78965   4.546   6.391  11.145 -1.0278  1.4451 -1.8856
  585MOL0     H78966   4.719   6.336  11.166 -0.1833 -0.8397  0.6119
  585MOL0     H78967   4.685   6.165  10.999 -1.5181 -2.7813 -1.2973
  585MOL0     H78968   4.520   6.222  10.966  1.1068  0.3621 -1.2334
  585MOL0     H78969   4.469   6.186  11.213  0.3766 -1.6539  2.9159
  585MOL0     H78970   4.506   6.037  11.125  0.2001  1.8998 -2.7913
  585MOL0     H78971   4.844   6.046  11.372  0.9053  0.4618 -2.2056
  585MOL0     H78972   4.408   6.662  10.956 -1.3340  2.4856 -0.0162
  585MOL0     H78973   4.476   6.989  10.971  2.9463 -3.9214  2.4826
  585MOL0     H78974   4.369   6.980  10.822 -0.8237 -0.8088  0.9049
  585MOL0     H78975   4.332   6.881  10.954  0.0597  0.2194  0.0052
  586MOL0     O78976   4.835   8.528   1.476  0.5394 -0.4463  0.0620
  586MOL0     C78977   4.836   8.551   1.355  0.1275 -0.1539  0.1539
  586MOL0     O78978   4.948   8.573   1.285 -0.2343  0.4149 -0.0677
  586MOL0     C78979   5.070   8.537   1.323 -0.4403  0.3415 -0.2178
  586MOL0     C78980   5.152   8.612   1.414  0.0351 -0.4246 -0.0190
  586MOL0     C78981   5.288   8.578   1.440  0.7219  0.0117  0.3753
  586MOL0     C78982   5.337   8.449   1.388  0.8205  0.8137 -0.0943
  586MOL0     O78983   5.460   8.393   1.418 -0.0810  0.4524  0.3824
  586MOL0     C78984   5.555   8.479   1.476  0.2223  0.7700 -0.2758
  586MOL0     C78985   5.687   8.413   1.513 -0.3037  0.3674  0.3921
  586MOL0     C78986   5.800   8.422   1.405 -0.4344 -0.0998 -0.1614
  586MOL0     C78987   5.872   8.567   1.412  0.0935  0.6957  0.5227
  586MOL0     C78988   6.013   8.556   1.344  0.1242  0.3641  0.1716
  586MOL0     C78989   6.111   8.448   1.393 -0.3066  0.3159 -0.2207
  586MOL0     C78990   6.254   8.475   1.338  0.7639 -0.7186 -0.0900
  586MOL0     C78991   6.351   8.368   1.398 -0.0106 -0.1885  0.1712
  586MOL0     N78992   6.493   8.384   1.355  0.5065  0.8362 -0.7285
  586MOL0     C78993   6.530   8.344   1.234 -0.4222  0.1557  0.0113
  586MOL0     C78994   6.668   8.370   1.234  0.4699 -0.0527  0.0103
  586MOL0     C78995   6.772   8.347   1.129 -0.5840 -0.4642  0.3542
  586MOL0     C78996   6.835   8.206   1.155  0.2701 -0.5267  0.7195
  586MOL0     C78997   6.907   8.193   1.292  0.0216 -0.6220  0.7709
  586MOL0     C78998   7.011   8.299   1.320  0.2120  0.0493  1.3169
  586MOL0     O78999   7.120   8.277   1.230  0.0658 -0.5128  0.1046
  586MOL0     C79000   7.226   8.192   1.265  1.0790  0.1351  0.5793
  586MOL0     C79001   7.341   8.199   1.190 -0.2061  0.9548  0.0861
  586MOL0     C79002   7.447   8.111   1.223  0.3776  0.2492  1.2709
  586MOL0     C79003   7.451   8.041   1.340  0.1347  0.7300  0.4254
  586MOL0     C79004   7.582   7.984   1.377  0.7133  0.5307 -1.0220
  586MOL0     O79005   7.696   7.991   1.293 -0.3081 -0.7409 -0.1005
  586MOL0     C79006   7.818   8.003   1.336 -0.1432  0.1784 -0.8105
  586MOL0     C79007   7.915   8.003   1.239  0.3761 -0.8923 -0.3442
  586MOL0     C79008   8.051   8.011   1.263  0.2988 -0.2556  0.1003
  586MOL0     C79009   8.093   8.019   1.399  0.1325  0.3082 -0.4548
  586MOL0     O79010   8.226   8.016   1.414 -0.2279 -0.0119 -0.5384
  586MOL0     C79011   8.288   8.046   1.536 -0.2939 -0.4820  0.1129
  586MOL0     C79012   8.445   8.055   1.511 -0.0237 -0.1265 -0.8490
  586MOL0     C79013   8.543   8.073   1.642  1.5366  0.8394 -0.0557
  586MOL0     C79014   8.680   8.099   1.600 -0.5652 -0.1258 -0.1448
  586MOL0     C79015   8.763   8.131   1.722 -0.5928  0.8793  0.4246
  586MOL0     C79016   8.915   8.101   1.689  0.3637 -0.0891  0.0754
  586MOL0     C79017   9.005   8.157   1.797 -0.3225 -1.4371  1.1726
  586MOL0     C79018   9.138   8.107   1.785 -0.3461 -0.7343 -0.0497
  586MOL0    Cl79019   9.146   7.936   1.816 -0.1352 -0.3050 -0.2797
  586MOL0     C79020   7.997   8.017   1.505  0.3099 -0.8193  0.1821
  586MOL0     C79021   7.857   8.022   1.470 -0.4180  0.1228 -1.4101
  586MOL0     O79022   7.577   7.928   1.484  0.1520  0.0208  0.0498
  586MOL0     C79023   7.333   8.030   1.416 -0.7235  0.0152  0.2748
  586MOL0     C79024   7.229   8.115   1.382 -0.2837  0.1474  0.3912
  586MOL0     N79025   6.704   8.409   1.358 -0.2489 -0.1605 -0.1659
  586MOL0     N79026   6.602   8.412   1.433 -0.1340 -0.3838  0.1908
  586MOL0     C79027   5.255   8.370   1.302 -0.6307 -0.2897 -0.4309
  586MOL0     C79028   5.127   8.417   1.275 -0.3161 -0.2799 -0.4660
  586MOL0     C79029   4.705   8.553   1.280  0.5133 -0.3968  0.7756
  586MOL0     C79030   4.700   8.493   1.150  0.1310  0.4021 -0.9466
  586MOL0     C79031   4.596   8.504   1.065 -0.1897 -0.0189 -0.4319
  586MOL0     C79032   4.479   8.568   1.109 -0.4430 -0.2668 -0.0512
  586MOL0     O79033   4.386   8.592   1.009  0.4721 -0.3388 -0.5094
  586MOL0     C79034   4.254   8.632   1.055 -0.3005 -0.9465  0.8316
  586MOL0     C79035   4.167   8.647   0.935 -1.0792  0.2936  0.5801
  586MOL0     C79036   4.028   8.710   0.979 -0.0422  0.8241  0.0461
  586MOL0     C79037   3.910   8.664   0.888 -0.3402 -0.1455  0.5870
  586MOL0     C79038   3.783   8.723   0.923 -0.4098 -0.4609  0.2786
  586MOL0     C79039   3.676   8.782   0.941 -0.6397 -0.6843  0.3353
  586MOL0     C79040   4.472   8.610   1.244  0.1152 -0.2836 -0.6140
  586MOL0     C79041   4.583   8.606   1.331  0.1522 -0.6098  0.2187
  586MOL0     C79042   4.578   8.681   1.463  0.4244  0.5632 -0.7131
  586MOL0     H79043   5.100   8.699   1.453  0.0892  0.3775 -1.6801
  586MOL0     H79044   5.352   8.646   1.494  0.0829 -0.5190  1.8703
  586MOL0     H79045   5.576   8.563   1.409  1.3337  1.8266  1.3163
  586MOL0     H79046   5.516   8.516   1.571 -0.1434 -0.1726 -0.0490
  586MOL0     H79047   5.654   8.309   1.521  0.3775 -0.1618 -2.5219
  586MOL0     H79048   5.725   8.441   1.612 -1.3416 -2.1318  1.5769
  586MOL0     H79049   5.764   8.395   1.305 -0.3112  0.0686 -0.2516
  586MOL0     H79050   5.878   8.350   1.429 -0.6821 -0.6026 -0.8303
  586MOL0     H79051   5.817   8.648   1.363  1.2833 -0.6345 -3.4513
  586MOL0     H79052   5.876   8.587   1.519 -1.6685 -1.9041  1.1815
  586MOL0     H79053   5.995   8.543   1.237 -0.7314  1.7283  0.1215
  586MOL0     H79054   6.061   8.654   1.344  1.1662 -0.1329 -0.8096
  586MOL0     H79055   6.111   8.461   1.502 -2.2490 -1.5675  0.0558
  586MOL0     H79056   6.077   8.350   1.359  0.4092  0.0481 -0.1782
  586MOL0     H79057   6.285   8.577   1.363 -0.7274  0.4830 -2.7549
  586MOL0     H79058   6.265   8.460   1.230  1.3834 -1.3380  0.0504
  586MOL0     H79059   6.345   8.367   1.507 -1.8417 -2.4188  0.1210
  586MOL0     H79060   6.322   8.266   1.369  2.0517 -1.6875  2.9157
  586MOL0     H79061   6.468   8.303   1.155  2.1449 -0.4614 -1.8127
  586MOL0     H79062   6.737   8.359   1.026  4.8840  0.9684 -1.7062
  586MOL0     H79063   6.853   8.421   1.131 -2.0070  1.1544  0.6302
  586MOL0     H79064   6.763   8.123   1.152 -1.4825  0.9133 -2.3834
  586MOL0     H79065   6.912   8.186   1.080  1.2973  0.3290  1.5155
  586MOL0     H79066   6.953   8.094   1.289 -1.2040 -1.1881 -0.0718
  586MOL0     H79067   6.833   8.203   1.372  0.3362  2.4916  0.7983
  586MOL0     H79068   7.046   8.299   1.424 -0.2395  0.3712  1.4739
  586MOL0     H79069   6.967   8.399   1.318 -0.0100 -0.0278  1.9049
  586MOL0     H79070   7.335   8.248   1.094 -1.5663  0.0526 -0.3128
  586MOL0     H79071   7.536   8.099   1.161  1.8641 -0.8623  3.4786
  586MOL0     H79072   7.878   7.994   1.137 -1.5008 -0.5919  0.2733
  586MOL0     H79073   8.131   8.011   1.190 -0.3063  0.5055 -0.5834
  586MOL0     H79074   8.256   8.139   1.582  1.3110  1.0881 -1.7740
  586MOL0     H79075   8.270   7.970   1.613  0.9533  0.9298  1.8917
  586MOL0     H79076   8.470   7.965   1.454 -2.0507 -1.4081  0.1789
  586MOL0     H79077   8.455   8.139   1.442  2.1179  0.0784 -0.3581
  586MOL0     H79078   8.500   8.156   1.699  0.5202 -0.1976  0.7135
  586MOL0     H79079   8.535   7.978   1.694 -0.7082  2.1684  2.2177
  586MOL0     H79080   8.681   8.194   1.545  2.1058  1.5040  2.4007
  586MOL0     H79081   8.713   8.015   1.538  0.5335 -0.5134  0.9350
  586MOL0     H79082   8.746   8.064   1.807  1.9663 -0.7005 -0.1842
  586MOL0     H79083   8.754   8.236   1.750 -4.1955  0.1439  2.6035
  586MOL0     H79084   8.936   7.994   1.692  0.4027 -0.0686  2.3177
  586MOL0     H79085   8.943   8.153   1.596  0.6038 -0.0392  0.1763
  586MOL0     H79086   8.957   8.136   1.893  0.0107 -3.0496  1.0213
  586MOL0     H79087   9.010   8.265   1.778 -2.2646 -1.1947  1.7631
  586MOL0     H79088   9.191   8.129   1.692  0.6957 -1.7923  0.2699
  586MOL0     H79089   9.202   8.156   1.860  0.0857 -1.5350  0.1174
  586MOL0     H79090   8.033   8.027   1.607  1.2800 -1.2211 -0.1128
  586MOL0     H79091   7.786   8.030   1.552  1.6965  0.3296  0.5128
  586MOL0     H79092   7.337   7.966   1.504  0.5159 -1.6821 -0.9692
  586MOL0     H79093   7.153   8.117   1.459  1.9222  2.5178  2.7286
  586MOL0     H79094   5.293   8.274   1.270  0.3762 -0.5603  1.4270
  586MOL0     H79095   5.062   8.361   1.208 -1.0608  0.9817 -0.8373
  586MOL0     H79096   4.792   8.459   1.102 -0.1952  0.5299 -1.6768
  586MOL0     H79097   4.600   8.461   0.965  0.0574  0.6354 -0.7104
  586MOL0     H79098   4.257   8.733   1.097 -0.3317 -1.2957  1.6939
  586MOL0     H79099   4.209   8.563   1.127 -1.3273  0.6776  1.8023
  586MOL0     H79100   4.158   8.548   0.889 -1.2568 -0.4802  2.2238
  586MOL0     H79101   4.207   8.723   0.867 -2.1490 -1.2137 -1.9036
  586MOL0     H79102   4.034   8.819   0.984 -0.2322  0.8557 -0.3555
  586MOL0     H79103   4.005   8.676   1.080  1.9409 -1.4077 -0.1470
  586MOL0     H79104   3.926   8.696   0.784 -2.0285  0.0732  0.3639
  586MOL0     H79105   3.900   8.556   0.898 -2.5376 -0.3464 -2.3941
  586MOL0     H79106   3.583   8.834   0.948  0.1989  0.7499  1.3540
  586MOL0     H79107   4.377   8.644   1.284 -2.2574 -4.0494 -2.5600
  586MOL0     H79108   4.672   8.736   1.460  2.3176 -2.4568 -2.2248
  586MOL0     H79109   4.498   8.755   1.471 -0.9871 -1.0908  1.6960
  586MOL0     H79110   4.579   8.604   1.540 -0.6678  0.6797 -0.5705
  587MOL0     O79111   1.112   4.785   3.805 -0.9348 -0.4293  0.0025
  587MOL0     C79112   1.085   4.895   3.855 -0.7845  0.1938 -0.2636
  587MOL0     O79113   0.995   4.913   3.957 -0.4280 -0.0984 -0.3127
  587MOL0     C79114   0.951   4.800   4.016 -0.0280  0.4905  0.1346
  587MOL0     C79115   0.964   4.780   4.155 -0.4978 -0.4741  0.0099
  587MOL0     C79116   0.921   4.668   4.223 -0.4278 -0.0466  0.0869
  587MOL0     C79117   0.853   4.567   4.157 -0.9276 -0.0137  0.4321
  587MOL0     O79118   0.806   4.449   4.208  0.1177 -0.3832  0.3216
  587MOL0     C79119   0.782   4.437   4.352  0.2978  0.1728  0.5010
  587MOL0     C79120   0.668   4.524   4.396  1.1090 -0.1830  0.5631
  587MOL0     C79121   0.639   4.538   4.551 -0.1118  0.0931  0.2158
  587MOL0     C79122   0.754   4.533   4.644 -0.9238 -0.0284 -0.0859
  587MOL0     C79123   0.719   4.514   4.794 -0.3369  0.6112  1.0870
  587MOL0     C79124   0.850   4.531   4.878  0.6309  0.1331  0.5437
  587MOL0     C79125   0.820   4.531   5.027  0.1853  0.7485 -1.0624
  587MOL0     C79126   0.811   4.664   5.102 -0.0798 -0.4114  0.8637
  587MOL0     N79127   0.843   4.646   5.242 -0.3205 -0.4450 -0.8162
  587MOL0     C79128   0.968   4.663   5.297  0.0247 -0.0608 -0.3520
  587MOL0     C79129   0.949   4.634   5.430  1.0839 -0.6662  0.9665
  587MOL0     C79130   1.051   4.640   5.537  0.4747  0.5506  0.0485
  587MOL0     C79131   0.991   4.681   5.669  0.3481 -0.1865 -0.1967
  587MOL0     C79132   1.085   4.650   5.793 -1.0651 -0.0984  0.4527
  587MOL0     C79133   1.220   4.707   5.784  0.1583 -0.5016  0.6676
  587MOL0     O79134   1.296   4.680   5.907  0.9011 -0.1644  0.3362
  587MOL0     C79135   1.413   4.751   5.928  0.6359  0.9015 -0.0094
  587MOL0     C79136   1.492   4.793   5.821  0.6044 -0.2117  0.4428
  587MOL0     C79137   1.623   4.824   5.847 -0.3125 -0.1345  0.8285
  587MOL0     C79138   1.673   4.839   5.984  0.5294  0.0035  0.2673
  587MOL0     C79139   1.808   4.887   6.004  0.0279 -0.0327 -0.3946
  587MOL0     O79140   1.865   4.874   6.128 -0.5521  0.3595 -0.4662
  587MOL0     C79141   2.000   4.894   6.135 -0.0783  0.1123 -0.1755
  587MOL0     C79142   2.104   4.851   6.051  0.8988  0.4097 -0.2482
  587MOL0     C79143   2.234   4.864   6.097 -0.6704  0.1292  0.7692
  587MOL0     C79144   2.278   4.938   6.207  0.7169 -0.3154 -0.0581
  587MOL0     O79145   2.408   4.960   6.254 -0.5991 -0.2020  0.0921
  587MOL0     C79146   2.506   4.879   6.195 -0.0625  0.0856 -0.1990
  587MOL0     C79147   2.643   4.929   6.234  1.0208 -0.1801 -0.0234
  587MOL0     C79148   2.757   4.829   6.196  0.1267  0.2729 -0.5734
  587MOL0     C79149   2.879   4.864   6.284  0.6906  0.4043  0.1158
  587MOL0     C79150   3.006   4.784   6.236 -0.1855 -0.9257  0.3761
  587MOL0     C79151   2.985   4.648   6.169 -0.2160  0.1431  0.5838
  587MOL0     C79152   3.101   4.566   6.111  0.0221 -0.3640  0.5271
  587MOL0     C79153   3.197   4.549   6.226  0.3283 -0.4342 -0.0258
  587MOL0    Cl79154   3.322   4.429   6.178  0.1249 -0.2251 -0.2917
  587MOL0     C79155   2.179   4.994   6.286  0.4289  0.8012  0.2867
  587MOL0     C79156   2.037   4.972   6.249  0.4982 -0.3200 -0.7365
  587MOL0     O79157   1.861   4.939   5.901  0.1968  0.4183  1.2537
  587MOL0     C79158   1.582   4.797   6.080 -0.1134 -0.4940 -0.7426
  587MOL0     C79159   1.459   4.745   6.057  0.9777  0.6437  0.6624
  587MOL0     N79160   0.821   4.590   5.445 -1.6309  0.0892  0.2978
  587MOL0     N79161   0.753   4.605   5.339  0.4189 -0.1832 -0.4901
  587MOL0     C79162   0.834   4.578   4.015 -0.1665  0.0653 -0.3948
  587MOL0     C79163   0.876   4.702   3.953 -0.0766  0.7148  0.0926
  587MOL0     C79164   1.144   5.018   3.797 -0.1397  0.5936  0.1486
  587MOL0     C79165   1.087   5.145   3.822  0.2382  0.9952 -0.8312
  587MOL0     C79166   1.134   5.260   3.767  0.3825  0.0617 -0.0826
  587MOL0     C79167   1.252   5.259   3.690  0.8723 -0.1551 -0.8642
  587MOL0     O79168   1.300   5.363   3.626  0.0226  0.1120 -0.0132
  587MOL0     C79169   1.224   5.472   3.588 -0.8436  0.4065 -0.6683
  587MOL0     C79170   1.137   5.445   3.471 -0.3081 -0.2127 -0.2771
  587MOL0     C79171   1.051   5.563   3.425 -0.2254 -0.6018  0.0100
  587MOL0     C79172   0.939   5.514   3.328 -0.3097  0.4767  0.2861
  587MOL0     C79173   0.809   5.489   3.394  0.4392 -0.0886  0.3025
  587MOL0     C79174   0.703   5.473   3.451 -0.1554  0.0131  0.1579
  587MOL0     C79175   1.310   5.138   3.668  0.4537 -0.2969 -0.9121
  587MOL0     C79176   1.264   5.017   3.721 -0.4135 -1.1076 -0.0172
  587MOL0     C79177   1.341   4.889   3.696  1.1286 -0.1445 -0.4628
  587MOL0     H79178   0.995   4.853   4.228 -1.8058  1.0326 -0.8789
  587MOL0     H79179   0.936   4.653   4.329  1.8921 -1.1647 -0.3424
  587MOL0     H79180   0.751   4.332   4.360 -0.1880  0.3246  0.6344
  587MOL0     H79181   0.873   4.459   4.407  0.1303  1.4354  0.2887
  587MOL0     H79182   0.573   4.496   4.349  0.4050 -0.8932  2.3183
  587MOL0     H79183   0.684   4.626   4.362  0.6908  0.8221  3.1779
  587MOL0     H79184   0.581   4.447   4.570 -1.5605  1.4251  2.7915
  587MOL0     H79185   0.577   4.623   4.581  0.7179  0.7492  0.1014
  587MOL0     H79186   0.814   4.446   4.618  1.7844  1.5188  0.5900
  587MOL0     H79187   0.825   4.614   4.623  0.5769 -1.6035 -1.3486
  587MOL0     H79188   0.656   4.600   4.817  0.8932  0.9299  3.5968
  587MOL0     H79189   0.662   4.422   4.813 -0.3987  0.9810  2.8913
  587MOL0     H79190   0.923   4.452   4.860 -2.5769 -3.1443  0.6881
  587MOL0     H79191   0.902   4.626   4.861  0.7654  0.4578  2.4540
  587MOL0     H79192   0.893   4.469   5.080 -2.0489 -0.4625  0.7936
  587MOL0     H79193   0.725   4.480   5.046 -1.0356  0.7946 -5.7138
  587MOL0     H79194   0.888   4.736   5.070  0.5060  0.6035  4.1748
  587MOL0     H79195   0.710   4.705   5.095 -0.0630  0.2697  3.6717
  587MOL0     H79196   1.061   4.700   5.255  1.2597 -0.9155  1.4705
  587MOL0     H79197   1.099   4.542   5.544 -0.8367 -0.0810  0.6512
  587MOL0     H79198   1.124   4.714   5.505  1.3269 -0.0306  0.5999
  587MOL0     H79199   0.982   4.790   5.667  2.6680  0.1540  2.0051
  587MOL0     H79200   0.891   4.641   5.689 -1.0319  2.5420 -1.1754
  587MOL0     H79201   1.105   4.545   5.815  1.9986  0.2380 -0.2120
  587MOL0     H79202   1.055   4.704   5.883  0.7204 -1.6095  2.0441
  587MOL0     H79203   1.202   4.815   5.775 -1.4878 -0.8877 -1.3378
  587MOL0     H79204   1.282   4.667   5.703 -0.8226 -0.0093 -0.3593
  587MOL0     H79205   1.469   4.797   5.715  1.4328 -1.4572  0.1984
  587MOL0     H79206   1.676   4.846   5.755 -1.8420 -1.3957 -0.4184
  587MOL0     H79207   2.074   4.792   5.965  0.0132 -1.0670  1.0320
  587MOL0     H79208   2.304   4.813   6.031  0.3772  2.0604  0.3022
  587MOL0     H79209   2.502   4.772   6.221  2.5497  0.2015  0.9135
  587MOL0     H79210   2.492   4.888   6.087  0.0467  0.2883 -0.1956
  587MOL0     H79211   2.666   5.020   6.178  1.1752 -0.5058 -0.4957
  587MOL0     H79212   2.643   4.958   6.339 -1.9388 -1.6573  0.5019
  587MOL0     H79213   2.730   4.726   6.218  1.5000  0.3668  1.9135
  587MOL0     H79214   2.770   4.831   6.087 -1.7836 -2.8948 -1.0039
  587MOL0     H79215   2.856   4.838   6.387 -1.7473  0.3870 -0.3766
  587MOL0     H79216   2.886   4.973   6.282 -2.0470  0.6658  1.3828
  587MOL0     H79217   3.070   4.772   6.324  0.5340 -0.9744 -0.1419
  587MOL0     H79218   3.062   4.850   6.168 -1.2473  0.7786  1.0963
  587MOL0     H79219   2.931   4.582   6.238  0.7770 -0.4344  0.8311
  587MOL0     H79220   2.923   4.662   6.080  2.3381 -0.8536 -1.4647
  587MOL0     H79221   3.140   4.625   6.028 -1.9183  1.2752  0.6927
  587MOL0     H79222   3.060   4.475   6.067 -0.2404  0.2763 -0.5958
  587MOL0     H79223   3.238   4.647   6.250 -0.7713  0.0128  0.1205
  587MOL0     H79224   3.138   4.518   6.313 -0.7588  0.5300 -0.3822
  587MOL0     H79225   2.212   5.065   6.361 -0.1223  1.3497  0.0211
  587MOL0     H79226   1.954   5.015   6.304 -0.5573 -3.1893  0.0538
  587MOL0     H79227   1.609   4.795   6.185 -0.6900 -1.1920 -0.5979
  587MOL0     H79228   1.394   4.718   6.139  0.8627 -0.2400  0.2923
  587MOL0     H79229   0.784   4.499   3.959 -1.8920  1.2091 -0.5478
  587MOL0     H79230   0.868   4.713   3.845 -2.5446  0.2114  0.1486
  587MOL0     H79231   0.993   5.150   3.877  0.4834 -1.0118 -0.1372
  587MOL0     H79232   1.086   5.355   3.785  1.6245  0.2841  2.5530
  587MOL0     H79233   1.296   5.550   3.563  1.4206 -1.7956 -1.4407
  587MOL0     H79234   1.173   5.511   3.677 -1.7894  1.2809 -1.5717
  587MOL0     H79235   1.072   5.360   3.490 -0.1100 -0.0977  0.9619
  587MOL0     H79236   1.204   5.411   3.391  0.9933 -0.8923  1.0700
  587MOL0     H79237   1.115   5.639   3.378 -1.0924  0.3213  0.2983
  587MOL0     H79238   1.002   5.610   3.510 -4.0827 -0.9540 -1.8159
  587MOL0     H79239   0.932   5.584   3.244  5.1993 -2.5895 -3.3142
  587MOL0     H79240   0.961   5.413   3.292 -3.1696 -0.2774  0.3971
  587MOL0     H79241   0.623   5.467   3.522  1.8357  1.5242  2.7150
  587MOL0     H79242   1.394   5.144   3.600  2.5063  0.6430  1.5130
  587MOL0     H79243   1.441   4.910   3.656  0.8474  1.3895 -0.4379
  587MOL0     H79244   1.353   4.841   3.793  1.9199 -1.1466 -1.0386
  587MOL0     H79245   1.288   4.832   3.619  0.1861 -1.4757  1.1185
  588MOL0     O79246   4.571   5.019   9.349 -0.6515  0.7272 -0.2916
  588MOL0     C79247   4.500   5.013   9.250 -0.4339  0.9074  0.0586
  588MOL0     O79248   4.543   5.013   9.118  0.9734 -0.5911 -0.6634
  588MOL0     C79249   4.671   5.050   9.098 -1.1418 -0.5767  0.5781
  588MOL0     C79250   4.780   4.965   9.122 -0.1704 -0.4453 -0.4872
  588MOL0     C79251   4.916   5.015   9.113  0.7205  0.4608  0.7991
  588MOL0     C79252   4.941   5.145   9.077 -0.6862 -0.7944 -0.2712
  588MOL0     O79253   5.067   5.198   9.074 -0.1866  0.1846  0.1120
  588MOL0     C79254   5.162   5.133   9.166 -0.7213  0.0187 -0.3258
  588MOL0     C79255   5.308   5.198   9.165  0.0394 -0.0119 -0.3842
  588MOL0     C79256   5.300   5.348   9.192  0.4224  1.0585  0.3685
  588MOL0     C79257   5.433   5.422   9.185  0.1026  0.4799 -0.1156
  588MOL0     C79258   5.410   5.574   9.195  0.3034 -0.7840  0.4326
  588MOL0     C79259   5.537   5.646   9.231  0.3137 -0.3070 -0.1258
  588MOL0     C79260   5.505   5.795   9.232 -0.4632  0.1333  0.7420
  588MOL0     C79261   5.639   5.866   9.223 -0.0715 -0.5952  0.1994
  588MOL0     N79262   5.727   5.828   9.329  0.1803  0.2339  0.4321
  588MOL0     C79263   5.704   5.847   9.464  0.5450  0.7296  0.4532
  588MOL0     C79264   5.811   5.794   9.535  0.4396  0.0130 -0.3021
  588MOL0     C79265   5.816   5.796   9.688  0.0599  0.0326 -0.7004
  588MOL0     C79266   5.770   5.669   9.745 -0.3315  0.2680 -0.8047
  588MOL0     C79267   5.877   5.565   9.759  0.3227 -0.6037 -0.8955
  588MOL0     C79268   5.994   5.608   9.845  0.0835 -0.2039  1.0326
  588MOL0     O79269   6.045   5.501   9.921  0.0461 -0.3184 -0.2420
  588MOL0     C79270   6.162   5.532   9.998  1.0520  0.6435  0.4235
  588MOL0     C79271   6.159   5.543  10.138 -0.9516 -0.0001  0.9158
  588MOL0     C79272   6.278   5.574  10.208 -0.2813  0.1179  0.0064
  588MOL0     C79273   6.398   5.608  10.147  0.0764  0.2042  0.0544
  588MOL0     C79274   6.507   5.652  10.246 -0.4525  0.5682  0.2958
  588MOL0     O79275   6.468   5.693  10.376 -0.2039 -0.0462 -0.2013
  588MOL0     C79276   6.553   5.713  10.482 -0.1580  0.3440 -0.5705
  588MOL0     C79277   6.680   5.776  10.468  0.3210  0.2218 -0.3868
  588MOL0     C79278   6.762   5.799  10.577 -0.0978  0.1544  0.0264
  588MOL0     C79279   6.717   5.770  10.704 -0.7857 -0.9393 -0.5079
  588MOL0     O79280   6.803   5.826  10.800  0.1865 -1.5246 -0.2934
  588MOL0     C79281   6.758   5.825  10.941  0.3185 -0.0925  0.4648
  588MOL0     C79282   6.880   5.855  11.038 -0.3501  0.2209  0.6087
  588MOL0     C79283   6.998   5.780  10.987 -0.6940  0.0104 -0.0928
  588MOL0     C79284   7.106   5.792  11.098  0.1441  0.8358  0.0571
  588MOL0     C79285   7.223   5.697  11.064 -0.6322  0.4806 -0.9578
  588MOL0     C79286   7.325   5.697  11.185 -1.5301 -0.0773 -0.9792
  588MOL0     C79287   7.446   5.605  11.153  0.2738  0.3710 -0.3758
  588MOL0     C79288   7.569   5.664  11.222 -0.3933 -1.0363  0.8181
  588MOL0    Cl79289   7.704   5.544  11.235 -0.1688  0.2256  0.0325
  588MOL0     C79290   6.592   5.720  10.725  0.3461  0.4249 -0.2245
  588MOL0     C79291   6.509   5.686  10.608 -0.5422 -1.1959  0.1476
  588MOL0     O79292   6.624   5.650  10.213  0.2396  0.5664 -0.3140
  588MOL0     C79293   6.406   5.582  10.010  0.2189  0.6161  0.4384
  588MOL0     C79294   6.288   5.545   9.937 -0.2118 -0.4170  0.1737
  588MOL0     N79295   5.888   5.725   9.450 -0.0417 -0.9040  0.5758
  588MOL0     N79296   5.838   5.742   9.330 -0.3288 -0.2368 -0.6387
  588MOL0     C79297   4.833   5.226   9.034  0.2074 -0.6155  0.4920
  588MOL0     C79298   4.698   5.184   9.048  0.5898  0.5237  0.3045
  588MOL0     C79299   4.349   4.997   9.260 -0.5620  0.0291 -0.8248
  588MOL0     C79300   4.271   5.019   9.147  0.3130  0.3646 -0.0248
  588MOL0     C79301   4.140   4.987   9.140  0.5993 -0.1809  0.1357
  588MOL0     C79302   4.070   4.953   9.257 -0.1861  0.2130  0.4910
  588MOL0     O79303   3.933   4.939   9.265  1.1574 -0.1523  0.0980
  588MOL0     C79304   3.851   4.968   9.149 -0.2752 -0.2583 -0.6209
  588MOL0     C79305   3.701   4.966   9.183 -0.2850  0.2332  0.0440
  588MOL0     C79306   3.593   4.951   9.073  0.1492 -0.9920 -0.5202
  588MOL0     C79307   3.578   4.815   9.007 -0.4916  0.7168  0.1086
  588MOL0     C79308   3.632   4.819   8.869  1.1634  0.0198  0.1829
  588MOL0     C79309   3.660   4.826   8.755  0.2432 -0.1535 -0.3683
  588MOL0     C79310   4.143   4.941   9.374  0.5429  0.6554 -0.2713
  588MOL0     C79311   4.284   4.959   9.381 -0.3641  0.6238 -0.1709
  588MOL0     C79312   4.347   4.936   9.511  0.0011 -0.6688 -0.1655
  588MOL0     H79313   4.761   4.863   9.153 -0.5115 -1.0882 -2.6371
  588MOL0     H79314   4.991   4.950   9.157  0.8702  0.7192  0.9307
  588MOL0     H79315   5.125   5.127   9.269  3.9047 -1.4052  1.5114
  588MOL0     H79316   5.187   5.030   9.139 -1.0833 -0.4055  0.8777
  588MOL0     H79317   5.348   5.183   9.064 -2.0263  5.8954 -2.5162
  588MOL0     H79318   5.360   5.149   9.248 -0.6925  1.3444  0.9368
  588MOL0     H79319   5.252   5.358   9.290  0.7347 -0.8084  0.7524
  588MOL0     H79320   5.237   5.394   9.115 -0.3139 -0.6381 -0.0864
  588MOL0     H79321   5.493   5.399   9.274  2.1796 -0.8485 -1.7584
  588MOL0     H79322   5.482   5.392   9.092 -0.4577 -0.5113 -0.1081
  588MOL0     H79323   5.372   5.611   9.099 -3.4767 -0.0393  2.0444
  588MOL0     H79324   5.335   5.588   9.273  0.8969  0.6304  0.7769
  588MOL0     H79325   5.556   5.624   9.337 -0.3403 -0.4374 -0.0284
  588MOL0     H79326   5.620   5.626   9.163  0.1684 -2.9949  0.3701
  588MOL0     H79327   5.441   5.826   9.315  0.4246  0.8809  1.1657
  588MOL0     H79328   5.445   5.814   9.142  1.0609 -2.6986 -1.0305
  588MOL0     H79329   5.682   5.842   9.126 -1.1480  0.4269 -0.5486
  588MOL0     H79330   5.620   5.973   9.235  1.3511 -0.6294  4.7205
  588MOL0     H79331   5.604   5.875   9.497 -0.6580 -1.7075 -0.8618
  588MOL0     H79332   5.916   5.828   9.721 -0.5245  0.2669  0.9620
  588MOL0     H79333   5.758   5.880   9.726  0.0092  0.3734 -1.5258
  588MOL0     H79334   5.729   5.691   9.844  1.9728  0.2154  0.2161
  588MOL0     H79335   5.683   5.639   9.685  0.0412  1.1986 -1.8461
  588MOL0     H79336   5.911   5.545   9.657  0.8835 -0.6444 -0.6992
  588MOL0     H79337   5.817   5.483   9.800  0.6337  0.1000  1.0888
  588MOL0     H79338   5.974   5.692   9.913  1.4744  1.0468 -0.0098
  588MOL0     H79339   6.063   5.641   9.766 -1.2232 -1.5169 -0.7384
  588MOL0     H79340   6.068   5.528  10.195 -1.6938  1.6956  0.2511
  588MOL0     H79341   6.270   5.565  10.316  1.4678  0.3315  0.1757
  588MOL0     H79342   6.715   5.798  10.367  0.9591 -1.0421 -0.4573
  588MOL0     H79343   6.863   5.838  10.568 -0.6793  2.1686  1.5794
  588MOL0     H79344   6.676   5.894  10.963  0.0676 -0.2257 -0.0563
  588MOL0     H79345   6.720   5.725  10.962  0.7358 -0.0148  1.6972
  588MOL0     H79346   6.904   5.961  11.028 -0.0394  0.0943 -0.0198
  588MOL0     H79347   6.846   5.839  11.141 -2.2231  0.1256  0.0110
  588MOL0     H79348   6.974   5.676  10.964 -0.5273 -0.7975  2.9001
  588MOL0     H79349   7.022   5.828  10.891 -0.7410  1.5800  0.6465
  588MOL0     H79350   7.062   5.770  11.196 -2.8771  1.9595 -0.9342
  588MOL0     H79351   7.151   5.891  11.108 -1.2468  1.4871  0.1350
  588MOL0     H79352   7.265   5.727  10.967 -0.7853 -1.9154 -1.8186
  588MOL0     H79353   7.186   5.596  11.049  0.8735 -0.2524 -0.0271
  588MOL0     H79354   7.362   5.800  11.193  1.9406 -0.9418 -3.6533
  588MOL0     H79355   7.287   5.669  11.284  1.0090  0.7882  0.3565
  588MOL0     H79356   7.463   5.580  11.048 -1.1976  0.0353 -0.5677
  588MOL0     H79357   7.433   5.507  11.200 -1.0085  0.1184 -1.2011
  588MOL0     H79358   7.595   5.753  11.163 -1.0084 -1.8239 -0.6646
  588MOL0     H79359   7.544   5.687  11.326  1.5541  0.9010  0.9385
  588MOL0     H79360   6.549   5.686  10.819  0.6966 -2.3330 -0.9553
  588MOL0     H79361   6.412   5.640  10.624 -0.3428 -1.1051  1.7885
  588MOL0     H79362   6.501   5.583   9.957 -0.3715 -5.1524 -1.4623
  588MOL0     H79363   6.290   5.544   9.828 -1.7827  1.7068  0.0552
  588MOL0     H79364   4.851   5.323   8.987 -0.0682 -1.5465 -1.6845
  588MOL0     H79365   4.612   5.248   9.028 -1.3471 -1.1432  2.7280
  588MOL0     H79366   4.321   5.048   9.056 -0.4779 -1.9805 -1.2669
  588MOL0     H79367   4.091   5.003   9.045 -0.7101  2.0161  1.1038
  588MOL0     H79368   3.874   4.892   9.074  3.1305  0.6559 -0.6751
  588MOL0     H79369   3.874   5.065   9.104  0.8339  1.1199  2.6012
  588MOL0     H79370   3.676   5.055   9.241 -0.6255  0.3722 -0.3074
  588MOL0     H79371   3.707   4.879   9.250  2.5380  1.3910  1.4697
  588MOL0     H79372   3.609   5.020   8.990  1.7408 -0.7266 -0.0346
  588MOL0     H79373   3.495   4.978   9.112  0.4467 -0.3899 -0.1757
  588MOL0     H79374   3.622   4.735   9.067 -0.4646 -0.6021 -1.6008
  588MOL0     H79375   3.472   4.789   9.000 -0.5460  1.0783 -0.5142
  588MOL0     H79376   3.689   4.831   8.652 -0.4781  2.2334 -0.5263
  588MOL0     H79377   4.091   4.924   9.467  1.6430 -0.5154  0.1574
  588MOL0     H79378   4.385   5.026   9.559  1.6594 -1.3579 -0.1068
  588MOL0     H79379   4.283   4.876   9.577 -0.1654 -1.1820 -0.7738
  588MOL0     H79380   4.431   4.870   9.486  1.6414  1.8786 -1.8961
  589MOL0     O79381   3.388   0.324   4.754  0.0785  0.0586  0.3364
  589MOL0     C79382   3.401   0.208   4.764 -0.1729  0.2696  0.6564
  589MOL0     O79383   3.521   0.136   4.749 -0.6291 -0.4332  0.6258
  589MOL0     C79384   3.628   0.190   4.679  0.1629  0.0485  0.1132
  589MOL0     C79385   3.754   0.138   4.704  0.3177  0.4842  0.4218
  589MOL0     C79386   3.861   0.159   4.618  0.0705 -0.5264 -1.1579
  589MOL0     C79387   3.844   0.238   4.503  0.3762 -0.7094  0.0400
  589MOL0     O79388   3.943   0.267   4.409 -0.2401  1.0137 -0.8094
  589MOL0     C79389   4.078   0.223   4.428  0.2834  0.3325  0.2429
  589MOL0     C79390   4.163   0.279   4.318  0.0503  0.2116 -0.4808
  589MOL0     C79391   4.307   0.224   4.333 -0.4015 -0.8929  0.8215
  589MOL0     C79392   4.391   0.291   4.215 -0.0560  0.5844  0.2601
  589MOL0     C79393   4.547   0.291   4.231  0.3353  0.0680 -0.8000
  589MOL0     C79394   4.621   0.352   4.112 -0.2187  0.1936 -0.0934
  589MOL0     C79395   4.769   0.321   4.118  0.0072  0.0448 -0.3806
  589MOL0     C79396   4.855   0.343   4.244  0.2585 -0.2291  0.0528
  589MOL0     N79397   4.967   0.254   4.235  1.0834 -0.7402  0.0567
  589MOL0     C79398   5.063   0.262   4.134 -0.1285 -0.1835  0.4583
  589MOL0     C79399   5.127   0.146   4.163 -0.1226 -0.0786  0.2015
  589MOL0     C79400   5.254   0.110   4.092 -0.4455  0.6625  0.1094
  589MOL0     C79401   5.364   0.227   4.082  0.0222 -0.0142  0.2446
  589MOL0     C79402   5.509   0.186   4.080 -0.0783 -0.1901  0.6434
  589MOL0     C79403   5.609   0.302   4.091 -0.1744 -1.1363 -0.1308
  589MOL0     O79404   5.736   0.235   4.100  0.4769 -0.2781  1.3090
  589MOL0     C79405   5.839   0.310   4.127 -0.5105  0.0463 -1.2465
  589MOL0     C79406   5.839   0.441   4.168  0.6529  0.2442 -1.3382
  589MOL0     C79407   5.954   0.509   4.206 -0.6602  0.3428 -0.5301
  589MOL0     C79408   6.081   0.449   4.196  0.2639 -0.6513  0.7401
  589MOL0     C79409   6.206   0.512   4.233 -0.1231 -0.7491  0.0847
  589MOL0     O79410   6.316   0.438   4.214 -0.4136  0.3546  0.4553
  589MOL0     C79411   6.452   0.482   4.228 -0.0654 -0.4399 -1.4660
  589MOL0     C79412   6.506   0.609   4.242 -0.1079 -1.0701  0.1643
  589MOL0     C79413   6.636   0.632   4.277 -0.4256  0.0284 -0.6083
  589MOL0     C79414   6.722   0.521   4.285  0.3219  0.2348  0.1183
  589MOL0     O79415   6.855   0.521   4.315  0.1424  0.9337 -0.5465
  589MOL0     C79416   6.905   0.640   4.368 -0.2513  0.4576 -0.6901
  589MOL0     C79417   7.056   0.640   4.399 -0.1182 -0.4548 -0.2544
  589MOL0     C79418   7.149   0.537   4.329  0.0166  0.7180 -0.0135
  589MOL0     C79419   7.292   0.533   4.360 -0.8486 -0.1317  0.9252
  589MOL0     C79420   7.342   0.444   4.474 -0.3856  0.1258 -0.8253
  589MOL0     C79421   7.364   0.303   4.422  0.4763  0.5243  0.4302
  589MOL0     C79422   7.369   0.202   4.543 -0.5557  0.7561 -0.8340
  589MOL0     C79423   7.422   0.062   4.498 -0.3994  0.7886 -0.9891
  589MOL0    Cl79424   7.592   0.076   4.439  0.0428  0.1177  0.5654
  589MOL0     C79425   6.681   0.394   4.256 -0.0214  0.0149  0.4162
  589MOL0     C79426   6.542   0.375   4.234 -0.0002  0.2903  0.5196
  589MOL0     O79427   6.204   0.632   4.275 -0.4355  0.4030  0.3234
  589MOL0     C79428   6.081   0.323   4.145 -0.6673  0.6863  0.0379
  589MOL0     C79429   5.962   0.251   4.124 -1.0995 -1.3821  0.7759
  589MOL0     N79430   5.085   0.087   4.277 -0.6579 -0.3593  0.1658
  589MOL0     N79431   4.982   0.157   4.324  0.2763 -0.1105 -0.3166
  589MOL0     C79432   3.714   0.297   4.479 -0.2051  0.9461  0.6162
  589MOL0     C79433   3.608   0.268   4.564  0.7441 -0.3644  0.8924
  589MOL0     C79434   3.282   0.132   4.807  0.4252  0.1428  0.7969
  589MOL0     C79435   3.304   0.004   4.865 -0.6522 -0.1564  0.7472
  589MOL0     C79436   3.203  -0.078   4.909 -0.4745 -0.2110 -0.5078
  589MOL0     C79437   3.074  -0.023   4.913  1.0976 -0.8265  0.0756
  589MOL0     O79438   2.968  -0.076   4.983 -0.0132 -0.0336  0.8563
  589MOL0     C79439   3.000  -0.161   5.088  0.4143  0.1589 -0.0636
  589MOL0     C79440   2.874  -0.198   5.164  0.8617 -0.2536 -0.2854
  589MOL0     C79441   2.908  -0.281   5.290 -0.3061  0.2529 -1.0604
  589MOL0     C79442   2.785  -0.351   5.347  1.1086  0.3686  0.1334
  589MOL0     C79443   2.657  -0.273   5.350  0.2969 -0.6219  0.2168
  589MOL0     C79444   2.564  -0.192   5.360 -0.1811  0.2295  0.4789
  589MOL0     C79445   3.048   0.104   4.856  0.6577  0.7907  0.1438
  589MOL0     C79446   3.147   0.176   4.794 -0.3312  0.0888 -0.5322
  589MOL0     C79447   3.108   0.309   4.724  0.0594  0.7398  0.4181
  589MOL0     H79448   3.772   0.073   4.789 -0.3307  1.5191  1.3765
  589MOL0     H79449   3.954   0.107   4.638 -0.1416 -0.7872 -0.8438
  589MOL0     H79450   4.122   0.262   4.521  0.9892  2.0598 -0.7717
  589MOL0     H79451   4.075   0.114   4.430 -0.1303  0.3481  0.5936
  589MOL0     H79452   4.166   0.388   4.319 -1.2999  0.2617  0.9238
  589MOL0     H79453   4.127   0.258   4.217  1.0517  1.4872 -1.1350
  589MOL0     H79454   4.310   0.115   4.340 -1.2012 -0.8410  2.2169
  589MOL0     H79455   4.350   0.265   4.424 -0.6484  2.5400 -0.4581
  589MOL0     H79456   4.366   0.252   4.116 -0.8414 -1.1356  1.0899
  589MOL0     H79457   4.361   0.396   4.216 -1.5560  0.1675  1.2271
  589MOL0     H79458   4.565   0.359   4.315  1.5035 -2.4527  1.1550
  589MOL0     H79459   4.589   0.191   4.247 -0.3232  0.2171  2.8829
  589MOL0     H79460   4.585   0.308   4.019 -0.9067 -0.2239  0.3617
  589MOL0     H79461   4.598   0.459   4.105 -0.1601  0.1502 -1.0447
  589MOL0     H79462   4.818   0.382   4.042  1.8702  1.0775  1.5209
  589MOL0     H79463   4.785   0.214   4.099  1.4696 -0.1731  1.7138
  589MOL0     H79464   4.892   0.445   4.257 -0.7233 -0.0701  1.9951
  589MOL0     H79465   4.795   0.317   4.332  1.5146 -2.0667  0.3990
  589MOL0     H79466   5.072   0.338   4.057  0.4772  2.6457  3.0929
  589MOL0     H79467   5.295   0.020   4.139 -1.1731 -0.1773 -0.8354
  589MOL0     H79468   5.233   0.081   3.989 -1.5361  1.6178  0.0431
  589MOL0     H79469   5.343   0.295   3.999  0.6692 -0.1874 -0.0700
  589MOL0     H79470   5.350   0.278   4.178  1.3516  1.6795 -0.4209
  589MOL0     H79471   5.536   0.143   3.983 -1.1046  0.6156 -0.0266
  589MOL0     H79472   5.535   0.113   4.157 -1.0933 -1.4906 -0.2029
  589MOL0     H79473   5.594   0.379   4.167  1.7120 -0.0180 -0.8246
  589MOL0     H79474   5.612   0.360   3.998 -1.3922 -0.6356  0.1183
  589MOL0     H79475   5.744   0.491   4.182 -1.0709 -3.1888  0.5105
  589MOL0     H79476   5.947   0.606   4.254 -2.5497  0.5901 -1.2439
  589MOL0     H79477   6.445   0.699   4.241  2.0954  0.5088  0.4853
  589MOL0     H79478   6.664   0.736   4.290 -1.3062  0.0557  1.4640
  589MOL0     H79479   6.898   0.716   4.289 -0.0659  0.4237 -0.7397
  589MOL0     H79480   6.852   0.683   4.454  0.0379 -0.3297 -0.1131
  589MOL0     H79481   7.083   0.740   4.364 -1.0131  0.4846  1.5871
  589MOL0     H79482   7.076   0.634   4.507 -2.0557 -2.3002  0.0581
  589MOL0     H79483   7.112   0.434   4.326 -0.3993  0.8323  0.9391
  589MOL0     H79484   7.136   0.568   4.225  0.5711 -0.8974 -0.5991
  589MOL0     H79485   7.331   0.634   4.376  0.8695 -0.2339 -2.0584
  589MOL0     H79486   7.344   0.500   4.270  1.6544  1.6759  1.6038
  589MOL0     H79487   7.277   0.449   4.561  0.6878  0.7859 -0.0410
  589MOL0     H79488   7.434   0.483   4.518 -1.0244  0.9563 -0.2091
  589MOL0     H79489   7.281   0.268   4.358 -0.5780  2.7901  0.4603
  589MOL0     H79490   7.459   0.290   4.370  0.5272 -0.7896  0.8124
  589MOL0     H79491   7.270   0.188   4.588  0.7814 -1.6702  1.6499
  589MOL0     H79492   7.434   0.234   4.624 -0.7590 -3.8202  1.4470
  589MOL0     H79493   7.417  -0.010   4.580  0.3236  1.2588 -0.5117
  589MOL0     H79494   7.361   0.033   4.413  2.3710 -1.4618 -2.3587
  589MOL0     H79495   6.731   0.298   4.260 -0.7770 -0.4151 -0.0689
  589MOL0     H79496   6.520   0.270   4.217  3.9614 -0.5379 -0.6030
  589MOL0     H79497   6.173   0.264   4.142 -1.1685 -0.6138  4.1852
  589MOL0     H79498   5.973   0.156   4.073 -3.7042 -0.1852 -2.3867
  589MOL0     H79499   3.705   0.369   4.399  0.4263  2.2354  1.6752
  589MOL0     H79500   3.518   0.319   4.532  1.9617  1.3904  0.0901
  589MOL0     H79501   3.401  -0.045   4.864 -0.5907 -0.2001 -2.4943
  589MOL0     H79502   3.226  -0.174   4.952  0.5541  0.4933  0.5726
  589MOL0     H79503   3.071  -0.113   5.156 -1.6167  3.3217  0.0288
  589MOL0     H79504   3.047  -0.249   5.044  0.8620  0.5999 -0.4835
  589MOL0     H79505   2.802  -0.260   5.108  1.0429 -2.6864  1.9986
  589MOL0     H79506   2.824  -0.105   5.192  0.2636 -0.8757  0.7644
  589MOL0     H79507   2.956  -0.222   5.369 -1.2829  1.3810 -1.2837
  589MOL0     H79508   2.981  -0.358   5.262 -1.3558 -0.9532 -0.5663
  589MOL0     H79509   2.760  -0.438   5.285  0.9972  0.8616 -0.5179
  589MOL0     H79510   2.806  -0.392   5.446 -2.8641  0.3555  1.1378
  589MOL0     H79511   2.477  -0.128   5.366 -1.7736 -1.6672 -0.9712
  589MOL0     H79512   2.951   0.150   4.868 -0.3373 -1.0242 -0.6152
  589MOL0     H79513   3.141   0.303   4.620  0.1460 -0.5216  0.5028
  589MOL0     H79514   3.000   0.326   4.725  0.1001  1.8919 -2.9455
  589MOL0     H79515   3.148   0.401   4.767  0.6556  1.7072 -2.0104
  590MOL0     O79516   7.265   3.208   6.665  0.7637  0.8632  0.1005
  590MOL0     C79517   7.199   3.137   6.591 -1.5425  1.1460 -0.6652
  590MOL0     O79518   7.247   3.076   6.479  0.6535 -0.2499  0.6583
  590MOL0     C79519   7.376   3.107   6.443  0.4393  0.0406  0.1185
  590MOL0     C79520   7.412   3.228   6.376 -0.0769  0.3193  0.0151
  590MOL0     C79521   7.540   3.239   6.324 -0.2437 -0.0920 -0.1237
  590MOL0     C79522   7.641   3.145   6.350 -0.3156  0.1746  0.2228
  590MOL0     O79523   7.762   3.146   6.295  0.3389  0.2648 -0.0452
  590MOL0     C79524   7.827   3.272   6.262  0.2041 -0.4022  1.1453
  590MOL0     C79525   7.977   3.255   6.277  0.0269  0.0507 -0.6424
  590MOL0     C79526   8.027   3.390   6.225 -0.4223  0.1355 -0.1039
  590MOL0     C79527   8.178   3.416   6.252  0.0832 -0.3160  1.3784
  590MOL0     C79528   8.206   3.565   6.253  0.5121  0.3008  0.2670
  590MOL0     C79529   8.341   3.619   6.229 -0.3552  0.2714 -0.3869
  590MOL0     C79530   8.407   3.574   6.095  0.5100  0.2093  0.6204
  590MOL0     C79531   8.519   3.681   6.074 -0.6747 -0.3596 -0.8212
  590MOL0     N79532   8.580   3.684   5.944 -0.5384  0.1044 -0.0591
  590MOL0     C79533   8.617   3.566   5.877 -1.0786  0.4132 -0.1649
  590MOL0     C79534   8.698   3.616   5.779  0.5437  0.5183  0.4655
  590MOL0     C79535   8.771   3.542   5.675 -1.0414  1.0793 -0.0470
  590MOL0     C79536   8.895   3.475   5.726  0.7566 -0.6154 -0.1061
  590MOL0     C79537   9.015   3.570   5.742  0.2946  1.4075  0.6776
  590MOL0     C79538   9.136   3.509   5.800 -0.2650  0.0845 -0.8034
  590MOL0     O79539   9.232   3.616   5.796  0.0544  0.1389  0.1863
  590MOL0     C79540   9.359   3.566   5.773  0.4677 -0.4232 -0.4141
  590MOL0     C79541   9.407   3.439   5.784 -0.3066  1.3381  0.1897
  590MOL0     C79542   9.544   3.403   5.759  0.8468 -0.3622  0.9078
  590MOL0     C79543   9.642   3.495   5.735  0.3161 -1.2423  0.4697
  590MOL0     C79544   9.783   3.456   5.746 -0.1865  0.0796  0.0896
  590MOL0     O79545   9.821   3.343   5.815  0.1953  0.4149 -0.5076
  590MOL0     C79546   9.956   3.322   5.843  0.4320 -0.1055  0.4038
  590MOL0     C79547   9.996   3.197   5.870 -0.6284  0.0449  0.3858
  590MOL0     C79548  10.123   3.163   5.887 -0.4637  0.1371 -0.6617
  590MOL0     C79549  10.229   3.256   5.896  0.0076  0.3763  0.3944
  590MOL0     O79550  10.347   3.198   5.932 -0.2204 -0.3235  0.5048
  590MOL0     C79551  10.462   3.287   5.941  0.2906 -0.1720  1.5461
  590MOL0     C79552  10.589   3.216   5.990  0.3737  0.0795 -0.3332
  590MOL0     C79553  10.642   3.092   5.910  0.0727  0.3225 -0.4333
  590MOL0     C79554  10.692   2.991   6.003 -0.3711 -0.0575 -0.5005
  590MOL0     C79555  10.752   2.869   5.926 -1.0519 -0.2152 -0.0261
  590MOL0     C79556  10.859   2.892   5.826  0.1449  0.8034  0.5686
  590MOL0     C79557  10.977   2.983   5.885 -0.0622 -0.4505  0.2359
  590MOL0     C79558  11.114   2.910   5.837  1.3487  0.3508 -0.7296
  590MOL0    Cl79559  11.140   2.881   5.664 -0.0070 -0.1975 -0.1447
  590MOL0     C79560  10.197   3.393   5.874  0.1904  0.1425 -0.7586
  590MOL0     C79561  10.064   3.426   5.862  0.7898 -0.2171  0.4724
  590MOL0     O79562   9.854   3.538   5.692  0.0570  0.1271  0.1749
  590MOL0     C79563   9.596   3.629   5.730  0.0463 -0.9108 -0.2536
  590MOL0     C79564   9.462   3.662   5.760  0.6033  0.0010  0.5990
  590MOL0     N79565   8.709   3.751   5.792  0.2505  0.5992 -0.7245
  590MOL0     N79566   8.634   3.796   5.893  1.1578 -0.3791  0.0435
  590MOL0     C79567   7.602   3.034   6.419  0.1336  0.4255  0.1000
  590MOL0     C79568   7.474   3.013   6.469 -0.5489 -0.0448 -0.3281
  590MOL0     C79569   7.075   3.077   6.643 -0.1093  0.4602  0.0299
  590MOL0     C79570   7.020   2.967   6.576  0.2937 -0.0950  0.7893
  590MOL0     C79571   6.901   2.909   6.618 -0.2684 -0.2325  0.5595
  590MOL0     C79572   6.823   2.968   6.718 -0.2917 -0.7129  0.2543
  590MOL0     O79573   6.698   2.925   6.759  0.4101 -0.3774  0.8421
  590MOL0     C79574   6.630   2.829   6.669  0.3064 -0.1754  0.4028
  590MOL0     C79575   6.484   2.818   6.713  0.5450  0.0712 -0.1694
  590MOL0     C79576   6.470   2.702   6.815 -0.6765  0.4901 -0.2204
  590MOL0     C79577   6.317   2.691   6.874  0.4454 -0.0058 -0.3006
  590MOL0     C79578   6.312   2.580   6.973 -0.7261 -0.5167 -0.7180
  590MOL0     C79579   6.302   2.497   7.057  0.0520  2.1043  0.4554
  590MOL0     C79580   6.879   3.074   6.786 -0.5346  0.6455  0.3857
  590MOL0     C79581   7.004   3.128   6.753 -0.1420 -0.0029  0.8529
  590MOL0     C79582   7.043   3.243   6.832 -0.4677 -0.5068 -0.0579
  590MOL0     H79583   7.336   3.302   6.353  0.4927  1.2069  0.9067
  590MOL0     H79584   7.554   3.324   6.258 -1.8514  0.3545  0.0508
  590MOL0     H79585   7.811   3.284   6.154  0.5570 -1.1420  1.0019
  590MOL0     H79586   7.795   3.365   6.310 -1.9443 -0.8380  0.6480
  590MOL0     H79587   8.008   3.159   6.235 -1.7125  0.0223 -1.9831
  590MOL0     H79588   7.995   3.245   6.384  0.0334  1.0091 -0.5424
  590MOL0     H79589   7.967   3.474   6.262  1.4312  1.2414  0.5570
  590MOL0     H79590   8.024   3.398   6.116  0.7800  2.5484 -0.0459
  590MOL0     H79591   8.208   3.367   6.345  2.2051 -2.0152 -0.0935
  590MOL0     H79592   8.237   3.379   6.167 -0.3632  1.6080  0.1618
  590MOL0     H79593   8.148   3.619   6.177 -0.8942  0.2019  1.2281
  590MOL0     H79594   8.176   3.603   6.351  1.8781  1.1945  0.3642
  590MOL0     H79595   8.330   3.727   6.235 -4.3164 -0.0609  2.7038
  590MOL0     H79596   8.400   3.579   6.312 -2.3794 -2.3898 -0.0682
  590MOL0     H79597   8.342   3.591   6.009  0.9680  0.5261  0.3338
  590MOL0     H79598   8.451   3.473   6.098 -0.6947 -0.4201 -1.4645
  590MOL0     H79599   8.482   3.779   6.104 -0.5219 -0.6950  0.5289
  590MOL0     H79600   8.598   3.658   6.147 -0.5106 -0.5980 -1.0735
  590MOL0     H79601   8.589   3.464   5.902  0.2564 -0.1533 -0.8864
  590MOL0     H79602   8.701   3.467   5.636 -1.6186 -0.7543  4.0557
  590MOL0     H79603   8.793   3.608   5.591  0.3256  1.7822  0.8309
  590MOL0     H79604   8.875   3.424   5.821  1.0262  1.2260  0.9831
  590MOL0     H79605   8.927   3.403   5.650  2.3567  2.1814 -2.2602
  590MOL0     H79606   8.989   3.653   5.808  0.0548 -0.3168  2.8950
  590MOL0     H79607   9.039   3.609   5.643  0.9236  2.9066  1.3955
  590MOL0     H79608   9.170   3.417   5.752  3.6940  0.8407  0.2384
  590MOL0     H79609   9.121   3.480   5.904  3.5406 -1.0806 -0.4252
  590MOL0     H79610   9.327   3.372   5.811 -1.4601  2.5141 -0.1812
  590MOL0     H79611   9.573   3.299   5.763  2.0958 -0.1216 -0.8367
  590MOL0     H79612   9.924   3.118   5.888 -0.2521 -0.6463 -1.0162
  590MOL0     H79613  10.145   3.058   5.907 -0.9585 -0.3211 -2.2815
  590MOL0     H79614  10.479   3.321   5.839  1.5881 -0.9541  1.4809
  590MOL0     H79615  10.448   3.376   6.003 -1.3090  0.1221  0.8173
  590MOL0     H79616  10.672   3.287   6.002  0.3492 -0.2401  2.4124
  590MOL0     H79617  10.571   3.192   6.095  2.6497 -3.0484 -0.5224
  590MOL0     H79618  10.554   3.046   5.865 -2.1036  0.3084  3.4411
  590MOL0     H79619  10.717   3.120   5.835 -0.2719  1.4245 -0.3898
  590MOL0     H79620  10.609   2.969   6.072 -0.5961  2.0705 -0.0146
  590MOL0     H79621  10.767   3.029   6.072 -0.5937 -1.5766  0.6208
  590MOL0     H79622  10.679   2.818   5.862 -2.6942  1.5315  0.3983
  590MOL0     H79623  10.798   2.803   6.000  0.8731  0.5498 -0.4878
  590MOL0     H79624  10.891   2.798   5.779  1.2279  2.0993 -1.4520
  590MOL0     H79625  10.808   2.940   5.741 -0.7252 -0.3129  0.4332
  590MOL0     H79626  10.965   2.983   5.994  1.8918 -0.3574  0.4806
  590MOL0     H79627  10.968   3.083   5.842 -1.2516 -1.1090 -1.1734
  590MOL0     H79628  11.188   2.972   5.888  0.0024  0.6837  0.8980
  590MOL0     H79629  11.113   2.809   5.880  1.3871  0.4648 -0.4590
  590MOL0     H79630  10.263   3.478   5.880 -0.0975  0.5687 -3.0194
  590MOL0     H79631  10.037   3.531   5.855  1.4483  0.0166  1.2635
  590MOL0     H79632   9.661   3.716   5.728 -3.2778  1.7519 -0.8685
  590MOL0     H79633   9.430   3.765   5.761 -0.5401 -0.3020 -0.6326
  590MOL0     H79634   7.670   2.950   6.429 -0.4143 -0.3042 -1.9100
  590MOL0     H79635   7.444   2.923   6.520  0.4822 -0.0045  0.3590
  590MOL0     H79636   7.053   2.920   6.484 -0.9225 -0.1839  0.3737
  590MOL0     H79637   6.860   2.831   6.555 -0.7708 -0.2500  0.9025
  590MOL0     H79638   6.675   2.730   6.666 -0.7382 -0.7105  1.6511
  590MOL0     H79639   6.636   2.876   6.570 -0.2004  2.5321  1.5645
  590MOL0     H79640   6.427   2.799   6.622  1.4426  0.9825 -0.9543
  590MOL0     H79641   6.457   2.912   6.763 -1.4460 -2.3847  3.8426
  590MOL0     H79642   6.538   2.718   6.899 -0.7561 -2.7043  0.5583
  590MOL0     H79643   6.483   2.609   6.759 -1.1091  0.0715  0.3628
  590MOL0     H79644   6.294   2.791   6.911 -0.8178  0.8574 -3.1676
  590MOL0     H79645   6.254   2.670   6.787 -0.2726  2.5000 -0.4470
  590MOL0     H79646   6.302   2.411   7.121 -0.7259  1.6687 -0.1064
  590MOL0     H79647   6.817   3.116   6.864 -1.4620  0.9701 -0.4964
  590MOL0     H79648   7.072   3.325   6.765  0.0678  1.3439  2.2850
  590MOL0     H79649   6.956   3.285   6.885 -1.3529  2.2048 -3.2476
  590MOL0     H79650   7.128   3.223   6.898  0.8111  1.4148 -1.0078
  591MOL0     O79651   5.116   7.745   6.459 -0.5886  0.1287 -0.0963
  591MOL0     C79652   5.044   7.806   6.377  0.2345  0.7728 -0.3780
  591MOL0     O79653   5.077   7.928   6.314  0.4453 -0.1571 -0.4291
  591MOL0     C79654   5.199   7.979   6.314 -0.2995  0.2946 -0.3101
  591MOL0     C79655   5.212   8.086   6.394 -0.0774  0.0661  0.2909
  591MOL0     C79656   5.337   8.145   6.407 -1.1082  0.0534 -1.0336
  591MOL0     C79657   5.459   8.090   6.359  0.0274 -0.7860  0.3755
  591MOL0     O79658   5.569   8.162   6.382 -0.1899  0.0969  0.9083
  591MOL0     C79659   5.696   8.117   6.334  0.4387 -0.3380  0.6627
  591MOL0     C79660   5.810   8.189   6.401  0.3432 -0.2135 -0.5516
  591MOL0     C79661   5.946   8.145   6.337 -0.4520  0.1234 -0.9255
  591MOL0     C79662   6.070   8.223   6.399  0.5530 -0.2150  0.4281
  591MOL0     C79663   6.207   8.155   6.356 -0.2336  1.3855 -0.0168
  591MOL0     C79664   6.338   8.233   6.367  0.3356  0.1850 -0.1158
  591MOL0     C79665   6.358   8.306   6.504  0.3097 -0.1826  0.7795
  591MOL0     C79666   6.421   8.448   6.509  0.5541  0.3260  1.2556
  591MOL0     N79667   6.346   8.549   6.437 -0.4071 -0.5321 -0.2220
  591MOL0     C79668   6.211   8.576   6.456  0.4878  0.5469 -0.0195
  591MOL0     C79669   6.172   8.661   6.360 -0.4172 -0.2079 -0.0081
  591MOL0     C79670   6.036   8.710   6.334 -0.3546  0.7003 -0.4099
  591MOL0     C79671   5.976   8.663   6.203 -0.3598 -0.0635  0.1786
  591MOL0     C79672   5.821   8.651   6.201 -0.3167  0.5529 -1.0931
  591MOL0     C79673   5.784   8.531   6.283 -0.9698 -0.5166 -0.1074
  591MOL0     O79674   5.654   8.472   6.247 -0.6510 -1.0110 -0.1751
  591MOL0     C79675   5.539   8.545   6.277 -0.1407  0.2586 -0.4444
  591MOL0     C79676   5.530   8.654   6.359  0.7242 -1.2013 -0.3308
  591MOL0     C79677   5.403   8.715   6.397 -1.0411  0.1052  1.1367
  591MOL0     C79678   5.285   8.651   6.358  0.2043  0.3917 -0.2069
  591MOL0     C79679   5.155   8.704   6.395 -0.2066 -0.1230 -0.0239
  591MOL0     O79680   5.046   8.634   6.340  0.3303  0.3160 -0.0979
  591MOL0     C79681   4.920   8.688   6.336  0.1865  0.2055  0.7339
  591MOL0     C79682   4.848   8.698   6.210 -0.5031  0.8344  0.2810
  591MOL0     C79683   4.716   8.750   6.211 -0.1733  0.1157 -0.0517
  591MOL0     C79684   4.663   8.794   6.332 -0.0036  0.3242  0.5712
  591MOL0     O79685   4.539   8.850   6.316 -0.2019  0.5809 -0.1610
  591MOL0     C79686   4.482   8.932   6.423  0.0159  0.5497 -0.6882
  591MOL0     C79687   4.341   8.997   6.390 -0.0891  1.0427  0.3860
  591MOL0     C79688   4.235   8.885   6.387  0.2668 -0.3786 -0.4733
  591MOL0     C79689   4.106   8.958   6.369  0.1250  0.3469  0.0068
  591MOL0     C79690   3.988   8.869   6.392  0.4040  0.9696 -0.8367
  591MOL0     C79691   3.851   8.906   6.340 -0.2266  0.0979  0.3803
  591MOL0     C79692   3.734   8.848   6.428 -0.0481 -0.6869  0.7884
  591MOL0     C79693   3.608   8.831   6.339 -0.0696  0.0887  0.0445
  591MOL0    Cl79694   3.471   8.759   6.440  0.0869 -0.4004 -0.1733
  591MOL0     C79695   4.738   8.776   6.450  0.6988  0.7443  0.8457
  591MOL0     C79696   4.867   8.716   6.455  0.1341 -0.0263 -0.0668
  591MOL0     O79697   5.149   8.813   6.453  0.0453  0.1423  0.1008
  591MOL0     C79698   5.295   8.537   6.278 -0.5176 -0.0632  0.0790
  591MOL0     C79699   5.422   8.480   6.243  0.3246  0.5343  0.4090
  591MOL0     N79700   6.286   8.685   6.283 -0.2396 -0.5804  0.0441
  591MOL0     N79701   6.390   8.628   6.333  0.8674  0.9345  0.0086
  591MOL0     C79702   5.437   7.970   6.289 -0.1106 -0.3622 -0.1173
  591MOL0     C79703   5.310   7.923   6.261 -0.5022 -0.1622  0.3730
  591MOL0     C79704   4.904   7.752   6.371 -0.3504 -0.1200 -0.1134
  591MOL0     C79705   4.841   7.699   6.483 -1.2476  0.6928 -0.1092
  591MOL0     C79706   4.706   7.671   6.491  0.1029 -0.3324 -0.0985
  591MOL0     C79707   4.626   7.692   6.379 -0.3433  0.2863  0.7844
  591MOL0     O79708   4.500   7.657   6.406  0.4023  0.3735 -0.6513
  591MOL0     C79709   4.396   7.690   6.320  0.7830 -0.9344  0.7870
  591MOL0     C79710   4.324   7.559   6.307 -0.7844  0.5269 -0.4758
  591MOL0     C79711   4.395   7.450   6.217 -0.0018 -0.0304 -0.4563
  591MOL0     C79712   4.286   7.366   6.141  0.5620 -0.2286  0.7809
  591MOL0     C79713   4.208   7.278   6.239  0.0011  0.0057  0.6792
  591MOL0     C79714   4.135   7.205   6.299  0.3225  0.4607  0.7144
  591MOL0     C79715   4.690   7.744   6.259  0.1883  0.0291 -0.3122
  591MOL0     C79716   4.824   7.767   6.254 -0.2247 -1.3159 -0.2968
  591MOL0     C79717   4.881   7.820   6.117  0.2828 -0.1119 -0.8151
  591MOL0     H79718   5.119   8.122   6.438  1.2867  3.4760  0.7036
  591MOL0     H79719   5.356   8.231   6.471 -1.7969  0.4248 -1.3144
  591MOL0     H79720   5.702   8.008   6.341  0.6355 -0.4033 -0.3997
  591MOL0     H79721   5.709   8.146   6.229  0.0744  3.4187  1.5197
  591MOL0     H79722   5.813   8.156   6.505  1.5899 -0.7214 -0.7332
  591MOL0     H79723   5.812   8.298   6.391 -1.1938 -0.2462 -1.6330
  591MOL0     H79724   5.950   8.150   6.228 -1.1699 -2.9829 -1.1718
  591MOL0     H79725   5.958   8.039   6.363 -3.4172 -0.9690 -3.4781
  591MOL0     H79726   6.068   8.322   6.352  0.7853 -0.7016 -0.6388
  591MOL0     H79727   6.064   8.224   6.508 -0.6869  0.9299  0.3697
  591MOL0     H79728   6.213   8.061   6.412 -0.7374  0.8445 -0.8507
  591MOL0     H79729   6.211   8.123   6.251  0.6721 -1.1921  0.7172
  591MOL0     H79730   6.412   8.157   6.340 -0.8337  0.0105 -3.2563
  591MOL0     H79731   6.342   8.295   6.277  1.2367 -0.6389 -0.6664
  591MOL0     H79732   6.418   8.234   6.560  2.5561 -0.9518 -2.3312
  591MOL0     H79733   6.262   8.323   6.553  0.6944 -0.3053  1.6038
  591MOL0     H79734   6.421   8.475   6.615 -1.9092 -0.6702  1.5767
  591MOL0     H79735   6.526   8.442   6.479 -0.0485 -2.7996 -0.5926
  591MOL0     H79736   6.147   8.533   6.533  1.2327  0.7325  0.7149
  591MOL0     H79737   5.975   8.674   6.417 -0.4903 -0.9002 -1.1565
  591MOL0     H79738   6.046   8.819   6.336 -0.1543  0.6755  0.0859
  591MOL0     H79739   6.015   8.729   6.125 -0.1262  0.4533  0.7234
  591MOL0     H79740   6.007   8.560   6.183 -1.5782 -0.7871  1.8289
  591MOL0     H79741   5.787   8.623   6.100 -0.6894  1.0887 -1.1183
  591MOL0     H79742   5.776   8.745   6.234  2.4352  1.0499  1.7249
  591MOL0     H79743   5.792   8.562   6.387  3.3944 -0.9371 -0.1587
  591MOL0     H79744   5.864   8.457   6.277 -1.1981 -0.7922  0.2342
  591MOL0     H79745   5.619   8.714   6.375  0.6462 -1.2734  0.4235
  591MOL0     H79746   5.391   8.801   6.462 -2.1268  0.4978  0.4515
  591MOL0     H79747   4.891   8.658   6.118 -1.3083 -0.1870  0.3342
  591MOL0     H79748   4.662   8.761   6.118 -1.3812  1.2202  0.7497
  591MOL0     H79749   4.472   8.867   6.510  0.7322  1.4558  0.0830
  591MOL0     H79750   4.541   9.018   6.456 -1.0736  0.1606  2.6456
  591MOL0     H79751   4.317   9.076   6.462 -1.6245  0.2589  0.7760
  591MOL0     H79752   4.337   9.046   6.292  0.6290  0.8518  0.2593
  591MOL0     H79753   4.257   8.813   6.308  0.5872  0.2408 -0.9580
  591MOL0     H79754   4.233   8.835   6.484  0.7513  1.2328  0.4027
  591MOL0     H79755   4.096   9.000   6.268  1.4791  0.1460 -0.2345
  591MOL0     H79756   4.105   9.045   6.435  2.1227 -0.7555  1.5939
  591MOL0     H79757   3.975   8.860   6.501  0.9886 -0.7747 -0.8718
  591MOL0     H79758   4.006   8.767   6.358  2.3878 -0.4416  3.5786
  591MOL0     H79759   3.842   9.014   6.329  1.5550  0.0485 -2.4972
  591MOL0     H79760   3.865   8.870   6.237 -0.3467 -0.0905  0.4281
  591MOL0     H79761   3.715   8.925   6.504  1.8829  1.8339 -1.1102
  591MOL0     H79762   3.766   8.755   6.475  1.4428 -1.0631 -0.8905
  591MOL0     H79763   3.579   8.925   6.291 -1.0330 -0.3987 -0.3721
  591MOL0     H79764   3.621   8.765   6.253 -0.9040 -0.8177  0.5908
  591MOL0     H79765   4.692   8.815   6.540 -0.5726  0.5431  0.2945
  591MOL0     H79766   4.924   8.704   6.547  1.2877  0.3622 -0.7048
  591MOL0     H79767   5.205   8.488   6.242 -1.8023  1.3709  1.2140
  591MOL0     H79768   5.426   8.377   6.209  2.0438  0.1154  1.7340
  591MOL0     H79769   5.520   7.919   6.241  0.8168 -2.5553  3.4966
  591MOL0     H79770   5.294   7.848   6.184  1.7193  0.1626 -0.4849
  591MOL0     H79771   4.896   7.683   6.575  0.5009  2.2968 -0.8034
  591MOL0     H79772   4.661   7.631   6.582  0.5012 -0.1629  0.1793
  591MOL0     H79773   4.442   7.740   6.235 -4.4882  1.1272 -1.2438
  591MOL0     H79774   4.342   7.774   6.365  0.0487  0.6613 -2.7878
  591MOL0     H79775   4.225   7.574   6.261 -1.7834 -3.6435 -0.0255
  591MOL0     H79776   4.294   7.512   6.401  0.1166 -0.2868 -0.5806
  591MOL0     H79777   4.464   7.392   6.279  0.0905  0.2895 -0.2598
  591MOL0     H79778   4.444   7.498   6.133 -0.4862  0.9652 -0.1800
  591MOL0     H79779   4.215   7.424   6.082 -0.3475 -0.8781  1.2077
  591MOL0     H79780   4.337   7.299   6.072  0.0227  1.1861 -1.0611
  591MOL0     H79781   4.059   7.147   6.347  0.9003 -0.2339  0.7920
  591MOL0     H79782   4.631   7.781   6.176  0.2939  2.5244  0.6425
  591MOL0     H79783   4.910   7.925   6.110 -0.3165 -0.0251 -2.3635
  591MOL0     H79784   4.977   7.771   6.098  0.3854 -0.3697  0.2946
  591MOL0     H79785   4.810   7.789   6.040  0.1603 -2.2477  0.0936
  592MOL0     O79786   8.978  10.205   8.614  0.6459 -0.0802  0.2118
  592MOL0     C79787   8.966  10.304   8.688  0.4374  0.4137  0.8889
  592MOL0     O79788   9.070  10.368   8.758 -0.0739  0.5501  0.0825
  592MOL0     C79789   9.196  10.324   8.743 -0.7108 -0.0756 -0.0569
  592MOL0     C79790   9.298  10.418   8.741 -0.1563 -0.4444 -0.6489
  592MOL0     C79791   9.440  10.386   8.739  0.2080 -0.4981  0.6295
  592MOL0     C79792   9.474  10.252   8.746  0.0045  0.2448  0.5148
  592MOL0     O79793   9.603  10.205   8.758  0.0739  0.1588 -0.1289
  592MOL0     C79794   9.720  10.289   8.747  0.3162  0.0097  0.5210
  592MOL0     C79795   9.836  10.210   8.789 -0.0001  0.7920 -0.1759
  592MOL0     C79796   9.957  10.306   8.793  0.3754  0.3119  0.2388
  592MOL0     C79797  10.081  10.231   8.846  0.5070 -0.3851  0.7578
  592MOL0     C79798  10.197  10.328   8.874 -0.4343 -0.1025  0.2368
  592MOL0     C79799  10.331  10.268   8.908  0.3110  0.3319 -0.3843
  592MOL0     C79800  10.455  10.351   8.869 -0.6461  0.1538 -0.1500
  592MOL0     C79801  10.505  10.443   8.988 -0.4239 -0.0637  0.4937
  592MOL0     N79802  10.601  10.548   8.942  0.6900  0.2861 -0.5226
  592MOL0     C79803  10.708  10.527   8.857 -1.1208 -0.3201  0.0448
  592MOL0     C79804  10.753  10.650   8.838 -0.3353  0.0925 -0.1334
  592MOL0     C79805  10.862  10.697   8.741  1.0786 -0.2035  0.0815
  592MOL0     C79806  11.001  10.646   8.784  0.0594  0.4227 -0.2183
  592MOL0     C79807  11.100  10.660   8.669  0.7092 -0.3191  1.1056
  592MOL0     C79808  11.227  10.566   8.672  0.0327 -0.5169  0.3885
  592MOL0     O79809  11.307  10.599   8.781  0.7370  0.0490  0.2000
  592MOL0     C79810  11.441  10.558   8.767  0.4330 -0.3519  0.1211
  592MOL0     C79811  11.537  10.630   8.831 -0.3523  0.5676 -1.0880
  592MOL0     C79812  11.672  10.585   8.833 -0.4538  0.1664 -1.4131
  592MOL0     C79813  11.708  10.461   8.781  0.7737  0.3025  0.4218
  592MOL0     C79814  11.847  10.415   8.777 -0.0445 -0.8414 -0.2629
  592MOL0     O79815  11.934  10.485   8.862  0.2758  0.5577 -0.7904
  592MOL0     C79816  12.067  10.447   8.873 -0.8087  0.0837  0.2842
  592MOL0     C79817  12.165  10.467   8.774  0.3079 -0.0463  0.2917
  592MOL0     C79818  12.298  10.445   8.794  0.3617  1.3533 -0.2329
  592MOL0     C79819  12.346  10.384   8.919  0.3133  0.4052  0.9141
  592MOL0     O79820  12.483  10.359   8.934  0.5213  0.3952 -0.0808
  592MOL0     C79821  12.523  10.248   9.019  1.0125 -0.6103 -0.0360
  592MOL0     C79822  12.657  10.198   8.970  0.8312 -0.5990 -0.6118
  592MOL0     C79823  12.707  10.064   9.046  0.5707  0.4071 -0.2180
  592MOL0     C79824  12.861  10.041   9.046 -0.2478 -0.4264  0.2539
  592MOL0     C79825  12.907  10.069   8.903  0.2423 -0.3502 -0.0404
  592MOL0     C79826  13.030   9.981   8.875 -0.4124  1.4788  0.1135
  592MOL0     C79827  13.103  10.016   8.748  0.3779 -0.6183  0.2266
  592MOL0     C79828  13.190  10.142   8.757  0.2061  0.0345  0.0784
  592MOL0    Cl79829  13.320  10.113   8.880 -0.3386 -0.1717  0.2583
  592MOL0     C79830  12.251  10.358   9.019 -0.2726  0.1039 -0.0047
  592MOL0     C79831  12.116  10.388   8.991  0.1765  0.1052  0.0694
  592MOL0     O79832  11.871  10.318   8.704 -0.0120 -0.4359  0.8970
  592MOL0     C79833  11.608  10.386   8.712  0.3788 -0.1171 -0.1073
  592MOL0     C79834  11.482  10.440   8.703  0.9712 -0.0712  0.2838
  592MOL0     N79835  10.671  10.742   8.898 -0.3182 -0.0055 -0.0472
  592MOL0     N79836  10.575  10.680   8.961  0.2673  0.0048  0.3490
  592MOL0     C79837   9.368  10.150   8.751 -0.0664 -0.4732  0.2329
  592MOL0     C79838   9.238  10.195   8.754 -0.6561  0.3356  0.6059
  592MOL0     C79839   8.824  10.356   8.688  1.4478  0.3557 -0.1948
  592MOL0     C79840   8.804  10.462   8.778 -0.0456  0.4811 -0.5372
  592MOL0     C79841   8.674  10.515   8.800 -0.4584  1.3604 -0.6260
  592MOL0     C79842   8.570  10.470   8.726  0.1399 -0.3310  0.0828
  592MOL0     O79843   8.450  10.524   8.761 -0.3370  0.7771  0.1620
  592MOL0     C79844   8.323  10.470   8.712 -0.3732 -1.3217  0.1867
  592MOL0     C79845   8.203  10.542   8.781 -0.2713 -0.8506  0.5941
  592MOL0     C79846   8.191  10.685   8.726 -0.2619 -0.3753  0.3115
  592MOL0     C79847   8.071  10.769   8.773 -0.0966  0.1956  0.0502
  592MOL0     C79848   8.072  10.898   8.696 -0.2451  0.5096 -0.1776
  592MOL0     C79849   8.073  11.004   8.632  0.5685  0.3006 -0.0342
  592MOL0     C79850   8.595  10.378   8.627  0.3404  0.3181  0.0481
  592MOL0     C79851   8.718  10.318   8.597 -0.3203 -0.4047  0.3350
  592MOL0     C79852   8.728  10.209   8.491  0.3143 -0.0062 -0.7049
  592MOL0     H79853   9.255  10.518   8.741  0.2395 -0.2470 -2.4172
  592MOL0     H79854   9.511  10.468   8.751 -0.2070 -0.1155  0.4992
  592MOL0     H79855   9.718  10.313   8.641 -3.1244  0.1350  0.4846
  592MOL0     H79856   9.706  10.373   8.816 -1.2881  0.0594  0.1786
  592MOL0     H79857   9.857  10.131   8.716  0.6449  0.3934  0.4288
  592MOL0     H79858   9.837  10.162   8.887  0.3027 -0.7663 -0.9058
  592MOL0     H79859   9.933  10.380   8.869 -0.6139 -0.0617  0.2938
  592MOL0     H79860   9.993  10.345   8.697 -3.3996 -0.2325 -1.5797
  592MOL0     H79861  10.056  10.178   8.938  2.6637 -1.0083  1.0467
  592MOL0     H79862  10.109  10.160   8.768  0.4395 -0.7422  1.0576
  592MOL0     H79863  10.217  10.394   8.788 -1.1669 -1.5599 -1.1138
  592MOL0     H79864  10.176  10.400   8.953  0.1654 -1.1147  1.3495
  592MOL0     H79865  10.336  10.237   9.013 -1.0518 -1.3077 -0.7521
  592MOL0     H79866  10.338  10.170   8.859 -1.4700 -0.3208  0.5317
  592MOL0     H79867  10.434  10.412   8.780 -3.0711 -0.0225  0.2558
  592MOL0     H79868  10.535  10.279   8.848 -2.2222 -1.5813 -0.4584
  592MOL0     H79869  10.427  10.493   9.047 -1.6513  1.0470 -1.9256
  592MOL0     H79870  10.562  10.376   9.053  1.5719  0.8133 -0.2774
  592MOL0     H79871  10.749  10.439   8.810  0.3705  1.3764 -2.0057
  592MOL0     H79872  10.841  10.659   8.641 -0.9311 -2.2520  1.1755
  592MOL0     H79873  10.854  10.806   8.743 -0.3388 -0.2312  3.8212
  592MOL0     H79874  11.029  10.713   8.866  0.5039  0.7699 -0.6450
  592MOL0     H79875  10.995  10.543   8.822  0.7827 -0.1284 -1.5122
  592MOL0     H79876  11.129  10.766   8.673  1.4112 -0.4330 -0.3935
  592MOL0     H79877  11.051  10.645   8.573  0.0236 -1.3262  1.5970
  592MOL0     H79878  11.277  10.587   8.577  0.4334  0.1868  0.7505
  592MOL0     H79879  11.189  10.464   8.676 -1.0240 -0.3265 -2.5337
  592MOL0     H79880  11.512  10.725   8.878  0.5223  0.8312 -1.1191
  592MOL0     H79881  11.738  10.642   8.896  1.2797 -1.6110 -1.5046
  592MOL0     H79882  12.132  10.499   8.676 -0.2785 -0.4867  0.3390
  592MOL0     H79883  12.380  10.454   8.724 -0.1027  1.8832 -0.7214
  592MOL0     H79884  12.523  10.277   9.125 -2.9159  1.2348 -0.3503
  592MOL0     H79885  12.444  10.173   9.009 -0.2552  0.7210 -0.4501
  592MOL0     H79886  12.653  10.189   8.861  1.3675 -0.5689 -0.6342
  592MOL0     H79887  12.743  10.262   8.987  1.7362 -0.8960 -3.5547
  592MOL0     H79888  12.686  10.083   9.152 -1.5315  1.1543 -0.7239
  592MOL0     H79889  12.653   9.977   9.007  0.5966  1.2218 -2.1986
  592MOL0     H79890  12.883   9.940   9.082  0.7785 -0.7767 -1.2710
  592MOL0     H79891  12.894  10.112   9.122 -0.1996 -1.1509  0.9180
  592MOL0     H79892  12.931  10.176   8.896  0.1669 -0.2666  0.8132
  592MOL0     H79893  12.824  10.055   8.833  0.1715  0.1980 -0.0721
  592MOL0     H79894  13.091   9.998   8.965 -0.6477  1.4879  0.2710
  592MOL0     H79895  12.997   9.878   8.866 -0.2296  1.5516 -1.8070
  592MOL0     H79896  13.032  10.027   8.666  1.4281  0.3836 -0.5731
  592MOL0     H79897  13.174   9.936   8.723 -2.0944 -3.0440  0.4839
  592MOL0     H79898  13.244  10.170   8.666 -0.7684  3.3080  0.3810
  592MOL0     H79899  13.135  10.236   8.769  0.1757 -0.0589  0.7666
  592MOL0     H79900  12.269  10.315   9.117 -2.5919 -1.3729 -0.1445
  592MOL0     H79901  12.033  10.347   9.048  1.2560 -4.1947 -1.0801
  592MOL0     H79902  11.633  10.283   8.686  0.6029  0.2307 -1.3508
  592MOL0     H79903  11.412  10.376   8.650  1.7056 -0.5054 -0.1897
  592MOL0     H79904   9.388  10.045   8.770 -4.7042 -1.9394 -1.5599
  592MOL0     H79905   9.154  10.129   8.775 -0.8720 -0.0528 -1.3020
  592MOL0     H79906   8.885  10.518   8.825 -0.9943  2.6143 -1.3131
  592MOL0     H79907   8.643  10.594   8.867 -0.6876  2.0087 -1.4760
  592MOL0     H79908   8.314  10.364   8.735 -0.7367 -1.5456 -0.9430
  592MOL0     H79909   8.318  10.476   8.603  0.5659 -0.7559  0.1620
  592MOL0     H79910   8.218  10.528   8.889 -2.1621 -1.0230  0.8525
  592MOL0     H79911   8.112  10.487   8.761  0.2875 -1.8799  0.8186
  592MOL0     H79912   8.179  10.684   8.617  1.2930 -0.2278  0.1077
  592MOL0     H79913   8.288  10.730   8.750  1.0074 -1.2759 -2.6718
  592MOL0     H79914   7.983  10.710   8.745  2.0660 -3.1821 -0.1775
  592MOL0     H79915   8.072  10.800   8.878  0.8700  0.6168 -0.0793
  592MOL0     H79916   8.076  11.099   8.583  2.9301 -1.0188 -2.7218
  592MOL0     H79917   8.506  10.350   8.572  1.1134 -0.9559 -0.5647
  592MOL0     H79918   8.787  10.125   8.529  0.6770  0.7126  0.3561
  592MOL0     H79919   8.625  10.183   8.464 -0.0650  0.5909  0.1141
  592MOL0     H79920   8.782  10.238   8.400 -0.0737 -0.7842 -1.1914
  593MOL0     O79921   9.171   3.331   8.117  0.0382 -0.3014  0.1731
  593MOL0     C79922   9.095   3.245   8.084  0.1427  0.2300  0.3614
  593MOL0     O79923   9.132   3.123   8.038  0.4262 -0.3878 -0.1708
  593MOL0     C79924   9.258   3.076   8.010  0.4850 -0.7633 -0.4469
  593MOL0     C79925   9.260   2.943   7.974  0.1458  0.1455  0.2568
  593MOL0     C79926   9.374   2.885   7.931 -1.0477 -0.0049  0.2450
  593MOL0     C79927   9.498   2.961   7.929 -0.2612  0.1271 -0.2115
  593MOL0     O79928   9.616   2.899   7.893 -0.1597 -0.0611 -0.1403
  593MOL0     C79929   9.631   2.827   7.769 -0.4750  0.1844 -0.1077
  593MOL0     C79930   9.633   2.927   7.655  0.0905 -0.1078  0.7209
  593MOL0     C79931   9.689   2.866   7.526 -0.2493 -0.2524  0.4890
  593MOL0     C79932   9.595   2.772   7.450  0.4384 -0.7676 -0.7705
  593MOL0     C79933   9.641   2.728   7.312 -0.0298 -0.3543  0.1072
  593MOL0     C79934   9.748   2.619   7.311 -0.1705 -0.0903  0.1696
  593MOL0     C79935   9.763   2.564   7.167 -0.3373  0.5856  0.4032
  593MOL0     C79936   9.884   2.474   7.175 -0.4186 -0.4773 -0.0942
  593MOL0     N79937   9.863   2.353   7.250 -0.1705 -0.3871  0.0869
  593MOL0     C79938   9.781   2.253   7.207  0.1994  0.4903 -0.9471
  593MOL0     C79939   9.770   2.172   7.315 -0.3058  0.5057  0.1659
  593MOL0     C79940   9.686   2.047   7.313 -0.0076 -0.7188 -0.2482
  593MOL0     C79941   9.729   1.942   7.207  0.1161  0.0940 -0.7994
  593MOL0     C79942   9.833   1.843   7.242 -0.1969 -1.2196 -0.4286
  593MOL0     C79943   9.977   1.908   7.227  0.1560  0.6776  0.4435
  593MOL0     O79944  10.014   1.940   7.091  0.0628  0.2776  0.7737
  593MOL0     C79945  10.145   1.976   7.072  0.4196 -0.2891 -0.3786
  593MOL0     C79946  10.233   2.034   7.164 -0.0078  0.2318 -0.9715
  593MOL0     C79947  10.367   2.061   7.131 -0.0526  0.1591 -0.1240
  593MOL0     C79948  10.414   2.027   7.004 -0.2954 -0.2270 -0.0775
  593MOL0     C79949  10.555   2.064   6.962  0.0368  0.4064  0.5930
  593MOL0     O79950  10.584   2.054   6.831 -0.4554 -0.3898 -0.5030
  593MOL0     C79951  10.707   2.095   6.791 -0.8583  0.0864  0.1058
  593MOL0     C79952  10.744   2.230   6.819  0.3492 -0.1970  0.5389
  593MOL0     C79953  10.863   2.280   6.763  0.4268 -0.2707  1.1253
  593MOL0     C79954  10.935   2.197   6.678  0.2154  0.2788  0.2533
  593MOL0     O79955  11.038   2.239   6.603 -0.0219 -0.8231  0.7904
  593MOL0     C79956  11.148   2.301   6.666  0.4114 -0.3262  0.1101
  593MOL0     C79957  11.251   2.353   6.568  0.9437 -0.4667  0.1472
  593MOL0     C79958  11.377   2.418   6.634 -0.2555 -0.8170 -0.3829
  593MOL0     C79959  11.466   2.494   6.538  0.0562  0.2536 -0.1841
  593MOL0     C79960  11.501   2.420   6.413 -0.7552  0.5509  0.7903
  593MOL0     C79961  11.609   2.476   6.314  0.2601 -0.6450  0.4168
  593MOL0     C79962  11.749   2.474   6.375 -0.8037 -0.5412  0.3163
  593MOL0     C79963  11.790   2.613   6.433  0.5189 -0.1881 -0.0901
  593MOL0    Cl79964  11.960   2.608   6.477  0.2547 -0.1001  0.1519
  593MOL0     C79965  10.902   2.058   6.665  0.0768  0.2766  0.7666
  593MOL0     C79966  10.794   2.008   6.723  0.3390  0.4520 -0.0142
  593MOL0     O79967  10.641   2.081   7.050  0.1557 -0.1519  0.3028
  593MOL0     C79968  10.329   1.972   6.912  0.1116 -0.2716 -0.1727
  593MOL0     C79969  10.197   1.950   6.944  0.4683 -0.6818 -0.7530
  593MOL0     N79970   9.860   2.228   7.416 -0.0479  0.4478 -0.1016
  593MOL0     N79971   9.917   2.331   7.373 -0.1385  0.0411  0.4118
  593MOL0     C79972   9.499   3.086   7.988  0.1608  0.2136  1.3847
  593MOL0     C79973   9.378   3.152   8.019 -0.2595  0.0898  0.0546
  593MOL0     C79974   8.950   3.265   8.104  0.6686  0.5199 -0.5014
  593MOL0     C79975   8.855   3.176   8.042  0.3427  0.8909 -0.3307
  593MOL0     C79976   8.719   3.185   8.061 -0.0436 -0.2286  1.0248
  593MOL0     C79977   8.665   3.291   8.127  0.2403  0.5381 -0.6338
  593MOL0     O79978   8.530   3.310   8.122 -0.8013 -0.4386 -0.2708
  593MOL0     C79979   8.466   3.436   8.164 -0.4154  0.0543  0.4435
  593MOL0     C79980   8.319   3.433   8.122 -0.2566 -0.7165  0.3128
  593MOL0     C79981   8.243   3.316   8.188 -0.6604 -0.3788  0.1113
  593MOL0     C79982   8.100   3.292   8.148  0.4910 -0.5194  0.1000
  593MOL0     C79983   8.006   3.401   8.172 -0.1001 -1.2979  0.7198
  593MOL0     C79984   7.928   3.481   8.207  0.1364 -0.3999 -0.1260
  593MOL0     C79985   8.744   3.379   8.188 -0.0469 -0.8250 -0.2417
  593MOL0     C79986   8.886   3.372   8.178  0.4726  0.3453  0.2947
  593MOL0     C79987   8.956   3.483   8.246 -0.3641 -0.1459 -0.6010
  593MOL0     H79988   9.167   2.887   7.970 -0.0733  0.4649  0.7725
  593MOL0     H79989   9.377   2.777   7.924 -1.4437 -0.0971  1.2873
  593MOL0     H79990   9.720   2.763   7.766 -0.8479 -0.3627  0.2079
  593MOL0     H79991   9.549   2.756   7.757  0.9231 -1.7192  0.9758
  593MOL0     H79992   9.684   3.017   7.690  1.2350 -0.8943  1.1370
  593MOL0     H79993   9.528   2.952   7.637 -0.5796 -2.8775  0.3260
  593MOL0     H79994   9.782   2.815   7.550  1.5569  2.0013 -1.2665
  593MOL0     H79995   9.719   2.953   7.467  1.6693 -0.4843  1.0575
  593MOL0     H79996   9.567   2.692   7.519  0.4616  2.0143  2.7635
  593MOL0     H79997   9.499   2.821   7.431 -0.9384 -2.8806  0.3237
  593MOL0     H79998   9.555   2.703   7.250 -1.0921  0.5470  1.1512
  593MOL0     H79999   9.683   2.817   7.264 -0.8850  0.6887  1.2174
  593MOL0     H80000   9.835   2.669   7.355 -1.3484  3.3073 -1.0547
  593MOL0     H80001   9.715   2.528   7.363  1.0002 -0.0003  1.1018
  593MOL0     H80002   9.791   2.640   7.094  0.6762 -0.8355 -0.7396
  593MOL0     H80003   9.672   2.514   7.132 -0.0956 -1.7014  2.7697
  593MOL0     H80004   9.900   2.446   7.071  0.9926 -0.2621  0.0416
  593MOL0     H80005   9.969   2.534   7.208  2.0377 -3.8222  0.1679
  593MOL0     H80006   9.732   2.235   7.112 -2.4944  0.2442  0.3640
  593MOL0     H80007   9.692   2.005   7.414  1.5643 -0.4501 -0.2096
  593MOL0     H80008   9.582   2.077   7.297 -0.6546 -1.0320  2.7960
  593MOL0     H80009   9.640   1.880   7.193  0.4724 -0.6734  0.2160
  593MOL0     H80010   9.753   1.992   7.112 -2.8580  0.1227 -1.6341
  593MOL0     H80011   9.817   1.751   7.185 -0.8776 -0.4791 -1.4783
  593MOL0     H80012   9.815   1.813   7.345 -0.2087  1.2532  0.3552
  593MOL0     H80013  10.041   1.823   7.256  1.5319 -0.2606 -4.3025
  593MOL0     H80014   9.982   2.001   7.284 -2.1444  1.6713 -0.8454
  593MOL0     H80015  10.190   2.071   7.256  0.3808  0.2132 -0.7785
  593MOL0     H80016  10.432   2.117   7.199  0.6870  1.3416 -1.7223
  593MOL0     H80017  10.670   2.287   6.874  0.1979 -2.5648  3.0024
  593MOL0     H80018  10.893   2.382   6.783  3.4143 -1.2383  2.1544
  593MOL0     H80019  11.113   2.388   6.721  0.3655  0.1127 -0.6036
  593MOL0     H80020  11.202   2.233   6.733 -0.0098 -0.7822 -0.0055
  593MOL0     H80021  11.286   2.263   6.516  0.4527 -0.2418 -0.5847
  593MOL0     H80022  11.197   2.423   6.504  1.4033 -2.1238 -2.1903
  593MOL0     H80023  11.347   2.491   6.711 -0.4023  0.0954 -1.2752
  593MOL0     H80024  11.443   2.345   6.682 -0.2956 -1.8368 -1.8208
  593MOL0     H80025  11.562   2.531   6.576 -1.3869  1.9584  2.0326
  593MOL0     H80026  11.417   2.589   6.515  0.3840  0.4819  0.0481
  593MOL0     H80027  11.414   2.402   6.348  0.0602  1.7930 -0.7142
  593MOL0     H80028  11.531   2.327   6.462 -0.1255  0.0439 -0.5249
  593MOL0     H80029  11.594   2.421   6.221 -1.0836 -0.0903  0.2810
  593MOL0     H80030  11.576   2.575   6.284 -2.0142 -0.7592  2.2876
  593MOL0     H80031  11.822   2.449   6.298 -1.5914 -4.3711  0.6507
  593MOL0     H80032  11.749   2.402   6.458  0.2624  0.6769  1.4394
  593MOL0     H80033  11.783   2.684   6.350  2.0577  0.5113  0.3482
  593MOL0     H80034  11.720   2.646   6.511 -0.0376  0.4789 -0.8524
  593MOL0     H80035  10.960   1.997   6.597 -0.7015 -2.9486  2.7776
  593MOL0     H80036  10.759   1.905   6.717  2.1829 -0.2423  0.4762
  593MOL0     H80037  10.360   1.943   6.812 -4.4447 -1.1499 -1.5381
  593MOL0     H80038  10.128   1.922   6.865  0.5659 -2.4342 -0.2579
  593MOL0     H80039   9.590   3.144   8.000  1.2600 -0.9963 -0.7051
  593MOL0     H80040   9.383   3.245   8.075 -2.0917  1.1025 -1.3435
  593MOL0     H80041   8.891   3.086   7.993 -2.4903 -1.0303  0.8635
  593MOL0     H80042   8.661   3.109   8.009 -0.1060 -2.1464  3.7277
  593MOL0     H80043   8.502   3.523   8.108 -0.7322  0.3720  0.7369
  593MOL0     H80044   8.469   3.458   8.271  1.2155 -0.3225  0.5094
  593MOL0     H80045   8.299   3.424   8.015  2.9514 -0.4489 -0.4233
  593MOL0     H80046   8.285   3.531   8.156 -0.7677 -0.9632  0.5269
  593MOL0     H80047   8.246   3.337   8.295 -1.2246 -0.0227  0.0652
  593MOL0     H80048   8.309   3.230   8.176  1.0360  1.0848 -1.9821
  593MOL0     H80049   8.097   3.275   8.040  2.2249 -1.5817  0.1853
  593MOL0     H80050   8.059   3.208   8.204  0.6381 -0.3912  0.4086
  593MOL0     H80051   7.859   3.547   8.257  1.3215 -1.1374  2.7076
  593MOL0     H80052   8.695   3.457   8.246  0.5318  2.5775 -3.8784
  593MOL0     H80053   8.895   3.540   8.317 -1.3929  0.2431 -1.7589
  593MOL0     H80054   9.038   3.438   8.302  0.7782 -0.0055 -2.1158
  593MOL0     H80055   8.991   3.555   8.172 -0.8429 -0.5818 -1.2714
  594MOL0     O80056   9.946   5.331   5.708 -0.2708  0.4753  0.4733
  594MOL0     C80057   9.931   5.317   5.828  0.2807 -0.2995 -0.4664
  594MOL0     O80058  10.010   5.250   5.912  0.3904 -0.9029  0.0475
  594MOL0     C80059  10.130   5.210   5.853 -1.2567 -1.1597  0.1514
  594MOL0     C80060  10.248   5.281   5.879  0.4801 -0.5507 -0.5145
  594MOL0     C80061  10.366   5.237   5.823 -0.4964  0.3123 -0.8689
  594MOL0     C80062  10.379   5.120   5.741  1.3408 -0.8966 -0.7572
  594MOL0     O80063  10.495   5.081   5.679  0.2776 -0.1171  0.3315
  594MOL0     C80064  10.616   5.142   5.722 -0.7578 -0.1338 -0.2345
  594MOL0     C80065  10.731   5.063   5.657 -0.3398 -0.1629  0.1617
  594MOL0     C80066  10.861   5.141   5.663  0.3682 -0.6547  0.3553
  594MOL0     C80067  10.906   5.176   5.805  0.3991 -0.6351  0.2585
  594MOL0     C80068  11.005   5.293   5.785  0.2506 -1.0191 -0.7936
  594MOL0     C80069  11.144   5.264   5.711  0.1118 -0.5762  0.3506
  594MOL0     C80070  11.227   5.142   5.755 -0.3080  0.3043 -0.0696
  594MOL0     C80071  11.353   5.125   5.662 -0.7735  0.2630 -0.4625
  594MOL0     N80072  11.487   5.169   5.712  0.4248  0.2419  0.5217
  594MOL0     C80073  11.513   5.271   5.800  0.2015 -0.5425 -0.6488
  594MOL0     C80074  11.645   5.249   5.832  0.5461 -0.1055  0.6788
  594MOL0     C80075  11.722   5.350   5.913 -0.1596 -0.3351  0.2909
  594MOL0     C80076  11.690   5.346   6.066 -0.6103 -1.0463 -0.4470
  594MOL0     C80077  11.741   5.217   6.136 -0.3363  0.2955 -0.0279
  594MOL0     C80078  11.895   5.225   6.174 -0.3066  0.7569  0.9425
  594MOL0     O80079  11.926   5.326   6.277 -0.6548 -0.2631 -0.7494
  594MOL0     C80080  12.043   5.398   6.276 -0.1257  0.1630  0.8264
  594MOL0     C80081  12.060   5.499   6.379  0.1900 -0.0296  0.2490
  594MOL0     C80082  12.183   5.562   6.392  0.5928  0.6380  0.1075
  594MOL0     C80083  12.294   5.521   6.327  0.6488 -0.7031  0.1269
  594MOL0     C80084  12.429   5.587   6.336 -0.2975 -1.2173 -0.3909
  594MOL0     O80085  12.524   5.534   6.265 -0.3688  0.3392 -0.0497
  594MOL0     C80086  12.656   5.578   6.243  0.1533 -0.4503 -0.7018
  594MOL0     C80087  12.709   5.691   6.303  0.5623  0.2661 -0.5306
  594MOL0     C80088  12.840   5.715   6.301 -0.1691 -0.0630  0.0020
  594MOL0     C80089  12.930   5.634   6.240  0.6061  0.7508 -0.4400
  594MOL0     O80090  13.060   5.669   6.238 -0.6911 -0.3847 -0.1649
  594MOL0     C80091  13.163   5.583   6.198  0.3788  0.4883 -0.3533
  594MOL0     C80092  13.302   5.648   6.225 -0.1729 -0.8384 -0.3015
  594MOL0     C80093  13.403   5.535   6.226  0.1496  0.9290 -1.2972
  594MOL0     C80094  13.554   5.589   6.218  0.5107 -0.6210 -0.2188
  594MOL0     C80095  13.653   5.473   6.254 -0.3374 -0.1019 -0.6489
  594MOL0     C80096  13.786   5.529   6.204  0.5155  0.3418 -0.2627
  594MOL0     C80097  13.884   5.413   6.228  0.8749  0.0699 -1.1672
  594MOL0     C80098  14.032   5.455   6.230  0.2926  0.1602 -0.1151
  594MOL0    Cl80099  14.122   5.287   6.252  0.1787  0.2785 -0.1016
  594MOL0     C80100  12.883   5.517   6.178 -0.6383  0.1057 -0.0206
  594MOL0     C80101  12.748   5.491   6.177  0.0432  0.2996 -1.0219
  594MOL0     O80102  12.451   5.681   6.416  0.5004  0.5509  0.2688
  594MOL0     C80103  12.268   5.425   6.221 -0.3004 -0.3903 -0.0081
  594MOL0     C80104  12.148   5.366   6.197 -0.3839  0.2951 -0.0675
  594MOL0     N80105  11.696   5.154   5.754  0.6910  0.0812  0.1025
  594MOL0     N80106  11.605   5.110   5.681  0.2005 -0.0541 -0.4248
  594MOL0     C80107  10.257   5.051   5.707 -0.0437  0.2778 -0.5107
  594MOL0     C80108  10.143   5.088   5.777  0.2399 -0.3201  0.4516
  594MOL0     C80109   9.804   5.386   5.883 -0.0465 -0.3941  0.8201
  594MOL0     C80110   9.779   5.370   6.015  0.4693 -0.4145 -0.1894
  594MOL0     C80111   9.669   5.423   6.072  0.4731 -0.6220  0.5353
  594MOL0     C80112   9.577   5.492   5.990 -0.5762  0.3661 -0.5456
  594MOL0     O80113   9.473   5.547   6.060  0.4548 -0.1467  0.1322
  594MOL0     C80114   9.416   5.667   6.008  0.3707 -0.0639 -0.0469
  594MOL0     C80115   9.332   5.741   6.116  0.3544 -0.0580 -1.2346
  594MOL0     C80116   9.256   5.658   6.220  0.0578  0.0307  0.1933
  594MOL0     C80117   9.178   5.731   6.321  0.7988 -0.5490  0.3953
  594MOL0     C80118   9.260   5.816   6.414  0.4950 -0.0743  0.2558
  594MOL0     C80119   9.335   5.876   6.487 -0.1221 -0.3303 -0.9116
  594MOL0     C80120   9.591   5.507   5.856  0.3790 -0.0092 -0.3941
  594MOL0     C80121   9.702   5.449   5.800 -0.4466  0.1054 -0.6324
  594MOL0     C80122   9.710   5.458   5.649  0.0687 -0.0970 -0.4357
  594MOL0     H80123  10.241   5.366   5.945 -0.4544 -0.9587 -0.0694
  594MOL0     H80124  10.451   5.296   5.856  1.9304 -2.5765 -1.5317
  594MOL0     H80125  10.622   5.248   5.696 -1.7695 -0.4740 -2.0616
  594MOL0     H80126  10.634   5.120   5.828 -3.6160  2.2350  0.8674
  594MOL0     H80127  10.699   5.034   5.557  0.6323  1.5014 -0.6657
  594MOL0     H80128  10.742   4.974   5.720 -1.6890  0.7384  1.7544
  594MOL0     H80129  10.850   5.230   5.601  2.3392  1.7668  3.2336
  594MOL0     H80130  10.932   5.073   5.615  0.2582 -0.5152 -0.0137
  594MOL0     H80131  10.826   5.213   5.869  0.5066  1.5123 -0.7713
  594MOL0     H80132  10.955   5.093   5.858 -1.2887 -1.5296  0.4943
  594MOL0     H80133  10.949   5.371   5.733 -0.5271  0.9300  2.6736
  594MOL0     H80134  11.044   5.334   5.879  0.9748 -1.3647 -0.9338
  594MOL0     H80135  11.136   5.265   5.602  2.3989  1.8694  0.0686
  594MOL0     H80136  11.206   5.355   5.713  0.7392 -0.9636  3.9220
  594MOL0     H80137  11.156   5.059   5.749  0.7721 -0.8512  2.0134
  594MOL0     H80138  11.253   5.148   5.862  0.4700 -0.0427 -0.2356
  594MOL0     H80139  11.368   5.021   5.631  0.3758  1.1465 -3.1236
  594MOL0     H80140  11.337   5.177   5.567  0.0058  0.3038 -0.5780
  594MOL0     H80141  11.436   5.335   5.844 -0.8443 -2.6050  0.6594
  594MOL0     H80142  11.829   5.332   5.903 -0.2694 -0.6132 -0.5169
  594MOL0     H80143  11.699   5.448   5.869 -1.3404 -0.1359  1.2997
  594MOL0     H80144  11.729   5.431   6.122  0.9149 -2.5152  0.8320
  594MOL0     H80145  11.581   5.336   6.077 -0.7862 -0.8673 -1.8128
  594MOL0     H80146  11.715   5.129   6.076 -1.0467  1.1718 -1.0421
  594MOL0     H80147  11.691   5.210   6.233 -0.3233 -0.2792 -0.0566
  594MOL0     H80148  11.955   5.243   6.085  0.0312  1.6095  1.3282
  594MOL0     H80149  11.941   5.137   6.219  3.9290  0.6715 -2.9530
  594MOL0     H80150  11.974   5.528   6.439 -0.4917  0.4200 -0.9208
  594MOL0     H80151  12.190   5.650   6.456 -1.0921  0.1587  1.0123
  594MOL0     H80152  12.645   5.773   6.333  0.7513  0.5482 -0.8921
  594MOL0     H80153  12.874   5.811   6.338  2.1603 -1.0624  0.6264
  594MOL0     H80154  13.159   5.482   6.239 -2.2903  1.0011  0.8540
  594MOL0     H80155  13.149   5.568   6.091  4.4874  2.0232 -1.2766
  594MOL0     H80156  13.319   5.710   6.136  1.3507 -3.0528 -1.6448
  594MOL0     H80157  13.298   5.707   6.317 -0.2996  0.4112 -1.0834
  594MOL0     H80158  13.390   5.496   6.327 -0.9856  2.1262 -0.9525
  594MOL0     H80159  13.385   5.461   6.148  0.5863  0.7922 -1.2698
  594MOL0     H80160  13.573   5.663   6.296  4.3677  1.6045 -2.9175
  594MOL0     H80161  13.573   5.640   6.123  0.2175  3.0856  1.5480
  594MOL0     H80162  13.628   5.381   6.200 -0.9524 -1.8475  2.3873
  594MOL0     H80163  13.664   5.443   6.359 -0.7725 -1.9673 -1.0943
  594MOL0     H80164  13.773   5.561   6.101 -1.4842  1.9701  0.4341
  594MOL0     H80165  13.809   5.622   6.256  0.0569  1.7344 -2.4248
  594MOL0     H80166  13.861   5.340   6.150  0.1577  0.6442 -1.5082
  594MOL0     H80167  13.865   5.373   6.328  1.5908  2.0952 -0.1625
  594MOL0     H80168  14.065   5.506   6.139 -2.6710  0.1728 -1.3263
  594MOL0     H80169  14.055   5.515   6.319 -1.1485  2.0555 -0.9381
  594MOL0     H80170  12.951   5.448   6.130  1.2451  0.2420  2.2633
  594MOL0     H80171  12.702   5.399   6.141  3.8358 -2.0798 -0.2995
  594MOL0     H80172  12.344   5.389   6.153  0.2689  0.1811  0.3177
  594MOL0     H80173  12.134   5.307   6.107  0.2020  0.5628 -0.3412
  594MOL0     H80174  10.270   4.954   5.658 -0.9255 -1.1964  1.9825
  594MOL0     H80175  10.050   5.034   5.759  0.4488 -1.1353  1.6915
  594MOL0     H80176   9.833   5.301   6.079 -2.7133 -2.4039  0.5721
  594MOL0     H80177   9.660   5.414   6.180  1.2189 -1.5699  0.5357
  594MOL0     H80178   9.346   5.637   5.929 -0.5283  2.1881 -0.1637
  594MOL0     H80179   9.488   5.742   5.974 -1.6788  2.6346  1.2348
  594MOL0     H80180   9.264   5.817   6.076  0.7367  0.6637 -0.5399
  594MOL0     H80181   9.402   5.807   6.168  0.3743 -2.3035  1.8281
  594MOL0     H80182   9.335   5.606   6.274 -1.5098 -3.2596 -0.4662
  594MOL0     H80183   9.185   5.586   6.178 -0.0441 -2.2650  3.8889
  594MOL0     H80184   9.113   5.803   6.270  4.2413  1.8206 -1.0127
  594MOL0     H80185   9.116   5.660   6.377 -0.4977  0.8241  0.7954
  594MOL0     H80186   9.412   5.925   6.543 -1.3545 -0.8727  1.3834
  594MOL0     H80187   9.524   5.567   5.795  1.5514  0.7084 -1.0102
  594MOL0     H80188   9.622   5.499   5.598 -1.8452 -3.0233  0.2993
  594MOL0     H80189   9.802   5.509   5.619 -0.8022 -0.4004 -4.2071
  594MOL0     H80190   9.713   5.354   5.617  0.5460 -0.0731 -0.4764
  595MOL0     O80191   2.235   5.650   1.814 -0.3871 -0.6223  0.3228
  595MOL0     C80192   2.175   5.756   1.809  0.5974  0.0553 -0.1024
  595MOL0     O80193   2.236   5.871   1.771 -0.4194 -0.1953 -0.1683
  595MOL0     C80194   2.374   5.871   1.740  0.4110  0.4890 -0.7544
  595MOL0     C80195   2.463   5.882   1.837 -0.3117  0.4158 -0.0612
  595MOL0     C80196   2.598   5.887   1.805  0.5791  0.2241  0.0950
  595MOL0     C80197   2.646   5.883   1.669 -0.6827 -0.4986 -0.4353
  595MOL0     O80198   2.780   5.884   1.644  0.0823  0.6990  0.3787
  595MOL0     C80199   2.858   5.959   1.738  0.3107 -0.1971 -0.8061
  595MOL0     C80200   2.986   6.013   1.678 -0.3671 -0.1478 -0.3107
  595MOL0     C80201   3.090   6.075   1.782  0.2701  0.5912 -0.1404
  595MOL0     C80202   3.171   6.183   1.715  0.7525  0.2294  0.8700
  595MOL0     C80203   3.267   6.261   1.816 -0.1640  0.1400  0.0492
  595MOL0     C80204   3.290   6.400   1.762 -0.6626  0.2431 -0.6688
  595MOL0     C80205   3.174   6.500   1.772 -0.0388 -0.0427  0.1650
  595MOL0     C80206   3.078   6.501   1.891  0.8421  0.3361 -0.2278
  595MOL0     N80207   3.141   6.534   2.018 -0.0470 -0.5594 -0.5409
  595MOL0     C80208   3.084   6.612   2.119 -0.0124 -1.0892 -1.2961
  595MOL0     C80209   3.157   6.593   2.229  0.0640  0.2786  0.0590
  595MOL0     C80210   3.134   6.646   2.365  0.9433 -0.9953 -0.0828
  595MOL0     C80211   3.008   6.589   2.437  0.2492 -0.7780  0.9494
  595MOL0     C80212   3.045   6.514   2.566 -0.6684 -0.6161  0.0258
  595MOL0     C80213   2.925   6.434   2.633  0.5478 -0.6061  0.3559
  595MOL0     O80214   2.948   6.389   2.768 -0.4676 -0.2172 -0.2539
  595MOL0     C80215   3.075   6.331   2.800  0.1374 -0.4344  0.6291
  595MOL0     C80216   3.156   6.391   2.893 -0.3333  0.3657 -0.8037
  595MOL0     C80217   3.273   6.328   2.931  0.1278 -0.3996 -0.7139
  595MOL0     C80218   3.315   6.210   2.870 -0.8228  0.5416 -0.7196
  595MOL0     C80219   3.446   6.144   2.907 -0.9524  0.1688  0.3964
  595MOL0     O80220   3.505   6.054   2.821  0.3185  0.1578  0.5274
  595MOL0     C80221   3.620   5.981   2.841 -0.0171 -0.3588 -0.5871
  595MOL0     C80222   3.735   5.988   2.757 -0.3546  0.0489 -1.0229
  595MOL0     C80223   3.846   5.908   2.795  0.7471  0.0983  0.1206
  595MOL0     C80224   3.838   5.811   2.909 -0.0942 -0.4986 -1.9277
  595MOL0     O80225   3.933   5.719   2.935 -0.0593 -0.2409 -0.2532
  595MOL0     C80226   4.063   5.779   2.947 -0.9479 -0.1005  0.9730
  595MOL0     C80227   4.182   5.684   2.927 -0.5052 -0.0950 -0.4030
  595MOL0     C80228   4.199   5.653   2.774 -0.0136 -0.8358  0.2774
  595MOL0     C80229   4.315   5.571   2.728 -0.6079 -0.0039 -0.6001
  595MOL0     C80230   4.302   5.510   2.587 -0.0808 -0.4681 -0.0852
  595MOL0     C80231   4.273   5.614   2.484 -0.0126 -0.3727 -0.3220
  595MOL0     C80232   4.279   5.575   2.337  0.2393 -0.1902  0.0728
  595MOL0     C80233   4.183   5.462   2.314  0.0776  0.7346  0.6010
  595MOL0    Cl80234   4.172   5.422   2.132 -0.2912  0.0263  0.1744
  595MOL0     C80235   3.733   5.831   2.993  0.4079  0.3828 -0.2520
  595MOL0     C80236   3.627   5.911   2.961 -1.0076 -0.3111  0.5094
  595MOL0     O80237   3.488   6.172   3.013 -0.2693  0.0904 -0.4266
  595MOL0     C80238   3.236   6.156   2.773  0.4152  0.4849 -0.0909
  595MOL0     C80239   3.117   6.210   2.734  0.3502 -0.6193 -0.1931
  595MOL0     N80240   3.261   6.507   2.202 -0.8774 -0.8558  0.4199
  595MOL0     N80241   3.265   6.494   2.070  0.3334 -0.7839 -0.2074
  595MOL0     C80242   2.547   5.873   1.574 -0.2265  1.0139  0.7584
  595MOL0     C80243   2.416   5.863   1.610  0.0054 -0.4576  0.4760
  595MOL0     C80244   2.030   5.771   1.845  0.0298  0.6240  0.1503
  595MOL0     C80245   1.958   5.648   1.852 -0.2820  0.3755  0.0474
  595MOL0     C80246   1.819   5.646   1.877 -0.3473  0.4477  0.6913
  595MOL0     C80247   1.747   5.766   1.904 -0.3144  0.4161  0.0729
  595MOL0     O80248   1.606   5.754   1.916 -0.1906 -0.1053  0.2083
  595MOL0     C80249   1.526   5.863   1.955 -0.2656  0.0047  0.6143
  595MOL0     C80250   1.387   5.820   1.998  0.3352  0.8091  0.3389
  595MOL0     C80251   1.382   5.715   2.111  0.1373  0.5194  0.0222
  595MOL0     C80252   1.242   5.677   2.160  0.4861 -0.9469  0.3385
  595MOL0     C80253   1.167   5.787   2.212 -0.6823 -0.1986 -0.4445
  595MOL0     C80254   1.095   5.877   2.247 -0.4223 -0.2631  0.1028
  595MOL0     C80255   1.819   5.887   1.906  0.6867  0.4297 -0.0796
  595MOL0     C80256   1.954   5.892   1.870 -0.1948  0.4636  0.5108
  595MOL0     C80257   2.021   6.026   1.886 -0.4824  0.3428  0.2038
  595MOL0     H80258   2.429   5.869   1.939  1.2158 -0.7758  0.3247
  595MOL0     H80259   2.668   5.869   1.886 -0.0648  0.4549  0.7149
  595MOL0     H80260   2.811   6.051   1.775  2.2847  0.4183  0.3144
  595MOL0     H80261   2.881   5.891   1.820 -2.4238 -1.2573 -0.8335
  595MOL0     H80262   2.976   6.082   1.594  2.8021 -0.4638 -1.0792
  595MOL0     H80263   3.032   5.922   1.638 -2.8539 -1.6087 -0.0058
  595MOL0     H80264   3.150   6.004   1.839  0.0589  2.4917  2.6326
  595MOL0     H80265   3.028   6.120   1.859  0.6146 -2.7487  2.2820
  595MOL0     H80266   3.234   6.143   1.635 -0.4410  2.4034 -1.2847
  595MOL0     H80267   3.111   6.262   1.669  1.3932  1.9836  2.8721
  595MOL0     H80268   3.221   6.272   1.915 -1.2240  0.4399 -0.4624
  595MOL0     H80269   3.368   6.222   1.825 -0.4081 -1.6120 -3.2271
  595MOL0     H80270   3.368   6.450   1.822 -0.3919 -2.7206  1.6817
  595MOL0     H80271   3.327   6.385   1.661  1.5574 -0.2229  0.1448
  595MOL0     H80272   3.127   6.497   1.673  2.0676  0.2976 -0.9095
  595MOL0     H80273   3.221   6.599   1.773  3.3525 -1.4999 -1.2213
  595MOL0     H80274   3.000   6.575   1.871  0.4377  0.3075  1.1493
  595MOL0     H80275   3.020   6.411   1.911  0.3245  0.7910  0.3698
  595MOL0     H80276   2.996   6.673   2.103  3.2270  3.7625 -2.8440
  595MOL0     H80277   3.229   6.633   2.417  2.2580  1.0536 -1.7939
  595MOL0     H80278   3.125   6.755   2.360 -0.8587 -1.0379  1.3608
  595MOL0     H80279   2.950   6.679   2.460 -0.6035 -1.2877  0.8405
  595MOL0     H80280   2.957   6.518   2.371 -1.6767  0.1692  1.3331
  595MOL0     H80281   3.098   6.583   2.632  1.0421 -0.8958 -0.9908
  595MOL0     H80282   3.126   6.442   2.553 -0.0596  0.2130 -0.8941
  595MOL0     H80283   2.904   6.347   2.570  0.6178  0.3079 -0.9643
  595MOL0     H80284   2.845   6.509   2.636  0.8279 -0.2526 -0.6864
  595MOL0     H80285   3.134   6.479   2.954  0.2046  0.1337 -0.2597
  595MOL0     H80286   3.332   6.384   3.003 -0.9050 -0.8220  0.5025
  595MOL0     H80287   3.720   6.057   2.675  1.4440  0.3425 -1.1366
  595MOL0     H80288   3.934   5.905   2.732 -0.2298 -0.6615 -1.2542
  595MOL0     H80289   4.079   5.867   2.884  1.8459  0.8741  2.8513
  595MOL0     H80290   4.060   5.815   3.050 -2.5579  2.4534  0.1165
  595MOL0     H80291   4.276   5.728   2.961 -1.2073  0.0819  1.3817
  595MOL0     H80292   4.168   5.595   2.989  4.2825 -0.2816  0.7637
  595MOL0     H80293   4.106   5.600   2.751 -0.0950 -1.5870  2.1293
  595MOL0     H80294   4.205   5.747   2.718 -0.5464 -1.3242 -0.6276
  595MOL0     H80295   4.343   5.492   2.798  0.0795  1.6398  1.0896
  595MOL0     H80296   4.399   5.641   2.722 -1.4206  1.0853  0.2414
  595MOL0     H80297   4.227   5.431   2.594  1.4850 -2.0710 -0.8989
  595MOL0     H80298   4.395   5.461   2.559 -2.2318 -3.5383 -2.5830
  595MOL0     H80299   4.174   5.659   2.499  0.3910  1.6478 -3.0007
  595MOL0     H80300   4.351   5.687   2.507  2.2335 -1.5097 -3.6741
  595MOL0     H80301   4.379   5.543   2.305  0.3028  2.4402 -2.8479
  595MOL0     H80302   4.248   5.656   2.271  0.5564 -1.7949 -2.1714
  595MOL0     H80303   4.215   5.368   2.361 -1.6422 -0.1268  0.1048
  595MOL0     H80304   4.083   5.483   2.354  0.2164  1.0343  0.7981
  595MOL0     H80305   3.734   5.788   3.093  4.6913 -1.1787 -0.7587
  595MOL0     H80306   3.550   5.933   3.035 -1.6030  0.5751 -0.3627
  595MOL0     H80307   3.270   6.060   2.735  2.2518 -0.1085  2.6999
  595MOL0     H80308   3.068   6.165   2.648 -1.0754 -1.2725  0.9353
  595MOL0     H80309   2.581   5.875   1.471 -0.1128 -1.3208  0.7002
  595MOL0     H80310   2.335   5.869   1.538 -2.4564 -0.4467  3.0935
  595MOL0     H80311   1.998   5.550   1.825 -0.8446  0.5030 -1.3405
  595MOL0     H80312   1.772   5.548   1.882 -0.3524  0.3719 -0.5690
  595MOL0     H80313   1.511   5.919   1.863 -0.2520  1.5058  1.4905
  595MOL0     H80314   1.576   5.919   2.035  1.7742 -1.3785  0.3722
  595MOL0     H80315   1.333   5.789   1.908  2.2137 -2.8494  0.2897
  595MOL0     H80316   1.348   5.915   2.035 -1.5984 -0.4066  1.5778
  595MOL0     H80317   1.431   5.762   2.197  2.1914  0.4406 -1.0543
  595MOL0     H80318   1.445   5.630   2.083  1.1081  1.1920  0.1242
  595MOL0     H80319   1.188   5.628   2.078  0.3795 -0.8290  0.3382
  595MOL0     H80320   1.256   5.602   2.239  0.1807  0.6079  1.9300
  595MOL0     H80321   1.036   5.962   2.275 -0.0002  0.3888 -0.9198
  595MOL0     H80322   1.765   5.981   1.900  2.7494  1.8125  1.6139
  595MOL0     H80323   1.949   6.090   1.938  0.3988 -1.2675  3.6788
  595MOL0     H80324   2.105   6.023   1.956 -2.0872  3.3918  2.4575
  595MOL0     H80325   2.048   6.065   1.788  0.0068 -2.2293 -0.7748
  596MOL0     O80326   5.969   8.292   5.718 -0.1623  0.3700  0.2745
  596MOL0     C80327   5.921   8.235   5.814 -0.1187  0.9841  1.2167
  596MOL0     O80328   5.988   8.170   5.910  0.1638  0.1312 -0.4002
  596MOL0     C80329   6.114   8.210   5.928 -0.3009 -1.1249  0.0219
  596MOL0     C80330   6.213   8.118   5.894 -0.0253 -0.6636  0.3723
  596MOL0     C80331   6.338   8.164   5.919  0.0341  0.2171  0.6848
  596MOL0     C80332   6.371   8.291   5.968 -0.9105  0.6185 -0.5258
  596MOL0     O80333   6.509   8.317   5.968  0.2638 -0.2417 -0.9103
  596MOL0     C80334   6.557   8.408   6.076  0.1705  0.1110 -0.3214
  596MOL0     C80335   6.716   8.412   6.094  0.1152  0.9631 -0.1268
  596MOL0     C80336   6.760   8.272   6.139 -0.4813 -0.0501 -0.9527
  596MOL0     C80337   6.907   8.269   6.188 -0.2813  1.2585 -0.3278
  596MOL0     C80338   6.945   8.145   6.266  0.3889  0.9863 -0.6105
  596MOL0     C80339   7.076   8.154   6.340  0.0243  0.9054  0.1910
  596MOL0     C80340   7.093   8.077   6.477  0.2293  0.3354 -0.3595
  596MOL0     C80341   7.221   8.114   6.531  0.1205  0.3332  0.5017
  596MOL0     N80342   7.339   8.065   6.457  0.6595  0.3173 -0.9452
  596MOL0     C80343   7.406   8.110   6.351 -0.1658  0.1153 -0.0606
  596MOL0     C80344   7.517   8.041   6.337  0.1607  0.7437 -0.7470
  596MOL0     C80345   7.619   8.068   6.234  0.0633  0.1759 -0.2864
  596MOL0     C80346   7.715   8.181   6.271 -0.0784 -0.6674  0.0123
  596MOL0     C80347   7.809   8.225   6.163 -0.5750 -0.9655 -0.3795
  596MOL0     C80348   7.882   8.111   6.089 -0.0194  1.2482  0.3183
  596MOL0     O80349   7.944   8.008   6.168 -0.0946 -0.2952  0.3200
  596MOL0     C80350   8.079   8.010   6.170  0.0125  0.2846  0.1415
  596MOL0     C80351   8.158   8.121   6.194  0.0759  0.1366  0.4603
  596MOL0     C80352   8.301   8.109   6.178  0.3072 -0.8299  0.6611
  596MOL0     C80353   8.354   7.978   6.162  0.1402 -0.1097  0.4766
  596MOL0     C80354   8.501   7.956   6.163 -0.3799 -0.4121 -0.6724
  596MOL0     O80355   8.584   8.066   6.181 -0.3676 -0.5198  0.6230
  596MOL0     C80356   8.720   8.042   6.180 -0.6256 -0.8919 -0.0140
  596MOL0     C80357   8.794   8.028   6.301 -0.7256 -0.1358 -0.2827
  596MOL0     C80358   8.931   8.000   6.299 -0.3945 -0.4303  0.7047
  596MOL0     C80359   8.999   8.002   6.170  0.8609 -0.1731  0.5026
  596MOL0     O80360   9.131   7.974   6.169 -0.0364  0.2311  0.4673
  596MOL0     C80361   9.226   8.003   6.063  0.7774 -0.3798 -0.2325
  596MOL0     C80362   9.368   8.006   6.117  0.0246  0.7992 -0.5415
  596MOL0     C80363   9.474   7.956   6.022  0.0711  0.3462 -0.9027
  596MOL0     C80364   9.606   7.969   6.090  1.1928 -1.6709  0.5232
  596MOL0     C80365   9.723   7.960   5.980  0.8949 -0.0110 -0.4894
  596MOL0     C80366   9.853   7.950   6.060 -0.9078 -0.0644  0.3943
  596MOL0     C80367   9.985   7.957   5.976  0.5597 -0.2074  0.2989
  596MOL0     C80368  10.091   7.917   6.067 -0.3421  0.5274 -0.0258
  596MOL0    Cl80369  10.099   8.028   6.203 -0.1379  0.0414 -0.4742
  596MOL0     C80370   8.920   8.016   6.059 -1.0589 -0.1085  0.9250
  596MOL0     C80371   8.786   8.031   6.058 -0.1174  0.1260  0.2521
  596MOL0     O80372   8.542   7.843   6.146 -0.0912  0.3586 -0.0788
  596MOL0     C80373   8.277   7.865   6.154  0.4794 -0.1086 -0.4958
  596MOL0     C80374   8.141   7.883   6.150  0.1703  0.0605  0.3011
  596MOL0     N80375   7.520   7.944   6.438 -0.4663  0.5946 -0.0718
  596MOL0     N80376   7.410   7.956   6.506  0.4618 -0.3279  0.2742
  596MOL0     C80377   6.272   8.382   5.995 -0.2782 -0.0458  0.5486
  596MOL0     C80378   6.140   8.342   5.977 -0.5640  0.6478  0.5839
  596MOL0     C80379   5.771   8.224   5.822 -0.6169  0.3057  0.2215
  596MOL0     C80380   5.710   8.180   5.934 -1.0663 -0.3790 -1.3082
  596MOL0     C80381   5.573   8.167   5.948  0.6464 -0.0887  0.1113
  596MOL0     C80382   5.485   8.217   5.853 -0.1194 -0.6875 -0.5878
  596MOL0     O80383   5.342   8.226   5.860 -0.6013  0.7083  0.5936
  596MOL0     C80384   5.290   8.184   5.988  0.4496 -0.1406 -0.7616
  596MOL0     C80385   5.130   8.181   5.971 -0.8068  0.6074 -0.1403
  596MOL0     C80386   5.063   8.318   5.981 -0.2890 -0.8315 -0.3897
  596MOL0     C80387   4.914   8.314   6.038 -1.2402 -0.0316 -0.4540
  596MOL0     C80388   4.816   8.286   5.931  0.4746 -0.4396 -0.4660
  596MOL0     C80389   4.744   8.285   5.836  0.5070 -0.1633  0.2943
  596MOL0     C80390   5.541   8.260   5.736 -0.3307 -0.1731  0.0862
  596MOL0     C80391   5.683   8.269   5.717  0.0355  0.1739 -0.8844
  596MOL0     C80392   5.720   8.328   5.585  0.2064  0.5478 -1.4529
  596MOL0     H80393   6.195   8.018   5.854  0.5554 -0.5342 -0.2326
  596MOL0     H80394   6.417   8.090   5.909 -0.5824 -0.2229 -1.2104
  596MOL0     H80395   6.542   8.514   6.050  3.1557  0.5468 -0.6653
  596MOL0     H80396   6.508   8.381   6.170 -2.4190  0.7181 -1.3965
  596MOL0     H80397   6.741   8.487   6.170 -2.8563  1.9020  0.0927
  596MOL0     H80398   6.759   8.436   5.996  0.6828 -0.5153 -0.2639
  596MOL0     H80399   6.751   8.202   6.055  0.4499 -0.6055 -0.6032
  596MOL0     H80400   6.694   8.240   6.220 -2.2174 -0.3175 -2.3987
  596MOL0     H80401   6.977   8.280   6.104 -0.7389  0.3395 -0.8454
  596MOL0     H80402   6.924   8.356   6.251  1.4341  2.3456 -2.1629
  596MOL0     H80403   6.870   8.118   6.341  0.7915  0.7989 -0.2708
  596MOL0     H80404   6.948   8.060   6.197  2.2337  0.6470 -0.1652
  596MOL0     H80405   7.149   8.110   6.272 -2.2988 -1.2090 -1.0730
  596MOL0     H80406   7.100   8.259   6.358  1.1431  0.4030  1.9123
  596MOL0     H80407   7.087   7.969   6.459  2.4645  0.2054 -0.5337
  596MOL0     H80408   7.023   8.107   6.555 -0.5652 -0.0980 -0.8921
  596MOL0     H80409   7.225   8.221   6.551 -2.3503  0.9878 -1.9605
  596MOL0     H80410   7.239   8.068   6.629  1.1499  2.5270  1.4134
  596MOL0     H80411   7.370   8.194   6.292 -0.9901  0.6119  1.1136
  596MOL0     H80412   7.671   7.972   6.243  0.4341  0.5365  2.5662
  596MOL0     H80413   7.581   8.085   6.133 -0.4907  0.5185 -0.0213
  596MOL0     H80414   7.657   8.272   6.287  2.8893  1.1216  1.6196
  596MOL0     H80415   7.770   8.171   6.366 -0.6188 -1.0891  0.2836
  596MOL0     H80416   7.889   8.296   6.187 -1.3222  1.3686 -3.9560
  596MOL0     H80417   7.754   8.267   6.078  0.2793  1.5772  0.2286
  596MOL0     H80418   7.949   8.168   6.023 -1.1475  2.3192  0.0653
  596MOL0     H80419   7.812   8.067   6.017  1.8374  2.5923 -2.5311
  596MOL0     H80420   8.124   8.221   6.219 -1.3239 -0.1912 -0.0452
  596MOL0     H80421   8.365   8.196   6.185 -1.4129  0.3748  2.8253
  596MOL0     H80422   8.745   8.027   6.398 -1.9213  1.0044 -0.8549
  596MOL0     H80423   8.988   7.976   6.388 -0.8403 -0.4480  0.9926
  596MOL0     H80424   9.205   7.926   5.989 -0.2755 -0.8428  0.5331
  596MOL0     H80425   9.210   8.098   6.011 -1.4635 -1.3688 -1.4475
  596MOL0     H80426   9.387   8.110   6.146 -1.1756  1.3273 -1.5632
  596MOL0     H80427   9.368   7.947   6.209 -2.3266  1.2690 -0.1629
  596MOL0     H80428   9.469   7.850   5.997  0.8835  0.6006 -2.2576
  596MOL0     H80429   9.476   8.018   5.931 -1.0748 -0.2794 -1.3625
  596MOL0     H80430   9.629   7.900   6.171 -1.4343 -1.2950  1.7033
  596MOL0     H80431   9.615   8.067   6.136 -0.7474 -1.1487 -0.0770
  596MOL0     H80432   9.703   8.048   5.917  0.8792 -0.4247 -1.0716
  596MOL0     H80433   9.718   7.872   5.915  1.0049  0.4491 -1.1327
  596MOL0     H80434   9.848   8.030   6.135  0.3491  0.4759 -0.0591
  596MOL0     H80435   9.843   7.851   6.105 -3.1394 -1.1267 -2.2240
  596MOL0     H80436   9.992   8.060   5.939 -0.6415 -0.4364 -0.6357
  596MOL0     H80437   9.980   7.888   5.891 -0.1168  2.6246 -2.1095
  596MOL0     H80438  10.064   7.819   6.107 -0.9923  0.6847 -0.0710
  596MOL0     H80439  10.187   7.916   6.014 -0.0275 -0.3235  0.5300
  596MOL0     H80440   8.966   8.011   5.961  2.0341 -0.9595  2.2735
  596MOL0     H80441   8.741   8.041   5.960  0.4598  1.2862  0.0962
  596MOL0     H80442   8.320   7.766   6.140 -0.6613 -1.0465  2.0935
  596MOL0     H80443   8.092   7.790   6.126  0.2904  0.7317 -3.1179
  596MOL0     H80444   6.285   8.483   6.034  1.0801 -0.2797  0.7536
  596MOL0     H80445   6.065   8.408   6.019 -0.2349 -0.1906  2.6211
  596MOL0     H80446   5.779   8.169   6.017  0.3326  3.6272 -1.7002
  596MOL0     H80447   5.547   8.144   6.050  1.5712 -0.9350  0.1782
  596MOL0     H80448   5.320   8.240   6.078  1.2812 -3.5820  1.2689
  596MOL0     H80449   5.321   8.085   6.022  3.2128  1.0945  0.6551
  596MOL0     H80450   5.081   8.120   6.047  0.1443  2.8219  2.4039
  596MOL0     H80451   5.106   8.147   5.870  1.1009 -0.9327 -0.1420
  596MOL0     H80452   5.074   8.370   5.886  2.1671 -0.5442 -0.0005
  596MOL0     H80453   5.119   8.387   6.045 -1.0578  1.7213 -2.2896
  596MOL0     H80454   4.894   8.243   6.119  1.6619 -1.2949 -0.7020
  596MOL0     H80455   4.888   8.415   6.070 -1.0392  0.1725 -0.9333
  596MOL0     H80456   4.685   8.271   5.747 -0.8419  0.1179  1.1145
  596MOL0     H80457   5.463   8.290   5.666 -1.8565  0.5085  1.9980
  596MOL0     H80458   5.635   8.368   5.529 -0.6761  1.8683  0.7144
  596MOL0     H80459   5.794   8.408   5.575  0.5327  0.2123 -1.7737
  596MOL0     H80460   5.757   8.244   5.525 -3.3179 -0.8595 -1.8456
  597MOL0     O80461   2.829   5.333   2.741 -0.4616 -0.6750  0.0885
  597MOL0     C80462   2.798   5.248   2.825  0.2254 -0.0644  0.1761
  597MOL0     O80463   2.702   5.259   2.915 -0.4490  0.8444  0.3287
  597MOL0     C80464   2.592   5.332   2.883  0.6798 -0.7217  0.2124
  597MOL0     C80465   2.551   5.365   2.761 -0.0922  0.3101 -0.0068
  597MOL0     C80466   2.438   5.453   2.749  0.3524 -0.3692 -0.1832
  597MOL0     C80467   2.369   5.505   2.861  0.1629  0.6703 -0.1216
  597MOL0     O80468   2.262   5.588   2.856  0.1720  0.4131 -0.1056
  597MOL0     C80469   2.155   5.542   2.771 -0.2770 -0.0242 -0.3304
  597MOL0     C80470   2.051   5.652   2.765  0.9101  0.3440  0.1582
  597MOL0     C80471   1.941   5.605   2.676  0.0485  0.2659  0.7744
  597MOL0     C80472   1.824   5.695   2.668  0.5044  0.4125  0.2167
  597MOL0     C80473   1.759   5.730   2.811 -1.0528 -0.1900  0.4101
  597MOL0     C80474   1.823   5.855   2.869 -0.0395 -0.6367  0.4315
  597MOL0     C80475   1.761   5.900   3.005  0.0135 -0.1377  0.1086
  597MOL0     C80476   1.790   6.050   3.041  0.2935  0.3520 -0.3524
  597MOL0     N80477   1.775   6.073   3.191 -0.0978 -0.1403  0.7639
  597MOL0     C80478   1.875   6.041   3.283  0.1798 -0.4085  0.1739
  597MOL0     C80479   1.820   6.069   3.400  0.5728  0.7166 -0.2185
  597MOL0     C80480   1.890   6.075   3.535  0.2906 -0.0873  0.4593
  597MOL0     C80481   1.897   6.215   3.591  0.0845 -0.2338 -0.2488
  597MOL0     C80482   1.948   6.236   3.732  0.1892  0.2667  0.5786
  597MOL0     C80483   2.075   6.171   3.771 -0.5474  0.3290  0.5248
  597MOL0     O80484   2.116   6.212   3.896  0.3223 -0.0639 -0.3426
  597MOL0     C80485   2.234   6.185   3.954  0.1627  0.4173 -0.2303
  597MOL0     C80486   2.312   6.292   4.001 -0.5081  0.7744 -0.2031
  597MOL0     C80487   2.451   6.263   4.036 -0.3976 -0.2365  0.0521
  597MOL0     C80488   2.502   6.128   4.040  0.4294  0.3466 -0.5828
  597MOL0     C80489   2.644   6.097   4.074  0.5144  0.0589 -0.6734
  597MOL0     O80490   2.684   5.967   4.050  0.3174  0.1904 -0.1888
  597MOL0     C80491   2.813   5.920   4.065 -0.6807  0.3025 -0.1704
  597MOL0     C80492   2.935   5.983   4.081 -0.0515  0.1993  0.6181
  597MOL0     C80493   3.054   5.913   4.078 -0.1709  0.0468 -0.4659
  597MOL0     C80494   3.045   5.769   4.088  0.6266  0.7230  1.5262
  597MOL0     O80495   3.167   5.703   4.107  0.3757 -0.2556 -0.0108
  597MOL0     C80496   3.222   5.641   3.994  0.3288 -0.0325  0.1672
  597MOL0     C80497   3.361   5.574   4.035  0.6374 -0.1618 -0.3119
  597MOL0     C80498   3.348   5.459   4.133 -0.6496  0.1792  0.0268
  597MOL0     C80499   3.478   5.370   4.152  0.6622 -0.0801 -0.1488
  597MOL0     C80500   3.460   5.285   4.280 -0.7975 -0.8616 -0.3969
  597MOL0     C80501   3.591   5.211   4.320 -0.0040 -0.2172  0.0836
  597MOL0     C80502   3.559   5.096   4.425  0.4851 -0.2927 -0.1496
  597MOL0     C80503   3.679   4.993   4.441  0.1235 -1.4849  0.5051
  597MOL0    Cl80504   3.812   5.077   4.526  0.3093  0.2299  0.1951
  597MOL0     C80505   2.923   5.706   4.085 -0.0677 -0.7300  0.4410
  597MOL0     C80506   2.808   5.778   4.074  0.0480  0.9615 -0.7014
  597MOL0     O80507   2.715   6.188   4.118 -0.3166 -0.2339 -0.3811
  597MOL0     C80508   2.407   6.026   3.997  0.9012  0.1567  0.1300
  597MOL0     C80509   2.276   6.060   3.963  0.1774  0.0579 -0.3475
  597MOL0     N80510   1.686   6.105   3.378  0.4071 -0.2836 -0.8850
  597MOL0     N80511   1.663   6.118   3.254 -0.3169 -0.3043  0.1049
  597MOL0     C80512   2.409   5.447   2.985 -0.3815  0.1598 -0.8056
  597MOL0     C80513   2.527   5.371   2.998 -0.0302 -0.3853 -0.0810
  597MOL0     C80514   2.897   5.140   2.838 -0.6435  0.7249  0.1959
  597MOL0     C80515   2.965   5.123   2.966 -0.9181 -0.4342  0.2696
  597MOL0     C80516   3.049   5.016   2.978 -0.9731 -0.2265 -0.6353
  597MOL0     C80517   3.091   4.939   2.869  1.1638 -0.3203  0.3374
  597MOL0     O80518   3.163   4.820   2.885 -0.3625  0.3983  0.0396
  597MOL0     C80519   3.274   4.782   2.800  0.4119  0.1131  0.4024
  597MOL0     C80520   3.321   4.649   2.851  0.7417 -0.0844 -0.5684
  597MOL0     C80521   3.450   4.616   2.775  0.4437 -0.0741 -0.3636
  597MOL0     C80522   3.511   4.480   2.826  0.0104 -0.4922  0.0457
  597MOL0     C80523   3.621   4.437   2.734 -0.1341 -0.1402 -0.4973
  597MOL0     C80524   3.715   4.402   2.669 -0.5439  0.3645 -0.0572
  597MOL0     C80525   3.021   4.959   2.747  0.4841  0.5544 -0.3368
  597MOL0     C80526   2.935   5.056   2.732  0.3563 -0.0822  1.0055
  597MOL0     C80527   2.871   5.065   2.593  0.0544  0.0251  0.5957
  597MOL0     H80528   2.588   5.332   2.665  0.3452  2.3620 -0.5915
  597MOL0     H80529   2.400   5.483   2.651  2.3216  2.4939 -0.1991
  597MOL0     H80530   2.188   5.520   2.669  4.1510  1.7128  0.4972
  597MOL0     H80531   2.100   5.454   2.804  1.2372 -1.4134 -1.3585
  597MOL0     H80532   2.087   5.753   2.740 -0.8993  1.4949  1.8694
  597MOL0     H80533   2.019   5.654   2.870  0.6270 -2.2423  0.1628
  597MOL0     H80534   1.912   5.502   2.698  2.6167 -1.1369 -1.6612
  597MOL0     H80535   1.991   5.601   2.579  0.4801 -0.4495  1.0158
  597MOL0     H80536   1.854   5.781   2.609  1.7839 -1.2176 -1.6352
  597MOL0     H80537   1.748   5.643   2.609  0.3593  0.8799 -0.0075
  597MOL0     H80538   1.652   5.751   2.796 -0.6171  0.4302 -2.3718
  597MOL0     H80539   1.772   5.646   2.880  1.9515 -1.7047 -1.7682
  597MOL0     H80540   1.929   5.845   2.892  0.2094 -0.0310 -0.4230
  597MOL0     H80541   1.820   5.937   2.797  0.0459 -0.5389  0.5399
  597MOL0     H80542   1.771   5.823   3.082  0.6700 -0.6894 -0.5164
  597MOL0     H80543   1.652   5.898   2.993 -0.2249  1.3862  1.5961
  597MOL0     H80544   1.894   6.078   3.023  2.1569 -2.6862  4.0792
  597MOL0     H80545   1.718   6.105   2.980 -0.7089 -1.7396 -1.1579
  597MOL0     H80546   1.979   6.027   3.257 -0.0302  1.7186 -2.3190
  597MOL0     H80547   1.826   6.017   3.602 -0.3184  0.7904  0.6602
  597MOL0     H80548   1.990   6.033   3.528  0.5829  0.7154 -0.3963
  597MOL0     H80549   1.964   6.275   3.529 -0.0255 -0.0374 -0.1799
  597MOL0     H80550   1.795   6.254   3.591  0.2175  0.1259 -0.3989
  597MOL0     H80551   1.866   6.201   3.796 -1.7528  1.3533 -1.2146
  597MOL0     H80552   1.954   6.345   3.741 -0.4604  0.2158  1.8525
  597MOL0     H80553   2.153   6.199   3.699 -0.0830 -0.0259  0.8869
  597MOL0     H80554   2.075   6.062   3.777 -0.5943  0.3368  0.6647
  597MOL0     H80555   2.267   6.390   4.005  2.0225  2.0147  0.0775
  597MOL0     H80556   2.512   6.337   4.086 -0.1440  0.1595 -0.8382
  597MOL0     H80557   2.940   6.091   4.086  1.2479  0.2399 -0.8421
  597MOL0     H80558   3.154   5.954   4.069  1.1514 -3.2925 -3.2953
  597MOL0     H80559   3.158   5.553   3.978 -0.7508  1.0368 -1.9228
  597MOL0     H80560   3.219   5.702   3.903  0.8463  0.6854  0.6224
  597MOL0     H80561   3.419   5.556   3.944 -2.2508 -2.3647 -1.9128
  597MOL0     H80562   3.388   5.654   4.104 -0.2965  0.0105 -0.1285
  597MOL0     H80563   3.309   5.506   4.225 -0.2924  0.4124  0.0603
  597MOL0     H80564   3.266   5.396   4.099  1.5395 -1.2961 -2.9275
  597MOL0     H80565   3.564   5.435   4.164  1.5791 -1.5243  1.6622
  597MOL0     H80566   3.489   5.298   4.070  0.3423 -0.2524 -0.0452
  597MOL0     H80567   3.385   5.208   4.262 -1.5334 -0.1010 -0.6625
  597MOL0     H80568   3.416   5.342   4.363 -0.9196  0.3322 -1.2555
  597MOL0     H80569   3.647   5.159   4.242 -0.1621  0.0940 -0.2414
  597MOL0     H80570   3.658   5.288   4.359  1.1446 -1.0816 -0.1427
  597MOL0     H80571   3.478   5.037   4.381  2.0208 -1.2382 -1.8708
  597MOL0     H80572   3.535   5.143   4.521 -2.0557 -3.0092  0.7109
  597MOL0     H80573   3.651   4.901   4.492 -0.4352 -1.4396  0.2885
  597MOL0     H80574   3.721   4.971   4.343  1.5480  0.7832  0.5113
  597MOL0     H80575   2.916   5.598   4.089 -0.8666 -0.8952 -2.5678
  597MOL0     H80576   2.708   5.738   4.063  0.0462  0.2933  1.2919
  597MOL0     H80577   2.432   5.921   3.992 -4.0392 -1.2276  0.0281
  597MOL0     H80578   2.212   5.976   3.934  1.4694 -1.3009  0.5791
  597MOL0     H80579   2.369   5.478   3.081  0.7530 -1.4996  0.2713
  597MOL0     H80580   2.570   5.337   3.092 -1.1456  0.7164  0.8607
  597MOL0     H80581   2.949   5.197   3.044 -2.3621 -0.4181 -0.0251
  597MOL0     H80582   3.092   4.991   3.075 -1.4655 -2.0422 -0.8557
  597MOL0     H80583   3.354   4.855   2.815 -0.3477  0.8051  1.2363
  597MOL0     H80584   3.240   4.776   2.696 -0.4520  0.5564  0.6513
  597MOL0     H80585   3.237   4.580   2.835 -2.3255  3.5658 -1.7905
  597MOL0     H80586   3.328   4.644   2.960 -0.3504 -0.7882 -0.5126
  597MOL0     H80587   3.533   4.685   2.793  0.6384 -0.4347  0.1417
  597MOL0     H80588   3.431   4.615   2.667  0.3662 -1.2395 -0.3547
  597MOL0     H80589   3.552   4.508   2.923  0.1213  3.2423 -0.9153
  597MOL0     H80590   3.434   4.403   2.826  1.9010 -2.5156 -1.6258
  597MOL0     H80591   3.792   4.355   2.611 -0.7380  2.0867 -1.8230
  597MOL0     H80592   3.036   4.885   2.668  1.2809  0.8694 -0.4907
  597MOL0     H80593   2.857   4.967   2.547 -5.5408  0.4537  0.6356
  597MOL0     H80594   2.771   5.108   2.602 -0.2858 -0.8449  1.0924
  597MOL0     H80595   2.948   5.115   2.533 -0.8786  0.0154 -0.6428
  598MOL0     O80596   6.253   5.658   0.241 -0.2561 -0.2604  0.1089
  598MOL0     C80597   6.247   5.753   0.320 -0.4413  0.0823  0.4112
  598MOL0     O80598   6.175   5.858   0.304  0.2733 -0.5750  0.3203
  598MOL0     C80599   6.098   5.860   0.194 -0.0114  0.4911 -0.1440
  598MOL0     C80600   6.137   5.937   0.076  1.5669 -1.0804 -1.1785
  598MOL0     C80601   6.050   5.933  -0.033  0.0090 -0.7784 -0.1138
  598MOL0     C80602   5.934   5.855  -0.030  0.8592 -0.1747  0.6764
  598MOL0     O80603   5.860   5.830  -0.149 -0.2260 -0.5177  0.2049
  598MOL0     C80604   5.715   5.853  -0.149  0.2210 -0.7610 -0.1996
  598MOL0     C80605   5.646   5.768  -0.257  0.5743 -1.0819 -0.1408
  598MOL0     C80606   5.529   5.842  -0.324 -0.1831 -0.1158  0.5439
  598MOL0     C80607   5.461   5.766  -0.434 -1.4388 -0.6007 -1.0277
  598MOL0     C80608   5.365   5.835  -0.525 -0.1181  0.8251  0.7625
  598MOL0     C80609   5.286   5.728  -0.601  0.5391  0.5759 -0.1919
  598MOL0     C80610   5.367   5.675  -0.724  0.4876  0.8067  0.1758
  598MOL0     C80611   5.283   5.564  -0.798  0.1521 -0.3444 -0.5452
  598MOL0     N80612   5.164   5.614  -0.860  0.6536  0.3589  0.8972
  598MOL0     C80613   5.031   5.599  -0.809 -0.9510 -1.1238 -0.2937
  598MOL0     C80614   4.952   5.659  -0.905 -1.1386 -0.7154 -0.3693
  598MOL0     C80615   4.801   5.677  -0.893 -0.1827  0.0677  0.0396
  598MOL0     C80616   4.735   5.551  -0.946  0.2548 -0.5234  0.4785
  598MOL0     C80617   4.752   5.548  -1.101 -0.8125  0.6311  0.4119
  598MOL0     C80618   4.692   5.414  -1.165  0.0701 -0.3069 -0.2679
  598MOL0     O80619   4.742   5.284  -1.121 -0.7282  0.7896  0.3287
  598MOL0     C80620   4.849   5.266  -1.038  0.2214 -0.0824 -0.4261
  598MOL0     C80621   4.973   5.323  -1.068 -0.5226 -0.0863  0.6041
  598MOL0     C80622   5.083   5.300  -0.983  0.0941  0.3839 -0.0134
  598MOL0     C80623   5.066   5.215  -0.873 -0.4022  0.0616 -0.1140
  598MOL0     C80624   5.181   5.183  -0.793 -0.2550 -0.2573 -0.2802
  598MOL0     O80625   5.306   5.223  -0.837 -0.0255  0.5238  0.2146
  598MOL0     C80626   5.420   5.187  -0.771 -1.1374 -0.1421  0.1440
  598MOL0     C80627   5.435   5.205  -0.633 -0.1633 -0.1087  0.9217
  598MOL0     C80628   5.559   5.198  -0.565 -0.9022  0.2937 -0.1963
  598MOL0     C80629   5.666   5.156  -0.643  0.7344  0.5078  0.9582
  598MOL0     O80630   5.778   5.137  -0.567  0.4562  0.7112 -0.1760
  598MOL0     C80631   5.903   5.114  -0.631  0.3959  0.2567 -0.7448
  598MOL0     C80632   6.006   5.106  -0.519 -1.1291 -0.5213  0.2495
  598MOL0     C80633   6.158   5.112  -0.569 -0.2613 -0.5807 -0.3705
  598MOL0     C80634   6.245   5.054  -0.453 -0.6640 -1.0486 -0.7006
  598MOL0     C80635   6.387   5.048  -0.495 -0.3307 -0.2644  0.8241
  598MOL0     C80636   6.479   5.058  -0.376 -0.0883 -0.0294 -0.4309
  598MOL0     C80637   6.471   4.937  -0.286 -0.4514  0.1978 -0.0224
  598MOL0     C80638   6.600   4.930  -0.206 -0.4730  0.1600  0.0789
  598MOL0    Cl80639   6.746   4.905  -0.308 -0.5267 -0.1558 -0.4654
  598MOL0     C80640   5.650   5.125  -0.779 -0.2314  0.3974  0.0876
  598MOL0     C80641   5.528   5.145  -0.846 -0.3549 -0.1201  0.6963
  598MOL0     O80642   5.167   5.104  -0.704 -0.3066  0.1822  0.0927
  598MOL0     C80643   4.940   5.166  -0.839 -0.4668  1.8075 -0.4094
  598MOL0     C80644   4.834   5.186  -0.926  0.1991 -0.2044 -0.3646
  598MOL0     N80645   5.035   5.702  -1.010 -0.0803 -0.6815 -0.7771
  598MOL0     N80646   5.158   5.679  -0.979  0.5551  0.7480  0.1674
  598MOL0     C80647   5.894   5.782   0.087 -0.3360  0.0011  0.5954
  598MOL0     C80648   5.977   5.786   0.202  0.0215  1.3444  0.5903
  598MOL0     C80649   6.328   5.743   0.440  0.5895  0.0277 -0.0236
  598MOL0     C80650   6.273   5.689   0.559  1.0288 -0.4435  0.1850
  598MOL0     C80651   6.349   5.679   0.673  0.5935 -0.1612 -0.0143
  598MOL0     C80652   6.485   5.707   0.664  0.3778  0.1302 -1.6563
  598MOL0     O80653   6.573   5.700   0.771  0.0951 -0.0592 -0.5339
  598MOL0     C80654   6.550   5.589   0.868  0.5994 -0.6166  0.2574
  598MOL0     C80655   6.670   5.596   0.961  0.4554 -0.0608 -0.0059
  598MOL0     C80656   6.670   5.475   1.060  0.3187 -0.5326 -0.6110
  598MOL0     C80657   6.788   5.468   1.166  0.5679 -0.5138  0.2097
  598MOL0     C80658   6.908   5.401   1.113  0.8545 -0.0080  0.2899
  598MOL0     C80659   7.004   5.338   1.073 -0.0153  0.6349 -0.7719
  598MOL0     C80660   6.539   5.760   0.543  0.2434 -0.2466 -0.1217
  598MOL0     C80661   6.466   5.764   0.425  0.3394  0.2986  0.1109
  598MOL0     C80662   6.528   5.831   0.299  0.5220  0.2639 -0.5033
  598MOL0     H80663   6.225   6.000   0.077  1.8164 -1.4298  0.4683
  598MOL0     H80664   6.079   5.975  -0.129  0.4666 -1.3692 -0.2452
  598MOL0     H80665   5.674   5.840  -0.049 -0.3373  1.2132 -0.1244
  598MOL0     H80666   5.695   5.959  -0.170  1.7153 -0.8499 -2.4781
  598MOL0     H80667   5.605   5.676  -0.215  0.1913 -0.6329  0.4785
  598MOL0     H80668   5.717   5.735  -0.333 -0.8537 -0.5386 -1.7710
  598MOL0     H80669   5.571   5.938  -0.355  0.1207 -0.2853  0.4221
  598MOL0     H80670   5.452   5.857  -0.248  1.0839  2.3665  1.4658
  598MOL0     H80671   5.547   5.727  -0.489 -0.2094 -0.6442  0.8590
  598MOL0     H80672   5.415   5.681  -0.381  1.4250 -0.1616  2.5323
  598MOL0     H80673   5.291   5.878  -0.457  0.5593 -1.7988  3.3459
  598MOL0     H80674   5.406   5.913  -0.590 -2.0166  1.0876 -0.1946
  598MOL0     H80675   5.250   5.648  -0.536  0.6020  1.3196  0.7644
  598MOL0     H80676   5.201   5.779  -0.648  0.4521 -1.5943 -2.6416
  598MOL0     H80677   5.467   5.632  -0.710  1.5865  2.8404 -0.9710
  598MOL0     H80678   5.374   5.761  -0.791 -0.5189  0.3517 -0.5464
  598MOL0     H80679   5.332   5.525  -0.887  0.4465  1.8889 -1.4188
  598MOL0     H80680   5.269   5.473  -0.739  0.9720 -0.0873  0.0813
  598MOL0     H80681   4.998   5.558  -0.714  0.8240 -3.5861 -0.6273
  598MOL0     H80682   4.788   5.683  -0.785  1.1040  0.6305  0.1753
  598MOL0     H80683   4.762   5.769  -0.937 -1.1076 -0.7124 -0.8364
  598MOL0     H80684   4.763   5.458  -0.894  0.7433 -1.7367 -1.8415
  598MOL0     H80685   4.630   5.564  -0.920 -0.1385  0.0360 -1.3032
  598MOL0     H80686   4.852   5.562  -1.144 -0.3906 -1.5347  0.5711
  598MOL0     H80687   4.688   5.632  -1.127 -3.3018 -0.5200  2.3526
  598MOL0     H80688   4.708   5.434  -1.272 -4.3112 -3.7196 -1.9139
  598MOL0     H80689   4.584   5.412  -1.148  0.3309 -0.4273  1.5867
  598MOL0     H80690   4.993   5.381  -1.157 -1.1457  1.1011  1.2072
  598MOL0     H80691   5.170   5.351  -1.024 -0.9782  0.6080 -2.1517
  598MOL0     H80692   5.352   5.249  -0.579 -1.1246 -1.7374  0.8474
  598MOL0     H80693   5.567   5.213  -0.458  1.5617  1.1169 -0.4293
  598MOL0     H80694   5.896   5.024  -0.693  2.6154 -0.2147 -0.4049
  598MOL0     H80695   5.942   5.194  -0.695  1.4932  0.0454 -0.3632
  598MOL0     H80696   5.997   5.187  -0.445 -1.9859  0.2386 -0.6543
  598MOL0     H80697   5.990   5.019  -0.455  3.0804 -1.3029  0.5677
  598MOL0     H80698   6.180   5.049  -0.656  0.8760  0.0631 -0.5686
  598MOL0     H80699   6.194   5.211  -0.598  2.7706 -1.0485  1.3683
  598MOL0     H80700   6.208   4.958  -0.414 -1.4034 -0.8048 -0.7816
  598MOL0     H80701   6.242   5.120  -0.366  3.9388 -0.4201 -0.8021
  598MOL0     H80702   6.404   5.125  -0.570 -0.1208 -2.0835 -1.0938
  598MOL0     H80703   6.408   4.951  -0.541  3.3861 -1.9701  5.3241
  598MOL0     H80704   6.579   5.065  -0.418  0.2466 -3.3176 -0.4053
  598MOL0     H80705   6.461   5.150  -0.319 -1.1496 -1.2247  1.2462
  598MOL0     H80706   6.462   4.855  -0.359 -1.7553  1.1587 -0.9891
  598MOL0     H80707   6.393   4.946  -0.210  1.3032  0.6991  1.7895
  598MOL0     H80708   6.598   5.027  -0.157 -3.5838 -0.3100  1.1385
  598MOL0     H80709   6.603   4.852  -0.130  0.2995 -0.2381 -0.3477
  598MOL0     H80710   5.739   5.088  -0.830  0.0173 -0.8578  1.3713
  598MOL0     H80711   5.534   5.137  -0.954 -0.9871  0.0768  0.6400
  598MOL0     H80712   4.918   5.101  -0.755 -1.3170  2.1150 -0.3847
  598MOL0     H80713   4.736   5.143  -0.907  0.0997 -0.2546 -0.9678
  598MOL0     H80714   5.808   5.717   0.075  2.1582 -3.0950 -3.5014
  598MOL0     H80715   5.953   5.723   0.286  0.9808  1.4338  0.9504
  598MOL0     H80716   6.165   5.680   0.563  0.8468  1.4499  0.1663
  598MOL0     H80717   6.296   5.649   0.762 -1.2651  1.7049 -0.4200
  598MOL0     H80718   6.542   5.489   0.824  2.6600 -1.3041  1.3098
  598MOL0     H80719   6.455   5.598   0.922  0.0344  0.4777 -0.8857
  598MOL0     H80720   6.662   5.693   1.012  1.3015  0.8641 -1.5798
  598MOL0     H80721   6.759   5.596   0.897  2.0406  2.0980  2.0091
  598MOL0     H80722   6.665   5.385   0.998 -1.1449 -2.4142  2.0497
  598MOL0     H80723   6.580   5.486   1.121  1.1945  1.1572  0.4573
  598MOL0     H80724   6.828   5.565   1.196  3.9082 -1.1177 -1.7619
  598MOL0     H80725   6.752   5.409   1.251  1.7679 -2.1434 -0.3737
  598MOL0     H80726   7.094   5.291   1.039  0.9835  0.9665  1.2306
  598MOL0     H80727   6.639   5.801   0.559  0.1456 -0.3889  0.9291
  598MOL0     H80728   6.634   5.856   0.296  1.2446 -2.1158  1.6659
  598MOL0     H80729   6.502   5.772   0.210 -0.0555 -2.9122  1.5930
  598MOL0     H80730   6.480   5.929   0.303 -3.2900 -1.4386  0.5643
  599MOL0     O80731   4.921   6.157   7.174  0.0990 -0.0058 -0.3768
  599MOL0     C80732   4.904   6.272   7.176 -0.1743  0.1375  0.8542
  599MOL0     O80733   5.001   6.354   7.209  0.6873  0.3208 -0.2854
  599MOL0     C80734   5.118   6.307   7.249  0.9235 -0.3306  0.2494
  599MOL0     C80735   5.142   6.272   7.382 -0.3841  0.8337  0.3320
  599MOL0     C80736   5.275   6.224   7.420  0.2862 -0.1166  0.5718
  599MOL0     C80737   5.380   6.248   7.328  0.1962 -0.0322 -0.8238
  599MOL0     O80738   5.509   6.225   7.353 -1.3143  0.3094 -0.0647
  599MOL0     C80739   5.569   6.280   7.479  0.3671 -0.1876  0.3026
  599MOL0     C80740   5.724   6.298   7.462 -0.2894 -0.4326  0.7480
  599MOL0     C80741   5.742   6.380   7.331  0.5574  0.1516 -0.5534
  599MOL0     C80742   5.892   6.410   7.301 -0.3334 -0.0388 -0.9884
  599MOL0     C80743   5.907   6.488   7.177  0.9503 -0.2271  0.4895
  599MOL0     C80744   6.043   6.551   7.170  0.5826  0.3633  0.3026
  599MOL0     C80745   6.155   6.446   7.178 -0.3010  0.8713  0.8107
  599MOL0     C80746   6.281   6.500   7.122 -0.6241 -0.0677 -0.0407
  599MOL0     N80747   6.332   6.615   7.196 -0.1844  0.2332 -0.1470
  599MOL0     C80748   6.329   6.739   7.143 -0.0205 -0.5473  0.8676
  599MOL0     C80749   6.397   6.812   7.238 -0.2413  0.3782  0.8054
  599MOL0     C80750   6.422   6.961   7.226  0.8713  0.0071 -0.4101
  599MOL0     C80751   6.563   6.994   7.236  0.1383 -0.0250  0.3348
  599MOL0     C80752   6.583   7.148   7.249  0.4248  0.7908  0.5260
  599MOL0     C80753   6.717   7.210   7.289 -0.7582  1.3720  0.3594
  599MOL0     O80754   6.816   7.120   7.234 -0.0424 -0.2284  0.4646
  599MOL0     C80755   6.946   7.118   7.280  0.3428  0.4555  0.2847
  599MOL0     C80756   6.993   7.217   7.369 -0.4658 -0.4367 -0.2544
  599MOL0     C80757   7.126   7.200   7.420  0.5083 -0.2117 -0.1994
  599MOL0     C80758   7.200   7.081   7.384 -0.8547  1.2869  1.2113
  599MOL0     C80759   7.332   7.062   7.442  0.0530  0.7730 -0.3735
  599MOL0     O80760   7.374   7.163   7.532  0.1502  1.0033  0.1779
  599MOL0     C80761   7.510   7.156   7.570 -0.8205  0.5021 -0.8722
  599MOL0     C80762   7.538   7.111   7.698  0.0334  1.1703  0.0625
  599MOL0     C80763   7.671   7.096   7.735 -0.2785 -0.4965  0.3851
  599MOL0     C80764   7.779   7.116   7.650 -0.4025 -0.1363  0.6465
  599MOL0     O80765   7.896   7.066   7.690 -0.4702 -1.4367 -0.1323
  599MOL0     C80766   7.965   7.150   7.787  0.4713  0.4557  0.1518
  599MOL0     C80767   8.112   7.095   7.814 -0.0510 -0.1169 -0.0275
  599MOL0     C80768   8.110   6.981   7.915 -0.2137 -1.1819 -0.4725
  599MOL0     C80769   8.216   6.879   7.899  0.0831 -0.3444 -0.0133
  599MOL0     C80770   8.373   6.921   7.914  0.2714  0.0376  0.3860
  599MOL0     C80771   8.466   6.802   7.942 -0.2451 -0.0417  0.7177
  599MOL0     C80772   8.618   6.854   7.926 -1.2376  0.3915  0.2807
  599MOL0     C80773   8.671   6.918   8.060  0.4139  0.7663 -0.4116
  599MOL0    Cl80774   8.831   6.991   8.055 -0.8485 -0.1551 -0.0660
  599MOL0     C80775   7.752   7.166   7.528  0.8943 -0.0554 -0.3043
  599MOL0     C80776   7.617   7.189   7.479 -0.2710  0.8978 -0.2534
  599MOL0     O80777   7.402   6.965   7.404 -0.5544 -0.8581  0.2347
  599MOL0     C80778   7.147   6.983   7.288 -0.1054 -1.0602 -0.0749
  599MOL0     C80779   7.019   7.007   7.236  0.7520  0.7914 -0.0260
  599MOL0     N80780   6.428   6.734   7.350  0.1862  0.6295 -0.1453
  599MOL0     N80781   6.374   6.617   7.327  0.0044 -0.2769  0.1400
  599MOL0     C80782   5.351   6.293   7.202  0.0610  0.3174 -0.3382
  599MOL0     C80783   5.220   6.328   7.158 -0.8829 -0.2032 -0.1504
  599MOL0     C80784   4.766   6.318   7.121  0.9607  0.4228 -0.0801
  599MOL0     C80785   4.737   6.457   7.106 -0.3886  0.3409  0.6689
  599MOL0     C80786   4.618   6.505   7.040  1.1542  0.1594 -0.2893
  599MOL0     C80787   4.519   6.408   6.997 -0.1060 -0.1553  0.1103
  599MOL0     O80788   4.414   6.450   6.918 -0.0799  0.2785 -0.3841
  599MOL0     C80789   4.328   6.353   6.858 -0.0330  0.6072  0.2037
  599MOL0     C80790   4.220   6.419   6.770 -0.0966 -0.9493 -0.5618
  599MOL0     C80791   4.137   6.518   6.859 -0.4368  0.1850  0.1589
  599MOL0     C80792   4.010   6.573   6.795  0.1699  0.2034  0.2013
  599MOL0     C80793   3.927   6.456   6.750 -0.6997 -0.4212  0.3305
  599MOL0     C80794   3.870   6.361   6.697 -0.1865  0.8359  0.4589
  599MOL0     C80795   4.537   6.271   7.034 -0.2800 -0.3346  0.0074
  599MOL0     C80796   4.663   6.228   7.089  0.7614  0.2921 -0.0160
  599MOL0     C80797   4.658   6.085   7.142  0.4260  0.2772 -0.2462
  599MOL0     H80798   5.056   6.260   7.447 -0.8480 -2.5014 -0.7394
  599MOL0     H80799   5.300   6.185   7.518 -0.0817 -2.7160 -0.3049
  599MOL0     H80800   5.508   6.367   7.503 -0.3108 -0.0308 -1.7807
  599MOL0     H80801   5.553   6.207   7.559 -0.9547 -0.5880 -0.2936
  599MOL0     H80802   5.771   6.200   7.453 -2.5601 -1.4530 -0.9210
  599MOL0     H80803   5.765   6.352   7.548 -1.9252  3.4690 -0.6864
  599MOL0     H80804   5.680   6.470   7.336 -0.3569 -0.2932 -2.8659
  599MOL0     H80805   5.701   6.327   7.245  0.8097  0.6294 -0.9726
  599MOL0     H80806   5.933   6.467   7.385  0.0181 -0.9199 -0.5569
  599MOL0     H80807   5.952   6.320   7.295  2.5235  1.7293 -0.8007
  599MOL0     H80808   5.878   6.429   7.090 -1.4589 -1.5940  2.1156
  599MOL0     H80809   5.830   6.566   7.177 -1.8475 -2.6279 -3.4394
  599MOL0     H80810   6.051   6.590   7.068  4.1750 -1.3152 -0.1928
  599MOL0     H80811   6.059   6.623   7.251  0.0124 -0.5318  1.2361
  599MOL0     H80812   6.120   6.355   7.128  1.9978  1.0466 -1.3155
  599MOL0     H80813   6.174   6.417   7.282  0.9240 -0.1624  0.3219
  599MOL0     H80814   6.359   6.424   7.123  0.2216  0.7678  0.8452
  599MOL0     H80815   6.262   6.526   7.018  2.3689 -1.0938 -0.9380
  599MOL0     H80816   6.314   6.784   7.046  4.9980  0.6624  0.3457
  599MOL0     H80817   6.373   6.995   7.134  0.5795 -0.6493 -0.5089
  599MOL0     H80818   6.367   7.008   7.308  0.0672 -1.3252 -0.1485
  599MOL0     H80819   6.606   6.943   7.323 -0.7627  0.4642  1.0992
  599MOL0     H80820   6.619   6.946   7.156  0.2236 -2.7166  1.8679
  599MOL0     H80821   6.507   7.186   7.318  0.9150  0.5625  1.2034
  599MOL0     H80822   6.565   7.188   7.149  3.2511 -3.0589 -1.7709
  599MOL0     H80823   6.724   7.214   7.398  1.2753  0.7587  0.2912
  599MOL0     H80824   6.730   7.315   7.260 -3.6594  1.7853  0.2264
  599MOL0     H80825   6.927   7.301   7.386 -1.1202 -1.2615  1.6635
  599MOL0     H80826   7.172   7.273   7.485  0.6147  0.4436 -0.9884
  599MOL0     H80827   7.461   7.088   7.771  0.8804 -2.4852  0.0007
  599MOL0     H80828   7.691   7.039   7.824 -0.2422 -0.7333  0.2259
  599MOL0     H80829   7.971   7.252   7.749 -1.8360 -0.3422 -2.7062
  599MOL0     H80830   7.905   7.153   7.879  0.7845  4.3265  0.3807
  599MOL0     H80831   8.162   7.060   7.723  0.7166 -1.3452  0.8270
  599MOL0     H80832   8.165   7.181   7.856 -2.0425  1.0236  0.2705
  599MOL0     H80833   8.123   7.034   8.009 -1.8177  1.2970 -1.5546
  599MOL0     H80834   8.009   6.938   7.910 -1.7804  2.0047  0.9077
  599MOL0     H80835   8.205   6.830   7.802  1.3213  2.2426 -1.5437
  599MOL0     H80836   8.211   6.810   7.984  2.7026  0.2219  0.7115
  599MOL0     H80837   8.382   6.989   7.999 -3.0831  0.8125  0.2624
  599MOL0     H80838   8.413   6.977   7.829 -0.6541  0.8564  0.4650
  599MOL0     H80839   8.460   6.757   8.041  1.8485  0.7077  1.2360
  599MOL0     H80840   8.449   6.723   7.868 -3.7969  0.2103  1.1150
  599MOL0     H80841   8.635   6.933   7.853  4.0887 -0.6021 -0.0099
  599MOL0     H80842   8.690   6.777   7.895 -0.2412  1.4542 -0.1345
  599MOL0     H80843   8.598   6.988   8.101  0.5915  2.0271 -2.1234
  599MOL0     H80844   8.675   6.834   8.130  0.9635  0.1144 -1.2024
  599MOL0     H80845   7.833   7.176   7.456  1.5791 -0.2374  0.4320
  599MOL0     H80846   7.593   7.221   7.378 -0.9633 -0.1260 -0.4328
  599MOL0     H80847   7.207   6.897   7.260 -1.0883 -1.3681 -1.3672
  599MOL0     H80848   6.974   6.940   7.163  1.2445 -0.2639  0.6250
  599MOL0     H80849   5.435   6.318   7.138 -0.3115  0.6257 -0.7136
  599MOL0     H80850   5.201   6.355   7.055  0.5607 -0.1500 -0.4315
  599MOL0     H80851   4.816   6.529   7.124  1.0125  0.4757 -4.3853
  599MOL0     H80852   4.599   6.605   7.001 -4.7944 -1.4837 -2.6102
  599MOL0     H80853   4.287   6.283   6.933  2.2329 -1.0591 -0.0113
  599MOL0     H80854   4.390   6.296   6.788  2.1129  2.0809  0.8196
  599MOL0     H80855   4.164   6.351   6.706 -2.7905 -0.1128  0.7481
  599MOL0     H80856   4.269   6.483   6.696 -1.3674 -0.3380 -0.8938
  599MOL0     H80857   4.194   6.607   6.888 -0.7764  1.0537 -1.6518
  599MOL0     H80858   4.106   6.464   6.949  0.4618 -1.3279 -0.4048
  599MOL0     H80859   3.951   6.634   6.864 -1.7438 -0.5036 -0.7159
  599MOL0     H80860   4.044   6.631   6.708  0.4538 -1.1981 -0.6626
  599MOL0     H80861   3.826   6.287   6.633 -0.5751  1.6956 -0.2786
  599MOL0     H80862   4.461   6.195   7.019 -1.0105 -0.0014  1.7012
  599MOL0     H80863   4.554   6.049   7.134  0.0650  1.0914  0.6093
  599MOL0     H80864   4.727   6.022   7.085  0.4450  0.8618 -0.8705
  599MOL0     H80865   4.690   6.080   7.247 -0.1628 -0.4178 -0.0875
  600MOL0     O80866   4.469  10.098   2.728  0.5181  0.3474  0.8179
  600MOL0     C80867   4.425  10.200   2.670 -0.2662  0.1316  0.7046
  600MOL0     O80868   4.501  10.298   2.618 -0.7471 -0.6995 -0.0033
  600MOL0     C80869   4.635  10.273   2.576  0.2366  0.0663 -0.4524
  600MOL0     C80870   4.679  10.158   2.519  0.4135 -0.4231  0.7570
  600MOL0     C80871   4.818  10.136   2.490  0.5077  0.3984  0.7162
  600MOL0     C80872   4.907  10.243   2.498 -0.2606  0.3748  1.3079
  600MOL0     O80873   5.045  10.228   2.482  0.6552 -0.5690 -0.0307
  600MOL0     C80874   5.101  10.102   2.483 -0.0414  0.4403  0.1065
  600MOL0     C80875   5.248  10.123   2.463 -0.4184 -0.0647  0.7029
  600MOL0     C80876   5.325   9.990   2.459 -0.9974 -0.3887 -0.0200
  600MOL0     C80877   5.475  10.005   2.470 -0.2115  0.1048 -0.0957
  600MOL0     C80878   5.536   9.886   2.548 -1.0665 -0.2851 -0.5057
  600MOL0     C80879   5.685   9.905   2.561  0.3483 -0.7087  0.2289
  600MOL0     C80880   5.738   9.787   2.653  0.2461  0.1786 -0.8602
  600MOL0     C80881   5.774   9.653   2.579  0.0278  1.7926  0.5805
  600MOL0     N80882   5.903   9.656   2.505  0.0902  0.5420  0.3577
  600MOL0     C80883   6.030   9.628   2.555 -0.3258  0.1794  0.3168
  600MOL0     C80884   6.115   9.659   2.452 -0.5714 -0.5949 -0.4150
  600MOL0     C80885   6.267   9.651   2.460  0.3708  0.3699  0.1106
  600MOL0     C80886   6.334   9.779   2.491 -1.1073  0.8342 -0.0794
  600MOL0     C80887   6.484   9.752   2.502  0.8574  0.9998 -0.0353
  600MOL0     C80888   6.551   9.884   2.537 -0.0644 -0.1682  0.4551
  600MOL0     O80889   6.693   9.875   2.525 -0.8850 -0.3032 -0.6882
  600MOL0     C80890   6.753   9.894   2.646 -0.1678 -0.3285  0.7496
  600MOL0     C80891   6.798  10.018   2.683 -0.6965  0.0963 -0.1786
  600MOL0     C80892   6.849  10.042   2.810  0.4133 -0.2011 -0.3717
  600MOL0     C80893   6.876   9.934   2.889  0.4977  0.2742 -0.7752
  600MOL0     C80894   6.958   9.953   3.015  0.2724 -0.4058 -0.0065
  600MOL0     O80895   7.013  10.075   3.038 -0.1770 -0.7833 -0.3034
  600MOL0     C80896   7.137  10.084   3.092 -0.7577 -0.1678 -0.6341
  600MOL0     C80897   7.168  10.191   3.174  0.9072 -1.0700  0.1951
  600MOL0     C80898   7.296  10.203   3.244 -0.2216 -0.3153 -0.3990
  600MOL0     C80899   7.400  10.119   3.226 -0.7642 -0.4455 -0.3248
  600MOL0     O80900   7.519  10.151   3.288  0.0049  0.2025 -0.6264
  600MOL0     C80901   7.636  10.078   3.246 -0.2219  0.0910  0.3134
  600MOL0     C80902   7.753  10.130   3.321 -0.5739 -0.3608  0.6617
  600MOL0     C80903   7.890  10.058   3.280  0.0765  0.5524 -0.4458
  600MOL0     C80904   7.996  10.132   3.370 -0.1083  0.1795  0.6463
  600MOL0     C80905   8.127  10.046   3.372 -0.0145  0.1482 -0.0275
  600MOL0     C80906   8.216  10.089   3.486  0.3862 -1.0550  1.2623
  600MOL0     C80907   8.361  10.039   3.477 -0.1866 -0.5578  0.3406
  600MOL0     C80908   8.461  10.104   3.378  0.1524 -0.3643  0.1801
  600MOL0    Cl80909   8.463  10.279   3.414 -0.0509 -0.1994  0.0423
  600MOL0     C80910   7.375  10.003   3.139  0.2743 -0.5244 -0.2325
  600MOL0     C80911   7.243   9.983   3.086 -0.2878  0.0650 -0.0919
  600MOL0     O80912   6.957   9.860   3.094 -0.3406  0.0515 -0.6053
  600MOL0     C80913   6.841   9.802   2.850  1.0290 -0.2980 -0.2785
  600MOL0     C80914   6.780   9.781   2.728  0.1881  0.7064  0.7510
  600MOL0     N80915   6.048   9.720   2.348 -0.3824 -0.0766  0.1791
  600MOL0     N80916   5.922   9.720   2.383  0.0254 -0.0419 -0.0081
  600MOL0     C80917   4.857  10.366   2.547 -0.4035 -0.0309 -0.0315
  600MOL0     C80918   4.721  10.379   2.584 -0.1447  0.1123 -0.8261
  600MOL0     C80919   4.277  10.224   2.680 -0.0989 -0.3545  0.4441
  600MOL0     C80920   4.232  10.357   2.714 -0.5284 -0.1551 -0.4669
  600MOL0     C80921   4.098  10.396   2.722  0.0881  0.0182 -0.6640
  600MOL0     C80922   4.001  10.305   2.688 -0.6716 -0.1519 -0.6330
  600MOL0     O80923   3.880  10.367   2.685 -0.0759  0.1957  0.3814
  600MOL0     C80924   3.778  10.277   2.642 -0.5199 -0.3421  0.5309
  600MOL0     C80925   3.658  10.362   2.606  0.6301  0.3944 -0.3829
  600MOL0     C80926   3.684  10.430   2.472  0.2318 -0.1944 -0.1262
  600MOL0     C80927   3.570  10.510   2.424  0.9199 -0.3114  0.1270
  600MOL0     C80928   3.527  10.624   2.513  0.0915 -0.5042 -0.0342
  600MOL0     C80929   3.513  10.696   2.611 -0.9692  0.3529  0.6622
  600MOL0     C80930   4.034  10.169   2.672  0.1754 -0.3224 -0.0619
  600MOL0     C80931   4.172  10.130   2.658 -0.0505 -0.0900  0.3200
  600MOL0     C80932   4.214   9.996   2.602  0.4088 -0.6788 -0.2385
  600MOL0     H80933   4.600  10.090   2.488 -0.6685  0.5737  1.3043
  600MOL0     H80934   4.847  10.046   2.436  1.8738  0.2423  1.6434
  600MOL0     H80935   5.082  10.045   2.575  3.1365  0.0851  0.6559
  600MOL0     H80936   5.075  10.040   2.397  0.1983 -2.2691  1.8633
  600MOL0     H80937   5.287  10.187   2.542 -3.4720  2.2492  0.5126
  600MOL0     H80938   5.258  10.184   2.372 -0.0257  0.7981  1.3108
  600MOL0     H80939   5.304   9.948   2.361  2.6785 -1.5357 -0.4629
  600MOL0     H80940   5.284   9.930   2.542  0.6924 -1.2540  0.2299
  600MOL0     H80941   5.505  10.025   2.367  3.2022  2.6696  1.2458
  600MOL0     H80942   5.500  10.098   2.522 -1.0794  1.0348 -1.2757
  600MOL0     H80943   5.499   9.873   2.650 -1.3171  0.3471 -0.5120
  600MOL0     H80944   5.523   9.797   2.484 -1.3367 -0.3753 -0.3264
  600MOL0     H80945   5.744   9.894   2.469 -0.0610  0.3011 -0.1699
  600MOL0     H80946   5.714  10.000   2.606 -2.5829 -1.5107  4.3741
  600MOL0     H80947   5.666   9.783   2.736  0.9948  4.5560  0.2778
  600MOL0     H80948   5.832   9.808   2.704 -0.5211 -0.0921  0.7364
  600MOL0     H80949   5.786   9.581   2.660  3.1528  2.7692  1.1264
  600MOL0     H80950   5.688   9.630   2.515  2.4858 -1.1191 -2.0167
  600MOL0     H80951   6.052   9.592   2.655 -1.9747 -1.1004  0.2635
  600MOL0     H80952   6.300   9.573   2.529 -1.8315  0.0196  0.8520
  600MOL0     H80953   6.295   9.620   2.359 -0.2508  2.6195 -0.8210
  600MOL0     H80954   6.314   9.859   2.418  2.2713  0.7832 -1.2459
  600MOL0     H80955   6.294   9.810   2.588  1.9292 -1.1327  1.9853
  600MOL0     H80956   6.519   9.710   2.407 -0.4326  2.5225 -1.2497
  600MOL0     H80957   6.503   9.681   2.583 -0.8831  1.6333  0.9891
  600MOL0     H80958   6.518   9.906   2.639 -0.2319  2.7210 -0.1188
  600MOL0     H80959   6.518   9.963   2.469  1.6188  1.0178  0.9547
  600MOL0     H80960   6.798  10.097   2.609  0.0463 -1.2666 -1.7034
  600MOL0     H80961   6.883  10.142   2.835  0.0851 -0.8501  3.2477
  600MOL0     H80962   7.097  10.269   3.201  2.6151 -0.1137  2.2705
  600MOL0     H80963   7.318  10.292   3.302  1.2098 -1.6344  1.1916
  600MOL0     H80964   7.617   9.973   3.265  0.8220 -0.2475 -0.3876
  600MOL0     H80965   7.666  10.087   3.141 -0.5344  1.6151  0.3291
  600MOL0     H80966   7.767  10.235   3.295 -0.3492 -0.4803  0.3017
  600MOL0     H80967   7.737  10.107   3.426  0.1471 -1.7142  0.4899
  600MOL0     H80968   7.875   9.954   3.312 -1.0499  1.2620  1.4336
  600MOL0     H80969   7.909  10.059   3.172 -1.2949  2.3140 -0.7109
  600MOL0     H80970   7.961  10.150   3.472  0.4589 -1.7063  1.2302
  600MOL0     H80971   8.030  10.222   3.319  3.4568 -1.4606 -0.1939
  600MOL0     H80972   8.175  10.057   3.274  1.2902 -4.0640 -0.0657
  600MOL0     H80973   8.107   9.939   3.380 -0.4002  0.2114 -0.1301
  600MOL0     H80974   8.209  10.198   3.489  1.3162 -0.9724  0.7095
  600MOL0     H80975   8.174  10.052   3.580 -1.5971  0.6199  1.1254
  600MOL0     H80976   8.359   9.932   3.457  1.8603 -0.5344 -0.2171
  600MOL0     H80977   8.406  10.057   3.574 -0.5113  1.8660  0.1212
  600MOL0     H80978   8.562  10.065   3.394 -0.4164 -1.7901  0.3917
  600MOL0     H80979   8.430  10.091   3.274  0.1840  1.5001 -0.0882
  600MOL0     H80980   7.458   9.936   3.122  4.8237  4.4729 -0.5579
  600MOL0     H80981   7.226   9.892   3.030 -2.9324  0.2822  0.2403
  600MOL0     H80982   6.854   9.715   2.914  2.8188 -0.7125 -1.1452
  600MOL0     H80983   6.761   9.682   2.689  2.0300  0.5589  0.1129
  600MOL0     H80984   4.918  10.454   2.559 -0.7251  0.4975 -1.9236
  600MOL0     H80985   4.683  10.473   2.622 -1.1001 -1.3133  2.0418
  600MOL0     H80986   4.307  10.429   2.747 -0.8786  1.1681 -2.3989
  600MOL0     H80987   4.069  10.500   2.737  2.0441  0.4707  0.3162
  600MOL0     H80988   3.753  10.199   2.715 -0.4227 -0.7468  0.1369
  600MOL0     H80989   3.795  10.213   2.555 -0.6944  1.0636 -0.5752
  600MOL0     H80990   3.649  10.439   2.683 -1.0526  0.5016 -0.6500
  600MOL0     H80991   3.572  10.294   2.608 -0.2566  1.4907 -0.4608
  600MOL0     H80992   3.703  10.360   2.390  1.7846 -0.0895  0.1288
  600MOL0     H80993   3.775  10.489   2.483  0.8238 -0.9810 -0.6539
  600MOL0     H80994   3.589  10.541   2.321 -0.4499 -3.5304 -1.2597
  600MOL0     H80995   3.487  10.437   2.422  0.7996 -0.1594 -0.4503
  600MOL0     H80996   3.501  10.766   2.691 -1.7318  0.5890  0.3481
  600MOL0     H80997   3.952  10.098   2.668 -0.0197 -0.0575 -1.6022
  600MOL0     H80998   4.272  10.012   2.511  0.5441  0.2484 -0.0037
  600MOL0     H80999   4.280   9.951   2.676 -0.1159 -2.0862 -0.5895
  600MOL0     H81000   4.135   9.921   2.594 -1.4618  1.0192  1.1158
  601MOL0     O81001   6.599   6.607  11.226  0.8858 -0.3814 -0.7340
  601MOL0     C81002   6.590   6.690  11.316 -0.6264  0.3657  0.0066
  601MOL0     O81003   6.669   6.711  11.427 -0.4087  0.1790  0.0854
  601MOL0     C81004   6.782   6.630  11.447 -0.4562 -0.2980  0.1345
  601MOL0     C81005   6.866   6.593  11.351  0.0901  0.8652  0.5112
  601MOL0     C81006   6.978   6.521  11.384 -1.1040 -0.4000 -0.3541
  601MOL0     C81007   7.018   6.496  11.514 -0.9563  0.9026 -0.5428
  601MOL0     O81008   7.137   6.432  11.534 -0.3846  0.4814 -0.4359
  601MOL0     C81009   7.174   6.349  11.639  1.0211 -0.6742  1.1018
  601MOL0     C81010   7.259   6.232  11.576 -1.1797 -1.4663  0.1304
  601MOL0     C81011   7.412   6.264  11.587 -0.0022  0.0904 -0.1346
  601MOL0     C81012   7.480   6.156  11.670  0.2322  0.4138  0.0841
  601MOL0     C81013   7.626   6.198  11.695  0.5710  0.4911  0.0947
  601MOL0     C81014   7.680   6.109  11.819 -0.1170  0.4576 -0.1547
  601MOL0     C81015   7.814   6.164  11.866  0.3055 -0.4466 -0.1440
  601MOL0     C81016   7.844   6.114  12.011 -0.1341 -0.4648  0.0777
  601MOL0     N81017   7.960   6.181  12.070 -0.1651 -0.4356 -0.0779
  601MOL0     C81018   7.953   6.306  12.129  0.2241  0.0805  0.1142
  601MOL0     C81019   8.082   6.323  12.175 -0.0342 -0.7090  0.3098
  601MOL0     C81020   8.136   6.443  12.247  0.2653 -0.0282  0.0719
  601MOL0     C81021   8.264   6.499  12.185 -0.4203  0.5895  0.6840
  601MOL0     C81022   8.329   6.606  12.266 -0.3530 -0.3672 -1.1125
  601MOL0     C81023   8.459   6.649  12.197  0.4195  0.9852 -0.4306
  601MOL0     O81024   8.540   6.532  12.182  0.4148 -0.7249  0.0783
  601MOL0     C81025   8.651   6.545  12.097  0.7809 -0.1480  0.2613
  601MOL0     C81026   8.696   6.433  12.028  0.0340  0.2800 -0.2541
  601MOL0     C81027   8.818   6.438  11.952  0.6067  0.8294 -0.2074
  601MOL0     C81028   8.897   6.555  11.958  0.1181 -0.4900  0.8860
  601MOL0     C81029   9.030   6.564  11.895 -0.3759 -0.3165  0.4844
  601MOL0     O81030   9.071   6.459  11.829 -0.2057  0.2353  0.1930
  601MOL0     C81031   9.178   6.451  11.747 -0.2411  0.3247 -0.1109
  601MOL0     C81032   9.296   6.532  11.742  0.0008 -0.2361  0.4892
  601MOL0     C81033   9.393   6.510  11.638 -0.3009  0.3389 -0.4315
  601MOL0     C81034   9.384   6.409  11.546 -0.1208  0.1786  0.1175
  601MOL0     O81035   9.486   6.384  11.453 -0.2314 -0.1336 -0.5119
  601MOL0     C81036   9.442   6.432  11.321  0.0271  0.3246  0.4992
  601MOL0     C81037   9.553   6.430  11.209  0.7621 -0.1276  0.1227
  601MOL0     C81038   9.690   6.481  11.269 -0.2951  1.0096 -0.6382
  601MOL0     C81039   9.802   6.473  11.161 -0.6618  0.1996  0.5145
  601MOL0     C81040   9.938   6.547  11.212  0.2269 -0.3594  0.6600
  601MOL0     C81041  10.056   6.504  11.131  0.0218  0.4809  0.0230
  601MOL0     C81042  10.180   6.560  11.197  0.4656 -0.0388 -0.5107
  601MOL0     C81043  10.312   6.516  11.126 -0.1480  0.6454 -0.8125
  601MOL0    Cl81044  10.462   6.488  11.239 -0.0892 -0.4722 -0.1669
  601MOL0     C81045   9.271   6.327  11.550  0.4960  0.0031 -0.4253
  601MOL0     C81046   9.180   6.348  11.649 -0.0688 -0.3185 -0.1444
  601MOL0     O81047   9.100   6.662  11.913  0.0450  0.2628  0.5644
  601MOL0     C81048   8.854   6.663  12.030  0.6205  0.5683 -0.6668
  601MOL0     C81049   8.725   6.658  12.094  0.0950  0.1627 -0.6423
  601MOL0     N81050   8.163   6.214  12.142 -1.2111 -0.9762 -1.0562
  601MOL0     N81051   8.087   6.131  12.081  0.3210 -0.1980  0.2906
  601MOL0     C81052   6.920   6.518  11.607 -0.2568 -0.2278 -0.3460
  601MOL0     C81053   6.814   6.595  11.573  0.5753 -0.6541  0.7920
  601MOL0     C81054   6.474   6.791  11.289  1.1829  0.2485 -0.7165
  601MOL0     C81055   6.367   6.742  11.207  0.8114  0.0021  0.9022
  601MOL0     C81056   6.269   6.831  11.171 -0.3792 -0.1391  0.3849
  601MOL0     C81057   6.261   6.962  11.212  1.0907 -0.8736 -0.6648
  601MOL0     O81058   6.154   7.034  11.177  0.4411  0.0583  0.8014
  601MOL0     C81059   6.151   7.172  11.192  0.2605 -0.2232 -0.0246
  601MOL0     C81060   6.028   7.226  11.116 -0.3585 -0.3675 -0.2434
  601MOL0     C81061   5.900   7.145  11.157  0.5111 -0.2181 -0.5985
  601MOL0     C81062   5.877   7.150  11.311  0.7937  0.1521  0.3345
  601MOL0     C81063   5.738   7.106  11.340  0.2287  0.1471 -0.3192
  601MOL0     C81064   5.632   7.051  11.368  0.8646 -0.2398 -0.2035
  601MOL0     C81065   6.356   7.005  11.308  0.4998  0.4989  0.5675
  601MOL0     C81066   6.455   6.920  11.356 -0.5004 -0.3387  0.1852
  601MOL0     C81067   6.551   6.968  11.462  1.1250 -0.0072  0.1879
  601MOL0     H81068   6.848   6.618  11.247  1.4936  0.2802  0.1045
  601MOL0     H81069   7.038   6.500  11.296  1.5736 -1.0285  1.5081
  601MOL0     H81070   7.233   6.414  11.705  1.9797 -1.3946  0.9730
  601MOL0     H81071   7.083   6.317  11.690 -1.1364 -2.3509 -3.3030
  601MOL0     H81072   7.232   6.217  11.471 -0.1910 -0.2412 -0.3155
  601MOL0     H81073   7.239   6.140  11.633 -0.3463 -1.2339  0.8336
  601MOL0     H81074   7.422   6.359  11.641 -0.0375 -0.8525  1.6061
  601MOL0     H81075   7.467   6.261  11.493  0.5728 -1.9039  0.2230
  601MOL0     H81076   7.428   6.140  11.765 -2.5323 -0.3632 -1.4094
  601MOL0     H81077   7.474   6.055  11.628  3.1421 -0.0261  0.5290
  601MOL0     H81078   7.690   6.186  11.607 -0.1979  0.0355 -0.4163
  601MOL0     H81079   7.635   6.298  11.737  0.8733  0.2601  0.5956
  601MOL0     H81080   7.605   6.119  11.898 -1.2803 -1.1036 -0.9989
  601MOL0     H81081   7.681   6.001  11.798 -1.4729 -0.2786  2.9457
  601MOL0     H81082   7.819   6.273  11.853 -0.9506 -0.2315  0.9375
  601MOL0     H81083   7.890   6.127  11.796 -1.2713 -1.1110 -1.5864
  601MOL0     H81084   7.765   6.154  12.076 -0.6183 -0.6510 -0.3938
  601MOL0     H81085   7.845   6.005  12.015 -4.2275 -0.6279  3.1815
  601MOL0     H81086   7.870   6.369  12.159  2.3153  2.7018  0.8247
  601MOL0     H81087   8.052   6.512  12.249 -0.0069 -0.2865 -1.3289
  601MOL0     H81088   8.164   6.416  12.349  2.1395 -2.7121 -1.0366
  601MOL0     H81089   8.329   6.411  12.181  0.5021  1.2906 -1.8956
  601MOL0     H81090   8.246   6.540  12.085 -0.8006 -0.5531  0.2741
  601MOL0     H81091   8.354   6.569  12.366  0.2228  0.9812 -0.7220
  601MOL0     H81092   8.255   6.687  12.268  0.8269  0.7419 -1.0023
  601MOL0     H81093   8.507   6.724  12.261  0.1498  1.2161 -0.4993
  601MOL0     H81094   8.440   6.694  12.100  0.7950  0.6909 -0.6439
  601MOL0     H81095   8.635   6.344  12.032 -0.0246  0.2242 -1.8393
  601MOL0     H81096   8.855   6.347  11.908 -0.9742 -0.2847  0.6722
  601MOL0     H81097   9.317   6.593  11.830  0.1895  2.4487 -1.3217
  601MOL0     H81098   9.489   6.561  11.642 -1.2484  2.1606  0.0616
  601MOL0     H81099   9.356   6.374  11.287 -1.7490  2.8840  0.3952
  601MOL0     H81100   9.406   6.535  11.333  1.3773  0.9539 -0.5483
  601MOL0     H81101   9.561   6.329  11.167  1.2294 -0.3354  0.7034
  601MOL0     H81102   9.513   6.494  11.130  1.8481 -2.1690 -2.2065
  601MOL0     H81103   9.680   6.584  11.305  0.0795  0.9552 -0.3697
  601MOL0     H81104   9.723   6.418  11.352 -0.2900 -0.6291 -1.8347
  601MOL0     H81105   9.791   6.516  11.062  1.4920 -0.8688 -0.2654
  601MOL0     H81106   9.810   6.366  11.141 -0.1863  0.4152 -0.4990
  601MOL0     H81107   9.955   6.524  11.317  1.7336 -1.1832  0.2695
  601MOL0     H81108   9.933   6.654  11.193  0.1928 -0.5765 -0.6829
  601MOL0     H81109  10.053   6.396  11.119 -0.2711  0.6066 -1.1446
  601MOL0     H81110  10.052   6.548  11.031  0.5051  1.0371  0.2365
  601MOL0     H81111  10.183   6.528  11.302 -0.0318  1.7563  0.0930
  601MOL0     H81112  10.174   6.669  11.192  1.9020 -0.0142 -3.0164
  601MOL0     H81113  10.291   6.421  11.076  1.0298 -0.6983  1.1119
  601MOL0     H81114  10.332   6.595  11.053 -2.0545  0.6426 -1.3969
  601MOL0     H81115   9.280   6.247  11.477  3.7249  1.9996 -2.4773
  601MOL0     H81116   9.086   6.293  11.648 -0.2466  0.0010 -0.9330
  601MOL0     H81117   8.924   6.742  12.055  0.9673 -0.3936  1.6080
  601MOL0     H81118   8.709   6.742  12.161  2.7112  0.7951 -0.7138
  601MOL0     H81119   6.950   6.505  11.710 -1.4596 -0.3356 -0.0013
  601MOL0     H81120   6.739   6.637  11.639 -0.6515  0.6759 -1.3350
  601MOL0     H81121   6.351   6.640  11.174 -2.7796  1.5910 -3.2502
  601MOL0     H81122   6.191   6.804  11.101 -1.1042  2.8326 -0.0962
  601MOL0     H81123   6.234   7.225  11.143 -0.4586 -1.1156 -2.3236
  601MOL0     H81124   6.162   7.208  11.295  0.5412  0.9430 -0.4471
  601MOL0     H81125   6.037   7.222  11.007 -0.2943  0.7658 -0.2904
  601MOL0     H81126   6.028   7.334  11.136  1.1764 -0.5702  1.0389
  601MOL0     H81127   5.904   7.043  11.117 -1.6208  1.0736 -4.6941
  601MOL0     H81128   5.819   7.203  11.112 -0.0040 -0.2246  0.2933
  601MOL0     H81129   5.947   7.084  11.364 -1.1403 -0.7474  1.8614
  601MOL0     H81130   5.889   7.255  11.339  3.2458 -0.1849  0.8025
  601MOL0     H81131   5.533   7.018  11.393  1.4489 -0.9071  1.3134
  601MOL0     H81132   6.360   7.111  11.334 -1.2670  0.9833 -0.9280
  601MOL0     H81133   6.543   6.905  11.551 -2.8729  0.7829  0.5891
  601MOL0     H81134   6.653   6.973  11.424  0.8754 -0.8237 -0.6275
  601MOL0     H81135   6.527   7.070  11.495 -2.3051 -0.3529 -0.7986
  602MOL0     O81136  11.211   1.639   4.626  0.7118 -0.0142  0.7441
  602MOL0     C81137  11.276   1.535   4.633  0.1884  0.0962 -0.0940
  602MOL0     O81138  11.225   1.413   4.687  0.3545 -0.0895 -0.6163
  602MOL0     C81139  11.109   1.400   4.770 -0.5901  0.0905  0.1060
  602MOL0     C81140  11.032   1.501   4.818 -0.6724 -0.5631  0.1639
  602MOL0     C81141  10.911   1.473   4.883 -0.7720  0.4769 -0.0286
  602MOL0     C81142  10.870   1.338   4.902  0.1387 -0.9918  0.0368
  602MOL0     O81143  10.750   1.300   4.963  0.5108 -0.1301 -0.0562
  602MOL0     C81144  10.688   1.399   5.039 -0.1831 -0.2573  0.2643
  602MOL0     C81145  10.563   1.354   5.099 -0.1880 -0.1201 -0.1006
  602MOL0     C81146  10.584   1.274   5.224  0.6827 -0.5296  0.1490
  602MOL0     C81147  10.465   1.187   5.270  0.4587  0.1565 -0.1052
  602MOL0     C81148  10.494   1.106   5.399 -0.0576 -0.7939  0.3432
  602MOL0     C81149  10.449   1.183   5.526  0.6908 -0.1558 -0.0299
  602MOL0     C81150  10.465   1.079   5.636  0.5252  0.1666  0.4401
  602MOL0     C81151  10.390   1.143   5.756 -0.2435  0.0263 -0.4265
  602MOL0     N81152  10.414   1.059   5.868  0.3192 -0.6947  0.9640
  602MOL0     C81153  10.528   1.064   5.945  0.2505  0.6836 -0.4376
  602MOL0     C81154  10.505   0.977   6.050  0.3503 -0.2011  0.9930
  602MOL0     C81155  10.592   0.963   6.166  0.0286 -0.0510  0.0331
  602MOL0     C81156  10.594   1.101   6.240  0.1228 -0.0581 -0.3456
  602MOL0     C81157  10.704   1.085   6.348 -0.1720  0.5250 -0.5628
  602MOL0     C81158  10.836   1.159   6.326 -0.9813 -0.1112 -0.1877
  602MOL0     O81159  10.905   1.119   6.200  0.2930 -0.2167 -0.0511
  602MOL0     C81160  11.018   1.193   6.164 -0.1256 -0.0658  1.0767
  602MOL0     C81161  11.038   1.203   6.026 -1.3617  0.7707 -0.1137
  602MOL0     C81162  11.136   1.294   5.980 -0.3218 -0.2470 -0.6233
  602MOL0     C81163  11.232   1.351   6.076 -0.4222 -0.0211  0.2130
  602MOL0     C81164  11.335   1.444   6.031  0.1164 -0.1950  0.4665
  602MOL0     O81165  11.442   1.470   6.109 -0.3862  0.1026  0.2118
  602MOL0     C81166  11.555   1.497   6.034  0.3283 -0.7517  0.3919
  602MOL0     C81167  11.586   1.635   6.010 -0.3294 -0.0054  0.5436
  602MOL0     C81168  11.687   1.669   5.909 -0.1391  0.7729  0.4066
  602MOL0     C81169  11.764   1.560   5.851  0.6351 -0.6356 -0.4306
  602MOL0     O81170  11.853   1.583   5.753 -0.7629 -0.1364  0.1982
  602MOL0     C81171  11.955   1.681   5.766  0.0562 -0.6552 -0.1972
  602MOL0     C81172  12.082   1.632   5.842  0.9910  0.8240 -0.1702
  602MOL0     C81173  12.171   1.750   5.871 -0.7122 -0.4677 -0.2084
  602MOL0     C81174  12.268   1.781   5.762  0.3618 -0.2832  0.0446
  602MOL0     C81175  12.366   1.895   5.794 -0.0834  0.6918  0.6494
  602MOL0     C81176  12.306   2.028   5.831 -0.7123 -0.0140 -0.3372
  602MOL0     C81177  12.417   2.126   5.860 -0.2140 -0.1945  1.0472
  602MOL0     C81178  12.513   2.151   5.738  0.5871 -0.2941  0.0572
  602MOL0    Cl81179  12.603   2.294   5.771 -0.3677 -0.3387  0.2158
  602MOL0     C81180  11.736   1.426   5.892  0.2180  0.0913  0.8431
  602MOL0     C81181  11.627   1.394   5.974 -0.2405  0.1324  1.2457
  602MOL0     O81182  11.312   1.507   5.922  0.7128 -0.3162  0.2755
  602MOL0     C81183  11.206   1.327   6.213 -0.4149 -0.4466 -0.2155
  602MOL0     C81184  11.100   1.254   6.260  0.2117 -0.3650 -0.0949
  602MOL0     N81185  10.385   0.909   6.015  0.3093  0.8102 -0.1365
  602MOL0     N81186  10.336   0.957   5.906  0.4190 -0.1573 -0.0472
  602MOL0     C81187  10.943   1.235   4.840  0.6868 -0.7586  0.2303
  602MOL0     C81188  11.065   1.273   4.782  0.4791  0.2448  0.8615
  602MOL0     C81189  11.418   1.528   4.573  0.3453 -0.5654  0.2740
  602MOL0     C81190  11.482   1.404   4.564 -0.5788 -0.1243 -0.4217
  602MOL0     C81191  11.622   1.394   4.535 -0.2386 -0.9120 -0.9864
  602MOL0     C81192  11.690   1.511   4.489  0.2618  0.3965  0.1829
  602MOL0     O81193  11.821   1.498   4.463 -0.2594  0.4034  0.7287
  602MOL0     C81194  11.907   1.615   4.457  0.1015  0.2852  0.1838
  602MOL0     C81195  12.047   1.568   4.420  0.6407  0.6592  0.6720
  602MOL0     C81196  12.140   1.690   4.415 -0.1962  0.3014 -0.0378
  602MOL0     C81197  12.289   1.653   4.427  0.9210  0.0324  0.9717
  602MOL0     C81198  12.324   1.564   4.538  0.4818  0.5726 -0.5327
  602MOL0     C81199  12.338   1.502   4.643  0.4845  0.3252 -0.6345
  602MOL0     C81200  11.616   1.630   4.474  0.7210 -0.1745  0.1855
  602MOL0     C81201  11.487   1.642   4.516  0.8217  0.6226  0.0456
  602MOL0     C81202  11.421   1.773   4.508  0.1920 -0.8273  0.9022
  602MOL0     H81203  11.055   1.606   4.803 -1.7428 -0.4418 -0.7636
  602MOL0     H81204  10.856   1.557   4.923  0.5793  0.1884  2.6933
  602MOL0     H81205  10.753   1.444   5.115 -0.7013 -0.6092  0.9280
  602MOL0     H81206  10.650   1.480   4.976  0.3241  0.1933  0.5225
  602MOL0     H81207  10.498   1.294   5.035  1.0950 -1.5330 -0.1350
  602MOL0     H81208  10.502   1.442   5.121 -0.7799 -0.0506 -1.8456
  602MOL0     H81209  10.609   1.346   5.303  0.8448  2.0771 -2.1029
  602MOL0     H81210  10.678   1.218   5.216  0.6840 -0.9189  2.2465
  602MOL0     H81211  10.376   1.248   5.288 -1.1118 -2.1705  0.4762
  602MOL0     H81212  10.432   1.115   5.195 -3.4451  0.9093  0.6717
  602MOL0     H81213  10.433   1.016   5.402  1.9413 -2.2101  0.7861
  602MOL0     H81214  10.599   1.076   5.410  0.6366  2.0177  2.4721
  602MOL0     H81215  10.518   1.263   5.553 -1.0564  2.0520 -1.6948
  602MOL0     H81216  10.346   1.219   5.521  1.2706  1.4109 -1.4951
  602MOL0     H81217  10.572   1.071   5.653  0.6185  1.3349  0.5293
  602MOL0     H81218  10.415   0.984   5.616 -0.9682  0.9530  0.2484
  602MOL0     H81219  10.425   1.247   5.763 -1.8857  0.5285  1.0370
  602MOL0     H81220  10.282   1.152   5.742 -0.2136  0.9533 -0.1242
  602MOL0     H81221  10.608   1.137   5.935  2.7738 -1.6058  1.3401
  602MOL0     H81222  10.546   0.883   6.225  0.1902 -0.2506 -0.1129
  602MOL0     H81223  10.689   0.917   6.148 -0.2231 -0.6909  0.2782
  602MOL0     H81224  10.630   1.180   6.173  2.9984  2.1097  3.3126
  602MOL0     H81225  10.493   1.114   6.280 -0.5251 -0.6109 -1.7401
  602MOL0     H81226  10.722   0.977   6.351 -3.4279 -0.0975 -0.0124
  602MOL0     H81227  10.661   1.104   6.447  2.1650 -1.8625  1.0199
  602MOL0     H81228  10.909   1.135   6.403  1.1992  1.5809 -1.6078
  602MOL0     H81229  10.812   1.266   6.328  0.9852  0.3575  0.8227
  602MOL0     H81230  10.970   1.154   5.957 -0.9563  1.7062 -1.2303
  602MOL0     H81231  11.150   1.329   5.879 -1.4758 -0.2619 -0.8090
  602MOL0     H81232  11.532   1.714   6.061  1.2815  1.9904 -0.6966
  602MOL0     H81233  11.710   1.773   5.887  2.0899  0.3417  0.4621
  602MOL0     H81234  11.978   1.734   5.673 -0.2529 -0.3453 -0.0996
  602MOL0     H81235  11.905   1.759   5.824 -3.2463 -1.6855 -1.4800
  602MOL0     H81236  12.050   1.585   5.935 -0.1022  2.4835  0.3252
  602MOL0     H81237  12.135   1.553   5.787 -0.2575 -0.4277  0.3783
  602MOL0     H81238  12.103   1.836   5.874  1.3591  1.4147 -2.8426
  602MOL0     H81239  12.225   1.746   5.966  0.5485  1.7090 -0.7898
  602MOL0     H81240  12.216   1.795   5.667  1.6282 -0.5579 -0.6989
  602MOL0     H81241  12.334   1.694   5.749  2.1643  0.9140  0.8552
  602MOL0     H81242  12.436   1.911   5.711 -2.4757  1.1464 -1.3773
  602MOL0     H81243  12.428   1.865   5.879  0.5955  1.5482  0.4752
  602MOL0     H81244  12.241   2.075   5.757 -0.8740 -0.5500 -0.5415
  602MOL0     H81245  12.247   2.013   5.922  1.2363 -2.2424  0.6593
  602MOL0     H81246  12.464   2.092   5.953  0.5505 -0.2619  0.6413
  602MOL0     H81247  12.368   2.223   5.875 -0.8133 -0.1182 -1.1003
  602MOL0     H81248  12.583   2.067   5.731  3.5936  2.1514 -1.2994
  602MOL0     H81249  12.463   2.155   5.640 -0.0243 -3.4673  0.1241
  602MOL0     H81250  11.802   1.351   5.850  0.3200  1.0119 -0.6959
  602MOL0     H81251  11.594   1.293   5.994 -0.2679 -0.7288 -2.4496
  602MOL0     H81252  11.273   1.369   6.286 -2.3502  2.9001 -0.1807
  602MOL0     H81253  11.087   1.241   6.367 -2.2938  3.3213  0.2325
  602MOL0     H81254  10.921   1.130   4.854  1.3924 -1.3030 -2.2640
  602MOL0     H81255  11.122   1.189   4.743 -1.6639 -0.9137  0.0582
  602MOL0     H81256  11.437   1.308   4.588 -1.3201  0.1110 -0.8424
  602MOL0     H81257  11.674   1.301   4.551 -0.9729 -1.0535  0.9002
  602MOL0     H81258  11.910   1.678   4.546  1.6142 -0.9952  1.1011
  602MOL0     H81259  11.864   1.675   4.377 -0.2824  0.0757  0.2300
  602MOL0     H81260  12.053   1.511   4.327 -1.8168 -0.3712  1.0745
  602MOL0     H81261  12.076   1.496   4.498  2.0444  1.1244  0.6091
  602MOL0     H81262  12.121   1.757   4.499  0.4039 -0.5212  0.7764
  602MOL0     H81263  12.119   1.746   4.323 -0.4832  1.3245  0.6355
  602MOL0     H81264  12.313   1.608   4.330  0.7095  2.8922 -0.5095
  602MOL0     H81265  12.359   1.736   4.426  1.7801 -0.6806  0.6209
  602MOL0     H81266  12.315   1.462   4.740 -2.8396  1.4274 -0.8320
  602MOL0     H81267  11.675   1.715   4.441 -0.2174  0.9956  1.4154
  602MOL0     H81268  11.403   1.820   4.605  2.0534  1.1212  0.3789
  602MOL0     H81269  11.484   1.843   4.453 -2.0685  0.5214 -0.1255
  602MOL0     H81270  11.324   1.764   4.459 -1.4178 -0.8434  3.8621
  603MOL0     O81271   7.484   2.816   9.422  0.3133  0.8414  0.3045
  603MOL0     C81272   7.590   2.875   9.402  0.4871 -0.7302  0.6191
  603MOL0     O81273   7.611   3.001   9.437  0.5288 -0.3805  0.1721
  603MOL0     C81274   7.502   3.072   9.498  0.0757  0.5869 -0.0590
  603MOL0     C81275   7.450   3.191   9.439 -0.6909 -0.6856 -0.8189
  603MOL0     C81276   7.346   3.259   9.495 -0.8333 -0.6097  0.1236
  603MOL0     C81277   7.293   3.231   9.618  0.7258 -0.1905  0.0557
  603MOL0     O81278   7.189   3.316   9.666  1.1088  0.5561  0.2156
  603MOL0     C81279   7.060   3.241   9.675  0.2113 -0.8683  0.0635
  603MOL0     C81280   6.947   3.345   9.641 -0.3391  0.1679  0.4216
  603MOL0     C81281   6.901   3.426   9.761  0.3897  0.0089 -0.3184
  603MOL0     C81282   6.806   3.353   9.856  0.4978  0.8834 -1.0290
  603MOL0     C81283   6.656   3.372   9.829  0.2194 -0.6132  0.6619
  603MOL0     C81284   6.566   3.317   9.937 -0.2793 -0.0844 -0.2076
  603MOL0     C81285   6.427   3.369   9.912 -0.1476 -0.4101  0.3004
  603MOL0     C81286   6.329   3.303  10.002  0.2450 -0.5870  0.6831
  603MOL0     N81287   6.325   3.345  10.143  0.2167  0.4092 -0.4782
  603MOL0     C81288   6.422   3.329  10.230  0.0272 -0.2058 -0.1549
  603MOL0     C81289   6.379   3.402  10.340  0.3847 -0.9349 -0.4240
  603MOL0     C81290   6.458   3.428  10.473  0.1151 -0.0334  1.0637
  603MOL0     C81291   6.481   3.301  10.563  0.4599 -0.0613 -0.0710
  603MOL0     C81292   6.478   3.350  10.711 -0.6248  0.0116 -0.2785
  603MOL0     C81293   6.617   3.375  10.780 -0.4287 -0.1434  0.3422
  603MOL0     O81294   6.694   3.259  10.782 -0.4215  0.3352 -0.1789
  603MOL0     C81295   6.748   3.217  10.901 -0.3112 -0.4109  0.2635
  603MOL0     C81296   6.661   3.200  11.013 -0.0757  0.0896  0.3696
  603MOL0     C81297   6.718   3.157  11.137  0.6252  0.8670  0.4590
  603MOL0     C81298   6.855   3.114  11.144 -0.2451 -0.2697 -0.0094
  603MOL0     C81299   6.917   3.072  11.263 -0.6429  0.6416  0.2754
  603MOL0     O81300   7.014   2.976  11.241  0.0784 -0.2938 -0.8571
  603MOL0     C81301   7.062   2.910  11.358  0.0114 -0.0544 -0.0908
  603MOL0     C81302   7.000   2.889  11.479 -0.2168 -0.3279  0.7642
  603MOL0     C81303   7.061   2.814  11.578  0.8788  0.1062  0.5469
  603MOL0     C81304   7.185   2.754  11.571  0.5714  0.7700 -0.3220
  603MOL0     O81305   7.226   2.672  11.673 -0.3966 -0.3218 -0.3365
  603MOL0     C81306   7.360   2.624  11.672  0.1062  0.5210 -0.4844
  603MOL0     C81307   7.469   2.717  11.713  0.9862 -0.2047 -0.8396
  603MOL0     C81308   7.606   2.660  11.677 -0.6108 -0.5504 -0.6359
  603MOL0     C81309   7.719   2.770  11.694  0.8657  0.6036 -0.1610
  603MOL0     C81310   7.861   2.708  11.714  0.0619  0.4863  0.2374
  603MOL0     C81311   7.951   2.796  11.808  0.1470 -0.0536 -1.1932
  603MOL0     C81312   8.093   2.743  11.814 -0.6127 -0.1007  0.3290
  603MOL0     C81313   8.184   2.833  11.901  0.4724  0.0090  0.4591
  603MOL0    Cl81314   8.345   2.755  11.894  0.2424  0.4633 -0.1663
  603MOL0     C81315   7.247   2.784  11.453  0.1958 -0.0914  0.0376
  603MOL0     C81316   7.188   2.872  11.355 -0.2842 -0.7838 -0.0408
  603MOL0     O81317   6.896   3.129  11.370 -0.3513 -0.2404 -0.3369
  603MOL0     C81318   6.936   3.105  11.019 -0.2342  0.4172 -0.4986
  603MOL0     C81319   6.877   3.158  10.898  0.2676  0.1250 -0.0896
  603MOL0     N81320   6.251   3.443  10.310 -0.4583  1.0512  0.7769
  603MOL0     N81321   6.216   3.411  10.189 -0.2150 -0.1938  0.4598
  603MOL0     C81322   7.335   3.108   9.677  0.3853 -0.0271  0.0206
  603MOL0     C81323   7.434   3.040   9.613  0.4338  1.1800  0.7579
  603MOL0     C81324   7.705   2.802   9.344 -0.2246 -0.1443 -1.4105
  603MOL0     C81325   7.837   2.865   9.349  0.2476  0.7222  0.7585
  603MOL0     C81326   7.949   2.789   9.319 -0.1074  0.8045  0.9177
  603MOL0     C81327   7.946   2.662   9.269 -1.2025  0.1213  0.1184
  603MOL0     O81328   8.065   2.617   9.220 -0.7169 -1.0409 -0.2861
  603MOL0     C81329   8.083   2.477   9.217  0.1028 -0.3672 -0.7511
  603MOL0     C81330   8.178   2.451   9.098 -0.7621 -0.9306 -0.1903
  603MOL0     C81331   8.315   2.515   9.126 -0.7046 -0.8449  0.5010
  603MOL0     C81332   8.409   2.536   9.006  0.2198 -0.3608 -0.4471
  603MOL0     C81333   8.468   2.415   8.944  0.0573 -0.0041 -0.4125
  603MOL0     C81334   8.531   2.320   8.891 -0.4146 -0.9340  0.1189
  603MOL0     C81335   7.823   2.599   9.258 -0.4991 -0.1146  0.7155
  603MOL0     C81336   7.699   2.664   9.298 -0.5768  0.4731 -0.5603
  603MOL0     C81337   7.573   2.572   9.296 -0.4622  0.1867  0.2185
  603MOL0     H81338   7.509   3.214   9.350  3.8660 -1.1874  1.7504
  603MOL0     H81339   7.307   3.346   9.443  1.4982  0.2143 -0.3566
  603MOL0     H81340   7.061   3.155   9.607 -3.8849 -0.6563 -0.5260
  603MOL0     H81341   7.043   3.210   9.779 -0.8927 -1.6588 -0.3271
  603MOL0     H81342   6.858   3.295   9.602  1.1068 -1.3195 -1.1206
  603MOL0     H81343   6.978   3.406   9.556 -1.2697 -0.5638 -0.4715
  603MOL0     H81344   6.847   3.507   9.711 -0.3906 -1.9501 -2.8812
  603MOL0     H81345   6.991   3.472   9.804 -0.0707 -0.9834  1.7843
  603MOL0     H81346   6.838   3.248   9.854 -1.7191  0.1528 -1.8406
  603MOL0     H81347   6.823   3.382   9.960 -2.8867 -0.9282  0.1846
  603MOL0     H81348   6.619   3.472   9.806 -0.3224 -0.1179  3.3857
  603MOL0     H81349   6.630   3.311   9.742  1.0969  1.1644 -0.9390
  603MOL0     H81350   6.569   3.207   9.943 -0.0893 -0.0202  1.2785
  603MOL0     H81351   6.601   3.361  10.031 -1.8879  0.1822  0.2972
  603MOL0     H81352   6.404   3.348   9.806  1.0909 -4.1270  0.6108
  603MOL0     H81353   6.426   3.476   9.934  1.6557  0.5124 -3.2244
  603MOL0     H81354   6.231   3.319   9.955  0.6900 -2.8001 -1.1680
  603MOL0     H81355   6.346   3.195   9.995  2.0336 -0.2954 -0.1053
  603MOL0     H81356   6.510   3.267  10.218 -0.3277 -0.2737 -2.9308
  603MOL0     H81357   6.551   3.484  10.456 -0.1157  1.1513  3.4359
  603MOL0     H81358   6.395   3.501  10.525  3.0016  3.8022 -0.3284
  603MOL0     H81359   6.406   3.225  10.542 -1.1677  1.2810  0.6178
  603MOL0     H81360   6.578   3.252  10.557  0.5816  0.0429  0.8433
  603MOL0     H81361   6.426   3.269  10.764 -1.0542 -1.4009 -2.6991
  603MOL0     H81362   6.419   3.440  10.728 -0.4026  0.2034 -0.5250
  603MOL0     H81363   6.599   3.422  10.877 -0.6050 -0.2750  0.3728
  603MOL0     H81364   6.676   3.435  10.710  0.9872 -2.9976 -1.0531
  603MOL0     H81365   6.556   3.225  11.009  0.2653  1.4770 -0.9386
  603MOL0     H81366   6.643   3.151  11.215 -1.2496  0.3115 -1.2885
  603MOL0     H81367   6.900   2.929  11.494 -0.2207 -0.0664  0.0509
  603MOL0     H81368   6.999   2.794  11.665 -1.3143 -2.1405 -1.3621
  603MOL0     H81369   7.359   2.529  11.727 -1.1124  0.4234 -0.6387
  603MOL0     H81370   7.372   2.581  11.572  1.0408 -1.8131  0.5355
  603MOL0     H81371   7.441   2.816  11.676  1.3095 -0.0488 -0.6747
  603MOL0     H81372   7.474   2.721  11.822  0.0876  1.3499 -0.8265
  603MOL0     H81373   7.625   2.576  11.744 -0.4798  0.0242  0.0703
  603MOL0     H81374   7.609   2.628  11.573 -3.5794 -0.0403 -0.9697
  603MOL0     H81375   7.700   2.831  11.783 -1.4611 -0.1270 -0.0807
  603MOL0     H81376   7.715   2.834  11.606  2.2978  1.7827  0.5945
  603MOL0     H81377   7.903   2.697  11.613 -0.8720  0.4769 -0.1561
  603MOL0     H81378   7.840   2.611  11.759  0.7843 -0.9448 -2.3261
  603MOL0     H81379   7.943   2.902  11.783 -0.3329  0.0661 -0.5673
  603MOL0     H81380   7.897   2.786  11.903 -1.0889  1.6737 -1.6674
  603MOL0     H81381   8.138   2.745  11.714  0.6353 -1.9227  0.7916
  603MOL0     H81382   8.092   2.639  11.847 -1.4018 -0.6843 -1.4492
  603MOL0     H81383   8.183   2.932  11.855  1.8133  0.7241  1.8966
  603MOL0     H81384   8.158   2.844  12.006 -0.3013 -1.4868  0.4557
  603MOL0     H81385   7.343   2.734  11.437 -1.6706 -3.9843 -0.2889
  603MOL0     H81386   7.241   2.896  11.264  1.7228  2.7758  1.8221
  603MOL0     H81387   7.036   3.066  11.003 -0.4342 -0.4712  0.3143
  603MOL0     H81388   6.929   3.159  10.802 -0.1419 -1.7962 -0.3746
  603MOL0     H81389   7.308   3.080   9.778 -0.1737 -1.0169 -0.3933
  603MOL0     H81390   7.477   2.960   9.672  0.5566  2.2915  2.2617
  603MOL0     H81391   7.842   2.967   9.385  1.8752  1.1788 -0.6271
  603MOL0     H81392   8.049   2.829   9.329 -0.3502  1.8846 -0.6610
  603MOL0     H81393   7.992   2.422   9.195  1.0974 -2.2017 -0.4898
  603MOL0     H81394   8.118   2.429   9.309 -2.3863 -1.2996 -0.2376
  603MOL0     H81395   8.130   2.496   9.011 -1.4516 -1.7668 -0.2478
  603MOL0     H81396   8.197   2.345   9.077  0.7157 -0.5218 -1.1161
  603MOL0     H81397   8.372   2.467   9.206 -0.2985 -0.8503  0.2067
  603MOL0     H81398   8.302   2.616   9.166  1.2147 -1.1278  1.9747
  603MOL0     H81399   8.364   2.602   8.930  0.6440 -1.1573 -1.4078
  603MOL0     H81400   8.497   2.583   9.049 -0.1451  0.0521 -0.1416
  603MOL0     H81401   8.587   2.244   8.841  0.4402 -1.0628  1.2362
  603MOL0     H81402   7.824   2.499   9.216  1.3294 -0.6226  1.8653
  603MOL0     H81403   7.593   2.468   9.268  0.2941 -0.0594  1.5853
  603MOL0     H81404   7.526   2.574   9.395  0.7972  0.1197  0.8269
  603MOL0     H81405   7.498   2.602   9.222 -2.2772 -1.6479  1.1949
  604MOL0     O81406   0.096   1.730   0.189 -0.7032  0.2243 -0.0105
  604MOL0     C81407   0.035   1.819   0.134 -0.8793  0.1681 -0.1650
  604MOL0     O81408   0.099   1.931   0.094 -0.5487  0.0625 -0.0004
  604MOL0     C81409   0.227   1.964   0.124 -0.4307 -0.4787 -0.5080
  604MOL0     C81410   0.306   1.917   0.238 -0.0265  0.1756  0.6448
  604MOL0     C81411   0.429   1.977   0.263 -0.2955  0.5180  0.6523
  604MOL0     C81412   0.478   2.076   0.181  0.0925 -0.3599  0.2029
  604MOL0     O81413   0.592   2.129   0.225 -0.0091 -0.0394 -0.3722
  604MOL0     C81414   0.659   2.215   0.132 -0.6086 -0.0846 -1.0524
  604MOL0     C81415   0.803   2.246   0.180  0.5790 -0.3144  0.0844
  604MOL0     C81416   0.877   2.111   0.159  0.8783  0.3227  0.8192
  604MOL0     C81417   1.003   2.109   0.236 -0.4230 -0.2223  0.6226
  604MOL0     C81418   1.081   1.978   0.224  0.8082 -0.1038 -0.4101
  604MOL0     C81419   1.139   1.957   0.077 -0.4988  0.1091 -0.1310
  604MOL0     C81420   1.279   1.903   0.074 -0.5047 -0.0953 -1.1186
  604MOL0     C81421   1.356   2.036   0.084 -0.1945 -0.2728  0.2344
  604MOL0     N81422   1.496   2.027   0.130  0.1447  1.1404  0.0887
  604MOL0     C81423   1.610   1.991   0.052 -0.8564  0.4610 -0.8230
  604MOL0     C81424   1.715   1.962   0.151  0.3628  0.7488  0.1110
  604MOL0     C81425   1.843   1.889   0.145  0.8361 -0.3827 -0.4573
  604MOL0     C81426   1.870   1.853  -0.005 -0.2429 -0.8116  0.1819
  604MOL0     C81427   1.987   1.754  -0.011  1.1742  0.7853 -0.0070
  604MOL0     C81428   2.119   1.802   0.047 -0.4668 -0.9436  0.3963
  604MOL0     O81429   2.162   1.925  -0.018 -0.7567 -0.6473 -0.0160
  604MOL0     C81430   2.299   1.958  -0.013  0.1228  1.1486  0.5369
  604MOL0     C81431   2.392   1.905   0.069 -0.4487 -0.4841 -0.2763
  604MOL0     C81432   2.528   1.947   0.067  0.0518 -0.6319  0.1002
  604MOL0     C81433   2.573   2.032  -0.035 -0.2020  0.1371 -0.8607
  604MOL0     C81434   2.719   2.063  -0.047  1.2336  1.2522  0.5331
  604MOL0     O81435   2.758   2.139  -0.145 -0.8024  0.1907 -0.1654
  604MOL0     C81436   2.896   2.132  -0.171  0.4146  0.1091  0.2419
  604MOL0     C81437   2.963   2.260  -0.197  0.6642 -0.2393 -0.3255
  604MOL0     C81438   3.097   2.269  -0.239  0.3163 -0.3653 -0.6009
  604MOL0     C81439   3.173   2.153  -0.243  0.3424 -0.4555 -0.2208
  604MOL0     O81440   3.300   2.178  -0.268 -0.4766 -0.0478  0.2662
  604MOL0     C81441   3.404   2.092  -0.208 -0.1054  1.0221 -0.1287
  604MOL0     C81442   3.478   2.006  -0.313  0.7742  0.4532  0.3605
  604MOL0     C81443   3.576   1.907  -0.251 -0.3507  0.5325  0.1156
  604MOL0     C81444   3.494   1.780  -0.218 -0.1217 -0.3221 -0.1178
  604MOL0     C81445   3.568   1.674  -0.132 -0.1395 -1.4457 -0.3199
  604MOL0     C81446   3.689   1.620  -0.198  0.0121  0.1815 -0.4483
  604MOL0     C81447   3.777   1.551  -0.100 -0.2053 -0.4353  0.3513
  604MOL0     C81448   3.900   1.483  -0.157  1.1948 -0.1458 -0.0935
  604MOL0    Cl81449   4.038   1.492  -0.041  0.1773 -0.1354 -0.0785
  604MOL0     C81450   3.111   2.034  -0.211 -0.2831  0.2686  0.0822
  604MOL0     C81451   2.981   2.020  -0.164 -0.7722 -0.0803  0.4930
  604MOL0     O81452   2.792   2.013   0.036  0.3190  0.9527  0.0388
  604MOL0     C81453   2.480   2.076  -0.132  1.0185  0.0720  0.5695
  604MOL0     C81454   2.342   2.039  -0.115 -0.6933 -0.1675 -0.2911
  604MOL0     N81455   1.666   1.997   0.273 -0.4114  0.0113 -0.3781
  604MOL0     N81456   1.540   2.033   0.262 -0.4975 -0.4008 -0.2607
  604MOL0     C81457   0.401   2.120   0.075 -0.0238  0.1857  0.6445
  604MOL0     C81458   0.277   2.071   0.050 -1.0298  0.8063  0.2018
  604MOL0     C81459  -0.112   1.793   0.104 -0.0562 -0.9029  0.5140
  604MOL0     C81460  -0.176   1.907   0.041  0.3520  0.6156  0.4945
  604MOL0     C81461  -0.315   1.896   0.003  1.3767  0.8694 -0.5948
  604MOL0     C81462  -0.376   1.769   0.018  0.0907 -0.3032  0.0836
  604MOL0     O81463  -0.502   1.769  -0.014  0.0135  0.5458 -0.3836
  604MOL0     C81464  -0.598   1.750   0.097 -0.1794 -0.3985  0.7410
  604MOL0     C81465  -0.582   1.863   0.207 -0.3163  0.1755  0.2881
  604MOL0     C81466  -0.681   1.869   0.318 -0.3888  0.6654 -0.1499
  604MOL0     C81467  -0.688   2.006   0.390  0.1830  0.2424  0.3031
  604MOL0     C81468  -0.790   2.096   0.320  0.0028 -0.0323  0.0863
  604MOL0     C81469  -0.879   2.163   0.278 -0.6493 -0.5467 -0.5151
  604MOL0     C81470  -0.306   1.654   0.056  0.1437  0.2492  0.2474
  604MOL0     C81471  -0.174   1.668   0.106  0.4422 -0.0689 -0.1767
  604MOL0     C81472  -0.100   1.544   0.140 -0.4082  0.2925  0.0498
  604MOL0     H81473   0.273   1.842   0.309  2.1059  0.7858  2.3831
  604MOL0     H81474   0.489   1.946   0.348  0.9717 -0.0560 -0.4082
  604MOL0     H81475   0.671   2.174   0.031  1.5704 -0.8352 -0.5329
  604MOL0     H81476   0.611   2.313   0.119 -0.3084  0.1461 -0.4673
  604MOL0     H81477   0.806   2.282   0.283  2.1618  0.5528 -0.2458
  604MOL0     H81478   0.856   2.319   0.118  0.7236 -0.6517 -0.1933
  604MOL0     H81479   0.883   2.095   0.051  0.8370 -0.9415  0.9837
  604MOL0     H81480   0.818   2.022   0.186  2.4022 -2.0280 -2.7876
  604MOL0     H81481   1.067   2.197   0.221 -1.5692  0.5566  0.1717
  604MOL0     H81482   0.969   2.112   0.340 -1.4644 -0.2476  0.2912
  604MOL0     H81483   1.157   1.978   0.303  1.2792 -1.0501 -0.8443
  604MOL0     H81484   1.010   1.896   0.238  0.5810  0.2200  0.3675
  604MOL0     H81485   1.068   1.897   0.019 -1.5133  0.5677  0.5872
  604MOL0     H81486   1.143   2.051   0.021  0.1745 -0.7967 -1.6570
  604MOL0     H81487   1.304   1.848  -0.017 -1.2149 -1.6086 -0.4317
  604MOL0     H81488   1.305   1.849   0.166 -0.1617  4.4276  1.7351
  604MOL0     H81489   1.360   2.078  -0.017  0.0311 -2.6339 -0.8036
  604MOL0     H81490   1.308   2.110   0.148  1.6697 -0.6729  2.1912
  604MOL0     H81491   1.621   1.962  -0.052 -0.2169 -1.5021 -0.2577
  604MOL0     H81492   1.921   1.945   0.198  0.1164  0.1552  0.0534
  604MOL0     H81493   1.835   1.791   0.193 -0.8576 -0.0462  0.0150
  604MOL0     H81494   1.782   1.819  -0.060 -0.1658 -0.8516  0.0834
  604MOL0     H81495   1.902   1.943  -0.058 -3.6190  1.6514  1.9185
  604MOL0     H81496   2.009   1.723  -0.113  0.6241 -0.3300  0.1953
  604MOL0     H81497   1.954   1.658   0.030 -0.1902  1.4718  0.5432
  604MOL0     H81498   2.182   1.713   0.035 -0.5961 -1.1092  0.9229
  604MOL0     H81499   2.108   1.828   0.152  2.2115 -1.2074  0.8006
  604MOL0     H81500   2.372   1.831   0.146  0.2807  0.2173  0.6040
  604MOL0     H81501   2.595   1.915   0.146  1.2244  1.2371 -0.0634
  604MOL0     H81502   2.916   2.355  -0.220  0.3709 -0.4463 -0.5774
  604MOL0     H81503   3.142   2.366  -0.254 -0.7598  0.5772  1.8276
  604MOL0     H81504   3.481   2.148  -0.154  0.9375  0.2704 -0.7957
  604MOL0     H81505   3.360   2.022  -0.136  3.0344  0.5429  1.4678
  604MOL0     H81506   3.402   1.948  -0.366  2.3623 -3.0186  1.6232
  604MOL0     H81507   3.528   2.070  -0.387  0.3400 -0.1584 -0.4847
  604MOL0     H81508   3.651   1.875  -0.324 -0.8557 -3.5208  1.1202
  604MOL0     H81509   3.627   1.958  -0.168 -1.7767 -1.2248  2.1921
  604MOL0     H81510   3.445   1.744  -0.308 -2.1185  0.3573  0.6344
  604MOL0     H81511   3.405   1.806  -0.159 -0.9953  0.0793 -1.5702
  604MOL0     H81512   3.499   1.593  -0.110 -2.0778  0.3175  0.4215
  604MOL0     H81513   3.592   1.721  -0.036  0.5616  0.6105 -1.4370
  604MOL0     H81514   3.659   1.556  -0.282 -3.2616 -0.8872  1.3320
  604MOL0     H81515   3.740   1.710  -0.235 -2.9042  1.8381 -0.7709
  604MOL0     H81516   3.725   1.471  -0.046 -0.6830 -0.8026 -0.6312
  604MOL0     H81517   3.807   1.623  -0.023  1.5269  0.0566 -0.7205
  604MOL0     H81518   3.868   1.382  -0.182 -1.2800  0.5682 -0.0455
  604MOL0     H81519   3.938   1.535  -0.245 -2.5222  2.0462 -0.5851
  604MOL0     H81520   3.177   1.948  -0.213  2.8987  2.5213 -0.3370
  604MOL0     H81521   2.946   1.922  -0.132  3.5997 -2.0346  0.0638
  604MOL0     H81522   2.508   2.146  -0.211 -3.2308 -0.8038 -2.0346
  604MOL0     H81523   2.253   2.074  -0.167 -1.3460  3.6037  2.8804
  604MOL0     H81524   0.433   2.197   0.006 -2.0895  1.8017  1.3935
  604MOL0     H81525   0.219   2.109  -0.034 -0.7915 -2.9279 -1.8478
  604MOL0     H81526  -0.111   1.989   0.014  0.0609  1.1244  1.3143
  604MOL0     H81527  -0.368   1.982  -0.039  3.0897  1.5474 -1.4604
  604MOL0     H81528  -0.578   1.655   0.148  0.0633 -0.6411  0.1966
  604MOL0     H81529  -0.696   1.755   0.048  0.5023 -3.1411 -1.1151
  604MOL0     H81530  -0.579   1.963   0.163 -0.6818  0.9696  1.9740
  604MOL0     H81531  -0.491   1.847   0.265 -1.5750  0.2334  2.4195
  604MOL0     H81532  -0.641   1.798   0.391 -2.1889  0.3291  0.5476
  604MOL0     H81533  -0.777   1.827   0.289 -0.5989 -1.1025  2.7469
  604MOL0     H81534  -0.727   2.000   0.492  2.4782 -1.0477  1.1694
  604MOL0     H81535  -0.587   2.050   0.394 -1.6247  5.1905 -1.0426
  604MOL0     H81536  -0.966   2.222   0.258  0.0008 -0.2666 -2.8323
  604MOL0     H81537  -0.360   1.560   0.057  1.6886 -0.6647  0.0123
  604MOL0     H81538  -0.167   1.458   0.135  1.2189 -0.9543 -1.7264
  604MOL0     H81539  -0.014   1.535   0.074  1.5475  1.1975  2.3109
  604MOL0     H81540  -0.063   1.546   0.243  3.8482  0.1728 -1.2701
  605MOL0     O81541   0.684   9.331   0.739 -0.0157  0.3074 -0.7827
  605MOL0     C81542   0.586   9.378   0.685 -0.6201  0.3247 -0.1371
  605MOL0     O81543   0.557   9.512   0.685 -0.0107  1.1838  0.2307
  605MOL0     C81544   0.662   9.591   0.718 -0.2609  0.1714  0.8181
  605MOL0     C81545   0.768   9.630   0.627  0.3122 -0.1955  0.3830
  605MOL0     C81546   0.865   9.706   0.665  0.0114 -0.0427 -0.8041
  605MOL0     C81547   0.876   9.774   0.788 -0.1961 -0.6233  0.5179
  605MOL0     O81548   0.988   9.837   0.846  1.1342  0.3035 -0.3294
  605MOL0     C81549   1.081   9.882   0.758 -1.2386 -0.5797  0.1298
  605MOL0     C81550   1.185   9.961   0.845 -0.0789  0.5777 -0.1849
  605MOL0     C81551   1.129  10.095   0.863  0.0031  0.0657  0.5220
  605MOL0     C81552   1.247  10.169   0.933  0.6077 -0.7938 -0.3799
  605MOL0     C81553   1.222  10.319   0.932  0.8092  0.0512  0.5216
  605MOL0     C81554   1.331  10.405   0.988 -0.4770  0.4947 -0.6855
  605MOL0     C81555   1.293  10.550   1.032  0.0059 -0.0991 -0.2384
  605MOL0     C81556   1.427  10.610   1.068  0.8930  0.5083  0.6352
  605MOL0     N81557   1.526  10.634   0.961  0.2115  0.7716 -0.3322
  605MOL0     C81558   1.539  10.740   0.875  0.1773  0.0220  0.3497
  605MOL0     C81559   1.653  10.735   0.809 -0.2640 -0.2514 -0.2752
  605MOL0     C81560   1.717  10.830   0.714  0.2597  0.0467 -0.5023
  605MOL0     C81561   1.861  10.793   0.676 -0.4507  0.3496  0.2821
  605MOL0     C81562   1.871  10.651   0.604  0.8429  0.3114  0.4279
  605MOL0     C81563   1.967  10.561   0.679 -1.2956  0.1024  0.1760
  605MOL0     O81564   2.104  10.610   0.659  0.0029  0.4561 -0.3528
  605MOL0     C81565   2.199  10.538   0.725  0.2087  0.6071 -0.0836
  605MOL0     C81566   2.328  10.583   0.703 -0.0715  0.0764 -0.3191
  605MOL0     C81567   2.440  10.535   0.771  0.1435 -0.2047  0.2356
  605MOL0     C81568   2.429  10.433   0.868  0.4966  0.4465  0.3966
  605MOL0     C81569   2.547  10.397   0.954  0.5477  0.9446  0.9754
  605MOL0     O81570   2.653  10.476   0.941  0.6115  0.0091  0.4239
  605MOL0     C81571   2.771  10.436   0.996  0.1643 -1.0075 -0.6946
  605MOL0     C81572   2.782  10.423   1.127 -0.5584  1.1138 -0.3045
  605MOL0     C81573   2.908  10.388   1.183  0.3959  0.6661  0.1642
  605MOL0     C81574   3.017  10.388   1.095  0.2610  1.0235  0.2106
  605MOL0     O81575   3.143  10.365   1.134 -0.5312  0.6794 -0.8235
  605MOL0     C81576   3.163  10.337   1.274 -0.2271 -0.5347  0.2432
  605MOL0     C81577   3.301  10.291   1.316 -0.2803  0.6928 -0.4080
  605MOL0     C81578   3.294  10.240   1.457  0.7950  0.2839  0.3053
  605MOL0     C81579   3.252  10.090   1.456  0.6759  0.7799 -0.1352
  605MOL0     C81580   3.259  10.031   1.595  0.3158  0.3608  0.2267
  605MOL0     C81581   3.195   9.897   1.599  0.7012  0.0593 -0.7463
  605MOL0     C81582   3.233   9.819   1.726  0.4670  0.8749 -0.3087
  605MOL0     C81583   3.140   9.689   1.745 -0.2266 -0.7100 -0.6818
  605MOL0    Cl81584   3.207   9.557   1.659 -0.3489  0.2277  0.0065
  605MOL0     C81585   3.006  10.393   0.956  0.0497  0.2036  0.2048
  605MOL0     C81586   2.878  10.414   0.906  0.1895 -0.6898 -0.5940
  605MOL0     O81587   2.532  10.315   1.045 -0.1149  0.3061  0.8880
  605MOL0     C81588   2.297  10.378   0.885 -0.4012  0.1423  0.0661
  605MOL0     C81589   2.182  10.427   0.805  0.5026 -0.5420 -0.2379
  605MOL0     N81590   1.719  10.629   0.867 -0.2001  0.3512  0.7168
  605MOL0     N81591   1.645  10.574   0.958 -0.6621  0.2434  0.4759
  605MOL0     C81592   0.771   9.750   0.872 -0.1623  0.7233 -0.8338
  605MOL0     C81593   0.671   9.657   0.837 -0.9513  0.1729 -0.5262
  605MOL0     C81594   0.491   9.276   0.636 -0.1970  0.3261  0.2388
  605MOL0     C81595   0.541   9.150   0.578 -0.3808 -0.8925  0.0756
  605MOL0     C81596   0.454   9.047   0.534  0.1711 -0.3264  1.0432
  605MOL0     C81597   0.316   9.076   0.543  0.4118 -0.2776  0.1626
  605MOL0     O81598   0.222   8.994   0.497 -0.3193 -0.0990  0.0335
  605MOL0     C81599   0.259   8.870   0.436  0.5833  0.1697  0.0959
  605MOL0     C81600   0.135   8.799   0.387 -0.7964 -0.4224  0.2134
  605MOL0     C81601   0.157   8.693   0.271 -0.4470  0.4497 -0.5848
  605MOL0     C81602   0.212   8.555   0.307  0.4992  0.7729 -0.2937
  605MOL0     C81603   0.284   8.498   0.191  0.6008  0.2050  0.3111
  605MOL0     C81604   0.343   8.449   0.101 -0.3168 -0.0418 -1.0709
  605MOL0     C81605   0.270   9.201   0.589 -0.2021 -0.1563  0.0989
  605MOL0     C81606   0.351   9.295   0.637  0.2449  0.1783 -0.6289
  605MOL0     C81607   0.293   9.417   0.691 -0.3485  0.7383  0.0274
  605MOL0     H81608   0.764   9.589   0.526 -0.5904 -1.8837  1.0586
  605MOL0     H81609   0.945   9.727   0.594  1.2062  1.6684  0.9248
  605MOL0     H81610   1.124   9.791   0.715  0.7174  1.0191 -1.4676
  605MOL0     H81611   1.044   9.938   0.672 -3.0355 -0.0930  1.1716
  605MOL0     H81612   1.280   9.967   0.791 -1.5331  3.4444 -2.7090
  605MOL0     H81613   1.192   9.910   0.942  0.9944 -1.9199 -1.4741
  605MOL0     H81614   1.044  10.092   0.933 -2.1197  1.6776 -1.8088
  605MOL0     H81615   1.097  10.148   0.773 -0.4585 -0.4238  0.3944
  605MOL0     H81616   1.258  10.143   1.039  0.2323  1.4497  0.2648
  605MOL0     H81617   1.341  10.169   0.877  0.8196  3.5879 -0.3721
  605MOL0     H81618   1.212  10.351   0.828  1.2598 -3.0913 -0.5916
  605MOL0     H81619   1.130  10.338   0.988 -0.4127 -2.3710 -0.5090
  605MOL0     H81620   1.377  10.359   1.076  1.0698  0.6266 -1.3965
  605MOL0     H81621   1.407  10.405   0.909  3.8343 -3.3714  2.8418
  605MOL0     H81622   1.234  10.561   1.124 -0.1780  1.8206 -0.5468
  605MOL0     H81623   1.242  10.602   0.951 -1.4649 -3.3875 -1.6314
  605MOL0     H81624   1.405  10.709   1.107  2.6587  1.1291  0.1753
  605MOL0     H81625   1.483  10.544   1.135  0.0091 -0.7475  0.1826
  605MOL0     H81626   1.460  10.813   0.859 -1.7641 -1.6740  1.6751
  605MOL0     H81627   1.652  10.844   0.627 -2.4666  0.7326  1.4933
  605MOL0     H81628   1.725  10.927   0.764  3.5141 -0.6733  0.6345
  605MOL0     H81629   1.883  10.862   0.595 -0.0032  0.7069  0.6984
  605MOL0     H81630   1.937  10.799   0.755  0.7048 -0.0459 -0.7618
  605MOL0     H81631   1.919  10.680   0.510  1.0401  2.8732  1.2411
  605MOL0     H81632   1.776  10.602   0.584  0.4570  0.4787  1.7195
  605MOL0     H81633   1.970  10.461   0.633 -1.4278  0.8809 -1.5829
  605MOL0     H81634   1.946  10.555   0.786  0.6751 -1.5768  0.5421
  605MOL0     H81635   2.346  10.668   0.637  1.4055 -0.6145 -0.8598
  605MOL0     H81636   2.532  10.588   0.751  0.5508 -1.1493 -0.4783
  605MOL0     H81637   2.689  10.435   1.181 -1.2092 -4.7136  0.4697
  605MOL0     H81638   2.900  10.380   1.291 -5.9766 -0.9732 -0.0472
  605MOL0     H81639   3.132  10.430   1.323 -0.2123  1.1553 -2.7483
  605MOL0     H81640   3.096  10.251   1.287  0.5879 -1.2867 -0.3746
  605MOL0     H81641   3.331  10.223   1.236  0.5059 -0.2649  0.6837
  605MOL0     H81642   3.369  10.377   1.323 -0.0206  0.4802 -0.3141
  605MOL0     H81643   3.394  10.254   1.499  0.2900 -0.4456  1.8310
  605MOL0     H81644   3.229  10.299   1.522  0.3453 -0.6951  0.7582
  605MOL0     H81645   3.310  10.031   1.385 -0.0749 -1.5303  1.0575
  605MOL0     H81646   3.148  10.072   1.429  1.0295 -2.9079  0.4842
  605MOL0     H81647   3.205  10.093   1.668 -6.1070 -1.3129 -2.4032
  605MOL0     H81648   3.364  10.028   1.627  0.7276  0.2435 -1.0805
  605MOL0     H81649   3.086   9.907   1.597  0.6698 -0.2976 -1.0970
  605MOL0     H81650   3.217   9.847   1.504  0.2563 -1.4268 -0.0908
  605MOL0     H81651   3.228   9.877   1.819  1.8027  2.0830 -0.9438
  605MOL0     H81652   3.341   9.801   1.727  0.5313  1.2478 -0.1022
  605MOL0     H81653   3.124   9.663   1.850  1.7693  2.5399  0.5930
  605MOL0     H81654   3.042   9.713   1.704 -0.3533 -4.1209 -2.7453
  605MOL0     H81655   3.091  10.365   0.894  1.6454  0.3817  2.2390
  605MOL0     H81656   2.877  10.430   0.799  1.8318 -0.6264 -0.6226
  605MOL0     H81657   2.306  10.298   0.957  0.7802 -0.2809 -0.5270
  605MOL0     H81658   2.091  10.380   0.839  0.1253  1.5455  1.8086
  605MOL0     H81659   0.762   9.794   0.971 -0.1946  0.0140 -0.5212
  605MOL0     H81660   0.593   9.636   0.911  1.0019  2.9967  2.6223
  605MOL0     H81661   0.649   9.148   0.577 -0.1315  2.1501  3.1692
  605MOL0     H81662   0.490   8.956   0.487 -0.9107 -0.0015 -0.4811
  605MOL0     H81663   0.313   8.812   0.511 -0.0169  0.7314  0.9736
  605MOL0     H81664   0.320   8.878   0.345  1.6160 -2.1744  0.4923
  605MOL0     H81665   0.074   8.870   0.331 -1.0811 -0.3775  0.5748
  605MOL0     H81666   0.073   8.750   0.464  1.3329 -1.9732  1.0430
  605MOL0     H81667   0.220   8.738   0.193 -2.5316 -0.8071 -3.1509
  605MOL0     H81668   0.057   8.669   0.233 -1.5211  2.1997  0.9345
  605MOL0     H81669   0.277   8.566   0.394  0.1163  0.5782  0.0231
  605MOL0     H81670   0.133   8.485   0.337  0.5919 -0.1804 -2.1610
  605MOL0     H81671   0.389   8.411   0.012  4.4233 -0.4555  1.2715
  605MOL0     H81672   0.163   9.221   0.584 -0.1277  0.3999  0.6380
  605MOL0     H81673   0.347   9.440   0.783  1.5832  0.1231 -0.8988
  605MOL0     H81674   0.290   9.506   0.627 -0.0206  2.2511  2.0317
  605MOL0     H81675   0.189   9.401   0.721 -0.6400  0.8635 -0.8988
  606MOL0     O81676   9.319   1.653   1.455 -0.0212 -0.6457 -0.2019
  606MOL0     C81677   9.286   1.698   1.566 -1.3861  0.2088  0.3843
  606MOL0     O81678   9.374   1.733   1.672  0.1973  0.2066  0.3432
  606MOL0     C81679   9.501   1.785   1.652 -0.5759 -0.3816 -1.0884
  606MOL0     C81680   9.555   1.821   1.527 -0.7200  0.0726 -0.8730
  606MOL0     C81681   9.681   1.876   1.523 -0.2765  0.3061  0.2272
  606MOL0     C81682   9.765   1.908   1.636 -0.1287  0.0222  0.5974
  606MOL0     O81683   9.895   1.954   1.613  0.7337  0.0723 -0.1600
  606MOL0     C81684   9.961   2.003   1.737 -0.0276  1.1226  1.0344
  606MOL0     C81685  10.117   2.043   1.693  0.9871 -0.7632 -0.0227
  606MOL0     C81686  10.210   2.071   1.812  0.9832 -0.0118  0.2338
  606MOL0     C81687  10.258   1.945   1.875  0.3632  0.1728  0.6080
  606MOL0     C81688  10.350   1.954   2.000 -0.3259  0.1772 -1.0440
  606MOL0     C81689  10.369   1.814   2.059  0.6593 -0.2030 -0.0426
  606MOL0     C81690  10.474   1.818   2.177 -0.6045  0.6266 -0.2018
  606MOL0     C81691  10.505   1.679   2.241  0.4473  0.1786  0.8849
  606MOL0     N81692  10.639   1.673   2.307  0.6389 -0.0687  0.5525
  606MOL0     C81693  10.694   1.770   2.384  0.0195  0.1753 -0.2496
  606MOL0     C81694  10.824   1.733   2.408  0.2987 -0.1374 -0.3656
  606MOL0     C81695  10.922   1.817   2.492  0.3733 -0.1094 -0.4297
  606MOL0     C81696  10.910   1.959   2.446 -0.1615 -0.3835 -0.2866
  606MOL0     C81697  11.035   2.033   2.490  0.3285 -0.4590 -0.2599
  606MOL0     C81698  11.026   2.181   2.447  0.5278  0.2942  0.2556
  606MOL0     O81699  11.150   2.222   2.401  0.0781 -0.5158 -0.3230
  606MOL0     C81700  11.262   2.203   2.475 -0.0010  0.1353  0.0641
  606MOL0     C81701  11.380   2.190   2.408  0.3835 -0.3121 -0.9589
  606MOL0     C81702  11.506   2.199   2.467 -0.0525  0.0784  0.6656
  606MOL0     C81703  11.520   2.191   2.604  0.5624 -0.2502 -0.2805
  606MOL0     C81704  11.651   2.196   2.669  0.1720  0.5496 -0.8025
  606MOL0     O81705  11.757   2.185   2.586  0.8362 -0.4680 -0.3961
  606MOL0     C81706  11.887   2.201   2.624  0.0439  0.1534  0.2436
  606MOL0     C81707  11.982   2.150   2.535 -0.5186  0.6325  0.5777
  606MOL0     C81708  12.117   2.134   2.565  0.2431 -0.8390 -0.4174
  606MOL0     C81709  12.158   2.188   2.687 -0.2839 -0.5513  0.5745
  606MOL0     O81710  12.283   2.173   2.732 -0.6879  0.0290 -0.7404
  606MOL0     C81711  12.330   2.043   2.716 -0.0317  0.1645  0.4725
  606MOL0     C81712  12.427   2.022   2.822 -0.0835 -1.3055  0.0180
  606MOL0     C81713  12.513   1.895   2.812  0.2334  0.6020  0.3389
  606MOL0     C81714  12.620   1.891   2.924  0.2355 -0.3285 -0.0310
  606MOL0     C81715  12.745   1.977   2.900  0.6938 -0.3164 -0.0148
  606MOL0     C81716  12.855   1.962   3.008 -0.0977  0.6866  0.0214
  606MOL0     C81717  12.894   1.817   3.014  0.4192  0.0447 -0.5853
  606MOL0     C81718  13.049   1.812   3.045  0.4221  0.5318  1.3017
  606MOL0    Cl81719  13.138   1.854   2.880 -0.3154 -0.3193 -0.4893
  606MOL0     C81720  12.068   2.259   2.770 -0.3933 -0.0137  0.0446
  606MOL0     C81721  11.931   2.264   2.743  0.4989  0.0996  0.4639
  606MOL0     O81722  11.657   2.193   2.790  0.4231 -0.4602 -0.7045
  606MOL0     C81723  11.399   2.189   2.681  0.0256 -0.2311  0.4173
  606MOL0     C81724  11.275   2.197   2.612 -0.2677 -0.6668  0.2209
  606MOL0     N81725  10.835   1.604   2.360  0.3079  0.2531  0.6978
  606MOL0     N81726  10.732   1.577   2.287 -0.3315  0.5096  0.2057
  606MOL0     C81727   9.708   1.867   1.756 -1.3559 -0.3706 -0.0034
  606MOL0     C81728   9.576   1.812   1.769 -0.2350  0.1320  0.8837
  606MOL0     C81729   9.146   1.705   1.607 -0.1534 -0.8889 -0.0294
  606MOL0     C81730   9.121   1.663   1.736 -1.1547  0.2533  0.7359
  606MOL0     C81731   8.992   1.661   1.777  0.7547  0.2607  0.3592
  606MOL0     C81732   8.880   1.684   1.695 -0.0857  0.8861 -0.2365
  606MOL0     O81733   8.761   1.668   1.758 -0.2541 -0.0824 -0.0884
  606MOL0     C81734   8.647   1.694   1.677  0.1727 -0.9748  0.1705
  606MOL0     C81735   8.525   1.638   1.754  0.0904  0.0184  0.7006
  606MOL0     C81736   8.508   1.487   1.719 -0.5010 -0.2113  0.0715
  606MOL0     C81737   8.386   1.415   1.792 -0.4139  1.4378  0.1444
  606MOL0     C81738   8.267   1.493   1.765 -0.5343 -0.5916 -0.9434
  606MOL0     C81739   8.166   1.547   1.755  0.0564 -1.0117  0.0113
  606MOL0     C81740   8.907   1.725   1.562  0.0981  0.5411 -0.0578
  606MOL0     C81741   9.037   1.729   1.515 -0.1902 -0.0069 -0.4230
  606MOL0     C81742   9.063   1.787   1.383 -0.0614 -0.0946  0.0049
  606MOL0     H81743   9.502   1.808   1.434 -0.9451 -1.2913 -0.5753
  606MOL0     H81744   9.720   1.902   1.426  0.3864  1.0326  0.6737
  606MOL0     H81745   9.910   2.088   1.784 -3.1813 -0.6485  1.1084
  606MOL0     H81746   9.960   1.926   1.815 -2.4606  2.1336  2.1193
  606MOL0     H81747  10.112   2.134   1.633 -2.5481 -0.4972  0.4785
  606MOL0     H81748  10.156   1.961   1.631 -1.5425 -1.3252 -0.9831
  606MOL0     H81749  10.155   2.133   1.884  2.3235  1.2208  0.2348
  606MOL0     H81750  10.303   2.123   1.788 -0.0642  1.8078 -0.0747
  606MOL0     H81751  10.172   1.881   1.896 -1.4556  1.5817 -1.9837
  606MOL0     H81752  10.309   1.885   1.799 -2.3347 -1.1086 -0.3163
  606MOL0     H81753  10.442   2.008   1.979 -1.0373  1.6419 -0.5009
  606MOL0     H81754  10.302   2.014   2.078  1.1168  0.7233 -0.5551
  606MOL0     H81755  10.271   1.773   2.083  1.1249 -1.9700 -0.9405
  606MOL0     H81756  10.411   1.748   1.981  0.8699  0.9619 -0.9407
  606MOL0     H81757  10.441   1.887   2.255 -0.4606  2.9456 -2.0981
  606MOL0     H81758  10.571   1.853   2.141 -0.4011 -1.9565 -2.4882
  606MOL0     H81759  10.433   1.654   2.319  0.2007  1.1279  0.9718
  606MOL0     H81760  10.504   1.606   2.159  2.3922 -0.3740  1.3084
  606MOL0     H81761  10.649   1.856   2.432  1.5026  0.8523 -0.0040
  606MOL0     H81762  10.899   1.804   2.598  0.7889 -1.7533 -0.5213
  606MOL0     H81763  11.028   1.796   2.477  0.5211  0.5463 -0.3771
  606MOL0     H81764  10.901   1.965   2.337 -0.1004 -1.1868 -0.3490
  606MOL0     H81765  10.821   2.010   2.483 -0.3167 -1.9289  1.6491
  606MOL0     H81766  11.133   1.986   2.473  1.2693  0.1926  2.8142
  606MOL0     H81767  11.024   2.039   2.598 -1.8662 -0.2825 -0.4533
  606MOL0     H81768  10.988   2.250   2.523  2.3966  0.1430  1.4020
  606MOL0     H81769  10.963   2.192   2.358 -0.3010  0.2399  0.8319
  606MOL0     H81770  11.373   2.192   2.299 -1.2498 -0.6557 -0.8931
  606MOL0     H81771  11.596   2.197   2.405  1.0644 -0.2870  2.2398
  606MOL0     H81772  11.958   2.098   2.443  1.0198 -1.4620  1.2848
  606MOL0     H81773  12.181   2.069   2.506 -0.1938  0.1489 -2.0534
  606MOL0     H81774  12.257   1.962   2.720 -0.1015  0.2548  3.7607
  606MOL0     H81775  12.381   2.038   2.619  0.6567 -2.3883  0.8824
  606MOL0     H81776  12.495   2.106   2.805  0.0803 -1.6959 -1.2821
  606MOL0     H81777  12.378   2.025   2.920  0.0503  1.5104  0.0837
  606MOL0     H81778  12.456   1.802   2.826  0.7174 -0.0734 -1.7887
  606MOL0     H81779  12.566   1.889   2.717 -2.5798  2.5282 -1.5311
  606MOL0     H81780  12.643   1.785   2.941 -1.9590 -0.7469  0.6184
  606MOL0     H81781  12.579   1.923   3.020 -0.3798 -0.0976 -0.3590
  606MOL0     H81782  12.719   2.083   2.904  0.5023 -0.1390 -3.1059
  606MOL0     H81783  12.777   1.961   2.796 -1.5363  1.9087 -1.1505
  606MOL0     H81784  12.933   2.031   2.975 -0.2373 -0.5300 -3.1942
  606MOL0     H81785  12.817   1.996   3.104  1.1241  1.1286  0.3641
  606MOL0     H81786  12.870   1.770   2.918 -0.6300 -0.1970 -0.2140
  606MOL0     H81787  12.830   1.763   3.084  1.0937 -0.0573 -0.0385
  606MOL0     H81788  13.077   1.871   3.132  0.5033  1.4035  0.6937
  606MOL0     H81789  13.082   1.708   3.058  1.3447  0.0577 -3.1958
  606MOL0     H81790  12.104   2.306   2.861  0.2793  3.6908 -1.9144
  606MOL0     H81791  11.860   2.306   2.813 -0.2874 -1.1398  0.4440
  606MOL0     H81792  11.415   2.186   2.788  0.3174 -0.6530  0.3645
  606MOL0     H81793  11.184   2.192   2.671 -0.1359 -0.8670  0.4105
  606MOL0     H81794   9.770   1.874   1.845  0.6273 -4.1272 -0.8695
  606MOL0     H81795   9.530   1.777   1.861 -2.1659  0.0065 -0.0647
  606MOL0     H81796   9.200   1.646   1.808 -3.4145 -0.0824  3.2867
  606MOL0     H81797   8.961   1.617   1.871  0.2435 -2.2992 -0.9251
  606MOL0     H81798   8.652   1.656   1.575 -1.3888 -0.8606  0.0314
  606MOL0     H81799   8.640   1.803   1.679  1.0967 -0.8970 -0.2200
  606MOL0     H81800   8.436   1.688   1.716  0.0727 -1.2046 -0.9980
  606MOL0     H81801   8.537   1.655   1.861  2.6607 -1.0288  0.6666
  606MOL0     H81802   8.600   1.433   1.738  1.7750  2.6158 -1.8820
  606MOL0     H81803   8.506   1.497   1.610  2.4516  2.2427  0.0919
  606MOL0     H81804   8.380   1.315   1.748  0.9498  1.3796  0.0316
  606MOL0     H81805   8.403   1.387   1.897 -0.5594 -1.3093 -0.4707
  606MOL0     H81806   8.065   1.580   1.744 -0.2581 -1.4493  1.3785
  606MOL0     H81807   8.829   1.750   1.491 -1.5049 -2.0313  0.6355
  606MOL0     H81808   9.106   1.707   1.322 -1.4120  0.6080 -1.9747
  606MOL0     H81809   8.976   1.824   1.326 -0.0414  2.9720  1.7696
  606MOL0     H81810   9.131   1.871   1.396  2.5660 -2.1841  0.5834
  607MOL0     O81811   2.477   2.954  11.251  0.2564 -0.2022 -0.1065
  607MOL0     C81812   2.403   2.951  11.352 -0.8062  0.5270  0.7597
  607MOL0     O81813   2.439   2.952  11.483 -0.8223 -0.5394  0.1915
  607MOL0     C81814   2.568   2.989  11.495  0.9450 -0.1034  0.0305
  607MOL0     C81815   2.666   2.899  11.484  0.4314  0.7313 -0.1812
  607MOL0     C81816   2.799   2.928  11.505  1.0199  0.2153 -0.8691
  607MOL0     C81817   2.827   3.065  11.526 -0.8561  0.0891 -0.8502
  607MOL0     O81818   2.952   3.105  11.561  0.4481 -0.9424 -0.1027
  607MOL0     C81819   3.066   3.022  11.527  0.0339  0.5484 -0.5657
  607MOL0     C81820   3.201   3.089  11.545  0.0673 -1.3664 -0.0325
  607MOL0     C81821   3.313   2.993  11.544  0.2119  0.7433  0.3979
  607MOL0     C81822   3.427   3.051  11.627  0.9976  0.0657 -0.6761
  607MOL0     C81823   3.551   2.965  11.634 -0.2699 -0.0102 -0.2116
  607MOL0     C81824   3.526   2.823  11.681 -1.0241  0.9017 -0.2008
  607MOL0     C81825   3.662   2.754  11.724  0.4210  0.7532 -0.1115
  607MOL0     C81826   3.759   2.728  11.603 -0.2403  0.4933  0.0687
  607MOL0     N81827   3.899   2.698  11.636  0.4520 -0.6253  0.0662
  607MOL0     C81828   3.986   2.785  11.696  0.0442  1.2246 -0.1006
  607MOL0     C81829   4.102   2.716  11.696  0.0585  0.0434  0.2037
  607MOL0     C81830   4.247   2.778  11.702  0.1828  0.0300 -0.0068
  607MOL0     C81831   4.352   2.684  11.652 -0.1016 -0.6313 -1.1439
  607MOL0     C81832   4.486   2.706  11.727 -0.0494 -0.1261  0.7336
  607MOL0     C81833   4.539   2.844  11.698  0.4849 -1.2392 -0.3431
  607MOL0     O81834   4.651   2.874  11.781 -0.1848 -0.5595  0.0293
  607MOL0     C81835   4.764   2.814  11.736 -0.9204 -0.4354  0.6806
  607MOL0     C81836   4.841   2.877  11.635 -0.6262  0.0964  0.3107
  607MOL0     C81837   4.972   2.833  11.601  0.3143  0.1939 -0.4097
  607MOL0     C81838   5.020   2.710  11.660 -0.2995 -0.0954 -0.8036
  607MOL0     C81839   5.158   2.658  11.635 -0.5075  0.4759 -0.0627
  607MOL0     O81840   5.227   2.728  11.542  0.6910  0.1820  0.1118
  607MOL0     C81841   5.335   2.673  11.477  0.0004  0.0266  0.4163
  607MOL0     C81842   5.323   2.644  11.341  0.0138  0.1594 -0.0235
  607MOL0     C81843   5.433   2.600  11.268 -0.0486  1.0762  0.0539
  607MOL0     C81844   5.547   2.567  11.331 -0.7475  0.4112  0.3777
  607MOL0     O81845   5.653   2.512  11.259  0.4827 -0.3577  0.1023
  607MOL0     C81846   5.783   2.506  11.319 -0.4943 -0.5375  0.0548
  607MOL0     C81847   5.873   2.465  11.213  0.3050 -0.6294  0.3773
  607MOL0     C81848   6.018   2.462  11.264 -0.4590 -0.5697 -0.3407
  607MOL0     C81849   6.126   2.441  11.149  0.2608 -0.2844 -0.3826
  607MOL0     C81850   6.268   2.464  11.214  0.1285 -0.1434 -0.3875
  607MOL0     C81851   6.303   2.367  11.326  1.1336 -0.3737 -0.2814
  607MOL0     C81852   6.454   2.359  11.352 -0.0413  0.4389  0.1058
  607MOL0     C81853   6.493   2.246  11.453  0.5774 -0.2506 -0.0498
  607MOL0    Cl81854   6.665   2.262  11.484  0.2488  0.5247 -0.1118
  607MOL0     C81855   5.557   2.591  11.465 -0.2287  0.4928 -0.8038
  607MOL0     C81856   5.457   2.649  11.542  0.1750  0.4813 -0.4911
  607MOL0     O81857   5.196   2.558  11.697 -0.0210  0.0381 -0.4583
  607MOL0     C81858   4.930   2.638  11.735 -0.0138 -0.0350 -0.1810
  607MOL0     C81859   4.813   2.689  11.785  0.8812 -0.1833  0.4631
  607MOL0     N81860   4.083   2.585  11.648  0.4318  0.1071 -0.0777
  607MOL0     N81861   3.959   2.581  11.615 -0.3169 -0.1741  0.0455
  607MOL0     C81862   2.728   3.165  11.532  0.9077  0.4300  0.1119
  607MOL0     C81863   2.599   3.119  11.526  0.5765  1.1090 -0.2931
  607MOL0     C81864   2.263   2.912  11.320 -0.2950 -1.0800  0.2921
  607MOL0     C81865   2.197   2.967  11.215 -0.0794 -1.1957  0.4579
  607MOL0     C81866   2.069   2.923  11.184 -0.6249  0.1288 -1.0444
  607MOL0     C81867   2.003   2.832  11.263  0.0555  1.0641  0.3390
  607MOL0     O81868   1.872   2.796  11.223  0.7786  0.1834 -0.7924
  607MOL0     C81869   1.767   2.898  11.245 -0.3243 -0.4651 -0.7642
  607MOL0     C81870   1.635   2.827  11.250  1.9438  0.1670 -0.4188
  607MOL0     C81871   1.604   2.758  11.123 -0.9677 -0.0178 -0.1637
  607MOL0     C81872   1.461   2.706  11.142  0.0154  0.7276  0.1107
  607MOL0     C81873   1.392   2.693  11.009  0.1555 -0.2048  0.0390
  607MOL0     C81874   1.356   2.674  10.894  0.3193 -0.4876 -0.6093
  607MOL0     C81875   2.067   2.771  11.373 -0.1644  0.4672 -0.7332
  607MOL0     C81876   2.200   2.809  11.396 -1.4246  0.4169  0.8797
  607MOL0     C81877   2.261   2.739  11.511 -0.8426 -0.1811 -0.3117
  607MOL0     H81878   2.640   2.799  11.451  1.0952  0.2446  0.7362
  607MOL0     H81879   2.882   2.858  11.495  2.3885  1.7539 -0.6910
  607MOL0     H81880   3.048   2.932  11.586 -2.4415  0.6006 -1.1160
  607MOL0     H81881   3.042   3.001  11.422 -2.6515  0.3083  0.0182
  607MOL0     H81882   3.198   3.152  11.635 -1.2115 -4.5728  2.3531
  607MOL0     H81883   3.220   3.158  11.462  1.2758 -0.3378  1.0519
  607MOL0     H81884   3.357   2.970  11.446  2.2771 -0.1656  1.4768
  607MOL0     H81885   3.269   2.897  11.569 -1.8214  0.8946 -2.1982
  607MOL0     H81886   3.457   3.147  11.585  1.0222 -0.0968 -1.0326
  607MOL0     H81887   3.384   3.063  11.727  0.5893 -0.3332 -0.7962
  607MOL0     H81888   3.594   2.964  11.534  0.3286  2.7605 -0.0575
  607MOL0     H81889   3.622   3.014  11.702  0.4861  1.4071 -1.9471
  607MOL0     H81890   3.461   2.817  11.769 -0.8245 -2.6012 -0.1216
  607MOL0     H81891   3.477   2.759  11.607 -3.1463 -0.4087  2.1730
  607MOL0     H81892   3.630   2.664  11.777 -0.8051  1.0430 -0.3130
  607MOL0     H81893   3.711   2.814  11.801  2.4376 -1.8528  0.7690
  607MOL0     H81894   3.722   2.638  11.552 -0.2855  0.4403  0.1946
  607MOL0     H81895   3.762   2.816  11.538  2.1136  1.5067  1.4377
  607MOL0     H81896   3.970   2.890  11.718 -4.6550  0.3589  1.9879
  607MOL0     H81897   4.245   2.862  11.632  0.7704 -0.0653 -0.1449
  607MOL0     H81898   4.263   2.815  11.804  2.5537  1.1925 -0.7209
  607MOL0     H81899   4.326   2.581  11.678  0.1722 -0.4740 -0.1881
  607MOL0     H81900   4.357   2.693  11.543 -0.1540 -2.9001 -1.3727
  607MOL0     H81901   4.558   2.642  11.677  0.0032  1.8599 -1.9396
  607MOL0     H81902   4.492   2.690  11.835  2.2391  0.5448  0.7508
  607MOL0     H81903   4.454   2.906  11.726  0.9664 -0.1375 -1.2606
  607MOL0     H81904   4.562   2.866  11.593 -0.4433 -0.0201 -0.3042
  607MOL0     H81905   4.806   2.972  11.598  1.9587  1.0564  0.0972
  607MOL0     H81906   5.034   2.890  11.533 -0.6192  1.5971 -0.1404
  607MOL0     H81907   5.224   2.651  11.297 -0.3446  1.6994  0.9171
  607MOL0     H81908   5.418   2.574  11.164  2.1129  0.7949 -0.2226
  607MOL0     H81909   5.813   2.602  11.362  1.5194 -0.9488 -0.3547
  607MOL0     H81910   5.796   2.430  11.397  0.1624 -2.1503 -1.5712
  607MOL0     H81911   5.838   2.368  11.176 -1.8802  0.8728 -1.7641
  607MOL0     H81912   5.869   2.531  11.126  0.9912 -1.1681 -0.0776
  607MOL0     H81913   6.042   2.559  11.308  0.3803  0.4607 -2.8592
  607MOL0     H81914   6.019   2.380  11.337 -5.8886 -0.0769  0.6937
  607MOL0     H81915   6.108   2.519  11.075  2.0177 -0.4596 -1.0256
  607MOL0     H81916   6.132   2.347  11.093  2.5207 -1.0400  1.0130
  607MOL0     H81917   6.283   2.566  11.249 -0.6889  0.0221 -0.5107
  607MOL0     H81918   6.339   2.445  11.132 -0.3110 -1.4758 -0.4875
  607MOL0     H81919   6.249   2.395  11.417 -0.5904  0.7261 -1.5669
  607MOL0     H81920   6.264   2.268  11.306  0.4841  0.0742 -1.3134
  607MOL0     H81921   6.490   2.457  11.385  1.4077  0.3647 -1.1181
  607MOL0     H81922   6.498   2.335  11.255  1.4766  1.0931  0.5937
  607MOL0     H81923   6.434   2.266  11.544 -0.6858  0.8338 -1.0530
  607MOL0     H81924   6.467   2.147  11.416  0.1410 -0.5546  1.0309
  607MOL0     H81925   5.653   2.573  11.513 -0.8796  0.0968  0.4080
  607MOL0     H81926   5.461   2.661  11.649 -2.9062  3.3944 -0.5409
  607MOL0     H81927   4.967   2.539  11.762  2.4303  0.7619 -0.3539
  607MOL0     H81928   4.753   2.628  11.852  2.3405 -0.6522  1.3913
  607MOL0     H81929   2.748   3.269  11.554  0.0275  0.3614  1.3556
  607MOL0     H81930   2.516   3.189  11.538 -1.4519 -0.6890 -2.6186
  607MOL0     H81931   2.252   3.032  11.147  1.2700 -2.5968  0.1330
  607MOL0     H81932   2.021   2.975  11.102  0.4913  3.3997  0.2097
  607MOL0     H81933   1.779   2.972  11.165  2.1821 -1.0174 -0.9824
  607MOL0     H81934   1.779   2.948  11.341 -0.9959  1.3607 -1.5838
  607MOL0     H81935   1.556   2.901  11.262 -0.4623 -2.1788 -0.6878
  607MOL0     H81936   1.630   2.759  11.336 -1.0843 -0.4119 -0.9228
  607MOL0     H81937   1.670   2.675  11.100 -0.4171  0.1974  0.5888
  607MOL0     H81938   1.615   2.821  11.034  1.0566  0.2118  0.1986
  607MOL0     H81939   1.452   2.609  11.191 -0.9420 -1.2078 -3.5447
  607MOL0     H81940   1.401   2.786  11.186 -0.1164  1.1599 -0.8342
  607MOL0     H81941   1.322   2.635  10.801  2.4255 -6.0817  0.5421
  607MOL0     H81942   2.017   2.708  11.446  0.0924 -0.1651 -1.0993
  607MOL0     H81943   2.367   2.713  11.496 -0.8505 -0.4772  0.1169
  607MOL0     H81944   2.251   2.797  11.604  1.1452 -0.6604  0.2688
  607MOL0     H81945   2.216   2.643  11.537  2.4830 -1.0706  3.1838
  608MOL0     O81946   9.593   6.070   4.667  0.4649  0.2286  0.2419
  608MOL0     C81947   9.544   6.140   4.754 -0.2214 -0.1158 -0.5509
  608MOL0     O81948   9.598   6.261   4.792  0.2664  0.5103  0.6512
  608MOL0     C81949   9.731   6.290   4.759  0.1623 -1.4415 -0.5695
  608MOL0     C81950   9.831   6.204   4.727  0.1496 -0.4805  0.0239
  608MOL0     C81951   9.954   6.256   4.699 -0.3420 -0.8627  0.2853
  608MOL0     C81952   9.976   6.396   4.694  0.2230 -0.3184 -0.6294
  608MOL0     O81953  10.100   6.449   4.662  0.8052 -0.1111  1.3584
  608MOL0     C81954  10.220   6.382   4.682 -0.2382  1.0181 -0.6611
  608MOL0     C81955  10.329   6.489   4.673  0.2673 -0.2743  0.3291
  608MOL0     C81956  10.465   6.429   4.724 -0.9011  0.2126  0.0471
  608MOL0     C81957  10.570   6.536   4.711 -0.2976 -0.4568 -0.3285
  608MOL0     C81958  10.709   6.491   4.756  0.6214 -0.7068 -0.7997
  608MOL0     C81959  10.780   6.438   4.629 -0.4860 -0.0842  0.6471
  608MOL0     C81960  10.926   6.376   4.643 -0.7330 -0.7183  0.4856
  608MOL0     C81961  10.941   6.246   4.721  0.2866  0.4409  0.2165
  608MOL0     N81962  11.074   6.216   4.779  0.2827 -0.5860  0.0514
  608MOL0     C81963  11.154   6.115   4.736  0.2438 -0.7233  0.1262
  608MOL0     C81964  11.270   6.130   4.798  0.0169 -0.2002  0.5800
  608MOL0     C81965  11.394   6.044   4.771 -0.4975 -0.8298 -0.6036
  608MOL0     C81966  11.452   6.056   4.636 -0.0929  0.7649  0.4475
  608MOL0     C81967  11.579   5.969   4.638 -0.9654  0.8243 -0.5935
  608MOL0     C81968  11.692   6.022   4.738  0.0625 -0.4089  0.0942
  608MOL0     O81969  11.821   5.964   4.716 -0.5357  0.2210  0.2608
  608MOL0     C81970  11.925   5.975   4.803 -1.0934  0.5543  0.3660
  608MOL0     C81971  12.046   5.916   4.767 -0.3186  0.0015  0.7521
  608MOL0     C81972  12.160   5.941   4.849  0.5998  0.3152  0.3917
  608MOL0     C81973  12.147   6.025   4.966 -0.8105  0.1109  0.3946
  608MOL0     C81974  12.266   6.072   5.048  0.2007  0.6792 -0.9002
  608MOL0     O81975  12.377   5.996   5.035  0.1535 -0.5390  0.1273
  608MOL0     C81976  12.489   6.026   5.110 -0.5421 -0.8663 -0.4467
  608MOL0     C81977  12.531   5.916   5.195  0.0296  0.2348  0.3432
  608MOL0     C81978  12.664   5.927   5.248  0.4663  1.0643  0.3372
  608MOL0     C81979  12.748   6.042   5.233  0.2575 -0.1314  0.3157
  608MOL0     O81980  12.878   6.039   5.277 -0.3137 -0.6558  0.0557
  608MOL0     C81981  12.971   6.148   5.266  0.0356  0.0199 -0.5020
  608MOL0     C81982  13.089   6.111   5.349 -0.2278 -0.8114 -0.1524
  608MOL0     C81983  13.207   6.214   5.346  0.9202 -0.8931  1.4832
  608MOL0     C81984  13.167   6.359   5.377 -0.3779 -0.2574 -0.7056
  608MOL0     C81985  13.278   6.460   5.377  0.8492 -0.4696  0.7471
  608MOL0     C81986  13.345   6.473   5.233 -0.2012 -1.3962  0.2021
  608MOL0     C81987  13.449   6.591   5.230 -0.0442 -0.1089 -0.4066
  608MOL0     C81988  13.580   6.547   5.302 -0.3428  0.5108  0.2774
  608MOL0    Cl81989  13.663   6.438   5.195  0.3353 -0.0755 -0.0410
  608MOL0     C81990  12.686   6.153   5.162  0.3185 -0.8897  0.3274
  608MOL0     C81991  12.564   6.137   5.097 -0.1376  0.0337 -0.4220
  608MOL0     O81992  12.250   6.160   5.126 -0.6985 -0.4065 -0.1838
  608MOL0     C81993  12.019   6.075   5.003 -0.7304  0.3252  0.2086
  608MOL0     C81994  11.915   6.052   4.923 -0.0100 -0.0276 -0.4171
  608MOL0     N81995  11.260   6.235   4.889 -0.0307 -0.0886  1.0637
  608MOL0     N81996  11.144   6.285   4.877 -0.5938  0.2112 -0.4849
  608MOL0     C81997   9.878   6.487   4.733 -0.6040  0.0484  0.1133
  608MOL0     C81998   9.755   6.430   4.761  0.1262 -0.4001  0.1009
  608MOL0     C81999   9.416   6.094   4.819 -0.0841 -0.6733  0.7127
  608MOL0     C82000   9.405   5.959   4.855 -0.3651  0.0137 -0.1096
  608MOL0     C82001   9.283   5.911   4.903 -0.7094  0.4752  0.7352
  608MOL0     C82002   9.167   5.992   4.915  0.6832 -0.1261 -0.0835
  608MOL0     O82003   9.061   5.931   4.974  0.0890 -0.0834  0.0841
  608MOL0     C82004   8.936   6.004   5.003 -0.0693 -0.2705 -0.1261
  608MOL0     C82005   8.829   5.908   4.990  0.5562 -0.7670  0.7703
  608MOL0     C82006   8.774   5.892   4.846 -0.0277  0.7955 -0.2712
  608MOL0     C82007   8.726   6.024   4.793 -0.3439 -0.8592 -0.4301
  608MOL0     C82008   8.624   6.090   4.878 -0.9053  0.0570 -0.3838
  608MOL0     C82009   8.550   6.169   4.935  0.2621  0.8416  0.5630
  608MOL0     C82010   9.183   6.127   4.885 -0.1401 -0.4490  0.8297
  608MOL0     C82011   9.305   6.180   4.841 -0.2808  0.0227  0.7667
  608MOL0     C82012   9.327   6.327   4.831  0.5504 -0.2239 -0.9934
  608MOL0     H82013   9.817   6.096   4.718  0.9702 -0.4627 -1.9787
  608MOL0     H82014  10.041   6.193   4.684  1.1905  0.9085  1.2417
  608MOL0     H82015  10.218   6.331   4.779 -1.3122  1.5836 -0.3719
  608MOL0     H82016  10.235   6.305   4.606 -3.3929  0.0239 -0.4171
  608MOL0     H82017  10.298   6.575   4.734  0.6665  0.3399 -0.3180
  608MOL0     H82018  10.345   6.523   4.571  2.6452 -0.8200  0.4664
  608MOL0     H82019  10.483   6.335   4.672 -0.4791 -1.0934  2.4286
  608MOL0     H82020  10.461   6.410   4.832  1.6027 -0.3038  0.1143
  608MOL0     H82021  10.569   6.587   4.614 -0.7474 -0.5931 -0.4016
  608MOL0     H82022  10.548   6.614   4.786  1.2598 -0.9211  0.6549
  608MOL0     H82023  10.764   6.574   4.802  0.4892 -1.4308  0.7130
  608MOL0     H82024  10.699   6.425   4.843  0.9747  0.3924  0.0982
  608MOL0     H82025  10.720   6.356   4.588 -1.9528  0.8575  0.8624
  608MOL0     H82026  10.784   6.512   4.548 -1.6925  2.8564  3.0903
  608MOL0     H82027  10.986   6.453   4.694 -3.2329  1.6672  0.0831
  608MOL0     H82028  10.973   6.363   4.545  0.0698  1.2185  0.5704
  608MOL0     H82029  10.873   6.232   4.806  1.1360 -0.5007  0.7650
  608MOL0     H82030  10.913   6.165   4.653 -0.3409 -0.5348  1.5722
  608MOL0     H82031  11.148   6.034   4.664  1.4970 -0.2891 -0.4863
  608MOL0     H82032  11.469   6.085   4.840 -0.2882 -0.7392 -0.8805
  608MOL0     H82033  11.388   5.940   4.803  2.5344 -1.0959 -0.6371
  608MOL0     H82034  11.379   6.006   4.572 -1.6569  0.0833  2.6445
  608MOL0     H82035  11.470   6.158   4.603 -1.7468  0.4511 -1.5817
  608MOL0     H82036  11.630   5.965   4.541 -0.5793 -1.8542 -0.3486
  608MOL0     H82037  11.553   5.864   4.653 -1.2786  0.7127 -1.7979
  608MOL0     H82038  11.672   5.984   4.839  0.8891 -0.9592  0.0646
  608MOL0     H82039  11.682   6.130   4.732 -2.1863 -0.6320 -1.6946
  608MOL0     H82040  12.038   5.851   4.680 -1.1333  2.0394 -0.7805
  608MOL0     H82041  12.253   5.890   4.824 -1.5167 -4.6563  1.5115
  608MOL0     H82042  12.473   5.825   5.197 -0.2321  0.3748 -0.4636
  608MOL0     H82043  12.714   5.850   5.306  2.4094 -0.0030 -2.5082
  608MOL0     H82044  12.999   6.162   5.161  0.4087  1.4719 -0.2288
  608MOL0     H82045  12.929   6.242   5.303  1.6903  0.1890  1.0790
  608MOL0     H82046  13.062   6.094   5.453 -1.8968 -0.8157 -0.5472
  608MOL0     H82047  13.130   6.015   5.315 -1.2069 -0.9555 -0.9705
  608MOL0     H82048  13.285   6.181   5.415  0.1640 -1.0161  2.3061
  608MOL0     H82049  13.237   6.198   5.242  3.0681 -1.7249  2.1771
  608MOL0     H82050  13.139   6.361   5.483  3.6241  0.9107  0.5273
  608MOL0     H82051  13.085   6.392   5.312 -0.7187  0.1201 -0.1004
  608MOL0     H82052  13.353   6.425   5.449  0.7277 -0.1457  1.0358
  608MOL0     H82053  13.239   6.559   5.405  1.1383 -0.4455  1.0696
  608MOL0     H82054  13.398   6.379   5.215 -0.9330 -2.2063  2.0579
  608MOL0     H82055  13.264   6.496   5.163 -0.0490 -0.7614  0.2308
  608MOL0     H82056  13.413   6.679   5.282 -0.3965  1.2319 -2.7689
  608MOL0     H82057  13.471   6.612   5.125 -1.5396  0.5074 -0.6100
  608MOL0     H82058  13.648   6.633   5.309  1.0064 -0.5527  0.6458
  608MOL0     H82059  13.567   6.509   5.404 -0.9173 -1.3872 -0.4606
  608MOL0     H82060  12.736   6.244   5.133 -1.6111 -0.6741 -2.9244
  608MOL0     H82061  12.526   6.216   5.032  2.1343  0.3162 -1.4971
  608MOL0     H82062  12.008   6.139   5.090 -2.2243 -1.0785  1.1043
  608MOL0     H82063  11.821   6.096   4.954 -0.8034  0.0193 -2.6886
  608MOL0     H82064   9.892   6.594   4.741  2.0663 -0.3297  1.5064
  608MOL0     H82065   9.669   6.493   4.781  0.0914 -0.4071 -0.0202
  608MOL0     H82066   9.495   5.900   4.842  1.2468  2.5160 -1.3215
  608MOL0     H82067   9.273   5.812   4.945  1.4725 -0.2448 -0.2835
  608MOL0     H82068   8.919   6.099   4.950 -0.5801  0.1836  0.8168
  608MOL0     H82069   8.952   6.034   5.107  1.6383 -0.6117 -0.2614
  608MOL0     H82070   8.745   5.946   5.049  0.7228  1.0269 -0.0862
  608MOL0     H82071   8.864   5.815   5.035  1.3193 -0.2006  1.3655
  608MOL0     H82072   8.700   5.812   4.842 -2.7394  3.1839 -1.1000
  608MOL0     H82073   8.855   5.858   4.781 -0.7675  1.1731 -1.4123
  608MOL0     H82074   8.801   6.101   4.771 -0.6884 -0.5949 -0.7107
  608MOL0     H82075   8.684   6.005   4.694 -0.6453  1.6998 -0.8598
  608MOL0     H82076   8.484   6.244   4.975 -1.0602 -0.4416  0.9117
  608MOL0     H82077   9.107   6.204   4.883  1.1798  0.8926  0.4917
  608MOL0     H82078   9.418   6.364   4.879  1.4113  1.7668 -3.8604
  608MOL0     H82079   9.338   6.362   4.728 -0.3698  0.3778 -0.9031
  608MOL0     H82080   9.247   6.389   4.872  0.0385 -0.0439 -2.2303
  609MOL0     O82081   9.406  10.241   9.089 -0.7527  0.4204  0.1502
  609MOL0     C82082   9.320  10.163   9.090  1.0967  1.0819 -0.1369
  609MOL0     O82083   9.327  10.025   9.097 -0.4949 -0.4355 -0.2983
  609MOL0     C82084   9.448   9.970   9.129 -0.6101  0.0096  0.0351
  609MOL0     C82085   9.469   9.922   9.255  0.2645  1.0846 -0.1894
  609MOL0     C82086   9.591   9.861   9.295  0.0233 -0.2522  0.2184
  609MOL0     C82087   9.694   9.848   9.204  1.0116 -1.0827  0.7269
  609MOL0     O82088   9.822   9.799   9.224  0.4866  0.2169  0.6841
  609MOL0     C82089   9.855   9.766   9.359  0.5278  0.6879 -0.4870
  609MOL0     C82090   9.906   9.885   9.449 -0.2520  1.1714  0.1249
  609MOL0     C82091  10.019   9.951   9.364  0.7138  0.5636 -0.6906
  609MOL0     C82092  10.083  10.061   9.448  0.0738  0.5143  0.2205
  609MOL0     C82093  10.203  10.140   9.384  0.2344  0.4044  0.9099
  609MOL0     C82094  10.332  10.054   9.366 -0.1354  0.1748 -0.1348
  609MOL0     C82095  10.448  10.137   9.316  0.3011  0.5618 -0.8051
  609MOL0     C82096  10.505  10.244   9.413  0.9026 -0.3033 -0.5013
  609MOL0     N82097  10.620  10.316   9.354  0.2697  0.0062  0.1142
  609MOL0     C82098  10.652  10.448   9.372  1.2881  0.2516  0.2632
  609MOL0     C82099  10.750  10.469   9.281 -0.9342  0.2782 -0.3469
  609MOL0     C82100  10.835  10.589   9.258  0.1834  0.1557 -0.2833
  609MOL0     C82101  10.981  10.545   9.239  0.0057 -0.5766 -0.8635
  609MOL0     C82102  11.059  10.660   9.177  1.0368  0.8043 -0.4816
  609MOL0     C82103  11.197  10.617   9.139 -0.0661 -0.1374  0.1681
  609MOL0     O82104  11.263  10.586   9.261  0.2496 -0.1130 -0.8258
  609MOL0     C82105  11.380  10.524   9.249 -0.4226 -0.2750 -0.7876
  609MOL0     C82106  11.421  10.469   9.372  0.1848 -0.4640  0.6776
  609MOL0     C82107  11.547  10.416   9.381 -0.1565  0.3733  0.4841
  609MOL0     C82108  11.628  10.389   9.274 -0.6952  0.2237  0.0441
  609MOL0     C82109  11.772  10.346   9.289  1.1289  0.5478  0.0108
  609MOL0     O82110  11.815  10.326   9.410 -0.4224  0.4021 -0.2070
  609MOL0     C82111  11.948  10.302   9.421  0.0570  0.4020 -1.1651
  609MOL0     C82112  12.001  10.171   9.434 -0.1407  0.7318 -0.1321
  609MOL0     C82113  12.143  10.151   9.445  0.0311  0.3130 -1.4303
  609MOL0     C82114  12.233  10.258   9.456  0.9704 -0.2271 -0.3175
  609MOL0     O82115  12.368  10.243   9.474  0.3430 -0.2522 -0.8161
  609MOL0     C82116  12.424  10.120   9.425  0.0039 -0.5083  0.8438
  609MOL0     C82117  12.573  10.107   9.450 -1.0098  0.3538 -0.1648
  609MOL0     C82118  12.650  10.239   9.414  0.8852 -0.0124 -0.1666
  609MOL0     C82119  12.797  10.211   9.414  0.6538  0.2989 -0.2254
  609MOL0     C82120  12.875  10.332   9.369  0.1181  0.2578 -0.6516
  609MOL0     C82121  13.020  10.305   9.351 -0.1812 -0.6211  1.2407
  609MOL0     C82122  13.096  10.434   9.301  0.3019  0.0795 -0.5965
  609MOL0     C82123  13.082  10.455   9.155  0.3914  0.3218  0.0976
  609MOL0    Cl82124  13.133  10.309   9.059  0.0586 -0.0976 -0.3554
  609MOL0     C82125  12.180  10.385   9.447  0.4204 -0.5055  0.4309
  609MOL0     C82126  12.038  10.410   9.438 -0.3766  0.9055  0.5472
  609MOL0     O82127  11.836  10.325   9.186  0.5106 -0.0204 -0.3015
  609MOL0     C82128  11.579  10.428   9.144 -0.0803  0.9632 -1.1497
  609MOL0     C82129  11.452  10.492   9.134  0.1715  0.5093  0.0384
  609MOL0     N82130  10.762  10.353   9.200  0.1876  0.9222 -0.6744
  609MOL0     N82131  10.691  10.258   9.255 -0.0335  0.3206 -0.0757
  609MOL0     C82132   9.667   9.898   9.074 -0.3520  1.0664  0.0592
  609MOL0     C82133   9.546   9.950   9.032  0.2298 -0.2711 -0.2162
  609MOL0     C82134   9.184  10.230   9.110 -0.4075 -0.6431 -0.2819
  609MOL0     C82135   9.169  10.358   9.067  0.6538  0.1234 -0.1500
  609MOL0     C82136   9.052  10.436   9.087  0.3620  0.1084 -0.4594
  609MOL0     C82137   8.943  10.379   9.154 -0.6165 -0.1867  1.2905
  609MOL0     O82138   8.831  10.448   9.183 -0.4444 -0.1468  0.1354
  609MOL0     C82139   8.829  10.594   9.184 -0.0984  0.0594  0.3400
  609MOL0     C82140   8.685  10.634   9.202  1.5075  0.4048 -0.6680
  609MOL0     C82141   8.651  10.607   9.345 -1.2774  0.1623  0.3058
  609MOL0     C82142   8.524  10.671   9.380 -0.3100  0.0942 -0.1782
  609MOL0     C82143   8.496  10.637   9.524  0.9375  0.3378 -0.7681
  609MOL0     C82144   8.496  10.598   9.639 -0.2945 -0.3758  0.0174
  609MOL0     C82145   8.953  10.247   9.188 -0.3558 -0.3120 -0.0607
  609MOL0     C82146   9.072  10.174   9.185  0.1255 -0.6992 -0.8179
  609MOL0     C82147   9.085  10.039   9.264 -0.4053  1.1321 -0.1966
  609MOL0     H82148   9.389   9.917   9.328  2.1570 -1.3157  1.9201
  609MOL0     H82149   9.598   9.839   9.401 -1.9309 -1.2005  0.1851
  609MOL0     H82150   9.774   9.717   9.413  0.3782  0.5382 -0.8447
  609MOL0     H82151   9.933   9.690   9.350 -0.8633 -1.1881  1.8962
  609MOL0     H82152   9.939   9.847   9.547 -0.0612  0.2632 -0.2831
  609MOL0     H82153   9.829   9.961   9.463  1.2808  2.9273 -0.6070
  609MOL0     H82154   9.985   9.991   9.268 -0.8989 -1.0269 -0.8472
  609MOL0     H82155  10.098   9.877   9.349 -1.4030 -1.7992 -0.9492
  609MOL0     H82156  10.014  10.140   9.477  0.3074  0.4684  0.9060
  609MOL0     H82157  10.110  10.019   9.545 -1.1255  2.4301  1.4496
  609MOL0     H82158  10.184  10.184   9.286  3.5117 -1.7099 -0.8569
  609MOL0     H82159  10.229  10.222   9.451  1.3636  1.6562 -0.9710
  609MOL0     H82160  10.356   9.999   9.458  1.5820  0.6850 -0.2538
  609MOL0     H82161  10.307   9.974   9.296  1.1471  0.8826 -1.4319
  609MOL0     H82162  10.415  10.184   9.223 -0.6803  2.8423  0.6190
  609MOL0     H82163  10.532  10.069   9.299  1.9458  1.3854  2.9644
  609MOL0     H82164  10.432  10.316   9.452  1.9074  0.1302  0.6425
  609MOL0     H82165  10.529  10.189   9.504 -3.1626 -1.6322 -0.0186
  609MOL0     H82166  10.600  10.517   9.438 -0.6582 -1.2852  0.4198
  609MOL0     H82167  10.796  10.646   9.173 -2.8363  4.2540  3.4252
  609MOL0     H82168  10.836  10.654   9.346 -0.8260 -1.4627  0.9684
  609MOL0     H82169  11.015  10.508   9.337  0.6999 -1.2866 -1.3532
  609MOL0     H82170  10.994  10.460   9.170 -0.1200 -0.0302 -1.5662
  609MOL0     H82171  11.056  10.745   9.246 -1.9346 -0.3914  1.0751
  609MOL0     H82172  11.000  10.703   9.096  1.3812 -1.4163 -1.9776
  609MOL0     H82173  11.251  10.700   9.093 -0.8007  1.0656  1.3924
  609MOL0     H82174  11.194  10.529   9.075  0.0036 -1.5428  2.0035
  609MOL0     H82175  11.361  10.482   9.462 -2.1372 -0.0174 -0.8445
  609MOL0     H82176  11.578  10.388   9.482  1.2224  1.4692  0.3911
  609MOL0     H82177  11.953  10.074   9.429  3.2717 -1.1017  0.0705
  609MOL0     H82178  12.161  10.045   9.462 -1.3576  0.3480  0.6132
  609MOL0     H82179  12.380  10.034   9.478  0.5810 -0.9442  0.6251
  609MOL0     H82180  12.394  10.094   9.323 -0.6422 -3.3700  1.6543
  609MOL0     H82181  12.596  10.082   9.554  0.0731  0.4011 -0.3861
  609MOL0     H82182  12.616  10.025   9.391 -0.4404  1.2291 -0.9826
  609MOL0     H82183  12.611  10.282   9.321 -2.0177 -0.8727  0.5449
  609MOL0     H82184  12.635  10.309   9.496  2.5032 -1.1528  1.1780
  609MOL0     H82185  12.815  10.125   9.348 -1.4145 -1.2006  1.0760
  609MOL0     H82186  12.828  10.181   9.514 -4.5259 -1.2363  1.1988
  609MOL0     H82187  12.866  10.411   9.445  1.8806  3.1092 -3.1700
  609MOL0     H82188  12.831  10.375   9.279  1.4479 -0.9203 -1.9096
  609MOL0     H82189  13.070  10.289   9.447  3.7268  1.7332 -0.1780
  609MOL0     H82190  13.040  10.219   9.287 -4.9150 -0.2819 -1.1339
  609MOL0     H82191  13.203  10.427   9.323  0.3096  0.2667 -0.5796
  609MOL0     H82192  13.059  10.516   9.362 -0.0184 -0.9914  0.6992
  609MOL0     H82193  12.976  10.471   9.138  0.0938 -0.1922  1.3488
  609MOL0     H82194  13.141  10.542   9.123 -0.3326  0.1913 -1.6971
  609MOL0     H82195  12.251  10.467   9.441 -0.1185 -0.1275 -2.0784
  609MOL0     H82196  11.999  10.511   9.440  1.3413  1.5987  0.0693
  609MOL0     H82197  11.628  10.412   9.048  0.0028 -2.0157 -0.7029
  609MOL0     H82198  11.409  10.506   9.035 -0.2343 -0.9475 -0.0309
  609MOL0     H82199   9.740   9.918   8.995 -1.2086  1.4629 -0.6487
  609MOL0     H82200   9.541   9.990   8.931 -1.3904  0.8768  0.2587
  609MOL0     H82201   9.248  10.414   9.016  0.1008  2.3980  1.3553
  609MOL0     H82202   9.047  10.538   9.052 -0.0333  0.3520  0.2814
  609MOL0     H82203   8.859  10.634   9.087 -2.4603  0.8048 -0.1226
  609MOL0     H82204   8.903  10.632   9.256  0.5486 -1.1340  0.3491
  609MOL0     H82205   8.606  10.581   9.148  1.2404 -0.1250  0.2171
  609MOL0     H82206   8.686  10.740   9.173  1.1067  0.4677 -0.4633
  609MOL0     H82207   8.727  10.651   9.410  1.3359 -0.3061 -2.2191
  609MOL0     H82208   8.645  10.498   9.350  0.8650 -0.1482 -1.7147
  609MOL0     H82209   8.520  10.780   9.368 -2.9381 -0.0188 -1.1485
  609MOL0     H82210   8.444  10.629   9.318  1.5064  0.0101 -2.5882
  609MOL0     H82211   8.492  10.558   9.738  0.6741 -0.7004 -0.0664
  609MOL0     H82212   8.872  10.196   9.239 -0.5519  1.0832  1.0943
  609MOL0     H82213   9.109   9.955   9.199  3.6406 -0.9203  3.3993
  609MOL0     H82214   9.165  10.040   9.338 -1.6750 -0.5000  1.2923
  609MOL0     H82215   8.993  10.008   9.314  1.7033 -2.3105  1.9073
  610MOL0     O82216   2.944   9.066   6.983  0.1380 -0.0460  0.1723
  610MOL0     C82217   2.932   8.952   6.947  0.7522  0.3791 -0.0678
  610MOL0     O82218   2.805   8.899   6.924  0.8945 -0.5131 -0.0463
  610MOL0     C82219   2.702   8.977   6.970 -0.8243 -0.2561 -0.4666
  610MOL0     C82220   2.620   9.049   6.879  0.2203  0.9557 -1.0640
  610MOL0     C82221   2.495   9.105   6.920 -0.0837 -0.2799 -0.1235
  610MOL0     C82222   2.460   9.100   7.053 -0.1994  0.1985 -0.2522
  610MOL0     O82223   2.344   9.166   7.102 -0.0863 -0.2519  0.2202
  610MOL0     C82224   2.237   9.198   7.015  0.5212  0.2529  0.2588
  610MOL0     C82225   2.103   9.163   7.082 -0.1751 -0.6258  0.1024
  610MOL0     C82226   2.002   9.246   7.014 -0.6176 -0.1295  0.4750
  610MOL0     C82227   1.862   9.246   7.081 -0.0092  0.4381 -0.1849
  610MOL0     C82228   1.774   9.362   7.041  0.2792  0.3389  0.2894
  610MOL0     C82229   1.653   9.384   7.147 -0.8546 -0.0582  0.0673
  610MOL0     C82230   1.548   9.267   7.154  0.0654 -0.1728  0.8131
  610MOL0     C82231   1.419   9.318   7.214 -0.1559 -0.3630 -0.1565
  610MOL0     N82232   1.310   9.221   7.222  0.0447  0.5365 -0.2647
  610MOL0     C82233   1.283   9.127   7.317  0.3316 -0.3754  0.7372
  610MOL0     C82234   1.191   9.037   7.271 -0.7736 -1.7522  0.3230
  610MOL0     C82235   1.131   8.923   7.349  0.5377 -0.8328 -0.6186
  610MOL0     C82236   1.250   8.819   7.365  0.4335 -0.1138  0.3728
  610MOL0     C82237   1.219   8.679   7.419 -0.7408 -0.3132  0.2680
  610MOL0     C82238   1.340   8.594   7.402 -0.1033 -0.1316  0.6676
  610MOL0     O82239   1.425   8.613   7.511 -0.1400  1.4638  0.2014
  610MOL0     C82240   1.550   8.552   7.496 -1.1738  0.1591 -0.5371
  610MOL0     C82241   1.647   8.603   7.583  0.6782 -0.1584 -0.4028
  610MOL0     C82242   1.781   8.554   7.577 -0.3063 -1.2399  0.2126
  610MOL0     C82243   1.817   8.441   7.501  0.0636  1.0003 -0.2559
  610MOL0     C82244   1.954   8.398   7.483  0.3099 -0.1996  0.1366
  610MOL0     O82245   2.037   8.428   7.582 -0.8216 -0.2446 -0.1547
  610MOL0     C82246   2.162   8.363   7.587  0.8980 -0.4968 -0.1475
  610MOL0     C82247   2.273   8.452   7.620 -0.2427  0.1634 -0.6171
  610MOL0     C82248   2.402   8.401   7.611 -0.1334 -0.0412 -0.2769
  610MOL0     C82249   2.425   8.260   7.594 -0.1967 -0.4377 -0.4220
  610MOL0     O82250   2.547   8.191   7.596  0.0100 -0.1022 -0.1693
  610MOL0     C82251   2.664   8.273   7.615  0.1486 -0.6283  0.1047
  610MOL0     C82252   2.787   8.183   7.641  0.5731  0.1695 -0.4096
  610MOL0     C82253   2.903   8.272   7.687 -0.3434 -1.0174 -0.0041
  610MOL0     C82254   3.020   8.204   7.760  0.1081 -0.8679  1.0971
  610MOL0     C82255   3.155   8.245   7.704 -0.7748 -0.0327  0.0422
  610MOL0     C82256   3.204   8.378   7.771 -0.6048  0.0408  0.6021
  610MOL0     C82257   3.349   8.407   7.727  0.3347 -0.4423 -0.3629
  610MOL0     C82258   3.463   8.328   7.800  0.1231 -0.0622 -0.1001
  610MOL0    Cl82259   3.623   8.415   7.779  0.0349  0.0313  0.3749
  610MOL0     C82260   2.317   8.182   7.577 -0.1282  0.1355  0.1592
  610MOL0     C82261   2.183   8.226   7.571 -0.5886  0.1697  0.2809
  610MOL0     O82262   1.980   8.341   7.376  0.5527 -1.1792 -0.4864
  610MOL0     C82263   1.715   8.394   7.421  0.1942  0.6293 -0.6099
  610MOL0     C82264   1.580   8.433   7.424 -0.3370 -0.7746  0.3986
  610MOL0     N82265   1.152   9.091   7.152 -0.0941 -0.4001 -0.0842
  610MOL0     N82266   1.226   9.193   7.120  0.3144  0.3731  0.5841
  610MOL0     C82267   2.548   9.032   7.146  0.7801 -0.0880 -0.5983
  610MOL0     C82268   2.668   8.970   7.104  0.4279  0.4188 -0.3400
  610MOL0     C82269   3.049   8.876   6.903 -0.5599  0.2103  0.7902
  610MOL0     C82270   3.041   8.818   6.776  0.5407 -0.4491  0.1417
  610MOL0     C82271   3.159   8.757   6.726 -0.3123 -0.0559 -0.0392
  610MOL0     C82272   3.277   8.754   6.802 -0.2228  1.1711  0.2217
  610MOL0     O82273   3.368   8.661   6.745 -0.6868 -0.5169 -0.1602
  610MOL0     C82274   3.476   8.618   6.827 -0.0876 -1.0724 -0.5878
  610MOL0     C82275   3.556   8.498   6.774  0.9066 -0.0840 -0.0658
  610MOL0     C82276   3.491   8.359   6.798 -0.5803 -1.1198  0.1323
  610MOL0     C82277   3.345   8.357   6.766  0.8012 -0.5797 -0.0227
  610MOL0     C82278   3.287   8.230   6.792  0.1256 -0.1594  0.7831
  610MOL0     C82279   3.258   8.121   6.835  0.3261 -0.5349 -0.4006
  610MOL0     C82280   3.284   8.802   6.932  0.2741  0.0136  0.3139
  610MOL0     C82281   3.167   8.867   6.979 -0.4768  0.8747 -0.1501
  610MOL0     C82282   3.170   8.936   7.109  0.1365 -0.3543 -0.3698
  610MOL0     H82283   2.649   9.055   6.775  1.0401 -1.1028 -1.0015
  610MOL0     H82284   2.435   9.162   6.850 -0.6813  0.9429  1.3274
  610MOL0     H82285   2.243   9.302   6.981 -1.4605 -0.4337 -2.5813
  610MOL0     H82286   2.232   9.130   6.929 -0.6784 -2.2449  2.1774
  610MOL0     H82287   2.105   9.184   7.189 -2.1808  1.0459 -0.1252
  610MOL0     H82288   2.077   9.058   7.067 -2.3540 -0.1088 -0.1081
  610MOL0     H82289   1.990   9.218   6.909  1.7014 -0.6247  0.3012
  610MOL0     H82290   2.032   9.351   7.013  0.6506 -0.4116 -2.9142
  610MOL0     H82291   1.815   9.153   7.049  1.1682 -0.7120  1.2533
  610MOL0     H82292   1.880   9.233   7.189  0.4432 -1.1821 -0.4290
  610MOL0     H82293   1.841   9.448   7.026  2.0720 -1.1734 -0.7446
  610MOL0     H82294   1.722   9.351   6.945  1.1927 -0.2084 -0.1462
  610MOL0     H82295   1.702   9.411   7.241 -0.6846  0.8020 -0.2531
  610MOL0     H82296   1.600   9.476   7.119  1.3656  0.8848 -1.3688
  610MOL0     H82297   1.596   9.196   7.222  3.6799  1.2418 -0.0294
  610MOL0     H82298   1.531   9.226   7.054 -0.4964  1.4071  0.2314
  610MOL0     H82299   1.444   9.363   7.310  1.9372 -0.8029 -0.4335
  610MOL0     H82300   1.373   9.393   7.148 -1.9356 -1.8966 -0.7530
  610MOL0     H82301   1.345   9.101   7.402 -0.6882 -0.7162  1.4034
  610MOL0     H82302   1.080   8.963   7.437  0.5185 -2.1312 -0.0187
  610MOL0     H82303   1.054   8.879   7.284  0.9305 -2.9547  0.2444
  610MOL0     H82304   1.304   8.813   7.270  1.8167  2.8903  0.8593
  610MOL0     H82305   1.327   8.863   7.429  0.1319  0.5818  0.2754
  610MOL0     H82306   1.148   8.633   7.350 -1.3784 -1.4284  1.6046
  610MOL0     H82307   1.170   8.680   7.517 -1.1011 -4.3419  0.2916
  610MOL0     H82308   1.390   8.611   7.306 -0.5544  0.9674  0.6180
  610MOL0     H82309   1.298   8.493   7.403 -0.3227 -0.0411  1.6137
  610MOL0     H82310   1.621   8.688   7.645  0.4596 -2.4761  2.9659
  610MOL0     H82311   1.862   8.605   7.630  0.0199 -0.0004 -1.4148
  610MOL0     H82312   2.250   8.556   7.642 -2.5803 -1.1171  4.3688
  610MOL0     H82313   2.485   8.470   7.620 -1.7033  1.7222  1.6285
  610MOL0     H82314   2.678   8.334   7.525  0.0796 -0.3804  0.2591
  610MOL0     H82315   2.646   8.333   7.704 -1.1281  0.9221 -1.1164
  610MOL0     H82316   2.756   8.119   7.724  0.1828  1.0600  0.1552
  610MOL0     H82317   2.813   8.128   7.550 -1.8335 -2.4064  0.3379
  610MOL0     H82318   2.935   8.343   7.609  0.0363  0.7939  1.7202
  610MOL0     H82319   2.861   8.345   7.756  0.9408 -1.3947  1.2133
  610MOL0     H82320   3.019   8.095   7.750 -0.0955 -0.7100 -1.1800
  610MOL0     H82321   3.011   8.225   7.867 -0.5952 -1.6259  1.2020
  610MOL0     H82322   3.158   8.253   7.595 -2.9174  0.8838  0.0118
  610MOL0     H82323   3.230   8.169   7.731 -1.4622 -0.5154  0.6372
  610MOL0     H82324   3.141   8.457   7.729  2.1917  0.1877 -4.0289
  610MOL0     H82325   3.189   8.390   7.879 -0.8701  1.9528  0.3897
  610MOL0     H82326   3.374   8.509   7.758  3.3702 -0.8319 -1.1860
  610MOL0     H82327   3.362   8.410   7.619  2.8038 -2.2680 -0.2103
  610MOL0     H82328   3.446   8.307   7.906 -2.6119 -1.6491 -0.7503
  610MOL0     H82329   3.470   8.232   7.749 -1.2485 -0.4639  0.4160
  610MOL0     H82330   2.323   8.073   7.571 -0.4725  0.0144  1.6897
  610MOL0     H82331   2.100   8.157   7.584 -0.9000  0.2540 -1.0926
  610MOL0     H82332   1.724   8.307   7.357 -0.5873  0.6568 -0.7652
  610MOL0     H82333   1.515   8.378   7.357  0.8468 -0.2919 -1.2168
  610MOL0     H82334   2.526   9.035   7.252 -1.7527 -0.0254 -1.0534
  610MOL0     H82335   2.717   8.917   7.185 -1.5248 -0.3476  0.4066
  610MOL0     H82336   2.964   8.827   6.700  0.0127 -1.5879  0.5241
  610MOL0     H82337   3.174   8.715   6.626  0.3989 -0.7446  0.3489
  610MOL0     H82338   3.427   8.596   6.922 -3.7726  0.0760 -2.0758
  610MOL0     H82339   3.540   8.705   6.847 -2.0774  0.5112 -0.7859
  610MOL0     H82340   3.654   8.507   6.822 -0.3993  3.2578  2.3968
  610MOL0     H82341   3.582   8.502   6.668 -0.7776 -3.0057 -0.7050
  610MOL0     H82342   3.483   8.351   6.907 -1.4850  2.4446  0.4326
  610MOL0     H82343   3.544   8.279   6.746  1.4307  1.0495 -1.3425
  610MOL0     H82344   3.285   8.426   6.826  1.6566 -2.0773  2.6986
  610MOL0     H82345   3.335   8.382   6.660 -2.1841  0.7357  0.4810
  610MOL0     H82346   3.234   8.027   6.882  0.0093  0.2022  0.9563
  610MOL0     H82347   3.373   8.796   6.994 -0.1959 -4.5001  0.8822
  610MOL0     H82348   3.073   8.945   7.158  1.3094  0.6956  1.9287
  610MOL0     H82349   3.230   8.893   7.190 -0.0504  1.9608  1.0805
  610MOL0     H82350   3.214   9.036   7.100  1.5434  0.2312  6.7844
  611MOL0     O82351   7.411   4.301  10.647 -0.4887  0.9036 -0.1323
  611MOL0     C82352   7.384   4.236  10.544  0.3868 -0.0749  0.2836
  611MOL0     O82353   7.430   4.104  10.522  0.1602 -0.3741 -0.1242
  611MOL0     C82354   7.562   4.078  10.559  0.1179 -0.5725  0.0728
  611MOL0     C82355   7.593   4.035  10.689 -0.8894 -0.1089 -0.0732
  611MOL0     C82356   7.727   4.023  10.731  0.2599 -0.7899 -0.0116
  611MOL0     C82357   7.824   4.046  10.638  0.7348 -0.3009 -0.2988
  611MOL0     O82358   7.957   4.049  10.671 -0.0048 -0.1989 -0.3136
  611MOL0     C82359   8.016   3.928  10.706  0.8686  0.3752 -0.1686
  611MOL0     C82360   8.168   3.935  10.721 -0.3244  0.5593  1.5987
  611MOL0     C82361   8.230   3.794  10.749 -0.6885 -0.0454 -0.4520
  611MOL0     C82362   8.381   3.804  10.750  0.3072 -0.8939 -0.0584
  611MOL0     C82363   8.449   3.687  10.812 -0.7609  0.0158 -0.2301
  611MOL0     C82364   8.438   3.559  10.730 -0.0814 -0.3798  0.6712
  611MOL0     C82365   8.523   3.444  10.792 -0.5688 -0.1380  0.2188
  611MOL0     C82366   8.504   3.311  10.734 -1.1612  0.4451 -0.2811
  611MOL0     N82367   8.621   3.227  10.754  0.1090  0.2844 -0.1161
  611MOL0     C82368   8.724   3.219  10.664  0.0062 -0.1847 -0.5119
  611MOL0     C82369   8.800   3.124  10.711  0.4812 -0.3867  0.3574
  611MOL0     C82370   8.915   3.067  10.639  0.6195  0.2592 -0.5575
  611MOL0     C82371   8.877   2.952  10.546 -0.2237  0.6141 -0.8505
  611MOL0     C82372   9.004   2.916  10.470 -0.8244  0.6771 -0.4571
  611MOL0     C82373   8.969   2.802  10.370  0.0870 -0.3471 -0.1107
  611MOL0     O82374   9.064   2.783  10.264  0.1237  0.2961 -0.4803
  611MOL0     C82375   9.184   2.728  10.292 -0.2813  0.2421  0.2181
  611MOL0     C82376   9.284   2.746  10.204 -0.4813  0.1793  0.4385
  611MOL0     C82377   9.410   2.694  10.214  0.0623 -0.1533  0.2217
  611MOL0     C82378   9.448   2.614  10.322  0.2919 -0.2540 -0.0943
  611MOL0     C82379   9.586   2.569  10.347  0.7964 -0.5466  0.0319
  611MOL0     O82380   9.678   2.602  10.252 -0.1278  0.7778  0.0301
  611MOL0     C82381   9.806   2.549  10.242  0.7014 -0.4380 -0.1152
  611MOL0     C82382   9.911   2.636  10.207  0.6885  0.3008  0.2630
  611MOL0     C82383  10.041   2.591  10.184 -0.4742  0.2140 -0.5771
  611MOL0     C82384  10.066   2.451  10.188  0.8856 -0.1660 -0.2075
  611MOL0     O82385  10.181   2.388  10.163 -0.5750 -0.5115 -0.8834
  611MOL0     C82386  10.310   2.439  10.195  0.1065 -0.4322  0.0816
  611MOL0     C82387  10.398   2.406  10.077  0.6189 -0.8198 -0.4556
  611MOL0     C82388  10.541   2.450  10.105  0.3378  1.0622  0.0708
  611MOL0     C82389  10.640   2.399  10.003 -0.2992  0.2599 -0.2180
  611MOL0     C82390  10.784   2.425  10.037 -0.0298  0.2539  0.5159
  611MOL0     C82391  10.874   2.382   9.919 -0.0310  0.2329  0.0877
  611MOL0     C82392  11.026   2.418   9.923  0.0250  0.1862 -0.5705
  611MOL0     C82393  11.078   2.384   9.782 -1.1613  0.2107  0.0073
  611MOL0    Cl82394  11.244   2.465   9.775  0.1049 -0.1761 -0.1498
  611MOL0     C82395   9.964   2.369  10.246  1.0624 -0.3532  0.1563
  611MOL0     C82396   9.829   2.414  10.255 -0.9016 -0.4222  0.0700
  611MOL0     O82397   9.609   2.503  10.449  0.3382  1.0785  0.6838
  611MOL0     C82398   9.343   2.589  10.413 -0.2129  0.3428  0.0350
  611MOL0     C82399   9.217   2.641  10.399  0.0963  1.1122  0.9191
  611MOL0     N82400   8.748   3.080  10.835 -0.5998  0.3077  0.2907
  611MOL0     N82401   8.640   3.142  10.852  0.0092  0.4850  0.2753
  611MOL0     C82402   7.799   4.072  10.508 -0.7964 -0.4520  0.4660
  611MOL0     C82403   7.668   4.084  10.467 -0.2054 -0.1424 -0.9718
  611MOL0     C82404   7.270   4.287  10.456 -0.8029  0.7633 -0.5823
  611MOL0     C82405   7.200   4.194  10.378  0.1981 -0.5707  0.0500
  611MOL0     C82406   7.098   4.232  10.284  0.1144  0.4290 -0.3854
  611MOL0     C82407   7.057   4.364  10.266  0.0267  0.4268 -0.9673
  611MOL0     O82408   6.956   4.386  10.178  0.0711 -0.7085 -0.4501
  611MOL0     C82409   6.931   4.524  10.148 -0.6102  0.0063 -0.3654
  611MOL0     C82410   6.837   4.538  10.027 -0.4522  0.6086  0.4468
  611MOL0     C82411   6.811   4.669   9.958  0.1699  0.5079  0.6867
  611MOL0     C82412   6.765   4.773  10.053  0.2929  1.3128  0.0438
  611MOL0     C82413   6.618   4.784  10.069  0.0287  0.7227  0.8590
  611MOL0     C82414   6.500   4.800  10.099 -0.2524 -1.0146  0.3661
  611MOL0     C82415   7.130   4.454  10.343 -0.3744 -0.6244 -0.6555
  611MOL0     C82416   7.229   4.420  10.437 -0.2176 -0.5488  0.2044
  611MOL0     C82417   7.286   4.534  10.508  0.4806 -0.1460  0.4827
  611MOL0     H82418   7.524   4.031  10.773 -0.5014 -1.6321  0.1885
  611MOL0     H82419   7.746   4.000  10.835  1.1492 -5.7558 -1.0257
  611MOL0     H82420   7.983   3.896  10.806 -1.5038  1.8700 -0.4014
  611MOL0     H82421   7.974   3.847  10.645 -3.2612  1.3509  1.0817
  611MOL0     H82422   8.192   3.993  10.811  0.6685  0.3169  1.4998
  611MOL0     H82423   8.204   3.989  10.633  0.8201 -1.2689  0.8870
  611MOL0     H82424   8.190   3.734  10.666 -0.2694  0.8740 -1.3461
  611MOL0     H82425   8.196   3.764  10.848 -1.6204 -2.0014 -1.3087
  611MOL0     H82426   8.423   3.818  10.650  0.6487  1.8516  0.3871
  611MOL0     H82427   8.409   3.892  10.809  2.0024 -0.3153 -1.6030
  611MOL0     H82428   8.556   3.709  10.817 -0.2724 -2.2400  0.1364
  611MOL0     H82429   8.404   3.682  10.912 -1.8890 -1.1793 -0.7733
  611MOL0     H82430   8.334   3.528  10.724 -0.4579  1.1051 -3.0028
  611MOL0     H82431   8.481   3.578  10.631  1.7872 -1.3208  1.2417
  611MOL0     H82432   8.512   3.432  10.900 -0.0788  0.0437  0.2901
  611MOL0     H82433   8.628   3.475  10.786 -0.2516 -1.2306 -0.1295
  611MOL0     H82434   8.416   3.268  10.782  0.5274 -0.4778  2.2367
  611MOL0     H82435   8.491   3.325  10.626 -2.3580  1.3069 -0.0417
  611MOL0     H82436   8.743   3.280  10.576 -0.9102 -1.4487 -1.6290
  611MOL0     H82437   8.965   3.144  10.579  0.5323 -1.1360 -2.5575
  611MOL0     H82438   8.989   3.028  10.709  0.8054  0.6498 -0.5381
  611MOL0     H82439   8.848   2.861  10.599  0.5887  1.3333  0.9301
  611MOL0     H82440   8.792   2.973  10.481 -1.0441 -1.0219 -0.3686
  611MOL0     H82441   9.080   2.882  10.540  1.2030  4.3402 -0.6385
  611MOL0     H82442   9.030   3.004  10.409 -1.6324  0.0348 -1.7812
  611MOL0     H82443   8.871   2.826  10.328  0.7111  0.2436 -1.2650
  611MOL0     H82444   8.956   2.706  10.421 -0.3646 -1.0965 -1.5928
  611MOL0     H82445   9.256   2.792  10.110 -3.5603 -2.5385 -0.1916
  611MOL0     H82446   9.485   2.714  10.139 -0.0011  0.1437  0.2363
  611MOL0     H82447   9.887   2.741  10.196 -0.0802 -0.0447 -1.6358
  611MOL0     H82448  10.119   2.656  10.145  1.4078 -1.8975 -0.5381
  611MOL0     H82449  10.302   2.547  10.211  1.9041 -0.5448  2.1418
  611MOL0     H82450  10.339   2.402  10.294 -0.3527  0.3767  0.5364
  611MOL0     H82451  10.396   2.296  10.076  1.7488 -0.8454 -1.7367
  611MOL0     H82452  10.354   2.434   9.981 -0.3251 -3.4464 -0.8749
  611MOL0     H82453  10.534   2.559  10.101 -1.6068  0.9866  0.3375
  611MOL0     H82454  10.564   2.421  10.208  0.4131 -0.8129 -0.4476
  611MOL0     H82455  10.617   2.438   9.903  0.1719 -3.4575 -1.9372
  611MOL0     H82456  10.622   2.291   9.999  2.9392 -0.4197  0.4564
  611MOL0     H82457  10.819   2.377  10.129  1.2154 -0.7225 -0.4388
  611MOL0     H82458  10.792   2.533  10.056 -0.5153  0.1609  1.3004
  611MOL0     H82459  10.864   2.273   9.921 -0.8117  0.3005  1.9366
  611MOL0     H82460  10.837   2.425   9.825  1.3635  1.8919  0.2657
  611MOL0     H82461  11.082   2.353   9.991  1.3242 -0.0893 -1.8617
  611MOL0     H82462  11.046   2.524   9.945  1.5771 -0.2206  0.0705
  611MOL0     H82463  11.093   2.276   9.770  0.9228  0.5241 -0.5134
  611MOL0     H82464  11.008   2.420   9.707 -0.9139 -4.2732 -2.7415
  611MOL0     H82465   9.978   2.264  10.270 -2.5440 -0.8563  0.6618
  611MOL0     H82466   9.751   2.346  10.286  0.0953 -2.8868 -2.4333
  611MOL0     H82467   9.372   2.521  10.493 -0.5810 -0.3464 -0.4123
  611MOL0     H82468   9.145   2.613  10.475  0.9657 -1.8726  0.7771
  611MOL0     H82469   7.882   4.092  10.440 -0.8932  1.1871  0.7969
  611MOL0     H82470   7.646   4.103  10.362 -1.8282 -1.4371 -0.9278
  611MOL0     H82471   7.225   4.089  10.389  2.9326 -0.0762 -0.7262
  611MOL0     H82472   7.063   4.163  10.208  0.3897 -0.0146 -0.1167
  611MOL0     H82473   7.026   4.576  10.133  1.4257 -3.0749  0.8770
  611MOL0     H82474   6.885   4.586  10.226  1.8959 -0.1174  1.3016
  611MOL0     H82475   6.735   4.505  10.050 -0.8169  0.2181 -1.5411
  611MOL0     H82476   6.886   4.477   9.950  2.3740  2.8167  0.3385
  611MOL0     H82477   6.740   4.655   9.876 -0.5257  0.7899  1.2321
  611MOL0     H82478   6.905   4.689   9.906 -0.1268 -2.7731 -1.4372
  611MOL0     H82479   6.820   4.760  10.146 -1.4204 -1.2748  0.8188
  611MOL0     H82480   6.789   4.871  10.010  1.5871  0.2276 -1.8576
  611MOL0     H82481   6.395   4.820  10.111 -0.0719 -0.2815  0.7999
  611MOL0     H82482   7.097   4.557  10.336  0.1632 -0.5316 -2.2373
  611MOL0     H82483   7.388   4.534  10.469 -0.7730 -1.7831 -3.3056
  611MOL0     H82484   7.247   4.630  10.471  1.8596  0.4490  0.5189
  611MOL0     H82485   7.274   4.520  10.616 -0.3732 -0.3389  0.3764
  612MOL0     O82486   5.346   4.645   6.929 -0.3037 -0.1508 -0.3613
  612MOL0     C82487   5.350   4.541   6.995 -0.1635 -0.2626  0.2639
  612MOL0     O82488   5.454   4.493   7.076 -0.5496  0.0827  0.4021
  612MOL0     C82489   5.565   4.574   7.081  0.0850 -0.1001 -0.7207
  612MOL0     C82490   5.563   4.665   7.191  0.6266  0.7247  0.0118
  612MOL0     C82491   5.680   4.737   7.226  0.6237  0.5407 -0.6443
  612MOL0     C82492   5.799   4.714   7.146 -0.1344 -0.6333 -0.0582
  612MOL0     O82493   5.919   4.786   7.158 -0.1814 -0.2088 -0.8850
  612MOL0     C82494   5.980   4.780   7.294  0.2958  0.2623 -0.1624
  612MOL0     C82495   6.110   4.864   7.296  0.0949 -0.3244  0.9777
  612MOL0     C82496   6.176   4.876   7.431  0.0923  0.1195  0.3012
  612MOL0     C82497   6.312   4.953   7.414 -0.3615  0.1057  0.7109
  612MOL0     C82498   6.364   5.011   7.546 -0.5719 -0.2662 -0.7910
  612MOL0     C82499   6.484   5.108   7.516 -0.2329  0.5664 -1.7753
  612MOL0     C82500   6.623   5.050   7.485 -0.1168  0.3427 -0.0084
  612MOL0     C82501   6.655   4.925   7.563  0.0858  0.1333 -0.1627
  612MOL0     N82502   6.795   4.881   7.554  0.2587  0.6265 -0.2723
  612MOL0     C82503   6.844   4.754   7.500 -0.5592 -0.2076 -0.5590
  612MOL0     C82504   6.973   4.757   7.524 -0.0797 -0.0923 -0.3035
  612MOL0     C82505   7.092   4.654   7.499 -0.0848  0.4770 -0.4221
  612MOL0     C82506   7.178   4.712   7.387  0.2725  0.2466  0.4790
  612MOL0     C82507   7.297   4.621   7.358 -0.0699  0.2440  0.2005
  612MOL0     C82508   7.396   4.638   7.466  0.7771 -0.9011 -0.5424
  612MOL0     O82509   7.522   4.581   7.413 -0.7569  0.1508  0.0313
  612MOL0     C82510   7.639   4.590   7.488  0.2836 -0.4053  0.0156
  612MOL0     C82511   7.762   4.562   7.430  0.3764 -0.4192 -0.4661
  612MOL0     C82512   7.873   4.586   7.499 -0.1212  0.5465 -0.4180
  612MOL0     C82513   7.870   4.652   7.618 -0.3585  0.4022 -0.1530
  612MOL0     C82514   7.996   4.685   7.682  0.2694 -1.3656 -0.4628
  612MOL0     O82515   8.095   4.594   7.664 -0.1157 -0.4179 -0.0005
  612MOL0     C82516   8.229   4.610   7.688  0.5554 -0.7539  0.3092
  612MOL0     C82517   8.312   4.499   7.678  0.1144  0.1816  0.5804
  612MOL0     C82518   8.450   4.514   7.691  0.6618 -0.1725 -0.9838
  612MOL0     C82519   8.509   4.644   7.706 -0.0436 -0.2419 -0.0144
  612MOL0     O82520   8.645   4.658   7.719  0.2255  0.1040  0.3058
  612MOL0     C82521   8.682   4.616   7.842  0.2489 -0.4426 -0.4885
  612MOL0     C82522   8.814   4.688   7.874  0.9995  0.2848  0.1918
  612MOL0     C82523   8.935   4.648   7.787 -0.5799 -0.8691  0.4434
  612MOL0     C82524   9.061   4.723   7.822 -0.7647 -0.6341 -0.3619
  612MOL0     C82525   9.124   4.667   7.953 -0.3674 -0.3424  0.0212
  612MOL0     C82526   9.269   4.704   7.982 -0.0503  0.1932  0.2816
  612MOL0     C82527   9.288   4.855   7.994  0.4844 -0.6495  0.6038
  612MOL0     C82528   9.439   4.891   8.038 -0.1687  0.2574 -0.4941
  612MOL0    Cl82529   9.552   4.803   7.926 -0.1026 -0.0285 -0.1031
  612MOL0     C82530   8.427   4.758   7.697 -0.2686  0.0122  0.1943
  612MOL0     C82531   8.286   4.739   7.684 -0.7951  0.1277 -0.2541
  612MOL0     O82532   8.009   4.792   7.741  0.5124  0.2688 -0.0436
  612MOL0     C82533   7.747   4.668   7.688  1.0452 -0.2631 -0.6639
  612MOL0     C82534   7.632   4.641   7.619  0.5855 -0.7776 -0.6568
  612MOL0     N82535   6.998   4.882   7.572 -0.4304 -0.5352  0.2134
  612MOL0     N82536   6.902   4.961   7.590 -0.1257 -0.3924 -0.1049
  612MOL0     C82537   5.798   4.619   7.042  0.2430 -0.0611  0.0039
  612MOL0     C82538   5.680   4.548   7.008 -1.0257 -0.2767  0.7255
  612MOL0     C82539   5.225   4.470   6.992 -0.0939  0.0440 -1.4546
  612MOL0     C82540   5.104   4.538   6.980 -0.0323  0.4237 -0.0698
  612MOL0     C82541   4.982   4.468   6.968  0.5056 -1.0313 -0.4334
  612MOL0     C82542   4.976   4.332   6.960 -1.0078 -0.5719 -0.7186
  612MOL0     O82543   4.868   4.258   6.956 -0.1849  0.1267  0.4947
  612MOL0     C82544   4.742   4.316   6.925  0.6637  0.5829  0.1575
  612MOL0     C82545   4.652   4.350   7.047 -0.1009 -0.1266  0.4576
  612MOL0     C82546   4.515   4.416   7.010  0.2705  0.4395 -0.0465
  612MOL0     C82547   4.442   4.479   7.131  0.5244  1.1181 -0.0362
  612MOL0     C82548   4.404   4.379   7.234 -0.7335  0.3916 -0.2828
  612MOL0     C82549   4.358   4.316   7.328  0.1069 -0.2612  0.1286
  612MOL0     C82550   5.090   4.262   6.983  0.1226 -0.4899 -0.7579
  612MOL0     C82551   5.217   4.323   6.993 -0.0182 -0.5006 -0.5290
  612MOL0     C82552   5.337   4.226   6.984  0.0239 -0.0280 -0.8679
  612MOL0     H82553   5.471   4.683   7.244 -0.0733 -1.2477 -0.4462
  612MOL0     H82554   5.668   4.812   7.304 -0.0203  0.9975 -1.1741
  612MOL0     H82555   5.915   4.812   7.377 -1.2401 -1.9523 -0.4003
  612MOL0     H82556   6.014   4.677   7.312 -1.0562 -0.4185 -1.3209
  612MOL0     H82557   6.085   4.960   7.250  0.1516 -1.8588 -2.5709
  612MOL0     H82558   6.173   4.813   7.223 -0.0909  2.0642 -0.9634
  612MOL0     H82559   6.182   4.770   7.457 -0.3394 -0.2567 -1.0084
  612MOL0     H82560   6.105   4.923   7.500  1.4333  1.6436  0.7140
  612MOL0     H82561   6.382   4.879   7.375  0.1282  1.0606 -0.2781
  612MOL0     H82562   6.302   5.030   7.337  0.7475 -0.8815 -0.4529
  612MOL0     H82563   6.300   5.084   7.597  3.8556  2.3866  1.6757
  612MOL0     H82564   6.382   4.934   7.621 -0.8328  1.3529  1.0295
  612MOL0     H82565   6.448   5.176   7.438 -0.6264  3.0599  0.4237
  612MOL0     H82566   6.498   5.168   7.607 -1.7500 -0.9245 -0.4900
  612MOL0     H82567   6.697   5.128   7.505  0.8631 -0.6180  0.1828
  612MOL0     H82568   6.619   5.026   7.379 -0.5411 -0.4992  0.1875
  612MOL0     H82569   6.639   4.945   7.669  3.0872  1.7346  0.1126
  612MOL0     H82570   6.583   4.852   7.526  0.8085 -0.5349 -0.2844
  612MOL0     H82571   6.780   4.670   7.473 -0.0794 -0.4214 -1.0605
  612MOL0     H82572   7.146   4.637   7.592 -1.0850 -1.0253 -0.0777
  612MOL0     H82573   7.060   4.556   7.462  2.1335 -0.0899 -0.9489
  612MOL0     H82574   7.119   4.704   7.296  2.8893  0.5027 -1.3374
  612MOL0     H82575   7.214   4.814   7.405  1.6156 -0.7377  4.5856
  612MOL0     H82576   7.335   4.656   7.262 -0.8264 -1.6011 -0.8297
  612MOL0     H82577   7.263   4.519   7.337 -1.5666  0.8446 -0.4649
  612MOL0     H82578   7.376   4.568   7.548 -0.7569 -3.5854 -2.9905
  612MOL0     H82579   7.402   4.740   7.505 -0.0822 -1.0829  0.0894
  612MOL0     H82580   7.772   4.506   7.338  0.6645  0.5705 -1.0500
  612MOL0     H82581   7.966   4.561   7.449  0.2485 -0.8853  0.9025
  612MOL0     H82582   8.265   4.403   7.664 -2.5116  1.4792 -0.0888
  612MOL0     H82583   8.510   4.423   7.696  1.8699  0.6605  1.0824
  612MOL0     H82584   8.612   4.651   7.919  1.0585 -0.6792  0.3816
  612MOL0     H82585   8.684   4.507   7.853  0.6686 -0.2778  1.6076
  612MOL0     H82586   8.798   4.793   7.847  4.8469  0.4356 -2.3040
  612MOL0     H82587   8.830   4.690   7.982  1.0168  1.7727  0.1889
  612MOL0     H82588   8.955   4.541   7.802 -1.3078 -1.4938 -2.3798
  612MOL0     H82589   8.906   4.675   7.685 -0.1672 -1.3332  0.1947
  612MOL0     H82590   9.053   4.829   7.847 -0.8194 -1.5637  4.5045
  612MOL0     H82591   9.124   4.714   7.733 -1.9157 -1.0538 -1.1615
  612MOL0     H82592   9.114   4.558   7.942 -1.4872 -0.1855 -0.6431
  612MOL0     H82593   9.065   4.707   8.036  0.5024  0.2839  0.3479
  612MOL0     H82594   9.297   4.671   8.082 -0.9282  3.0403  1.5695
  612MOL0     H82595   9.343   4.659   7.915 -0.4984 -1.3651  0.7914
  612MOL0     H82596   9.217   4.904   8.061 -0.9775  3.0244 -3.2247
  612MOL0     H82597   9.278   4.899   7.895 -0.8090 -2.6027 -0.1868
  612MOL0     H82598   9.455   4.999   8.035 -2.5499  0.7026  0.6510
  612MOL0     H82599   9.444   4.854   8.140  1.0118  1.8469  0.0672
  612MOL0     H82600   8.466   4.859   7.710 -0.3149 -0.1355  1.6192
  612MOL0     H82601   8.244   4.837   7.663  2.6385  0.9118 -5.2153
  612MOL0     H82602   7.734   4.694   7.793  2.8368 -3.6121  0.5456
  612MOL0     H82603   7.535   4.646   7.668  1.5333 -1.3220  1.3706
  612MOL0     H82604   5.887   4.607   6.982  0.7855  1.3598  0.4750
  612MOL0     H82605   5.681   4.462   6.941 -1.0567 -1.5974  2.3576
  612MOL0     H82606   5.113   4.646   6.982  2.9593  0.2479  0.8988
  612MOL0     H82607   4.895   4.533   6.965  0.6863 -0.6565  1.4127
  612MOL0     H82608   4.680   4.248   6.865 -0.5042  3.0862 -1.6847
  612MOL0     H82609   4.756   4.402   6.859 -2.1685 -0.6246 -2.2793
  612MOL0     H82610   4.711   4.429   7.094 -2.6430  2.9204 -1.0740
  612MOL0     H82611   4.646   4.265   7.116 -2.3572 -0.4247 -0.0215
  612MOL0     H82612   4.440   4.340   6.985 -0.6504  1.4518 -0.4002
  612MOL0     H82613   4.530   4.479   6.923 -1.4126  0.3557 -0.4384
  612MOL0     H82614   4.505   4.557   7.175  0.0811  0.2526  2.2518
  612MOL0     H82615   4.352   4.528   7.092  1.2430  3.8367  1.4446
  612MOL0     H82616   4.322   4.275   7.421  1.0304 -0.2113  0.5169
  612MOL0     H82617   5.087   4.154   6.981 -3.6672 -0.5202 -2.3913
  612MOL0     H82618   5.303   4.131   6.943 -0.6913 -0.4384  0.6226
  612MOL0     H82619   5.410   4.256   6.908  0.7810 -1.0271 -0.5553
  612MOL0     H82620   5.381   4.217   7.084 -2.2171 -0.4483  0.1493
  613MOL0     O82621   3.583   1.077   8.342 -0.0566 -0.8209 -0.4928
  613MOL0     C82622   3.543   1.158   8.262 -0.1907 -0.2945  0.0758
  613MOL0     O82623   3.617   1.192   8.156  0.0992  0.1776 -1.5608
  613MOL0     C82624   3.719   1.110   8.109  0.0640  0.6220  0.2738
  613MOL0     C82625   3.688   1.025   8.005  0.1614 -0.7042  0.0096
  613MOL0     C82626   3.786   0.949   7.937  1.6148  0.6381 -0.2630
  613MOL0     C82627   3.915   0.939   7.981  0.7281 -0.2431 -0.4335
  613MOL0     O82628   4.002   0.849   7.942  0.2648  0.0489 -0.0020
  613MOL0     C82629   3.994   0.723   8.011  0.5037 -0.0837 -0.0586
  613MOL0     C82630   4.111   0.710   8.116  0.6194 -1.0311  0.3143
  613MOL0     C82631   4.248   0.741   8.057 -0.0538  0.5537  0.9055
  613MOL0     C82632   4.351   0.815   8.149 -0.0236 -0.6042 -0.0541
  613MOL0     C82633   4.493   0.790   8.100  0.1786  0.7032  0.4444
  613MOL0     C82634   4.592   0.864   8.184  0.0485  0.0014 -0.0207
  613MOL0     C82635   4.727   0.783   8.186  1.2158  0.5534  0.6690
  613MOL0     C82636   4.797   0.767   8.053 -0.8690 -0.2382 -0.4865
  613MOL0     N82637   4.931   0.694   8.065  0.7947  0.5003 -0.1067
  613MOL0     C82638   4.943   0.573   8.004 -0.5505  0.1953  0.0805
  613MOL0     C82639   5.062   0.528   8.048  0.0236 -0.1461  0.3472
  613MOL0     C82640   5.129   0.408   8.004 -0.1445 -0.4150 -0.3627
  613MOL0     C82641   5.246   0.360   8.099 -0.2898 -0.6179  0.6178
  613MOL0     C82642   5.324   0.251   8.024 -0.3816  0.3904 -1.1986
  613MOL0     C82643   5.445   0.194   8.111  0.9778  0.0983  0.3097
  613MOL0     O82644   5.500   0.082   8.034 -0.4833 -0.2747  0.8590
  613MOL0     C82645   5.635   0.048   8.056  0.2577 -0.5198  1.3585
  613MOL0     C82646   5.708   0.093   8.165  0.3101  0.4832  0.1753
  613MOL0     C82647   5.828   0.040   8.203 -0.6313  0.0869 -1.0309
  613MOL0     C82648   5.892  -0.057   8.125 -0.0947 -0.8916  0.2317
  613MOL0     C82649   6.030  -0.117   8.150 -0.6882  0.6585 -0.1910
  613MOL0     O82650   6.056  -0.224   8.072  0.0642 -0.2917  0.4276
  613MOL0     C82651   6.150  -0.325   8.097  0.7610  0.3527 -0.4310
  613MOL0     C82652   6.275  -0.301   8.157  0.6349 -0.4837  0.4725
  613MOL0     C82653   6.374  -0.402   8.163 -0.8815  0.7891 -0.0182
  613MOL0     C82654   6.344  -0.530   8.118 -0.4100 -0.1464  0.4368
  613MOL0     O82655   6.436  -0.629   8.128 -0.1902 -0.6493  0.1136
  613MOL0     C82656   6.383  -0.734   8.200  0.5649  0.2870  0.1187
  613MOL0     C82657   6.489  -0.843   8.229  0.7062 -0.2695  0.1422
  613MOL0     C82658   6.614  -0.799   8.304  0.0102 -1.3495  0.1131
  613MOL0     C82659   6.709  -0.915   8.304  0.5176  1.0029  0.0391
  613MOL0     C82660   6.846  -0.884   8.355  0.3456  0.2005 -0.4097
  613MOL0     C82661   6.926  -1.005   8.391  0.2295  0.3081  0.0770
  613MOL0     C82662   7.068  -0.966   8.435  0.6567 -0.2568  0.1785
  613MOL0     C82663   7.164  -0.919   8.333 -0.3071  0.4517  0.0555
  613MOL0    Cl82664   7.320  -0.898   8.404 -0.0110 -0.3739 -0.4482
  613MOL0     C82665   6.220  -0.555   8.060  1.1198  0.0549  0.5202
  613MOL0     C82666   6.128  -0.448   8.045  0.4768  0.2752 -0.0941
  613MOL0     O82667   6.100  -0.073   8.237 -0.6139 -0.0969  0.1810
  613MOL0     C82668   5.817  -0.105   8.013 -0.5223 -0.4425  0.5021
  613MOL0     C82669   5.690  -0.059   7.980 -0.4629 -0.6290 -0.3792
  613MOL0     N82670   5.110   0.629   8.135  0.2249  0.1033  0.3557
  613MOL0     N82671   5.037   0.724   8.147  1.2917  0.1353  0.6177
  613MOL0     C82672   3.952   1.026   8.088 -0.0955 -0.0964 -0.0161
  613MOL0     C82673   3.854   1.110   8.153  0.8057 -0.0850 -0.2947
  613MOL0     C82674   3.411   1.231   8.270 -0.7636 -0.6908  0.0060
  613MOL0     C82675   3.376   1.322   8.167  0.3223  0.2389  0.4329
  613MOL0     C82676   3.254   1.392   8.169  0.6707  0.2871  0.5356
  613MOL0     C82677   3.164   1.378   8.266  0.1956  0.1769  0.0049
  613MOL0     O82678   3.048   1.464   8.254 -0.2943 -0.8578 -0.2842
  613MOL0     C82679   2.938   1.421   8.334  0.2743  0.4230  1.0729
  613MOL0     C82680   2.815   1.454   8.256  0.2843 -0.3098  0.2064
  613MOL0     C82681   2.768   1.591   8.298  0.9249 -0.0255 -0.5489
  613MOL0     C82682   2.619   1.605   8.235 -0.1980 -0.4629  0.1603
  613MOL0     C82683   2.518   1.511   8.282  0.1482  0.4510  0.2019
  613MOL0     C82684   2.427   1.442   8.319  1.2717 -0.7353 -0.1235
  613MOL0     C82685   3.196   1.288   8.376 -0.1242 -0.2668 -0.2334
  613MOL0     C82686   3.318   1.209   8.374 -0.3074  0.0969  0.2407
  613MOL0     C82687   3.324   1.082   8.461 -0.2882 -0.6157  0.0501
  613MOL0     H82688   3.586   1.022   7.967  1.4104 -1.4438 -3.6358
  613MOL0     H82689   3.750   0.902   7.846  0.2094 -2.1227  1.5856
  613MOL0     H82690   3.895   0.707   8.054  1.3228 -0.2872  1.8567
  613MOL0     H82691   4.015   0.636   7.947 -0.2110 -0.1174 -0.2475
  613MOL0     H82692   4.107   0.609   8.159  1.0132 -0.4729  1.7242
  613MOL0     H82693   4.093   0.777   8.201  1.0470  0.7882 -0.9743
  613MOL0     H82694   4.248   0.791   7.960  0.5621  0.3625  0.7981
  613MOL0     H82695   4.289   0.645   8.023 -2.1980  0.9056 -3.2144
  613MOL0     H82696   4.327   0.920   8.133  1.3264 -0.4399 -1.3188
  613MOL0     H82697   4.342   0.785   8.253  1.0290  1.5572  0.7145
  613MOL0     H82698   4.518   0.684   8.091 -2.3652  0.1909 -1.6835
  613MOL0     H82699   4.509   0.839   8.003  2.3758 -0.3829  0.1856
  613MOL0     H82700   4.613   0.965   8.150 -1.5546 -0.0262 -1.2218
  613MOL0     H82701   4.568   0.879   8.290  1.4583  3.4260 -0.0682
  613MOL0     H82702   4.718   0.679   8.221  2.8604  0.1189 -0.0717
  613MOL0     H82703   4.788   0.836   8.260  1.2233  1.5451 -0.0345
  613MOL0     H82704   4.731   0.720   7.980 -1.2433  2.8432 -2.3473
  613MOL0     H82705   4.821   0.869   8.019  0.2294  0.2108  1.4794
  613MOL0     H82706   4.882   0.542   7.920 -1.0679  2.1647 -0.3182
  613MOL0     H82707   5.053   0.331   7.985 -1.9691  1.6147 -1.7029
  613MOL0     H82708   5.177   0.428   7.908  1.1932  0.1421  0.3946
  613MOL0     H82709   5.315   0.445   8.100 -0.9656  0.0037 -1.1030
  613MOL0     H82710   5.216   0.334   8.201  0.7729 -0.4583  0.9825
  613MOL0     H82711   5.360   0.294   7.930  0.0659  1.9134 -0.3647
  613MOL0     H82712   5.262   0.163   8.002  1.6348 -2.3618  2.9267
  613MOL0     H82713   5.405   0.151   8.204 -1.6193 -0.2013 -0.8680
  613MOL0     H82714   5.514   0.276   8.131  1.2803  0.6782 -2.6702
  613MOL0     H82715   5.667   0.173   8.226 -2.3242 -0.3531 -0.4023
  613MOL0     H82716   5.871   0.083   8.293 -0.3027  0.8297 -1.5405
  613MOL0     H82717   6.292  -0.203   8.200 -0.7739 -0.3534  0.7700
  613MOL0     H82718   6.466  -0.380   8.215 -0.1233 -1.1816 -0.4277
  613MOL0     H82719   6.338  -0.718   8.298  0.1416  1.3645 -0.2361
  613MOL0     H82720   6.312  -0.778   8.129 -3.1832  1.6634  2.7145
  613MOL0     H82721   6.437  -0.917   8.290  0.9429  0.3931  1.1609
  613MOL0     H82722   6.528  -0.885   8.136  0.5412 -2.0665  0.8536
  613MOL0     H82723   6.664  -0.712   8.262  0.3836 -0.3171  2.5349
  613MOL0     H82724   6.598  -0.764   8.406  1.1156  1.7269 -0.6821
  613MOL0     H82725   6.724  -0.960   8.206 -5.1000 -0.2935 -0.5654
  613MOL0     H82726   6.662  -0.992   8.367 -0.9306  0.6395 -1.4295
  613MOL0     H82727   6.846  -0.819   8.443 -2.5080  2.5375 -1.9441
  613MOL0     H82728   6.898  -0.825   8.279  0.0411  2.0360  0.7436
  613MOL0     H82729   6.876  -1.064   8.468 -0.3035 -0.0209 -0.5146
  613MOL0     H82730   6.945  -1.060   8.298  3.6252  0.6941  0.4286
  613MOL0     H82731   7.105  -1.057   8.482 -2.9612 -2.4455 -0.8131
  613MOL0     H82732   7.069  -0.892   8.516  1.7178  1.8457 -1.6505
  613MOL0     H82733   7.160  -1.005   8.266 -1.1323  1.5927 -1.4027
  613MOL0     H82734   7.121  -0.833   8.282 -1.3829  0.3961  0.8332
  613MOL0     H82735   6.198  -0.652   8.018  0.4786 -0.3794  1.7984
  613MOL0     H82736   6.039  -0.464   7.985  0.7859  3.1850 -1.4861
  613MOL0     H82737   5.852  -0.182   7.945  1.4166 -1.4302  2.4813
  613MOL0     H82738   5.624  -0.091   7.900  0.5936 -1.5589 -0.9034
  613MOL0     H82739   4.054   1.017   8.123  0.9638  0.7279 -2.6047
  613MOL0     H82740   3.876   1.179   8.233  0.7755  2.5457 -2.4261
  613MOL0     H82741   3.444   1.334   8.083  1.0324 -1.0140  0.7962
  613MOL0     H82742   3.225   1.453   8.085  2.8460 -0.7157 -1.0717
  613MOL0     H82743   2.934   1.449   8.440  0.3550 -2.0328  1.7946
  613MOL0     H82744   2.941   1.312   8.340 -3.4729  0.2351  1.6845
  613MOL0     H82745   2.741   1.375   8.269 -1.8262  1.3410 -1.0715
  613MOL0     H82746   2.836   1.464   8.150 -0.3156  1.8552  0.2298
  613MOL0     H82747   2.835   1.668   8.259  0.9965  1.2619  1.9167
  613MOL0     H82748   2.766   1.611   8.405  2.0296  0.2532 -0.5628
  613MOL0     H82749   2.589   1.704   8.269 -0.0376 -0.7580  1.1934
  613MOL0     H82750   2.617   1.610   8.126  0.7652  0.3015  0.1571
  613MOL0     H82751   2.336   1.394   8.349  2.5906 -2.2526  1.7154
  613MOL0     H82752   3.127   1.266   8.457  0.3153 -1.3318 -0.1236
  613MOL0     H82753   3.245   1.071   8.535 -0.1194  2.8828  0.9554
  613MOL0     H82754   3.330   0.996   8.394 -0.0231  0.3099 -1.1617
  613MOL0     H82755   3.410   1.089   8.528  0.0191 -0.9197 -0.3044
  614MOL0     O82756   7.837   3.529   8.528  0.0334  0.8046 -0.3210
  614MOL0     C82757   7.790   3.623   8.596  0.8977  0.0183 -0.3324
  614MOL0     O82758   7.867   3.706   8.687 -0.2240 -0.5220  0.3728
  614MOL0     C82759   7.991   3.652   8.726  0.1644  0.0938  0.0066
  614MOL0     C82760   8.094   3.750   8.742  0.1446  0.1820  0.5592
  614MOL0     C82761   8.215   3.708   8.791  0.8078  0.0402 -0.6658
  614MOL0     C82762   8.243   3.579   8.834  0.4654  0.3129  0.5660
  614MOL0     O82763   8.346   3.521   8.894 -0.1292 -0.1912 -0.5174
  614MOL0     C82764   8.435   3.615   8.954  0.3419 -0.7736  0.0208
  614MOL0     C82765   8.542   3.543   9.041 -0.5722 -0.0481  0.3458
  614MOL0     C82766   8.640   3.638   9.112  0.6399 -0.0403  0.4603
  614MOL0     C82767   8.764   3.572   9.168  0.7093  0.4095  0.0600
  614MOL0     C82768   8.832   3.653   9.276 -1.1845 -0.5733 -0.1321
  614MOL0     C82769   8.911   3.566   9.379  0.1596  0.9056  0.0731
  614MOL0     C82770   8.998   3.647   9.469 -0.0450 -0.2054  0.9004
  614MOL0     C82771   9.076   3.558   9.569 -0.6426  0.2010  0.1148
  614MOL0     N82772   9.155   3.639   9.664  0.4941  0.1207 -0.0807
  614MOL0     C82773   9.220   3.584   9.774 -1.0811 -0.1408 -0.3048
  614MOL0     C82774   9.292   3.683   9.815  0.0867 -0.2095 -0.1897
  614MOL0     C82775   9.375   3.688   9.942  0.9059  0.4342  0.5485
  614MOL0     C82776   9.518   3.716   9.885  0.1247 -0.5945 -0.1667
  614MOL0     C82777   9.620   3.728  10.004 -0.0414  0.2916  0.7002
  614MOL0     C82778   9.761   3.685   9.956  0.6800 -0.2813  0.6814
  614MOL0     O82779   9.833   3.798   9.906  0.2188  0.4636 -0.2587
  614MOL0     C82780   9.971   3.788   9.904  0.8461 -0.4980 -0.3628
  614MOL0     C82781  10.040   3.671   9.931 -0.3809  0.1028  0.0776
  614MOL0     C82782  10.182   3.675   9.943  0.3804  0.7579  0.3815
  614MOL0     C82783  10.253   3.795   9.915 -0.4242  0.3898 -0.6561
  614MOL0     C82784  10.398   3.814   9.947 -0.2998  0.6263 -0.2382
  614MOL0     O82785  10.460   3.919   9.881  0.1159  0.2501  0.1119
  614MOL0     C82786  10.596   3.922   9.893  0.6768  0.6858  0.4459
  614MOL0     C82787  10.640   3.981  10.013 -0.1119  0.3435 -0.2091
  614MOL0     C82788  10.771   3.966  10.059 -0.0456 -1.0604  0.2844
  614MOL0     C82789  10.861   3.887   9.986 -0.0077  0.2798  0.5817
  614MOL0     O82790  10.993   3.882  10.017 -1.0279 -0.2182  0.5668
  614MOL0     C82791  11.022   3.773  10.106  0.2720 -0.0512 -0.5535
  614MOL0     C82792  11.169   3.778  10.169  0.2014 -0.9639  0.5790
  614MOL0     C82793  11.288   3.769  10.074  0.0827 -0.4797  0.2893
  614MOL0     C82794  11.401   3.868  10.112  0.9907  0.3516  0.4805
  614MOL0     C82795  11.532   3.870  10.047  0.1226 -0.4633 -0.4998
  614MOL0     C82796  11.627   3.962  10.117 -0.7499  0.3412  0.1125
  614MOL0     C82797  11.749   4.015  10.037 -0.6034  0.9270  0.1507
  614MOL0     C82798  11.862   4.090  10.111 -0.1559  0.6767  0.3753
  614MOL0    Cl82799  11.943   3.992  10.236  0.1191  0.5744  0.1347
  614MOL0     C82800  10.821   3.825   9.866  0.0898  0.4337 -0.8129
  614MOL0     C82801  10.689   3.843   9.829  0.3004 -0.3746 -0.2105
  614MOL0     O82802  10.457   3.731  10.023 -0.0357 -0.3447  0.1614
  614MOL0     C82803  10.179   3.908   9.882 -0.0788  0.3359  0.5046
  614MOL0     C82804  10.045   3.899   9.867  1.0710 -0.7737  0.5255
  614MOL0     N82805   9.272   3.800   9.737  0.6714  0.0877  0.2844
  614MOL0     N82806   9.199   3.764   9.641 -0.6314  0.3362  0.1980
  614MOL0     C82807   8.142   3.485   8.810  0.2106  0.2105 -1.0623
  614MOL0     C82808   8.013   3.513   8.764  0.4761 -0.2281 -0.5837
  614MOL0     C82809   7.639   3.644   8.596 -0.1292 -0.6194  1.4049
  614MOL0     C82810   7.587   3.732   8.694  0.0785  0.6115  0.3537
  614MOL0     C82811   7.450   3.759   8.697  0.0585 -0.4168 -0.5489
  614MOL0     C82812   7.355   3.697   8.620  0.1157 -0.0325 -0.1394
  614MOL0     O82813   7.220   3.733   8.640 -0.1954  1.1695 -0.1119
  614MOL0     C82814   7.104   3.668   8.575 -0.3309 -0.2088 -0.3777
  614MOL0     C82815   7.093   3.699   8.427 -0.0631 -0.0883 -1.0925
  614MOL0     C82816   6.970   3.636   8.365  0.2530  0.3598 -0.2153
  614MOL0     C82817   6.850   3.729   8.365 -1.0962  0.1964  1.0925
  614MOL0     C82818   6.748   3.691   8.275 -1.1177  0.0791 -0.7478
  614MOL0     C82819   6.656   3.644   8.208 -0.3227  0.3077 -0.0128
  614MOL0     C82820   7.403   3.609   8.519 -0.5554 -0.3188 -1.0446
  614MOL0     C82821   7.540   3.588   8.505  0.2360  1.1753 -0.1023
  614MOL0     C82822   7.586   3.521   8.386  0.0350 -0.1041  0.4101
  614MOL0     H82823   8.071   3.854   8.722  1.0104  0.5145  1.2532
  614MOL0     H82824   8.288   3.785   8.812 -0.3246  0.5966  1.4656
  614MOL0     H82825   8.472   3.679   8.874 -3.7837  2.7287  0.5420
  614MOL0     H82826   8.378   3.676   9.025  1.2486 -0.2759  0.3330
  614MOL0     H82827   8.595   3.471   8.978 -1.0926 -2.3974  2.4733
  614MOL0     H82828   8.495   3.484   9.120 -0.0620 -1.6161 -0.4823
  614MOL0     H82829   8.569   3.674   9.187  1.5218  0.2508  1.1595
  614MOL0     H82830   8.670   3.706   9.032 -2.5643 -1.4018 -2.1705
  614MOL0     H82831   8.727   3.476   9.206  1.0703 -0.4990 -1.7754
  614MOL0     H82832   8.838   3.559   9.089  2.1373  0.3209  1.3762
  614MOL0     H82833   8.898   3.727   9.230 -1.2473 -1.9059 -2.5462
  614MOL0     H82834   8.769   3.722   9.331  0.4228  1.4883 -0.7454
  614MOL0     H82835   8.839   3.512   9.442 -0.1604 -0.5358 -1.4613
  614MOL0     H82836   8.984   3.499   9.333  0.7902  1.8056 -0.2734
  614MOL0     H82837   8.947   3.719   9.533 -0.1808  1.1424 -0.6691
  614MOL0     H82838   9.061   3.716   9.412 -0.7809  0.8174  1.2961
  614MOL0     H82839   9.007   3.504   9.634 -1.8857  3.2136  1.5239
  614MOL0     H82840   9.143   3.490   9.516  1.8934  1.6597  1.2439
  614MOL0     H82841   9.222   3.484   9.816 -1.3498  0.3396  0.8816
  614MOL0     H82842   9.341   3.761  10.016  0.9222 -2.1649  3.3347
  614MOL0     H82843   9.366   3.588   9.987  3.2981 -1.1636 -2.1595
  614MOL0     H82844   9.545   3.637   9.816 -0.4120 -0.0646 -1.0052
  614MOL0     H82845   9.524   3.814   9.837  0.5885  2.0164  4.5157
  614MOL0     H82846   9.586   3.650  10.073  0.6654 -2.5472 -1.9358
  614MOL0     H82847   9.626   3.826  10.054  2.0886  0.6120 -0.0636
  614MOL0     H82848   9.760   3.599   9.888  0.7491 -0.9738  1.5449
  614MOL0     H82849   9.805   3.653  10.050 -0.1337 -2.4576  0.3740
  614MOL0     H82850   9.986   3.580   9.957  1.1517 -0.6397  0.8182
  614MOL0     H82851  10.230   3.582   9.970  1.0988  0.9666 -0.1313
  614MOL0     H82852  10.578   4.043  10.077  1.6138  0.4016  1.4985
  614MOL0     H82853  10.801   4.011  10.153 -1.6713 -0.8461  0.7475
  614MOL0     H82854  10.945   3.774  10.184 -0.0756 -0.9961 -0.8754
  614MOL0     H82855  11.007   3.678  10.054 -0.9395 -2.1756  3.2784
  614MOL0     H82856  11.171   3.862  10.239 -1.0864 -0.2308 -0.2374
  614MOL0     H82857  11.182   3.692  10.236  1.1464 -0.7664  0.6522
  614MOL0     H82858  11.325   3.666  10.071  0.0098 -0.4889 -2.6952
  614MOL0     H82859  11.244   3.785   9.976  0.5752 -0.9031 -0.0055
  614MOL0     H82860  11.426   3.853  10.217 -0.8168 -0.6201  0.8141
  614MOL0     H82861  11.355   3.967  10.112 -1.2740 -0.6468  0.4575
  614MOL0     H82862  11.524   3.889   9.940  1.4317 -0.2771 -0.5775
  614MOL0     H82863  11.572   3.768  10.058 -1.7171 -1.0758  1.1459
  614MOL0     H82864  11.575   4.053  10.151  0.5917  1.5674 -0.9652
  614MOL0     H82865  11.664   3.913  10.207  1.7874  2.9739  0.6531
  614MOL0     H82866  11.712   4.073   9.952  0.9215  0.2541 -1.0171
  614MOL0     H82867  11.791   3.924   9.994 -2.7095  0.5721 -1.3237
  614MOL0     H82868  11.935   4.122  10.037  1.0011 -0.1432  1.1233
  614MOL0     H82869  11.813   4.174  10.160  0.4673  0.5264  1.2861
  614MOL0     H82870  10.885   3.765   9.802  1.6637  1.0053  0.1547
  614MOL0     H82871  10.648   3.793   9.742 -1.2424  2.0482 -0.9991
  614MOL0     H82872  10.227   4.004   9.865  1.8847 -0.7243 -0.2871
  614MOL0     H82873   9.993   3.988   9.832  1.0290 -0.8446  0.4099
  614MOL0     H82874   8.145   3.386   8.854 -1.4482  0.2499 -0.8123
  614MOL0     H82875   7.930   3.444   8.761 -0.1917  0.5640 -0.5221
  614MOL0     H82876   7.646   3.788   8.766 -1.6084 -0.6894  2.8804
  614MOL0     H82877   7.421   3.836   8.767  1.6672 -0.9483  0.7545
  614MOL0     H82878   7.015   3.699   8.630  0.6771  0.9314  0.6692
  614MOL0     H82879   7.120   3.562   8.592 -1.4770 -0.1664  1.1456
  614MOL0     H82880   7.181   3.673   8.368  1.2858  2.0375 -0.1477
  614MOL0     H82881   7.079   3.808   8.423 -0.0547  0.0916  1.7152
  614MOL0     H82882   6.957   3.542   8.420  2.9435  1.5681  2.7815
  614MOL0     H82883   6.995   3.612   8.261 -1.4410  0.0471 -0.5846
  614MOL0     H82884   6.807   3.734   8.466 -1.5126  0.2050  0.9185
  614MOL0     H82885   6.874   3.829   8.328 -0.5004 -0.8053 -1.4163
  614MOL0     H82886   6.577   3.605   8.146 -1.1741 -0.1501  1.3335
  614MOL0     H82887   7.335   3.555   8.454 -2.9004  1.5872 -0.3127
  614MOL0     H82888   7.502   3.498   8.320  1.1223 -1.3459 -0.5962
  614MOL0     H82889   7.660   3.585   8.338  0.8562 -0.4491  1.1814
  614MOL0     H82890   7.637   3.426   8.408 -0.4227 -0.1796  1.1759
  615MOL0     O82891   0.145   4.782   8.500 -0.1705  0.5158  0.0104
  615MOL0     C82892   0.059   4.850   8.555  0.5304  0.2118  0.0093
  615MOL0     O82893   0.068   4.989   8.574 -0.2413 -0.4105  0.2984
  615MOL0     C82894   0.189   5.051   8.580  0.6601  0.0967  0.2759
  615MOL0     C82895   0.245   5.071   8.708  0.3851  0.7377 -0.0555
  615MOL0     C82896   0.383   5.118   8.717  0.3837  0.2910  0.0709
  615MOL0     C82897   0.457   5.157   8.606  0.1795  0.2268  0.1428
  615MOL0     O82898   0.582   5.207   8.608 -0.1337 -0.1448 -0.4853
  615MOL0     C82899   0.676   5.106   8.629 -0.1402 -0.2735 -0.5859
  615MOL0     C82900   0.811   5.176   8.610  0.2383 -0.1959  0.7090
  615MOL0     C82901   0.935   5.081   8.603 -0.0000  0.3149 -0.4123
  615MOL0     C82902   1.052   5.174   8.568  0.1605 -0.3084 -1.0832
  615MOL0     C82903   1.177   5.101   8.576  0.5697  0.7932  0.5922
  615MOL0     C82904   1.288   5.199   8.520 -0.9440  1.2479 -0.0032
  615MOL0     C82905   1.427   5.140   8.573  0.5936 -0.0519 -0.2115
  615MOL0     C82906   1.547   5.227   8.542 -1.1867 -0.0376 -0.8022
  615MOL0     N82907   1.671   5.180   8.612  0.2582 -0.1871 -0.3088
  615MOL0     C82908   1.728   5.059   8.585  0.2873 -0.7926  0.9180
  615MOL0     C82909   1.829   5.047   8.672 -0.3941 -0.1906 -0.4496
  615MOL0     C82910   1.938   4.940   8.669 -0.0577 -0.2064  0.1225
  615MOL0     C82911   2.068   4.971   8.589  0.7297 -0.4630  0.3672
  615MOL0     C82912   2.150   5.072   8.662 -0.6366 -0.5247 -0.0252
  615MOL0     C82913   2.277   5.115   8.587  0.7570 -0.1733 -0.2901
  615MOL0     O82914   2.335   5.217   8.671  0.5070  0.4047 -0.1362
  615MOL0     C82915   2.467   5.248   8.650 -1.3500 -0.9789 -0.3026
  615MOL0     C82916   2.525   5.337   8.736 -0.0144  0.5775  0.0206
  615MOL0     C82917   2.663   5.369   8.724  1.0022  0.6981 -0.1379
  615MOL0     C82918   2.741   5.310   8.620  0.1805  0.0639 -0.3210
  615MOL0     C82919   2.887   5.339   8.613  0.0192  0.3276  0.5881
  615MOL0     O82920   2.942   5.379   8.732 -0.4197  0.1863  0.3428
  615MOL0     C82921   3.080   5.375   8.740  0.4888 -0.0995  0.5334
  615MOL0     C82922   3.153   5.490   8.761 -0.0745 -0.4618  0.1278
  615MOL0     C82923   3.296   5.490   8.778  0.1307 -0.6779  0.0534
  615MOL0     C82924   3.358   5.370   8.799  0.6091  0.0056  0.2298
  615MOL0     O82925   3.491   5.363   8.820 -0.3108  0.7396  0.4484
  615MOL0     C82926   3.577   5.444   8.738  0.2251 -0.1215  0.1500
  615MOL0     C82927   3.674   5.343   8.660 -0.1032 -0.2082  0.4302
  615MOL0     C82928   3.775   5.285   8.760 -0.3671  0.7614  1.2678
  615MOL0     C82929   3.880   5.200   8.693  0.3710 -0.1085  0.1772
  615MOL0     C82930   3.979   5.139   8.792 -0.2765  0.2301 -0.7277
  615MOL0     C82931   4.077   5.042   8.734  0.0529 -0.0389  0.8454
  615MOL0     C82932   4.009   4.932   8.644  0.1306 -0.2312 -0.0773
  615MOL0     C82933   4.086   4.804   8.639 -0.3580 -0.3426  1.1143
  615MOL0    Cl82934   4.233   4.806   8.546  0.1561  0.3843 -0.2392
  615MOL0     C82935   3.282   5.247   8.787 -0.4805 -0.1098  0.1897
  615MOL0     C82936   3.148   5.253   8.752 -0.5287  0.2844  0.0747
  615MOL0     O82937   2.946   5.300   8.512 -0.0372 -0.4300  0.0687
  615MOL0     C82938   2.677   5.225   8.536  0.0011 -0.1525  0.2848
  615MOL0     C82939   2.550   5.195   8.548 -0.0925  0.8194 -0.3215
  615MOL0     N82940   1.830   5.164   8.746  0.5267  0.3023 -0.3421
  615MOL0     N82941   1.734   5.243   8.708 -0.5928  0.1962 -0.7488
  615MOL0     C82942   0.398   5.141   8.484 -0.5769  0.3280 -0.5072
  615MOL0     C82943   0.265   5.098   8.467  0.2038 -0.6130 -0.1042
  615MOL0     C82944  -0.063   4.786   8.601 -0.7269 -0.8010 -0.2512
  615MOL0     C82945  -0.173   4.871   8.626  0.3036  0.1249  0.1348
  615MOL0     C82946  -0.294   4.807   8.669  0.0047 -0.3654  0.6092
  615MOL0     C82947  -0.314   4.675   8.674  0.6652  0.3018 -0.3856
  615MOL0     O82948  -0.431   4.607   8.712  0.5095 -0.7881 -0.2155
  615MOL0     C82949  -0.521   4.674   8.802  0.0509  0.6219 -0.1964
  615MOL0     C82950  -0.532   4.612   8.942 -0.5364  0.0060  0.5302
  615MOL0     C82951  -0.398   4.571   9.006  0.2370 -0.0440 -0.5695
  615MOL0     C82952  -0.354   4.419   8.985 -0.2185  0.3831 -0.0401
  615MOL0     C82953  -0.260   4.381   9.091  0.6619  0.1191 -0.2301
  615MOL0     C82954  -0.180   4.350   9.174 -0.6415 -0.3077  0.1617
  615MOL0     C82955  -0.210   4.601   8.655 -0.2926  0.5448  0.3371
  615MOL0     C82956  -0.083   4.640   8.606 -0.0947 -0.5554 -0.0039
  615MOL0     C82957   0.024   4.534   8.570  0.3243  0.2869  0.0558
  615MOL0     H82958   0.190   5.045   8.798  0.1852 -1.6388 -0.8027
  615MOL0     H82959   0.426   5.129   8.816  0.0578  3.8552 -0.0445
  615MOL0     H82960   0.679   5.064   8.730 -0.8221  0.9601 -0.0258
  615MOL0     H82961   0.659   5.019   8.565 -0.7685 -1.3810  1.0065
  615MOL0     H82962   0.827   5.259   8.679  2.9711 -0.6469  0.7334
  615MOL0     H82963   0.814   5.217   8.508 -1.4740  2.5030  1.6570
  615MOL0     H82964   0.931   4.994   8.538  2.0191 -0.8768  0.9477
  615MOL0     H82965   0.949   5.041   8.704 -2.2985 -1.6524 -0.7732
  615MOL0     H82966   1.030   5.227   8.475 -1.9157 -1.6198 -1.4028
  615MOL0     H82967   1.062   5.262   8.632  0.4088 -0.4614 -0.9091
  615MOL0     H82968   1.198   5.071   8.679  2.1455 -0.8579 -0.1523
  615MOL0     H82969   1.157   5.013   8.514 -4.2098  0.9627  1.5528
  615MOL0     H82970   1.291   5.207   8.411  3.0993 -0.9165 -0.2654
  615MOL0     H82971   1.280   5.297   8.567 -2.1977  0.1833  2.1450
  615MOL0     H82972   1.450   5.043   8.527  0.6253 -0.2598  0.2340
  615MOL0     H82973   1.425   5.136   8.682  1.8342 -1.5596 -0.2114
  615MOL0     H82974   1.574   5.218   8.436  1.5208  1.1342 -0.3052
  615MOL0     H82975   1.535   5.334   8.560  0.4489  0.2001 -0.9047
  615MOL0     H82976   1.689   4.983   8.517 -0.9283 -1.4982  2.3454
  615MOL0     H82977   1.974   4.928   8.772  2.0019 -0.3269 -0.5559
  615MOL0     H82978   1.895   4.848   8.629  1.7180 -1.3421  0.6694
  615MOL0     H82979   2.126   4.881   8.566  2.2836  0.9205 -1.4719
  615MOL0     H82980   2.035   5.017   8.495  0.3826 -1.6040 -0.0883
  615MOL0     H82981   2.168   5.033   8.763  0.2666 -0.3348 -0.1091
  615MOL0     H82982   2.095   5.166   8.675  0.2839 -0.0177  0.2682
  615MOL0     H82983   2.247   5.156   8.490  1.0055  0.3666 -0.1418
  615MOL0     H82984   2.348   5.035   8.562  3.4691  2.8816 -3.3624
  615MOL0     H82985   2.467   5.369   8.822 -1.0646 -0.5275 -0.2560
  615MOL0     H82986   2.704   5.428   8.805  0.1249 -0.0813  0.9041
  615MOL0     H82987   3.102   5.586   8.763 -4.1687 -2.4368 -0.8089
  615MOL0     H82988   3.342   5.588   8.790 -1.0178  0.0938 -1.5025
  615MOL0     H82989   3.511   5.496   8.669 -0.4438 -1.5331 -0.3182
  615MOL0     H82990   3.643   5.512   8.793  0.8425 -0.6493  0.0773
  615MOL0     H82991   3.625   5.262   8.606  0.5472 -0.7036  0.5661
  615MOL0     H82992   3.718   5.404   8.580 -2.2759  0.7921 -0.0653
  615MOL0     H82993   3.827   5.360   8.821  3.6417 -0.9083  0.2740
  615MOL0     H82994   3.721   5.212   8.820  2.8294 -1.4767  1.7098
  615MOL0     H82995   3.922   5.265   8.615 -3.0981  2.6696  0.4035
  615MOL0     H82996   3.826   5.119   8.644 -1.3629  0.2261  1.4556
  615MOL0     H82997   3.921   5.079   8.863 -2.5942  2.4345 -0.5734
  615MOL0     H82998   4.025   5.219   8.850 -0.0295 -0.2054 -0.3115
  615MOL0     H82999   4.138   5.108   8.671 -1.2904  1.5876  1.1906
  615MOL0     H83000   4.141   4.997   8.811  1.0460  0.1253  0.1422
  615MOL0     H83001   3.980   4.960   8.543  3.7059  0.7075 -0.9839
  615MOL0     H83002   3.914   4.906   8.691 -2.4311  1.8361 -3.6837
  615MOL0     H83003   4.124   4.769   8.735  2.1146  0.1390  0.3996
  615MOL0     H83004   4.023   4.723   8.603 -0.0444  0.0788 -0.4623
  615MOL0     H83005   3.335   5.153   8.793  0.2765  0.2784 -0.3311
  615MOL0     H83006   3.086   5.164   8.754 -1.5678  0.9162 -1.5259
  615MOL0     H83007   2.732   5.178   8.455  1.2461 -0.1898  1.1263
  615MOL0     H83008   2.506   5.142   8.464 -1.3221 -0.1974  0.9292
  615MOL0     H83009   0.458   5.162   8.396  4.0667 -0.6634  2.0943
  615MOL0     H83010   0.227   5.084   8.367  1.4887 -1.3450 -0.5193
  615MOL0     H83011  -0.165   4.979   8.612  0.5032  0.0131 -0.6410
  615MOL0     H83012  -0.368   4.881   8.698  0.9214  0.2520  1.4753
  615MOL0     H83013  -0.615   4.673   8.746  1.3937  0.2136 -2.5424
  615MOL0     H83014  -0.503   4.782   8.811  1.7566  0.3564 -0.0967
  615MOL0     H83015  -0.603   4.529   8.947  0.1809 -0.6379  0.1974
  615MOL0     H83016  -0.579   4.678   9.016 -1.5985 -2.8429  2.5504
  615MOL0     H83017  -0.411   4.584   9.114  1.4041  0.9950 -0.5327
  615MOL0     H83018  -0.319   4.641   8.977 -0.8204  0.9729 -1.0580
  615MOL0     H83019  -0.437   4.348   8.983  1.2975 -1.5472  0.9765
  615MOL0     H83020  -0.310   4.404   8.886  1.1829 -2.5155  0.8981
  615MOL0     H83021  -0.120   4.314   9.254 -0.9734  0.7076  0.8962
  615MOL0     H83022  -0.215   4.496   8.685 -3.9792  0.4062 -0.4029
  615MOL0     H83023   0.095   4.525   8.652 -2.6057  1.6609  2.9835
  615MOL0     H83024  -0.036   4.443   8.555  1.4935 -0.0854 -3.0662
  615MOL0     H83025   0.074   4.547   8.474  0.4956  1.2082  0.2587
  616MOL0     O83026   3.442   4.317   3.392  0.2835  0.4978  0.7735
  616MOL0     C83027   3.404   4.429   3.368  0.7277 -0.1399  1.0450
  616MOL0     O83028   3.477   4.522   3.303  0.3567  0.6189  0.3793
  616MOL0     C83029   3.616   4.515   3.306 -0.6653 -0.0172  0.5328
  616MOL0     C83030   3.702   4.464   3.410  0.3643  0.5548  0.3246
  616MOL0     C83031   3.839   4.493   3.418 -0.2711 -0.1789  0.5037
  616MOL0     C83032   3.898   4.570   3.319  0.9239  0.5532  0.0407
  616MOL0     O83033   4.028   4.611   3.311  0.2503 -0.6556 -0.5234
  616MOL0     C83034   4.118   4.557   3.409 -0.1051  0.4355  0.6919
  616MOL0     C83035   4.262   4.614   3.384  0.3690 -1.0249  0.7061
  616MOL0     C83036   4.351   4.559   3.488  0.7856  0.1380  0.0152
  616MOL0     C83037   4.473   4.642   3.501 -1.1693 -0.9131  0.0598
  616MOL0     C83038   4.569   4.580   3.610  0.2761 -0.3042 -0.1291
  616MOL0     C83039   4.718   4.617   3.586  0.1294 -0.5841 -0.4000
  616MOL0     C83040   4.789   4.591   3.718 -0.2525 -0.1433 -0.0929
  616MOL0     C83041   4.941   4.643   3.698  0.5298  0.2416 -0.4013
  616MOL0     N83042   5.010   4.607   3.825 -0.2004 -0.2764 -0.4793
  616MOL0     C83043   5.078   4.703   3.903 -0.7910  0.4284 -0.5948
  616MOL0     C83044   5.157   4.634   3.992 -0.0529 -0.1135 -0.0932
  616MOL0     C83045   5.247   4.694   4.097 -0.7457  0.5863 -0.4140
  616MOL0     C83046   5.387   4.732   4.052 -0.1686 -0.1921  0.5932
  616MOL0     C83047   5.481   4.767   4.173  1.0638  0.1160  0.7664
  616MOL0     C83048   5.539   4.641   4.218  0.2595 -0.0063  0.3180
  616MOL0     O83049   5.627   4.587   4.115  0.2625 -0.7132  0.4885
  616MOL0     C83050   5.765   4.569   4.134 -0.1731  0.3634 -0.3750
  616MOL0     C83051   5.818   4.547   4.263 -0.3437  1.0275  0.7981
  616MOL0     C83052   5.957   4.522   4.262 -0.1106  0.0540  0.2575
  616MOL0     C83053   6.039   4.510   4.150  0.2377 -0.1974  0.3887
  616MOL0     C83054   6.182   4.487   4.164  0.1625  0.1685  0.8582
  616MOL0     O83055   6.238   4.470   4.293  0.6122 -0.1831  0.0627
  616MOL0     C83056   6.371   4.498   4.312 -0.3777 -0.8279 -0.3201
  616MOL0     C83057   6.407   4.603   4.399  0.7749 -0.1107 -0.0880
  616MOL0     C83058   6.543   4.643   4.413  0.1647 -0.0159 -0.5375
  616MOL0     C83059   6.645   4.576   4.346 -0.3968 -0.0135 -0.1706
  616MOL0     O83060   6.772   4.611   4.372 -0.4108 -0.3302 -0.8073
  616MOL0     C83061   6.875   4.506   4.361 -1.0150 -0.3987 -0.6928
  616MOL0     C83062   6.939   4.519   4.226 -0.6529 -0.9732  0.6967
  616MOL0     C83063   7.005   4.655   4.212  0.4497 -0.2498  0.0717
  616MOL0     C83064   7.142   4.651   4.283  0.0048 -0.5634 -0.0303
  616MOL0     C83065   7.245   4.603   4.189 -0.4058 -0.2463 -0.5844
  616MOL0     C83066   7.390   4.603   4.250 -0.1963  0.0055 -0.1013
  616MOL0     C83067   7.494   4.568   4.148 -0.1211  0.0655 -0.6816
  616MOL0     C83068   7.636   4.563   4.220  1.0996  0.1040 -1.0924
  616MOL0    Cl83069   7.760   4.559   4.097 -0.2952 -0.1669 -0.0156
  616MOL0     C83070   6.607   4.471   4.262 -0.6430  0.2350 -0.2055
  616MOL0     C83071   6.476   4.434   4.242  0.0462 -0.0354  0.1555
  616MOL0     O83072   6.250   4.511   4.062 -0.3915  0.1557 -0.1321
  616MOL0     C83073   5.975   4.537   4.027  0.3960  0.3773  0.1596
  616MOL0     C83074   5.843   4.574   4.021  0.4491  0.5731  0.1718
  616MOL0     N83075   5.129   4.500   3.975  0.1522 -0.0307 -0.2772
  616MOL0     N83076   5.055   4.486   3.872 -0.7213  0.0453  1.1375
  616MOL0     C83077   3.821   4.615   3.213  0.4519  0.1287 -0.1911
  616MOL0     C83078   3.676   4.596   3.212 -0.8686  0.2372  1.1982
  616MOL0     C83079   3.252   4.456   3.385 -0.5845  0.5051 -0.1362
  616MOL0     C83080   3.198   4.544   3.301  0.4613 -0.2626  0.4875
  616MOL0     C83081   3.062   4.577   3.299  0.8165  0.0635 -0.4020
  616MOL0     C83082   2.979   4.507   3.393 -0.5676 -0.4693 -0.8860
  616MOL0     O83083   2.845   4.532   3.396  0.0983  1.1016  0.5968
  616MOL0     C83084   2.767   4.562   3.282 -0.1698 -0.7133 -0.4236
  616MOL0     C83085   2.615   4.523   3.304  0.2939 -0.4914 -0.3976
  616MOL0     C83086   2.539   4.611   3.400 -0.1476 -0.4560 -0.5749
  616MOL0     C83087   2.581   4.589   3.547  0.4725  0.2146  0.2782
  616MOL0     C83088   2.512   4.689   3.632  0.3957 -0.4455  1.1370
  616MOL0     C83089   2.462   4.779   3.691  0.0433 -0.0252 -0.1437
  616MOL0     C83090   3.040   4.418   3.484  0.6275  0.2406  0.5056
  616MOL0     C83091   3.176   4.398   3.486  0.9330 -0.7669 -1.2640
  616MOL0     C83092   3.236   4.332   3.610 -0.6565  0.0286  0.2384
  616MOL0     H83093   3.657   4.405   3.490 -0.8929 -1.5000 -1.7758
  616MOL0     H83094   3.893   4.460   3.506 -0.1609  4.8104  2.5949
  616MOL0     H83095   4.092   4.585   3.511  2.4293  2.5346  0.8667
  616MOL0     H83096   4.114   4.450   3.386  2.8124  0.7760 -2.1950
  616MOL0     H83097   4.263   4.723   3.380 -0.2004 -1.0416 -2.6044
  616MOL0     H83098   4.303   4.578   3.289 -1.1600 -2.2974  0.4805
  616MOL0     H83099   4.385   4.460   3.458 -2.7393 -0.4372 -2.8195
  616MOL0     H83100   4.303   4.556   3.587  0.1074  0.2817 -0.3005
  616MOL0     H83101   4.538   4.648   3.413  1.8655 -2.7819  1.9548
  616MOL0     H83102   4.445   4.743   3.529  1.2453 -0.3022  0.5177
  616MOL0     H83103   4.542   4.614   3.711  1.7546 -1.3929  0.6851
  616MOL0     H83104   4.551   4.473   3.615 -0.4280 -0.1410  1.4325
  616MOL0     H83105   4.764   4.555   3.509 -2.2432 -2.0064 -0.7953
  616MOL0     H83106   4.729   4.721   3.555  1.8185 -1.7761 -4.3505
  616MOL0     H83107   4.791   4.482   3.727  1.1551 -0.3671 -2.3457
  616MOL0     H83108   4.747   4.654   3.797  2.4961  1.0409  0.5670
  616MOL0     H83109   4.984   4.585   3.616  0.4358 -0.8944  0.3386
  616MOL0     H83110   4.939   4.752   3.683 -4.7786  0.2084 -1.9230
  616MOL0     H83111   5.081   4.808   3.877 -2.0704 -0.0142 -2.9242
  616MOL0     H83112   5.206   4.788   4.135 -1.0498 -0.5858  2.4688
  616MOL0     H83113   5.255   4.611   4.168  1.3797  0.1397 -1.1208
  616MOL0     H83114   5.430   4.653   3.991 -0.1864  0.0505  0.2618
  616MOL0     H83115   5.371   4.818   3.986  0.3869 -0.7538 -0.2834
  616MOL0     H83116   5.419   4.811   4.253 -1.1196 -1.4829  0.0472
  616MOL0     H83117   5.554   4.844   4.148  0.3406  1.5262  2.6739
  616MOL0     H83118   5.463   4.564   4.235  0.9211 -1.1152 -1.4547
  616MOL0     H83119   5.590   4.662   4.312  0.9366  0.5046 -0.1507
  616MOL0     H83120   5.755   4.531   4.349 -0.9246  1.8324  0.5285
  616MOL0     H83121   5.990   4.486   4.359 -1.2889 -2.6203 -0.2525
  616MOL0     H83122   6.325   4.657   4.445  0.1018 -0.6991 -0.5480
  616MOL0     H83123   6.577   4.717   4.486  1.3387 -0.0927 -0.9962
  616MOL0     H83124   6.943   4.526   4.444 -2.3360  0.7650  0.1572
  616MOL0     H83125   6.842   4.403   4.376 -0.8916 -0.2522  0.7664
  616MOL0     H83126   7.012   4.438   4.211  3.7812  2.7073  0.2032
  616MOL0     H83127   6.863   4.512   4.148  1.0123 -0.6107 -1.0466
  616MOL0     H83128   7.017   4.661   4.104 -0.5948 -1.0894 -0.1098
  616MOL0     H83129   6.943   4.736   4.251 -1.4031 -0.8669 -1.4579
  616MOL0     H83130   7.141   4.572   4.359 -2.5167 -3.9226 -3.2147
  616MOL0     H83131   7.166   4.750   4.324  2.2852  0.6504 -3.7725
  616MOL0     H83132   7.247   4.668   4.101  0.2715  1.3419  0.5564
  616MOL0     H83133   7.232   4.497   4.162 -1.0772 -0.5647  0.8820
  616MOL0     H83134   7.406   4.703   4.291 -3.6530  1.0346 -0.8613
  616MOL0     H83135   7.394   4.531   4.332 -3.1342  1.7936  1.8284
  616MOL0     H83136   7.500   4.638   4.064 -3.7497  0.6428 -0.6484
  616MOL0     H83137   7.481   4.471   4.099  0.6944 -1.5642  2.0968
  616MOL0     H83138   7.647   4.654   4.280 -0.5935 -0.6659  0.5055
  616MOL0     H83139   7.639   4.473   4.282  1.0352  0.4962 -0.5125
  616MOL0     H83140   6.684   4.414   4.210 -1.4095 -0.4056 -0.6589
  616MOL0     H83141   6.461   4.346   4.179  0.2157 -1.8292  2.4783
  616MOL0     H83142   6.034   4.532   3.936 -2.6350 -1.5259 -1.8794
  616MOL0     H83143   5.793   4.579   3.925 -1.7316 -1.8047  1.0505
  616MOL0     H83144   3.866   4.664   3.127  1.6898 -2.3833 -1.0723
  616MOL0     H83145   3.615   4.641   3.134  0.9718 -1.2190 -1.2546
  616MOL0     H83146   3.268   4.580   3.225  0.6095 -3.3378 -0.9887
  616MOL0     H83147   3.024   4.643   3.221 -0.7693  2.8032  2.4207
  616MOL0     H83148   2.800   4.504   3.197 -2.5825 -1.0160 -1.2281
  616MOL0     H83149   2.772   4.669   3.260  0.3290  0.2286  3.4641
  616MOL0     H83150   2.613   4.418   3.334 -0.2721 -0.5753 -0.7316
  616MOL0     H83151   2.574   4.532   3.204 -0.1630  0.9637 -0.1071
  616MOL0     H83152   2.431   4.596   3.393 -0.0289 -0.7874 -2.4351
  616MOL0     H83153   2.556   4.717   3.379 -1.4120  0.7536  3.5883
  616MOL0     H83154   2.548   4.486   3.562 -2.2195  1.0429  0.6577
  616MOL0     H83155   2.688   4.589   3.570  0.5408  0.0128 -0.0294
  616MOL0     H83156   2.413   4.858   3.744  0.8826  0.2551  0.2382
  616MOL0     H83157   2.977   4.379   3.564 -3.6925  1.8924 -1.7693
  616MOL0     H83158   3.261   4.228   3.586  0.7337  0.6833 -1.2505
  616MOL0     H83159   3.326   4.387   3.638  1.2486 -0.9338 -3.4382
  616MOL0     H83160   3.162   4.350   3.689 -0.6067  0.9136  0.0910
  617MOL0     O83161   5.492  10.228   7.108  0.3780  0.4510 -0.0484
  617MOL0     C83162   5.482  10.111   7.080  0.5298 -0.2077 -0.1102
  617MOL0     O83163   5.592  10.030   7.062  0.1252  0.5741 -0.0527
  617MOL0     C83164   5.717  10.055   7.107 -0.4169  0.6696  0.4230
  617MOL0     C83165   5.761  10.131   7.206  0.3309  0.2702 -0.0262
  617MOL0     C83166   5.898  10.153   7.240 -0.5921 -0.1770  0.5784
  617MOL0     C83167   5.997  10.080   7.169  0.1730  0.0464 -0.3276
  617MOL0     O83168   6.129  10.076   7.201  0.0281  0.6299 -0.1147
  617MOL0     C83169   6.189  10.173   7.287 -0.8102 -0.3578  0.6686
  617MOL0     C83170   6.331  10.143   7.333  1.1043  0.0008 -0.9722
  617MOL0     C83171   6.358   9.996   7.326  0.7183 -0.1893 -0.0865
  617MOL0     C83172   6.396   9.959   7.180 -0.6741 -0.2101  0.1284
  617MOL0     C83173   6.401   9.809   7.157 -0.8789  0.1057 -0.0682
  617MOL0     C83174   6.274   9.730   7.163  0.2093 -0.5178  0.4992
  617MOL0     C83175   6.302   9.587   7.151  0.5118  0.4073 -0.4960
  617MOL0     C83176   6.169   9.527   7.095 -0.2715  0.0459  0.0890
  617MOL0     N83177   6.175   9.379   7.080  0.1946  0.7615 -0.4164
  617MOL0     C83178   6.181   9.288   7.183 -0.7390 -0.8198  0.3609
  617MOL0     C83179   6.170   9.171   7.123  0.6274 -0.9276 -0.0449
  617MOL0     C83180   6.162   9.029   7.179 -0.2875 -0.4078  0.1303
  617MOL0     C83181   6.020   8.972   7.159  0.1771  0.3536 -0.2584
  617MOL0     C83182   6.018   8.814   7.165 -0.3705 -0.2363 -0.5191
  617MOL0     C83183   5.889   8.739   7.122 -0.5643 -0.6506 -0.8452
  617MOL0     O83184   5.803   8.715   7.241 -0.7018 -0.5656  0.5275
  617MOL0     C83185   5.673   8.668   7.221  0.2295 -0.2347  0.4882
  617MOL0     C83186   5.621   8.626   7.099  0.2759 -0.5680  0.2962
  617MOL0     C83187   5.500   8.564   7.100  0.7395  0.0372  0.7170
  617MOL0     C83188   5.428   8.553   7.219  0.8335 -0.2642 -0.8386
  617MOL0     C83189   5.287   8.504   7.213  0.8041  0.4493 -0.4634
  617MOL0     O83190   5.218   8.511   7.328 -0.0661  0.0118  0.1875
  617MOL0     C83191   5.076   8.483   7.312 -0.3799  0.9627 -0.0098
  617MOL0     C83192   4.996   8.548   7.216  0.8127 -1.0419 -1.5347
  617MOL0     C83193   4.866   8.526   7.193  1.1811  0.0683  0.5626
  617MOL0     C83194   4.808   8.423   7.270 -0.1573  1.0705  0.2352
  617MOL0     O83195   4.676   8.392   7.240  0.4753  0.0398 -0.3064
  617MOL0     C83196   4.591   8.410   7.356  1.3693  0.1811  0.3256
  617MOL0     C83197   4.448   8.461   7.332 -0.2668  0.6528 -0.5487
  617MOL0     C83198   4.445   8.603   7.287 -0.2716 -0.0832 -1.0592
  617MOL0     C83199   4.302   8.654   7.283  0.1030  0.2194 -0.1323
  617MOL0     C83200   4.285   8.802   7.292 -0.2532 -0.7378  0.0392
  617MOL0     C83201   4.363   8.886   7.183  1.2171 -0.5393 -0.3859
  617MOL0     C83202   4.328   8.827   7.053 -0.2658 -1.0859 -0.2797
  617MOL0     C83203   4.344   8.921   6.932 -0.7808  0.3953 -0.8305
  617MOL0    Cl83204   4.328   8.836   6.770  0.3892  0.0168 -0.2022
  617MOL0     C83205   4.878   8.373   7.385 -0.1615 -0.0028 -0.2956
  617MOL0     C83206   5.010   8.406   7.408 -0.2944  0.0562  0.0780
  617MOL0     O83207   5.246   8.453   7.110 -0.0844  0.3859 -0.4795
  617MOL0     C83208   5.473   8.612   7.333 -0.1006 -0.0617 -0.9434
  617MOL0     C83209   5.597   8.669   7.333 -0.0128 -0.8124 -0.6638
  617MOL0     N83210   6.141   9.191   6.986  0.6571  0.7263  0.5396
  617MOL0     N83211   6.148   9.316   6.960  0.1571 -0.2808 -0.4210
  617MOL0     C83212   5.953   9.995   7.070  0.0805 -0.4333 -0.6777
  617MOL0     C83213   5.815   9.979   7.034  0.9211 -0.6958  0.2075
  617MOL0     C83214   5.344  10.044   7.079 -1.4670  0.0131 -0.8502
  617MOL0     C83215   5.232  10.132   7.068  0.7933  0.5590  0.5472
  617MOL0     C83216   5.100  10.087   7.048  0.5537 -0.8299 -0.4785
  617MOL0     C83217   5.076   9.947   7.053 -0.4710 -0.2471  0.4797
  617MOL0     O83218   4.951   9.881   7.028 -0.5225 -0.4739 -0.2888
  617MOL0     C83219   4.830   9.962   7.037  0.5550  0.5480  0.0992
  617MOL0     C83220   4.781   9.984   7.183 -0.4679  0.5631  0.0097
  617MOL0     C83221   4.650  10.054   7.193  0.3297 -0.1747 -0.2250
  617MOL0     C83222   4.573  10.038   7.324 -0.2036  0.7087  0.2524
  617MOL0     C83223   4.632  10.132   7.417  0.1101 -0.1914 -0.0496
  617MOL0     C83224   4.681  10.201   7.500  0.7172 -0.5256 -0.0994
  617MOL0     C83225   5.189   9.861   7.067  0.7307 -0.0843 -0.0620
  617MOL0     C83226   5.325   9.903   7.077 -0.1578 -0.0377 -0.8944
  617MOL0     C83227   5.436   9.804   7.087  0.2191  0.1052  0.1404
  617MOL0     H83228   5.681  10.169   7.268  0.1692 -1.8415  1.1525
  617MOL0     H83229   5.917  10.221   7.323 -3.0939  1.6044 -0.1674
  617MOL0     H83230   6.179  10.268   7.233 -0.2974 -0.2812  0.7006
  617MOL0     H83231   6.126  10.177   7.376 -0.1921 -0.8866  1.1420
  617MOL0     H83232   6.338  10.170   7.439  1.0440 -0.0055 -0.9670
  617MOL0     H83233   6.403  10.197   7.270  2.0361  0.7307  0.6463
  617MOL0     H83234   6.275   9.932   7.357  1.7823 -1.8061 -0.4756
  617MOL0     H83235   6.434   9.972   7.401 -0.1353  0.4119  1.0030
  617MOL0     H83236   6.335  10.006   7.103  2.1964  0.0669 -2.1723
  617MOL0     H83237   6.497   9.999   7.167  0.4147 -2.3712  1.3665
  617MOL0     H83238   6.445   9.793   7.058 -1.5651 -1.3151 -0.1622
  617MOL0     H83239   6.460   9.772   7.241 -2.2980  2.4429  2.1100
  617MOL0     H83240   6.229   9.740   7.262  1.1624 -3.0076  1.2381
  617MOL0     H83241   6.210   9.768   7.083  0.5177 -2.4385 -0.7030
  617MOL0     H83242   6.330   9.548   7.249  0.2170  0.3927 -0.4172
  617MOL0     H83243   6.387   9.577   7.082  0.2176  1.8088 -1.1100
  617MOL0     H83244   6.094   9.555   7.170  0.4990  2.2895  0.1021
  617MOL0     H83245   6.127   9.568   7.003  0.3406  1.5787  0.4697
  617MOL0     H83246   6.181   9.312   7.289 -1.0027  3.0274 -0.3482
  617MOL0     H83247   6.235   8.968   7.125  0.7584  2.0540 -1.4860
  617MOL0     H83248   6.188   9.035   7.285 -3.3111  0.0847  0.9454
  617MOL0     H83249   5.953   9.005   7.239  0.3400  1.8791 -0.7248
  617MOL0     H83250   5.972   8.997   7.064 -2.3219 -0.9257  0.5591
  617MOL0     H83251   6.038   8.797   7.271 -1.2703 -0.8391 -0.4376
  617MOL0     H83252   6.094   8.778   7.095 -1.5794 -3.0787 -0.4923
  617MOL0     H83253   5.912   8.639   7.084 -1.6036 -1.4897  0.6535
  617MOL0     H83254   5.840   8.810   7.054  2.6549  1.9065 -0.7681
  617MOL0     H83255   5.668   8.632   7.001  0.0063  0.2659  0.2057
  617MOL0     H83256   5.461   8.520   7.008  0.5044 -1.9309  1.7170
  617MOL0     H83257   5.048   8.619   7.152 -0.2962  0.4335 -0.8671
  617MOL0     H83258   4.818   8.591   7.120  0.7560  0.5560  1.2618
  617MOL0     H83259   4.585   8.317   7.413  1.3213 -0.0642 -0.0730
  617MOL0     H83260   4.632   8.493   7.414 -1.9937  2.8518 -0.7341
  617MOL0     H83261   4.406   8.397   7.254 -0.5054 -1.3767  1.1689
  617MOL0     H83262   4.382   8.456   7.419 -2.6484 -0.0231 -2.2833
  617MOL0     H83263   4.516   8.662   7.346  0.5372 -2.9969  1.0960
  617MOL0     H83264   4.480   8.602   7.183 -1.1470 -0.1965 -1.3569
  617MOL0     H83265   4.237   8.614   7.362  1.9449  0.6785  1.6896
  617MOL0     H83266   4.263   8.623   7.185 -3.3171 -0.4729  1.2878
  617MOL0     H83267   4.327   8.826   7.390 -1.0392  3.3038 -0.4163
  617MOL0     H83268   4.182   8.839   7.291  0.1497  0.5961  2.0835
  617MOL0     H83269   4.327   8.989   7.186  0.4739 -0.7570 -1.3223
  617MOL0     H83270   4.472   8.887   7.190  1.5861 -0.1629 -4.0388
  617MOL0     H83271   4.225   8.791   7.046  0.0499 -1.9598 -0.5506
  617MOL0     H83272   4.394   8.742   7.032  0.3842  0.2364 -4.3474
  617MOL0     H83273   4.265   8.997   6.931 -0.0370  1.1770 -2.0264
  617MOL0     H83274   4.445   8.962   6.928 -0.7908  0.3046 -2.3194
  617MOL0     H83275   4.824   8.314   7.458  0.7565 -1.2125 -0.5687
  617MOL0     H83276   5.071   8.371   7.490  1.0885  3.5608  0.7103
  617MOL0     H83277   5.419   8.610   7.427 -0.5221  1.5756 -1.1253
  617MOL0     H83278   5.645   8.694   7.426  1.5580  1.2433 -1.9409
  617MOL0     H83279   6.021   9.938   7.008 -0.4896 -1.2365 -0.5758
  617MOL0     H83280   5.786   9.922   6.947 -0.6139 -1.6278  1.2894
  617MOL0     H83281   5.246  10.237   7.090  1.2438  0.5746  0.2108
  617MOL0     H83282   5.020  10.160   7.042  0.2323 -1.1162  0.2479
  617MOL0     H83283   4.750   9.915   6.979  2.0875 -1.0991 -0.7520
  617MOL0     H83284   4.832  10.056   6.981 -1.3872 -0.6754 -2.1754
  617MOL0     H83285   4.864  10.039   7.229 -0.0266 -0.7455  0.8383
  617MOL0     H83286   4.770   9.885   7.228 -4.0667  0.3519 -0.9956
  617MOL0     H83287   4.586  10.017   7.112  0.4758 -1.2307  0.1268
  617MOL0     H83288   4.659  10.159   7.163  3.4210  0.4029  2.2334
  617MOL0     H83289   4.468  10.066   7.312 -0.2545  0.7238  0.7392
  617MOL0     H83290   4.599   9.936   7.354  0.9306  1.3746  1.6212
  617MOL0     H83291   4.705  10.265   7.582 -1.3117 -0.9251  0.8946
  617MOL0     H83292   5.167   9.755   7.065  1.3052 -0.1998 -0.8652
  617MOL0     H83293   5.484   9.785   6.991  1.2925 -1.4179  0.9219
  617MOL0     H83294   5.518   9.834   7.153  0.6489  0.1770 -0.4211
  617MOL0     H83295   5.403   9.707   7.126  2.7935 -1.5061 -1.3748
  618MOL0     O83296   8.200   3.037  10.523  0.4895 -0.6350  0.2512
  618MOL0     C83297   8.274   3.131  10.493 -0.4548 -0.1562 -0.7148
  618MOL0     O83298   8.415   3.118  10.480  1.2845  0.5272 -0.3096
  618MOL0     C83299   8.467   2.990  10.483 -1.0120 -0.9925 -0.7778
  618MOL0     C83300   8.498   2.926  10.361  0.0078  0.1681 -0.4021
  618MOL0     C83301   8.559   2.796  10.366 -0.3464  0.2967  0.0093
  618MOL0     C83302   8.600   2.736  10.484  0.0854 -0.3061 -0.8532
  618MOL0     O83303   8.659   2.614  10.476 -0.4942  0.9094  0.6247
  618MOL0     C83304   8.583   2.504  10.425 -0.1200  0.8307 -0.0738
  618MOL0     C83305   8.604   2.469  10.278 -0.2965 -0.4364 -0.6688
  618MOL0     C83306   8.723   2.376  10.244 -0.1332 -0.5012  0.6505
  618MOL0     C83307   8.853   2.432  10.297  1.0923  0.2943 -0.3605
  618MOL0     C83308   8.979   2.361  10.245 -0.2672  0.0404  0.6890
  618MOL0     C83309   9.018   2.427  10.120 -1.4641 -0.2561 -0.2048
  618MOL0     C83310   9.145   2.355  10.060 -0.3242  0.9026  0.1429
  618MOL0     C83311   9.277   2.376  10.137  0.2873  0.3230  1.0014
  618MOL0     N83312   9.387   2.300  10.087  0.2694  0.2357  0.6268
  618MOL0     C83313   9.412   2.247   9.967 -0.1945 -0.0828  0.5179
  618MOL0     C83314   9.536   2.190   9.975  0.9103 -0.0394 -0.0958
  618MOL0     C83315   9.608   2.146   9.861 -0.7655  0.0028 -0.5717
  618MOL0     C83316   9.605   1.994   9.850 -0.6356  0.1724  0.3226
  618MOL0     C83317   9.685   1.909   9.949 -0.3373  0.9009  0.4334
  618MOL0     C83318   9.814   1.973   9.999  0.0139 -1.2050  0.2361
  618MOL0     O83319   9.902   1.960   9.877  0.3893 -0.8174  0.0411
  618MOL0     C83320  10.009   1.881   9.870 -0.5278 -0.2679  0.3482
  618MOL0     C83321  10.058   1.781   9.961  0.5520  0.5772 -0.6808
  618MOL0     C83322  10.173   1.697   9.942 -0.5601 -0.1779  0.2605
  618MOL0     C83323  10.254   1.727   9.829  0.0483  0.0863 -0.0296
  618MOL0     C83324  10.381   1.646   9.805  0.1376  0.8324 -0.7290
  618MOL0     O83325  10.467   1.688   9.711 -0.6174 -0.1536  0.0871
  618MOL0     C83326  10.593   1.644   9.721 -0.3157  0.2117  0.0914
  618MOL0     C83327  10.655   1.568   9.626 -0.1742 -0.1583  0.2257
  618MOL0     C83328  10.792   1.527   9.644  0.6158 -0.1670  0.0680
  618MOL0     C83329  10.864   1.557   9.765  0.5251  0.5340  0.2584
  618MOL0     O83330  10.991   1.504   9.780 -0.6016  0.1658  0.7556
  618MOL0     C83331  11.052   1.498   9.906 -0.3163 -0.4182 -0.0732
  618MOL0     C83332  11.194   1.448   9.870 -0.9573 -0.7432  0.0755
  618MOL0     C83333  11.293   1.486   9.979 -0.6682 -0.0238 -0.2831
  618MOL0     C83334  11.438   1.447   9.933 -0.3834  0.0591  0.2615
  618MOL0     C83335  11.533   1.415  10.048  0.6518 -0.1762 -0.4985
  618MOL0     C83336  11.678   1.370  10.011  1.4630 -0.2130  0.6241
  618MOL0     C83337  11.756   1.335  10.137  0.7013  0.0185  0.3093
  618MOL0     C83338  11.861   1.449  10.165  0.3699  0.3471  0.7156
  618MOL0    Cl83339  11.979   1.452  10.024 -0.1945  0.0582  0.1358
  618MOL0     C83340  10.796   1.629   9.860 -0.2965  1.3915 -0.2867
  618MOL0     C83341  10.666   1.677   9.844  0.6566  0.1272  0.6505
  618MOL0     O83342  10.397   1.541   9.864  0.0270 -0.0744 -0.2435
  618MOL0     C83343  10.213   1.828   9.738  0.2795 -0.0056  0.5562
  618MOL0     C83344  10.092   1.897   9.757 -0.7664 -0.0936  0.4380
  618MOL0     N83345   9.579   2.229  10.104 -0.0127 -0.5143 -0.0476
  618MOL0     N83346   9.483   2.284  10.171 -0.1762  0.1401 -0.1430
  618MOL0     C83347   8.572   2.804  10.605  1.0684  0.7699 -0.3920
  618MOL0     C83348   8.507   2.931  10.605  0.6075 -0.0941  0.1807
  618MOL0     C83349   8.226   3.266  10.469  0.3848 -0.0692  0.4064
  618MOL0     C83350   8.315   3.362  10.426 -0.1804 -0.1274 -0.2250
  618MOL0     C83351   8.279   3.494  10.410 -1.1559 -0.2607  0.3802
  618MOL0     C83352   8.146   3.539  10.434  0.4417 -0.3364 -0.2684
  618MOL0     O83353   8.097   3.669  10.401 -0.1647  0.1773 -0.0758
  618MOL0     C83354   8.176   3.776  10.332 -0.0326  0.2062  0.1684
  618MOL0     C83355   8.145   3.766  10.177  0.9933  0.3537  0.1496
  618MOL0     C83356   7.988   3.756  10.165  0.3759  0.3864  0.5867
  618MOL0     C83357   7.914   3.855  10.252  0.2267  0.0728 -0.7315
  618MOL0     C83358   7.767   3.851  10.223 -0.7147  0.4988  0.1513
  618MOL0     C83359   7.657   3.823  10.184 -0.0858  0.0342  0.3033
  618MOL0     C83360   8.057   3.438  10.475  0.3155  0.4035  0.3749
  618MOL0     C83361   8.092   3.312  10.496 -0.0755  1.1178 -0.2963
  618MOL0     C83362   7.987   3.217  10.567 -0.5568  0.2850  0.5375
  618MOL0     H83363   8.472   2.977  10.269  2.9760 -0.5619 -1.7641
  618MOL0     H83364   8.584   2.753  10.269  0.1526 -1.1759  0.7662
  618MOL0     H83365   8.599   2.419  10.492 -0.5428  1.2718  0.6088
  618MOL0     H83366   8.481   2.540  10.444  0.8889  2.7832  2.1930
  618MOL0     H83367   8.619   2.565  10.228 -1.5383  1.1277  1.7479
  618MOL0     H83368   8.517   2.418  10.237  0.0872 -0.9247 -0.8869
  618MOL0     H83369   8.728   2.367  10.135  0.7916 -0.1900  0.6590
  618MOL0     H83370   8.703   2.276  10.282 -0.5332 -0.0938  1.5312
  618MOL0     H83371   8.850   2.539  10.273 -0.2345  0.4899  0.5534
  618MOL0     H83372   8.859   2.421  10.406  2.2186  0.5750 -0.3885
  618MOL0     H83373   9.063   2.361  10.316 -1.0775 -0.0322  1.6672
  618MOL0     H83374   8.962   2.255  10.224  1.8916 -0.0599 -0.9896
  618MOL0     H83375   8.936   2.434  10.048 -1.2493  1.1901 -0.3308
  618MOL0     H83376   9.037   2.530  10.152 -0.7173 -1.0258  2.0221
  618MOL0     H83377   9.155   2.402   9.962 -0.5931  2.0095  0.6215
  618MOL0     H83378   9.135   2.250  10.031 -0.7807  1.0113 -0.0965
  618MOL0     H83379   9.301   2.482  10.135 -2.7837  1.3712  5.1948
  618MOL0     H83380   9.264   2.354  10.244 -0.6647 -3.0753  0.2949
  618MOL0     H83381   9.346   2.255   9.881  1.8174 -2.7338 -1.4705
  618MOL0     H83382   9.562   2.191   9.772  0.6878  0.5450 -1.0819
  618MOL0     H83383   9.712   2.177   9.872 -1.3628  1.7108  0.6820
  618MOL0     H83384   9.501   1.959   9.860 -0.8303  0.5458 -0.3506
  618MOL0     H83385   9.638   1.973   9.748 -0.9932  1.8588 -0.1644
  618MOL0     H83386   9.712   1.809   9.914  1.0428  1.4185 -0.0355
  618MOL0     H83387   9.619   1.893  10.035 -0.4711 -2.0805 -0.1087
  618MOL0     H83388   9.862   1.918  10.081  1.8408  1.0346  0.7632
  618MOL0     H83389   9.794   2.073  10.038  0.1062 -0.5141 -1.3917
  618MOL0     H83390   9.994   1.742  10.040 -1.1161  3.6020 -0.4021
  618MOL0     H83391  10.196   1.619  10.014  0.1728 -0.4168 -0.2233
  618MOL0     H83392  10.609   1.529   9.536 -1.2316 -0.5812  0.9293
  618MOL0     H83393  10.841   1.477   9.561  2.8000  0.2010  1.0801
  618MOL0     H83394  11.067   1.594   9.956 -0.3353 -1.1629  1.4186
  618MOL0     H83395  11.013   1.427   9.980 -0.0244 -0.2766  0.2185
  618MOL0     H83396  11.194   1.339   9.866 -0.3185 -0.7635  0.4499
  618MOL0     H83397  11.224   1.496   9.777  2.1954 -0.9822  0.8493
  618MOL0     H83398  11.285   1.594   9.993  2.5063 -0.0501  3.1343
  618MOL0     H83399  11.258   1.442  10.073  0.2841  1.7610  0.9697
  618MOL0     H83400  11.488   1.527   9.877 -0.5055  1.5694  2.2156
  618MOL0     H83401  11.427   1.359   9.870 -3.7304  1.0984 -0.7866
  618MOL0     H83402  11.488   1.331  10.103 -1.3489 -0.3744 -2.3081
  618MOL0     H83403  11.541   1.504  10.110 -0.6362 -1.0038  0.9213
  618MOL0     H83404  11.677   1.276   9.956  2.9106 -1.4653  2.5824
  618MOL0     H83405  11.718   1.448   9.946  0.0581  0.7537  0.8724
  618MOL0     H83406  11.809   1.241  10.115  1.1167 -0.1444  1.8604
  618MOL0     H83407  11.686   1.317  10.219  0.9188  1.3577  0.8186
  618MOL0     H83408  11.804   1.542  10.179  0.0998 -0.0384  2.4253
  618MOL0     H83409  11.910   1.427  10.260 -0.5044 -2.1265  0.6569
  618MOL0     H83410  10.847   1.663   9.950  0.7928  0.6583 -0.6004
  618MOL0     H83411  10.629   1.747   9.917 -0.5658 -0.0136  0.1919
  618MOL0     H83412  10.276   1.845   9.652 -1.4573 -0.6806 -0.9084
  618MOL0     H83413  10.066   1.974   9.685  2.3251 -3.2072 -4.7006
  618MOL0     H83414   8.608   2.763  10.698 -0.5823  3.4283  1.5649
  618MOL0     H83415   8.481   2.979  10.700 -2.3840 -2.1344  0.5309
  618MOL0     H83416   8.422   3.343  10.426  0.0160  0.9041 -0.0375
  618MOL0     H83417   8.353   3.567  10.379  0.0760 -1.7194 -0.2929
  618MOL0     H83418   8.285   3.770  10.344 -0.2225 -1.4880  1.4124
  618MOL0     H83419   8.151   3.877  10.365 -0.4991 -0.1784  1.0198
  618MOL0     H83420   8.197   3.686  10.122  0.7393  1.2362 -1.4318
  618MOL0     H83421   8.168   3.856  10.120 -0.5782 -1.6691 -4.1606
  618MOL0     H83422   7.954   3.655  10.191 -0.0724  0.9773  2.4382
  618MOL0     H83423   7.965   3.782  10.061  0.3200  2.1278  1.0065
  618MOL0     H83424   7.924   3.837  10.359 -1.3712  0.1585 -0.5393
  618MOL0     H83425   7.935   3.960  10.232  0.5649 -0.2286 -2.0580
  618MOL0     H83426   7.567   3.782  10.144 -0.8001  0.3845  1.5070
  618MOL0     H83427   7.955   3.470  10.490 -0.5322 -2.0696  0.3776
  618MOL0     H83428   8.018   3.184  10.667  3.1110  0.9930 -0.2409
  618MOL0     H83429   7.891   3.266  10.585  0.4832  2.2828  0.9399
  618MOL0     H83430   7.976   3.124  10.510 -0.0431 -0.3029  1.3690
  619MOL0     O83431   1.462  10.067   9.758 -0.4147 -0.0423  0.4678
  619MOL0     C83432   1.435  10.192   9.772 -0.3557  0.7370  0.0975
  619MOL0     O83433   1.529  10.284   9.771  0.7884 -0.5653  0.1086
  619MOL0     C83434   1.666  10.258   9.770  0.2367  0.2926  0.4014
  619MOL0     C83435   1.732  10.151   9.816  0.2509  0.3153 -0.4139
  619MOL0     C83436   1.870  10.134   9.817 -0.8379 -0.1875 -0.0882
  619MOL0     C83437   1.961  10.234   9.764  0.8352  0.3471  0.2711
  619MOL0     O83438   2.099  10.226   9.742  0.4638 -0.0508  0.6997
  619MOL0     C83439   2.161  10.096   9.771  0.0401  0.6685 -0.4532
  619MOL0     C83440   2.305  10.117   9.724 -0.3364 -0.8468 -1.0835
  619MOL0     C83441   2.389  10.225   9.796  1.2958  0.2286 -0.0809
  619MOL0     C83442   2.416  10.196   9.947  0.6146  0.2532 -0.2105
  619MOL0     C83443   2.526  10.294  10.005  0.2721  0.8017  0.0122
  619MOL0     C83444   2.593  10.229  10.134 -0.6649 -0.0702 -0.8574
  619MOL0     C83445   2.675  10.110  10.104 -0.2238  0.0581 -0.0528
  619MOL0     C83446   2.795  10.124  10.012 -0.2376  0.6311 -0.1443
  619MOL0     N83447   2.887  10.232  10.062  0.2702  0.7058 -0.2060
  619MOL0     C83448   2.983  10.215  10.154  0.3115  0.1646  0.0657
  619MOL0     C83449   3.042  10.343  10.172  0.4723  0.0333  1.2732
  619MOL0     C83450   3.156  10.378  10.251 -0.7798 -0.7473 -0.1758
  619MOL0     C83451   3.256  10.443  10.150 -0.1177 -0.0884 -0.4121
  619MOL0     C83452   3.388  10.446  10.232 -0.8014  0.3792 -0.3696
  619MOL0     C83453   3.483  10.560  10.203 -0.6028  0.8454 -0.0896
  619MOL0     O83454   3.575  10.575  10.318  0.7360  0.9944  0.9872
  619MOL0     C83455   3.671  10.475  10.337 -0.3032 -0.2195 -0.3732
  619MOL0     C83456   3.775  10.467  10.244 -0.9970 -0.2709  0.2387
  619MOL0     C83457   3.887  10.390  10.278  0.0243 -0.2513 -0.4011
  619MOL0     C83458   3.892  10.323  10.401 -0.2392 -0.8227  0.4323
  619MOL0     C83459   4.011  10.246  10.431  0.2243 -0.4385  0.0378
  619MOL0     O83460   4.110  10.245  10.333 -0.4868  0.2514  0.5693
  619MOL0     C83461   4.229  10.196  10.375  0.2652  0.4386 -0.5216
  619MOL0     C83462   4.326  10.285  10.421  1.2991 -0.1320  0.7692
  619MOL0     C83463   4.454  10.245  10.441  0.3460 -0.4872  0.2587
  619MOL0     C83464   4.490  10.110  10.434 -0.0170  0.1142  0.0406
  619MOL0     O83465   4.623  10.078  10.467 -0.2849 -0.1196  0.1005
  619MOL0     C83466   4.678   9.947  10.439  0.1329  0.9114  0.1207
  619MOL0     C83467   4.655   9.861  10.558 -0.4049  0.3393 -0.7214
  619MOL0     C83468   4.722   9.724  10.551 -0.2080  0.0957 -0.4391
  619MOL0     C83469   4.869   9.729  10.521  0.1786  0.8053  0.2833
  619MOL0     C83470   4.937   9.595  10.550  0.8578  0.6581  0.0668
  619MOL0     C83471   5.085   9.585  10.530 -0.4327 -0.0149 -0.3860
  619MOL0     C83472   5.116   9.435  10.529 -0.6891  0.8469 -0.3940
  619MOL0     C83473   5.260   9.421  10.477 -0.5688 -0.5890 -1.2153
  619MOL0    Cl83474   5.254   9.423  10.303  0.2865  0.2259  0.0705
  619MOL0     C83475   4.387  10.021  10.390 -0.3172 -0.1110 -0.7167
  619MOL0     C83476   4.260  10.060  10.354  0.7817  0.0897  0.0135
  619MOL0     O83477   4.028  10.212  10.546  0.3289 -0.4714  0.2238
  619MOL0     C83478   3.782  10.329  10.485 -0.4227 -0.2042  0.9662
  619MOL0     C83479   3.668  10.410  10.458  0.5470 -0.4074  0.5876
  619MOL0     N83480   2.983  10.425  10.073  0.7634 -0.8570 -0.3178
  619MOL0     N83481   2.892  10.359  10.013 -0.5418 -0.3794  0.2593
  619MOL0     C83482   1.890  10.357   9.723  0.2566 -0.0090 -0.7347
  619MOL0     C83483   1.742  10.364   9.716 -0.2749 -0.9732 -0.0323
  619MOL0     C83484   1.302  10.254   9.791  0.3991  0.2593  0.0835
  619MOL0     C83485   1.292  10.389   9.805 -0.1960  0.2622  0.8484
  619MOL0     C83486   1.175  10.458   9.829  0.3169 -0.5410  0.0441
  619MOL0     C83487   1.058  10.396   9.819  0.1789  0.3268  0.9595
  619MOL0     O83488   0.943  10.474   9.838  0.3242  0.6079  0.1898
  619MOL0     C83489   0.804  10.436   9.822  0.3969  0.2503  0.2131
  619MOL0     C83490   0.731  10.478   9.949 -0.1501 -0.4233  0.3595
  619MOL0     C83491   0.732  10.637   9.974 -0.7442 -0.1381  0.6515
  619MOL0     C83492   0.748  10.662  10.120 -0.1855  0.1893 -0.7026
  619MOL0     C83493   0.662  10.582  10.201  0.0901 -0.2431  0.1279
  619MOL0     C83494   0.587  10.511  10.262  0.8851 -0.2575 -0.1417
  619MOL0     C83495   1.064  10.249   9.811  0.7113 -0.6746  0.3520
  619MOL0     C83496   1.180  10.177   9.802  0.0210 -1.4327  1.5053
  619MOL0     C83497   1.167  10.028   9.808 -0.1741 -0.0094  1.1468
  619MOL0     H83498   1.683  10.062   9.855 -2.3881  1.6934 -0.3448
  619MOL0     H83499   1.925  10.051   9.860  0.9424  1.4041  0.9277
  619MOL0     H83500   2.166  10.074   9.878 -0.0445 -3.2362 -1.1037
  619MOL0     H83501   2.107  10.011   9.726 -1.6664  1.5857 -0.2335
  619MOL0     H83502   2.318  10.151   9.620 -0.4612 -0.5059 -0.9867
  619MOL0     H83503   2.362  10.024   9.737  0.5007 -0.0809  1.2264
  619MOL0     H83504   2.340  10.323   9.795  3.4561  1.3825 -0.1714
  619MOL0     H83505   2.487  10.238   9.749  2.8598 -0.9197  2.5896
  619MOL0     H83506   2.318  10.205   9.994  0.8815 -3.4654  1.3086
  619MOL0     H83507   2.431  10.091   9.969 -1.3736  0.2897  1.5294
  619MOL0     H83508   2.607  10.309   9.933  0.8048 -2.4769 -0.2094
  619MOL0     H83509   2.480  10.389  10.035  0.5405  0.7560  0.5863
  619MOL0     H83510   2.655  10.299  10.190 -1.0563  0.7322 -1.4106
  619MOL0     H83511   2.515  10.198  10.204 -0.7094 -0.5654 -1.1163
  619MOL0     H83512   2.606  10.032  10.071 -2.1090  0.7509  2.0332
  619MOL0     H83513   2.721  10.086  10.200  1.0335  0.4708 -0.5257
  619MOL0     H83514   2.837  10.025   9.989 -1.4777  0.1006 -0.2080
  619MOL0     H83515   2.756  10.164   9.919  0.1230 -0.2770 -0.7012
  619MOL0     H83516   3.011  10.126  10.209 -0.3216 -0.9975 -1.4317
  619MOL0     H83517   3.128  10.453  10.326  1.9586 -0.4881  0.7329
  619MOL0     H83518   3.198  10.295  10.308  0.3836 -0.6134 -0.8118
  619MOL0     H83519   3.262  10.384  10.059  1.2151  1.0569 -1.0949
  619MOL0     H83520   3.216  10.541  10.123 -1.8379 -0.7293 -0.3440
  619MOL0     H83521   3.436  10.348  10.222 -2.5521 -0.2979 -3.8717
  619MOL0     H83522   3.367  10.450  10.340  1.7596 -0.6561  0.2386
  619MOL0     H83523   3.426  10.651  10.180 -2.8204 -0.2456  0.7937
  619MOL0     H83524   3.533  10.533  10.110 -2.3571 -2.2247 -0.2958
  619MOL0     H83525   3.768  10.503  10.141  1.0533 -1.7739 -0.5130
  619MOL0     H83526   3.974  10.397  10.214 -0.8115  2.9156 -1.3930
  619MOL0     H83527   4.305  10.391  10.422  0.0999 -0.3184 -0.8329
  619MOL0     H83528   4.525  10.324  10.463 -0.9847  0.9672 -0.5344
  619MOL0     H83529   4.657   9.899  10.343  0.8305 -0.1770  0.4967
  619MOL0     H83530   4.787   9.959  10.426  0.0653  1.1388 -0.2871
  619MOL0     H83531   4.689   9.909  10.650 -0.4803 -1.5277  0.3179
  619MOL0     H83532   4.547   9.847  10.571 -0.2155 -0.7769 -0.2944
  619MOL0     H83533   4.705   9.672  10.646  0.1343  0.9290  0.0949
  619MOL0     H83534   4.684   9.665  10.467  0.4605  0.5632 -1.0862
  619MOL0     H83535   4.912   9.800  10.593  1.7989  0.2173 -0.0823
  619MOL0     H83536   4.887   9.760  10.418 -0.6503 -1.0888 -0.4811
  619MOL0     H83537   4.890   9.524  10.481 -2.6846  1.5663  1.2865
  619MOL0     H83538   4.918   9.544  10.645 -0.9372 -0.1153 -0.6690
  619MOL0     H83539   5.117   9.641  10.442 -1.8868 -1.5523 -1.9912
  619MOL0     H83540   5.136   9.633  10.613 -1.3175  3.3162 -1.5898
  619MOL0     H83541   5.058   9.370  10.464  0.1552 -1.6400  1.2149
  619MOL0     H83542   5.101   9.392  10.628  1.6517 -0.7596 -0.6801
  619MOL0     H83543   5.326   9.497  10.520 -1.4999  0.0012 -0.7865
  619MOL0     H83544   5.297   9.323  10.508 -2.0463 -0.4671  1.1770
  619MOL0     H83545   4.417   9.919  10.369  1.4005 -0.4621  2.6887
  619MOL0     H83546   4.185   9.992  10.314  0.6079  0.0647  0.3764
  619MOL0     H83547   3.775  10.265  10.573 -0.7442  0.7158  1.6281
  619MOL0     H83548   3.572  10.418  10.508  0.5905 -0.7223  0.7242
  619MOL0     H83549   1.955  10.437   9.690  0.8755 -0.1593  0.0698
  619MOL0     H83550   1.701  10.459   9.685  0.1580 -1.1818 -1.2917
  619MOL0     H83551   1.376  10.457   9.802  0.3399 -0.2131  3.0704
  619MOL0     H83552   1.164  10.557   9.871 -1.2075 -0.2867 -0.8640
  619MOL0     H83553   0.794  10.327   9.822 -0.3284  0.2168  3.0453
  619MOL0     H83554   0.771  10.487   9.731 -1.8389 -0.4945  0.5402
  619MOL0     H83555   0.779  10.416  10.025 -2.1186 -1.5613  0.7426
  619MOL0     H83556   0.626  10.456   9.931 -0.9803  3.4935 -0.6719
  619MOL0     H83557   0.637  10.682   9.947 -0.8131 -0.3721  0.5020
  619MOL0     H83558   0.813  10.679   9.913 -1.1322  0.4981  0.5733
  619MOL0     H83559   0.854  10.645  10.142  0.1138 -1.8650 -3.1870
  619MOL0     H83560   0.725  10.767  10.139  0.6734  0.2252  0.2226
  619MOL0     H83561   0.517  10.454  10.320 -2.3955  3.0337 -0.4941
  619MOL0     H83562   0.967  10.199   9.811 -2.1002  3.9025 -3.8490
  619MOL0     H83563   1.099   9.986   9.883 -2.8333 -1.0741 -1.6586
  619MOL0     H83564   1.138   9.983   9.713 -2.0683 -1.7044  2.4456
  619MOL0     H83565   1.268   9.991   9.833  0.4140  1.1026  0.4919
  620MOL0     O83566   4.696   1.814   5.187  0.1122  0.6288  0.5770
  620MOL0     C83567   4.621   1.846   5.095  0.5262  0.3591 -0.2598
  620MOL0     O83568   4.619   1.801   4.956 -0.3117  0.7633  0.4476
  620MOL0     C83569   4.735   1.737   4.909  0.3438 -0.2667  0.2289
  620MOL0     C83570   4.741   1.601   4.867 -0.2050 -0.1054  0.5145
  620MOL0     C83571   4.860   1.541   4.821 -0.0543  0.1925 -0.6676
  620MOL0     C83572   4.979   1.612   4.820  0.1889 -0.0224  0.0612
  620MOL0     O83573   5.093   1.561   4.768  0.0258  0.3293  0.7172
  620MOL0     C83574   5.143   1.652   4.668 -0.7048 -0.5481 -0.2216
  620MOL0     C83575   5.241   1.587   4.571 -0.4747 -0.1469 -0.7827
  620MOL0     C83576   5.363   1.538   4.654 -0.5441 -0.2901 -0.2090
  620MOL0     C83577   5.468   1.514   4.552  0.5116 -0.3922  0.2574
  620MOL0     C83578   5.600   1.483   4.613  0.5675  0.1324  0.2146
  620MOL0     C83579   5.716   1.472   4.499 -0.2506  0.3537  0.0266
  620MOL0     C83580   5.835   1.412   4.560 -0.3372  0.5970 -0.6868
  620MOL0     C83581   5.962   1.415   4.472 -0.0531  0.1801 -0.2525
  620MOL0     N83582   6.083   1.363   4.532 -0.4793  0.2080 -0.2239
  620MOL0     C83583   6.189   1.432   4.571 -0.0789 -0.0268  0.7832
  620MOL0     C83584   6.262   1.346   4.639 -1.0812 -0.1744 -0.2668
  620MOL0     C83585   6.385   1.389   4.714 -0.0352  0.2308 -0.2494
  620MOL0     C83586   6.517   1.339   4.650 -0.6504  0.6013  0.3024
  620MOL0     C83587   6.634   1.378   4.745 -0.0635 -0.1293 -0.1644
  620MOL0     C83588   6.761   1.314   4.715  0.1289 -0.2721  0.0547
  620MOL0     O83589   6.806   1.357   4.584  0.5127 -0.4760 -0.6439
  620MOL0     C83590   6.940   1.357   4.557 -0.1689 -0.2823 -0.6689
  620MOL0     C83591   6.978   1.416   4.431 -0.0084  0.5489 -0.3062
  620MOL0     C83592   7.112   1.409   4.391  0.2578  0.8336  0.0384
  620MOL0     C83593   7.205   1.338   4.465 -0.7462  0.3179 -1.3709
  620MOL0     C83594   7.344   1.340   4.416  0.2298 -0.2097 -0.6842
  620MOL0     O83595   7.437   1.268   4.485 -0.8106 -0.1042 -0.1384
  620MOL0     C83596   7.569   1.268   4.455  0.3711 -0.4374  0.2190
  620MOL0     C83597   7.631   1.143   4.457 -0.6306  0.4830 -0.6475
  620MOL0     C83598   7.773   1.129   4.432  0.4472 -0.2664 -0.5524
  620MOL0     C83599   7.852   1.239   4.401  0.6782  0.2656 -0.7867
  620MOL0     O83600   7.991   1.216   4.389  0.4486 -0.8620  0.4109
  620MOL0     C83601   8.078   1.330   4.355  0.0828  0.1553 -0.4961
  620MOL0     C83602   8.212   1.284   4.401  0.3388  0.1945  0.0405
  620MOL0     C83603   8.264   1.159   4.323 -0.0245  0.4881 -0.7144
  620MOL0     C83604   8.364   1.199   4.211  0.2703 -0.2184  0.0328
  620MOL0     C83605   8.421   1.068   4.151  0.4842  0.4388  0.5653
  620MOL0     C83606   8.557   1.094   4.074  0.2263  0.0789  0.5596
  620MOL0     C83607   8.608   0.969   3.999 -0.2247  0.5981  0.1188
  620MOL0     C83608   8.731   1.010   3.909 -0.9688 -0.7134 -0.4448
  620MOL0    Cl83609   8.849   1.091   4.013 -0.1366  0.1608 -0.0535
  620MOL0     C83610   7.785   1.373   4.395 -0.5532 -0.0489  0.8802
  620MOL0     C83611   7.652   1.381   4.428 -0.8748 -0.1720  0.1678
  620MOL0     O83612   7.365   1.410   4.319 -0.0659  0.3166  0.0210
  620MOL0     C83613   7.172   1.272   4.573  1.1176 -0.5548 -0.6801
  620MOL0     C83614   7.038   1.288   4.631  0.7647  0.4569 -0.1692
  620MOL0     N83615   6.199   1.226   4.636  0.3605  0.3262 -0.1842
  620MOL0     N83616   6.102   1.234   4.560  0.3460  0.4226  0.0528
  620MOL0     C83617   4.980   1.739   4.874  0.4297 -0.1813 -0.5331
  620MOL0     C83618   4.861   1.803   4.914  0.4491 -0.6824  0.8258
  620MOL0     C83619   4.530   1.966   5.113  0.4297 -0.7965 -0.0314
  620MOL0     C83620   4.481   2.034   4.998  0.3699 -0.7048  0.5045
  620MOL0     C83621   4.394   2.149   5.014  0.3101 -0.8126 -0.2216
  620MOL0     C83622   4.354   2.204   5.138 -0.1314  0.4273 -0.7863
  620MOL0     O83623   4.267   2.311   5.157 -0.4825  0.2271  0.6130
  620MOL0     C83624   4.331   2.434   5.132 -0.5682  0.1172  0.7474
  620MOL0     C83625   4.233   2.544   5.107 -0.8384  0.8325  0.3969
  620MOL0     C83626   4.175   2.602   5.237  0.2113 -0.2512  0.5698
  620MOL0     C83627   4.094   2.727   5.225  0.1315 -0.5113 -0.0898
  620MOL0     C83628   3.964   2.691   5.163  0.6147  1.0922 -0.7284
  620MOL0     C83629   3.855   2.658   5.121  0.3123 -0.3136  0.6798
  620MOL0     C83630   4.402   2.132   5.251 -0.3760  1.0956  0.3554
  620MOL0     C83631   4.482   2.024   5.244 -0.1439 -0.1920  0.2443
  620MOL0     C83632   4.512   1.957   5.378 -0.4722  0.8487  0.0093
  620MOL0     H83633   4.655   1.536   4.871 -0.9023  0.6373 -1.1135
  620MOL0     H83634   4.864   1.441   4.779  2.3000  0.2592 -0.7383
  620MOL0     H83635   5.065   1.693   4.602  0.6034  1.4860 -0.5809
  620MOL0     H83636   5.194   1.740   4.709 -1.0490 -0.2732 -0.3745
  620MOL0     H83637   5.281   1.668   4.508  1.0950  1.3442  1.9447
  620MOL0     H83638   5.196   1.512   4.505  0.0709  0.4562 -1.8694
  620MOL0     H83639   5.340   1.451   4.717  3.7336 -0.8936  0.8738
  620MOL0     H83640   5.396   1.619   4.719 -0.2094 -0.3733 -0.2732
  620MOL0     H83641   5.451   1.435   4.479  1.3294 -0.7929  0.4854
  620MOL0     H83642   5.478   1.607   4.496 -1.5237 -1.6288 -2.3674
  620MOL0     H83643   5.636   1.565   4.675 -0.0007 -0.8200  1.8510
  620MOL0     H83644   5.601   1.389   4.669  1.7184  0.0072 -0.0024
  620MOL0     H83645   5.698   1.394   4.424  1.2453 -2.9190  2.8091
  620MOL0     H83646   5.727   1.574   4.461 -0.3126  0.0459 -0.8300
  620MOL0     H83647   5.814   1.311   4.598  0.6334  0.6915  0.1380
  620MOL0     H83648   5.866   1.472   4.646  1.0603 -0.9860 -0.0227
  620MOL0     H83649   5.925   1.358   4.386 -0.3012  0.8665 -0.6075
  620MOL0     H83650   5.985   1.514   4.432  2.3463 -1.0352 -2.1201
  620MOL0     H83651   6.202   1.538   4.555 -3.5676  0.1736 -2.0480
  620MOL0     H83652   6.389   1.497   4.727  0.0034  0.2222 -0.1889
  620MOL0     H83653   6.385   1.340   4.812  0.7560 -4.8864 -2.4539
  620MOL0     H83654   6.514   1.230   4.640 -2.8801  0.6841 -0.7163
  620MOL0     H83655   6.526   1.369   4.545  0.2841  0.6741  0.3936
  620MOL0     H83656   6.611   1.363   4.851  2.5709  3.9916  1.2525
  620MOL0     H83657   6.657   1.485   4.736  4.7681 -1.0161 -1.0725
  620MOL0     H83658   6.738   1.208   4.720  0.6800 -0.3295  2.8051
  620MOL0     H83659   6.833   1.335   4.795 -1.4642 -2.1712  2.1227
  620MOL0     H83660   6.912   1.475   4.368  0.6530  0.6420 -0.9233
  620MOL0     H83661   7.134   1.454   4.295  1.7136 -1.5912 -0.8436
  620MOL0     H83662   7.575   1.059   4.497  1.7107 -0.6772  0.4291
  620MOL0     H83663   7.813   1.029   4.451 -4.4523 -2.0194  2.5221
  620MOL0     H83664   8.066   1.358   4.250 -1.9645  0.4313 -0.2240
  620MOL0     H83665   8.050   1.422   4.407 -2.5299 -0.1524 -1.2343
  620MOL0     H83666   8.266   1.378   4.385 -0.2550  0.3834 -0.9065
  620MOL0     H83667   8.212   1.270   4.510 -0.4210 -0.7834 -0.0709
  620MOL0     H83668   8.310   1.098   4.400  0.9686  1.7758 -0.2504
  620MOL0     H83669   8.178   1.106   4.280 -1.8783  2.7417 -0.0304
  620MOL0     H83670   8.448   1.256   4.253  0.1985  1.6668 -2.1890
  620MOL0     H83671   8.323   1.256   4.127  0.3369  0.7504  0.6341
  620MOL0     H83672   8.350   1.023   4.081 -0.0793  2.0914  0.0329
  620MOL0     H83673   8.448   0.986   4.219  6.1568  1.7346  0.3863
  620MOL0     H83674   8.531   1.166   3.996 -1.1314 -1.3335 -0.3730
  620MOL0     H83675   8.631   1.133   4.145  0.6960 -1.7792  1.1656
  620MOL0     H83676   8.524   0.931   3.940 -0.8317 -1.2737  2.0584
  620MOL0     H83677   8.647   0.892   4.066 -0.5996  0.7347  0.4989
  620MOL0     H83678   8.768   0.918   3.862 -2.5943 -1.5090 -0.2224
  620MOL0     H83679   8.702   1.070   3.822 -2.4747 -2.5544 -1.2891
  620MOL0     H83680   7.850   1.454   4.361 -0.7256 -1.5995 -3.9021
  620MOL0     H83681   7.603   1.478   4.439  0.9755  0.9852 -1.0776
  620MOL0     H83682   7.241   1.205   4.623  0.2166 -0.6727  0.4337
  620MOL0     H83683   7.019   1.244   4.729 -2.4739 -0.7791 -1.2173
  620MOL0     H83684   5.075   1.790   4.892  0.0700 -0.4638  2.9930
  620MOL0     H83685   4.861   1.907   4.946  0.1385 -0.4221  0.0086
  620MOL0     H83686   4.520   2.015   4.899  1.1743  0.9539  0.4836
  620MOL0     H83687   4.357   2.192   4.921  1.3057  0.0063 -0.2480
  620MOL0     H83688   4.399   2.435   5.046 -1.9160  1.9524 -0.3539
  620MOL0     H83689   4.397   2.457   5.217  1.6416  1.2751 -1.1536
  620MOL0     H83690   4.157   2.493   5.047  1.3672 -0.9767 -1.0425
  620MOL0     H83691   4.282   2.619   5.045 -0.6266  1.2987  1.1227
  620MOL0     H83692   4.256   2.625   5.307 -0.7663 -2.6476  2.6610
  620MOL0     H83693   4.114   2.526   5.287 -1.1084  0.5811  0.2670
  620MOL0     H83694   4.065   2.772   5.321 -0.5263 -0.9761 -0.0632
  620MOL0     H83695   4.150   2.795   5.161  1.6649 -1.2754  0.3994
  620MOL0     H83696   3.757   2.649   5.079  1.0481  2.2196 -1.9153
  620MOL0     H83697   4.378   2.172   5.349 -1.3665 -1.7297  1.3409
  620MOL0     H83698   4.444   1.990   5.457  2.2358  4.2557  1.1540
  620MOL0     H83699   4.500   1.848   5.375  1.6393  0.5199  1.5265
  620MOL0     H83700   4.614   1.980   5.412  0.3467  0.1585 -1.8366
  621MOL0     O83701   4.631   0.590   8.673  0.2307  0.0342  0.3852
  621MOL0     C83702   4.628   0.672   8.762 -0.4588 -0.3584 -0.6000
  621MOL0     O83703   4.736   0.741   8.805 -0.8628  0.2510 -0.2032
  621MOL0     C83704   4.854   0.732   8.730 -0.1417 -0.3912  0.1200
  621MOL0     C83705   4.864   0.712   8.585 -0.1606  0.2690  0.3826
  621MOL0     C83706   4.987   0.714   8.524 -0.1231 -0.1469 -0.1991
  621MOL0     C83707   5.107   0.731   8.600 -0.0657 -1.0530  0.0790
  621MOL0     O83708   5.231   0.740   8.548  0.3035  0.6397  0.2147
  621MOL0     C83709   5.248   0.692   8.408  0.6373 -0.9742  0.3861
  621MOL0     C83710   5.383   0.629   8.387  0.8866 -0.5367 -0.3861
  621MOL0     C83711   5.488   0.740   8.370 -0.1670 -0.3452  0.3559
  621MOL0     C83712   5.633   0.694   8.419  0.3626  0.1700 -0.1686
  621MOL0     C83713   5.732   0.785   8.346  0.1019  0.1402  0.3628
  621MOL0     C83714   5.871   0.759   8.400 -0.2166 -0.5685 -0.4218
  621MOL0     C83715   5.968   0.879   8.361 -0.7303 -0.5321 -0.7053
  621MOL0     C83716   6.116   0.850   8.421  0.1038  0.4099  0.7895
  621MOL0     N83717   6.205   0.968   8.402  0.1448  0.5013  0.2973
  621MOL0     C83718   6.301   1.010   8.498 -0.5490 -0.1117 -0.0757
  621MOL0     C83719   6.346   1.136   8.455  0.8927  0.5862  0.3574
  621MOL0     C83720   6.435   1.229   8.517 -0.6907 -0.3574  0.7133
  621MOL0     C83721   6.528   1.176   8.618 -0.1824  1.0228  0.4513
  621MOL0     C83722   6.652   1.263   8.633 -1.0794  0.4856 -0.1108
  621MOL0     C83723   6.745   1.201   8.742 -0.8228  0.0904  0.0324
  621MOL0     O83724   6.826   1.314   8.774 -0.0375  0.0891  0.2215
  621MOL0     C83725   6.941   1.310   8.842 -0.9758  0.7008 -0.1371
  621MOL0     C83726   6.982   1.191   8.902 -0.4935  0.4823 -0.4966
  621MOL0     C83727   7.108   1.189   8.967 -0.2429 -0.0384  0.4610
  621MOL0     C83728   7.203   1.286   8.933  0.3604  0.5312  0.3106
  621MOL0     C83729   7.347   1.267   8.974  0.4888 -0.9142  0.3732
  621MOL0     O83730   7.386   1.364   9.055  0.0887 -0.3528  0.4544
  621MOL0     C83731   7.511   1.354   9.105 -0.1187  0.4514 -0.0799
  621MOL0     C83732   7.507   1.359   9.247 -0.2678 -0.4648  0.2198
  621MOL0     C83733   7.634   1.351   9.314  0.4564 -0.2159  0.0923
  621MOL0     C83734   7.750   1.328   9.246  0.4550 -0.1783  0.8948
  621MOL0     O83735   7.881   1.328   9.299  0.3401 -0.1394  0.4530
  621MOL0     C83736   7.899   1.409   9.412  0.2249 -0.5510 -0.4834
  621MOL0     C83737   8.050   1.406   9.447 -0.0021 -0.5523  0.3898
  621MOL0     C83738   8.105   1.558   9.455  0.4932 -0.4717 -0.9755
  621MOL0     C83739   8.247   1.553   9.498 -0.6140  0.1242 -0.7869
  621MOL0     C83740   8.303   1.695   9.509  0.0950 -0.4771  0.4249
  621MOL0     C83741   8.452   1.697   9.533 -0.1429  0.4934  0.9412
  621MOL0     C83742   8.509   1.827   9.573  0.1306  0.2492 -0.0092
  621MOL0     C83743   8.657   1.848   9.552 -0.0833  0.1249 -0.1362
  621MOL0    Cl83744   8.695   2.019   9.589  0.1997 -0.0623  0.0890
  621MOL0     C83745   7.746   1.312   9.106 -0.2574  0.9079 -0.8809
  621MOL0     C83746   7.632   1.331   9.037 -0.1345 -0.0445  0.1618
  621MOL0     O83747   7.398   1.158   8.967  0.2566 -0.1154 -0.1323
  621MOL0     C83748   7.163   1.404   8.865  0.3337 -0.1475 -0.5876
  621MOL0     C83749   7.029   1.412   8.821 -1.2855 -0.8933  0.1620
  621MOL0     N83750   6.291   1.160   8.333  0.2441  0.7201 -0.0757
  621MOL0     N83751   6.211   1.061   8.300  0.4713 -0.2128  0.7633
  621MOL0     C83752   5.101   0.736   8.739 -1.2295  0.1898  0.0458
  621MOL0     C83753   4.975   0.732   8.804  0.0820  0.6169  0.9683
  621MOL0     C83754   4.504   0.697   8.843  0.2565 -1.0453 -0.6854
  621MOL0     C83755   4.515   0.713   8.981 -0.1733 -0.3487  0.4865
  621MOL0     C83756   4.404   0.733   9.061 -0.5272  0.2830  0.1651
  621MOL0     C83757   4.272   0.720   9.013  0.3769 -0.2387 -0.5346
  621MOL0     O83758   4.170   0.743   9.102  0.0464  0.4400 -0.2158
  621MOL0     C83759   4.032   0.749   9.057 -0.2585  0.1279  0.0229
  621MOL0     C83760   3.929   0.770   9.164 -0.5657  0.4500  0.2501
  621MOL0     C83761   3.924   0.921   9.204  0.1096  0.3045 -0.0930
  621MOL0     C83762   3.855   0.935   9.333 -0.3821 -0.0266  0.5954
  621MOL0     C83763   3.815   1.079   9.342  0.7356 -0.2353  0.7213
  621MOL0     C83764   3.787   1.193   9.378  0.4846 -0.4933  1.0277
  621MOL0     C83765   4.255   0.724   8.872 -0.1728 -0.3231  0.0371
  621MOL0     C83766   4.372   0.716   8.793  0.2865  0.9004  0.3042
  621MOL0     C83767   4.353   0.702   8.644  0.0898 -0.9214  0.9930
  621MOL0     H83768   4.781   0.702   8.516  0.6690 -2.5112 -0.3709
  621MOL0     H83769   4.983   0.704   8.416 -1.0131  0.2129 -0.2115
  621MOL0     H83770   5.178   0.611   8.389 -1.6612  0.8564  0.6840
  621MOL0     H83771   5.241   0.770   8.332  2.3350 -2.8361 -1.8608
  621MOL0     H83772   5.387   0.564   8.299 -0.8985 -1.6986  0.3352
  621MOL0     H83773   5.401   0.583   8.484  0.3469  2.7307  1.4231
  621MOL0     H83774   5.462   0.834   8.419  4.0294  1.8202 -0.9936
  621MOL0     H83775   5.482   0.768   8.264  0.9640 -1.4865 -0.0358
  621MOL0     H83776   5.649   0.723   8.523 -0.6231 -0.2324  0.1007
  621MOL0     H83777   5.651   0.587   8.409  4.1033  0.6920 -0.6360
  621MOL0     H83778   5.741   0.763   8.239 -0.8374  1.5065 -0.0253
  621MOL0     H83779   5.701   0.887   8.370  0.1128  0.0302  0.8640
  621MOL0     H83780   5.870   0.744   8.508 -0.8053  1.5109 -0.1024
  621MOL0     H83781   5.914   0.663   8.369 -1.6867 -1.0065 -1.2059
  621MOL0     H83782   5.937   0.974   8.405  1.8165  1.0377 -2.0967
  621MOL0     H83783   5.972   0.896   8.254 -0.1193 -0.8739 -0.7387
  621MOL0     H83784   6.116   0.832   8.529  2.1116 -0.7111  0.6518
  621MOL0     H83785   6.161   0.764   8.372 -1.1590  0.5020 -0.5976
  621MOL0     H83786   6.332   0.973   8.595 -0.1582  3.1618  1.1916
  621MOL0     H83787   6.500   1.266   8.438 -1.3315  4.0211  1.9754
  621MOL0     H83788   6.385   1.314   8.563  1.5613  0.2450  2.2071
  621MOL0     H83789   6.476   1.162   8.714 -0.7074  0.3372  0.0720
  621MOL0     H83790   6.559   1.075   8.592 -0.1979  1.0650  0.2677
  621MOL0     H83791   6.622   1.358   8.680 -0.2609 -0.7198  3.0876
  621MOL0     H83792   6.701   1.273   8.536 -2.1097  0.2644 -0.6667
  621MOL0     H83793   6.796   1.118   8.693  1.3927  0.9052  0.8645
  621MOL0     H83794   6.701   1.166   8.836 -0.8983  4.1360  1.6866
  621MOL0     H83795   6.909   1.111   8.900 -0.6276  0.6099 -0.7801
  621MOL0     H83796   7.146   1.101   9.018  1.7162  0.2126 -0.4723
  621MOL0     H83797   7.415   1.377   9.302 -1.1629 -0.1374 -1.3291
  621MOL0     H83798   7.640   1.368   9.422  0.7697 -1.6460  0.3234
  621MOL0     H83799   7.864   1.512   9.401 -4.6087 -1.8211  0.6936
  621MOL0     H83800   7.845   1.360   9.493 -1.4085  0.1499 -1.1122
  621MOL0     H83801   8.066   1.366   9.548 -1.4070  2.3739  1.9169
  621MOL0     H83802   8.112   1.368   9.366 -1.5751  1.8985 -2.1404
  621MOL0     H83803   8.088   1.606   9.358 -0.6337  3.6639  1.0471
  621MOL0     H83804   8.042   1.609   9.529 -0.5373 -0.5634 -1.7640
  621MOL0     H83805   8.310   1.505   9.423 -0.4303 -0.0237 -0.5361
  621MOL0     H83806   8.258   1.505   9.595  2.0560  0.3126 -0.9295
  621MOL0     H83807   8.247   1.758   9.579  0.6048  2.3302 -1.5153
  621MOL0     H83808   8.286   1.740   9.410  0.2039 -0.2616  0.5028
  621MOL0     H83809   8.466   1.628   9.616 -0.7622 -2.8976 -1.5545
  621MOL0     H83810   8.507   1.672   9.441  0.7321  0.4146  1.4720
  621MOL0     H83811   8.491   1.832   9.680  3.2282  2.8182  0.5250
  621MOL0     H83812   8.457   1.910   9.524 -0.1570  1.5318  2.3206
  621MOL0     H83813   8.695   1.788   9.636 -1.2994  1.8039  1.7220
  621MOL0     H83814   8.694   1.832   9.451  0.3026 -0.0613  0.0286
  621MOL0     H83815   7.833   1.285   9.047 -1.0874 -1.8684 -0.9829
  621MOL0     H83816   7.633   1.318   8.929  1.1048 -1.9673  0.3511
  621MOL0     H83817   7.238   1.479   8.844  0.3900  0.3053  1.0833
  621MOL0     H83818   6.993   1.502   8.772  0.8807 -0.3480 -0.5743
  621MOL0     H83819   5.195   0.749   8.792 -1.0805 -2.1790  0.4720
  621MOL0     H83820   4.965   0.728   8.912 -1.2991 -1.3920  0.8170
  621MOL0     H83821   4.614   0.711   9.025  0.7541 -0.6387 -1.5239
  621MOL0     H83822   4.424   0.761   9.164 -1.1961  3.9473 -0.5558
  621MOL0     H83823   4.013   0.659   8.998  1.0757  1.3943 -2.4613
  621MOL0     H83824   4.023   0.824   8.978  2.1472 -0.1933 -0.6297
  621MOL0     H83825   3.944   0.703   9.249 -1.3357 -1.1852 -0.8488
  621MOL0     H83826   3.838   0.738   9.112  0.6102 -2.0112 -0.4468
  621MOL0     H83827   3.877   0.975   9.121  0.9002  1.1469 -0.0201
  621MOL0     H83828   4.025   0.963   9.200  1.2816 -2.4102 -1.7889
  621MOL0     H83829   3.767   0.873   9.317  0.3686 -0.8915 -0.2477
  621MOL0     H83830   3.903   0.916   9.430 -2.7406  2.7953  2.4993
  621MOL0     H83831   3.782   1.299   9.394  0.7324 -0.3269  0.0539
  621MOL0     H83832   4.153   0.739   8.838  0.6677  0.6011 -2.2643
  621MOL0     H83833   4.256   0.732   8.604  1.3194  1.4483 -0.4324
  621MOL0     H83834   4.416   0.775   8.592 -1.4200 -0.8638 -0.8460
  621MOL0     H83835   4.393   0.605   8.612 -1.4879 -1.3756  0.3189
  622MOL0     O83836   5.386   9.262   5.740 -0.1103  0.2285  0.8572
  622MOL0     C83837   5.381   9.384   5.749  0.5169 -0.5945 -0.0148
  622MOL0     O83838   5.494   9.471   5.745 -0.6357  0.7008 -0.4995
  622MOL0     C83839   5.618   9.402   5.730  0.6284 -0.5379  0.7990
  622MOL0     C83840   5.651   9.351   5.605 -0.3755 -0.2414 -1.5410
  622MOL0     C83841   5.771   9.293   5.576 -0.5090 -1.7132 -0.4867
  622MOL0     C83842   5.871   9.283   5.677 -0.0778 -0.7517  0.0791
  622MOL0     O83843   5.990   9.218   5.660 -0.1804  0.2999  0.0336
  622MOL0     C83844   6.019   9.148   5.537 -0.3140 -0.7023 -0.0928
  622MOL0     C83845   6.152   9.065   5.528 -1.0088 -0.5434 -0.4750
  622MOL0     C83846   6.266   9.153   5.479 -0.6916 -0.2407 -0.6957
  622MOL0     C83847   6.378   9.164   5.587  0.0856  0.1382  0.1630
  622MOL0     C83848   6.502   9.207   5.524 -0.7770 -0.0620  0.0451
  622MOL0     C83849   6.587   9.290   5.611  0.1977 -0.1186  0.2590
  622MOL0     C83850   6.646   9.219   5.736  0.0548 -0.8448  0.3501
  622MOL0     C83851   6.729   9.330   5.808  0.3027 -0.6695 -0.3679
  622MOL0     N83852   6.828   9.400   5.723  1.1291 -0.2093 -0.7743
  622MOL0     C83853   6.827   9.531   5.686 -0.6279 -0.2224 -0.0713
  622MOL0     C83854   6.920   9.542   5.589  0.3387 -0.4180 -0.1905
  622MOL0     C83855   6.968   9.675   5.529 -0.6582 -0.0234  0.5336
  622MOL0     C83856   7.079   9.747   5.603 -0.3746  0.5860 -0.5105
  622MOL0     C83857   7.101   9.896   5.570  0.3437  0.0589  0.2854
  622MOL0     C83858   7.166   9.920   5.432 -0.7779  0.2054 -0.2644
  622MOL0     O83859   7.301   9.870   5.449  0.8437 -0.6674  0.1036
  622MOL0     C83860   7.399   9.956   5.403 -0.3957  0.1796  0.5836
  622MOL0     C83861   7.389  10.027   5.279 -0.0390 -0.5705  0.4449
  622MOL0     C83862   7.501  10.102   5.233 -0.2589  0.0961 -0.0914
  622MOL0     C83863   7.616  10.110   5.317 -0.4913  0.6952 -0.2466
  622MOL0     C83864   7.735  10.190   5.276  0.9417  0.3730  0.3718
  622MOL0     O83865   7.808  10.246   5.384 -0.0957  0.0138 -0.8010
  622MOL0     C83866   7.921  10.323   5.375  0.3981 -0.0230 -0.7359
  622MOL0     C83867   7.959  10.403   5.264  0.4453  1.0818  0.2686
  622MOL0     C83868   8.070  10.480   5.270  0.5058  0.1182 -0.2509
  622MOL0     C83869   8.155  10.482   5.379 -0.5324 -0.3182 -0.8253
  622MOL0     O83870   8.267  10.564   5.393  0.1382 -0.0859  0.0581
  622MOL0     C83871   8.352  10.574   5.276  0.3658  0.5075 -0.0597
  622MOL0     C83872   8.480  10.655   5.302  1.1760  0.7395  0.0033
  622MOL0     C83873   8.582  10.578   5.392 -0.2320  0.5726 -1.1802
  622MOL0     C83874   8.695  10.675   5.419 -0.2963  0.1991 -1.0129
  622MOL0     C83875   8.806  10.591   5.486  0.1723  0.0157 -0.8439
  622MOL0     C83876   8.918  10.680   5.544  0.0095  0.0944 -0.0868
  622MOL0     C83877   8.989  10.763   5.444 -0.9221 -0.4426  0.0507
  622MOL0     C83878   9.117  10.814   5.514 -0.0663  0.1380  0.2758
  622MOL0    Cl83879   9.252  10.696   5.508  0.5796  0.2492  0.4362
  622MOL0     C83880   8.119  10.405   5.485  0.0290 -0.3357 -0.8794
  622MOL0     C83881   8.010  10.318   5.489  0.1350  0.0044  0.1967
  622MOL0     O83882   7.767  10.201   5.158 -0.0797  0.3017  0.3140
  622MOL0     C83883   7.619  10.036   5.437 -1.3298 -0.1786  0.6176
  622MOL0     C83884   7.513   9.968   5.482  0.3689 -0.0498  0.8760
  622MOL0     N83885   6.974   9.419   5.573 -0.9998 -0.0368  0.7152
  622MOL0     N83886   6.925   9.332   5.658 -0.5612 -0.2799  0.2854
  622MOL0     C83887   5.840   9.337   5.801 -0.2867 -0.3732 -0.2717
  622MOL0     C83888   5.715   9.392   5.830  0.6875 -0.7657  0.0150
  622MOL0     C83889   5.249   9.454   5.775 -0.0429 -0.8634 -0.0230
  622MOL0     C83890   5.142   9.363   5.819  0.3343 -0.4394  0.0024
  622MOL0     C83891   5.018   9.417   5.859 -0.7850 -0.6939  0.0222
  622MOL0     C83892   5.004   9.561   5.849  0.4358  0.1183  0.8112
  622MOL0     O83893   4.889   9.628   5.885  0.5410 -0.4860  0.1251
  622MOL0     C83894   4.802   9.565   5.987 -0.2699  0.9002  0.8803
  622MOL0     C83895   4.665   9.641   6.001  0.1549 -0.0611  0.0066
  622MOL0     C83896   4.586   9.636   5.864  0.3437 -0.3615 -0.2276
  622MOL0     C83897   4.438   9.678   5.872  1.1712 -0.1566 -0.0719
  622MOL0     C83898   4.423   9.814   5.937  0.4043  0.4364  0.2966
  622MOL0     C83899   4.404   9.921   5.988  0.1640  0.4056  0.2775
  622MOL0     C83900   5.108   9.648   5.798 -0.4225  0.1628 -0.1157
  622MOL0     C83901   5.223   9.589   5.748  0.1498 -0.0583  0.2899
  622MOL0     C83902   5.319   9.672   5.672  0.7642 -0.3073  0.9219
  622MOL0     H83903   5.581   9.360   5.522  0.8421  1.7260 -2.4104
  622MOL0     H83904   5.790   9.258   5.475  0.0939 -5.1128  0.6993
  622MOL0     H83905   5.947   9.071   5.508  1.1995 -2.5392  0.7929
  622MOL0     H83906   6.028   9.225   5.460  2.7029  0.1125  0.9187
  622MOL0     H83907   6.127   8.988   5.454 -0.9606  0.5205 -1.6359
  622MOL0     H83908   6.180   9.014   5.620 -0.0610  0.7370 -0.0348
  622MOL0     H83909   6.229   9.252   5.452 -2.0663 -0.5835 -0.1659
  622MOL0     H83910   6.309   9.115   5.386  0.9318  3.6833 -1.7681
  622MOL0     H83911   6.350   9.244   5.657  0.3415  0.1659  0.2346
  622MOL0     H83912   6.390   9.069   5.640  0.0020 -0.8777 -1.5651
  622MOL0     H83913   6.557   9.119   5.488 -0.4447  0.2087 -0.1035
  622MOL0     H83914   6.469   9.263   5.436 -5.3238 -1.6687  0.4366
  622MOL0     H83915   6.666   9.333   5.549 -0.8846  1.9657  0.2499
  622MOL0     H83916   6.529   9.376   5.647  0.2158  0.6464 -1.4551
  622MOL0     H83917   6.708   9.133   5.708  1.1349 -0.5333  1.6846
  622MOL0     H83918   6.573   9.180   5.807 -0.6755  0.6767  0.4675
  622MOL0     H83919   6.659   9.406   5.844  3.2597  1.7503  0.7491
  622MOL0     H83920   6.774   9.291   5.900  0.6580  0.7365  0.0721
  622MOL0     H83921   6.762   9.610   5.725  0.3733 -0.2077  1.6954
  622MOL0     H83922   7.012   9.650   5.433  2.0894  1.2572  1.3481
  622MOL0     H83923   6.885   9.746   5.520  1.0375  1.9661 -0.3639
  622MOL0     H83924   7.071   9.737   5.712  1.8534 -0.3305 -0.3941
  622MOL0     H83925   7.173   9.699   5.575 -1.0775 -0.9271 -0.4125
  622MOL0     H83926   7.164   9.936   5.650  1.7704 -1.1853 -0.1653
  622MOL0     H83927   7.002   9.939   5.583  0.4707 -0.2715  2.8692
  622MOL0     H83928   7.173  10.029   5.428  1.5361  0.0932 -0.7307
  622MOL0     H83929   7.113   9.879   5.346 -2.0066  0.4365  0.3602
  622MOL0     H83930   7.298  10.028   5.221  0.7208 -0.4499 -0.7832
  622MOL0     H83931   7.501  10.163   5.143  0.6549 -2.1201 -1.6929
  622MOL0     H83932   7.905  10.397   5.170  1.7706 -1.4513 -0.4232
  622MOL0     H83933   8.090  10.543   5.185 -1.9999  1.7505  0.2563
  622MOL0     H83934   8.384  10.476   5.239  2.1541  2.0416 -2.8892
  622MOL0     H83935   8.302  10.635   5.201  1.1264  0.8579 -0.2852
  622MOL0     H83936   8.515  10.676   5.201  1.9316 -1.4171 -0.2489
  622MOL0     H83937   8.453  10.750   5.348  2.1267  0.6270  0.8443
  622MOL0     H83938   8.535  10.542   5.485  1.0386  1.2423 -0.2584
  622MOL0     H83939   8.621  10.489   5.341 -4.0588 -2.5546  0.7489
  622MOL0     H83940   8.663  10.769   5.467 -1.4965 -0.9166  0.4851
  622MOL0     H83941   8.742  10.719   5.331  0.1332  1.1425 -0.3347
  622MOL0     H83942   8.850  10.524   5.412  2.1979  1.3886 -0.9774
  622MOL0     H83943   8.770  10.535   5.572 -0.2863  0.6877 -0.5899
  622MOL0     H83944   8.888  10.725   5.639  0.8069 -0.1491  0.2876
  622MOL0     H83945   8.989  10.601   5.567  2.2877  0.9266 -3.4790
  622MOL0     H83946   8.927  10.852   5.424  1.5876  1.1381 -1.2118
  622MOL0     H83947   9.011  10.707   5.353 -0.9977 -0.4259  0.0224
  622MOL0     H83948   9.150  10.906   5.464  0.3635  0.8589  1.8218
  622MOL0     H83949   9.107  10.843   5.619  2.7043 -0.1268  0.6867
  622MOL0     H83950   8.193  10.400   5.565  1.8296  0.1951 -2.4285
  622MOL0     H83951   7.993  10.263   5.581  1.8826 -1.3218 -0.2261
  622MOL0     H83952   7.708  10.040   5.499  0.9616 -0.6767 -2.3957
  622MOL0     H83953   7.511   9.917   5.578  1.1477 -0.3549  0.7363
  622MOL0     H83954   5.924   9.344   5.869  0.6169  0.3730 -1.4306
  622MOL0     H83955   5.688   9.432   5.927  0.0524  1.7733 -1.1204
  622MOL0     H83956   5.157   9.257   5.806 -0.3719 -0.5235 -0.1709
  622MOL0     H83957   4.939   9.351   5.895 -1.4456  0.2901  0.4163
  622MOL0     H83958   4.851   9.567   6.085  0.8907  1.0491  0.3275
  622MOL0     H83959   4.782   9.461   5.961  1.8354  0.8838 -0.9648
  622MOL0     H83960   4.683   9.746   6.027  0.4342  0.6892 -2.8664
  622MOL0     H83961   4.608   9.586   6.076 -2.0357  1.3703 -0.5158
  622MOL0     H83962   4.592   9.531   5.837 -1.0215 -0.7638  0.9293
  622MOL0     H83963   4.630   9.696   5.783 -2.1354  0.0868 -1.3469
  622MOL0     H83964   4.396   9.689   5.772 -0.1602 -0.1418  0.4648
  622MOL0     H83965   4.384   9.601   5.929  2.6194  0.4714  2.3096
  622MOL0     H83966   4.379  10.020   6.020 -1.6847  0.1777 -0.3510
  622MOL0     H83967   5.090   9.754   5.790  0.6280  0.2468 -2.0541
  622MOL0     H83968   5.361   9.617   5.587  0.4180  0.4778  0.2447
  622MOL0     H83969   5.279   9.763   5.627  1.4808 -0.2825  0.3134
  622MOL0     H83970   5.397   9.700   5.744  1.4042 -1.4557  0.7116
  623MOL0     O83971   7.485   1.721   8.544 -0.2248  0.1248 -0.0482
  623MOL0     C83972   7.512   1.758   8.662  0.5983  0.7834 -0.1620
  623MOL0     O83973   7.635   1.798   8.702 -0.0260 -0.3451  0.5873
  623MOL0     C83974   7.717   1.828   8.591  0.3123 -0.0279 -0.2142
  623MOL0     C83975   7.694   1.944   8.516  0.1588  0.6539 -0.7003
  623MOL0     C83976   7.790   1.969   8.412  0.0366  0.2346 -0.3585
  623MOL0     C83977   7.906   1.881   8.400  1.0474 -0.2403 -0.0548
  623MOL0     O83978   7.997   1.896   8.294  0.9424 -0.1783 -0.3682
  623MOL0     C83979   7.948   1.844   8.168 -0.8762  0.6056 -0.9385
  623MOL0     C83980   8.006   1.936   8.058 -0.1899 -0.1734 -0.2397
  623MOL0     C83981   8.002   1.876   7.919  0.7092  0.7603  0.1700
  623MOL0     C83982   8.072   1.947   7.810 -0.2314  0.5596 -0.7386
  623MOL0     C83983   7.992   2.042   7.730 -0.3839 -0.0803  0.1244
  623MOL0     C83984   8.081   2.137   7.645  0.4049 -0.1560 -1.0119
  623MOL0     C83985   8.126   2.072   7.522 -0.8437  0.0604  0.8642
  623MOL0     C83986   8.264   2.013   7.527  0.0599  0.3373 -0.2587
  623MOL0     N83987   8.313   1.988   7.394 -0.0388 -0.4020  0.0939
  623MOL0     C83988   8.332   2.083   7.298  1.4261  1.1108  1.3953
  623MOL0     C83989   8.378   2.022   7.185 -0.2403  0.1340  0.2786
  623MOL0     C83990   8.427   2.084   7.056  0.1684  0.2104  0.2686
  623MOL0     C83991   8.529   2.194   7.075 -0.1026 -0.4918 -0.0098
  623MOL0     C83992   8.671   2.146   7.090  0.5545  0.1790  0.2081
  623MOL0     C83993   8.776   2.253   7.080  0.1172  0.0989  1.2619
  623MOL0     O83994   8.729   2.371   7.149  0.1332 -0.3544  0.2496
  623MOL0     C83995   8.825   2.473   7.168 -0.3403 -0.5805  0.5672
  623MOL0     C83996   8.778   2.574   7.256 -0.6539  0.2765  0.0941
  623MOL0     C83997   8.861   2.679   7.280  0.5290 -0.3391 -0.9643
  623MOL0     C83998   8.991   2.692   7.225 -0.3035  0.5002  0.0956
  623MOL0     C83999   9.067   2.803   7.269 -0.7716 -0.1644  0.3298
  623MOL0     O84000   9.023   2.887   7.373  0.7995 -0.8086  0.6160
  623MOL0     C84001   9.105   2.993   7.401 -0.9127  0.1237 -0.0773
  623MOL0     C84002   9.128   3.097   7.313  0.7045  0.3787 -0.5843
  623MOL0     C84003   9.184   3.220   7.368  0.2488  0.0450  0.4289
  623MOL0     C84004   9.244   3.224   7.490 -0.1411  0.2052  0.3684
  623MOL0     O84005   9.305   3.340   7.526  0.4347 -0.1687  0.0298
  623MOL0     C84006   9.393   3.344   7.645  0.0464 -0.7272  0.8508
  623MOL0     C84007   9.478   3.470   7.627  0.0961  0.0899  0.7910
  623MOL0     C84008   9.417   3.615   7.642  0.2469  0.7835 -0.0667
  623MOL0     C84009   9.328   3.633   7.760 -1.2322  0.5961  0.0375
  623MOL0     C84010   9.273   3.778   7.777 -0.2637  0.0014 -0.0526
  623MOL0     C84011   9.201   3.785   7.910 -0.4728  0.1812 -0.6511
  623MOL0     C84012   9.143   3.924   7.941  0.3006 -0.4429  0.2100
  623MOL0     C84013   9.244   4.040   7.923 -0.3617 -0.4046 -0.5299
  623MOL0    Cl84014   9.194   4.180   8.019  0.2486  0.4114  0.1985
  623MOL0     C84015   9.235   3.110   7.571  0.6639  0.1635 -0.4545
  623MOL0     C84016   9.156   2.998   7.534  0.2556 -0.3913 -0.4725
  623MOL0     O84017   9.181   2.814   7.220 -0.6286 -0.0927 -0.1469
  623MOL0     C84018   9.032   2.594   7.128 -0.1124  0.3420 -0.3765
  623MOL0     C84019   8.950   2.485   7.095 -0.1969  0.6004  0.4678
  623MOL0     N84020   8.377   1.884   7.208  0.0169  0.5364 -0.0001
  623MOL0     N84021   8.338   1.869   7.332  0.0678  0.2903  0.0431
  623MOL0     C84022   7.930   1.780   8.489  0.0636 -0.1629  0.2061
  623MOL0     C84023   7.832   1.750   8.582 -0.3327 -0.2530 -0.4536
  623MOL0     C84024   7.403   1.756   8.770 -0.8447  0.9495 -0.2353
  623MOL0     C84025   7.450   1.772   8.898 -1.3017 -0.1128  0.5681
  623MOL0     C84026   7.358   1.763   8.997 -0.0957 -0.8490  0.2292
  623MOL0     C84027   7.219   1.738   8.986 -0.1563 -0.1803 -0.2454
  623MOL0     O84028   7.134   1.741   9.093 -0.3297 -0.5014  0.1213
  623MOL0     C84029   7.141   1.642   9.197  0.0495  0.4859  0.0700
  623MOL0     C84030   7.221   1.697   9.325  0.4766 -1.0694 -0.2423
  623MOL0     C84031   7.214   1.611   9.452 -0.2337  0.3655  0.5920
  623MOL0     C84032   7.276   1.696   9.572 -0.7802  0.4993 -0.3677
  623MOL0     C84033   7.420   1.675   9.554  0.5724  0.0467 -0.0948
  623MOL0     C84034   7.537   1.658   9.544  0.5261 -0.5242  0.9890
  623MOL0     C84035   7.171   1.725   8.857 -0.4026  0.0424  0.3325
  623MOL0     C84036   7.264   1.740   8.746 -0.0332 -0.3488  0.4353
  623MOL0     C84037   7.197   1.711   8.618 -0.6486 -0.6664 -0.6872
  623MOL0     H84038   7.600   1.992   8.541  0.7340  1.8347 -0.7445
  623MOL0     H84039   7.782   2.043   8.333 -2.1065 -1.1309 -1.4963
  623MOL0     H84040   7.977   1.741   8.144 -1.8648  0.1896 -0.4191
  623MOL0     H84041   7.839   1.842   8.171 -1.0482  4.2044  0.4669
  623MOL0     H84042   8.109   1.963   8.082  0.3660 -1.1289 -1.4112
  623MOL0     H84043   7.946   2.027   8.057 -0.2818 -0.1067  2.4724
  623MOL0     H84044   7.896   1.860   7.896  0.6471 -0.2454  1.0576
  623MOL0     H84045   8.041   1.774   7.920  1.4114  1.0274  0.1651
  623MOL0     H84046   8.157   2.004   7.849 -1.7445  4.5416 -2.6932
  623MOL0     H84047   8.112   1.866   7.749 -0.5324 -0.4167  0.3290
  623MOL0     H84048   7.921   1.996   7.661 -0.0729 -1.0036  0.4124
  623MOL0     H84049   7.938   2.100   7.805 -1.3055 -0.6076 -0.1192
  623MOL0     H84050   8.017   2.221   7.619  0.0574 -0.5879 -1.5513
  623MOL0     H84051   8.168   2.171   7.703  0.3905 -0.0306 -1.0616
  623MOL0     H84052   8.131   2.146   7.441  1.3633 -1.1588 -0.2202
  623MOL0     H84053   8.052   1.996   7.497 -0.4727  0.0941 -0.4158
  623MOL0     H84054   8.323   2.067   7.602 -1.6677  0.2047  1.2938
  623MOL0     H84055   8.252   1.913   7.571 -0.2381 -0.1293 -1.3704
  623MOL0     H84056   8.335   2.192   7.296  2.8153  1.1121 -1.5855
  623MOL0     H84057   8.456   2.009   6.982  0.5539 -0.5118  1.1375
  623MOL0     H84058   8.346   2.137   7.005  0.8975  1.2180  0.1335
  623MOL0     H84059   8.526   2.259   6.987  1.3945  0.6711  0.7409
  623MOL0     H84060   8.512   2.264   7.157  2.6417  1.0592 -0.6263
  623MOL0     H84061   8.686   2.072   7.011 -0.6859 -0.1122  0.2306
  623MOL0     H84062   8.673   2.094   7.186 -3.1468 -3.2267 -1.2882
  623MOL0     H84063   8.797   2.285   6.977  4.3761 -2.5647  1.0539
  623MOL0     H84064   8.863   2.218   7.136  0.2508  1.2675  1.8169
  623MOL0     H84065   8.676   2.564   7.291 -0.8414 -2.3683 -1.0110
  623MOL0     H84066   8.816   2.751   7.348  0.1653 -2.0188  0.6608
  623MOL0     H84067   9.094   3.093   7.210 -1.7822 -1.0303  0.2036
  623MOL0     H84068   9.194   3.306   7.303 -2.1026  0.2063  0.1717
  623MOL0     H84069   9.338   3.338   7.739  0.7346 -5.1182  1.2141
  623MOL0     H84070   9.460   3.257   7.648  1.1036  0.0236 -0.1734
  623MOL0     H84071   9.556   3.457   7.702  0.4168 -1.8790  0.1617
  623MOL0     H84072   9.535   3.479   7.535 -2.1977 -0.1978 -0.7399
  623MOL0     H84073   9.494   3.692   7.628 -1.3910  2.2703 -1.4340
  623MOL0     H84074   9.346   3.619   7.559 -2.4681  3.4776  2.1469
  623MOL0     H84075   9.374   3.596   7.852  0.3079 -0.0238 -0.9424
  623MOL0     H84076   9.232   3.580   7.756 -0.0158 -1.9994  2.2234
  623MOL0     H84077   9.207   3.808   7.695  1.5293  1.7075 -0.9698
  623MOL0     H84078   9.359   3.847   7.780  2.2241 -2.9193  0.4935
  623MOL0     H84079   9.119   3.714   7.924  0.5509 -1.0933 -0.9528
  623MOL0     H84080   9.278   3.783   7.988 -1.1749  2.3613  0.1798
  623MOL0     H84081   9.095   3.928   8.039  0.8591 -0.0342  0.4691
  623MOL0     H84082   9.065   3.942   7.866  0.3006  1.2125  0.5765
  623MOL0     H84083   9.344   4.011   7.956  0.1882  1.3703 -0.5549
  623MOL0     H84084   9.241   4.076   7.820  1.6909 -0.3036 -0.5863
  623MOL0     H84085   9.277   3.110   7.671  0.1299 -1.3879 -0.2005
  623MOL0     H84086   9.120   2.916   7.596 -3.4404  0.8018 -0.7765
  623MOL0     H84087   9.129   2.598   7.077 -0.5267  0.9806 -1.1335
  623MOL0     H84088   8.987   2.412   7.024  1.6926  2.2067 -0.2973
  623MOL0     H84089   8.015   1.716   8.470  1.2706  1.2332  0.7573
  623MOL0     H84090   7.856   1.669   8.651  4.5507  0.0431 -1.3802
  623MOL0     H84091   7.552   1.806   8.915 -1.1304  0.6232 -1.5978
  623MOL0     H84092   7.398   1.784   9.096  0.5748  0.8142 -0.3603
  623MOL0     H84093   7.195   1.551   9.171  1.0080  0.7247  1.1538
  623MOL0     H84094   7.040   1.611   9.226  1.0897 -0.0408  3.5957
  623MOL0     H84095   7.170   1.793   9.340  0.5658 -0.9391 -0.7334
  623MOL0     H84096   7.326   1.717   9.303 -0.4005  3.4162 -1.3880
  623MOL0     H84097   7.268   1.519   9.429 -0.1378  1.2322 -3.2069
  623MOL0     H84098   7.110   1.594   9.483  0.0207  1.4719  2.1643
  623MOL0     H84099   7.249   1.801   9.558  0.4400  0.9182  0.2790
  623MOL0     H84100   7.230   1.664   9.666 -0.7053  1.2543 -0.0733
  623MOL0     H84101   7.643   1.644   9.533  0.1166 -2.1060 -2.3104
  623MOL0     H84102   7.065   1.712   8.838 -0.3955  0.4822 -0.0145
  623MOL0     H84103   7.243   1.637   8.551  0.8871 -2.2860  1.9631
  623MOL0     H84104   7.107   1.651   8.636  0.7560 -2.2070  1.7912
  623MOL0     H84105   7.179   1.808   8.571 -2.0884 -1.2539 -1.4189
  624MOL0     O84106   3.663   2.406   0.497  0.0812 -0.3757  0.0418
  624MOL0     C84107   3.632   2.360   0.607 -0.5998 -0.1874 -0.1853
  624MOL0     O84108   3.718   2.296   0.700 -0.2215 -0.3481 -0.1836
  624MOL0     C84109   3.845   2.268   0.655 -0.1419  0.4651 -0.0784
  624MOL0     C84110   3.940   2.363   0.645 -0.8727 -0.1016  0.1356
  624MOL0     C84111   4.074   2.340   0.589 -0.3148  0.3529 -0.7522
  624MOL0     C84112   4.110   2.214   0.566 -0.0928  0.3414 -0.3035
  624MOL0     O84113   4.241   2.179   0.528  0.0664 -0.6247 -0.3713
  624MOL0     C84114   4.315   2.287   0.461 -0.3095 -0.2424 -0.0219
  624MOL0     C84115   4.438   2.241   0.389 -0.2281  0.1090 -0.4683
  624MOL0     C84116   4.543   2.187   0.495 -0.4241 -0.3055  0.3741
  624MOL0     C84117   4.633   2.079   0.419  0.2280  0.2748 -0.2684
  624MOL0     C84118   4.765   2.062   0.497  0.5375  0.2076 -0.5231
  624MOL0     C84119   4.862   1.963   0.435 -0.1387  0.2751  0.6389
  624MOL0     C84120   4.997   2.008   0.503  1.0062 -0.5881  0.6726
  624MOL0     C84121   5.119   1.935   0.448  0.4304  0.9681  0.2766
  624MOL0     N84122   5.245   1.999   0.484 -0.4870  0.3127 -0.7670
  624MOL0     C84123   5.294   2.117   0.430  0.1009  0.5592  0.0293
  624MOL0     C84124   5.393   2.154   0.508  0.3531  0.2266 -0.2171
  624MOL0     C84125   5.481   2.269   0.502 -0.3359 -0.1622  0.8132
  624MOL0     C84126   5.628   2.222   0.466 -0.3654 -0.2309  0.2051
  624MOL0     C84127   5.653   2.175   0.318 -0.3082 -0.1481  0.2062
  624MOL0     C84128   5.806   2.158   0.300  0.2912  0.0977 -0.8084
  624MOL0     O84129   5.864   2.285   0.326  0.1647  0.1389  0.7683
  624MOL0     C84130   5.997   2.288   0.358 -0.4949 -0.4566 -0.1975
  624MOL0     C84131   6.073   2.179   0.422 -0.2898  0.0499  0.5001
  624MOL0     C84132   6.201   2.195   0.481  0.3358 -0.6157  0.1111
  624MOL0     C84133   6.266   2.316   0.455 -0.0346 -0.2628  0.7210
  624MOL0     C84134   6.408   2.344   0.502  1.1798 -0.8180 -0.1626
  624MOL0     O84135   6.445   2.480   0.517 -0.1128 -0.1893  0.2158
  624MOL0     C84136   6.565   2.503   0.569  0.3066 -0.4071 -0.2666
  624MOL0     C84137   6.677   2.482   0.488 -0.8741  0.1302  0.0401
  624MOL0     C84138   6.798   2.535   0.527 -0.5727  0.5055 -1.2523
  624MOL0     C84139   6.808   2.614   0.644 -0.4220 -0.4927 -0.2835
  624MOL0     O84140   6.923   2.661   0.694  0.6648  0.1987  0.5175
  624MOL0     C84141   7.050   2.620   0.656  0.6197 -0.2526  1.0808
  624MOL0     C84142   7.142   2.639   0.772  0.4397  0.2889  0.3274
  624MOL0     C84143   7.285   2.593   0.726  0.4016  0.4839  0.1998
  624MOL0     C84144   7.377   2.601   0.846  0.0239  0.5120 -0.8327
  624MOL0     C84145   7.525   2.548   0.814  0.7906 -0.2818  0.0081
  624MOL0     C84146   7.612   2.564   0.939  1.0072  0.2282 -0.2377
  624MOL0     C84147   7.634   2.707   0.985 -0.9494  0.0130  0.5217
  624MOL0     C84148   7.749   2.726   1.071  0.7811 -0.2053 -0.5670
  624MOL0    Cl84149   7.907   2.710   0.995  0.4351 -0.1739  0.3709
  624MOL0     C84150   6.689   2.649   0.710  0.0899 -0.0974 -0.3646
  624MOL0     C84151   6.569   2.588   0.674 -0.5253  0.5095 -0.1161
  624MOL0     O84152   6.475   2.248   0.534 -0.0318 -0.3481 -0.2570
  624MOL0     C84153   6.198   2.413   0.384 -0.5988  0.2005  0.8498
  624MOL0     C84154   6.070   2.404   0.338 -0.5785  0.5062 -0.2243
  624MOL0     N84155   5.405   2.055   0.605  0.0415 -0.1271 -0.2564
  624MOL0     N84156   5.326   1.959   0.586  0.1067  0.7133  0.2284
  624MOL0     C84157   4.013   2.113   0.595 -0.2973 -0.4566  0.5538
  624MOL0     C84158   3.884   2.134   0.627 -0.6237  0.6635  0.2630
  624MOL0     C84159   3.490   2.385   0.655 -0.4189  0.5345  0.1042
  624MOL0     C84160   3.468   2.376   0.793  0.3973  0.0352  0.0016
  624MOL0     C84161   3.338   2.398   0.847  0.3603  0.0376 -0.4788
  624MOL0     C84162   3.227   2.435   0.761  0.1893  0.3669 -0.6955
  624MOL0     O84163   3.097   2.445   0.796  0.2034 -0.1448 -0.5139
  624MOL0     C84164   3.076   2.466   0.939  0.3567 -0.6646 -0.3449
  624MOL0     C84165   2.924   2.491   0.948 -0.8287 -0.6224 -0.0849
  624MOL0     C84166   2.854   2.357   0.929  0.0970  0.7229  0.0804
  624MOL0     C84167   2.702   2.385   0.921 -0.2487 -0.1220 -0.0212
  624MOL0     C84168   2.635   2.263   0.890  0.4176  0.8448  0.5772
  624MOL0     C84169   2.577   2.157   0.852 -0.0950  0.1343  0.8047
  624MOL0     C84170   3.255   2.449   0.625  1.1482  0.1078  0.1074
  624MOL0     C84171   3.381   2.429   0.575 -0.2924 -0.4515  0.7004
  624MOL0     C84172   3.390   2.438   0.420  0.0420  0.5565 -0.3712
  624MOL0     H84173   3.916   2.466   0.668 -0.9609 -0.5580  2.2296
  624MOL0     H84174   4.148   2.419   0.580  2.5834 -2.2455 -1.1759
  624MOL0     H84175   4.254   2.335   0.383  0.4981  0.7324 -0.0806
  624MOL0     H84176   4.339   2.364   0.536  0.5884 -0.5281 -0.0089
  624MOL0     H84177   4.490   2.325   0.341  2.5854 -2.5125 -2.3603
  624MOL0     H84178   4.402   2.171   0.313 -1.1849  1.2945 -1.1438
  624MOL0     H84179   4.490   2.137   0.576  0.0739  1.3975  1.8096
  624MOL0     H84180   4.604   2.269   0.534 -0.2893  0.0094 -0.4766
  624MOL0     H84181   4.587   1.980   0.423  0.9366 -0.2371 -2.9741
  624MOL0     H84182   4.674   2.107   0.322 -1.1916  1.9106 -0.4318
  624MOL0     H84183   4.813   2.159   0.511  2.9520 -0.5997 -2.3618
  624MOL0     H84184   4.749   2.038   0.602 -0.1074 -1.9342 -1.0584
  624MOL0     H84185   4.836   1.861   0.466  1.3234 -0.3700 -0.1098
  624MOL0     H84186   4.856   1.966   0.326  0.0290  1.4263  0.6528
  624MOL0     H84187   4.997   1.983   0.609 -0.1983  0.1584  0.8687
  624MOL0     H84188   5.013   2.117   0.502  0.4395 -0.4965  1.1744
  624MOL0     H84189   5.120   1.835   0.492 -1.3759 -0.0182 -1.7171
  624MOL0     H84190   5.101   1.928   0.340 -0.4906  4.6570  0.0441
  624MOL0     H84191   5.263   2.168   0.339 -3.2904 -0.2981  0.5796
  624MOL0     H84192   5.448   2.341   0.427 -0.0833  1.4349  2.1790
  624MOL0     H84193   5.473   2.330   0.592 -2.2604  0.9398 -0.0366
  624MOL0     H84194   5.693   2.304   0.498 -1.4257  1.5436 -1.8474
  624MOL0     H84195   5.645   2.140   0.536 -2.2687 -0.9024 -0.0664
  624MOL0     H84196   5.618   2.248   0.244  2.6634  0.5417 -0.6762
  624MOL0     H84197   5.603   2.081   0.294  4.0256 -2.2118 -1.9938
  624MOL0     H84198   5.847   2.126   0.204  1.9856 -0.3481  0.0286
  624MOL0     H84199   5.827   2.083   0.377  1.3426  1.3979  0.2368
  624MOL0     H84200   6.036   2.080   0.442  2.9252 -2.1635 -3.0979
  624MOL0     H84201   6.247   2.126   0.551  2.5161  3.8546  3.6054
  624MOL0     H84202   6.659   2.422   0.399  0.8299 -0.3306 -0.0379
  624MOL0     H84203   6.891   2.514   0.474 -0.4707 -2.8213 -0.0261
  624MOL0     H84204   7.047   2.513   0.635 -0.8715 -0.3752  1.8519
  624MOL0     H84205   7.076   2.665   0.559 -1.1536  1.2542  1.2413
  624MOL0     H84206   7.143   2.745   0.798 -6.0408  0.5202  1.2248
  624MOL0     H84207   7.109   2.583   0.860  0.0023  2.7494  1.8155
  624MOL0     H84208   7.282   2.492   0.683 -1.7986  0.0385  1.2600
  624MOL0     H84209   7.325   2.665   0.654  1.4383  4.1382  4.0197
  624MOL0     H84210   7.329   2.532   0.915 -0.3697  0.5913 -1.0238
  624MOL0     H84211   7.391   2.702   0.888 -1.1946 -0.2268  1.5463
  624MOL0     H84212   7.558   2.614   0.733 -2.1808 -0.0302 -1.1560
  624MOL0     H84213   7.523   2.445   0.776 -0.1703 -0.2107 -0.1768
  624MOL0     H84214   7.560   2.508   1.017 -0.3407  0.1858 -1.1378
  624MOL0     H84215   7.708   2.514   0.922  0.4306 -0.9012 -0.2138
  624MOL0     H84216   7.540   2.734   1.033 -1.3865  0.9044 -0.7701
  624MOL0     H84217   7.661   2.778   0.905  0.7293  2.4238  3.0274
  624MOL0     H84218   7.732   2.829   1.106 -3.4525 -0.2251 -2.0218
  624MOL0     H84219   7.738   2.655   1.153  4.4404  0.0449  0.2813
  624MOL0     H84220   6.680   2.714   0.796  1.1106  1.2570 -1.2559
  624MOL0     H84221   6.482   2.629   0.724 -0.0225  1.2486  0.1766
  624MOL0     H84222   6.253   2.504   0.365  0.4535 -0.5198  0.3115
  624MOL0     H84223   6.024   2.491   0.293  0.8309  1.7435  0.6460
  624MOL0     H84224   4.053   2.012   0.586  1.7890  0.2623  0.9972
  624MOL0     H84225   3.810   2.059   0.651 -0.8339  0.7884  0.0118
  624MOL0     H84226   3.553   2.345   0.852  0.9204 -1.2085 -1.3307
  624MOL0     H84227   3.311   2.371   0.948  3.5141 -0.1182  0.4432
  624MOL0     H84228   3.126   2.560   0.963  0.8115 -0.8207 -0.6534
  624MOL0     H84229   3.106   2.389   1.011  1.3517 -0.0846 -0.1203
  624MOL0     H84230   2.884   2.561   0.874 -0.9120 -0.0097  0.5349
  624MOL0     H84231   2.887   2.527   1.044 -0.5167 -2.0111  0.5839
  624MOL0     H84232   2.879   2.298   1.018 -0.8428 -3.0024 -1.9239
  624MOL0     H84233   2.891   2.309   0.838 -1.2267  2.4405 -1.4381
  624MOL0     H84234   2.675   2.422   1.020  0.4585  1.1437 -0.2774
  624MOL0     H84235   2.681   2.470   0.855  0.4209 -1.1268 -1.5824
  624MOL0     H84236   2.523   2.066   0.831 -1.3542  1.1810 -0.7313
  624MOL0     H84237   3.171   2.481   0.565  0.6564  1.1430  1.2993
  624MOL0     H84238   3.443   2.358   0.368 -2.0252 -1.1557 -0.0048
  624MOL0     H84239   3.298   2.455   0.364  1.5347  0.2142 -3.0546
  624MOL0     H84240   3.442   2.532   0.402 -0.5540  1.1842  0.9721
  625MOL0     O84241   9.449   3.467   9.012  0.2089 -0.5662 -0.3529
  625MOL0     C84242   9.402   3.452   8.899  1.0337  0.2563 -0.0570
  625MOL0     O84243   9.465   3.393   8.796 -0.1333 -0.0663  0.2446
  625MOL0     C84244   9.599   3.373   8.813 -0.2090  0.3161 -0.6517
  625MOL0     C84245   9.690   3.464   8.863 -0.6148  0.0108 -0.5333
  625MOL0     C84246   9.825   3.439   8.885  0.2754  0.2046 -0.7091
  625MOL0     C84247   9.874   3.313   8.859 -0.0442  0.6706  0.1936
  625MOL0     O84248  10.006   3.300   8.886 -0.1086 -0.2056 -0.1217
  625MOL0     C84249  10.045   3.164   8.904  0.3463 -0.1665 -0.2221
  625MOL0     C84250  10.189   3.153   8.929  0.0032 -0.0336  0.1251
  625MOL0     C84251  10.269   3.230   8.823 -0.5348  0.8515  0.3518
  625MOL0     C84252  10.295   3.138   8.700  0.0132  0.4367  0.0058
  625MOL0     C84253  10.368   3.216   8.595  0.3597  0.2374  0.3579
  625MOL0     C84254  10.392   3.147   8.462 -0.5164  0.5746 -0.1812
  625MOL0     C84255  10.498   3.224   8.373  0.1064 -0.3465  0.2910
  625MOL0     C84256  10.540   3.149   8.251  0.1966 -0.6892 -0.1174
  625MOL0     N84257  10.627   3.239   8.183 -0.2890  1.2131  0.4446
  625MOL0     C84258  10.755   3.204   8.155 -0.9317  0.5431  0.0598
  625MOL0     C84259  10.805   3.317   8.097 -0.0276 -0.0622 -0.0193
  625MOL0     C84260  10.950   3.353   8.092  0.5219  1.1004 -0.2381
  625MOL0     C84261  10.993   3.362   8.243  0.6263 -0.2285 -0.2632
  625MOL0     C84262  11.052   3.231   8.297  0.0651  0.9278 -0.4005
  625MOL0     C84263  11.199   3.240   8.322  0.2560  0.8754 -0.0838
  625MOL0     O84264  11.263   3.282   8.195  0.0364 -0.2485 -0.2043
  625MOL0     C84265  11.401   3.299   8.199 -1.0476 -0.5406  0.0341
  625MOL0     C84266  11.459   3.315   8.073  0.5441  0.6125 -0.2947
  625MOL0     C84267  11.596   3.337   8.060 -0.2439 -0.6747 -0.0772
  625MOL0     C84268  11.677   3.351   8.176 -0.0296  0.6334  0.1682
  625MOL0     C84269  11.823   3.381   8.171  0.3325 -0.4193  0.2240
  625MOL0     O84270  11.884   3.422   8.289  0.1387 -0.3516 -0.1667
  625MOL0     C84271  12.011   3.403   8.311  0.2050 -0.6060 -0.5168
  625MOL0     C84272  12.078   3.523   8.326  0.0852 -0.4655 -0.9303
  625MOL0     C84273  12.218   3.520   8.338  0.1598  0.3806 -0.6136
  625MOL0     C84274  12.292   3.397   8.326 -0.1454 -0.8548  0.7806
  625MOL0     O84275  12.426   3.411   8.336  0.3202  0.0562  1.1376
  625MOL0     C84276  12.495   3.291   8.342 -0.3596  0.3498 -0.1698
  625MOL0     C84277  12.626   3.340   8.413 -0.3708  0.5281  0.7614
  625MOL0     C84278  12.730   3.415   8.322  0.8266  0.1121 -0.2119
  625MOL0     C84279  12.854   3.454   8.403  0.4841 -0.6136  0.4866
  625MOL0     C84280  12.965   3.345   8.398  1.0153 -0.1317 -0.3444
  625MOL0     C84281  13.073   3.365   8.505 -0.6272  0.1099  0.3987
  625MOL0     C84282  13.173   3.246   8.503  0.0208  0.4981  0.1402
  625MOL0     C84283  13.242   3.226   8.633 -0.0994  0.1897  0.1600
  625MOL0    Cl84284  13.338   3.078   8.597  0.3518 -0.5009 -0.6797
  625MOL0     C84285  12.222   3.279   8.302 -0.1149  0.6194 -0.0471
  625MOL0     C84286  12.085   3.280   8.299 -0.4379  1.0834  0.2835
  625MOL0     O84287  11.878   3.374   8.067 -0.3359 -0.4976  0.5694
  625MOL0     C84288  11.609   3.339   8.302 -0.0037 -0.9460  0.6889
  625MOL0     C84289  11.475   3.315   8.309 -0.8874  0.7350  0.5419
  625MOL0     N84290  10.694   3.399   8.070 -0.1427 -0.1354 -0.0722
  625MOL0     N84291  10.590   3.347   8.109  0.2861  0.7168 -0.3577
  625MOL0     C84292   9.787   3.212   8.812  0.3758 -0.3772 -0.4470
  625MOL0     C84293   9.651   3.244   8.788  0.2570 -0.0210 -0.4581
  625MOL0     C84294   9.275   3.528   8.861  0.1668 -0.5016  0.0202
  625MOL0     C84295   9.238   3.511   8.720 -0.3655  0.3144 -0.9017
  625MOL0     C84296   9.135   3.590   8.665  0.4453 -0.1823 -0.0928
  625MOL0     C84297   9.061   3.681   8.745 -1.0707 -0.0330  0.0303
  625MOL0     O84298   8.986   3.783   8.686 -0.0281 -0.4273  0.4154
  625MOL0     C84299   8.956   3.774   8.544  0.6000 -0.3203 -0.5999
  625MOL0     C84300   8.881   3.900   8.497 -0.3286 -0.3549 -0.7382
  625MOL0     C84301   8.891   3.910   8.340  0.0029 -0.0573 -0.2561
  625MOL0     C84302   8.827   4.040   8.298  0.1421 -0.6905 -0.2527
  625MOL0     C84303   8.789   4.036   8.163 -0.4563 -0.4037 -0.1539
  625MOL0     C84304   8.759   4.003   8.048  0.2972  0.4266 -0.0955
  625MOL0     C84305   9.087   3.685   8.888 -0.0459 -0.0224 -0.0802
  625MOL0     C84306   9.189   3.606   8.944 -0.1429 -0.3704 -0.3328
  625MOL0     C84307   9.210   3.617   9.099 -0.8023  0.1103 -0.2161
  625MOL0     H84308   9.655   3.564   8.889 -1.6416 -0.8218  1.5662
  625MOL0     H84309   9.894   3.521   8.901  2.0890 -1.4844  0.7468
  625MOL0     H84310   9.985   3.128   8.988 -1.4138 -1.2313 -1.8655
  625MOL0     H84311  10.027   3.098   8.819  5.2670 -0.5947 -1.1969
  625MOL0     H84312  10.193   3.046   8.910 -0.9945 -0.6477  2.9058
  625MOL0     H84313  10.213   3.189   9.029 -0.3705  1.4298 -0.2779
  625MOL0     H84314  10.369   3.260   8.857 -0.3977  3.9910 -2.3648
  625MOL0     H84315  10.227   3.326   8.795  2.8940  2.5657  0.5746
  625MOL0     H84316  10.343   3.047   8.737 -1.4685  0.1670  1.4209
  625MOL0     H84317  10.196   3.118   8.659 -0.0488  1.0832 -0.1732
  625MOL0     H84318  10.324   3.316   8.584  0.8127  0.2832 -1.3751
  625MOL0     H84319  10.469   3.235   8.634 -0.1070  2.5831  0.5540
  625MOL0     H84320  10.438   3.050   8.484  1.7073  1.9833  1.8939
  625MOL0     H84321  10.293   3.124   8.421 -1.4586  1.3055  1.5793
  625MOL0     H84322  10.590   3.231   8.433  0.2910  4.0024 -0.1680
  625MOL0     H84323  10.465   3.327   8.355 -0.5892 -1.0080 -2.6581
  625MOL0     H84324  10.588   3.058   8.290 -0.3560 -0.2838  1.5735
  625MOL0     H84325  10.451   3.124   8.192  0.7290  0.1175 -1.2916
  625MOL0     H84326  10.803   3.116   8.198 -0.5195  0.5382 -0.3921
  625MOL0     H84327  11.002   3.276   8.035  1.0137  2.7378 -2.0943
  625MOL0     H84328  10.951   3.448   8.040 -0.3125  1.0044 -0.4522
  625MOL0     H84329  11.073   3.436   8.234  1.3499 -1.2196 -2.7047
  625MOL0     H84330  10.910   3.391   8.308 -0.7418 -1.2396 -1.4620
  625MOL0     H84331  11.037   3.147   8.228  2.3136  0.0882  0.0543
  625MOL0     H84332  11.000   3.214   8.392 -1.8821 -1.4959 -1.7648
  625MOL0     H84333  11.244   3.143   8.346 -0.7233  0.8247  1.6482
  625MOL0     H84334  11.222   3.314   8.399  0.1458 -0.3606  1.1612
  625MOL0     H84335  11.407   3.283   7.983 -0.0176 -1.1162  0.6069
  625MOL0     H84336  11.638   3.326   7.960  1.2721  1.3401  0.2732
  625MOL0     H84337  12.035   3.622   8.334  0.7776 -0.0123 -2.3912
  625MOL0     H84338  12.265   3.616   8.356  0.7375  0.1416 -0.8225
  625MOL0     H84339  12.451   3.219   8.410  0.1329 -2.8670 -2.9980
  625MOL0     H84340  12.512   3.247   8.243 -0.8835 -1.5604  0.5668
  625MOL0     H84341  12.602   3.399   8.501  0.1659 -0.3339  1.5041
  625MOL0     H84342  12.680   3.250   8.446 -2.4927 -1.1150 -0.0038
  625MOL0     H84343  12.767   3.363   8.233  1.1592  3.0508 -1.9136
  625MOL0     H84344  12.681   3.505   8.285 -0.0218  0.3230  1.3323
  625MOL0     H84345  12.818   3.462   8.506  0.7134  2.0488  0.4217
  625MOL0     H84346  12.885   3.556   8.379  0.5350 -0.0393  2.7860
  625MOL0     H84347  13.022   3.349   8.305  0.8699  2.2836 -0.3919
  625MOL0     H84348  12.920   3.247   8.415 -0.7016  0.5696 -0.6532
  625MOL0     H84349  13.128   3.459   8.498 -0.2039  0.0188  2.1976
  625MOL0     H84350  13.023   3.373   8.601 -0.8958 -1.8905  0.4760
  625MOL0     H84351  13.247   3.265   8.424 -2.5445  2.7701 -1.9327
  625MOL0     H84352  13.120   3.153   8.484  1.7681 -0.6133  0.4733
  625MOL0     H84353  13.305   3.315   8.639  1.6068 -0.8897 -1.0225
  625MOL0     H84354  13.166   3.216   8.711  0.4898 -1.5534  0.5405
  625MOL0     H84355  12.267   3.181   8.291 -2.6698 -0.4826 -1.6584
  625MOL0     H84356  12.018   3.195   8.291  0.9710  0.0993 -1.8858
  625MOL0     H84357  11.660   3.345   8.398 -1.7649  1.4737  1.5545
  625MOL0     H84358  11.424   3.312   8.405 -1.9999 -1.0926 -0.0435
  625MOL0     H84359   9.819   3.108   8.807 -0.1688 -0.4722 -2.5950
  625MOL0     H84360   9.569   3.178   8.762 -1.2633  1.2832  0.8087
  625MOL0     H84361   9.297   3.455   8.649  1.6550  1.9101 -0.5738
  625MOL0     H84362   9.114   3.592   8.559 -0.1109  2.3008  0.0132
  625MOL0     H84363   8.904   3.680   8.522 -0.8035  0.2632  0.0776
  625MOL0     H84364   9.052   3.775   8.491  1.6232 -0.1487  1.1611
  625MOL0     H84365   8.924   3.992   8.538 -1.5737  1.5194 -3.3397
  625MOL0     H84366   8.779   3.904   8.535 -0.4056 -0.4587 -0.9305
  625MOL0     H84367   8.832   3.827   8.298 -0.4168 -0.1722  0.5300
  625MOL0     H84368   8.995   3.902   8.309 -0.4268 -2.8498 -1.3684
  625MOL0     H84369   8.743   4.059   8.366  0.4727  0.5211 -0.1489
  625MOL0     H84370   8.895   4.122   8.324 -1.1382 -0.0302  1.2074
  625MOL0     H84371   8.737   3.992   7.943  0.6379 -1.4499 -0.0047
  625MOL0     H84372   9.026   3.754   8.947 -1.4471  0.7161 -2.2818
  625MOL0     H84373   9.251   3.524   9.140 -0.5416 -0.5551 -1.9052
  625MOL0     H84374   9.285   3.693   9.124  1.1985 -1.6398 -0.5530
  625MOL0     H84375   9.122   3.636   9.161  0.7283 -2.6012  3.1746
  626MOL0     O84376   9.652   5.900   3.081  0.3104  0.4049 -0.0596
  626MOL0     C84377   9.678   5.797   3.143  0.4736 -0.6282 -0.1026
  626MOL0     O84378   9.808   5.774   3.196  0.2092  0.6078  0.6387
  626MOL0     C84379   9.897   5.788   3.099 -0.3772  0.9264 -0.1777
  626MOL0     C84380   9.963   5.914   3.091 -0.9106 -0.5143  0.5653
  626MOL0     C84381  10.077   5.930   3.016 -0.5195 -0.1251  0.4625
  626MOL0     C84382  10.134   5.819   2.945 -0.4063 -0.5327  0.3115
  626MOL0     O84383  10.244   5.856   2.869  0.3189  0.1993 -0.3186
  626MOL0     C84384  10.309   5.753   2.796 -0.3355 -0.4295 -0.0158
  626MOL0     C84385  10.420   5.668   2.867  0.3053 -0.5621 -0.5674
  626MOL0     C84386  10.470   5.551   2.779  0.0865  0.8228  0.1243
  626MOL0     C84387  10.544   5.574   2.657  0.5691 -0.1288  0.3699
  626MOL0     C84388  10.681   5.644   2.675 -0.0307  0.0961 -0.2918
  626MOL0     C84389  10.745   5.625   2.541 -0.5138 -1.5333  0.3657
  626MOL0     C84390  10.882   5.703   2.542 -0.9484  0.1359 -0.6641
  626MOL0     C84391  10.995   5.626   2.601  0.2155  0.1696 -0.6776
  626MOL0     N84392  11.103   5.716   2.621  0.2436 -0.1280  0.2364
  626MOL0     C84393  11.153   5.770   2.741 -0.2808  0.3746 -0.1504
  626MOL0     C84394  11.260   5.850   2.700 -0.4711  0.6902 -0.6610
  626MOL0     C84395  11.340   5.937   2.797  0.1660  0.5983 -0.1370
  626MOL0     C84396  11.253   6.018   2.899  0.1410  0.8446 -0.1354
  626MOL0     C84397  11.145   6.098   2.825  0.6318  0.9288  0.0775
  626MOL0     C84398  11.064   6.171   2.924  0.3685 -0.4896 -0.1119
  626MOL0     O84399  10.981   6.272   2.863  0.4255  0.0186 -0.7588
  626MOL0     C84400  10.918   6.358   2.948 -0.0472  0.6830  0.0738
  626MOL0     C84401  10.935   6.367   3.089  0.2196 -0.4062  0.0791
  626MOL0     C84402  10.871   6.456   3.173  0.5654  0.7092  0.2067
  626MOL0     C84403  10.775   6.535   3.120  0.2520  0.3073 -1.2246
  626MOL0     C84404  10.698   6.633   3.204  0.6768 -0.0313  0.9345
  626MOL0     O84405  10.591   6.695   3.141  0.3606 -0.2366  0.1195
  626MOL0     C84406  10.482   6.727   3.220  0.2384 -0.6652 -0.0656
  626MOL0     C84407  10.493   6.843   3.308 -0.0167  0.7395  0.3238
  626MOL0     C84408  10.391   6.884   3.401 -0.5763 -0.7958 -0.5758
  626MOL0     C84409  10.275   6.811   3.411  1.0390  0.3034 -1.1059
  626MOL0     O84410  10.176   6.854   3.495 -0.4158 -0.4644  0.6556
  626MOL0     C84411  10.044   6.780   3.512 -0.2576  0.4313  0.7516
  626MOL0     C84412   9.942   6.822   3.401  0.3300  1.1540 -0.0598
  626MOL0     C84413   9.908   6.973   3.407  0.2991  0.4837  0.4349
  626MOL0     C84414   9.797   6.995   3.289 -0.0618  0.2322 -0.1242
  626MOL0     C84415   9.782   7.142   3.270 -0.1958  0.3325 -0.8618
  626MOL0     C84416   9.698   7.166   3.139 -0.1152  0.0112 -0.1547
  626MOL0     C84417   9.638   7.299   3.125  1.3083  0.0480  0.1376
  626MOL0     C84418   9.519   7.328   3.212  1.0706 -1.1057  0.2234
  626MOL0    Cl84419   9.362   7.299   3.126  0.0726  0.2620 -0.5370
  626MOL0     C84420  10.258   6.692   3.331 -0.8056 -0.7305 -0.2055
  626MOL0     C84421  10.363   6.652   3.237  0.9334  0.3529  0.5718
  626MOL0     O84422  10.722   6.643   3.324 -0.2401 -0.7075 -0.3238
  626MOL0     C84423  10.752   6.523   2.984  0.6453 -0.0314  0.1865
  626MOL0     C84424  10.820   6.440   2.891  0.2615 -0.1284 -0.6923
  626MOL0     N84425  11.268   5.837   2.564  0.1978  0.4447 -0.1463
  626MOL0     N84426  11.179   5.763   2.517  1.2277 -0.3506 -0.0442
  626MOL0     C84427  10.072   5.690   2.961 -0.1712  0.0548  0.6638
  626MOL0     C84428   9.957   5.676   3.035  0.1729 -0.2001  0.0326
  626MOL0     C84429   9.563   5.711   3.174 -1.0410 -0.0976  0.2329
  626MOL0     C84430   9.577   5.628   3.283 -0.7472  0.4938 -0.0649
  626MOL0     C84431   9.472   5.544   3.332 -0.7858  0.5516 -0.0087
  626MOL0     C84432   9.356   5.528   3.263 -0.1238 -0.8031  0.8278
  626MOL0     O84433   9.261   5.441   3.320 -0.0343 -0.0942  0.1386
  626MOL0     C84434   9.138   5.428   3.259 -0.1326  0.0203  0.7943
  626MOL0     C84435   9.071   5.301   3.315 -0.2044 -0.6585  0.3057
  626MOL0     C84436   9.153   5.171   3.300  0.5424  0.0044 -0.6186
  626MOL0     C84437   9.170   5.096   3.436 -0.4974  0.4810  0.1389
  626MOL0     C84438   9.046   5.061   3.502 -0.0251  1.2658  0.1370
  626MOL0     C84439   8.938   5.030   3.546  0.7394  0.1384  0.5867
  626MOL0     C84440   9.338   5.610   3.142 -0.7839  0.0312 -0.1291
  626MOL0     C84441   9.436   5.702   3.098  0.2179  0.0806  0.7536
  626MOL0     C84442   9.405   5.779   2.968  0.1307  0.1380 -0.8123
  626MOL0     H84443   9.918   5.988   3.156 -0.9688 -1.0328  1.1313
  626MOL0     H84444  10.125   6.026   2.999 -1.2326 -0.2611 -2.9366
  626MOL0     H84445  10.239   5.683   2.750  0.0115 -0.7831 -0.0207
  626MOL0     H84446  10.355   5.800   2.709 -3.5116 -0.5013 -1.8770
  626MOL0     H84447  10.379   5.633   2.963  1.4853  0.7861  0.4815
  626MOL0     H84448  10.497   5.743   2.887 -0.8052  0.3448  0.5145
  626MOL0     H84449  10.373   5.510   2.749  0.3338  2.1547 -2.9359
  626MOL0     H84450  10.529   5.478   2.835 -1.1412  0.9074  1.5686
  626MOL0     H84451  10.563   5.474   2.618  2.1754 -0.3408  1.5892
  626MOL0     H84452  10.485   5.628   2.583  1.3731  0.4385  0.1402
  626MOL0     H84453  10.660   5.749   2.695 -0.9300 -0.3746  1.3914
  626MOL0     H84454  10.735   5.597   2.758  1.6141 -0.1358 -1.4384
  626MOL0     H84455  10.764   5.519   2.523  1.7824 -0.7306 -2.7403
  626MOL0     H84456  10.684   5.666   2.460 -0.8654 -1.8362  0.4750
  626MOL0     H84457  10.880   5.804   2.585 -1.1806 -0.0113 -0.3182
  626MOL0     H84458  10.914   5.705   2.438  0.2384  0.9517 -0.3065
  626MOL0     H84459  10.972   5.587   2.700  1.2994  1.6742  0.2201
  626MOL0     H84460  11.024   5.546   2.533 -0.7404 -0.5304 -0.2783
  626MOL0     H84461  11.122   5.759   2.845 -2.3401  1.3986 -0.5938
  626MOL0     H84462  11.409   5.875   2.855  0.5605 -0.6119 -1.8237
  626MOL0     H84463  11.409   6.006   2.747 -0.6656  2.1445  0.7725
  626MOL0     H84464  11.200   5.956   2.971 -0.3644 -1.4558 -2.3455
  626MOL0     H84465  11.323   6.090   2.944 -0.9686  1.6904  0.2652
  626MOL0     H84466  11.077   6.045   2.758  1.4572  0.5388 -0.4642
  626MOL0     H84467  11.193   6.174   2.763  3.6133 -1.7759 -1.1748
  626MOL0     H84468  11.142   6.224   2.980  0.7497 -0.2760 -0.8335
  626MOL0     H84469  11.013   6.109   2.998  2.4570 -0.3571  1.5483
  626MOL0     H84470  11.003   6.302   3.143 -0.9664 -1.0309  0.8505
  626MOL0     H84471  10.882   6.457   3.282 -0.4408  0.8354  0.3095
  626MOL0     H84472  10.587   6.894   3.286 -0.0606  0.8490  0.3851
  626MOL0     H84473  10.404   6.971   3.465  2.0152 -1.6922  0.2515
  626MOL0     H84474  10.044   6.671   3.513  0.9146  0.4192  2.3438
  626MOL0     H84475   9.986   6.809   3.599 -1.6697  0.3186 -0.1215
  626MOL0     H84476   9.983   6.789   3.305 -1.1068 -0.4744 -0.1837
  626MOL0     H84477   9.847   6.768   3.410 -0.5522  2.7428  0.6916
  626MOL0     H84478   9.856   6.999   3.499 -3.0717  0.4879 -1.3031
  626MOL0     H84479   9.991   7.043   3.397 -0.8627  1.9709  0.7952
  626MOL0     H84480   9.703   6.940   3.298 -0.5817  0.7636 -2.0097
  626MOL0     H84481   9.849   6.950   3.204  1.1707  0.3147  0.5596
  626MOL0     H84482   9.878   7.193   3.263 -0.7542  2.0546  2.2429
  626MOL0     H84483   9.730   7.181   3.357  1.1671  1.3057 -0.4652
  626MOL0     H84484   9.761   7.141   3.052  0.0014 -1.7397  0.3888
  626MOL0     H84485   9.622   7.087   3.137  0.5043 -0.6595  1.1875
  626MOL0     H84486   9.592   7.310   3.027 -3.4702 -2.3557  1.7831
  626MOL0     H84487   9.713   7.377   3.143  1.2220 -0.1650  1.5772
  626MOL0     H84488   9.514   7.277   3.309 -0.7192 -1.6975 -0.1361
  626MOL0     H84489   9.523   7.435   3.237 -1.7726 -1.4738  3.0989
  626MOL0     H84490  10.174   6.626   3.346 -1.0814 -0.5042 -0.7341
  626MOL0     H84491  10.355   6.564   3.174 -4.2934  1.6786 -1.1047
  626MOL0     H84492  10.666   6.578   2.947 -0.4066 -1.8856 -0.2303
  626MOL0     H84493  10.784   6.432   2.789  0.6125 -0.7850 -0.7685
  626MOL0     H84494  10.121   5.606   2.914  1.7469  1.4623  0.0532
  626MOL0     H84495   9.917   5.576   3.049  2.1656 -1.1642 -0.8228
  626MOL0     H84496   9.662   5.628   3.351  0.1327 -1.8620 -1.0590
  626MOL0     H84497   9.478   5.509   3.434  2.4460  2.5488  0.6356
  626MOL0     H84498   9.157   5.414   3.152  1.8233 -1.5234  1.2802
  626MOL0     H84499   9.079   5.515   3.288 -0.7130 -0.6217  1.5836
  626MOL0     H84500   8.971   5.281   3.277 -0.5182 -3.6038  2.3818
  626MOL0     H84501   9.045   5.322   3.419  0.6858  2.4402  0.0049
  626MOL0     H84502   9.240   5.220   3.255 -0.0731  0.5831 -1.1970
  626MOL0     H84503   9.103   5.108   3.227  2.9141 -1.1349 -1.3745
  626MOL0     H84504   9.226   5.005   3.412  2.5091  2.7562 -2.3861
  626MOL0     H84505   9.243   5.159   3.489  0.6619  1.2997 -2.2370
  626MOL0     H84506   8.837   5.013   3.578  0.4348 -0.8707 -0.7989
  626MOL0     H84507   9.240   5.592   3.098 -1.6218 -2.1614  2.3475
  626MOL0     H84508   9.417   5.885   2.992  1.0542 -0.3140  0.8718
  626MOL0     H84509   9.481   5.757   2.892  0.1344 -1.6327 -0.3377
  626MOL0     H84510   9.303   5.757   2.936 -0.2231 -2.1775  1.5834
  627MOL0     O84511  10.077   0.052   0.229  0.2023  0.4223 -0.0864
  627MOL0     C84512  10.041   0.036   0.346 -0.0812 -0.5170  0.3616
  627MOL0     O84513  10.124   0.057   0.454  0.0073 -0.5561 -0.1664
  627MOL0     C84514  10.263   0.071   0.427  0.4169  0.6037 -0.4863
  627MOL0     C84515  10.347  -0.033   0.476 -0.4534  1.1003  0.5856
  627MOL0     C84516  10.485  -0.022   0.439 -0.7280  0.2446  0.2362
  627MOL0     C84517  10.539   0.107   0.400 -0.2192 -0.6852 -0.1436
  627MOL0     O84518  10.676   0.110   0.373 -0.0636  0.2668 -0.0398
  627MOL0     C84519  10.753   0.223   0.391  0.0692 -0.6280 -0.1126
  627MOL0     C84520  10.897   0.191   0.426  0.2288  0.1504  0.3058
  627MOL0     C84521  10.970   0.103   0.314 -0.5225 -0.0426  0.0740
  627MOL0     C84522  11.119   0.087   0.348 -0.2942 -0.3496  0.2209
  627MOL0     C84523  11.204   0.216   0.315  0.7543  0.1151  0.1864
  627MOL0     C84524  11.358   0.187   0.314  0.0120 -0.6134 -0.2906
  627MOL0     C84525  11.448   0.293   0.274  0.2697  0.2692 -0.2399
  627MOL0     C84526  11.499   0.375   0.385  0.0920 -0.0639  0.3713
  627MOL0     N84527  11.611   0.458   0.349  0.2645 -0.1169  0.4847
  627MOL0     C84528  11.604   0.564   0.259  0.1095  0.6051  0.5712
  627MOL0     C84529  11.735   0.603   0.243 -0.6157  0.7229 -0.3396
  627MOL0     C84530  11.783   0.716   0.156 -0.5914 -0.2625  0.2895
  627MOL0     C84531  11.790   0.838   0.245  0.3125 -0.0808 -0.7799
  627MOL0     C84532  11.914   0.838   0.334 -0.6693 -0.1481  0.0192
  627MOL0     C84533  12.046   0.804   0.271 -0.2141  0.2109  0.4769
  627MOL0     O84534  12.082   0.905   0.173  0.2862 -0.0915 -0.1925
  627MOL0     C84535  12.207   0.919   0.117  0.3390  1.2849 -0.4943
  627MOL0     C84536  12.285   0.803   0.088 -0.5320 -0.1604 -0.5893
  627MOL0     C84537  12.416   0.819   0.027  0.3226  0.1598 -0.3845
  627MOL0     C84538  12.463   0.947  -0.006 -0.7632 -0.0959 -0.1386
  627MOL0     C84539  12.594   0.952  -0.072 -0.2787  0.3337 -0.3904
  627MOL0     O84540  12.648   0.836  -0.121 -0.5339 -0.4877 -0.2318
  627MOL0     C84541  12.747   0.848  -0.211 -0.5631  0.1964 -0.8292
  627MOL0     C84542  12.719   0.828  -0.343  0.0020  0.0914  0.2812
  627MOL0     C84543  12.810   0.843  -0.444 -0.7553  1.1662 -0.4335
  627MOL0     C84544  12.941   0.884  -0.410 -0.7716  0.3672  0.2409
  627MOL0     O84545  13.021   0.915  -0.517 -0.0418 -0.0092  0.3728
  627MOL0     C84546  13.158   0.950  -0.505  0.0119 -0.6433  0.2861
  627MOL0     C84547  13.206   0.973  -0.649 -0.2433  0.4136  0.4052
  627MOL0     C84548  13.350   1.028  -0.650  0.4727  0.6477 -0.0152
  627MOL0     C84549  13.457   0.922  -0.666 -0.7232 -0.3649 -0.5123
  627MOL0     C84550  13.590   1.001  -0.691 -0.5395  0.2458  0.1477
  627MOL0     C84551  13.678   1.043  -0.571  0.4111 -0.5634 -0.1173
  627MOL0     C84552  13.723   0.928  -0.495  0.2454 -0.0585 -0.3272
  627MOL0     C84553  13.806   0.958  -0.373  0.2352  0.8649  0.1918
  627MOL0    Cl84554  13.841   0.818  -0.281  0.2403  0.1264 -0.1503
  627MOL0     C84555  12.974   0.894  -0.276 -0.3784  0.2595  0.1623
  627MOL0     C84556  12.877   0.870  -0.171 -0.2989  0.7763 -0.0151
  627MOL0     O84557  12.645   1.061  -0.071  0.2888  0.0037  0.1790
  627MOL0     C84558  12.385   1.059   0.022  0.7787  0.0473  0.0227
  627MOL0     C84559  12.263   1.044   0.082  0.8620  0.4898  0.1750
  627MOL0     N84560  11.820   0.510   0.312  0.2762 -0.3582  0.1275
  627MOL0     N84561  11.745   0.432   0.378  0.3724  0.4766 -0.4643
  627MOL0     C84562  10.453   0.211   0.373  0.0437 -0.5764  0.3128
  627MOL0     C84563  10.313   0.195   0.380 -0.3146  0.3478 -0.0480
  627MOL0     C84564   9.898   0.005   0.369 -0.2295 -0.7792  1.0957
  627MOL0     C84565   9.832  -0.070   0.268 -0.0760 -0.3520 -0.4933
  627MOL0     C84566   9.706  -0.114   0.289  0.1852 -0.6138  0.1657
  627MOL0     C84567   9.628  -0.085   0.405  0.2659 -0.2057 -0.1176
  627MOL0     O84568   9.504  -0.136   0.410 -0.4050 -0.2241  0.0884
  627MOL0     C84569   9.394  -0.077   0.483 -0.7031 -0.7636  0.1483
  627MOL0     C84570   9.337   0.051   0.419  0.3152  0.3944  0.2130
  627MOL0     C84571   9.298   0.007   0.280 -0.0960 -0.1303  0.6476
  627MOL0     C84572   9.235   0.124   0.200 -0.2956 -0.6920  0.6628
  627MOL0     C84573   9.107   0.171   0.257  0.3512 -0.3746  0.5235
  627MOL0     C84574   9.006   0.212   0.302  0.1873  0.7183 -0.6758
  627MOL0     C84575   9.690  -0.000   0.502  0.1002  0.4805 -0.2452
  627MOL0     C84576   9.824   0.039   0.481  0.1857 -0.3794 -0.1462
  627MOL0     C84577   9.880   0.125   0.589  0.0482 -0.3937  0.6621
  627MOL0     H84578  10.288  -0.118   0.509 -1.7320  1.3730 -0.8475
  627MOL0     H84579  10.542  -0.113   0.451  2.7428  1.9661 -1.7730
  627MOL0     H84580  10.750   0.268   0.292 -2.1427 -0.2223  0.0821
  627MOL0     H84581  10.709   0.283   0.472 -0.3839 -1.6678  0.4276
  627MOL0     H84582  10.903   0.151   0.527  2.1691  0.1291  0.2120
  627MOL0     H84583  10.950   0.286   0.428 -0.6217  0.6719 -0.6735
  627MOL0     H84584  10.949   0.151   0.219 -2.9945 -0.1997  0.4698
  627MOL0     H84585  10.922   0.005   0.323  1.9994 -1.8179 -3.3988
  627MOL0     H84586  11.129   0.046   0.449 -0.0495 -0.4632  0.1520
  627MOL0     H84587  11.153   0.015   0.273 -1.0715  0.1427 -0.6297
  627MOL0     H84588  11.177   0.249   0.214 -0.2877 -1.4536 -0.0741
  627MOL0     H84589  11.180   0.296   0.386  0.4057 -1.2924  1.7110
  627MOL0     H84590  11.382   0.155   0.416  0.4848  0.5192 -0.0388
  627MOL0     H84591  11.372   0.098   0.252 -0.3425  0.2350 -1.6289
  627MOL0     H84592  11.419   0.355   0.188  2.5768 -0.1548 -1.3970
  627MOL0     H84593  11.537   0.248   0.228 -0.4061 -2.3173  0.8491
  627MOL0     H84594  11.419   0.439   0.422  2.1958  1.1160  3.3302
  627MOL0     H84595  11.532   0.308   0.466 -0.1349 -1.0470 -0.3400
  627MOL0     H84596  11.516   0.611   0.218 -0.3580 -1.6456 -1.2328
  627MOL0     H84597  11.878   0.692   0.106  0.2861 -2.5803  2.8336
  627MOL0     H84598  11.710   0.740   0.077 -0.3398 -0.8186 -0.1198
  627MOL0     H84599  11.777   0.923   0.176 -1.6019  0.3815  0.0953
  627MOL0     H84600  11.698   0.839   0.303  0.2563  2.6457 -0.7553
  627MOL0     H84601  11.894   0.780   0.424  0.1584 -0.0940  0.2472
  627MOL0     H84602  11.922   0.940   0.372  1.4341 -0.3658  0.2965
  627MOL0     H84603  12.057   0.705   0.227  2.6441  1.4218 -1.9311
  627MOL0     H84604  12.117   0.803   0.355  0.5702 -0.2196 -0.1728
  627MOL0     H84605  12.240   0.708   0.113  0.8724 -0.2819  1.7934
  627MOL0     H84606  12.481   0.732   0.022  0.4530  0.0295  2.3399
  627MOL0     H84607  12.621   0.798  -0.379 -1.2017  1.5562  2.1699
  627MOL0     H84608  12.790   0.823  -0.548  0.1162  0.4546 -0.4731
  627MOL0     H84609  13.185   1.037  -0.444  1.5645 -2.6231  2.6220
  627MOL0     H84610  13.219   0.875  -0.453 -1.3302 -1.9439  0.0535
  627MOL0     H84611  13.205   0.885  -0.713  2.3629 -0.2982  1.2256
  627MOL0     H84612  13.138   1.046  -0.695 -0.2936 -0.6658 -1.3230
  627MOL0     H84613  13.354   1.099  -0.732 -2.1766  0.5665 -0.3022
  627MOL0     H84614  13.355   1.083  -0.555  0.7485 -2.3200  1.8370
  627MOL0     H84615  13.448   0.855  -0.752 -0.4045 -0.9694 -0.0739
  627MOL0     H84616  13.465   0.859  -0.578 -0.1522  0.4755  0.0518
  627MOL0     H84617  13.566   1.086  -0.755  1.5908 -0.7563 -2.1541
  627MOL0     H84618  13.662   0.941  -0.747 -0.3852 -1.4237  2.0010
  627MOL0     H84619  13.762   1.103  -0.607  1.1997 -3.0913 -2.8848
  627MOL0     H84620  13.620   1.111  -0.507  4.3931  1.4642  1.6587
  627MOL0     H84621  13.783   0.862  -0.557 -0.7485 -0.6347 -0.6997
  627MOL0     H84622  13.639   0.865  -0.464 -0.2445 -0.0871 -1.6565
  627MOL0     H84623  13.907   0.985  -0.402  1.7207 -3.6232  0.4866
  627MOL0     H84624  13.771   1.034  -0.301  0.2532 -0.2624  1.4355
  627MOL0     H84625  13.074   0.932  -0.257 -1.5003  2.2031  2.8339
  627MOL0     H84626  12.897   0.874  -0.064 -0.6555 -2.1453  0.2375
  627MOL0     H84627  12.410   1.161  -0.006 -1.6611  0.3919 -1.1977
  627MOL0     H84628  12.203   1.131   0.102  2.3521  1.7069 -0.4531
  627MOL0     H84629  10.495   0.303   0.334 -1.4030  0.3524  0.8627
  627MOL0     H84630  10.248   0.277   0.350  1.8995  1.3060 -2.5489
  627MOL0     H84631   9.890  -0.097   0.181  0.9497 -1.7778  0.5821
  627MOL0     H84632   9.655  -0.168   0.209  1.0951 -0.8551 -0.2665
  627MOL0     H84633   9.428  -0.052   0.584 -1.5616 -0.6309  0.4174
  627MOL0     H84634   9.318  -0.155   0.485  0.1854 -1.6340  1.5412
  627MOL0     H84635   9.416   0.125   0.404  1.3618  0.1047  3.6015
  627MOL0     H84636   9.255   0.091   0.478 -2.4791 -0.8809 -2.4868
  627MOL0     H84637   9.216  -0.064   0.282  0.0728 -0.4413 -1.5310
  627MOL0     H84638   9.381  -0.037   0.224 -0.9947 -1.7741  0.5564
  627MOL0     H84639   9.303   0.208   0.185 -1.0663 -0.4102 -1.8526
  627MOL0     H84640   9.212   0.073   0.106  0.3916  1.2233 -0.6087
  627MOL0     H84641   8.919   0.270   0.323  0.2161  1.0818 -1.5085
  627MOL0     H84642   9.635   0.035   0.590 -0.9823 -0.6317 -0.4498
  627MOL0     H84643   9.810   0.141   0.671 -1.1182  1.1351 -0.5674
  627MOL0     H84644   9.973   0.082   0.626  0.8006  0.0407 -0.6620
  627MOL0     H84645   9.896   0.223   0.543 -0.2200 -0.4424  0.4554
  628MOL0     O84646  10.537  11.275   2.260 -0.7967 -0.4607  0.3212
  628MOL0     C84647  10.472  11.222   2.351 -0.5365  0.6716  0.1637
  628MOL0     O84648  10.515  11.200   2.479 -0.0704 -0.2525  0.2618
  628MOL0     C84649  10.651  11.210   2.517 -0.4352  0.5951  0.4863
  628MOL0     C84650  10.722  11.099   2.563 -0.2785  0.2950  0.7564
  628MOL0     C84651  10.854  11.102   2.604  0.2626  0.0386  0.0819
  628MOL0     C84652  10.923  11.222   2.596  0.0510 -0.4254 -0.1650
  628MOL0     O84653  11.051  11.217   2.629  0.0522  0.3328 -0.2723
  628MOL0     C84654  11.137  11.324   2.591 -0.3320  0.0022  0.6118
  628MOL0     C84655  11.274  11.302   2.644  0.1103  0.9394 -0.4092
  628MOL0     C84656  11.364  11.426   2.640  0.7438  0.3006  0.2840
  628MOL0     C84657  11.499  11.395   2.692  0.3979  0.0422 -0.7156
  628MOL0     C84658  11.596  11.512   2.707  0.2852  0.5094 -0.5631
  628MOL0     C84659  11.720  11.477   2.789  0.0774  0.7670 -0.2620
  628MOL0     C84660  11.835  11.579   2.784 -0.8321 -0.5358 -0.7808
  628MOL0     C84661  11.915  11.578   2.916  0.1736 -0.7966  0.3196
  628MOL0     N84662  11.951  11.444   2.960 -0.3741  0.7864  0.3891
  628MOL0     C84663  12.043  11.363   2.902  0.4592  0.6341  0.2561
  628MOL0     C84664  12.056  11.253   2.981 -0.3035 -0.9982 -0.6795
  628MOL0     C84665  12.153  11.140   2.983  0.4644 -0.3034 -0.3366
  628MOL0     C84666  12.261  11.165   3.082 -0.7345  1.1025  0.8626
  628MOL0     C84667  12.384  11.070   3.053 -0.0727  0.2554  0.0162
  628MOL0     C84668  12.517  11.128   3.089 -0.0622 -0.5947 -0.0012
  628MOL0     O84669  12.607  11.032   3.067 -0.2304  0.1038  0.0312
  628MOL0     C84670  12.737  11.060   3.062  0.3637  0.9019  0.3021
  628MOL0     C84671  12.793  11.190   3.074 -0.5454  0.1276  0.2260
  628MOL0     C84672  12.934  11.200   3.053  0.7546 -0.6647  0.6383
  628MOL0     C84673  13.012  11.090   3.033  0.5958  0.2039 -1.3967
  628MOL0     C84674  13.160  11.116   3.010 -0.1443  0.7968 -0.0019
  628MOL0     O84675  13.227  11.011   2.957 -0.0756 -0.2808 -0.9159
  628MOL0     C84676  13.362  11.024   2.954  0.1593  0.3202  0.0040
  628MOL0     C84677  13.416  11.106   2.849 -0.6488  0.5756  0.0087
  628MOL0     C84678  13.556  11.119   2.836 -0.7793  0.4728 -0.0859
  628MOL0     C84679  13.641  11.044   2.928 -0.4947  0.1629 -0.4668
  628MOL0     O84680  13.774  11.062   2.921 -0.2132 -0.0561  0.6084
  628MOL0     C84681  13.836  11.149   2.822 -0.2393 -0.1100 -0.1096
  628MOL0     C84682  13.986  11.166   2.853 -0.8240  0.0040 -0.0782
  628MOL0     C84683  14.060  11.281   2.780  0.2274 -0.1487  0.4062
  628MOL0     C84684  14.209  11.269   2.776 -0.3027  0.3389 -0.8061
  628MOL0     C84685  14.262  11.392   2.717  0.9345 -0.0091  0.7981
  628MOL0     C84686  14.408  11.399   2.697  0.4180 -0.1444  0.4441
  628MOL0     C84687  14.445  11.533   2.622 -0.6104  0.7320  0.7393
  628MOL0     C84688  14.582  11.508   2.556 -0.4420 -0.6549  0.0708
  628MOL0    Cl84689  14.717  11.475   2.676 -0.4208 -0.0282  0.2822
  628MOL0     C84690  13.586  10.974   3.036 -0.3035 -0.7641 -0.0853
  628MOL0     C84691  13.445  10.964   3.045 -0.2845  0.1892  0.8863
  628MOL0     O84692  13.209  11.221   3.048  0.7371  0.0664  1.4988
  628MOL0     C84693  12.954  10.964   3.034 -0.5682  0.0010  0.1141
  628MOL0     C84694  12.818  10.948   3.042 -0.3865  0.7752 -0.9885
  628MOL0     N84695  11.968  11.274   3.086 -0.0999  0.0546  0.0841
  628MOL0     N84696  11.905  11.387   3.072  0.5104 -0.3477  0.3020
  628MOL0     C84697  10.854  11.340   2.553 -0.2299 -0.1312 -0.5688
  628MOL0     C84698  10.725  11.328   2.506 -0.6993 -0.4984 -0.2462
  628MOL0     C84699  10.342  11.153   2.313 -0.1990 -0.2746 -0.0640
  628MOL0     C84700  10.319  11.024   2.354 -0.0392 -0.4555 -0.5220
  628MOL0     C84701  10.199  10.956   2.326 -0.4155 -0.3913  0.5748
  628MOL0     C84702  10.092  11.028   2.265  1.2458  0.3819  0.6346
  628MOL0     O84703   9.966  10.966   2.257 -0.2735 -0.5772 -0.2089
  628MOL0     C84704   9.860  11.037   2.196 -0.2275 -0.3772  0.4747
  628MOL0     C84705   9.729  10.969   2.212 -0.2815 -0.5401  0.2152
  628MOL0     C84706   9.728  10.826   2.165 -0.8517  0.5221 -0.8039
  628MOL0     C84707   9.735  10.819   2.010 -0.2462  0.3357 -0.4583
  628MOL0     C84708   9.701  10.684   1.959 -0.6222  0.1711  0.0698
  628MOL0     C84709   9.689  10.574   1.917  0.1495 -0.3602 -0.4910
  628MOL0     C84710  10.111  11.165   2.231  0.3639 -0.4754 -0.3434
  628MOL0     C84711  10.235  11.225   2.249 -1.0619 -0.1951 -0.5173
  628MOL0     C84712  10.255  11.365   2.201 -0.5404  0.7678  0.2039
  628MOL0     H84713  10.668  11.006   2.580  1.9247 -1.6217 -1.8525
  628MOL0     H84714  10.888  11.010   2.650 -2.9587 -0.0702  2.6444
  628MOL0     H84715  11.133  11.326   2.481 -0.9259  1.1350  0.6431
  628MOL0     H84716  11.099  11.413   2.640  1.1558 -0.4825  2.7775
  628MOL0     H84717  11.325  11.213   2.607  1.1300  0.1218  2.7035
  628MOL0     H84718  11.258  11.280   2.750  1.8763  0.1763 -0.2747
  628MOL0     H84719  11.321  11.505   2.703  1.2944  0.4020  0.5426
  628MOL0     H84720  11.380  11.474   2.544  1.2961 -2.7762 -1.2976
  628MOL0     H84721  11.480  11.331   2.778  0.6756  1.2277  0.2588
  628MOL0     H84722  11.537  11.336   2.608 -1.5338 -2.9014  0.3480
  628MOL0     H84723  11.620  11.553   2.608  0.3619  0.0166 -0.7529
  628MOL0     H84724  11.552  11.595   2.763  1.4017  0.0325  1.0949
  628MOL0     H84725  11.684  11.466   2.892  0.6691  2.4421  0.1586
  628MOL0     H84726  11.761  11.381   2.754 -2.1118  0.3265 -1.8343
  628MOL0     H84727  11.793  11.678   2.764  0.1025  0.7751  2.8950
  628MOL0     H84728  11.905  11.545   2.707  1.7110 -0.0141  1.1646
  628MOL0     H84729  12.003  11.642   2.900  0.1665 -1.2495 -2.0004
  628MOL0     H84730  11.862  11.624   3.000  0.4418 -2.1101  1.2233
  628MOL0     H84731  12.094  11.393   2.811  0.0202 -1.2318 -0.6663
  628MOL0     H84732  12.103  11.044   3.002  1.1909 -0.9845 -1.6688
  628MOL0     H84733  12.192  11.142   2.881 -0.4865  0.7707 -0.6951
  628MOL0     H84734  12.278  11.273   3.082 -0.8688  1.1419 -0.5453
  628MOL0     H84735  12.229  11.135   3.183  0.1952  0.5140  0.9871
  628MOL0     H84736  12.388  11.023   2.955 -2.0713  1.2384 -0.5917
  628MOL0     H84737  12.373  10.991   3.128  0.7840 -0.3719 -0.5098
  628MOL0     H84738  12.522  11.152   3.196 -0.2843  1.1740 -0.3459
  628MOL0     H84739  12.538  11.212   3.022  1.8914 -1.4636 -0.5486
  628MOL0     H84740  12.729  11.277   3.082 -2.5605 -1.2986  0.2723
  628MOL0     H84741  12.983  11.296   3.055  1.9280 -1.2285 -0.1740
  628MOL0     H84742  13.348  11.164   2.787 -0.8863  1.2504  0.8817
  628MOL0     H84743  13.597  11.184   2.760 -2.3923  1.2260 -0.3518
  628MOL0     H84744  13.829  11.131   2.714  0.7661  1.2652 -0.4375
  628MOL0     H84745  13.800  11.253   2.826 -0.4701 -0.2109  2.8582
  628MOL0     H84746  14.006  11.196   2.956  1.8650 -0.7233 -0.3015
  628MOL0     H84747  14.038  11.070   2.847 -0.2997  0.1353  1.7902
  628MOL0     H84748  14.032  11.287   2.674  2.1799  3.4448 -0.0603
  628MOL0     H84749  14.029  11.366   2.841  0.7345 -1.4425  2.6012
  628MOL0     H84750  14.237  11.185   2.712 -2.5595 -1.4651  0.4331
  628MOL0     H84751  14.256  11.260   2.874  1.4577 -0.4339 -1.6720
  628MOL0     H84752  14.235  11.478   2.778  0.3491  0.2777  0.1592
  628MOL0     H84753  14.209  11.410   2.623 -1.1525 -3.2317  1.1738
  628MOL0     H84754  14.458  11.392   2.794 -2.8643 -1.6698  2.2378
  628MOL0     H84755  14.439  11.317   2.632 -1.2394  0.3766 -1.0879
  628MOL0     H84756  14.437  11.611   2.698 -1.2618  0.2652  1.1600
  628MOL0     H84757  14.380  11.563   2.539  1.0305 -0.6066 -1.1246
  628MOL0     H84758  14.578  11.430   2.479  0.1773  1.0654 -1.7833
  628MOL0     H84759  14.603  11.596   2.495 -2.1868 -1.3508 -1.6536
  628MOL0     H84760  13.645  10.931   3.116 -1.0815 -0.5213  0.6461
  628MOL0     H84761  13.401  10.927   3.137 -1.7284 -0.3833  0.0003
  628MOL0     H84762  13.013  10.874   3.025 -0.8691 -0.1245 -0.6545
  628MOL0     H84763  12.770  10.851   3.050 -0.4834  0.8272 -0.9376
  628MOL0     H84764  10.899  11.437   2.540  2.3545 -0.7653  2.3107
  628MOL0     H84765  10.680  11.414   2.458 -4.1328 -2.3085 -0.5599
  628MOL0     H84766  10.407  10.975   2.397 -0.3154  0.3519  1.0324
  628MOL0     H84767  10.189  10.848   2.336 -1.2584 -0.2884  0.9429
  628MOL0     H84768   9.884  11.055   2.091 -0.1298  0.2573  0.5986
  628MOL0     H84769   9.848  11.135   2.244  0.6381  0.1304 -0.3138
  628MOL0     H84770   9.652  11.028   2.162  2.5754  2.6502 -0.7663
  628MOL0     H84771   9.709  10.966   2.319 -0.5338 -3.2099  0.1677
  628MOL0     H84772   9.631  10.785   2.195 -0.6754 -1.1013 -2.2869
  628MOL0     H84773   9.809  10.772   2.214  1.2439  2.1679 -2.2298
  628MOL0     H84774   9.656  10.889   1.978 -2.2587 -0.1435  3.0458
  628MOL0     H84775   9.832  10.860   1.979  0.6810 -1.0004  0.5911
  628MOL0     H84776   9.679  10.471   1.888  2.3693 -0.8992  0.4114
  628MOL0     H84777  10.040  11.236   2.188  1.2892  0.4985 -0.3127
  628MOL0     H84778  10.297  11.369   2.099 -2.2524 -1.9879 -0.7108
  628MOL0     H84779  10.160  11.419   2.197 -1.2803 -0.4580 -3.5450
  628MOL0     H84780  10.316  11.415   2.277  1.5122 -0.6905 -0.3748
  629MOL0     O84781   5.252   0.046   8.394  0.4779 -0.6302 -0.3856
  629MOL0     C84782   5.212   0.159   8.421  0.0723  0.3534 -0.2303
  629MOL0     O84783   5.285   0.239   8.497  0.9148 -0.1031  0.1020
  629MOL0     C84784   5.412   0.217   8.537 -0.5142  0.4259 -0.3694
  629MOL0     C84785   5.513   0.298   8.474  0.3171  0.5483 -0.7565
  629MOL0     C84786   5.649   0.274   8.511  0.2694 -0.6687  0.0352
  629MOL0     C84787   5.685   0.180   8.612 -0.2656 -0.8752  0.1279
  629MOL0     O84788   5.814   0.172   8.667 -0.4749 -0.6427 -0.5202
  629MOL0     C84789   5.924   0.164   8.563 -0.3660  0.2954 -0.4384
  629MOL0     C84790   6.061   0.195   8.616 -0.5583  0.0960  0.2581
  629MOL0     C84791   6.176   0.159   8.518  0.0633 -0.6440 -0.0169
  629MOL0     C84792   6.311   0.195   8.579  1.3819 -0.2130 -0.7813
  629MOL0     C84793   6.422   0.194   8.481  0.2939  0.7207  1.0591
  629MOL0     C84794   6.544   0.245   8.541 -0.8388 -0.5128 -0.1532
  629MOL0     C84795   6.648   0.277   8.439 -0.1532  0.3968 -0.1774
  629MOL0     C84796   6.735   0.154   8.408  0.2445 -0.1195 -0.9160
  629MOL0     N84797   6.667   0.059   8.320  0.0815  0.0534  0.2181
  629MOL0     C84798   6.602   0.095   8.207  0.0761 -0.4524  0.5239
  629MOL0     C84799   6.567  -0.019   8.146  0.2472 -0.0628  0.8047
  629MOL0     C84800   6.495  -0.024   8.021  1.3085 -0.3131 -0.0525
  629MOL0     C84801   6.387   0.086   8.014  0.7888 -0.7328  0.3360
  629MOL0     C84802   6.279   0.057   7.908 -0.1181  0.0610  0.2470
  629MOL0     C84803   6.320   0.006   7.768 -0.9859  0.2962  0.7033
  629MOL0     O84804   6.355   0.119   7.692 -0.4714  0.7983 -0.4981
  629MOL0     C84805   6.488   0.134   7.679  0.1164 -0.3816  0.2713
  629MOL0     C84806   6.566   0.053   7.599 -0.8151 -0.1220 -0.2905
  629MOL0     C84807   6.703   0.081   7.586  0.1117 -0.8095  0.5714
  629MOL0     C84808   6.761   0.194   7.638  0.1688 -0.0962  0.3267
  629MOL0     C84809   6.903   0.236   7.617  0.0723  0.4864 -0.5165
  629MOL0     O84810   6.931   0.365   7.661  0.2692 -0.5430 -0.2790
  629MOL0     C84811   7.063   0.402   7.670  0.3051  0.0053  0.0427
  629MOL0     C84812   7.140   0.323   7.754 -0.2441 -0.0441 -0.0289
  629MOL0     C84813   7.275   0.346   7.769  0.6171 -0.0442 -0.6081
  629MOL0     C84814   7.335   0.443   7.692 -0.9251 -0.5618 -0.1520
  629MOL0     O84815   7.468   0.457   7.709  0.2565 -0.1279 -0.1778
  629MOL0     C84816   7.541   0.539   7.614  0.1906  0.4685 -0.8662
  629MOL0     C84817   7.689   0.494   7.611  0.6084  0.0345  0.2909
  629MOL0     C84818   7.792   0.590   7.549 -0.1797 -0.4509  0.3059
  629MOL0     C84819   7.935   0.547   7.594 -0.7106 -0.3823  0.2127
  629MOL0     C84820   8.036   0.640   7.544  0.4020  1.0603 -0.3032
  629MOL0     C84821   8.185   0.593   7.569  0.4228 -0.5611 -0.6713
  629MOL0     C84822   8.302   0.678   7.519  0.1382 -0.3094 -0.0595
  629MOL0     C84823   8.439   0.618   7.546 -0.8847 -0.2203  0.1813
  629MOL0    Cl84824   8.567   0.692   7.431 -0.5318  0.3143 -0.2226
  629MOL0     C84825   7.258   0.533   7.622 -0.0487  0.3265  0.0593
  629MOL0     C84826   7.124   0.511   7.600  0.5099  0.6492 -0.1162
  629MOL0     O84827   6.982   0.159   7.565  0.1087  0.2579  0.3666
  629MOL0     C84828   6.679   0.276   7.716 -0.4615 -0.5077  0.4596
  629MOL0     C84829   6.550   0.242   7.733 -0.0175 -0.3029  0.7661
  629MOL0     N84830   6.603  -0.126   8.225 -0.8571 -0.0046  0.3195
  629MOL0     N84831   6.665  -0.078   8.331 -0.1374 -0.0560  0.3070
  629MOL0     C84832   5.584   0.108   8.676 -0.0122 -1.0746  0.1750
  629MOL0     C84833   5.449   0.126   8.636 -0.5159  0.2375 -0.1873
  629MOL0     C84834   5.082   0.203   8.355 -0.4206 -0.6088  0.3608
  629MOL0     C84835   5.033   0.333   8.381 -0.6187 -0.0105 -0.0099
  629MOL0     C84836   4.918   0.389   8.325  0.5293  0.2014  0.1075
  629MOL0     C84837   4.841   0.311   8.233  0.4749  0.4539  0.0798
  629MOL0     O84838   4.719   0.360   8.191 -0.1458  0.2074  0.7504
  629MOL0     C84839   4.608   0.271   8.180  0.6935 -0.1819 -0.1121
  629MOL0     C84840   4.548   0.259   8.328  0.4788  0.3932 -0.8243
  629MOL0     C84841   4.544   0.389   8.404 -0.7224 -0.3107 -0.1690
  629MOL0     C84842   4.446   0.484   8.330 -0.2560 -0.0031  0.0055
  629MOL0     C84843   4.308   0.473   8.369  0.5452 -0.0418  0.5023
  629MOL0     C84844   4.195   0.458   8.407 -0.6455  0.3058  0.4178
  629MOL0     C84845   4.891   0.184   8.202  0.1193  0.0656  0.1433
  629MOL0     C84846   5.015   0.128   8.261  0.2991  0.6927  0.8687
  629MOL0     C84847   5.051  -0.011   8.220 -0.0760 -0.6092  1.0634
  629MOL0     H84848   5.492   0.384   8.411  0.1727  0.4426 -0.8537
  629MOL0     H84849   5.721   0.345   8.471  0.7747 -1.2154 -0.0196
  629MOL0     H84850   5.917   0.061   8.528 -1.9669  0.8309 -1.8355
  629MOL0     H84851   5.917   0.229   8.475  1.2021 -2.1819 -2.5253
  629MOL0     H84852   6.070   0.141   8.710  1.8323  0.0613  0.0896
  629MOL0     H84853   6.066   0.300   8.648  0.8831  0.5719 -1.3585
  629MOL0     H84854   6.154   0.224   8.433 -3.4181 -0.9576  0.4773
  629MOL0     H84855   6.171   0.052   8.495 -2.5716 -0.8468  1.0880
  629MOL0     H84856   6.306   0.290   8.632  0.8374 -0.9191  0.4780
  629MOL0     H84857   6.342   0.122   8.654 -0.0234 -0.9701 -0.9005
  629MOL0     H84858   6.439   0.097   8.432 -2.8186  0.9461 -0.7731
  629MOL0     H84859   6.401   0.255   8.393  1.5925 -1.1445 -0.6259
  629MOL0     H84860   6.515   0.328   8.606 -1.5708  1.3405 -2.7301
  629MOL0     H84861   6.590   0.169   8.606 -1.2231  1.6390  2.8131
  629MOL0     H84862   6.710   0.357   8.480  0.4118 -1.1926  2.3014
  629MOL0     H84863   6.598   0.305   8.346 -0.2603 -0.8653 -0.5263
  629MOL0     H84864   6.824   0.183   8.351  1.4155 -0.0146  0.8792
  629MOL0     H84865   6.766   0.097   8.496  1.2055  1.5474 -0.1174
  629MOL0     H84866   6.588   0.193   8.161 -2.1596 -0.3761  1.2529
  629MOL0     H84867   6.569  -0.000   7.944  0.9140  3.5275  0.5704
  629MOL0     H84868   6.447  -0.122   8.009  0.1108  0.3183 -0.6428
  629MOL0     H84869   6.335   0.098   8.109 -0.3962 -0.6151 -0.2962
  629MOL0     H84870   6.436   0.182   7.990  0.8925 -0.8944 -0.1167
  629MOL0     H84871   6.226   0.152   7.891  1.3076  0.5220 -2.1590
  629MOL0     H84872   6.206  -0.013   7.951 -0.6625  0.6133  0.2386
  629MOL0     H84873   6.242  -0.049   7.715  0.0663  0.7320 -1.3650
  629MOL0     H84874   6.404  -0.062   7.783 -0.8452  0.2491 -0.2900
  629MOL0     H84875   6.535  -0.035   7.544 -0.6806 -0.1466 -0.3259
  629MOL0     H84876   6.759   0.009   7.527  1.1254 -0.7145  1.3719
  629MOL0     H84877   7.096   0.249   7.819 -0.1100  0.3825  0.5600
  629MOL0     H84878   7.345   0.284   7.824  0.7845  0.9791  0.3623
  629MOL0     H84879   7.502   0.525   7.512 -1.9886  0.2722 -0.0699
  629MOL0     H84880   7.535   0.643   7.648 -2.3746 -0.8233  3.4501
  629MOL0     H84881   7.734   0.462   7.705  1.1235  0.9004  0.3517
  629MOL0     H84882   7.684   0.401   7.552  0.4070  0.2150  0.0141
  629MOL0     H84883   7.779   0.583   7.440  1.2606 -0.6115  0.1166
  629MOL0     H84884   7.776   0.695   7.574 -1.1228 -0.2410 -1.0903
  629MOL0     H84885   7.954   0.446   7.556  0.1152  0.0034 -0.4239
  629MOL0     H84886   7.951   0.544   7.702 -0.2002  0.3614  0.1658
  629MOL0     H84887   8.021   0.741   7.586  1.8419  1.7448 -1.3469
  629MOL0     H84888   8.025   0.655   7.436 -2.3166  0.8265 -0.1157
  629MOL0     H84889   8.193   0.591   7.678  0.6734 -3.0215 -0.6773
  629MOL0     H84890   8.199   0.491   7.534 -1.3755 -0.7125 -1.0553
  629MOL0     H84891   8.311   0.772   7.575  0.2668 -0.6661  0.5287
  629MOL0     H84892   8.291   0.692   7.411 -1.8274 -4.0990 -0.5072
  629MOL0     H84893   8.480   0.620   7.647 -0.7237 -2.1224  0.1877
  629MOL0     H84894   8.432   0.511   7.522 -0.1070 -0.3779  0.6274
  629MOL0     H84895   7.316   0.607   7.568  0.5185 -0.2938 -0.1952
  629MOL0     H84896   7.070   0.578   7.534  2.2193  2.4432  0.2181
  629MOL0     H84897   6.715   0.364   7.769 -0.5459 -1.4260  2.0930
  629MOL0     H84898   6.491   0.317   7.785  1.1318  2.8173 -2.0365
  629MOL0     H84899   5.610   0.042   8.757  1.2752 -0.1737  0.5331
  629MOL0     H84900   5.365   0.075   8.682 -0.9038  1.4941  0.5408
  629MOL0     H84901   5.085   0.391   8.456  0.5884 -2.0277  0.8100
  629MOL0     H84902   4.892   0.491   8.353  3.8848  1.5556 -1.1894
  629MOL0     H84903   4.629   0.175   8.130  0.6613 -0.5171  0.5049
  629MOL0     H84904   4.540   0.316   8.107  1.0150 -0.3617 -0.5264
  629MOL0     H84905   4.615   0.196   8.386 -0.9720 -0.7724 -0.3860
  629MOL0     H84906   4.445   0.223   8.336 -0.0666  1.8324 -0.9727
  629MOL0     H84907   4.638   0.445   8.408  0.0660 -1.5972  3.8540
  629MOL0     H84908   4.501   0.378   8.504 -0.2744 -0.0362  0.0598
  629MOL0     H84909   4.466   0.589   8.357  1.4296  1.2366 -4.9582
  629MOL0     H84910   4.466   0.482   8.223 -0.9186 -4.1252 -0.1925
  629MOL0     H84911   4.097   0.435   8.444 -0.8021 -1.1471 -0.7841
  629MOL0     H84912   4.827   0.126   8.137 -0.9604  1.0565  0.2942
  629MOL0     H84913   5.052  -0.080   8.305 -3.1405 -1.1337  0.7802
  629MOL0     H84914   4.976  -0.054   8.154  0.6175 -0.0457 -0.1235
  629MOL0     H84915   5.152  -0.013   8.177  0.1201  1.3202  1.3216
  630MOL0     O84916   8.468   3.231   5.980 -0.7021 -0.1173 -0.3180
  630MOL0     C84917   8.437   3.183   6.090 -0.5585 -0.5026  0.1871
  630MOL0     O84918   8.512   3.204   6.198 -0.1596  0.3064 -0.7989
  630MOL0     C84919   8.632   3.275   6.185 -0.4075  0.3289 -0.9086
  630MOL0     C84920   8.729   3.240   6.092  0.1761  0.0577 -0.0414
  630MOL0     C84921   8.848   3.306   6.087 -0.1875 -0.4627  1.0672
  630MOL0     C84922   8.876   3.421   6.159  0.2355  1.0754 -0.1313
  630MOL0     O84923   8.994   3.485   6.142 -0.6544 -0.1193 -0.0680
  630MOL0     C84924   8.988   3.626   6.174  0.5096 -1.1710 -0.0990
  630MOL0     C84925   9.113   3.690   6.121  0.4482  0.5827  0.2943
  630MOL0     C84926   9.234   3.610   6.157 -0.4193 -0.5183  0.0125
  630MOL0     C84927   9.354   3.704   6.132  0.7069 -0.3867  1.0659
  630MOL0     C84928   9.480   3.636   6.160 -0.1193  0.4375 -0.0211
  630MOL0     C84929   9.607   3.716   6.124  0.1802  0.4869  0.5905
  630MOL0     C84930   9.730   3.619   6.125  0.2906 -0.1260 -1.2452
  630MOL0     C84931   9.780   3.607   6.272 -0.4202  0.4032 -0.5538
  630MOL0     N84932   9.855   3.720   6.320 -0.9460  0.2218  0.1222
  630MOL0     C84933   9.991   3.737   6.305 -0.6219 -0.4283 -0.0130
  630MOL0     C84934  10.021   3.862   6.362  0.1497  0.0949  1.2638
  630MOL0     C84935  10.161   3.929   6.368  0.0495  0.7181  0.2552
  630MOL0     C84936  10.176   4.037   6.262 -0.2643 -0.1958 -0.1683
  630MOL0     C84937  10.289   4.141   6.301 -0.0368 -0.1250 -0.1000
  630MOL0     C84938  10.421   4.082   6.327 -0.1146  0.3390 -0.1495
  630MOL0     O84939  10.510   4.185   6.358 -0.5952  0.3858  0.1568
  630MOL0     C84940  10.642   4.157   6.383 -0.0769  0.1406  0.2964
  630MOL0     C84941  10.733   4.252   6.342 -0.0738 -0.4157 -0.2076
  630MOL0     C84942  10.868   4.219   6.350  0.2935  0.6472  0.3967
  630MOL0     C84943  10.913   4.096   6.409  0.3565 -0.7449  0.7888
  630MOL0     C84944  11.061   4.066   6.404  0.0705  0.0543 -0.5884
  630MOL0     O84945  11.097   3.960   6.488  0.2922 -0.6603  0.9103
  630MOL0     C84946  11.234   3.928   6.492 -0.5753 -0.1383 -0.6985
  630MOL0     C84947  11.322   3.925   6.383  0.7188  0.2523 -0.2621
  630MOL0     C84948  11.459   3.893   6.407  0.1258 -0.3476 -0.1295
  630MOL0     C84949  11.502   3.866   6.536 -0.6703 -0.3910  0.5427
  630MOL0     O84950  11.639   3.855   6.547  0.6679 -0.3769 -0.1362
  630MOL0     C84951  11.694   3.877   6.682  0.5736 -0.5044 -0.1109
  630MOL0     C84952  11.842   3.862   6.687  0.3568  0.6054  0.0037
  630MOL0     C84953  11.922   3.960   6.597  0.4001 -0.6458  0.3421
  630MOL0     C84954  12.075   3.954   6.610  0.1163 -0.4861  0.7598
  630MOL0     C84955  12.132   4.062   6.526 -0.2706 -0.6444 -0.0346
  630MOL0     C84956  12.289   4.061   6.516 -0.6073 -0.3700  0.5165
  630MOL0     C84957  12.361   3.950   6.474 -0.4050  0.4999  0.7634
  630MOL0     C84958  12.320   3.887   6.330 -0.2802 -1.0277 -0.8870
  630MOL0    Cl84959  12.365   3.707   6.337  0.3655  0.2166 -0.2610
  630MOL0     C84960  11.415   3.866   6.643 -0.1045 -0.3320 -0.1078
  630MOL0     C84961  11.286   3.900   6.621  0.4720 -0.3506 -0.3256
  630MOL0     O84962  11.137   4.136   6.342  0.2020 -0.4769 -0.2030
  630MOL0     C84963  10.815   4.007   6.450 -0.9811 -0.1586  0.5145
  630MOL0     C84964  10.679   4.029   6.429  0.2204 -0.0662  0.2292
  630MOL0     N84965   9.903   3.921   6.391  0.4262 -0.6218 -0.1529
  630MOL0     N84966   9.808   3.839   6.362 -0.0915  0.1166 -0.2954
  630MOL0     C84967   8.783   3.459   6.252  0.1076  0.0637 -0.1428
  630MOL0     C84968   8.662   3.387   6.264  1.3233  0.1567  0.2633
  630MOL0     C84969   8.324   3.090   6.092  0.2626  0.0334 -0.5206
  630MOL0     C84970   8.214   3.113   6.002  0.3294 -0.1330 -0.0508
  630MOL0     C84971   8.101   3.025   5.997  0.0741 -1.0359  0.5142
  630MOL0     C84972   8.092   2.917   6.083  0.4980 -0.3016  0.1339
  630MOL0     O84973   7.980   2.839   6.074 -0.0250  0.1815 -0.0044
  630MOL0     C84974   7.939   2.745   6.175 -0.2731  0.1595  0.2336
  630MOL0     C84975   7.789   2.754   6.167  0.5408  0.2409 -0.3975
  630MOL0     C84976   7.730   2.675   6.284 -0.1617 -0.1963 -0.3463
  630MOL0     C84977   7.574   2.698   6.281 -0.0744  0.0550 -0.6947
  630MOL0     C84978   7.519   2.659   6.408  0.0126  0.8993  0.0726
  630MOL0     C84979   7.461   2.641   6.513  0.7706 -0.6949 -0.5527
  630MOL0     C84980   8.201   2.879   6.158 -1.0975  0.8607 -0.3475
  630MOL0     C84981   8.314   2.969   6.166 -0.9313  0.3837  0.0183
  630MOL0     C84982   8.424   2.907   6.249 -0.4310  0.7798  0.0936
  630MOL0     H84983   8.707   3.148   6.040  0.1908  1.1098 -1.9974
  630MOL0     H84984   8.916   3.294   6.003  0.6296  2.8832  1.1147
  630MOL0     H84985   8.903   3.679   6.130 -0.2134 -0.7275  1.7548
  630MOL0     H84986   8.994   3.644   6.282  0.6719  1.0600 -0.4420
  630MOL0     H84987   9.103   3.789   6.165 -0.3442  0.6563 -0.0305
  630MOL0     H84988   9.108   3.703   6.012 -1.8310 -0.0074  0.2619
  630MOL0     H84989   9.247   3.523   6.091  1.1183  0.2680 -0.7690
  630MOL0     H84990   9.222   3.585   6.263  1.1435 -0.4100  0.2476
  630MOL0     H84991   9.353   3.748   6.032 -2.3458  0.1991  1.2477
  630MOL0     H84992   9.346   3.785   6.206  0.9279  0.7419 -0.1146
  630MOL0     H84993   9.484   3.594   6.262  0.9796  1.5254  0.4098
  630MOL0     H84994   9.483   3.549   6.093 -0.2913  1.5075 -1.4503
  630MOL0     H84995   9.601   3.755   6.022  1.3297 -3.5263 -1.2041
  630MOL0     H84996   9.617   3.804   6.188 -1.9246  0.4946  0.9800
  630MOL0     H84997   9.806   3.656   6.055 -0.3818  0.9916 -1.4179
  630MOL0     H84998   9.689   3.521   6.099  1.1990 -0.5752 -1.0161
  630MOL0     H84999   9.697   3.607   6.343  0.0961  3.5606  0.2316
  630MOL0     H85000   9.841   3.518   6.285  0.7795  1.2889  0.1286
  630MOL0     H85001  10.073   3.678   6.264  1.3404  1.0628  1.5723
  630MOL0     H85002  10.177   3.954   6.473 -1.2798 -0.7914  0.8603
  630MOL0     H85003  10.242   3.860   6.343 -0.1097  0.7357 -0.3193
  630MOL0     H85004  10.196   3.983   6.169  0.0046 -3.1131  1.4490
  630MOL0     H85005  10.087   4.093   6.232  0.5621  0.4404 -1.5209
  630MOL0     H85006  10.259   4.200   6.388  0.4724  1.3391 -0.8787
  630MOL0     H85007  10.298   4.214   6.220 -0.4798 -1.4978 -1.4351
  630MOL0     H85008  10.445   4.020   6.241  0.9111  0.8980 -0.2795
  630MOL0     H85009  10.416   4.019   6.417  0.3458  0.4186 -0.0684
  630MOL0     H85010  10.705   4.350   6.302 -2.6281 -1.0324 -0.0715
  630MOL0     H85011  10.940   4.289   6.312 -0.2614  0.3426 -1.2852
  630MOL0     H85012  11.288   3.950   6.283 -1.6515 -0.9982  0.1688
  630MOL0     H85013  11.537   3.896   6.331  0.2768 -0.4564  0.0195
  630MOL0     H85014  11.668   3.980   6.707  1.6861 -0.8894  3.0976
  630MOL0     H85015  11.649   3.805   6.752 -0.9496  0.1473 -0.3784
  630MOL0     H85016  11.872   3.876   6.791  1.0850  0.4201 -0.1794
  630MOL0     H85017  11.879   3.761   6.667  2.1910  0.8287  1.9324
  630MOL0     H85018  11.897   3.944   6.492 -1.0866  3.0226  0.0151
  630MOL0     H85019  11.887   4.058   6.630 -0.1856 -0.6962 -0.1130
  630MOL0     H85020  12.120   3.859   6.580  0.9850 -0.5005  2.0608
  630MOL0     H85021  12.101   3.969   6.715 -0.5217 -0.9079  0.9891
  630MOL0     H85022  12.113   4.159   6.571 -3.5549 -1.4375  0.5080
  630MOL0     H85023  12.091   4.072   6.425  0.9801 -1.6752 -0.6825
  630MOL0     H85024  12.311   4.126   6.430 -1.3859 -0.5323  0.1879
  630MOL0     H85025  12.325   4.110   6.607 -3.6706 -0.2438  1.7818
  630MOL0     H85026  12.333   3.872   6.546  0.3912 -0.7689 -0.2507
  630MOL0     H85027  12.468   3.976   6.468 -1.2351  4.0967 -1.8754
  630MOL0     H85028  12.213   3.896   6.308 -0.3855  1.2426  0.2516
  630MOL0     H85029  12.372   3.939   6.250  2.4241  0.1055  1.4346
  630MOL0     H85030  11.435   3.842   6.747  1.0340 -0.8240 -0.4204
  630MOL0     H85031  11.226   3.912   6.711  0.9695  0.1773 -0.0568
  630MOL0     H85032  10.847   3.910   6.485  0.2716 -0.5874 -1.6428
  630MOL0     H85033  10.607   3.961   6.474 -0.7648  1.2294  0.7061
  630MOL0     H85034   8.786   3.555   6.303 -0.6453  0.2443 -0.4195
  630MOL0     H85035   8.590   3.412   6.342 -0.0788 -0.1079 -0.9007
  630MOL0     H85036   8.212   3.203   5.940 -3.3842 -0.4280 -0.5725
  630MOL0     H85037   8.013   3.037   5.934  0.3399 -1.2693  0.1011
  630MOL0     H85038   7.976   2.765   6.276 -0.1434 -2.5070  0.7887
  630MOL0     H85039   7.981   2.646   6.153 -1.1018 -0.0864 -0.2976
  630MOL0     H85040   7.746   2.714   6.074  0.2551 -0.4541  0.0221
  630MOL0     H85041   7.760   2.858   6.178 -0.7732  0.0508 -1.7114
  630MOL0     H85042   7.776   2.714   6.376 -0.0411 -0.9927 -0.0601
  630MOL0     H85043   7.750   2.568   6.280 -0.1088 -0.2402  0.6767
  630MOL0     H85044   7.540   2.801   6.266 -1.3034  0.1860  2.2440
  630MOL0     H85045   7.543   2.643   6.192  0.6096  0.0275 -0.9231
  630MOL0     H85046   7.400   2.627   6.600 -1.0289 -1.0185 -1.8028
  630MOL0     H85047   8.195   2.784   6.209 -1.0653  1.1399  0.1872
  630MOL0     H85048   8.521   2.955   6.231  0.2487 -0.2093  1.0075
  630MOL0     H85049   8.411   2.905   6.358  0.3231  1.6055  0.2121
  630MOL0     H85050   8.449   2.803   6.228  2.7137  1.2735  0.8877
  631MOL0     O85051   1.490  10.492   1.493 -0.6250  0.0741 -0.6178
  631MOL0     C85052   1.441  10.605   1.497 -0.0261 -0.3918 -0.3332
  631MOL0     O85053   1.508  10.715   1.548  0.1158 -0.1680  0.5989
  631MOL0     C85054   1.635  10.692   1.589 -1.4849  0.0736 -0.2187
  631MOL0     C85055   1.661  10.624   1.713 -0.3904  0.0394 -0.5189
  631MOL0     C85056   1.793  10.607   1.756  0.2378  0.6058  1.3341
  631MOL0     C85057   1.903  10.638   1.672  0.0447 -1.3423 -0.0053
  631MOL0     O85058   2.034  10.617   1.722  0.3684 -0.0674  0.1532
  631MOL0     C85059   2.150  10.640   1.647 -0.1535 -0.5865 -0.4340
  631MOL0     C85060   2.190  10.509   1.584 -0.3449 -0.6287 -0.8740
  631MOL0     C85061   2.331  10.506   1.517 -1.0267 -0.1231  0.3537
  631MOL0     C85062   2.329  10.535   1.368 -0.7332  0.2176 -0.3110
  631MOL0     C85063   2.475  10.535   1.316  0.1476  0.5358 -0.2013
  631MOL0     C85064   2.543  10.668   1.328  0.0135  0.2136 -0.6607
  631MOL0     C85065   2.623  10.686   1.449  0.3269 -0.7672  0.1131
  631MOL0     C85066   2.759  10.754   1.431  0.3121  0.1331 -0.0565
  631MOL0     N85067   2.747  10.896   1.393 -0.2978 -0.6341  0.5325
  631MOL0     C85068   2.860  10.970   1.383 -0.0483 -0.3079  0.3967
  631MOL0     C85069   2.811  11.092   1.348  0.2733  0.3558  0.4006
  631MOL0     C85070   2.886  11.216   1.328 -0.7741  0.4643 -0.5253
  631MOL0     C85071   3.035  11.195   1.283 -0.6384  0.5828 -0.1942
  631MOL0     C85072   3.104  11.335   1.253  0.2049 -0.9790  0.4412
  631MOL0     C85073   3.107  11.440   1.370 -0.7168 -0.2406  0.1023
  631MOL0     O85074   3.191  11.381   1.473 -0.2209 -0.1411  0.3573
  631MOL0     C85075   3.327  11.412   1.481  0.7607 -0.9987 -0.2675
  631MOL0     C85076   3.402  11.401   1.601 -0.0584  0.5101  0.1390
  631MOL0     C85077   3.543  11.421   1.597  0.5243 -0.3568 -0.2452
  631MOL0     C85078   3.609  11.451   1.479  0.1814 -1.1381  0.1817
  631MOL0     C85079   3.758  11.453   1.465  0.2635 -0.4059 -0.2092
  631MOL0     O85080   3.802  11.472   1.341 -0.8678 -0.3897 -0.0623
  631MOL0     C85081   3.939  11.461   1.325 -0.2456 -0.2687  0.0301
  631MOL0     C85082   3.983  11.354   1.247 -0.5137 -1.0945 -0.3634
  631MOL0     C85083   4.121  11.323   1.253  0.3049  0.3949 -0.4491
  631MOL0     C85084   4.210  11.405   1.324 -0.7816 -0.4031  0.2645
  631MOL0     O85085   4.344  11.377   1.329  0.0852  0.6906 -0.8015
  631MOL0     C85086   4.440  11.485   1.311  0.6723  0.4253  1.2613
  631MOL0     C85087   4.568  11.432   1.254  0.1463 -0.6343  0.0580
  631MOL0     C85088   4.646  11.553   1.194  0.0891  0.7432 -0.3048
  631MOL0     C85089   4.771  11.513   1.122  0.5186 -0.4868 -0.0275
  631MOL0     C85090   4.823  11.634   1.035  0.0603  0.1452  0.3402
  631MOL0     C85091   4.960  11.604   0.981  0.0401 -0.1060  0.2330
  631MOL0     C85092   5.010  11.703   0.879  0.8234 -0.7208 -0.1502
  631MOL0     C85093   5.137  11.643   0.809  0.0614 -0.3205 -0.1616
  631MOL0    Cl85094   5.271  11.616   0.934 -0.0480 -0.0856 -0.1945
  631MOL0     C85095   4.159  11.507   1.406 -0.3841 -0.6162 -0.0997
  631MOL0     C85096   4.025  11.536   1.394  0.7354 -0.3112  0.1597
  631MOL0     O85097   3.826  11.446   1.562 -0.3492  0.2032  0.0618
  631MOL0     C85098   3.529  11.487   1.370  0.1593 -0.7074 -0.6022
  631MOL0     C85099   3.395  11.464   1.362  0.1406 -0.9016  0.6537
  631MOL0     N85100   2.669  11.085   1.320 -0.5958 -0.4963 -0.2750
  631MOL0     N85101   2.631  10.970   1.357 -0.0969  0.1182 -0.1691
  631MOL0     C85102   1.878  10.682   1.540  0.2308 -0.9648  0.4260
  631MOL0     C85103   1.747  10.716   1.501  0.1896 -0.9732 -0.9326
  631MOL0     C85104   1.303  10.628   1.450 -0.2384 -0.9323  0.6897
  631MOL0     C85105   1.257  10.758   1.445 -1.3792 -0.3991 -1.1527
  631MOL0     C85106   1.131  10.786   1.393  0.6368 -0.0079 -0.0902
  631MOL0     C85107   1.045  10.691   1.344  0.0257  0.4341  0.5439
  631MOL0     O85108   0.932  10.722   1.281 -0.0091 -0.8757  0.6682
  631MOL0     C85109   0.947  10.789   1.152  0.5050 -0.0142  0.6423
  631MOL0     C85110   0.808  10.777   1.094 -0.3410  0.3768  0.7852
  631MOL0     C85111   0.763  10.632   1.070 -0.5719  0.1483  0.3147
  631MOL0     C85112   0.628  10.614   0.994 -0.7688 -0.2931 -0.7811
  631MOL0     C85113   0.521  10.691   1.052  0.4849  0.1056  0.4396
  631MOL0     C85114   0.428  10.750   1.111  0.6636  0.5777  0.7805
  631MOL0     C85115   1.081  10.558   1.357  0.2604 -1.2308 -0.3746
  631MOL0     C85116   1.212  10.524   1.410  0.1361  0.0179 -1.0036
  631MOL0     C85117   1.241  10.376   1.441 -1.1466 -0.2788 -0.1852
  631MOL0     H85118   1.574  10.586   1.766  0.6389 -0.4016  0.9137
  631MOL0     H85119   1.828  10.568   1.851 -0.2607  1.3575  1.8434
  631MOL0     H85120   2.128  10.713   1.570  0.0488  1.7920  1.6368
  631MOL0     H85121   2.216  10.690   1.718 -0.4544  2.7226 -2.3122
  631MOL0     H85122   2.105  10.488   1.518 -2.3886 -2.3511  2.0379
  631MOL0     H85123   2.209  10.434   1.661 -0.8312  2.4972  2.5527
  631MOL0     H85124   2.378  10.409   1.538  1.7661  0.0855 -3.7177
  631MOL0     H85125   2.401  10.580   1.558 -0.0703 -0.2909 -0.9191
  631MOL0     H85126   2.272  10.452   1.324 -1.3073  0.5256 -0.1583
  631MOL0     H85127   2.281  10.632   1.354 -0.4089  0.9899  3.0551
  631MOL0     H85128   2.527  10.454   1.369 -0.5986 -1.4837 -2.3765
  631MOL0     H85129   2.479  10.517   1.208  2.6523  0.7909 -0.2083
  631MOL0     H85130   2.606  10.679   1.239 -0.9842  2.8831 -1.1170
  631MOL0     H85131   2.470  10.748   1.314 -0.9155 -0.5912 -0.5413
  631MOL0     H85132   2.635  10.598   1.514  4.2562 -0.1782  0.4680
  631MOL0     H85133   2.566  10.754   1.512  0.7025 -2.6501  2.6687
  631MOL0     H85134   2.816  10.756   1.525 -0.2238  4.0365  0.3754
  631MOL0     H85135   2.811  10.691   1.359 -0.1389 -0.5290  0.1958
  631MOL0     H85136   2.959  10.931   1.408  0.1545  1.0286  1.7730
  631MOL0     H85137   2.841  11.282   1.254 -2.2680 -0.7137 -0.6976
  631MOL0     H85138   2.887  11.270   1.424  2.3392 -3.9269  2.3351
  631MOL0     H85139   3.094  11.142   1.359 -1.1933  0.4949  0.1798
  631MOL0     H85140   3.038  11.138   1.190 -0.2543  3.9575 -2.4494
  631MOL0     H85141   3.050  11.386   1.172 -2.0587 -0.2823  2.2794
  631MOL0     H85142   3.207  11.316   1.221  0.2696  1.3070 -0.9385
  631MOL0     H85143   3.019  11.467   1.430  1.3302  0.7643  2.8541
  631MOL0     H85144   3.152  11.531   1.328 -0.1334 -0.7465 -0.3708
  631MOL0     H85145   3.359  11.356   1.690 -1.4012 -2.2702 -1.7830
  631MOL0     H85146   3.602  11.397   1.685  0.0915 -0.7394 -0.0484
  631MOL0     H85147   3.913  11.288   1.197 -1.3637  0.6177 -1.5335
  631MOL0     H85148   4.165  11.236   1.205  0.7592  0.8152 -0.7969
  631MOL0     H85149   4.395  11.559   1.243  0.3366  0.4156  1.4718
  631MOL0     H85150   4.456  11.528   1.410 -1.4050  2.8466  0.6663
  631MOL0     H85151   4.624  11.378   1.331 -1.9659 -0.2532  1.9696
  631MOL0     H85152   4.540  11.360   1.176  3.1699  0.5575 -2.3044
  631MOL0     H85153   4.576  11.592   1.119 -3.6659 -1.6715  1.5973
  631MOL0     H85154   4.676  11.621   1.274  1.0277  1.0723 -0.9258
  631MOL0     H85155   4.740  11.431   1.056  0.6299  0.7520 -1.7080
  631MOL0     H85156   4.843  11.479   1.197  2.2032  1.7483 -0.5199
  631MOL0     H85157   4.828  11.727   1.093  0.2910 -0.1110  0.7333
  631MOL0     H85158   4.759  11.649   0.947  1.9169  1.0260 -0.9328
  631MOL0     H85159   5.027  11.610   1.067  0.3448  0.5492 -0.0444
  631MOL0     H85160   4.959  11.508   0.928  0.0815  0.0362 -0.0259
  631MOL0     H85161   5.027  11.793   0.939 -1.7239 -0.1455 -0.1575
  631MOL0     H85162   4.926  11.722   0.811 -0.7657 -3.5654  0.8128
  631MOL0     H85163   5.123  11.549   0.754 -0.6700 -0.3612  0.0766
  631MOL0     H85164   5.179  11.711   0.734 -0.0171 -1.9327 -1.7320
  631MOL0     H85165   4.224  11.565   1.471 -1.0183 -0.6223  0.5570
  631MOL0     H85166   4.005  11.631   1.441  0.8579 -0.0667 -0.2743
  631MOL0     H85167   3.565  11.508   1.270 -2.8737  0.2402 -1.5975
  631MOL0     H85168   3.352  11.492   1.267  0.0345  2.8524  1.6539
  631MOL0     H85169   1.961  10.695   1.470 -1.2967 -0.8680 -1.4688
  631MOL0     H85170   1.734  10.772   1.409  0.8967 -1.4702 -1.3435
  631MOL0     H85171   1.322  10.841   1.469  1.4633 -2.0786 -2.4568
  631MOL0     H85172   1.094  10.889   1.390  0.9411  0.0832 -0.8770
  631MOL0     H85173   1.014  10.751   1.074  0.8855 -2.3277  1.9758
  631MOL0     H85174   0.968  10.896   1.162  0.4279 -0.0359  1.0482
  631MOL0     H85175   0.804  10.821   0.994 -0.0696 -1.7232 -0.2059
  631MOL0     H85176   0.732  10.833   1.148 -3.5363 -2.3410 -0.5378
  631MOL0     H85177   0.748  10.586   1.168 -1.7293  2.1897  1.1770
  631MOL0     H85178   0.842  10.575   1.021 -0.0056 -0.4051  1.7840
  631MOL0     H85179   0.634  10.653   0.892  0.6561 -1.3883 -1.1532
  631MOL0     H85180   0.601  10.508   0.985  1.0125 -0.7900 -0.6024
  631MOL0     H85181   0.353  10.806   1.163 -0.7868  0.3476 -0.9417
  631MOL0     H85182   1.012  10.481   1.325 -1.1675 -0.9402  1.8119
  631MOL0     H85183   1.160  10.317   1.397 -3.6459  2.6767  0.1168
  631MOL0     H85184   1.330  10.345   1.385 -0.6552  0.3967  0.2097
  631MOL0     H85185   1.248  10.361   1.549 -0.8933  1.6996  0.1088
  632MOL0     O85186   2.343   0.819   8.425  0.1280  0.4498 -0.5636
  632MOL0     C85187   2.263   0.745   8.367  1.6609 -0.4583 -0.6843
  632MOL0     O85188   2.289   0.641   8.289 -0.5962 -0.2632  0.3879
  632MOL0     C85189   2.419   0.590   8.290  0.2858  0.0245 -0.4260
  632MOL0     C85190   2.458   0.474   8.358 -0.4793 -0.1656  0.5901
  632MOL0     C85191   2.587   0.413   8.350  0.5798 -0.4836 -0.1004
  632MOL0     C85192   2.676   0.479   8.269  0.5236 -0.4872  0.6197
  632MOL0     O85193   2.799   0.424   8.256 -0.0330 -0.4411  0.8125
  632MOL0     C85194   2.798   0.323   8.152  0.2309 -0.2188 -0.3107
  632MOL0     C85195   2.923   0.233   8.173 -0.1357  0.1580 -0.2700
  632MOL0     C85196   3.063   0.308   8.151  0.6114 -0.2286 -0.0878
  632MOL0     C85197   3.162   0.196   8.119  0.3858 -0.1178 -0.0233
  632MOL0     C85198   3.293   0.244   8.065 -1.3897  0.0304  0.1571
  632MOL0     C85199   3.359   0.319   8.177 -0.7244  0.2047 -0.4091
  632MOL0     C85200   3.514   0.308   8.171  0.3136 -1.1277 -0.9535
  632MOL0     C85201   3.573   0.173   8.207  0.7596 -0.0514 -0.4615
  632MOL0     N85202   3.692   0.164   8.136 -0.2881 -0.1739  0.3980
  632MOL0     C85203   3.792   0.252   8.163 -1.1497 -0.3269  1.1427
  632MOL0     C85204   3.898   0.210   8.091 -0.3405 -0.2815 -0.1346
  632MOL0     C85205   4.034   0.278   8.072  0.3041 -0.1192  0.2131
  632MOL0     C85206   4.117   0.183   7.987 -0.1890 -0.2218  0.8277
  632MOL0     C85207   4.247   0.253   7.940 -0.0469 -0.4986 -0.4398
  632MOL0     C85208   4.351   0.138   7.906  0.2042  0.5887 -0.4411
  632MOL0     O85209   4.476   0.206   7.896 -0.7374 -1.1947  0.0544
  632MOL0     C85210   4.581   0.123   7.874  0.2775  0.6289 -0.8582
  632MOL0     C85211   4.702   0.183   7.876  1.1311 -0.5368 -0.0967
  632MOL0     C85212   4.820   0.115   7.851  0.3222 -0.7730 -0.5677
  632MOL0     C85213   4.813  -0.024   7.806  0.2388 -0.1412  0.1877
  632MOL0     C85214   4.933  -0.100   7.765  0.4278 -0.0468 -0.2365
  632MOL0     O85215   5.042  -0.022   7.754  0.1801 -0.1402 -0.8098
  632MOL0     C85216   5.162  -0.085   7.745 -0.9581 -0.4981  0.2514
  632MOL0     C85217   5.231  -0.133   7.859 -0.1153  0.0736  0.3618
  632MOL0     C85218   5.348  -0.217   7.850 -0.8039 -1.3361  0.0963
  632MOL0     C85219   5.396  -0.250   7.723 -0.0261 -0.6366  0.0819
  632MOL0     O85220   5.503  -0.340   7.732 -0.1454 -0.5254  0.1216
  632MOL0     C85221   5.580  -0.341   7.611  0.2263 -0.0566 -0.4979
  632MOL0     C85222   5.703  -0.442   7.625 -0.2645 -0.0987  0.7016
  632MOL0     C85223   5.803  -0.407   7.733  0.5096 -0.7927 -1.3560
  632MOL0     C85224   5.936  -0.375   7.671 -0.2922 -0.5233 -0.3042
  632MOL0     C85225   6.010  -0.495   7.610 -0.5510  0.4466  0.2113
  632MOL0     C85226   6.156  -0.468   7.589  0.0433  0.8480  0.6249
  632MOL0     C85227   6.234  -0.421   7.707  0.4378 -0.6451  1.0767
  632MOL0     C85228   6.384  -0.453   7.695  0.1303 -0.1596 -0.0068
  632MOL0    Cl85229   6.461  -0.325   7.588 -0.3064 -0.2287 -0.3849
  632MOL0     C85230   5.324  -0.205   7.608 -0.0504 -0.1238  0.1960
  632MOL0     C85231   5.207  -0.122   7.619  0.4327 -0.1005 -1.0373
  632MOL0     O85232   4.923  -0.224   7.766 -0.4559  0.4681  0.0690
  632MOL0     C85233   4.687  -0.078   7.788  0.5720  0.0804  0.4861
  632MOL0     C85234   4.574  -0.012   7.828  0.4968 -0.8461 -0.2929
  632MOL0     N85235   3.862   0.085   8.034  0.2874 -0.4439 -0.6654
  632MOL0     N85236   3.738   0.064   8.058 -0.3230  0.5752 -0.0135
  632MOL0     C85237   2.644   0.599   8.196 -0.0325  0.2966  0.6975
  632MOL0     C85238   2.512   0.648   8.214  0.3519  0.0829  0.6536
  632MOL0     C85239   2.126   0.778   8.404 -0.4341 -0.2507 -0.6270
  632MOL0     C85240   2.092   0.847   8.523 -0.2814  0.9318 -0.8921
  632MOL0     C85241   1.969   0.877   8.571 -0.1647 -0.5098  0.4020
  632MOL0     C85242   1.864   0.863   8.480  0.0085  0.0345 -0.0559
  632MOL0     O85243   1.739   0.895   8.526  0.1056 -0.6661 -0.2927
  632MOL0     C85244   1.624   0.880   8.438  0.0455  1.0716 -0.5250
  632MOL0     C85245   1.500   0.947   8.501  0.3545 -0.0448 -0.4478
  632MOL0     C85246   1.520   1.075   8.575  0.1629 -0.5321  0.0431
  632MOL0     C85247   1.400   1.141   8.634  0.4109 -1.3159 -0.4125
  632MOL0     C85248   1.445   1.251   8.734 -0.3772  0.3767  0.1656
  632MOL0     C85249   1.490   1.344   8.800 -0.1941  0.3047 -0.5353
  632MOL0     C85250   1.884   0.802   8.351 -0.5675 -0.1091 -1.0997
  632MOL0     C85251   2.013   0.759   8.316  0.2350  0.2806  0.2541
  632MOL0     C85252   2.022   0.691   8.182 -0.1597  0.3546  0.2827
  632MOL0     H85253   2.383   0.424   8.418 -0.2097  2.5189  3.4220
  632MOL0     H85254   2.615   0.327   8.409  4.9765  1.6543  1.4189
  632MOL0     H85255   2.702   0.270   8.147  0.5397 -0.9968  1.3444
  632MOL0     H85256   2.796   0.372   8.055 -2.1538 -1.8822 -1.1976
  632MOL0     H85257   2.925   0.147   8.105  0.2392 -0.9241  1.0833
  632MOL0     H85258   2.938   0.186   8.270 -1.4787 -1.4345 -0.7688
  632MOL0     H85259   3.087   0.362   8.243  0.3693  0.7104 -0.5602
  632MOL0     H85260   3.050   0.384   8.074 -1.8099  0.0381  0.4835
  632MOL0     H85261   3.181   0.127   8.202  2.5766 -0.5407 -0.8169
  632MOL0     H85262   3.123   0.134   8.038  1.7654 -1.0324 -0.0144
  632MOL0     H85263   3.350   0.158   8.029 -1.4473 -0.1268  0.4425
  632MOL0     H85264   3.288   0.314   7.981 -2.5586  0.6505  0.7131
  632MOL0     H85265   3.324   0.423   8.169 -1.3503 -0.0974 -1.8772
  632MOL0     H85266   3.327   0.279   8.274 -1.0103  0.2369 -0.4899
  632MOL0     H85267   3.558   0.386   8.233 -0.7439 -0.4475 -1.0296
  632MOL0     H85268   3.533   0.326   8.065 -2.7572  0.1623 -1.3804
  632MOL0     H85269   3.592   0.168   8.314  1.0310  1.4414 -0.4125
  632MOL0     H85270   3.515   0.088   8.170  1.9713 -0.5560 -1.2787
  632MOL0     H85271   3.781   0.344   8.220 -1.1098 -0.4118  1.2881
  632MOL0     H85272   4.022   0.380   8.037 -1.5494  0.9845  3.6032
  632MOL0     H85273   4.086   0.282   8.168  0.5639 -0.7408  0.1015
  632MOL0     H85274   4.145   0.098   8.050 -0.9996 -1.1870 -0.0783
  632MOL0     H85275   4.067   0.134   7.903  0.5738  1.1308 -0.4597
  632MOL0     H85276   4.285   0.310   8.025 -2.0973  1.1886 -0.5646
  632MOL0     H85277   4.233   0.305   7.845  0.6545 -2.3533 -1.6084
  632MOL0     H85278   4.325   0.063   7.832  0.3274 -0.1195  0.2210
  632MOL0     H85279   4.367   0.077   7.996 -0.2626 -1.8138 -1.9165
  632MOL0     H85280   4.721   0.288   7.893  3.0737 -0.4686 -2.2131
  632MOL0     H85281   4.911   0.167   7.881  0.1379 -1.0046  0.4245
  632MOL0     H85282   5.200  -0.100   7.958 -0.0971 -0.7087  0.6388
  632MOL0     H85283   5.412  -0.261   7.926  3.7335 -1.4547 -3.3663
  632MOL0     H85284   5.522  -0.376   7.526 -1.3047  0.3127  0.3658
  632MOL0     H85285   5.611  -0.236   7.605  0.2077  0.1522  1.8964
  632MOL0     H85286   5.665  -0.539   7.657 -4.4049  1.1585  0.1497
  632MOL0     H85287   5.747  -0.447   7.524 -0.4992 -2.0260  0.6492
  632MOL0     H85288   5.762  -0.323   7.791 -1.6621 -1.5600 -1.6855
  632MOL0     H85289   5.823  -0.494   7.797  2.9075  0.7954  0.2154
  632MOL0     H85290   5.992  -0.341   7.758 -0.8293 -2.1058  0.6947
  632MOL0     H85291   5.921  -0.294   7.599 -0.6508 -1.1609 -0.9631
  632MOL0     H85292   5.963  -0.504   7.512  0.5332 -1.0346 -0.2011
  632MOL0     H85293   6.008  -0.590   7.665  1.0491  1.0910  1.4714
  632MOL0     H85294   6.204  -0.557   7.547 -2.2622 -1.3280  2.2903
  632MOL0     H85295   6.155  -0.392   7.511  0.8048 -1.6741 -2.0234
  632MOL0     H85296   6.185  -0.449   7.802  0.6658  0.0721  1.4086
  632MOL0     H85297   6.236  -0.312   7.702 -0.7898 -0.6604 -0.3805
  632MOL0     H85298   6.435  -0.464   7.791 -1.0919  1.8212  0.9416
  632MOL0     H85299   6.400  -0.550   7.648  1.4493 -0.4051  0.8827
  632MOL0     H85300   5.355  -0.233   7.508 -0.2129 -1.7926  0.5812
  632MOL0     H85301   5.162  -0.080   7.530 -0.1530  0.9898 -0.2549
  632MOL0     H85302   4.679  -0.182   7.756 -1.4682 -0.0152  1.1719
  632MOL0     H85303   4.480  -0.065   7.837 -0.4100  0.7402 -0.0809
  632MOL0     H85304   2.703   0.655   8.124 -2.8639  0.4874 -1.6380
  632MOL0     H85305   2.470   0.732   8.160 -0.0978  1.6447  3.2194
  632MOL0     H85306   2.172   0.889   8.583  2.2642  1.0685 -4.0559
  632MOL0     H85307   1.938   0.923   8.665 -1.1567  2.6589 -1.3122
  632MOL0     H85308   1.602   0.776   8.415 -0.7560  1.4067 -1.3719
  632MOL0     H85309   1.642   0.930   8.343  0.6677  0.9286 -0.4853
  632MOL0     H85310   1.455   0.874   8.568 -0.1131  1.3831  0.8513
  632MOL0     H85311   1.429   0.971   8.421 -0.1118  1.0906  0.2854
  632MOL0     H85312   1.578   1.143   8.512 -0.3344 -0.4059 -0.2764
  632MOL0     H85313   1.579   1.049   8.664 -1.3947 -1.1610  0.9313
  632MOL0     H85314   1.351   1.180   8.544  2.5139  0.8928 -0.7250
  632MOL0     H85315   1.330   1.070   8.678 -0.6104 -0.4978 -0.6911
  632MOL0     H85316   1.542   1.418   8.857  0.2751 -2.4918  3.0724
  632MOL0     H85317   1.808   0.795   8.274 -1.0203  0.9995 -0.7719
  632MOL0     H85318   2.014   0.582   8.184  2.2614  0.0646 -1.6623
  632MOL0     H85319   1.958   0.745   8.111  4.5140  3.9115 -1.7145
  632MOL0     H85320   2.121   0.711   8.140 -1.3764  0.9870 -2.5286
  633MOL0     O85321   5.198   2.254   8.320  0.5811  0.2742 -0.9604
  633MOL0     C85322   5.101   2.183   8.347 -0.5706  0.3922  0.5421
  633MOL0     O85323   5.101   2.051   8.377  0.2841 -0.2396 -0.2967
  633MOL0     C85324   5.219   1.980   8.361  0.4509  0.4044 -0.4911
  633MOL0     C85325   5.330   2.013   8.436 -1.0805  0.8291 -0.0524
  633MOL0     C85326   5.451   1.936   8.424 -0.1015 -0.2386 -0.1091
  633MOL0     C85327   5.463   1.827   8.331 -0.0946  1.4326  0.1644
  633MOL0     O85328   5.564   1.739   8.313  0.4237  0.2996  0.5594
  633MOL0     C85329   5.686   1.758   8.386 -0.1801 -0.0337 -0.0926
  633MOL0     C85330   5.781   1.842   8.311  0.7881  0.0701  0.8944
  633MOL0     C85331   5.827   1.777   8.181 -0.0315  0.2591  0.2954
  633MOL0     C85332   5.912   1.874   8.098 -0.1381  0.6993 -0.3379
  633MOL0     C85333   5.901   1.841   7.948 -0.0811 -0.2037  0.8594
  633MOL0     C85334   5.943   1.697   7.915 -0.5986 -0.0389 -0.0015
  633MOL0     C85335   6.083   1.669   7.945 -0.8429 -0.2602 -0.5749
  633MOL0     C85336   6.138   1.540   7.877  0.0293  0.6192 -0.0242
  633MOL0     N85337   6.273   1.518   7.918 -0.5859  0.1718 -1.2496
  633MOL0     C85338   6.306   1.437   8.032  0.2969 -0.5668  0.2731
  633MOL0     C85339   6.445   1.443   8.032  0.2413  0.1131  0.3549
  633MOL0     C85340   6.535   1.348   8.117 -0.0921 -0.2145  0.6010
  633MOL0     C85341   6.635   1.257   8.037 -0.4422  0.6461 -0.9098
  633MOL0     C85342   6.761   1.330   7.974  0.2839  0.0387 -0.2493
  633MOL0     C85343   6.845   1.243   7.876  1.2751  0.3367  0.6385
  633MOL0     O85344   6.935   1.162   7.942 -0.2670 -0.0650 -0.1893
  633MOL0     C85345   7.021   1.108   7.851  0.2476  0.3422 -0.2498
  633MOL0     C85346   7.147   1.156   7.859 -0.1110  0.0261  0.5909
  633MOL0     C85347   7.248   1.098   7.787 -0.3501  0.7461  0.0390
  633MOL0     C85348   7.214   0.981   7.705 -1.1361 -1.2935 -0.1107
  633MOL0     C85349   7.322   0.927   7.616 -0.1415  0.0778 -0.1812
  633MOL0     O85350   7.279   0.869   7.507  0.1995  0.5678 -0.3728
  633MOL0     C85351   7.369   0.815   7.418  0.1451 -0.9033 -0.2998
  633MOL0     C85352   7.498   0.864   7.391  0.6062 -0.9528  0.2574
  633MOL0     C85353   7.576   0.813   7.286 -0.2014 -0.2695  0.6220
  633MOL0     C85354   7.533   0.700   7.218  0.0333 -0.1189  0.5780
  633MOL0     O85355   7.612   0.645   7.116  0.2069  0.3021  0.5734
  633MOL0     C85356   7.594   0.507   7.080  0.5078  0.2375 -0.4940
  633MOL0     C85357   7.719   0.452   7.026 -0.8390  0.5217  0.1859
  633MOL0     C85358   7.733   0.518   6.892  0.5989  0.3057  0.2877
  633MOL0     C85359   7.837   0.450   6.807  0.4490  0.4667  0.0007
  633MOL0     C85360   7.847   0.510   6.664  0.1450 -0.0607 -0.5254
  633MOL0     C85361   7.889   0.659   6.662 -1.1474 -0.2016  0.1113
  633MOL0     C85362   7.952   0.699   6.526  0.0915 -0.2297  0.3852
  633MOL0     C85363   8.101   0.638   6.499 -0.3463  0.1931  0.1341
  633MOL0    Cl85364   8.236   0.726   6.588  0.1071 -0.5817  0.0295
  633MOL0     C85365   7.403   0.656   7.240 -0.3082 -0.1125 -0.6251
  633MOL0     C85366   7.326   0.709   7.338  0.3100  0.2597 -0.7307
  633MOL0     O85367   7.439   0.938   7.654  0.4394 -0.1445 -0.4569
  633MOL0     C85368   7.085   0.935   7.700 -0.2132  0.4379  0.0306
  633MOL0     C85369   6.987   0.997   7.774  0.5333  0.0681  0.0255
  633MOL0     N85370   6.493   1.523   7.937  0.7621  0.1473 -0.2233
  633MOL0     N85371   6.387   1.577   7.874  0.0347 -0.3043  0.5704
  633MOL0     C85372   5.342   1.794   8.262 -0.3069  0.1850  0.6259
  633MOL0     C85373   5.228   1.874   8.270 -0.7412 -0.1739  1.1745
  633MOL0     C85374   4.961   2.234   8.376 -0.1409 -0.2724  0.5323
  633MOL0     C85375   4.955   2.357   8.442  0.3102 -0.0141 -0.3616
  633MOL0     C85376   4.834   2.418   8.473 -0.7956  0.1655  1.1854
  633MOL0     C85377   4.713   2.356   8.455  0.3995  0.9589  0.4895
  633MOL0     O85378   4.596   2.412   8.499  0.4093  0.0262  0.4842
  633MOL0     C85379   4.482   2.409   8.410 -0.8669 -0.4936 -0.1146
  633MOL0     C85380   4.371   2.493   8.469  0.3903 -0.8065  0.0844
  633MOL0     C85381   4.319   2.442   8.611  0.3336  0.2719  0.7920
  633MOL0     C85382   4.202   2.533   8.665  0.1146  0.4539  0.0119
  633MOL0     C85383   4.086   2.520   8.581  0.5047 -0.5173  0.1316
  633MOL0     C85384   3.986   2.520   8.507  0.2505  0.5505 -0.7363
  633MOL0     C85385   4.719   2.226   8.396 -1.0734 -0.5074  0.4128
  633MOL0     C85386   4.839   2.169   8.355 -0.2591 -0.6706  0.4690
  633MOL0     C85387   4.826   2.046   8.274  1.0589  0.0262  0.1972
  633MOL0     H85388   5.346   2.106   8.490 -1.7572  0.7862  0.2297
  633MOL0     H85389   5.540   1.972   8.475  0.4425 -1.8090  0.0802
  633MOL0     H85390   5.660   1.800   8.484 -0.0195  2.0688 -0.8911
  633MOL0     H85391   5.736   1.661   8.398 -0.4014 -0.2791 -1.0907
  633MOL0     H85392   5.864   1.871   8.377 -0.7133  1.8569  2.0882
  633MOL0     H85393   5.724   1.931   8.280  0.9933 -0.8925 -2.7438
  633MOL0     H85394   5.737   1.760   8.121  0.1471 -1.4259  0.4779
  633MOL0     H85395   5.878   1.681   8.196 -1.6029 -0.2797  2.6265
  633MOL0     H85396   5.863   1.970   8.116 -1.7317  0.1047 -1.3312
  633MOL0     H85397   6.017   1.871   8.130 -0.4024 -1.5018  0.4447
  633MOL0     H85398   5.798   1.853   7.912 -0.4848 -2.3492  1.1668
  633MOL0     H85399   5.954   1.916   7.889  0.4958 -1.1567  0.1529
  633MOL0     H85400   5.877   1.631   7.971 -0.1162  1.1024  2.0462
  633MOL0     H85401   5.938   1.671   7.809 -1.0753 -2.2937  0.5346
  633MOL0     H85402   6.090   1.662   8.053 -0.4217  1.7087 -0.4405
  633MOL0     H85403   6.135   1.761   7.917 -0.5604 -1.2345 -3.7456
  633MOL0     H85404   6.074   1.458   7.911 -3.3663  2.7293 -0.8919
  633MOL0     H85405   6.144   1.542   7.768  0.4266 -0.4132 -0.0351
  633MOL0     H85406   6.237   1.377   8.091 -0.0470 -3.5513 -2.8410
  633MOL0     H85407   6.589   1.415   8.185 -0.2315  1.4255 -0.8230
  633MOL0     H85408   6.481   1.288   8.190 -0.2928  1.7589  2.1696
  633MOL0     H85409   6.687   1.184   8.100 -0.2948 -0.0837 -1.8665
  633MOL0     H85410   6.591   1.202   7.953 -0.7276  0.2394 -0.5064
  633MOL0     H85411   6.831   1.357   8.054  0.5615  1.5335 -0.9555
  633MOL0     H85412   6.730   1.424   7.927 -0.4792  0.5011  1.1073
  633MOL0     H85413   6.897   1.319   7.817 -1.1166  1.1556 -0.5627
  633MOL0     H85414   6.785   1.181   7.808  3.2231 -3.0719  1.7869
  633MOL0     H85415   7.177   1.243   7.918 -1.6182  0.8677  0.1895
  633MOL0     H85416   7.346   1.143   7.783  1.5280 -2.8724  0.8489
  633MOL0     H85417   7.552   0.937   7.451 -0.0747  1.4254 -1.8474
  633MOL0     H85418   7.678   0.849   7.276 -0.3162  0.0615  0.6430
  633MOL0     H85419   7.570   0.438   7.162  0.2025  0.7955 -0.1064
  633MOL0     H85420   7.514   0.485   7.009 -0.1411 -1.1289  0.6072
  633MOL0     H85421   7.801   0.467   7.097  0.1476 -3.4965  0.1024
  633MOL0     H85422   7.703   0.346   7.008  1.6074  0.4605 -2.2334
  633MOL0     H85423   7.642   0.511   6.831 -0.2805  0.5067  1.5488
  633MOL0     H85424   7.768   0.621   6.902 -1.0287  1.0337 -0.9360
  633MOL0     H85425   7.818   0.342   6.797 -2.0069  0.7713  0.6521
  633MOL0     H85426   7.933   0.464   6.858  0.8005  2.9796 -1.2456
  633MOL0     H85427   7.751   0.490   6.616  0.4292 -1.7365 -0.4559
  633MOL0     H85428   7.921   0.456   6.605 -0.4675  1.5868 -2.9714
  633MOL0     H85429   7.803   0.726   6.670 -1.6462 -0.4204 -2.3949
  633MOL0     H85430   7.961   0.687   6.739  1.5361  0.5545 -2.4665
  633MOL0     H85431   7.967   0.805   6.505 -1.6750  0.0327  0.3569
  633MOL0     H85432   7.892   0.670   6.440 -0.3521  0.4021  0.4800
  633MOL0     H85433   8.103   0.533   6.532  0.9339  0.2777  0.3806
  633MOL0     H85434   8.114   0.638   6.391  3.0501  1.6617  0.4150
  633MOL0     H85435   7.354   0.572   7.191 -1.4297 -0.7358  1.4032
  633MOL0     H85436   7.223   0.675   7.347  1.0072 -2.1119 -1.0462
  633MOL0     H85437   7.058   0.844   7.649  2.6388 -0.0085 -0.8728
  633MOL0     H85438   6.892   0.948   7.792  0.9620  0.1325  2.9726
  633MOL0     H85439   5.344   1.708   8.196  0.2294  0.3989  0.3588
  633MOL0     H85440   5.143   1.854   8.205  2.1630 -1.7751 -2.4728
  633MOL0     H85441   5.053   2.400   8.463 -0.8395  2.4867  0.1565
  633MOL0     H85442   4.832   2.514   8.523 -1.0060  0.0733  1.3572
  633MOL0     H85443   4.454   2.303   8.410  1.5299 -1.1940  1.5187
  633MOL0     H85444   4.498   2.456   8.312 -3.0421  3.5439  1.2207
  633MOL0     H85445   4.284   2.484   8.402  1.2135  0.1503 -1.1552
  633MOL0     H85446   4.407   2.595   8.481 -1.3880 -0.2771  1.2431
  633MOL0     H85447   4.394   2.457   8.689  0.2568  1.6695  0.6385
  633MOL0     H85448   4.288   2.338   8.605  0.6020 -0.0214  3.4305
  633MOL0     H85449   4.170   2.492   8.761  0.6481 -0.3733 -0.1532
  633MOL0     H85450   4.228   2.638   8.682  0.3402  0.1750  1.5903
  633MOL0     H85451   3.899   2.511   8.446  1.4466 -0.6523 -2.3369
  633MOL0     H85452   4.625   2.180   8.369  0.0203 -1.3280 -2.2507
  633MOL0     H85453   4.722   2.019   8.254  0.9298 -1.0640  2.0945
  633MOL0     H85454   4.878   2.053   8.178 -1.1662  0.5668 -1.0118
  633MOL0     H85455   4.860   1.961   8.334 -0.0171  0.6234  1.7000
  634MOL0     O85456   4.493   5.715   3.209 -0.1183 -0.3603 -0.5267
  634MOL0     C85457   4.430   5.788   3.294 -0.8844  0.7435  0.9575
  634MOL0     O85458   4.433   5.918   3.308 -0.4113 -0.5485  0.4351
  634MOL0     C85459   4.548   5.991   3.321 -0.0688  0.8453  0.5611
  634MOL0     C85460   4.529   6.130   3.330  0.0895 -0.0911  0.0057
  634MOL0     C85461   4.635   6.215   3.356  0.6335  0.2569 -0.0796
  634MOL0     C85462   4.766   6.163   3.362 -0.0927 -0.6848 -0.2380
  634MOL0     O85463   4.858   6.267   3.383 -0.1558  0.3447  0.2742
  634MOL0     C85464   4.990   6.231   3.431 -0.3941 -0.4674  0.5331
  634MOL0     C85465   4.977   6.228   3.583 -0.0997 -0.1567  0.3467
  634MOL0     C85466   5.118   6.230   3.649 -0.1043  0.2750 -0.2385
  634MOL0     C85467   5.132   6.173   3.787  0.1776  0.4970 -0.6700
  634MOL0     C85468   5.281   6.184   3.830  0.4106 -0.1284 -0.7075
  634MOL0     C85469   5.299   6.081   3.949  0.3537 -0.2421 -0.4226
  634MOL0     C85470   5.439   6.077   3.998 -0.6637  0.1588 -0.1816
  634MOL0     C85471   5.468   5.966   4.101  0.5046 -0.7998  0.3728
  634MOL0     N85472   5.415   5.998   4.231  0.0814 -0.7614 -0.6172
  634MOL0     C85473   5.473   6.068   4.339  0.3479  0.4776  0.4244
  634MOL0     C85474   5.389   6.042   4.436 -0.3832 -0.0414  0.0115
  634MOL0     C85475   5.375   6.104   4.574 -1.1042  0.5092 -0.3705
  634MOL0     C85476   5.452   6.230   4.586 -0.0225  0.8783 -0.5980
  634MOL0     C85477   5.434   6.303   4.730  0.1486 -0.2114 -1.1643
  634MOL0     C85478   5.477   6.447   4.720 -0.7528  0.0657 -0.3772
  634MOL0     O85479   5.598   6.446   4.651  0.1824  0.0851  0.0361
  634MOL0     C85480   5.710   6.417   4.721 -0.5831  0.7721  1.7544
  634MOL0     C85481   5.834   6.426   4.647 -0.2499  0.3707 -1.0133
  634MOL0     C85482   5.960   6.429   4.702  0.0717  0.4167 -0.2559
  634MOL0     C85483   5.966   6.413   4.840  1.3696  0.5863  0.4391
  634MOL0     C85484   6.093   6.429   4.912  0.2580  0.5148  1.4055
  634MOL0     O85485   6.198   6.445   4.827 -0.1133  0.1786  1.1243
  634MOL0     C85486   6.324   6.461   4.879  0.2313  0.7264 -0.2105
  634MOL0     C85487   6.402   6.562   4.823  0.1452 -0.5161  0.2639
  634MOL0     C85488   6.537   6.575   4.870  0.0064 -0.3017  0.0102
  634MOL0     C85489   6.581   6.504   4.976  0.2200  0.7984  0.1761
  634MOL0     O85490   6.707   6.539   5.024  0.1325 -0.1312  0.1824
  634MOL0     C85491   6.759   6.469   5.136  0.2643  0.6053  0.2452
  634MOL0     C85492   6.882   6.546   5.198  0.2333 -0.0778  0.3696
  634MOL0     C85493   6.847   6.669   5.287  0.2169  0.5206  0.3886
  634MOL0     C85494   6.961   6.772   5.269  0.3597  0.0079  0.1535
  634MOL0     C85495   6.909   6.918   5.273  0.1169  0.0604  0.7209
  634MOL0     C85496   6.894   6.962   5.415  0.6460 -0.3580 -0.0549
  634MOL0     C85497   6.899   7.114   5.437 -0.0710  0.3306  0.2241
  634MOL0     C85498   7.020   7.195   5.385 -0.3407 -0.3271  0.0615
  634MOL0    Cl85499   7.172   7.110   5.412  0.3769 -0.2002  0.1695
  634MOL0     C85500   6.500   6.399   5.022 -0.3552 -0.4148  0.1869
  634MOL0     C85501   6.377   6.373   4.975 -0.2177 -1.0347  0.5019
  634MOL0     O85502   6.105   6.428   5.031  0.0798  0.4632 -0.1907
  634MOL0     C85503   5.846   6.387   4.920  0.0477  0.1819 -0.7995
  634MOL0     C85504   5.720   6.397   4.860 -0.5519 -0.1334  0.6383
  634MOL0     N85505   5.288   5.962   4.400 -0.3105  0.0720  0.0364
  634MOL0     N85506   5.307   5.929   4.278  0.4472  0.6746 -0.1848
  634MOL0     C85507   4.787   6.026   3.354 -0.1750 -0.2111 -1.0321
  634MOL0     C85508   4.681   5.939   3.338 -0.5392 -0.1971 -0.9882
  634MOL0     C85509   4.350   5.707   3.389  0.2143  0.3090 -0.6512
  634MOL0     C85510   4.421   5.596   3.442 -0.3497  0.3563 -0.0258
  634MOL0     C85511   4.359   5.516   3.544 -0.2582 -0.6475  0.3855
  634MOL0     C85512   4.232   5.552   3.590 -0.9530 -0.5288  0.8111
  634MOL0     O85513   4.159   5.484   3.680 -0.6677  0.0863  0.5044
  634MOL0     C85514   4.207   5.359   3.723 -1.1751  0.4664  0.2107
  634MOL0     C85515   4.115   5.302   3.825  0.0754  0.1991 -0.3006
  634MOL0     C85516   3.985   5.254   3.757  0.1334 -0.0861  1.0088
  634MOL0     C85517   3.879   5.186   3.848 -0.1331 -0.6053  0.1993
  634MOL0     C85518   3.739   5.186   3.791 -0.1856  0.1469  0.8931
  634MOL0     C85519   3.632   5.174   3.738  0.8228  0.6135 -0.8879
  634MOL0     C85520   4.170   5.664   3.538  0.6322  0.0344 -0.2548
  634MOL0     C85521   4.228   5.745   3.446  0.6079  0.5496  0.5536
  634MOL0     C85522   4.142   5.865   3.402 -0.4893  1.1153  0.2558
  634MOL0     H85523   4.430   6.173   3.324 -0.7360 -1.8625  0.3403
  634MOL0     H85524   4.611   6.320   3.368  0.0679  0.2374 -0.9365
  634MOL0     H85525   5.039   6.148   3.379  4.1330 -1.0369  4.9069
  634MOL0     H85526   5.067   6.308   3.415 -0.7451 -0.0533  0.8001
  634MOL0     H85527   4.924   6.136   3.609  1.6535 -1.8566 -1.6839
  634MOL0     H85528   4.927   6.317   3.620 -1.5297 -0.6235 -0.3888
  634MOL0     H85529   5.151   6.334   3.644 -0.3969  0.4662  1.2716
  634MOL0     H85530   5.191   6.181   3.585  0.0579 -0.1540  0.2622
  634MOL0     H85531   5.067   6.229   3.855  1.1485  1.0791 -0.2110
  634MOL0     H85532   5.091   6.071   3.790 -0.2774  0.6890  0.4967
  634MOL0     H85533   5.347   6.157   3.747 -0.9285  0.9749 -2.1885
  634MOL0     H85534   5.303   6.285   3.867 -3.4167  0.4502  0.4519
  634MOL0     H85535   5.231   6.103   4.031 -0.4408 -1.2631 -0.7941
  634MOL0     H85536   5.268   5.984   3.910 -1.1887 -0.4570  1.2454
  634MOL0     H85537   5.466   6.175   4.038  1.9604  0.1352 -1.6924
  634MOL0     H85538   5.505   6.055   3.914  1.4330 -2.3599  1.9534
  634MOL0     H85539   5.437   5.868   4.063  0.0423 -0.3772 -0.3695
  634MOL0     H85540   5.576   5.969   4.119  0.3634 -0.0695  1.2264
  634MOL0     H85541   5.566   6.124   4.349  0.8692 -0.2160 -0.3671
  634MOL0     H85542   5.274   6.116   4.615  0.0283 -0.3902  3.0750
  634MOL0     H85543   5.420   6.039   4.650  0.5200  1.3275 -0.5982
  634MOL0     H85544   5.558   6.213   4.564  1.1947  4.3279  1.6423
  634MOL0     H85545   5.419   6.298   4.507 -1.3965 -1.4186 -2.1051
  634MOL0     H85546   5.498   6.259   4.807  0.9171  1.9596 -0.4645
  634MOL0     H85547   5.327   6.300   4.749  0.0819 -1.2387 -1.6578
  634MOL0     H85548   5.479   6.498   4.817 -2.0533 -0.1231 -0.2362
  634MOL0     H85549   5.415   6.515   4.661  0.5446 -0.5795 -2.6274
  634MOL0     H85550   5.829   6.439   4.540  2.1947  0.2168 -1.2148
  634MOL0     H85551   6.043   6.455   4.637 -0.4517 -3.8512 -3.0680
  634MOL0     H85552   6.364   6.622   4.741  2.4443  0.2343 -0.3233
  634MOL0     H85553   6.604   6.650   4.830  0.6137 -1.3621 -1.0365
  634MOL0     H85554   6.681   6.452   5.211 -1.0179 -1.7255 -1.5157
  634MOL0     H85555   6.798   6.370   5.109  0.1941  0.3114  1.1868
  634MOL0     H85556   6.934   6.482   5.270 -0.5638 -3.7244 -2.0334
  634MOL0     H85557   6.946   6.575   5.115  1.7265  0.9908  1.8410
  634MOL0     H85558   6.749   6.705   5.254  0.8143  1.0103 -0.9210
  634MOL0     H85559   6.844   6.640   5.393  2.1460 -2.0400 -0.1768
  634MOL0     H85560   7.015   6.763   5.174  1.4021  1.4450  0.5763
  634MOL0     H85561   7.041   6.750   5.340 -0.7711  0.8809  1.7601
  634MOL0     H85562   6.818   6.926   5.213 -0.4893 -1.8302  1.3260
  634MOL0     H85563   6.983   6.979   5.219 -0.3118  0.3339  0.4286
  634MOL0     H85564   6.806   6.914   5.459  0.7872  0.1760  0.8385
  634MOL0     H85565   6.971   6.905   5.468  0.5696 -2.3278 -1.9447
  634MOL0     H85566   6.879   7.140   5.541 -2.5059  0.4432 -0.2146
  634MOL0     H85567   6.816   7.163   5.385 -0.5631  1.6172  2.1312
  634MOL0     H85568   7.011   7.217   5.278 -1.2026 -1.0064 -0.0145
  634MOL0     H85569   7.019   7.291   5.438 -0.1113 -0.4752  0.3362
  634MOL0     H85570   6.540   6.322   5.087  1.6039  1.0949  0.8644
  634MOL0     H85571   6.312   6.294   5.010 -1.8375 -1.0465 -2.2291
  634MOL0     H85572   5.848   6.374   5.028  0.7787  0.8030 -0.7338
  634MOL0     H85573   5.632   6.404   4.923  0.0894  0.0968  1.5329
  634MOL0     H85574   4.890   5.992   3.355  0.4756  1.5840  1.6322
  634MOL0     H85575   4.714   5.836   3.336  0.2719  0.0605 -1.5790
  634MOL0     H85576   4.520   5.567   3.408  0.8289  1.7131  2.0318
  634MOL0     H85577   4.405   5.428   3.587  0.5126 -0.1432  0.6141
  634MOL0     H85578   4.307   5.370   3.765 -0.8697  1.1061 -0.6633
  634MOL0     H85579   4.223   5.298   3.634 -0.4556  1.1375 -0.1335
  634MOL0     H85580   4.096   5.378   3.902  0.7117  0.5039 -0.4424
  634MOL0     H85581   4.162   5.223   3.883 -0.6994 -1.0145 -1.2847
  634MOL0     H85582   4.016   5.182   3.681  0.1819 -0.8382  1.7206
  634MOL0     H85583   3.941   5.350   3.729 -3.1608 -0.9190  2.8228
  634MOL0     H85584   3.908   5.081   3.850  1.2669 -0.2230  1.7495
  634MOL0     H85585   3.887   5.231   3.947 -0.9666  0.6224 -0.2649
  634MOL0     H85586   3.542   5.164   3.681  0.3242 -2.4106  0.2359
  634MOL0     H85587   4.070   5.689   3.573  1.1879  1.1646  0.5964
  634MOL0     H85588   4.058   5.840   3.337  1.9903  1.7117 -3.4928
  634MOL0     H85589   4.110   5.915   3.494  0.5966  2.2108  0.0756
  634MOL0     H85590   4.205   5.935   3.346  0.1133  2.4049  2.4060
  635MOL0     O85591   7.838   9.420   4.694  0.1991 -0.3934  0.2356
  635MOL0     C85592   7.850   9.413   4.575 -0.0224 -0.4911 -0.0193
  635MOL0     O85593   7.782   9.490   4.488 -0.4353 -0.6171 -0.0300
  635MOL0     C85594   7.655   9.542   4.512 -0.1650  0.0177 -0.5336
  635MOL0     C85595   7.628   9.649   4.432 -0.2193 -0.8119 -0.9631
  635MOL0     C85596   7.508   9.716   4.448 -0.2294  0.5798  0.0208
  635MOL0     C85597   7.408   9.666   4.531  0.0986  0.0268  0.5769
  635MOL0     O85598   7.294   9.737   4.560  0.4151 -0.3807 -0.4590
  635MOL0     C85599   7.262   9.849   4.476 -0.3459  0.4884 -0.3842
  635MOL0     C85600   7.150   9.928   4.540  0.4333 -0.3997  0.3155
  635MOL0     C85601   7.020   9.855   4.558  0.0978 -0.0698  0.0317
  635MOL0     C85602   6.948   9.844   4.421  0.5775  0.0098  0.3249
  635MOL0     C85603   6.816   9.777   4.416 -0.5092  0.4141 -0.2516
  635MOL0     C85604   6.780   9.763   4.269  0.2002 -0.7420  0.5964
  635MOL0     C85605   6.622   9.751   4.269  0.6340 -0.1282 -0.6020
  635MOL0     C85606   6.557   9.718   4.133  0.1193  0.3991 -0.5767
  635MOL0     N85607   6.596   9.813   4.035 -0.5432  0.0047 -0.3675
  635MOL0     C85608   6.643   9.775   3.919 -0.3772  0.3540 -0.1822
  635MOL0     C85609   6.711   9.872   3.867 -0.1892 -0.2361  0.8213
  635MOL0     C85610   6.805   9.875   3.752  1.1065  0.4881  0.7819
  635MOL0     C85611   6.889   9.746   3.723 -0.4439  0.3835  0.1157
  635MOL0     C85612   6.924   9.739   3.576  0.1202 -0.8356 -0.2620
  635MOL0     C85613   7.055   9.818   3.549  0.3733  0.3573 -0.6302
  635MOL0     O85614   7.160   9.787   3.650 -0.0647 -0.5776  0.9614
  635MOL0     C85615   7.294   9.783   3.630  0.0907 -0.2376 -0.1525
  635MOL0     C85616   7.368   9.872   3.546 -0.2576 -0.1870 -0.3754
  635MOL0     C85617   7.497   9.851   3.523 -0.7258  0.2351 -0.5136
  635MOL0     C85618   7.579   9.762   3.597  0.3957 -0.8792 -0.4598
  635MOL0     C85619   7.725   9.764   3.600  0.0521  0.0836  0.7355
  635MOL0     O85620   7.786   9.667   3.660  0.0277  0.1766 -0.2580
  635MOL0     C85621   7.924   9.659   3.658 -0.0319  0.0481  0.0740
  635MOL0     C85622   8.012   9.767   3.691  0.4794  0.3558  0.6217
  635MOL0     C85623   8.152   9.737   3.687  1.1312 -1.1822  0.4971
  635MOL0     C85624   8.199   9.611   3.667  0.0311 -0.5401  0.1758
  635MOL0     O85625   8.330   9.597   3.675 -0.2336  0.5266 -1.0922
  635MOL0     C85626   8.402   9.661   3.566  0.4308  0.0028  0.1740
  635MOL0     C85627   8.349   9.626   3.431  0.0500 -0.5653  0.1479
  635MOL0     C85628   8.434   9.657   3.296 -0.5371 -0.3995 -1.8581
  635MOL0     C85629   8.578   9.610   3.303  0.3642  1.0414 -0.1297
  635MOL0     C85630   8.663   9.728   3.353 -1.2193 -0.4738  0.1225
  635MOL0     C85631   8.809   9.675   3.361  0.9499  0.6050 -0.2275
  635MOL0     C85632   8.925   9.786   3.352 -0.0113  0.7316 -0.3619
  635MOL0     C85633   9.057   9.720   3.397  0.3297  0.7187  0.0021
  635MOL0    Cl85634   9.139   9.614   3.278 -0.2756  0.3072 -0.0558
  635MOL0     C85635   8.106   9.507   3.649  0.5172  0.6064  0.5100
  635MOL0     C85636   7.966   9.530   3.647 -1.5348 -0.8364 -0.1550
  635MOL0     O85637   7.779   9.853   3.536  0.0706  0.7441 -0.3368
  635MOL0     C85638   7.511   9.681   3.695  0.1271 -0.4338 -0.1318
  635MOL0     C85639   7.372   9.697   3.714  0.0008  0.9720  0.3945
  635MOL0     N85640   6.687   9.983   3.950 -0.4597  0.1043  0.1100
  635MOL0     N85641   6.612   9.947   4.048 -0.3046  0.2678  0.2181
  635MOL0     C85642   7.429   9.548   4.596 -0.0002 -0.1155 -0.1656
  635MOL0     C85643   7.559   9.493   4.603 -0.6906  0.4880  0.3775
  635MOL0     C85644   7.975   9.348   4.525  0.0429 -0.1050  0.1870
  635MOL0     C85645   7.963   9.280   4.402 -0.7826 -0.1447  0.1861
  635MOL0     C85646   8.081   9.228   4.347 -0.6341 -0.1584  1.5684
  635MOL0     C85647   8.197   9.207   4.414  0.0517  0.0006 -0.0681
  635MOL0     O85648   8.300   9.135   4.358  0.3634  0.4568  0.1743
  635MOL0     C85649   8.431   9.143   4.416 -0.2679 -0.1038  0.4852
  635MOL0     C85650   8.510   9.262   4.369  0.1200 -0.2236  0.7530
  635MOL0     C85651   8.655   9.243   4.423  0.1260  0.7279  0.0764
  635MOL0     C85652   8.667   9.265   4.575  0.3291 -0.4355 -0.2173
  635MOL0     C85653   8.569   9.363   4.628  0.5131 -0.2007 -0.1923
  635MOL0     C85654   8.490   9.434   4.678  1.4414  1.1076 -0.8357
  635MOL0     C85655   8.202   9.264   4.543 -0.7289 -1.1349  0.7744
  635MOL0     C85656   8.097   9.332   4.597 -0.3145 -0.7573  0.5129
  635MOL0     C85657   8.114   9.405   4.729 -0.3570 -0.0241 -0.5658
  635MOL0     H85658   7.707   9.688   4.369 -1.0848 -0.5653 -1.9292
  635MOL0     H85659   7.489   9.796   4.378  1.2644  0.9688  0.0243
  635MOL0     H85660   7.354   9.907   4.481  0.9144 -1.3901 -0.8258
  635MOL0     H85661   7.234   9.823   4.374 -4.0540 -1.1552  0.8701
  635MOL0     H85662   7.136  10.025   4.490 -2.1567 -1.1097 -0.4993
  635MOL0     H85663   7.184   9.956   4.640 -2.2884 -0.4977  1.3697
  635MOL0     H85664   6.950   9.906   4.625 -1.7259 -2.1439 -0.1885
  635MOL0     H85665   7.026   9.759   4.610  0.0647 -0.1450 -0.1010
  635MOL0     H85666   6.922   9.947   4.393 -3.7443 -1.0625 -0.3331
  635MOL0     H85667   7.015   9.805   4.344 -0.8291 -0.0398 -0.9036
  635MOL0     H85668   6.811   9.678   4.463  2.2606  1.3757  2.4230
  635MOL0     H85669   6.748   9.839   4.475  0.5811  0.9179  0.5267
  635MOL0     H85670   6.812   9.857   4.222  2.8358 -1.0587  1.5629
  635MOL0     H85671   6.831   9.674   4.230 -2.3301 -2.4192  0.9525
  635MOL0     H85672   6.569   9.840   4.305 -0.5716 -1.8383  2.1501
  635MOL0     H85673   6.598   9.672   4.340 -2.1618 -0.1383 -1.4047
  635MOL0     H85674   6.570   9.613   4.104 -1.6136  0.0230 -0.1184
  635MOL0     H85675   6.448   9.715   4.141 -0.0206 -2.8232 -1.8878
  635MOL0     H85676   6.642   9.668   3.900 -1.2705  0.0028  1.6251
  635MOL0     H85677   6.748   9.914   3.668 -1.2374  1.8462  2.8541
  635MOL0     H85678   6.876   9.957   3.766  1.4037  1.0921 -3.1998
  635MOL0     H85679   6.975   9.732   3.789  1.3317 -1.5048 -2.3854
  635MOL0     H85680   6.831   9.654   3.737  1.3490 -0.6719  0.9923
  635MOL0     H85681   6.848   9.774   3.504  0.9588 -2.0295 -1.7846
  635MOL0     H85682   6.932   9.630   3.569 -3.5504 -1.1938 -0.9833
  635MOL0     H85683   7.032   9.925   3.549  1.5520  0.6869  2.1337
  635MOL0     H85684   7.097   9.802   3.449 -0.4491 -0.3787 -0.8687
  635MOL0     H85685   7.326   9.955   3.490  0.8190  1.9273  1.7585
  635MOL0     H85686   7.547   9.919   3.455  0.0807  0.2974  0.1295
  635MOL0     H85687   7.966   9.864   3.703 -1.1978 -0.5073  1.6724
  635MOL0     H85688   8.216   9.824   3.692 -0.3081 -0.1546  3.3831
  635MOL0     H85689   8.407   9.768   3.585  3.6921 -0.3500  1.9851
  635MOL0     H85690   8.504   9.626   3.582  0.3161 -0.6801 -0.5547
  635MOL0     H85691   8.339   9.517   3.429  0.9828 -0.6793 -2.2556
  635MOL0     H85692   8.248   9.665   3.424  0.2906  0.4987  1.9762
  635MOL0     H85693   8.380   9.601   3.219 -0.0266 -2.0656 -1.0613
  635MOL0     H85694   8.431   9.762   3.266  0.1407  1.1198  2.5269
  635MOL0     H85695   8.605   9.596   3.198  1.6934  1.9356  0.0748
  635MOL0     H85696   8.586   9.519   3.364  2.0894  2.3089  1.6551
  635MOL0     H85697   8.632   9.776   3.446  0.2384  1.9932 -0.5822
  635MOL0     H85698   8.664   9.798   3.269  4.7803  0.3212  0.4245
  635MOL0     H85699   8.806   9.619   3.455  1.8101  0.2065 -0.4277
  635MOL0     H85700   8.827   9.601   3.283  1.5042  1.3214 -0.7962
  635MOL0     H85701   8.917   9.870   3.422  4.6666  1.4310 -0.3606
  635MOL0     H85702   8.934   9.832   3.253  2.4761 -0.4761 -0.7652
  635MOL0     H85703   9.126   9.801   3.421 -0.3314  1.1576  0.4580
  635MOL0     H85704   9.042   9.669   3.493  0.5101 -0.4001 -0.5463
  635MOL0     H85705   8.141   9.404   3.641 -0.4378  0.2933  0.1778
  635MOL0     H85706   7.905   9.442   3.633 -0.9298 -1.1288 -1.0333
  635MOL0     H85707   7.570   9.617   3.760  1.8440 -0.0684 -1.2420
  635MOL0     H85708   7.311   9.654   3.793  0.1619 -1.0064 -0.5053
  635MOL0     H85709   7.365   9.502   4.671  0.9529 -0.4243  0.4815
  635MOL0     H85710   7.586   9.412   4.669 -1.1766  0.1200  0.1303
  635MOL0     H85711   7.870   9.287   4.347 -0.2249  0.6047 -0.7047
  635MOL0     H85712   8.070   9.193   4.244 -0.9815 -1.1952  1.9427
  635MOL0     H85713   8.490   9.059   4.377  0.1587 -0.9924  2.8745
  635MOL0     H85714   8.428   9.129   4.524  3.9732  1.5422  1.0128
  635MOL0     H85715   8.450   9.347   4.404 -1.2723 -0.1546 -1.5722
  635MOL0     H85716   8.498   9.263   4.261 -0.6214 -1.7425  0.7846
  635MOL0     H85717   8.711   9.324   4.374 -0.8881  1.3625 -0.0624
  635MOL0     H85718   8.699   9.148   4.393 -2.2146  0.0981 -1.6142
  635MOL0     H85719   8.645   9.169   4.623  0.7980  0.0878  1.0843
  635MOL0     H85720   8.769   9.288   4.608  0.2159  0.5425 -0.5216
  635MOL0     H85721   8.417   9.504   4.715  0.8884  0.5667 -0.8978
  635MOL0     H85722   8.290   9.257   4.607 -1.5461 -0.5295  1.9934
  635MOL0     H85723   8.096   9.513   4.721  0.2915  0.2900  1.6681
  635MOL0     H85724   8.035   9.374   4.798 -1.9013 -2.0011 -3.0546
  635MOL0     H85725   8.214   9.384   4.768  0.8555 -0.6341 -3.7234
  636MOL0     O85726   5.004   8.557  10.989 -0.5654 -0.5002  0.1244
  636MOL0     C85727   4.963   8.645  11.068 -0.1247  0.9382  0.6386
  636MOL0     O85728   5.047   8.722  11.137 -0.0716  0.1509 -0.2185
  636MOL0     C85729   5.182   8.724  11.107 -0.1172  0.7376 -0.0828
  636MOL0     C85730   5.228   8.733  10.974  0.3022 -1.1511 -1.3151
  636MOL0     C85731   5.364   8.745  10.951 -1.0061  0.0618 -0.3125
  636MOL0     C85732   5.457   8.748  11.053  0.8107  0.3745  0.1827
  636MOL0     O85733   5.595   8.761  11.044 -0.4284  0.6614 -0.2034
  636MOL0     C85734   5.662   8.813  10.924 -0.2109 -0.5195  0.5785
  636MOL0     C85735   5.791   8.893  10.969 -0.1518  0.3242 -0.4527
  636MOL0     C85736   5.860   8.975  10.871 -0.1356 -0.7304  0.4119
  636MOL0     C85737   5.904   8.892  10.754  0.0522 -0.3736  0.2506
  636MOL0     C85738   5.993   8.971  10.658 -0.0784  0.0773 -0.2547
  636MOL0     C85739   6.045   8.882  10.551 -0.6491 -0.0131  0.0789
  636MOL0     C85740   6.171   8.936  10.478  0.3059  0.0150 -0.7830
  636MOL0     C85741   6.244   8.831  10.391  0.2797  0.3349 -0.0397
  636MOL0     N85742   6.294   8.711  10.466 -0.8313  0.0876  0.3289
  636MOL0     C85743   6.357   8.716  10.588  0.9945  0.4865 -0.0409
  636MOL0     C85744   6.384   8.590  10.613  0.8453  0.5395  0.2155
  636MOL0     C85745   6.447   8.539  10.735 -0.0550  0.2122  0.2558
  636MOL0     C85746   6.601   8.522  10.716  0.3433  0.0176 -0.8908
  636MOL0     C85747   6.656   8.455  10.849  0.9802 -0.4850 -0.0321
  636MOL0     C85748   6.797   8.470  10.847 -0.7376 -0.7001  0.7980
  636MOL0     O85749   6.830   8.608  10.884  0.1929 -0.7297  0.5294
  636MOL0     C85750   6.963   8.643  10.899 -0.2554 -0.0039  0.4735
  636MOL0     C85751   6.988   8.781  10.922 -0.1934  0.6563  0.0209
  636MOL0     C85752   7.120   8.822  10.951 -0.8739  0.3433  0.1688
  636MOL0     C85753   7.227   8.726  10.952 -0.5033 -0.7520 -0.5076
  636MOL0     C85754   7.367   8.770  10.979  0.6048 -0.0387  0.3460
  636MOL0     O85755   7.457   8.665  11.002 -0.0566 -0.4870 -0.1274
  636MOL0     C85756   7.575   8.706  11.058 -0.0749 -0.7654  0.4898
  636MOL0     C85757   7.693   8.722  10.980 -0.3045 -0.4433 -0.4302
  636MOL0     C85758   7.811   8.784  11.030  0.1603  0.2645  0.0425
  636MOL0     C85759   7.807   8.834  11.157 -0.7170  0.8618  0.2680
  636MOL0     O85760   7.921   8.896  11.206 -0.2143 -0.1303 -0.4323
  636MOL0     C85761   8.043   8.814  11.230  0.7968 -0.4710  0.2208
  636MOL0     C85762   8.122   8.886  11.337 -0.3546  0.7658 -0.4308
  636MOL0     C85763   8.225   8.790  11.396  0.2421 -0.0168 -0.3276
  636MOL0     C85764   8.291   8.865  11.510 -0.2733 -0.0856  0.1965
  636MOL0     C85765   8.413   8.782  11.570 -0.0496 -1.0436  0.3344
  636MOL0     C85766   8.538   8.791  11.482 -0.3296 -0.9363 -0.4398
  636MOL0     C85767   8.647   8.709  11.563  0.4654 -0.2121 -0.9089
  636MOL0     C85768   8.784   8.704  11.493  0.6609  0.5476 -0.7076
  636MOL0    Cl85769   8.894   8.678  11.624  0.0570  0.1023 -0.3023
  636MOL0     C85770   7.690   8.823  11.231  0.7801 -0.4513 -0.1656
  636MOL0     C85771   7.575   8.756  11.186  0.3181 -0.6687  0.4160
  636MOL0     O85772   7.391   8.889  10.988 -0.4982 -0.0771  0.2818
  636MOL0     C85773   7.199   8.600  10.918  1.5530  0.0755  0.4604
  636MOL0     C85774   7.068   8.556  10.886 -0.4440  0.0887  0.1050
  636MOL0     N85775   6.334   8.514  10.514 -0.5606 -0.3594  0.6062
  636MOL0     N85776   6.279   8.582  10.432  0.6500 -0.7699  0.0046
  636MOL0     C85777   5.406   8.747  11.183 -0.6295 -0.3036 -0.0592
  636MOL0     C85778   5.273   8.722  11.210 -0.6840 -0.1456 -0.8913
  636MOL0     C85779   4.816   8.654  11.081 -0.0082 -0.0716  0.0312
  636MOL0     C85780   4.736   8.602  10.973  0.8115 -0.6564  0.2952
  636MOL0     C85781   4.597   8.621  10.980 -0.8053  0.1271  0.4206
  636MOL0     C85782   4.534   8.669  11.091 -0.2502 -0.4110 -1.1116
  636MOL0     O85783   4.394   8.685  11.100 -1.3542  0.1190 -0.3209
  636MOL0     C85784   4.312   8.627  11.002  0.4723 -0.2145 -0.0583
  636MOL0     C85785   4.170   8.601  11.047  0.2079 -0.3278  0.0195
  636MOL0     C85786   4.164   8.514  11.171 -0.0906  0.8169 -0.3608
  636MOL0     C85787   4.024   8.504  11.234 -0.2122 -0.0135 -0.0160
  636MOL0     C85788   4.034   8.460  11.373 -1.1357 -0.4408  0.6122
  636MOL0     C85789   4.062   8.422  11.482  0.8592 -0.7783  0.0190
  636MOL0     C85790   4.607   8.715  11.195 -0.8621 -0.3510  0.5098
  636MOL0     C85791   4.748   8.717  11.188  0.0050 -0.1589 -0.0936
  636MOL0     C85792   4.817   8.780  11.306 -0.0685 -0.5107 -0.2539
  636MOL0     H85793   5.153   8.725  10.897 -0.6322  0.9914 -0.7125
  636MOL0     H85794   5.398   8.753  10.849 -0.7834 -0.0216 -0.2466
  636MOL0     H85795   5.685   8.734  10.852 -3.5946 -2.0041  0.9395
  636MOL0     H85796   5.588   8.880  10.879  1.0896 -0.8482 -2.3322
  636MOL0     H85797   5.863   8.830  11.023 -0.4025  1.0825  0.7796
  636MOL0     H85798   5.759   8.967  11.042  0.8659  1.0455 -0.7198
  636MOL0     H85799   5.952   9.021  10.910  0.4722 -0.9431 -0.7313
  636MOL0     H85800   5.799   9.061  10.841  1.4919  0.5203  0.5096
  636MOL0     H85801   5.959   8.803  10.786 -0.1111 -0.7767 -0.5676
  636MOL0     H85802   5.815   8.869  10.695  0.4978  1.1482 -1.0835
  636MOL0     H85803   5.944   9.060  10.618 -0.4194 -0.0728 -0.1780
  636MOL0     H85804   6.077   9.010  10.717 -0.9802  0.8388  0.5566
  636MOL0     H85805   6.077   8.791  10.603 -1.6269  0.7754  2.1597
  636MOL0     H85806   5.962   8.847  10.488 -2.9270 -0.2705  3.0332
  636MOL0     H85807   6.228   8.979  10.562  2.1127  0.9637 -2.4209
  636MOL0     H85808   6.145   9.019  10.412 -1.7497 -0.0913 -0.1804
  636MOL0     H85809   6.184   8.793  10.308  0.6538 -0.8175  0.1967
  636MOL0     H85810   6.335   8.868  10.341 -0.4403  0.3533 -1.3694
  636MOL0     H85811   6.392   8.801  10.647 -0.2863  0.4181  0.8463
  636MOL0     H85812   6.436   8.613  10.815 -4.6297  1.6239 -1.3291
  636MOL0     H85813   6.393   8.447  10.760 -0.7102  1.0399  2.0396
  636MOL0     H85814   6.626   8.463  10.628 -0.9882 -2.0176  0.0127
  636MOL0     H85815   6.644   8.620  10.698  0.6987  0.5195  2.0624
  636MOL0     H85816   6.634   8.347  10.846  0.3686 -0.3767 -2.8466
  636MOL0     H85817   6.607   8.504  10.933  1.3267  1.2102 -0.7788
  636MOL0     H85818   6.841   8.452  10.749 -0.0712 -2.0869  1.3158
  636MOL0     H85819   6.844   8.398  10.915  2.1543 -2.7858 -2.9997
  636MOL0     H85820   6.913   8.859  10.927 -0.2678  0.5846  0.0355
  636MOL0     H85821   7.141   8.927  10.970  0.6541  0.0720  0.1132
  636MOL0     H85822   7.713   8.692  10.878  3.4648  0.2607 -0.0262
  636MOL0     H85823   7.896   8.785  10.963 -0.8206 -1.9298 -1.3316
  636MOL0     H85824   8.017   8.713  11.261 -0.7254 -0.2076 -0.1130
  636MOL0     H85825   8.099   8.819  11.136  0.4863  2.3920  0.0759
  636MOL0     H85826   8.171   8.967  11.282 -0.1275  1.0296  0.1477
  636MOL0     H85827   8.053   8.923  11.414 -0.4931  2.4767 -1.3245
  636MOL0     H85828   8.173   8.708  11.447  0.8831  0.6646  1.5133
  636MOL0     H85829   8.290   8.750  11.319 -0.0461 -0.2443 -0.4559
  636MOL0     H85830   8.208   8.888  11.577 -0.3065  1.8263 -0.4286
  636MOL0     H85831   8.321   8.959  11.462 -0.2986  1.8029  3.6232
  636MOL0     H85832   8.374   8.681  11.590 -0.2241 -1.0580 -0.0855
  636MOL0     H85833   8.435   8.827  11.668 -1.3753  0.4338 -0.0193
  636MOL0     H85834   8.525   8.745  11.384  0.5849 -0.7017 -0.6759
  636MOL0     H85835   8.580   8.890  11.465  0.0504 -1.1229 -0.5956
  636MOL0     H85836   8.611   8.609  11.586  1.2135  0.3362  3.7459
  636MOL0     H85837   8.669   8.761  11.657  1.3227  0.8104 -1.6493
  636MOL0     H85838   8.783   8.622  11.421  1.4292  1.1562 -1.4204
  636MOL0     H85839   8.802   8.802  11.447  1.7909 -0.0612 -1.5886
  636MOL0     H85840   7.695   8.879  11.323  0.2221 -0.7088  0.0217
  636MOL0     H85841   7.479   8.759  11.236 -0.7615 -0.0204 -1.5955
  636MOL0     H85842   7.278   8.525  10.919  1.3168 -0.1980 -0.3736
  636MOL0     H85843   7.057   8.450  10.864 -0.0613 -0.2003  1.2378
  636MOL0     H85844   5.483   8.748  11.259  1.4762  2.4506 -1.9916
  636MOL0     H85845   5.233   8.695  11.307  2.0338 -0.5493  0.1955
  636MOL0     H85846   4.775   8.567  10.878 -1.1993 -1.1764 -0.4068
  636MOL0     H85847   4.535   8.590  10.896 -1.8160 -1.1185  1.5760
  636MOL0     H85848   4.352   8.530  10.972 -3.0883 -1.8239 -0.0815
  636MOL0     H85849   4.301   8.696  10.918 -1.3059 -0.9254 -0.4462
  636MOL0     H85850   4.121   8.559  10.959 -0.3115  0.0336  0.1298
  636MOL0     H85851   4.125   8.698  11.071 -1.2052 -0.6109 -1.3518
  636MOL0     H85852   4.236   8.567  11.234  0.2498  0.9607 -0.8647
  636MOL0     H85853   4.201   8.413  11.149 -2.6514 -0.8303  2.1801
  636MOL0     H85854   3.977   8.602  11.231  1.6892  0.9269 -2.3631
  636MOL0     H85855   3.965   8.428  11.182  0.1365 -1.8335  2.0669
  636MOL0     H85856   4.104   8.399  11.578  0.1853 -1.3155  0.1959
  636MOL0     H85857   4.551   8.767  11.273 -1.1391  2.0310 -1.1549
  636MOL0     H85858   4.900   8.713  11.329  0.9002  0.8460  0.2773
  636MOL0     H85859   4.861   8.876  11.278  0.6037 -0.4020  1.1006
  636MOL0     H85860   4.749   8.795  11.390  1.4964 -2.4255  1.4481
  637MOL0     O85861   5.513   9.946   0.029  0.2751 -0.1873 -0.3328
  637MOL0     C85862   5.407   9.879   0.013  0.1128 -1.0630  0.4774
  637MOL0     O85863   5.391   9.786  -0.084  0.6604 -0.6261 -0.6797
  637MOL0     C85864   5.494   9.775  -0.177  0.5324  0.0286 -0.3809
  637MOL0     C85865   5.559   9.654  -0.184 -0.3442 -0.4126  0.9423
  637MOL0     C85866   5.660   9.632  -0.281 -0.6844 -0.8538 -0.2685
  637MOL0     C85867   5.711   9.737  -0.352  0.8967  0.4359 -0.0411
  637MOL0     O85868   5.806   9.723  -0.446 -0.4270  0.0989  0.3384
  637MOL0     C85869   5.909   9.629  -0.442 -1.1579  0.5397  0.9318
  637MOL0     C85870   5.994   9.642  -0.570  0.9929 -0.8938  0.0461
  637MOL0     C85871   6.126   9.560  -0.557 -0.6291  0.5223 -0.3930
  637MOL0     C85872   6.208   9.596  -0.689  0.2952 -0.2799  0.3158
  637MOL0     C85873   6.329   9.510  -0.693 -0.0605  0.5141  0.5850
  637MOL0     C85874   6.420   9.551  -0.816 -0.2332 -0.3975  0.3392
  637MOL0     C85875   6.334   9.562  -0.949 -0.8610 -0.0396 -0.1680
  637MOL0     C85876   6.262   9.443  -0.993  0.2242  0.7084  0.2363
  637MOL0     N85877   6.358   9.330  -1.013  0.2410  0.1495  0.0447
  637MOL0     C85878   6.464   9.325  -1.104 -0.1308 -0.0753  0.0939
  637MOL0     C85879   6.525   9.211  -1.084 -1.9699  0.6620 -0.5733
  637MOL0     C85880   6.634   9.173  -1.183 -0.7075  0.1063 -0.1694
  637MOL0     C85881   6.770   9.146  -1.121  0.6870 -0.1869  0.2378
  637MOL0     C85882   6.869   9.093  -1.230  0.0075 -0.0776 -0.5071
  637MOL0     C85883   7.012   9.098  -1.169 -0.4029 -0.8134  0.2568
  637MOL0     O85884   7.079   9.208  -1.218 -0.3006 -0.6001 -0.5910
  637MOL0     C85885   7.211   9.222  -1.186  0.1853  0.4532 -0.5650
  637MOL0     C85886   7.250   9.304  -1.085 -0.1347 -0.1542 -0.6697
  637MOL0     C85887   7.386   9.304  -1.042 -0.9140  0.9253 -0.5951
  637MOL0     C85888   7.475   9.215  -1.106 -0.1293 -1.1593 -0.3286
  637MOL0     C85889   7.612   9.204  -1.045  0.0578 -0.1749  0.1839
  637MOL0     O85890   7.648   9.283  -0.948  0.0519 -0.2203 -1.0164
  637MOL0     C85891   7.776   9.278  -0.904  0.3462  0.4969 -0.1178
  637MOL0     C85892   7.788   9.251  -0.769 -0.6257  0.0077  0.2949
  637MOL0     C85893   7.911   9.241  -0.710  0.0255 -0.5517 -0.4667
  637MOL0     C85894   8.030   9.249  -0.779  0.7208  0.2251 -0.0600
  637MOL0     O85895   8.156   9.252  -0.731 -0.4288  0.7315  0.3130
  637MOL0     C85896   8.179   9.264  -0.585  0.1955 -0.5083  0.3192
  637MOL0     C85897   8.319   9.318  -0.554 -0.9458  0.1929  1.0475
  637MOL0     C85898   8.443   9.246  -0.611  0.5627  0.4548  0.5102
  637MOL0     C85899   8.474   9.292  -0.757  0.1679 -0.6703  0.1911
  637MOL0     C85900   8.610   9.220  -0.789  0.4732 -0.3862  0.2637
  637MOL0     C85901   8.727   9.267  -0.703 -0.3532 -0.0471 -0.9037
  637MOL0     C85902   8.856   9.222  -0.777  0.6442 -0.1049  0.6560
  637MOL0     C85903   8.971   9.221  -0.672 -0.1109 -0.0349 -0.8989
  637MOL0    Cl85904   9.131   9.177  -0.735 -0.0763  0.1047 -0.0254
  637MOL0     C85905   8.014   9.284  -0.915 -0.9709 -0.5391  0.0362
  637MOL0     C85906   7.890   9.293  -0.975 -0.1659 -0.9207  0.1671
  637MOL0     O85907   7.680   9.115  -1.093 -0.0473  0.4146 -0.0688
  637MOL0     C85908   7.437   9.143  -1.218 -0.1896  0.6546 -0.5040
  637MOL0     C85909   7.309   9.151  -1.270  0.4424 -0.6697 -0.4575
  637MOL0     N85910   6.459   9.140  -0.978 -0.3328 -0.4896  1.1127
  637MOL0     N85911   6.361   9.211  -0.936 -0.1929 -0.4417 -0.2180
  637MOL0     C85912   5.648   9.866  -0.333  0.0839 -0.1445 -0.4466
  637MOL0     C85913   5.539   9.879  -0.253  0.5462  0.3868 -0.0700
  637MOL0     C85914   5.282   9.924   0.083 -0.8712  0.3724  0.4763
  637MOL0     C85915   5.183   9.969  -0.005 -0.8231 -1.1031  0.0567
  637MOL0     C85916   5.057  10.016   0.040 -0.2512  0.2754  1.2476
  637MOL0     C85917   5.031  10.030   0.177  0.1821  0.2592 -0.2816
  637MOL0     O85918   4.918  10.077   0.238 -0.0975 -0.6650  0.3961
  637MOL0     C85919   4.822  10.154   0.153 -0.0630 -0.0411 -0.3996
  637MOL0     C85920   4.715  10.186   0.256  0.3226 -0.7095  0.2681
  637MOL0     C85921   4.617  10.063   0.268  0.3774  0.6882  0.6902
  637MOL0     C85922   4.523  10.055   0.138 -0.2229 -0.0560 -0.4123
  637MOL0     C85923   4.404   9.971   0.156  0.1406  0.2130 -0.7091
  637MOL0     C85924   4.308   9.898   0.182 -0.0141  0.1190  0.8541
  637MOL0     C85925   5.132   9.979   0.262  0.5765 -0.3793  0.2716
  637MOL0     C85926   5.257   9.928   0.220 -0.2376  0.0029 -0.5194
  637MOL0     C85927   5.349   9.872   0.321  0.1744 -0.1599 -0.0810
  637MOL0     H85928   5.528   9.577  -0.114 -0.2436 -0.4309  0.9669
  637MOL0     H85929   5.713   9.537  -0.290 -0.5493 -0.6748 -1.5297
  637MOL0     H85930   5.971   9.635  -0.352  2.5475  1.9352 -1.4635
  637MOL0     H85931   5.875   9.526  -0.440 -0.1156  0.1820  1.2753
  637MOL0     H85932   6.012   9.747  -0.593  0.4738 -0.6512  0.7172
  637MOL0     H85933   5.940   9.594  -0.652 -1.0018  0.3044  0.6101
  637MOL0     H85934   6.105   9.453  -0.546 -0.8108  0.7215  1.3662
  637MOL0     H85935   6.184   9.586  -0.468 -1.2227  2.0545 -0.4239
  637MOL0     H85936   6.143   9.589  -0.776  1.1333  0.2346 -0.3620
  637MOL0     H85937   6.240   9.700  -0.699  0.9233 -0.6387 -1.7941
  637MOL0     H85938   6.390   9.510  -0.602  0.8437  2.4424  0.0382
  637MOL0     H85939   6.302   9.404  -0.699  0.5867  0.3581  0.3641
  637MOL0     H85940   6.464   9.651  -0.806 -0.5406 -0.1445 -0.7423
  637MOL0     H85941   6.500   9.483  -0.845  0.6893 -2.7520  6.8025
  637MOL0     H85942   6.402   9.603  -1.024  0.5983 -0.6711  0.7693
  637MOL0     H85943   6.260   9.642  -0.935 -1.3216 -0.6357  0.9228
  637MOL0     H85944   6.186   9.414  -0.920 -0.1518 -3.3804 -1.5401
  637MOL0     H85945   6.211   9.454  -1.089 -0.2412 -0.6387  0.3015
  637MOL0     H85946   6.496   9.398  -1.178  1.6363  1.0926  1.8826
  637MOL0     H85947   6.606   9.083  -1.239 -2.3685  0.1213  0.6084
  637MOL0     H85948   6.650   9.247  -1.262 -0.3769 -1.8663 -2.0529
  637MOL0     H85949   6.818   9.236  -1.081  2.1703 -1.7130  2.1226
  637MOL0     H85950   6.757   9.076  -1.038  2.8985 -0.2854  0.5614
  637MOL0     H85951   6.859   9.148  -1.324  1.9247 -0.2273 -0.8344
  637MOL0     H85952   6.845   8.987  -1.243 -0.5630 -0.2653  1.7399
  637MOL0     H85953   7.074   9.013  -1.199  0.3138 -0.2261  0.0313
  637MOL0     H85954   7.020   9.088  -1.061 -2.9973  1.3536  0.7600
  637MOL0     H85955   7.175   9.367  -1.037  2.0569  0.5217  2.1417
  637MOL0     H85956   7.408   9.372  -0.961  1.0449 -1.0232  0.6039
  637MOL0     H85957   7.696   9.243  -0.713  0.0413  1.5946  1.7012
  637MOL0     H85958   7.921   9.217  -0.604  0.1043  0.3671 -0.2636
  637MOL0     H85959   8.119   9.335  -0.527  0.6779  0.3126 -0.1768
  637MOL0     H85960   8.170   9.165  -0.538 -3.7513  0.1530  1.4023
  637MOL0     H85961   8.327   9.422  -0.587  2.3285  0.9788  3.7372
  637MOL0     H85962   8.336   9.332  -0.447 -0.8153 -0.3544  1.1001
  637MOL0     H85963   8.527   9.255  -0.543  2.0389 -1.1259 -1.0040
  637MOL0     H85964   8.427   9.138  -0.621  2.2626  0.2888 -0.8417
  637MOL0     H85965   8.490   9.399  -0.775 -2.1760  0.4854  3.7960
  637MOL0     H85966   8.393   9.254  -0.820 -2.3480  0.3321  2.6102
  637MOL0     H85967   8.635   9.244  -0.893  0.9690 -1.5663  0.0880
  637MOL0     H85968   8.588   9.114  -0.777 -2.2864  0.0353 -0.4470
  637MOL0     H85969   8.724   9.376  -0.701  0.5352  0.0557 -2.6331
  637MOL0     H85970   8.724   9.229  -0.601 -1.1720 -0.9699 -1.2631
  637MOL0     H85971   8.877   9.283  -0.865 -2.3552 -0.6872 -0.6095
  637MOL0     H85972   8.838   9.119  -0.810  0.6072 -0.9531  3.1070
  637MOL0     H85973   8.980   9.325  -0.638  3.6094 -0.6155  0.3285
  637MOL0     H85974   8.950   9.158  -0.585 -0.0089 -1.0904 -1.6215
  637MOL0     H85975   8.106   9.308  -0.967 -1.2457 -1.6144 -0.9795
  637MOL0     H85976   7.894   9.320  -1.080  0.9295  1.5450  0.7819
  637MOL0     H85977   7.505   9.078  -1.273  0.7970  0.9675  0.3196
  637MOL0     H85978   7.274   9.096  -1.357 -0.7138 -0.3179 -0.2320
  637MOL0     H85979   5.693   9.947  -0.389  2.7572  1.3333  3.4478
  637MOL0     H85980   5.499   9.979  -0.248  0.7677  0.4242  1.6602
  637MOL0     H85981   5.200   9.969  -0.112  1.8768  0.5693  0.3859
  637MOL0     H85982   4.984  10.047  -0.034  1.7342 -1.2102 -1.4927
  637MOL0     H85983   4.789  10.090   0.071 -0.9268 -0.5821  0.3506
  637MOL0     H85984   4.865  10.247   0.116  2.0782 -0.4012  1.0010
  637MOL0     H85985   4.655  10.267   0.213 -0.5059 -1.2110  0.4579
  637MOL0     H85986   4.763  10.210   0.352 -0.6925  1.5405  0.2870
  637MOL0     H85987   4.556  10.080   0.357 -0.0453 -1.4558  0.8779
  637MOL0     H85988   4.666   9.966   0.283  2.7408  1.8127  0.8367
  637MOL0     H85989   4.489  10.157   0.115  0.8665  0.2486 -0.7445
  637MOL0     H85990   4.591  10.016   0.062  0.9600 -0.2176  0.6972
  637MOL0     H85991   4.239   9.818   0.201  0.2480  0.0838  1.7022
  637MOL0     H85992   5.112   9.974   0.368 -2.4668 -0.2661 -0.1867
  637MOL0     H85993   5.292   9.874   0.414 -0.3068 -2.3245 -0.2786
  637MOL0     H85994   5.355   9.766   0.296 -1.6973  0.1119 -1.9153
  637MOL0     H85995   5.444   9.924   0.339 -0.1929 -0.8295  5.6885
  638MOL0     O85996   1.624   5.702   1.260 -0.7742  0.4613  0.6943
  638MOL0     C85997   1.609   5.751   1.370  0.0846 -0.1941  0.1621
  638MOL0     O85998   1.701   5.816   1.441  0.4738 -0.1504  0.3079
  638MOL0     C85999   1.830   5.825   1.384 -0.3426  0.1920 -0.3962
  638MOL0     C86000   1.941   5.765   1.452  0.5416  0.7731 -0.0804
  638MOL0     C86001   2.068   5.784   1.395 -0.0515  0.2571  0.1687
  638MOL0     C86002   2.091   5.845   1.268  0.2996 -0.0381 -0.2956
  638MOL0     O86003   2.207   5.842   1.206 -0.4149 -0.6260  0.3874
  638MOL0     C86004   2.282   5.714   1.206  0.1974 -0.0472 -0.3923
  638MOL0     C86005   2.397   5.707   1.117 -0.4702 -0.8317  0.9661
  638MOL0     C86006   2.386   5.770   0.979 -0.8128 -0.1802  0.1298
  638MOL0     C86007   2.266   5.723   0.909 -0.1150  1.0499  0.2683
  638MOL0     C86008   2.297   5.721   0.768  0.4839  0.3837  1.4512
  638MOL0     C86009   2.170   5.677   0.688 -0.2870 -0.0940  0.0130
  638MOL0     C86010   2.148   5.525   0.706 -0.3198 -0.0131 -0.1535
  638MOL0     C86011   2.063   5.468   0.588  0.4932  1.2159 -0.1090
  638MOL0     N86012   2.048   5.324   0.606 -0.0850  0.8582  0.6745
  638MOL0     C86013   1.965   5.259   0.688  0.2583 -0.1883  0.3465
  638MOL0     C86014   1.977   5.132   0.649 -0.6783 -0.0917 -1.1348
  638MOL0     C86015   1.909   5.018   0.718  0.5400 -0.4077  0.7567
  638MOL0     C86016   1.790   4.959   0.636 -0.3280 -0.1024  0.0489
  638MOL0     C86017   1.681   5.066   0.627  0.1802  0.3756 -0.4320
  638MOL0     C86018   1.564   5.006   0.564  0.5566  1.3067 -0.0667
  638MOL0     O86019   1.446   5.093   0.584  0.1922 -0.0516  0.2729
  638MOL0     C86020   1.324   5.064   0.532  0.2277  0.7345 -0.1876
  638MOL0     C86021   1.301   4.946   0.454 -0.3515  0.5812 -0.0410
  638MOL0     C86022   1.162   4.919   0.414  0.1646 -0.3765  0.6546
  638MOL0     C86023   1.065   5.013   0.436  0.6016 -0.2480 -0.2760
  638MOL0     C86024   0.921   4.964   0.411 -1.1988 -0.3467  0.7632
  638MOL0     O86025   0.905   4.844   0.358 -0.6926  0.1451  0.2039
  638MOL0     C86026   0.775   4.800   0.349 -0.6767  0.8853 -0.1164
  638MOL0     C86027   0.686   4.782   0.456  0.5976  0.7168  0.6519
  638MOL0     C86028   0.555   4.736   0.427 -0.2897  0.9525  0.4924
  638MOL0     C86029   0.510   4.714   0.292 -1.0368 -0.3348  0.3706
  638MOL0     O86030   0.380   4.678   0.250 -0.2602 -0.0925 -0.4252
  638MOL0     C86031   0.306   4.595   0.339 -0.1060  0.3121 -0.6985
  638MOL0     C86032   0.209   4.687   0.408  0.2454 -0.3032  0.4622
  638MOL0     C86033   0.093   4.606   0.478  0.8183 -0.6028  0.1389
  638MOL0     C86034   0.159   4.531   0.588 -0.0366  0.0769  0.0334
  638MOL0     C86035   0.062   4.505   0.704  0.7473 -0.1975 -0.6411
  638MOL0     C86036   0.149   4.425   0.809  0.0112 -0.3539 -0.3626
  638MOL0     C86037   0.063   4.400   0.937 -1.2165 -0.6537  1.0057
  638MOL0     C86038   0.126   4.386   1.077 -0.1723 -0.3686  0.1437
  638MOL0    Cl86039   0.009   4.297   1.183  0.0522  0.3685 -0.1625
  638MOL0     C86040   0.605   4.731   0.187  0.1181  0.4603  0.4064
  638MOL0     C86041   0.737   4.776   0.216 -0.9200 -0.1315  0.0001
  638MOL0     O86042   0.840   5.053   0.433  0.3667  0.3213 -0.0807
  638MOL0     C86043   1.098   5.133   0.503 -0.0230  0.2459  0.2300
  638MOL0     C86044   1.229   5.155   0.554  0.3658 -0.8694 -0.3357
  638MOL0     N86045   2.086   5.116   0.559 -0.1012  0.4660 -0.1075
  638MOL0     N86046   2.124   5.238   0.530 -0.1594 -0.6808  0.1903
  638MOL0     C86047   1.981   5.902   1.202 -0.2672  0.0025  0.4640
  638MOL0     C86048   1.856   5.896   1.259  0.2403 -0.7550  0.6454
  638MOL0     C86049   1.472   5.737   1.435 -0.6300  0.1353  0.0247
  638MOL0     C86050   1.457   5.800   1.561 -0.7025 -0.2216  0.1009
  638MOL0     C86051   1.335   5.801   1.625 -0.3467 -0.0988 -0.0481
  638MOL0     C86052   1.225   5.732   1.588  0.8611  0.2367 -0.7655
  638MOL0     O86053   1.110   5.731   1.659 -0.3108 -0.0913  0.0268
  638MOL0     C86054   1.026   5.849   1.670 -0.0381 -0.0051  0.3598
  638MOL0     C86055   0.967   5.887   1.534  0.4718 -0.1845  0.1793
  638MOL0     C86056   0.858   5.788   1.478  0.1210  0.0585 -0.4144
  638MOL0     C86057   0.745   5.768   1.569 -0.2829 -0.0190  0.1403
  638MOL0     C86058   0.647   5.662   1.525 -0.5821  0.0628 -0.0840
  638MOL0     C86059   0.579   5.564   1.483  0.5515 -0.0382  1.2085
  638MOL0     C86060   1.238   5.665   1.473  0.4750  0.2101  0.3064
  638MOL0     C86061   1.360   5.665   1.391  0.6564 -0.2919 -0.1063
  638MOL0     C86062   1.364   5.596   1.260 -0.6290 -0.9271 -0.3689
  638MOL0     H86063   1.949   5.710   1.545  4.9365  3.2939  1.3206
  638MOL0     H86064   2.148   5.734   1.449  0.5284  1.8384  0.8674
  638MOL0     H86065   2.310   5.707   1.312 -4.5105  4.1024  1.5384
  638MOL0     H86066   2.210   5.640   1.170 -2.0062  1.2678  1.0047
  638MOL0     H86067   2.430   5.604   1.104  1.0902 -0.2386 -0.1242
  638MOL0     H86068   2.489   5.748   1.160  0.4907 -1.6296 -0.2237
  638MOL0     H86069   2.477   5.754   0.919  1.1537  1.7762  2.3659
  638MOL0     H86070   2.379   5.879   0.990 -2.4230 -0.3151  0.6670
  638MOL0     H86071   2.236   5.626   0.950  3.2841 -0.8764 -1.3749
  638MOL0     H86072   2.179   5.788   0.924 -0.5238  1.1262 -2.0050
  638MOL0     H86073   2.318   5.818   0.724 -1.4720 -1.1418 -3.5861
  638MOL0     H86074   2.366   5.640   0.745 -0.1892 -0.3718  1.9982
  638MOL0     H86075   2.087   5.740   0.720  0.5567  1.6140 -1.0469
  638MOL0     H86076   2.175   5.703   0.582 -1.5468  1.3027  0.2699
  638MOL0     H86077   2.094   5.517   0.801  0.6287  1.0626  0.4889
  638MOL0     H86078   2.241   5.469   0.710 -0.5059 -0.4301 -1.3379
  638MOL0     H86079   1.965   5.517   0.579  0.1000  0.9530  2.1862
  638MOL0     H86080   2.118   5.486   0.495  0.2744  0.9075 -0.2998
  638MOL0     H86081   1.898   5.309   0.756 -0.4546  1.5958 -1.5978
  638MOL0     H86082   1.990   4.944   0.717  2.5796  1.7083  0.2794
  638MOL0     H86083   1.887   5.045   0.821  3.6451 -0.5157  1.5621
  638MOL0     H86084   1.822   4.920   0.539 -0.7903 -1.2366  0.3410
  638MOL0     H86085   1.759   4.871   0.693 -1.0255  0.3312  0.3470
  638MOL0     H86086   1.713   5.147   0.561 -1.0487 -0.1068 -1.6495
  638MOL0     H86087   1.666   5.112   0.726  1.1027 -1.5659  0.6793
  638MOL0     H86088   1.540   4.909   0.608 -2.7945  0.4213 -3.2892
  638MOL0     H86089   1.578   4.999   0.456  0.0175  0.6421 -0.1008
  638MOL0     H86090   1.378   4.871   0.437 -0.1827  0.6920  0.2172
  638MOL0     H86091   1.139   4.824   0.366  1.3995 -0.2956 -0.1400
  638MOL0     H86092   0.711   4.795   0.561 -0.4701 -1.1733  1.1864
  638MOL0     H86093   0.483   4.733   0.508  0.0418  0.2837  0.7668
  638MOL0     H86094   0.242   4.532   0.277  0.2233  0.6311 -1.3742
  638MOL0     H86095   0.360   4.542   0.419  0.5476  2.6183  0.4909
  638MOL0     H86096   0.268   4.741   0.483  2.8051 -3.9371  1.3255
  638MOL0     H86097   0.161   4.755   0.337  0.5510 -0.2286  0.3232
  638MOL0     H86098   0.018   4.676   0.514  2.0242  1.1558 -0.6490
  638MOL0     H86099   0.044   4.532   0.412 -2.9815  0.5866  1.3649
  638MOL0     H86100   0.245   4.585   0.631  0.9967 -1.4725  0.0225
  638MOL0     H86101   0.186   4.428   0.563 -0.5135 -0.2652  0.8752
  638MOL0     H86102  -0.025   4.452   0.667 -0.1901 -0.2585  1.4746
  638MOL0     H86103   0.020   4.597   0.745  0.5478 -1.5536  2.5682
  638MOL0     H86104   0.173   4.326   0.768 -5.1500 -2.7835  1.5751
  638MOL0     H86105   0.228   4.495   0.838 -1.8835  0.7055  2.6471
  638MOL0     H86106   0.005   4.310   0.914 -0.0218 -0.6944 -2.5829
  638MOL0     H86107  -0.014   4.478   0.942 -0.6595 -0.1170  1.3276
  638MOL0     H86108   0.221   4.331   1.073  1.8019  2.8081 -0.7634
  638MOL0     H86109   0.148   4.481   1.127 -1.1922 -1.4286  2.8110
  638MOL0     H86110   0.578   4.716   0.083 -0.5576 -0.1917  0.6673
  638MOL0     H86111   0.798   4.786   0.127  0.0896  0.2734  0.7228
  638MOL0     H86112   1.030   5.216   0.519  0.6608  1.0230 -0.6891
  638MOL0     H86113   1.247   5.257   0.586 -0.7581 -0.3417 -1.2962
  638MOL0     H86114   2.006   5.956   1.111 -1.4204 -0.0582  0.0953
  638MOL0     H86115   1.769   5.930   1.205  0.7148 -0.7083 -0.1026
  638MOL0     H86116   1.546   5.844   1.606  0.3240 -1.7850 -0.3232
  638MOL0     H86117   1.328   5.859   1.717 -3.4522  0.6112 -0.6193
  638MOL0     H86118   1.093   5.926   1.710 -0.8901  1.9690 -1.7638
  638MOL0     H86119   0.948   5.826   1.743  0.1810 -0.5595  0.4257
  638MOL0     H86120   1.042   5.890   1.455  1.7600 -1.3880  1.3085
  638MOL0     H86121   0.919   5.985   1.543  0.5845  0.2034 -2.6725
  638MOL0     H86122   0.906   5.695   1.447  0.1775 -0.8668  2.2296
  638MOL0     H86123   0.819   5.840   1.389  0.1214 -1.2037 -1.1694
  638MOL0     H86124   0.785   5.734   1.665 -2.2116 -0.0793  0.9685
  638MOL0     H86125   0.695   5.864   1.578 -2.2395 -1.0504  0.9462
  638MOL0     H86126   0.521   5.478   1.459  3.2462 -1.1223 -2.2706
  638MOL0     H86127   1.157   5.601   1.438  1.6985 -2.5520  2.1435
  638MOL0     H86128   1.405   5.657   1.179 -2.1425 -2.4610 -2.3952
  638MOL0     H86129   1.440   5.517   1.265  1.6857  1.0548 -1.9119
  638MOL0     H86130   1.267   5.555   1.229 -0.5856 -1.4280  0.1465
  639MOL0     O86131   3.251   2.595   1.378  0.2327 -0.3813  0.3498
  639MOL0     C86132   3.201   2.488   1.338 -0.6290  0.6615  0.0944
  639MOL0     O86133   3.266   2.392   1.278  0.5543 -0.2798 -0.9652
  639MOL0     C86134   3.391   2.410   1.227  0.4184  0.3561  0.6483
  639MOL0     C86135   3.463   2.291   1.221 -0.4675  0.6900 -0.2446
  639MOL0     C86136   3.592   2.284   1.170 -0.1587 -0.4804  0.4529
  639MOL0     C86137   3.668   2.396   1.135 -0.4051 -0.0901  0.2917
  639MOL0     O86138   3.793   2.368   1.089  0.2035  0.3078  0.8342
  639MOL0     C86139   3.887   2.474   1.089  0.3633 -0.4496 -0.9671
  639MOL0     C86140   4.025   2.417   1.066  0.1705 -0.1239  0.2532
  639MOL0     C86141   4.147   2.510   1.072 -0.1359 -0.6737  0.3854
  639MOL0     C86142   4.126   2.650   1.010 -0.4088  0.7841 -0.6201
  639MOL0     C86143   4.255   2.729   0.977 -0.0050  1.0412  0.5254
  639MOL0     C86144   4.240   2.807   0.848  0.2209  0.4694 -0.5811
  639MOL0     C86145   4.129   2.903   0.877 -0.5855  0.3629  0.7159
  639MOL0     C86146   4.110   2.984   0.752  0.2394  0.0214 -0.5272
  639MOL0     N86147   4.228   3.077   0.726 -0.0776 -0.0407  0.9670
  639MOL0     C86148   4.255   3.201   0.779 -0.3014 -0.2050  0.4204
  639MOL0     C86149   4.378   3.236   0.726 -0.3860 -0.1284 -0.7448
  639MOL0     C86150   4.449   3.371   0.736 -0.2126  0.1912  0.0352
  639MOL0     C86151   4.372   3.456   0.633  0.0280  0.1062 -0.6141
  639MOL0     C86152   4.431   3.611   0.640 -0.5602  0.6287  0.1015
  639MOL0     C86153   4.583   3.623   0.628  0.7857  0.4348  0.4415
  639MOL0     O86154   4.621   3.746   0.586 -0.0943 -0.0917  0.0709
  639MOL0     C86155   4.671   3.821   0.692 -0.0293  0.1172 -0.6241
  639MOL0     C86156   4.807   3.834   0.692  0.4402 -0.5748 -0.8361
  639MOL0     C86157   4.875   3.917   0.775  0.0718 -0.0703 -0.1090
  639MOL0     C86158   4.803   3.995   0.870 -0.6337  0.8611  0.6719
  639MOL0     C86159   4.882   4.081   0.963  0.3196  0.1985 -0.4734
  639MOL0     O86160   5.020   4.089   0.942 -0.5237  0.3247 -0.2370
  639MOL0     C86161   5.084   4.195   1.000  0.0493  0.4458 -0.4664
  639MOL0     C86162   5.081   4.315   0.939 -1.2242  0.3370 -0.5096
  639MOL0     C86163   5.149   4.421   0.991 -0.0879  0.2998 -0.6712
  639MOL0     C86164   5.225   4.410   1.110  0.2699 -0.4842  0.1286
  639MOL0     O86165   5.281   4.511   1.183 -0.6039 -0.1349  0.2908
  639MOL0     C86166   5.352   4.603   1.099 -0.5419 -0.4688 -0.8555
  639MOL0     C86167   5.429   4.711   1.188  0.2276 -1.3050 -0.5963
  639MOL0     C86168   5.508   4.651   1.308 -0.1837  0.0618  0.0637
  639MOL0     C86169   5.647   4.611   1.252 -0.3974  0.7494 -0.2261
  639MOL0     C86170   5.724   4.513   1.342  0.0305 -0.4620  0.4051
  639MOL0     C86171   5.860   4.485   1.283  0.5649 -0.6971 -0.0082
  639MOL0     C86172   5.944   4.396   1.373  0.7759 -0.1506 -0.1660
  639MOL0     C86173   5.871   4.260   1.414 -0.7312 -0.1679 -0.0213
  639MOL0    Cl86174   5.990   4.169   1.489  0.1752 -0.4764 -0.0366
  639MOL0     C86175   5.232   4.282   1.168 -0.1850 -0.3872 -0.3785
  639MOL0     C86176   5.160   4.174   1.115  0.1981  0.5302  0.0774
  639MOL0     O86177   4.818   4.140   1.054 -0.1234 -0.4346  0.3515
  639MOL0     C86178   4.662   3.980   0.868 -0.0866 -0.5438 -0.8945
  639MOL0     C86179   4.596   3.892   0.788  0.1954  1.0329  0.4262
  639MOL0     N86180   4.419   3.136   0.640  0.5515  0.1354 -0.6430
  639MOL0     N86181   4.331   3.041   0.642  0.2319 -0.1649 -0.3888
  639MOL0     C86182   3.599   2.520   1.134  0.2829 -0.2496 -0.1699
  639MOL0     C86183   3.465   2.522   1.188  0.1359 -0.2777  0.0791
  639MOL0     C86184   3.055   2.457   1.354 -0.6869  0.3117  0.8204
  639MOL0     C86185   3.012   2.323   1.380  0.2806  0.0257  0.6288
  639MOL0     C86186   2.870   2.296   1.384 -0.0195  0.0412 -0.2029
  639MOL0     C86187   2.781   2.391   1.358 -0.8023 -0.0650 -0.1866
  639MOL0     O86188   2.646   2.374   1.348  0.3785  0.7813  1.0687
  639MOL0     C86189   2.571   2.325   1.463 -0.0604  0.1237  0.1216
  639MOL0     C86190   2.563   2.427   1.581 -0.3335 -0.6425 -0.4827
  639MOL0     C86191   2.509   2.560   1.547 -0.4359 -0.2558 -0.0342
  639MOL0     C86192   2.356   2.562   1.549  0.5113 -0.0703 -0.6049
  639MOL0     C86193   2.310   2.683   1.492 -0.6847  0.3341 -0.3301
  639MOL0     C86194   2.282   2.786   1.432  0.4107  0.1255 -0.5869
  639MOL0     C86195   2.826   2.514   1.320 -0.4606 -0.8509 -0.4291
  639MOL0     C86196   2.963   2.551   1.323 -0.1571  0.2497 -0.2438
  639MOL0     C86197   3.003   2.692   1.272 -0.3714 -0.4349  0.2564
  639MOL0     H86198   3.420   2.198   1.256  1.4121  0.8036  2.6502
  639MOL0     H86199   3.656   2.196   1.167 -1.8038 -1.7930  1.9038
  639MOL0     H86200   3.861   2.546   1.011  1.3083 -1.9141 -2.7085
  639MOL0     H86201   3.877   2.530   1.183  0.9839 -0.9441 -0.6035
  639MOL0     H86202   4.013   2.385   0.962  2.3460  3.1401 -1.2066
  639MOL0     H86203   4.043   2.324   1.121  0.5478 -1.6092 -2.2296
  639MOL0     H86204   4.223   2.461   1.010 -0.7350 -0.2102 -0.7406
  639MOL0     H86205   4.193   2.514   1.172 -1.2890  0.4646  0.9012
  639MOL0     H86206   4.074   2.642   0.914 -1.8132  0.5488  0.1276
  639MOL0     H86207   4.058   2.703   1.078  2.5736  0.3339  3.0330
  639MOL0     H86208   4.284   2.791   1.062 -0.5164 -0.0993  1.5601
  639MOL0     H86209   4.339   2.658   0.971  1.6322  2.8474  0.9434
  639MOL0     H86210   4.338   2.855   0.835  1.0394 -0.4477  1.7281
  639MOL0     H86211   4.217   2.737   0.767  2.5202 -0.6836 -0.3056
  639MOL0     H86212   4.148   2.954   0.972  1.3142 -5.1632  3.7850
  639MOL0     H86213   4.039   2.845   0.900  2.1083 -3.5428  2.4893
  639MOL0     H86214   4.088   2.922   0.665  0.5313 -2.3471  1.0092
  639MOL0     H86215   4.030   3.056   0.769  2.0827  2.4744 -1.6170
  639MOL0     H86216   4.194   3.264   0.843  2.0794  3.6176 -0.7494
  639MOL0     H86217   4.440   3.417   0.834  3.0449  3.9232 -1.1340
  639MOL0     H86218   4.556   3.367   0.712 -0.3528 -0.9739 -0.4499
  639MOL0     H86219   4.377   3.407   0.536  2.6156  0.3427 -0.6841
  639MOL0     H86220   4.268   3.468   0.662  0.1578 -0.9370  0.3482
  639MOL0     H86221   4.397   3.666   0.729 -3.3745  2.3941 -1.8823
  639MOL0     H86222   4.385   3.661   0.554 -0.0383 -2.6072 -2.2473
  639MOL0     H86223   4.623   3.555   0.552  0.2883 -0.4360  0.9346
  639MOL0     H86224   4.626   3.591   0.724  0.2138 -0.9091  0.2730
  639MOL0     H86225   4.867   3.780   0.619 -1.2441 -0.2297 -2.5455
  639MOL0     H86226   4.983   3.913   0.765  0.0170  1.2766 -1.6158
  639MOL0     H86227   5.032   4.347   0.848  0.9558 -0.3108 -1.9928
  639MOL0     H86228   5.158   4.509   0.928  0.0039  0.2676 -0.7041
  639MOL0     H86229   5.425   4.543   1.043 -0.5151 -1.0474 -0.2108
  639MOL0     H86230   5.292   4.657   1.025  0.3084  0.1276 -1.1162
  639MOL0     H86231   5.494   4.779   1.132 -0.5681 -1.0441 -1.2370
  639MOL0     H86232   5.355   4.768   1.246  1.2847  1.1974 -1.5468
  639MOL0     H86233   5.506   4.721   1.392 -0.3691  0.2678 -0.1110
  639MOL0     H86234   5.455   4.561   1.342  0.5961 -1.5176 -2.5715
  639MOL0     H86235   5.709   4.702   1.253 -0.4343  0.7808 -0.7792
  639MOL0     H86236   5.640   4.568   1.152 -1.2110 -0.2367  0.2365
  639MOL0     H86237   5.668   4.421   1.360 -1.1305 -0.6776 -3.4621
  639MOL0     H86238   5.743   4.572   1.432  2.1879  3.2621 -2.2053
  639MOL0     H86239   5.846   4.435   1.187 -0.3928  1.0006 -0.8030
  639MOL0     H86240   5.912   4.581   1.285 -0.9873  0.2068  3.5629
  639MOL0     H86241   5.981   4.452   1.459  1.7543  3.5040 -2.6865
  639MOL0     H86242   6.033   4.374   1.312  1.9359 -1.6788  1.9645
  639MOL0     H86243   5.792   4.289   1.484 -0.8082 -1.4311  0.4453
  639MOL0     H86244   5.830   4.214   1.324 -1.1084 -0.0704  0.0990
  639MOL0     H86245   5.283   4.274   1.263  2.0100 -3.3471 -1.6485
  639MOL0     H86246   5.156   4.072   1.150 -0.7381  0.3176 -0.6055
  639MOL0     H86247   4.600   4.032   0.941 -1.7099 -2.8561 -0.5256
  639MOL0     H86248   4.490   3.872   0.796  0.4274 -1.0813 -0.8962
  639MOL0     H86249   3.658   2.607   1.110  2.3074 -0.9919  1.7769
  639MOL0     H86250   3.425   2.623   1.195 -0.6953 -0.6173  0.3393
  639MOL0     H86251   3.086   2.244   1.388 -1.5308 -2.2974 -2.9013
  639MOL0     H86252   2.839   2.194   1.406 -0.1426 -0.2363 -1.5720
  639MOL0     H86253   2.612   2.232   1.503 -0.0559 -0.8085 -1.9004
  639MOL0     H86254   2.467   2.317   1.431  0.4701  1.7093 -2.2934
  639MOL0     H86255   2.661   2.444   1.625 -0.8421  3.2492 -0.5182
  639MOL0     H86256   2.495   2.391   1.659  0.3015 -0.4191  0.1868
  639MOL0     H86257   2.531   2.575   1.441 -2.3558 -2.2093 -0.7934
  639MOL0     H86258   2.559   2.631   1.613 -0.9911 -0.7207  0.9153
  639MOL0     H86259   2.312   2.471   1.508 -3.8337  1.5614 -0.0999
  639MOL0     H86260   2.320   2.564   1.653  2.7381  3.0355  0.2713
  639MOL0     H86261   2.273   2.879   1.380 -0.8180  0.9854  1.0381
  639MOL0     H86262   2.756   2.589   1.285  3.0266  2.0817 -1.7912
  639MOL0     H86263   3.091   2.680   1.208 -0.4937  0.1540 -0.0236
  639MOL0     H86264   2.921   2.745   1.222  1.4115  0.7298 -1.5867
  639MOL0     H86265   3.038   2.754   1.354  2.3537 -1.3598 -0.0978
  640MOL0     O86266   2.053   0.572   1.379 -0.2015  0.3664  0.1396
  640MOL0     C86267   2.018   0.653   1.468  0.4106 -0.2003 -0.0702
  640MOL0     O86268   2.095   0.755   1.505 -0.3196 -0.0316 -0.1989
  640MOL0     C86269   2.213   0.767   1.439 -0.3411  0.1090  0.8325
  640MOL0     C86270   2.224   0.854   1.331 -0.7830 -0.5455 -1.3748
  640MOL0     C86271   2.356   0.875   1.266  0.2268  0.6924 -0.2984
  640MOL0     C86272   2.471   0.806   1.309 -0.4896 -0.4357  0.6146
  640MOL0     O86273   2.603   0.833   1.269  0.3796  0.6617 -0.5918
  640MOL0     C86274   2.623   0.929   1.161  0.3149 -0.2578  0.3597
  640MOL0     C86275   2.765   0.959   1.127  0.3572 -0.1142 -0.0768
  640MOL0     C86276   2.828   0.845   1.049 -0.0784  0.4322 -0.7602
  640MOL0     C86277   2.963   0.907   0.998 -0.4843  0.4052  0.4109
  640MOL0     C86278   3.072   0.919   1.106 -0.4435 -0.1321 -0.0818
  640MOL0     C86279   3.219   0.919   1.053 -1.1318  0.3573 -0.5057
  640MOL0     C86280   3.324   0.922   1.164 -0.1489  0.0395 -0.3936
  640MOL0     C86281   3.387   1.055   1.204 -0.1027 -0.6164  0.2884
  640MOL0     N86282   3.470   1.044   1.331  1.2173  0.5588 -0.0811
  640MOL0     C86283   3.461   1.129   1.437  0.1257 -1.2090  1.4924
  640MOL0     C86284   3.538   1.073   1.535 -0.1591 -0.0899  0.3424
  640MOL0     C86285   3.556   1.126   1.673  0.2583 -0.2953 -0.2392
  640MOL0     C86286   3.678   1.214   1.687 -0.3061 -0.0088 -0.1626
  640MOL0     C86287   3.721   1.249   1.831  0.9973  0.5631 -0.1799
  640MOL0     C86288   3.875   1.283   1.819  0.5705  0.7546  1.2257
  640MOL0     O86289   3.903   1.340   1.949 -0.4405 -0.0148  0.0742
  640MOL0     C86290   4.019   1.409   1.968 -0.7261 -0.1870  0.3884
  640MOL0     C86291   4.021   1.500   2.078 -0.0708  0.5422 -0.3748
  640MOL0     C86292   4.148   1.559   2.099  1.2780 -0.1767 -0.6089
  640MOL0     C86293   4.260   1.544   2.022  0.1788  0.1905  1.2352
  640MOL0     C86294   4.392   1.602   2.059  0.9294 -0.2071 -1.8164
  640MOL0     O86295   4.488   1.604   1.965  0.1081  0.3077  0.3514
  640MOL0     C86296   4.598   1.672   1.978 -0.2106 -0.6291 -0.3638
  640MOL0     C86297   4.712   1.615   2.021 -0.4425  0.1920 -0.0616
  640MOL0     C86298   4.832   1.685   2.027  0.7472  0.5943  0.4037
  640MOL0     C86299   4.834   1.820   2.012 -0.5289 -0.4799 -0.0948
  640MOL0     O86300   4.948   1.879   2.048 -0.7806  0.4227 -0.3841
  640MOL0     C86301   4.990   1.993   1.975  0.1221 -0.0043 -0.6982
  640MOL0     C86302   5.139   2.006   1.978 -1.1928  0.7487  0.2791
  640MOL0     C86303   5.191   2.039   2.118  0.7132 -0.1999  0.7257
  640MOL0     C86304   5.342   2.044   2.112 -0.2892  0.5064  0.5055
  640MOL0     C86305   5.407   2.151   2.025  0.0366  0.7413  0.2255
  640MOL0     C86306   5.549   2.157   2.053  0.2150  0.6414  0.2163
  640MOL0     C86307   5.625   2.252   1.969 -0.1668  0.0018 -0.0212
  640MOL0     C86308   5.766   2.269   2.016  1.1737 -0.1263 -0.6839
  640MOL0    Cl86309   5.850   2.354   1.883 -0.4363  0.1983  0.2380
  640MOL0     C86310   4.716   1.888   1.985  0.5530 -0.2308 -0.0844
  640MOL0     C86311   4.599   1.814   1.956  0.0217 -0.3086 -0.6777
  640MOL0     O86312   4.407   1.640   2.175 -0.0460  0.1840  0.1986
  640MOL0     C86313   4.251   1.453   1.911  0.1382 -0.0883 -0.8397
  640MOL0     C86314   4.128   1.390   1.886 -0.3088 -0.0524  0.0803
  640MOL0     N86315   3.605   0.967   1.482 -0.0855 -0.6369  1.0034
  640MOL0     N86316   3.559   0.946   1.361 -0.2512 -0.2551  0.1288
  640MOL0     C86317   2.453   0.723   1.416  0.8160 -0.0916  0.1513
  640MOL0     C86318   2.329   0.705   1.482  0.2202 -0.4119  0.3655
  640MOL0     C86319   1.886   0.617   1.542 -0.4725 -0.0564 -0.1515
  640MOL0     C86320   1.890   0.597   1.679 -0.7518 -0.2078 -0.0533
  640MOL0     C86321   1.774   0.580   1.749  0.5646 -0.1994 -0.1771
  640MOL0     C86322   1.655   0.571   1.689  0.2148  0.8246 -0.8001
  640MOL0     O86323   1.548   0.548   1.774 -0.0459  0.5623 -0.3504
  640MOL0     C86324   1.416   0.541   1.718  0.5327  0.9377  0.0070
  640MOL0     C86325   1.372   0.402   1.658 -1.2003  0.3136 -0.5173
  640MOL0     C86326   1.226   0.394   1.623 -0.7134  0.6860  0.3611
  640MOL0     C86327   1.190   0.251   1.591  1.1540  0.2806 -0.2369
  640MOL0     C86328   1.046   0.223   1.613  0.6976  0.6361  0.0114
  640MOL0     C86329   0.936   0.185   1.652 -0.1711  0.2672 -0.1263
  640MOL0     C86330   1.650   0.589   1.550 -0.2231 -0.0820  0.3054
  640MOL0     C86331   1.760   0.610   1.477 -0.2786  0.3835 -0.2207
  640MOL0     C86332   1.747   0.641   1.330 -0.4600  0.2829  0.3887
  640MOL0     H86333   2.137   0.916   1.313 -0.7987 -0.3664 -0.6968
  640MOL0     H86334   2.354   0.938   1.178  0.3014  0.0617 -0.7589
  640MOL0     H86335   2.561   0.890   1.079 -3.2937 -0.9776  3.1684
  640MOL0     H86336   2.583   1.027   1.188  0.0518 -0.9885  2.8307
  640MOL0     H86337   2.831   0.990   1.209  2.5912  1.7075 -2.4087
  640MOL0     H86338   2.766   1.055   1.074  2.6556 -0.8468 -1.5355
  640MOL0     H86339   2.772   0.797   0.968 -2.2987 -1.0417  1.4876
  640MOL0     H86340   2.850   0.760   1.114 -0.9177  0.9640  0.2550
  640MOL0     H86341   3.001   0.845   0.916 -0.2994  2.1483 -0.9020
  640MOL0     H86342   2.939   1.000   0.945 -2.0944 -1.1113 -1.7327
  640MOL0     H86343   3.065   1.022   1.144 -1.5153 -0.3813  0.4190
  640MOL0     H86344   3.065   0.847   1.188  3.1615  0.7785  1.2389
  640MOL0     H86345   3.232   0.831   0.989 -2.7093  0.8350 -1.5486
  640MOL0     H86346   3.231   1.008   0.991  1.1742  0.7458  0.4027
  640MOL0     H86347   3.398   0.847   1.136  0.3390 -0.0295  1.0102
  640MOL0     H86348   3.285   0.881   1.258  1.2645  0.1045  0.2326
  640MOL0     H86349   3.450   1.094   1.124  1.2033  1.8085  2.3959
  640MOL0     H86350   3.297   1.112   1.228 -0.8552 -1.9228  0.6682
  640MOL0     H86351   3.402   1.219   1.450  2.0460 -0.0306  2.5286
  640MOL0     H86352   3.473   1.190   1.705 -0.8213 -2.2445  1.0623
  640MOL0     H86353   3.556   1.050   1.752  0.3116 -1.4953 -1.3640
  640MOL0     H86354   3.762   1.158   1.643  2.7112  3.5205  0.5656
  640MOL0     H86355   3.665   1.300   1.622  0.9208 -0.1767 -0.6614
  640MOL0     H86356   3.716   1.164   1.901  0.2716  0.6632 -0.1036
  640MOL0     H86357   3.663   1.330   1.876  0.7293  0.4191 -0.2660
  640MOL0     H86358   3.902   1.352   1.739  0.6311 -1.0716 -0.4128
  640MOL0     H86359   3.937   1.195   1.799 -0.4509 -0.0108  1.3543
  640MOL0     H86360   3.928   1.503   2.133  0.3481 -4.4571  1.1408
  640MOL0     H86361   4.130   1.612   2.193  0.0904  1.2433 -1.5828
  640MOL0     H86362   4.704   1.513   2.056  0.1148 -0.6246 -2.1222
  640MOL0     H86363   4.925   1.635   2.054  0.8091 -0.5748 -1.8254
  640MOL0     H86364   4.957   1.983   1.871 -0.4660 -1.1763 -0.4153
  640MOL0     H86365   4.948   2.086   2.013  1.5458  1.5019 -2.5671
  640MOL0     H86366   5.179   1.909   1.945  1.6329  2.4145 -1.6079
  640MOL0     H86367   5.166   2.082   1.905 -1.2100 -1.2176 -1.8742
  640MOL0     H86368   5.150   2.137   2.146 -0.3952  0.0638 -1.5945
  640MOL0     H86369   5.164   1.967   2.196  0.0938  3.1573  3.8828
  640MOL0     H86370   5.380   1.945   2.086  3.7683  1.4178  2.2168
  640MOL0     H86371   5.371   2.065   2.215  0.0760  3.7774 -0.1678
  640MOL0     H86372   5.349   2.244   2.026  0.4968  1.0333  0.4637
  640MOL0     H86373   5.404   2.114   1.923 -0.0572 -0.2525  0.5760
  640MOL0     H86374   5.571   2.187   2.156  2.1689  1.5964 -0.4254
  640MOL0     H86375   5.597   2.060   2.041  1.6413  1.2967  0.4138
  640MOL0     H86376   5.563   2.342   1.977  2.0171  1.4333  1.8918
  640MOL0     H86377   5.640   2.219   1.866  5.0539  1.3542  0.0498
  640MOL0     H86378   5.773   2.321   2.112  0.3821  0.1293 -0.7583
  640MOL0     H86379   5.809   2.169   2.029  1.9259  0.2815  0.1435
  640MOL0     H86380   4.716   1.996   1.985  1.0151 -0.1885 -1.9838
  640MOL0     H86381   4.500   1.857   1.944 -0.0905 -0.5251 -0.5320
  640MOL0     H86382   4.339   1.429   1.851  2.0881  2.5774  0.7072
  640MOL0     H86383   4.120   1.321   1.802 -1.9252 -1.8685  1.6207
  640MOL0     H86384   2.540   0.666   1.445  1.3245  0.6544  0.1369
  640MOL0     H86385   2.330   0.629   1.559 -1.2254 -0.0395  0.7780
  640MOL0     H86386   1.984   0.601   1.732 -1.3371  3.1217  0.9243
  640MOL0     H86387   1.788   0.578   1.857 -0.7312 -1.1434 -0.0075
  640MOL0     H86388   1.397   0.619   1.644 -1.8770 -1.0184 -1.5921
  640MOL0     H86389   1.349   0.554   1.803 -0.0037  0.3965 -0.3235
  640MOL0     H86390   1.393   0.320   1.727  0.1749  0.7210 -0.4284
  640MOL0     H86391   1.435   0.372   1.574 -0.8140 -1.3565  0.3151
  640MOL0     H86392   1.192   0.466   1.548 -1.0308  0.4621  0.2907
  640MOL0     H86393   1.172   0.423   1.713 -2.4188  0.2836 -0.4868
  640MOL0     H86394   1.231   0.225   1.493 -0.3964 -1.1805 -0.5425
  640MOL0     H86395   1.238   0.183   1.662 -2.0193 -1.8243  0.0836
  640MOL0     H86396   0.843   0.148   1.690  0.5510  0.4568  1.9632
  640MOL0     H86397   1.559   0.593   1.492 -0.1675 -0.4055  0.1925
  640MOL0     H86398   1.821   0.578   1.279  0.1959  2.3391 -1.3716
  640MOL0     H86399   1.656   0.598   1.288  0.1501  0.4075 -1.1361
  640MOL0     H86400   1.778   0.741   1.299  0.2055  0.2138  0.8029
  641MOL0     O86401   9.972   9.016   9.711 -0.4405  0.1785  0.1293
  641MOL0     C86402   9.898   9.114   9.699 -0.0401 -0.9163 -0.2620
  641MOL0     O86403   9.774   9.113   9.645 -0.4863 -0.4776 -0.1896
  641MOL0     C86404   9.696   9.002   9.648 -0.5717 -0.9677 -0.0840
  641MOL0     C86405   9.611   8.985   9.543  1.0267  0.2726 -1.3389
  641MOL0     C86406   9.520   8.878   9.537 -0.1697 -0.5207  0.9202
  641MOL0     C86407   9.515   8.787   9.634 -0.1611 -0.2945 -0.3708
  641MOL0     O86408   9.417   8.689   9.642  0.1925  0.5562 -0.5077
  641MOL0     C86409   9.418   8.599   9.533 -0.6393  0.5519 -0.8618
  641MOL0     C86410   9.276   8.557   9.494 -0.8682 -0.7676 -0.4107
  641MOL0     C86411   9.268   8.468   9.367 -0.6652  0.1271  0.0807
  641MOL0     C86412   9.121   8.434   9.335  0.7879  0.2651  0.1152
  641MOL0     C86413   9.089   8.368   9.212  0.3529 -0.2360 -0.4918
  641MOL0     C86414   9.135   8.223   9.206  0.2003  0.2602 -0.5461
  641MOL0     C86415   9.074   8.151   9.097  0.0337  0.0028 -0.3514
  641MOL0     C86416   9.125   8.183   8.962 -0.0814  0.0499  0.3509
  641MOL0     N86417   9.269   8.150   8.960 -0.5687  0.9507 -0.2155
  641MOL0     C86418   9.375   8.245   8.969 -0.2814  0.5434  0.2289
  641MOL0     C86419   9.481   8.168   8.942 -0.3997  0.6695 -0.9349
  641MOL0     C86420   9.622   8.221   8.928  0.1024 -0.1512 -0.6419
  641MOL0     C86421   9.706   8.161   9.044 -0.1753 -0.1069 -0.3951
  641MOL0     C86422   9.840   8.235   9.068  0.8125 -0.1360  0.2972
  641MOL0     C86423   9.939   8.200   8.954  0.4486 -0.0945 -0.5884
  641MOL0     O86424  10.033   8.301   8.962 -0.8729 -0.8649  0.5732
  641MOL0     C86425  10.150   8.287   8.896 -0.0115  0.4026 -0.2976
  641MOL0     C86426  10.230   8.167   8.893 -0.4625 -1.2002 -0.6046
  641MOL0     C86427  10.349   8.159   8.825  0.2516  0.4459  0.0274
  641MOL0     C86428  10.391   8.273   8.758 -0.3139 -0.2973 -0.2127
  641MOL0     C86429  10.530   8.282   8.711 -0.4938 -0.7264  0.5665
  641MOL0     O86430  10.612   8.181   8.754 -0.0476 -0.1776 -0.0510
  641MOL0     C86431  10.743   8.161   8.716  0.1004 -0.8683  0.1689
  641MOL0     C86432  10.813   8.052   8.778  0.3933  0.8209  0.4755
  641MOL0     C86433  10.950   8.021   8.746 -0.0933 -0.6358 -0.2199
  641MOL0     C86434  11.029   8.116   8.670  0.7022  0.7572  0.3139
  641MOL0     O86435  11.166   8.103   8.650  0.1869 -0.1332 -0.5084
  641MOL0     C86436  11.251   8.014   8.730  0.3476  0.6800 -0.1731
  641MOL0     C86437  11.389   7.998   8.677 -0.4746  0.4358 -0.7522
  641MOL0     C86438  11.473   8.118   8.733  0.1932  1.1113 -0.4994
  641MOL0     C86439  11.618   8.118   8.686  0.5905 -1.1388 -1.0704
  641MOL0     C86440  11.699   8.185   8.797 -0.5256  0.2922 -0.5906
  641MOL0     C86441  11.850   8.201   8.766  1.1184 -0.6514  0.3412
  641MOL0     C86442  11.924   8.294   8.859  0.4428  0.1324 -0.2980
  641MOL0     C86443  12.083   8.279   8.853 -1.0062  0.3044  0.5499
  641MOL0    Cl86444  12.140   8.356   8.699  0.0565  0.0920  0.2042
  641MOL0     C86445  10.960   8.219   8.615 -0.4445 -0.3408  0.6566
  641MOL0     C86446  10.822   8.234   8.626 -0.1101 -0.4257 -0.1222
  641MOL0     O86447  10.563   8.377   8.638 -0.4115  0.1371 -0.2230
  641MOL0     C86448  10.313   8.388   8.753  0.4683  0.2123  0.3667
  641MOL0     C86449  10.196   8.393   8.827 -0.5363  0.6697  0.6052
  641MOL0     N86450   9.444   8.033   8.916 -0.2382 -0.1014  0.4215
  641MOL0     N86451   9.319   8.026   8.917  0.2322  0.1093 -0.3339
  641MOL0     C86452   9.589   8.805   9.751 -0.4520  0.4841 -0.9627
  641MOL0     C86453   9.689   8.909   9.758 -0.1965  0.0547  0.1901
  641MOL0     C86454   9.955   9.258   9.731 -0.8628  0.5344  0.0705
  641MOL0     C86455  10.085   9.266   9.789 -0.2424  0.3824  0.5051
  641MOL0     C86456  10.148   9.391   9.816  0.1461  0.6459  0.3362
  641MOL0     C86457  10.085   9.508   9.777  0.2664 -0.4021  0.0079
  641MOL0     O86458  10.147   9.629   9.784  0.3061 -0.0451 -0.3386
  641MOL0     C86459  10.202   9.682   9.669 -0.9419  0.2042  0.5012
  641MOL0     C86460  10.354   9.649   9.683  0.1545 -0.7714 -0.6609
  641MOL0     C86461  10.440   9.752   9.610  0.2804 -0.3201 -0.3828
  641MOL0     C86462  10.582   9.749   9.639 -0.6636  0.1577 -0.1739
  641MOL0     C86463  10.674   9.858   9.581 -0.3900  0.0734  0.7968
  641MOL0     C86464  10.740   9.942   9.519  0.5308  0.1697  0.3103
  641MOL0     C86465   9.947   9.501   9.739 -0.4646  0.3073  0.4081
  641MOL0     C86466   9.882   9.382   9.711  0.0244  0.2435 -0.5380
  641MOL0     C86467   9.741   9.387   9.657  0.1800 -0.1219  0.3884
  641MOL0     H86468   9.610   9.057   9.461 -1.9192  1.6849 -0.2076
  641MOL0     H86469   9.460   8.867   9.448  1.7295 -0.6125 -0.4033
  641MOL0     H86470   9.462   8.636   9.439 -1.3026 -0.7024 -1.6916
  641MOL0     H86471   9.478   8.511   9.555 -2.9197 -0.6945  0.7611
  641MOL0     H86472   9.210   8.643   9.479 -0.2119 -0.4817 -1.8019
  641MOL0     H86473   9.234   8.498   9.576 -1.1716 -0.2266 -0.1697
  641MOL0     H86474   9.331   8.379   9.367  4.5703  3.4031  0.5935
  641MOL0     H86475   9.319   8.525   9.288  2.6261 -3.0837 -0.3651
  641MOL0     H86476   9.083   8.378   9.421  1.7340 -1.5904 -0.6113
  641MOL0     H86477   9.063   8.527   9.332 -1.3306 -0.8947  1.9715
  641MOL0     H86478   8.982   8.381   9.198  0.4041  1.9356  0.7388
  641MOL0     H86479   9.148   8.417   9.134  0.9751  0.1343  0.2015
  641MOL0     H86480   9.244   8.213   9.206  0.2728 -0.0296 -4.2125
  641MOL0     H86481   9.097   8.174   9.297 -0.9841  1.2444 -0.4789
  641MOL0     H86482   8.966   8.162   9.094  0.2699  3.9590  0.1797
  641MOL0     H86483   9.097   8.047   9.123 -2.9411 -0.2189  1.8234
  641MOL0     H86484   9.070   8.126   8.886 -2.3249  3.4093 -0.7694
  641MOL0     H86485   9.115   8.290   8.945  1.4407  0.2786  0.6872
  641MOL0     H86486   9.380   8.351   8.988 -0.3276  0.8004 -1.0987
  641MOL0     H86487   9.662   8.199   8.829 -1.4192 -1.8166 -0.9547
  641MOL0     H86488   9.618   8.329   8.943 -1.5379 -0.3125  0.3829
  641MOL0     H86489   9.640   8.165   9.131  0.8553 -2.1562  0.5599
  641MOL0     H86490   9.726   8.053   9.043 -1.7398 -0.4324  0.1211
  641MOL0     H86491   9.869   8.195   9.165 -1.4588 -2.7437  0.0136
  641MOL0     H86492   9.823   8.341   9.087 -0.8858 -0.7368  2.4905
  641MOL0     H86493   9.892   8.190   8.856  0.6376 -1.8256 -0.5341
  641MOL0     H86494   9.991   8.108   8.985  0.7606 -0.3078 -1.7104
  641MOL0     H86495  10.195   8.076   8.941  1.8638 -2.1844 -0.6652
  641MOL0     H86496  10.415   8.072   8.827 -0.0627  0.2051  2.0435
  641MOL0     H86497  10.763   7.978   8.840 -0.5398 -0.6919 -1.9474
  641MOL0     H86498  11.006   7.938   8.788 -0.2113 -0.7897 -0.3700
  641MOL0     H86499  11.255   8.036   8.837 -0.0985 -1.3327  0.2982
  641MOL0     H86500  11.208   7.914   8.727  0.5543  0.5880 -0.0623
  641MOL0     H86501  11.435   7.910   8.723  0.9247  0.8766 -1.2593
  641MOL0     H86502  11.394   7.986   8.568 -0.7739 -2.7355 -0.5231
  641MOL0     H86503  11.417   8.206   8.701  0.2508  0.5906 -2.1031
  641MOL0     H86504  11.482   8.114   8.842  1.1529 -0.6269 -0.6044
  641MOL0     H86505  11.644   8.176   8.596 -0.3993  1.0868 -0.0053
  641MOL0     H86506  11.654   8.016   8.668  1.5173 -0.4308 -3.7216
  641MOL0     H86507  11.690   8.124   8.887  0.5795  1.1232  0.0949
  641MOL0     H86508  11.665   8.287   8.819  2.1038  1.7750 -2.7395
  641MOL0     H86509  11.908   8.109   8.757  0.0285 -1.4368  1.1546
  641MOL0     H86510  11.852   8.253   8.669 -2.6004 -1.5020 -0.3449
  641MOL0     H86511  11.886   8.270   8.958 -1.6617  0.2310 -1.0388
  641MOL0     H86512  11.891   8.396   8.837  0.8989  0.4185  0.3101
  641MOL0     H86513  12.129   8.334   8.935  0.5791  2.6773 -1.7817
  641MOL0     H86514  12.102   8.171   8.862  0.4825  0.1962 -2.5761
  641MOL0     H86515  11.019   8.286   8.553 -1.8593  0.3355  0.0097
  641MOL0     H86516  10.767   8.310   8.571  0.1846 -0.0113  0.1559
  641MOL0     H86517  10.346   8.482   8.709  1.1408 -0.1970 -0.0367
  641MOL0     H86518  10.140   8.485   8.812  1.4402  1.7469 -0.6773
  641MOL0     H86519   9.572   8.747   9.841 -0.9973  2.9665  0.6392
  641MOL0     H86520   9.756   8.936   9.839  1.0319 -0.5977 -0.5804
  641MOL0     H86521  10.130   9.173   9.822 -0.8738 -0.2821 -0.4623
  641MOL0     H86522  10.253   9.388   9.844  0.4416  0.4522 -0.7387
  641MOL0     H86523  10.178   9.788   9.663 -0.3574  0.2876 -0.5491
  641MOL0     H86524  10.164   9.631   9.580 -0.8988  1.5403 -0.3024
  641MOL0     H86525  10.372   9.555   9.629  1.3069  0.2673 -2.1852
  641MOL0     H86526  10.374   9.638   9.789  3.0095  1.4606 -0.8438
  641MOL0     H86527  10.401   9.851   9.637  0.4476  0.0181 -1.3233
  641MOL0     H86528  10.428   9.751   9.501  2.5983  1.9554 -0.7648
  641MOL0     H86529  10.610   9.759   9.744 -0.7110  1.6272 -0.2815
  641MOL0     H86530  10.612   9.647   9.613  0.1899  0.5083 -0.6017
  641MOL0     H86531  10.787  10.017   9.459 -2.1898 -0.0061 -2.2471
  641MOL0     H86532   9.893   9.595   9.731 -0.0595  0.4887 -0.3335
  641MOL0     H86533   9.701   9.485   9.684  0.4697  0.0864  0.0688
  641MOL0     H86534   9.726   9.372   9.549 -0.3174  4.5244 -0.3862
  641MOL0     H86535   9.672   9.321   9.710 -0.1357 -0.6827 -0.6775
  642MOL0     O86536  10.088  10.330   1.413  0.4539  0.3302  0.0035
  642MOL0     C86537  10.064  10.209   1.421 -0.1782 -0.0103 -0.0301
  642MOL0     O86538  10.148  10.115   1.371  1.2444  0.2819 -0.1534
  642MOL0     C86539  10.271  10.167   1.328 -0.3272  0.5488 -0.1544
  642MOL0     C86540  10.308  10.159   1.192  0.3541 -0.5500  0.4836
  642MOL0     C86541  10.437  10.204   1.154  0.0466 -0.1812  0.2584
  642MOL0     C86542  10.519  10.244   1.252 -0.5314 -1.0282 -0.3195
  642MOL0     O86543  10.650  10.294   1.222  0.1985 -0.4420 -0.9934
  642MOL0     C86544  10.717  10.377   1.316  0.4780 -0.8360 -0.4353
  642MOL0     C86545  10.837  10.431   1.232  0.6543  0.0044  0.3614
  642MOL0     C86546  10.888  10.563   1.277  0.1471 -0.0108  0.2442
  642MOL0     C86547  11.015  10.576   1.199 -1.0091 -0.1010 -0.7164
  642MOL0     C86548  11.101  10.696   1.252  0.0419  0.4971  0.3203
  642MOL0     C86549  11.234  10.704   1.165  0.1511 -0.3911  0.4231
  642MOL0     C86550  11.307  10.834   1.197 -0.2283 -0.1904  0.3062
  642MOL0     C86551  11.246  10.959   1.126  1.5070 -0.6967 -0.3933
  642MOL0     N86552  11.316  11.090   1.144  0.9938  0.3629  0.2616
  642MOL0     C86553  11.335  11.178   1.042  0.4582 -1.0716 -0.2582
  642MOL0     C86554  11.387  11.288   1.099 -0.6240  0.2985 -0.0990
  642MOL0     C86555  11.409  11.418   1.028  0.3671  0.0885  0.1839
  642MOL0     C86556  11.513  11.497   1.100  0.2100  0.0332  0.6788
  642MOL0     C86557  11.560  11.618   1.023  0.7475 -0.8917  0.5766
  642MOL0     C86558  11.603  11.600   0.881 -0.5836 -0.1661  0.5637
  642MOL0     O86559  11.725  11.521   0.883 -0.3331 -0.1516  0.6374
  642MOL0     C86560  11.833  11.570   0.816 -0.3146  0.1597  0.0190
  642MOL0     C86561  11.951  11.557   0.890 -0.0249 -0.4590 -0.0476
  642MOL0     C86562  12.074  11.591   0.834  0.4622  0.0199  0.8523
  642MOL0     C86563  12.081  11.661   0.712  0.1351  0.3171 -0.0122
  642MOL0     C86564  12.203  11.717   0.663 -0.5978 -0.3930 -0.3146
  642MOL0     O86565  12.216  11.720   0.527 -0.4256 -0.1926  0.5539
  642MOL0     C86566  12.336  11.753   0.465 -0.2590 -0.4777 -0.2809
  642MOL0     C86567  12.350  11.867   0.388 -0.4150  0.3006 -0.2612
  642MOL0     C86568  12.467  11.903   0.338  0.0079  0.1303  0.2612
  642MOL0     C86569  12.581  11.828   0.352 -0.5271  0.6566 -0.7512
  642MOL0     O86570  12.707  11.861   0.312 -0.5105 -0.0553  0.3249
  642MOL0     C86571  12.717  11.984   0.245 -0.2326 -0.2470 -0.2525
  642MOL0     C86572  12.867  12.018   0.206  0.6696 -0.2268 -0.4376
  642MOL0     C86573  12.948  12.040   0.331  0.2431  0.5799  0.3360
  642MOL0     C86574  13.082  12.120   0.318 -1.0180  0.0975 -0.2777
  642MOL0     C86575  13.119  12.185   0.458 -1.1966 -0.7806 -0.7583
  642MOL0     C86576  13.134  12.082   0.575  0.7630  0.1261  0.7639
  642MOL0     C86577  13.184  12.151   0.702  0.5020  0.4346 -0.4878
  642MOL0     C86578  13.312  12.090   0.761 -0.2948 -0.0216  0.3896
  642MOL0    Cl86579  13.449  12.083   0.640 -0.2886 -0.2300  0.5359
  642MOL0     C86580  12.575  11.710   0.422  0.1924  0.1861 -0.5447
  642MOL0     C86581  12.455  11.669   0.476  0.3035  0.2591  0.3234
  642MOL0     O86582  12.290  11.753   0.748  0.3543  0.4130  0.5084
  642MOL0     C86583  11.955  11.675   0.641  1.0763 -0.0900 -0.5288
  642MOL0     C86584  11.829  11.629   0.690 -1.3388  0.1199 -0.2442
  642MOL0     N86585  11.413  11.256   1.234  0.3127 -0.0113 -0.2850
  642MOL0     N86586  11.368  11.134   1.259  0.0981 -0.1294  0.4068
  642MOL0     C86587  10.488  10.251   1.386  0.9055 -0.3701  0.1709
  642MOL0     C86588  10.355  10.232   1.423 -0.2426  0.3212  0.1950
  642MOL0     C86589   9.936  10.162   1.478 -0.0894  0.3704  0.6132
  642MOL0     C86590   9.902  10.024   1.454  0.2079  0.4869  0.4995
  642MOL0     C86591   9.793   9.961   1.515 -0.0253  0.1377  0.2664
  642MOL0     C86592   9.710  10.039   1.589 -0.1066 -0.2572  0.7236
  642MOL0     O86593   9.586   9.989   1.628  0.1029  0.2932 -0.2629
  642MOL0     C86594   9.475  10.076   1.628  0.4941  0.1486  0.1852
  642MOL0     C86595   9.347   9.997   1.657  0.2719 -0.1301  0.1538
  642MOL0     C86596   9.222  10.088   1.639  0.2420  0.4906 -0.8761
  642MOL0     C86597   9.150  10.048   1.514  0.2791 -0.5044  1.1312
  642MOL0     C86598   9.029  10.121   1.497 -0.8986 -0.9179  0.2874
  642MOL0     C86599   8.932  10.189   1.482 -0.2860 -1.0693  0.2817
  642MOL0     C86600   9.738  10.174   1.608 -0.2464 -0.4318  0.0222
  642MOL0     C86601   9.846  10.246   1.554 -0.6854  0.4468  0.4280
  642MOL0     C86602   9.858  10.392   1.580  0.8778  0.3354 -0.0610
  642MOL0     H86603  10.230  10.129   1.124 -0.4168  1.3207  0.4895
  642MOL0     H86604  10.455  10.196   1.047 -1.1095 -2.9916  0.1965
  642MOL0     H86605  10.657  10.459   1.356  3.7875  1.9332 -0.6929
  642MOL0     H86606  10.766  10.325   1.399 -1.0485  0.4993  1.3725
  642MOL0     H86607  10.798  10.454   1.133  1.3443  0.0308  0.0980
  642MOL0     H86608  10.916  10.357   1.241  2.2205  1.5478 -0.2262
  642MOL0     H86609  10.903  10.582   1.384 -0.5895 -0.4259  0.4274
  642MOL0     H86610  10.821  10.643   1.245  2.6651  3.4337  2.7335
  642MOL0     H86611  11.075  10.485   1.194  0.8314  1.1404 -2.3150
  642MOL0     H86612  10.992  10.597   1.094 -1.4670 -1.4946 -0.9109
  642MOL0     H86613  11.041  10.787   1.245  0.6392  0.7999 -1.4201
  642MOL0     H86614  11.133  10.679   1.355 -1.4879 -2.4803  0.4163
  642MOL0     H86615  11.292  10.618   1.200 -1.3800 -1.1206  1.2835
  642MOL0     H86616  11.218  10.689   1.058  2.5072  0.5993 -0.1241
  642MOL0     H86617  11.408  10.828   1.153 -0.7278 -0.0895 -0.8896
  642MOL0     H86618  11.314  10.849   1.305  2.5195 -1.5672  0.4126
  642MOL0     H86619  11.240  10.931   1.021  1.1393 -1.3529 -0.1996
  642MOL0     H86620  11.140  10.968   1.152  1.8586  3.4387  0.3933
  642MOL0     H86621  11.311  11.185   0.936  0.5806 -1.7335 -0.3327
  642MOL0     H86622  11.451  11.387   0.932 -0.1153 -0.6681  0.2167
  642MOL0     H86623  11.316  11.474   1.018 -1.3169 -2.7083 -0.8534
  642MOL0     H86624  11.476  11.529   1.198  0.3824 -1.1719  1.1535
  642MOL0     H86625  11.601  11.435   1.120  0.3075 -1.1580 -2.7442
  642MOL0     H86626  11.651  11.649   1.077  1.6053 -0.9416 -0.7818
  642MOL0     H86627  11.497  11.707   1.027  4.2674  2.0473 -1.9928
  642MOL0     H86628  11.631  11.697   0.839 -2.2736  0.9194  1.8065
  642MOL0     H86629  11.526  11.557   0.817  0.2710  1.2233 -1.5165
  642MOL0     H86630  11.945  11.497   0.980  0.0620 -0.9252 -0.3463
  642MOL0     H86631  12.168  11.572   0.885  1.9093  2.3482 -0.7080
  642MOL0     H86632  12.259  11.926   0.387 -0.6954 -0.1329 -0.3611
  642MOL0     H86633  12.477  12.007   0.307  4.1524 -0.5440 -1.3865
  642MOL0     H86634  12.649  11.994   0.160 -2.9388  0.4416  1.8407
  642MOL0     H86635  12.687  12.061   0.317  2.4619  1.0850 -0.4171
  642MOL0     H86636  12.894  11.942   0.131 -0.8725  2.4698 -4.0232
  642MOL0     H86637  12.854  12.112   0.152 -0.7680  0.0453  0.3488
  642MOL0     H86638  12.891  12.087   0.412  1.9376  1.2801  1.1914
  642MOL0     H86639  12.975  11.940   0.365  0.0873 -0.0098 -1.2085
  642MOL0     H86640  13.082  12.191   0.236  1.9908 -0.6488 -1.0430
  642MOL0     H86641  13.162  12.049   0.297 -2.0872 -1.2877  0.1804
  642MOL0     H86642  13.043  12.259   0.483  0.5710  0.5063  1.2547
  642MOL0     H86643  13.210  12.241   0.434 -1.8552  0.3748 -0.6241
  642MOL0     H86644  13.037  12.033   0.588 -0.4279  1.6148 -1.6759
  642MOL0     H86645  13.210  12.007   0.550  1.9443  0.7319  2.3570
  642MOL0     H86646  13.101  12.151   0.773  2.9785 -3.1461  2.8092
  642MOL0     H86647  13.216  12.253   0.680  2.1412 -0.4615 -2.6937
  642MOL0     H86648  13.356  12.137   0.850  1.1331 -2.6644  1.1842
  642MOL0     H86649  13.287  11.989   0.795  1.7852 -0.5806  0.3896
  642MOL0     H86650  12.665  11.649   0.426 -0.5356 -0.8850 -0.0230
  642MOL0     H86651  12.443  11.572   0.524 -0.0431  1.9576  4.0780
  642MOL0     H86652  11.960  11.728   0.546  1.9588 -0.6760 -0.8114
  642MOL0     H86653  11.738  11.642   0.632  0.2011  0.5230 -2.7420
  642MOL0     H86654  10.559  10.273   1.465 -0.0307  1.4536  0.5603
  642MOL0     H86655  10.312  10.241   1.523  1.1552  1.2111  0.7522
  642MOL0     H86656   9.971   9.960   1.399  1.9766  3.1284 -0.5448
  642MOL0     H86657   9.773   9.855   1.510  1.8161 -0.5954  4.3368
  642MOL0     H86658   9.478  10.136   1.537 -0.9296 -1.7992 -1.2253
  642MOL0     H86659   9.474  10.134   1.721 -0.8344  0.3245  0.0761
  642MOL0     H86660   9.341   9.938   1.748  1.8655 -1.1480 -0.3568
  642MOL0     H86661   9.351   9.937   1.565  0.2540 -0.1366  0.1579
  642MOL0     H86662   9.248  10.194   1.644 -0.2105  0.5905 -0.5175
  642MOL0     H86663   9.155  10.064   1.723  1.8777  0.9929  0.6271
  642MOL0     H86664   9.203  10.066   1.420 -3.1032  0.7021 -0.7390
  642MOL0     H86665   9.136   9.941   1.526 -1.6097 -0.2539  1.4795
  642MOL0     H86666   8.846  10.248   1.457 -0.3881 -1.4088 -0.2011
  642MOL0     H86667   9.670  10.229   1.673  1.7132  1.0532  0.9213
  642MOL0     H86668   9.805  10.459   1.512 -0.2810  0.1581  0.6318
  642MOL0     H86669   9.818  10.420   1.678 -2.5369 -0.2036 -1.1637
  642MOL0     H86670   9.965  10.412   1.582  1.1141 -0.7228 -0.8187
  643MOL0     O86671   0.728   7.679   1.367  0.6687 -0.3339 -0.1816
  643MOL0     C86672   0.701   7.699   1.486  1.3589  0.7748 -0.6365
  643MOL0     O86673   0.792   7.714   1.591 -0.2188  0.1647 -0.6607
  643MOL0     C86674   0.923   7.696   1.555 -0.2468 -1.2425  1.1955
  643MOL0     C86675   0.977   7.589   1.487  0.3038 -0.7062  0.6115
  643MOL0     C86676   1.111   7.577   1.443 -0.9713 -0.3284 -0.1476
  643MOL0     C86677   1.200   7.694   1.453 -0.1231 -0.0271 -0.2633
  643MOL0     O86678   1.330   7.698   1.408  0.3439 -0.2813  0.2005
  643MOL0     C86679   1.359   7.630   1.286 -0.1514  0.5526  0.4300
  643MOL0     C86680   1.508   7.629   1.253 -0.3916  1.3147 -0.3857
  643MOL0     C86681   1.592   7.573   1.371 -0.5908  0.7553 -0.2386
  643MOL0     C86682   1.735   7.551   1.323 -1.1949 -0.5743  0.3286
  643MOL0     C86683   1.812   7.472   1.429 -0.0938 -0.0937 -0.7989
  643MOL0     C86684   1.777   7.322   1.425 -0.0612 -0.8699 -0.5325
  643MOL0     C86685   1.822   7.230   1.540  0.0698 -0.2331 -0.0512
  643MOL0     C86686   1.974   7.259   1.576  0.5231  0.3359 -0.1753
  643MOL0     N86687   2.059   7.214   1.460  0.3878 -0.3092 -0.2983
  643MOL0     C86688   2.144   7.106   1.448 -0.6946  0.7282  0.4520
  643MOL0     C86689   2.209   7.117   1.334  0.7124 -0.4917 -0.5326
  643MOL0     C86690   2.296   7.017   1.258  1.0195 -0.3485 -0.2182
  643MOL0     C86691   2.227   6.947   1.145  0.8776  0.3104  0.2634
  643MOL0     C86692   2.215   7.035   1.026  0.4350  0.0411  0.0473
  643MOL0     C86693   2.138   6.983   0.912 -0.1582  0.0944 -0.0475
  643MOL0     O86694   2.208   6.865   0.854  0.8612  0.4054  0.2092
  643MOL0     C86695   2.144   6.776   0.769  0.0345 -0.5799  0.2861
  643MOL0     C86696   2.215   6.667   0.719  0.0534 -0.1699  0.1473
  643MOL0     C86697   2.150   6.583   0.628  0.6754  0.3228 -0.1831
  643MOL0     C86698   2.012   6.581   0.610 -0.3620 -0.3178 -0.5793
  643MOL0     C86699   1.957   6.471   0.538  0.1661  0.1368 -0.4654
  643MOL0     O86700   1.820   6.453   0.546  0.0498 -0.3489 -0.4140
  643MOL0     C86701   1.761   6.347   0.489  0.6149  0.1791 -0.5106
  643MOL0     C86702   1.645   6.305   0.553  0.3656  0.7293 -0.3536
  643MOL0     C86703   1.567   6.199   0.516 -0.1867 -0.2019 -0.1878
  643MOL0     C86704   1.613   6.120   0.410  0.6182 -0.1243  0.6785
  643MOL0     O86705   1.553   6.016   0.352  0.4152 -0.3752  0.9509
  643MOL0     C86706   1.423   5.978   0.406  0.0333  0.3089 -0.3761
  643MOL0     C86707   1.380   5.833   0.369 -0.2632 -0.2643  0.3348
  643MOL0     C86708   1.227   5.821   0.386 -0.6208  0.5687  0.8350
  643MOL0     C86709   1.177   5.683   0.343 -0.2653  0.2899  0.8194
  643MOL0     C86710   1.028   5.664   0.359  0.3120  0.4090 -0.5197
  643MOL0     C86711   0.954   5.747   0.258 -0.1231 -0.5156  0.1316
  643MOL0     C86712   0.800   5.749   0.267  0.1146  0.0488  0.2070
  643MOL0     C86713   0.740   5.620   0.222  0.3628 -0.0793  0.4967
  643MOL0    Cl86714   0.561   5.637   0.212  0.1181  0.4073 -0.0350
  643MOL0     C86715   1.736   6.148   0.350 -0.0016  0.6616 -0.0246
  643MOL0     C86716   1.807   6.268   0.381 -0.2738 -0.3518  0.2897
  643MOL0     O86717   2.035   6.396   0.483 -0.3632 -0.1499 -0.2939
  643MOL0     C86718   1.950   6.691   0.659 -0.5373 -0.4575 -0.0580
  643MOL0     C86719   2.015   6.789   0.740 -1.2331  0.6133  0.0194
  643MOL0     N86720   2.170   7.239   1.278 -0.0628  0.6176  0.0687
  643MOL0     N86721   2.084   7.293   1.348 -0.3738  0.2136 -0.0455
  643MOL0     C86722   1.152   7.803   1.521 -0.1595 -0.6963  1.1113
  643MOL0     C86723   1.015   7.801   1.570  0.0889  0.1098 -0.3512
  643MOL0     C86724   0.552   7.717   1.521  0.6586 -0.3535  0.1192
  643MOL0     C86725   0.513   7.722   1.661 -0.3391  1.0565  0.2028
  643MOL0     C86726   0.381   7.735   1.701 -0.1641  0.4678 -0.2994
  643MOL0     C86727   0.278   7.736   1.607 -1.0730  0.4010  0.1776
  643MOL0     O86728   0.150   7.743   1.648 -0.1552 -0.1696  0.1571
  643MOL0     C86729   0.109   7.768   1.784 -0.2469  0.2615  0.1320
  643MOL0     C86730  -0.040   7.785   1.795 -0.3700  0.5619 -0.6588
  643MOL0     C86731  -0.091   7.916   1.725  0.3042  0.1454 -0.1304
  643MOL0     C86732  -0.241   7.913   1.681 -0.1128  0.1054  0.4695
  643MOL0     C86733  -0.330   7.870   1.790  0.8351  0.1839 -0.0358
  643MOL0     C86734  -0.414   7.846   1.885 -0.3887 -0.2538  0.7173
  643MOL0     C86735   0.310   7.728   1.470 -0.8926  0.4907  0.3309
  643MOL0     C86736   0.441   7.722   1.425 -0.7034 -0.0110 -0.3722
  643MOL0     C86737   0.468   7.728   1.272 -0.4652  0.2351  1.0836
  643MOL0     H86738   0.917   7.504   1.457 -0.4560 -0.2353  0.7744
  643MOL0     H86739   1.143   7.490   1.386  0.4406  0.7301 -1.0211
  643MOL0     H86740   1.321   7.527   1.289  0.0700  0.4623  0.1199
  643MOL0     H86741   1.309   7.672   1.197 -0.4585 -1.9725 -0.6682
  643MOL0     H86742   1.542   7.732   1.238 -0.2257  1.2282 -0.6117
  643MOL0     H86743   1.529   7.572   1.162 -3.4885  0.1284 -0.4542
  643MOL0     H86744   1.552   7.474   1.397 -0.4744  0.5427 -0.8454
  643MOL0     H86745   1.592   7.634   1.461 -2.6618 -3.0000  2.6343
  643MOL0     H86746   1.749   7.506   1.224  1.2314 -1.9130  1.2099
  643MOL0     H86747   1.791   7.642   1.302 -0.0066 -0.7821  2.3982
  643MOL0     H86748   1.919   7.482   1.414 -0.1586 -0.2201 -1.3621
  643MOL0     H86749   1.796   7.513   1.529  1.5572  0.3350 -0.6881
  643MOL0     H86750   1.670   7.303   1.420 -0.1415 -0.2224 -1.5939
  643MOL0     H86751   1.813   7.291   1.326  0.5325  0.5140 -0.7712
  643MOL0     H86752   1.808   7.124   1.517 -0.2934 -0.5144  1.3245
  643MOL0     H86753   1.758   7.258   1.624 -0.1650  3.1206 -1.2012
  643MOL0     H86754   1.986   7.365   1.601 -3.6605  1.2915 -1.3542
  643MOL0     H86755   1.994   7.206   1.670 -3.1984  2.2514  1.9523
  643MOL0     H86756   2.150   7.026   1.521 -1.1276  0.2121 -0.0677
  643MOL0     H86757   2.392   7.064   1.235  0.6293  1.5178  1.6077
  643MOL0     H86758   2.332   6.942   1.329  0.7891  0.6611  0.9983
  643MOL0     H86759   2.285   6.863   1.106 -2.1451 -2.2889  0.9635
  643MOL0     H86760   2.133   6.910   1.186 -0.0556  2.3487  0.0354
  643MOL0     H86761   2.318   7.044   0.989 -0.8036  1.6509 -3.4413
  643MOL0     H86762   2.171   7.130   1.059 -0.3857 -1.0297  2.2139
  643MOL0     H86763   2.114   7.066   0.845 -0.2901 -0.8507 -1.2194
  643MOL0     H86764   2.044   6.964   0.965 -0.6428  2.9745  0.2847
  643MOL0     H86765   2.315   6.651   0.759  0.4551  0.2740 -0.6582
  643MOL0     H86766   2.204   6.496   0.591  0.1076  0.0316 -0.3363
  643MOL0     H86767   1.615   6.380   0.626  3.1308  0.9802  0.6090
  643MOL0     H86768   1.469   6.182   0.558 -0.7785  3.1807  0.0764
  643MOL0     H86769   1.424   5.972   0.515 -1.8758 -1.4515 -0.4013
  643MOL0     H86770   1.349   6.050   0.371 -0.5194 -0.6500 -1.2259
  643MOL0     H86771   1.392   5.815   0.262  1.7617 -3.2438  0.9571
  643MOL0     H86772   1.436   5.765   0.433 -1.9590  0.9621  3.3009
  643MOL0     H86773   1.204   5.848   0.490 -2.3422  0.6132  0.4802
  643MOL0     H86774   1.177   5.892   0.318  1.5486  1.6277  0.2659
  643MOL0     H86775   1.225   5.602   0.398 -0.7199  0.2007  1.0838
  643MOL0     H86776   1.202   5.673   0.236 -0.3673  4.9386  0.1501
  643MOL0     H86777   0.998   5.687   0.462 -2.5876 -2.4496 -0.5728
  643MOL0     H86778   1.005   5.558   0.348  0.3552  0.5700 -2.6226
  643MOL0     H86779   0.992   5.849   0.268  0.7292 -0.8623  0.5964
  643MOL0     H86780   0.991   5.703   0.165  2.7645 -1.4009  1.5727
  643MOL0     H86781   0.755   5.827   0.204  0.6951  0.6073  0.4668
  643MOL0     H86782   0.778   5.764   0.373 -2.0358  2.4541 -0.4647
  643MOL0     H86783   0.767   5.590   0.120  1.3546 -0.9469  0.9870
  643MOL0     H86784   0.757   5.545   0.300  1.1097  0.8042  1.2069
  643MOL0     H86785   1.771   6.086   0.268 -0.3077  1.2200 -0.5885
  643MOL0     H86786   1.895   6.296   0.325 -1.7338 -0.2217 -2.0789
  643MOL0     H86787   1.845   6.707   0.639 -1.0603 -1.5665  1.5990
  643MOL0     H86788   1.946   6.871   0.759  1.0977  3.0183 -1.1449
  643MOL0     H86789   1.210   7.895   1.519 -1.8474  0.5267 -3.1198
  643MOL0     H86790   0.984   7.884   1.633  0.4965 -0.9337  1.2976
  643MOL0     H86791   0.587   7.715   1.739  1.0717  1.5662 -1.0478
  643MOL0     H86792   0.362   7.729   1.808 -0.7808  0.2638 -0.4129
  643MOL0     H86793   0.159   7.856   1.827  0.8730 -0.8930  1.2933
  643MOL0     H86794   0.129   7.683   1.850 -1.5149  0.8112  1.2917
  643MOL0     H86795  -0.056   7.808   1.901  1.3404  1.6550 -0.5891
  643MOL0     H86796  -0.088   7.692   1.766 -1.1869  0.7942 -0.0850
  643MOL0     H86797  -0.029   7.928   1.636  0.3492  0.7872 -0.0199
  643MOL0     H86798  -0.090   8.003   1.791 -2.6696  0.7112 -0.6744
  643MOL0     H86799  -0.267   8.010   1.637  1.6707  0.5779  0.3577
  643MOL0     H86800  -0.255   7.842   1.600  1.5135  0.9906 -0.6515
  643MOL0     H86801  -0.486   7.825   1.961 -0.5231 -2.3949  0.0676
  643MOL0     H86802   0.234   7.719   1.393 -1.6492  0.0255  1.1096
  643MOL0     H86803   0.371   7.742   1.223 -1.4363  2.0449  3.3329
  643MOL0     H86804   0.527   7.818   1.252  0.1301 -0.6643 -1.6475
  643MOL0     H86805   0.520   7.640   1.232  2.0910  0.7264  3.0250
  644MOL0     O86806   6.183   7.604   7.496 -0.4220 -0.4122 -0.2343
  644MOL0     C86807   6.199   7.525   7.403 -0.3011  0.1397 -0.2834
  644MOL0     O86808   6.307   7.446   7.384  0.7254 -0.0373 -0.2252
  644MOL0     C86809   6.415   7.458   7.466 -0.8373 -0.9947 -0.4058
  644MOL0     C86810   6.536   7.474   7.398  0.0132 -0.8293  0.1968
  644MOL0     C86811   6.656   7.472   7.476 -1.0850 -0.0652 -0.4284
  644MOL0     C86812   6.656   7.482   7.616 -0.0918 -0.9200 -0.3421
  644MOL0     O86813   6.766   7.483   7.691 -0.0255 -0.5724 -0.9363
  644MOL0     C86814   6.897   7.490   7.633 -0.8564 -0.0010  0.7143
  644MOL0     C86815   7.002   7.498   7.742  0.0880 -0.4912  0.0519
  644MOL0     C86816   7.143   7.497   7.684  0.1146  0.9762  0.3667
  644MOL0     C86817   7.250   7.463   7.788 -0.1018  0.3723  0.5478
  644MOL0     C86818   7.392   7.485   7.730 -0.9805 -0.3498  0.4133
  644MOL0     C86819   7.494   7.459   7.843  0.3428 -0.1934  0.6653
  644MOL0     C86820   7.637   7.520   7.821  0.7466 -0.1278 -0.5882
  644MOL0     C86821   7.632   7.673   7.827 -0.1699  0.8585  0.6468
  644MOL0     N86822   7.765   7.712   7.877  0.2447 -0.0463 -0.0719
  644MOL0     C86823   7.784   7.743   8.012 -0.7428 -0.6237  0.4131
  644MOL0     C86824   7.910   7.810   8.011  0.4221 -0.4847 -0.5732
  644MOL0     C86825   7.986   7.852   8.130 -0.3780  0.8316  0.4318
  644MOL0     C86826   7.904   7.908   8.254 -0.4896  0.7498  0.4822
  644MOL0     C86827   7.998   7.930   8.375  0.9102 -0.5183 -0.6517
  644MOL0     C86828   7.944   7.981   8.514 -0.0157  0.7171  0.8621
  644MOL0     O86829   8.050   8.038   8.592 -0.1196 -0.3039  0.5971
  644MOL0     C86830   8.139   7.953   8.646 -0.2951 -0.3182 -0.5831
  644MOL0     C86831   8.262   8.014   8.666 -0.9639  0.2319  0.4827
  644MOL0     C86832   8.372   7.942   8.707 -1.1048  0.7437 -0.5787
  644MOL0     C86833   8.354   7.810   8.740 -0.0379 -0.1221 -1.1266
  644MOL0     C86834   8.470   7.739   8.793 -0.4124  0.4324 -0.4020
  644MOL0     O86835   8.588   7.767   8.724  0.3280  0.3868 -0.1080
  644MOL0     C86836   8.710   7.701   8.756 -1.3192 -0.2404 -1.0230
  644MOL0     C86837   8.738   7.581   8.831 -0.2202  0.1731  1.1393
  644MOL0     C86838   8.863   7.545   8.856 -0.0751 -0.1068  0.2736
  644MOL0     C86839   8.981   7.619   8.824  0.8216  0.1062 -0.1014
  644MOL0     O86840   9.109   7.582   8.849 -0.0568  0.2549  0.6159
  644MOL0     C86841   9.120   7.460   8.937 -0.1502  0.2783  0.2243
  644MOL0     C86842   9.266   7.447   8.988  0.3471  0.2195 -0.3582
  644MOL0     C86843   9.322   7.571   9.055  0.5013 -0.5366  0.3180
  644MOL0     C86844   9.475   7.557   9.082 -0.1750  0.8079 -0.2045
  644MOL0     C86845   9.548   7.692   9.106 -0.1183 -0.1742  0.0354
  644MOL0     C86846   9.698   7.677   9.131  0.1180 -0.5102 -0.1155
  644MOL0     C86847   9.758   7.806   9.170  0.8901 -0.2294  0.5886
  644MOL0     C86848   9.850   7.787   9.284  0.1187  0.0284 -0.5011
  644MOL0    Cl86849   9.909   7.942   9.343  0.1837 -0.5459 -0.1530
  644MOL0     C86850   8.961   7.731   8.732  1.4442  0.3904 -0.3081
  644MOL0     C86851   8.828   7.760   8.699  0.1568  0.1040  0.0248
  644MOL0     O86852   8.458   7.676   8.900  0.0183  0.0154 -0.1347
  644MOL0     C86853   8.234   7.740   8.719  0.1653  0.0520 -0.6919
  644MOL0     C86854   8.128   7.813   8.674  0.0910  0.3461  0.1194
  644MOL0     N86855   7.963   7.810   7.881 -0.9061 -0.2704 -0.1708
  644MOL0     N86856   7.882   7.736   7.809  0.4029  0.2870 -0.7749
  644MOL0     C86857   6.533   7.478   7.677 -0.2837 -0.0751 -0.6466
  644MOL0     C86858   6.412   7.466   7.607  0.0067  0.5585  0.1604
  644MOL0     C86859   6.092   7.511   7.304  0.0522  0.1640  0.3252
  644MOL0     C86860   5.968   7.578   7.334 -0.2314 -1.2269  0.5666
  644MOL0     C86861   5.856   7.574   7.255 -0.4352  0.8138  0.0586
  644MOL0     C86862   5.857   7.485   7.144 -0.0683 -0.1086  0.9313
  644MOL0     O86863   5.748   7.482   7.057 -0.2959 -0.0278  0.0872
  644MOL0     C86864   5.634   7.413   7.117 -0.4275  0.2678  0.0451
  644MOL0     C86865   5.656   7.265   7.129 -0.3330  0.2487 -0.3264
  644MOL0     C86866   5.517   7.191   7.138 -0.3138 -0.9623 -0.8083
  644MOL0     C86867   5.544   7.041   7.104 -0.1218  0.5470 -0.0329
  644MOL0     C86868   5.420   6.962   7.111  0.9793 -0.3381  0.0162
  644MOL0     C86869   5.312   6.913   7.123  0.2169  0.2572  0.4997
  644MOL0     C86870   5.960   7.396   7.120 -0.0193  0.3572  0.0474
  644MOL0     C86871   6.085   7.414   7.190 -0.5600  0.3643  0.2178
  644MOL0     C86872   6.201   7.330   7.133  0.3692 -0.0091  0.6365
  644MOL0     H86873   6.545   7.473   7.289  1.1755  2.0559  0.1885
  644MOL0     H86874   6.751   7.470   7.425 -0.5773 -1.1204  0.5152
  644MOL0     H86875   6.916   7.403   7.569  2.2689  2.0694 -1.5140
  644MOL0     H86876   6.909   7.577   7.568 -2.2502 -1.0993 -1.1332
  644MOL0     H86877   6.988   7.414   7.810  4.4516 -0.1447  1.7061
  644MOL0     H86878   6.977   7.591   7.794 -2.2735 -1.0053 -0.0292
  644MOL0     H86879   7.168   7.591   7.635 -0.9605  0.7043 -0.7515
  644MOL0     H86880   7.143   7.423   7.604  2.2428  1.6224 -0.3039
  644MOL0     H86881   7.236   7.532   7.871 -0.9678  1.0028 -0.1026
  644MOL0     H86882   7.243   7.363   7.830  1.3028  0.2708  0.5962
  644MOL0     H86883   7.404   7.414   7.648 -0.3331  0.3163 -0.0932
  644MOL0     H86884   7.394   7.587   7.689 -1.2652  0.1864  1.6761
  644MOL0     H86885   7.463   7.502   7.939 -0.8332 -0.0395  0.2345
  644MOL0     H86886   7.500   7.351   7.857  1.1436 -0.4572 -1.3042
  644MOL0     H86887   7.687   7.480   7.733  1.0297 -0.6430 -0.2019
  644MOL0     H86888   7.691   7.474   7.905  1.8728 -2.4463 -2.4734
  644MOL0     H86889   7.602   7.707   7.727 -2.5100 -1.2452  0.5239
  644MOL0     H86890   7.542   7.708   7.878 -1.6475  1.1166 -1.9395
  644MOL0     H86891   7.717   7.737   8.098  0.9647 -0.5923  1.8198
  644MOL0     H86892   8.038   7.763   8.166 -1.5538 -0.1692 -0.2431
  644MOL0     H86893   8.060   7.924   8.094  0.2339  0.2703  0.5499
  644MOL0     H86894   7.846   7.993   8.216  0.6238  0.2616 -2.5397
  644MOL0     H86895   7.836   7.828   8.286  2.0035 -0.9800  1.7262
  644MOL0     H86896   8.078   7.997   8.341 -0.2999  0.1823 -2.2614
  644MOL0     H86897   8.045   7.834   8.395 -0.4065 -1.0078  0.2670
  644MOL0     H86898   7.890   7.899   8.562  0.0726  0.3678  0.3731
  644MOL0     H86899   7.873   8.057   8.480 -0.5482 -0.7917 -1.6705
  644MOL0     H86900   8.286   8.118   8.644  0.3021  0.0770  1.0810
  644MOL0     H86901   8.469   7.990   8.717  1.4975 -2.9567 -4.3840
  644MOL0     H86902   8.656   7.525   8.874 -1.3687  0.7689 -0.2031
  644MOL0     H86903   8.865   7.457   8.920 -0.8582  0.1949  0.7260
  644MOL0     H86904   9.056   7.478   9.024 -1.5082 -0.2916 -0.6053
  644MOL0     H86905   9.086   7.361   8.904 -1.3825 -0.5584  3.6217
  644MOL0     H86906   9.272   7.355   9.048 -1.5748  0.1875 -0.1623
  644MOL0     H86907   9.323   7.426   8.898 -2.1249  0.2812 -2.0318
  644MOL0     H86908   9.307   7.662   8.996 -2.5266  0.0106  1.7728
  644MOL0     H86909   9.270   7.579   9.150 -0.0921  0.3246 -0.0702
  644MOL0     H86910   9.521   7.496   9.004 -1.5588 -0.9200  0.2600
  644MOL0     H86911   9.482   7.496   9.172 -1.1639 -0.2096 -0.7802
  644MOL0     H86912   9.484   7.729   9.186 -1.6227 -3.3805  0.4948
  644MOL0     H86913   9.534   7.755   9.017  3.1404  1.3104  0.4369
  644MOL0     H86914   9.700   7.600   9.208 -0.8259 -0.6016 -0.1694
  644MOL0     H86915   9.755   7.631   9.049  2.1671  0.2154  0.8341
  644MOL0     H86916   9.686   7.878   9.210  1.2668 -0.1712  1.1951
  644MOL0     H86917   9.811   7.839   9.080 -2.1995  0.8026 -0.9760
  644MOL0     H86918   9.811   7.728   9.368 -2.0896  0.5260 -1.1365
  644MOL0     H86919   9.933   7.740   9.231 -1.2062 -0.7419 -1.9360
  644MOL0     H86920   9.043   7.791   8.694  0.4613  0.7123 -2.0015
  644MOL0     H86921   8.789   7.841   8.637  0.2304  0.1461  0.0318
  644MOL0     H86922   8.239   7.632   8.727 -0.4846  0.1491  1.4581
  644MOL0     H86923   8.040   7.760   8.637 -0.5317  0.2569  1.6622
  644MOL0     H86924   6.542   7.472   7.785 -0.0645  0.2329 -0.6476
  644MOL0     H86925   6.318   7.448   7.658  0.1043  1.0060  0.5054
  644MOL0     H86926   5.961   7.636   7.425  1.4238 -1.1633  0.6801
  644MOL0     H86927   5.766   7.630   7.277  0.0139  0.8757  1.8341
  644MOL0     H86928   5.545   7.439   7.060 -0.3387 -2.1337 -1.3575
  644MOL0     H86929   5.618   7.438   7.223 -1.9364 -2.2663  0.5172
  644MOL0     H86930   5.721   7.231   7.210 -0.9879 -0.2147  0.0149
  644MOL0     H86931   5.691   7.230   7.031  0.6492 -0.5851  0.3079
  644MOL0     H86932   5.453   7.247   7.070  0.3306  1.5424  0.5147
  644MOL0     H86933   5.481   7.192   7.241 -0.3291 -3.1600 -0.7354
  644MOL0     H86934   5.592   7.039   7.006 -0.7605  1.0845 -0.3613
  644MOL0     H86935   5.616   7.003   7.178  3.0429  0.7273 -2.8066
  644MOL0     H86936   5.210   6.881   7.118  0.7525 -1.3267 -1.4439
  644MOL0     H86937   5.943   7.333   7.033 -0.6953 -0.1798  0.5547
  644MOL0     H86938   6.170   7.268   7.049 -0.3991 -0.5365  1.2992
  644MOL0     H86939   6.275   7.401   7.096  0.3147 -0.0326  0.4852
  644MOL0     H86940   6.241   7.267   7.214 -2.7205 -0.1738  2.1835
  645MOL0     O86941   3.141   9.300   7.312  0.8534 -0.2990  1.0464
  645MOL0     C86942   3.179   9.403   7.373  0.5354  0.7368  0.0319
  645MOL0     O86943   3.095   9.478   7.456  0.8739 -0.0795 -0.0747
  645MOL0     C86944   2.957   9.458   7.450 -0.8840 -0.0330 -0.7731
  645MOL0     C86945   2.886   9.423   7.331  0.7030 -0.2483  0.7990
  645MOL0     C86946   2.751   9.409   7.340  0.3761 -0.0055  0.0778
  645MOL0     C86947   2.684   9.415   7.463  1.5075  0.2829  0.4634
  645MOL0     O86948   2.549   9.391   7.478  0.1564  0.0095 -0.0669
  645MOL0     C86949   2.467   9.342   7.371 -0.4004  0.5278  0.0281
  645MOL0     C86950   2.327   9.316   7.419 -0.4648  0.3922 -0.5677
  645MOL0     C86951   2.257   9.451   7.448 -0.4209  0.0907  0.2284
  645MOL0     C86952   2.134   9.469   7.364 -0.2025 -0.7387  0.8569
  645MOL0     C86953   2.077   9.603   7.380 -0.1996  0.1825  0.0658
  645MOL0     C86954   1.945   9.613   7.292 -0.2110  0.7244 -0.0762
  645MOL0     C86955   1.917   9.760   7.249 -0.3398  0.4125  0.0169
  645MOL0     C86956   1.790   9.765   7.153 -0.1943 -0.1469 -0.8445
  645MOL0     N86957   1.671   9.780   7.229  0.3609  0.3657  0.0294
  645MOL0     C86958   1.639   9.900   7.291 -0.1038  0.5094  0.1361
  645MOL0     C86959   1.513   9.892   7.336 -0.5597  0.0990 -0.3044
  645MOL0     C86960   1.439   9.983   7.437 -0.0250  0.3151  0.1311
  645MOL0     C86961   1.417  10.129   7.389  0.4354 -0.5773  0.1817
  645MOL0     C86962   1.478  10.217   7.503 -0.8137 -0.3999  0.5542
  645MOL0     C86963   1.632  10.230   7.506  0.9499  0.5481 -0.0013
  645MOL0     O86964   1.693  10.275   7.385 -0.5476 -0.6365  0.5667
  645MOL0     C86965   1.803  10.210   7.346  0.1298  0.2034  0.2895
  645MOL0     C86966   1.819  10.196   7.205 -0.2219  1.4378  0.2800
  645MOL0     C86967   1.934  10.132   7.150  0.6202  0.7663 -0.1355
  645MOL0     C86968   2.031  10.075   7.237  0.9762 -0.1232 -0.0098
  645MOL0     C86969   2.157  10.008   7.188 -1.0840 -0.8762  0.5675
  645MOL0     O86970   2.236   9.943   7.282  0.1074  0.0861  0.1455
  645MOL0     C86971   2.366   9.924   7.252 -0.0758  0.6730 -0.3210
  645MOL0     C86972   2.423   9.811   7.316  0.2919 -0.5783 -0.1870
  645MOL0     C86973   2.558   9.776   7.296  0.1374 -0.6783 -0.9839
  645MOL0     C86974   2.647   9.862   7.227 -0.3221 -0.2509  0.4223
  645MOL0     O86975   2.782   9.828   7.219 -0.1943  0.4821  0.0695
  645MOL0     C86976   2.854   9.862   7.106  0.5329 -0.6630  0.3030
  645MOL0     C86977   2.990   9.806   7.109 -0.1551  0.2494 -1.1195
  645MOL0     C86978   3.096   9.901   7.163 -0.1074  0.7009 -0.4923
  645MOL0     C86979   3.084   9.929   7.314  0.3470 -0.5026  0.2068
  645MOL0     C86980   3.187  10.037   7.372  0.0874  0.1123  0.3638
  645MOL0     C86981   3.337   9.996   7.352  0.6191  0.3266  0.0704
  645MOL0     C86982   3.432  10.085   7.416 -0.5855 -0.9202  0.4531
  645MOL0     C86983   3.569  10.020   7.400  0.5437 -0.0555 -0.6194
  645MOL0    Cl86984   3.647   9.991   7.233 -0.1264  0.1846 -0.2337
  645MOL0     C86985   2.597   9.974   7.170  0.1943 -0.3231  0.5049
  645MOL0     C86986   2.460  10.007   7.187 -0.1171  1.0924 -0.4732
  645MOL0     O86987   2.191  10.040   7.078  0.2355  0.2211 -0.2205
  645MOL0     C86988   2.009  10.086   7.380  0.3308  0.1335  0.8667
  645MOL0     C86989   1.900  10.159   7.431 -0.2889  0.5768  0.2174
  645MOL0     N86990   1.466   9.761   7.297  0.6560 -0.2979  0.2628
  645MOL0     N86991   1.562   9.703   7.239 -0.0254  0.8167  0.3691
  645MOL0     C86992   2.754   9.441   7.579 -0.9381  0.1234 -0.1079
  645MOL0     C86993   2.892   9.466   7.571 -0.0216 -0.1330  0.1221
  645MOL0     C86994   3.318   9.445   7.372 -1.0279  0.3978  0.0754
  645MOL0     C86995   3.362   9.563   7.436 -0.3035  0.1103 -0.0312
  645MOL0     C86996   3.499   9.593   7.446 -0.2997  0.8056  0.4469
  645MOL0     C86997   3.603   9.514   7.397  0.0567  1.0911  0.5685
  645MOL0     O86998   3.737   9.541   7.398 -0.1894  0.1257 -0.1453
  645MOL0     C86999   3.767   9.665   7.459  0.1169 -0.1525  0.0996
  645MOL0     C87000   3.911   9.711   7.442 -0.2879 -0.5778  0.0168
  645MOL0     C87001   3.928   9.855   7.496 -0.6523  0.6799  0.0504
  645MOL0     C87002   4.062   9.878   7.563 -0.4592  0.0061 -0.7124
  645MOL0     C87003   4.175   9.861   7.477 -0.2474  0.0972 -0.1737
  645MOL0     C87004   4.258   9.859   7.395  1.1639 -0.2296 -0.0795
  645MOL0     C87005   3.559   9.403   7.325  0.2654 -0.2491  0.3293
  645MOL0     C87006   3.426   9.357   7.318  0.4883  0.7144  0.5972
  645MOL0     C87007   3.414   9.220   7.244 -0.2645 -0.4518 -0.7659
  645MOL0     H87008   2.939   9.400   7.239 -0.1411 -0.2774  0.3092
  645MOL0     H87009   2.700   9.378   7.250 -0.9601 -1.0305  1.1437
  645MOL0     H87010   2.467   9.413   7.288 -2.2571  0.1668 -0.3349
  645MOL0     H87011   2.509   9.244   7.347 -0.2959  0.3229  0.9811
  645MOL0     H87012   2.332   9.259   7.512 -1.3428 -0.0522 -0.7798
  645MOL0     H87013   2.281   9.264   7.335 -1.1176 -0.8069  0.5107
  645MOL0     H87014   2.324   9.535   7.425  2.2917 -2.2014 -0.7254
  645MOL0     H87015   2.235   9.451   7.555 -3.7497 -1.7277 -0.3094
  645MOL0     H87016   2.146   9.445   7.258 -2.8234 -0.8713  0.5233
  645MOL0     H87017   2.064   9.394   7.402 -0.9585 -0.4216  0.1347
  645MOL0     H87018   2.045   9.623   7.483 -0.8579 -0.7554  0.0574
  645MOL0     H87019   2.152   9.674   7.346 -0.0360  0.4135  0.8803
  645MOL0     H87020   1.953   9.538   7.212  2.3525 -0.9175  1.5616
  645MOL0     H87021   1.858   9.573   7.344 -0.4361  2.8698  1.3028
  645MOL0     H87022   1.999   9.795   7.186 -1.1527 -0.7183 -1.7495
  645MOL0     H87023   1.907   9.822   7.339 -0.0662 -1.0634  1.1017
  645MOL0     H87024   1.799   9.846   7.080 -1.8164  1.0018  0.1769
  645MOL0     H87025   1.779   9.673   7.094 -4.9643 -0.0407 -0.4457
  645MOL0     H87026   1.700   9.989   7.305  1.4025 -0.2191 -1.4084
  645MOL0     H87027   1.341   9.935   7.450  0.4071 -0.8603 -0.7889
  645MOL0     H87028   1.488   9.985   7.535  0.8932 -1.3637 -0.2471
  645MOL0     H87029   1.450  10.151   7.287  1.4617 -0.6651  0.4852
  645MOL0     H87030   1.308  10.138   7.396  0.4542  0.3506 -0.4655
  645MOL0     H87031   1.432  10.188   7.598 -3.2581 -0.6254 -0.6269
  645MOL0     H87032   1.440  10.318   7.489 -0.4962 -0.3869 -0.3005
  645MOL0     H87033   1.669  10.130   7.530 -0.5962  0.2159  1.1816
  645MOL0     H87034   1.658  10.303   7.583 -1.1061  0.0411  1.2475
  645MOL0     H87035   1.750  10.232   7.130  0.9543 -0.3539 -1.8057
  645MOL0     H87036   1.940  10.109   7.044 -0.2774 -3.2863  0.5392
  645MOL0     H87037   2.368   9.752   7.387  2.7847 -2.0575  0.6368
  645MOL0     H87038   2.615   9.697   7.344  0.5381 -0.2438 -0.7463
  645MOL0     H87039   2.802   9.826   7.016 -0.0167  0.9102 -0.0398
  645MOL0     H87040   2.860   9.970   7.092  0.2062 -0.6791  0.0016
  645MOL0     H87041   2.998   9.714   7.168  0.9647 -1.8568 -4.2792
  645MOL0     H87042   3.021   9.780   7.007 -0.2878 -0.6692 -0.9348
  645MOL0     H87043   3.194   9.853   7.150 -1.4553 -3.6012  2.9094
  645MOL0     H87044   3.096   9.994   7.104 -1.2856  1.5173  0.7587
  645MOL0     H87045   3.084   9.836   7.371 -0.6493 -0.3754  0.4329
  645MOL0     H87046   2.986   9.963   7.347  0.7001 -0.8650  1.6718
  645MOL0     H87047   3.166  10.042   7.479 -0.1244  2.5397  0.2706
  645MOL0     H87048   3.165  10.138   7.337  1.3869 -0.7308 -3.3713
  645MOL0     H87049   3.347   9.894   7.390  1.2581  1.0884  2.0422
  645MOL0     H87050   3.363   9.990   7.245  0.2375 -0.6502  0.0194
  645MOL0     H87051   3.403  10.110   7.519  5.0348  2.6449  1.5579
  645MOL0     H87052   3.428  10.171   7.349  0.4434 -2.9231 -2.3950
  645MOL0     H87053   3.633  10.086   7.460  3.1696 -2.6319 -0.3460
  645MOL0     H87054   3.551   9.923   7.447  1.9090 -0.9077 -1.7604
  645MOL0     H87055   2.658  10.042   7.111 -0.7772 -1.9794 -2.6619
  645MOL0     H87056   2.434  10.104   7.146 -0.1769  1.8218  1.2022
  645MOL0     H87057   2.074  10.033   7.449 -0.2998 -0.1177  1.2736
  645MOL0     H87058   1.888  10.170   7.538 -1.4251 -0.7505  0.2649
  645MOL0     H87059   2.696   9.455   7.669 -1.9288  0.8318 -0.8268
  645MOL0     H87060   2.947   9.492   7.660 -1.4767  1.4647  0.5999
  645MOL0     H87061   3.291   9.629   7.484  1.3762  1.0324  1.2945
  645MOL0     H87062   3.522   9.684   7.502  1.0286  0.5659  0.3216
  645MOL0     H87063   3.734   9.666   7.563 -2.9078  0.7146 -0.7592
  645MOL0     H87064   3.713   9.734   7.393 -1.3683 -2.3816 -1.1846
  645MOL0     H87065   3.935   9.719   7.336 -0.4305  2.2771  0.1414
  645MOL0     H87066   3.972   9.634   7.491 -1.5463 -1.9453 -0.4939
  645MOL0     H87067   3.847   9.872   7.566  0.3053 -0.7223  1.5717
  645MOL0     H87068   3.908   9.935   7.424 -2.4257  0.5004  0.3064
  645MOL0     H87069   4.060   9.985   7.585 -1.3300  0.1524 -1.4410
  645MOL0     H87070   4.076   9.815   7.651  1.7946  2.0925  0.5378
  645MOL0     H87071   4.332   9.844   7.318  2.2001  1.0909  0.6073
  645MOL0     H87072   3.641   9.347   7.282 -0.3122 -1.2560  0.4921
  645MOL0     H87073   3.375   9.234   7.143  0.7633 -2.1526 -1.4314
  645MOL0     H87074   3.506   9.162   7.236 -0.5501 -0.9894 -0.2048
  645MOL0     H87075   3.333   9.170   7.299 -0.5775  2.5753  1.8583
  646MOL0     O87076   9.112  10.804   1.495  0.8282  0.2038  0.0592
  646MOL0     C87077   9.114  10.713   1.575  0.2949  0.2829 -1.5517
  646MOL0     O87078   9.231  10.669   1.641  0.2416  0.0545  0.5131
  646MOL0     C87079   9.353  10.719   1.597 -0.2676  0.5985  0.1039
  646MOL0     C87080   9.404  10.709   1.464 -0.3579  0.9913 -0.5312
  646MOL0     C87081   9.526  10.758   1.421 -0.4178  0.0086  0.4786
  646MOL0     C87082   9.609  10.825   1.518  0.1822  0.2660  0.2081
  646MOL0     O87083   9.733  10.873   1.493 -0.8716  0.4505  0.1422
  646MOL0     C87084   9.788  10.858   1.359 -0.0964 -0.2054  0.1380
  646MOL0     C87085   9.932  10.913   1.353 -0.4706 -0.1539  0.7922
  646MOL0     C87086  10.020  10.834   1.451 -0.0806  0.5111  0.2085
  646MOL0     C87087  10.026  10.685   1.401 -0.4881  0.0578 -0.7964
  646MOL0     C87088  10.072  10.664   1.264 -0.1243 -0.4298  0.4078
  646MOL0     C87089  10.217  10.701   1.231  0.0548  0.0168  0.1778
  646MOL0     C87090  10.316  10.635   1.331  0.9172 -0.2961  0.5346
  646MOL0     C87091  10.463  10.658   1.306 -0.5030 -0.2094 -0.1583
  646MOL0     N87092  10.494  10.797   1.286  0.0833 -0.2755 -0.6319
  646MOL0     C87093  10.564  10.844   1.175 -0.1277  0.8041  0.3279
  646MOL0     C87094  10.583  10.975   1.200 -0.1961  0.2351  0.4450
  646MOL0     C87095  10.672  11.069   1.125  0.2445 -0.2289  0.4536
  646MOL0     C87096  10.766  11.160   1.212  0.2735 -0.2525  0.1365
  646MOL0     C87097  10.896  11.197   1.146  0.3043 -0.3831 -0.3039
  646MOL0     C87098  10.968  11.296   1.238 -0.6173 -0.2403  0.5080
  646MOL0     O87099  10.956  11.422   1.163  0.4957 -0.0848  0.3636
  646MOL0     C87100  11.035  11.522   1.216 -0.0875 -0.1810 -0.9041
  646MOL0     C87101  11.063  11.556   1.352  0.0732 -0.2150 -0.5124
  646MOL0     C87102  11.149  11.654   1.391  0.4243  0.4357 -0.0307
  646MOL0     C87103  11.208  11.730   1.292 -0.5445  0.4135 -0.4111
  646MOL0     C87104  11.316  11.823   1.337  0.2826 -0.3795  0.2175
  646MOL0     O87105  11.383  11.876   1.241 -0.2093 -0.4215  1.2232
  646MOL0     C87106  11.479  11.967   1.279  0.1725 -0.9303 -0.0859
  646MOL0     C87107  11.617  11.942   1.294 -0.8064  0.2739  1.4432
  646MOL0     C87108  11.713  12.040   1.330 -0.0300 -0.5007  0.4766
  646MOL0     C87109  11.677  12.168   1.357 -0.5322 -1.2372 -0.4002
  646MOL0     O87110  11.777  12.258   1.378  0.1596 -0.1676  0.1210
  646MOL0     C87111  11.753  12.389   1.313 -0.1613  0.0817  0.3610
  646MOL0     C87112  11.896  12.430   1.265  0.4296  0.1047  0.6897
  646MOL0     C87113  11.893  12.562   1.187  0.3891  0.2799 -1.1917
  646MOL0     C87114  12.038  12.582   1.131  0.1028  0.7761 -0.6632
  646MOL0     C87115  12.053  12.715   1.065  0.6246 -0.3215  0.5239
  646MOL0     C87116  12.197  12.714   1.012  0.2090  0.0494  0.1471
  646MOL0     C87117  12.230  12.842   0.939 -0.2882 -0.0661  0.1367
  646MOL0     C87118  12.369  12.864   0.882 -0.4433  0.1078  0.0128
  646MOL0    Cl87119  12.397  12.749   0.761  0.5130  0.1894 -0.6511
  646MOL0     C87120  11.534  12.202   1.334 -0.5231  0.3803  0.1964
  646MOL0     C87121  11.438  12.093   1.301 -0.4142 -0.6235  0.1351
  646MOL0     O87122  11.347  11.821   1.452  0.1091 -0.2058 -0.7128
  646MOL0     C87123  11.177  11.709   1.156 -0.6231  1.4576  0.4935
  646MOL0     C87124  11.086  11.610   1.121 -1.5848 -0.4089  0.8514
  646MOL0     N87125  10.527  10.999   1.322  0.4026 -0.6426 -0.2456
  646MOL0     N87126  10.472  10.897   1.375 -0.6273 -0.3178  0.2628
  646MOL0     C87127   9.556  10.836   1.653  0.0143 -0.4406 -0.0149
  646MOL0     C87128   9.431  10.788   1.687 -0.9917 -0.1418 -0.0492
  646MOL0     C87129   8.988  10.654   1.622 -0.2064  0.1243 -0.4404
  646MOL0     C87130   8.988  10.516   1.657 -0.6408 -0.6752 -0.6802
  646MOL0     C87131   8.882  10.451   1.699  0.2254  0.3001  0.3079
  646MOL0     C87132   8.759  10.516   1.695 -0.3554 -0.2104  0.2071
  646MOL0     O87133   8.657  10.441   1.742  0.0881  0.0551 -1.2367
  646MOL0     C87134   8.532  10.484   1.694  0.2013 -0.1671 -0.0769
  646MOL0     C87135   8.429  10.370   1.703 -0.9066  0.2638  0.0908
  646MOL0     C87136   8.312  10.396   1.608 -0.0889  0.4302  0.4213
  646MOL0     C87137   8.341  10.377   1.455  0.2085 -0.3160  0.2491
  646MOL0     C87138   8.226  10.403   1.367  0.1327 -0.0855 -0.2956
  646MOL0     C87139   8.135  10.438   1.294  0.8583  0.8359  0.0641
  646MOL0     C87140   8.748  10.653   1.671 -0.1353  0.1756 -1.1408
  646MOL0     C87141   8.860  10.722   1.628  0.2549 -0.4494  0.0784
  646MOL0     C87142   8.840  10.864   1.599  0.6485 -0.0130  0.0188
  646MOL0     H87143   9.342  10.655   1.392  1.9976 -2.7824 -0.0297
  646MOL0     H87144   9.554  10.771   1.317  0.1511  1.2499  0.7622
  646MOL0     H87145   9.780  10.753   1.332  0.5675 -1.0653  2.9639
  646MOL0     H87146   9.729  10.908   1.282  1.8294  3.4837  0.8149
  646MOL0     H87147   9.924  11.020   1.376  0.1169  0.2934 -0.9608
  646MOL0     H87148   9.971  10.925   1.251 -1.2075  0.0813  0.5320
  646MOL0     H87149   9.982  10.836   1.553 -2.1593 -0.0266 -0.5104
  646MOL0     H87150  10.124  10.868   1.457 -0.2977  0.9368  1.7921
  646MOL0     H87151  10.094  10.641   1.475 -1.8444 -0.3420  0.2543
  646MOL0     H87152   9.932  10.630   1.414 -0.5979  0.4113 -0.0187
  646MOL0     H87153  10.055  10.559   1.237 -2.9963  0.0264  0.2318
  646MOL0     H87154   9.996  10.715   1.205 -1.3966  0.9870  3.1013
  646MOL0     H87155  10.243  10.685   1.126 -0.0806 -0.5018  0.2214
  646MOL0     H87156  10.237  10.805   1.258  2.4661 -0.9894  2.6684
  646MOL0     H87157  10.293  10.528   1.323 -1.6321  0.2601 -0.5329
  646MOL0     H87158  10.293  10.673   1.431 -1.2429  0.0972 -0.0492
  646MOL0     H87159  10.525  10.635   1.393  1.6107 -1.8444 -2.0173
  646MOL0     H87160  10.499  10.597   1.224  0.6054 -0.4585  0.4917
  646MOL0     H87161  10.597  10.784   1.090  1.9133  2.3212 -0.0314
  646MOL0     H87162  10.727  11.011   1.050 -0.2694 -0.0720 -0.0580
  646MOL0     H87163  10.602  11.136   1.073  2.5615  0.9337 -1.3540
  646MOL0     H87164  10.716  11.255   1.234  1.7845  0.3181  1.2626
  646MOL0     H87165  10.782  11.102   1.302 -0.1692 -2.4934 -1.1614
  646MOL0     H87166  10.883  11.233   1.044  1.4620 -1.0525 -0.7092
  646MOL0     H87167  10.963  11.110   1.146  0.8372 -0.0294  1.8329
  646MOL0     H87168  11.072  11.266   1.252 -0.7001  0.0038  1.8103
  646MOL0     H87169  10.922  11.303   1.338 -0.6504 -0.0290  0.4785
  646MOL0     H87170  11.010  11.508   1.434 -0.5036  0.4132 -0.5132
  646MOL0     H87171  11.178  11.658   1.496  1.0039 -1.9450 -0.0613
  646MOL0     H87172  11.645  11.838   1.283  1.7472  0.8018  2.3219
  646MOL0     H87173  11.818  12.019   1.341  0.5452  1.9252  0.2654
  646MOL0     H87174  11.679  12.383   1.232 -1.3947  1.2734  1.3597
  646MOL0     H87175  11.710  12.460   1.384  1.0945  0.4021  0.8322
  646MOL0     H87176  11.963  12.418   1.350 -1.1126 -1.1393  1.8059
  646MOL0     H87177  11.918  12.346   1.199  0.4015  0.9261 -0.4068
  646MOL0     H87178  11.829  12.555   1.099 -0.0730  1.6424 -0.9989
  646MOL0     H87179  11.854  12.643   1.250  1.4413  0.3379 -0.5869
  646MOL0     H87180  12.042  12.494   1.065 -2.1487 -2.6277  3.2505
  646MOL0     H87181  12.114  12.583   1.209  1.2230 -1.5148 -1.6129
  646MOL0     H87182  12.049  12.796   1.139 -0.0855  2.0731 -1.9677
  646MOL0     H87183  11.979  12.738   0.988  1.2763  0.5249  0.1243
  646MOL0     H87184  12.267  12.703   1.095 -0.5067 -1.3711  0.6048
  646MOL0     H87185  12.215  12.630   0.944 -1.3875  0.3060 -0.6472
  646MOL0     H87186  12.210  12.921   1.012  0.4216  2.7041 -2.4671
  646MOL0     H87187  12.163  12.857   0.854  1.6132  2.0016 -1.0764
  646MOL0     H87188  12.378  12.958   0.828 -1.6736 -1.0746 -2.4077
  646MOL0     H87189  12.438  12.855   0.967  1.1424 -0.5380 -1.2839
  646MOL0     H87190  11.498  12.302   1.355  0.1699  0.6610  0.0746
  646MOL0     H87191  11.333  12.120   1.295 -0.1751  0.6885  1.2486
  646MOL0     H87192  11.224  11.775   1.084 -0.3348  2.8377  1.8836
  646MOL0     H87193  11.062  11.590   1.017 -1.9285 -1.0649  1.0510
  646MOL0     H87194   9.621  10.885   1.725 -1.3912  2.0053 -0.2989
  646MOL0     H87195   9.395  10.810   1.788  0.7379 -0.0640  0.5827
  646MOL0     H87196   9.082  10.463   1.651 -0.5714 -0.4254 -2.3388
  646MOL0     H87197   8.889  10.348   1.732  2.0992  0.3914  0.2803
  646MOL0     H87198   8.536  10.526   1.593  1.8893  2.8095  1.0951
  646MOL0     H87199   8.494  10.564   1.757  0.3942 -1.7625  2.1881
  646MOL0     H87200   8.398  10.380   1.807 -1.3961  2.3197 -0.1998
  646MOL0     H87201   8.477  10.274   1.684  1.2095  1.1831  0.4145
  646MOL0     H87202   8.270  10.496   1.620 -1.2976  0.0821 -0.7105
  646MOL0     H87203   8.235  10.323   1.634  0.5037  0.1758  1.5502
  646MOL0     H87204   8.417  10.446   1.418  2.6863 -2.5032  0.9279
  646MOL0     H87205   8.389  10.280   1.435  1.2555  0.3814 -0.7547
  646MOL0     H87206   8.050  10.451   1.231 -1.2399  1.5932  2.8671
  646MOL0     H87207   8.652  10.702   1.686  0.4801  0.8280  0.9112
  646MOL0     H87208   8.751  10.906   1.647  0.8952  0.2074  0.2892
  646MOL0     H87209   8.926  10.915   1.643 -1.6122  2.5988  1.6939
  646MOL0     H87210   8.834  10.881   1.492 -0.5311 -0.6119 -0.0284
  647MOL0     O87211   0.192   0.530   3.486 -0.0218 -0.1770  0.1831
  647MOL0     C87212   0.179   0.439   3.569  0.9837 -0.1597 -0.8058
  647MOL0     O87213   0.283   0.354   3.613 -0.2791  0.1322  0.6261
  647MOL0     C87214   0.398   0.364   3.527 -0.2544  0.3752  1.0716
  647MOL0     C87215   0.502   0.451   3.565  0.5460 -0.1223 -0.0222
  647MOL0     C87216   0.623   0.459   3.476  0.4562 -0.4765  1.0134
  647MOL0     C87217   0.615   0.405   3.344 -0.7589 -0.0548  0.4507
  647MOL0     O87218   0.718   0.412   3.250  0.8515  0.1182 -0.2821
  647MOL0     C87219   0.818   0.518   3.260  0.1132  0.1506  0.3452
  647MOL0     C87220   0.924   0.502   3.155  0.1450  0.1192  0.0879
  647MOL0     C87221   0.956   0.357   3.122  0.5007  0.8631 -0.5433
  647MOL0     C87222   1.070   0.362   3.017  0.2915 -0.4829 -0.2803
  647MOL0     C87223   1.091   0.222   2.966  0.4049  0.6385 -0.0825
  647MOL0     C87224   1.222   0.187   2.906  0.0920  0.3908 -0.1117
  647MOL0     C87225   1.237   0.237   2.755  0.1604 -0.0552 -1.2179
  647MOL0     C87226   1.386   0.232   2.719  1.0021 -0.1760 -0.3888
  647MOL0     N87227   1.474   0.301   2.803  0.3799  0.1892 -0.3867
  647MOL0     C87228   1.580   0.236   2.868  0.5159  0.3060  0.7759
  647MOL0     C87229   1.630   0.325   2.958 -0.0760  0.7753 -0.0065
  647MOL0     C87230   1.724   0.294   3.074 -0.2462  0.0397  0.1084
  647MOL0     C87231   1.864   0.249   3.022 -0.1548  0.4573  0.4988
  647MOL0     C87232   1.961   0.210   3.137 -0.6565 -0.1555 -0.0593
  647MOL0     C87233   2.103   0.155   3.098 -0.1047 -0.2477 -0.4418
  647MOL0     O87234   2.172   0.245   3.011  0.7646  0.5903  0.3967
  647MOL0     C87235   2.308   0.255   3.031 -1.1625 -0.3196 -0.4352
  647MOL0     C87236   2.371   0.376   3.011 -0.2952 -0.0935  0.3735
  647MOL0     C87237   2.512   0.386   3.034  0.6466  0.2556  0.2198
  647MOL0     C87238   2.588   0.267   3.068  1.1913  0.0733  0.1004
  647MOL0     C87239   2.731   0.282   3.098 -0.9603  0.7167  0.8432
  647MOL0     O87240   2.799   0.172   3.139 -0.2829 -0.4722 -0.2076
  647MOL0     C87241   2.940   0.168   3.132 -0.5541 -0.4977 -0.2256
  647MOL0     C87242   2.993   0.086   3.234  0.2028 -0.1787  0.2011
  647MOL0     C87243   3.127   0.054   3.237  0.2608 -0.1456  0.7271
  647MOL0     C87244   3.220   0.113   3.147  0.4209 -0.1974 -0.5977
  647MOL0     O87245   3.350   0.081   3.154 -0.6385 -0.4626  0.3574
  647MOL0     C87246   3.417   0.052   3.029 -0.3539 -0.2902  0.0824
  647MOL0     C87247   3.561   0.012   3.061 -0.3385  0.0594 -0.2153
  647MOL0     C87248   3.565  -0.110   3.151 -0.0280 -0.1765 -0.5006
  647MOL0     C87249   3.707  -0.174   3.149  0.2781  0.7083  0.2050
  647MOL0     C87250   3.722  -0.300   3.249  0.4257 -0.0417 -1.1106
  647MOL0     C87251   3.870  -0.340   3.238  0.1258 -0.4630 -0.3508
  647MOL0     C87252   3.899  -0.469   3.312  0.6712  0.2092  0.3666
  647MOL0     C87253   4.042  -0.531   3.283 -0.0598 -0.1230 -0.1259
  647MOL0    Cl87254   4.170  -0.422   3.328 -0.5122 -0.2213 -0.3492
  647MOL0     C87255   3.161   0.209   3.056  0.0550 -0.0450  0.7026
  647MOL0     C87256   3.027   0.235   3.034  0.2516  0.5035 -0.7189
  647MOL0     O87257   2.782   0.388   3.074 -0.2943 -0.5220  0.2830
  647MOL0     C87258   2.521   0.144   3.090  0.1904 -0.0657  0.5885
  647MOL0     C87259   2.381   0.136   3.068 -0.2421 -0.6792  0.4474
  647MOL0     N87260   1.555   0.442   2.945  0.7635 -0.2537 -0.0567
  647MOL0     N87261   1.466   0.428   2.853  0.7774 -0.1619  1.4381
  647MOL0     C87262   0.506   0.312   3.313 -0.2011 -0.7081  0.2901
  647MOL0     C87263   0.397   0.301   3.405 -0.0357  0.2567 -0.4093
  647MOL0     C87264   0.049   0.427   3.649  0.0958  0.0022  0.6041
  647MOL0     C87265   0.021   0.297   3.692 -0.4179  0.5540  0.0641
  647MOL0     C87266  -0.091   0.273   3.773 -0.0452 -0.1565  0.8073
  647MOL0     C87267  -0.187   0.373   3.792 -0.6013 -0.6041  0.5695
  647MOL0     O87268  -0.301   0.357   3.866 -0.2297  0.4013  0.2059
  647MOL0     C87269  -0.346   0.226   3.918  0.2584 -0.0680  0.1787
  647MOL0     C87270  -0.473   0.243   4.009  0.2670  0.7496  0.2557
  647MOL0     C87271  -0.599   0.267   3.933  0.1385  0.6166  0.2725
  647MOL0     C87272  -0.646   0.144   3.855 -0.2380 -0.0973 -0.3284
  647MOL0     C87273  -0.789   0.117   3.866 -0.2198  0.0948  0.4971
  647MOL0     C87274  -0.908   0.112   3.867  0.9018 -0.2520 -0.2188
  647MOL0     C87275  -0.161   0.502   3.736  0.4261  0.3956 -0.1739
  647MOL0     C87276  -0.042   0.530   3.664  0.9510  0.9633  0.7092
  647MOL0     C87277  -0.022   0.670   3.608 -0.5502 -0.0420 -1.0322
  647MOL0     H87278   0.488   0.496   3.663  0.7553  1.1222 -0.5497
  647MOL0     H87279   0.707   0.523   3.500  0.2942  0.2577 -0.2497
  647MOL0     H87280   0.765   0.613   3.249  3.1502  1.8319 -0.9460
  647MOL0     H87281   0.872   0.502   3.354  0.1539  1.1111  0.4965
  647MOL0     H87282   1.010   0.557   3.193  1.1682 -0.5875 -1.1239
  647MOL0     H87283   0.895   0.557   3.065  0.0816  0.5007  0.3375
  647MOL0     H87284   0.867   0.308   3.082  0.0712  0.2371  1.1121
  647MOL0     H87285   0.991   0.293   3.204 -0.7301 -0.9210 -1.3455
  647MOL0     H87286   1.040   0.423   2.932 -0.4555  1.3295  1.2235
  647MOL0     H87287   1.160   0.403   3.064  0.4283  0.9672 -1.7059
  647MOL0     H87288   1.080   0.157   3.053  1.7313  1.5254  0.7857
  647MOL0     H87289   1.010   0.199   2.897  0.1759 -2.9097  1.1697
  647MOL0     H87290   1.306   0.212   2.971  2.1471 -2.8364 -1.2762
  647MOL0     H87291   1.241   0.079   2.899  1.2050  0.5949 -0.4928
  647MOL0     H87292   1.199   0.339   2.740 -1.0677 -0.0887  1.1040
  647MOL0     H87293   1.194   0.161   2.689 -1.1716 -1.1040  0.7430
  647MOL0     H87294   1.419   0.130   2.702  0.8287 -0.6056  1.6285
  647MOL0     H87295   1.398   0.270   2.617 -1.5630  0.8273 -0.4066
  647MOL0     H87296   1.611   0.134   2.850 -1.3920  0.0966 -1.9041
  647MOL0     H87297   1.734   0.388   3.129 -0.2555  0.0633  0.0693
  647MOL0     H87298   1.678   0.230   3.150 -1.4629  1.0402  0.2507
  647MOL0     H87299   1.846   0.163   2.957  1.7710  0.4973 -0.1530
  647MOL0     H87300   1.912   0.327   2.962  3.5344 -1.1668  1.1226
  647MOL0     H87301   1.919   0.126   3.192  0.6991 -1.3210 -0.7132
  647MOL0     H87302   1.971   0.302   3.195 -1.5810  2.2728 -3.4460
  647MOL0     H87303   2.094   0.059   3.047  0.7584 -0.7179  0.2640
  647MOL0     H87304   2.152   0.156   3.196 -0.0705  1.0477 -0.4572
  647MOL0     H87305   2.320   0.459   2.963 -0.8145 -1.4499 -1.5390
  647MOL0     H87306   2.567   0.479   3.031 -2.5228  2.2592 -0.1009
  647MOL0     H87307   2.916   0.028   3.284  0.9702 -2.8086 -1.4712
  647MOL0     H87308   3.176  -0.019   3.301  1.5039  0.6637  0.7255
  647MOL0     H87309   3.375  -0.023   2.961 -0.0910  1.2911 -1.8996
  647MOL0     H87310   3.424   0.145   2.972 -1.2240 -1.5240 -2.1578
  647MOL0     H87311   3.611  -0.011   2.966 -1.3699 -0.8447 -0.5596
  647MOL0     H87312   3.609   0.107   3.086  0.1167 -0.0538 -0.6315
  647MOL0     H87313   3.519  -0.099   3.250  1.6391  3.0370  0.0168
  647MOL0     H87314   3.494  -0.181   3.106 -1.2875  0.5082  0.3458
  647MOL0     H87315   3.768  -0.089   3.181  1.9524 -0.0498 -0.8782
  647MOL0     H87316   3.741  -0.209   3.051 -3.0263 -4.1674  0.4319
  647MOL0     H87317   3.653  -0.380   3.220  1.4465 -1.0218 -0.8839
  647MOL0     H87318   3.693  -0.270   3.350 -2.3697 -0.7563 -1.6055
  647MOL0     H87319   3.904  -0.346   3.134  1.1807 -1.9729  0.0519
  647MOL0     H87320   3.927  -0.258   3.282 -0.2085  0.5911 -1.7889
  647MOL0     H87321   3.823  -0.541   3.282  1.5215  0.9217 -4.3108
  647MOL0     H87322   3.882  -0.446   3.417 -0.3851  1.3479 -0.0241
  647MOL0     H87323   4.047  -0.619   3.347  0.6347  0.8684  1.2586
  647MOL0     H87324   4.065  -0.557   3.180 -2.1690  2.7234 -1.4883
  647MOL0     H87325   3.226   0.251   2.980 -2.5234 -0.9528 -2.2205
  647MOL0     H87326   2.993   0.293   2.949 -0.4747  1.3751  0.1347
  647MOL0     H87327   2.575   0.055   3.120  0.2530 -0.4172 -0.5227
  647MOL0     H87328   2.337   0.037   3.073  0.9707 -1.1644  2.9199
  647MOL0     H87329   0.496   0.264   3.216 -2.8270 -0.1735  0.2227
  647MOL0     H87330   0.308   0.243   3.382  1.3136 -2.4838  0.8229
  647MOL0     H87331   0.095   0.220   3.674  0.1285  1.1007 -0.0721
  647MOL0     H87332  -0.089   0.173   3.816 -1.1219 -0.5285  0.0260
  647MOL0     H87333  -0.265   0.185   3.978 -0.0528 -0.0596  0.6067
  647MOL0     H87334  -0.368   0.155   3.837 -1.2918  0.3764  0.1668
  647MOL0     H87335  -0.459   0.332   4.071  0.7195  0.2448  0.8796
  647MOL0     H87336  -0.483   0.156   4.075  1.0722 -0.2577 -0.8996
  647MOL0     H87337  -0.579   0.357   3.874  0.3216  2.0647  2.4330
  647MOL0     H87338  -0.683   0.289   3.999 -1.3363 -0.8727 -1.0488
  647MOL0     H87339  -0.631   0.162   3.749  1.0203  1.1286  0.0360
  647MOL0     H87340  -0.581   0.058   3.874  0.0409  0.2564  0.3662
  647MOL0     H87341  -1.012   0.087   3.857  1.4701 -2.8717 -0.3294
  647MOL0     H87342  -0.235   0.576   3.763  0.8385  1.0282 -0.7372
  647MOL0     H87343  -0.096   0.739   3.650 -0.6506 -0.6627 -0.1546
  647MOL0     H87344   0.082   0.694   3.631 -0.4794 -0.6788 -0.6655
  647MOL0     H87345  -0.024   0.656   3.499  1.5710 -1.0547 -1.0052
  648MOL0     O87346   5.355   3.070   8.680  0.4129  0.2760  0.0416
  648MOL0     C87347   5.328   3.045   8.798 -0.0382  0.1038 -0.1434
  648MOL0     O87348   5.409   2.992   8.897 -0.7888 -0.5347  0.8057
  648MOL0     C87349   5.539   2.951   8.865  0.7151 -0.1224 -0.0486
  648MOL0     C87350   5.647   3.034   8.909  0.3112  0.2570 -0.1870
  648MOL0     C87351   5.777   2.998   8.868 -1.1985  0.5758  0.7274
  648MOL0     C87352   5.802   2.885   8.793 -0.8587  1.2008 -0.6751
  648MOL0     O87353   5.927   2.840   8.767  0.1456  0.8235 -0.1319
  648MOL0     C87354   6.022   2.939   8.717  0.0912 -0.1650 -0.1910
  648MOL0     C87355   6.163   2.871   8.702 -0.2981  0.2306 -0.2405
  648MOL0     C87356   6.280   2.970   8.694  0.3534 -0.0736 -0.5248
  648MOL0     C87357   6.401   2.886   8.666 -0.5801  1.2238 -0.2160
  648MOL0     C87358   6.455   2.800   8.786  0.3987  0.0314  0.3480
  648MOL0     C87359   6.592   2.740   8.758 -0.4208 -0.8634  0.2350
  648MOL0     C87360   6.699   2.846   8.774 -0.7750  0.0273  0.5602
  648MOL0     C87361   6.836   2.783   8.804 -0.6628 -0.0775 -0.6908
  648MOL0     N87362   6.920   2.783   8.688 -0.0100  0.1358  0.1084
  648MOL0     C87363   6.986   2.675   8.637 -0.3817  0.1915  0.2731
  648MOL0     C87364   7.063   2.727   8.539 -0.0258  0.4270 -0.3152
  648MOL0     C87365   7.145   2.639   8.443 -0.6649  0.0524  0.2595
  648MOL0     C87366   7.295   2.646   8.457 -0.2210 -0.3057 -0.6139
  648MOL0     C87367   7.367   2.775   8.435  0.0970  0.1927  0.2779
  648MOL0     C87368   7.519   2.746   8.431 -0.6514  0.0717  0.0961
  648MOL0     O87369   7.567   2.754   8.296  0.5439  0.3392 -0.3833
  648MOL0     C87370   7.704   2.752   8.274 -0.2436 -1.0273  0.3507
  648MOL0     C87371   7.806   2.713   8.367  0.3352 -0.0816  0.8217
  648MOL0     C87372   7.938   2.715   8.325 -0.3489 -0.0915 -0.7292
  648MOL0     C87373   7.971   2.746   8.190  0.4826 -0.6404 -0.1847
  648MOL0     C87374   8.106   2.731   8.138  0.1055 -0.8956 -0.4562
  648MOL0     O87375   8.134   2.801   8.027 -0.8632  0.2582 -0.3368
  648MOL0     C87376   8.262   2.782   7.990 -0.1023  0.4450  1.1191
  648MOL0     C87377   8.313   2.661   7.960 -1.1854 -0.6106  0.5690
  648MOL0     C87378   8.440   2.641   7.901 -0.7055 -0.0788  0.6010
  648MOL0     C87379   8.520   2.753   7.873 -0.3395  0.3956  0.1619
  648MOL0     O87380   8.643   2.761   7.820  0.2725 -0.6125 -0.0551
  648MOL0     C87381   8.699   2.640   7.765  0.1886  0.0665 -0.1489
  648MOL0     C87382   8.826   2.683   7.702  1.0766 -0.5981  0.6620
  648MOL0     C87383   8.924   2.567   7.684  0.7728 -0.7042  0.2762
  648MOL0     C87384   9.034   2.599   7.579  0.0405 -0.3528 -0.7778
  648MOL0     C87385   9.103   2.476   7.528  0.2693 -0.4372  1.0012
  648MOL0     C87386   9.233   2.507   7.457  0.3924  0.0657 -0.1869
  648MOL0     C87387   9.290   2.394   7.361 -0.0354 -0.3077 -0.0853
  648MOL0     C87388   9.426   2.423   7.292 -0.7975 -0.0494 -0.3418
  648MOL0    Cl87389   9.437   2.295   7.178  0.2523 -0.3538  0.1817
  648MOL0     C87390   8.463   2.877   7.902  1.0106 -0.1407  0.0610
  648MOL0     C87391   8.339   2.897   7.951 -0.8822 -0.5660  0.6004
  648MOL0     O87392   8.183   2.667   8.208 -0.1774  0.4223  0.6322
  648MOL0     C87393   7.867   2.776   8.103  0.0131 -0.4844  0.0673
  648MOL0     C87394   7.732   2.769   8.143 -0.9986  0.5320 -0.6111
  648MOL0     N87395   7.055   2.864   8.545  0.1121  0.0250 -0.4045
  648MOL0     N87396   6.957   2.900   8.619 -0.0858  0.4651 -0.7746
  648MOL0     C87397   5.696   2.797   8.762 -0.2958 -0.1418 -0.6230
  648MOL0     C87398   5.565   2.836   8.795  0.1977  0.1946 -0.0428
  648MOL0     C87399   5.192   3.075   8.847  0.5864  0.1278 -0.5734
  648MOL0     C87400   5.151   3.034   8.977  0.9185  0.6754 -0.9837
  648MOL0     C87401   5.024   3.067   9.033 -0.4168 -0.4915 -0.2831
  648MOL0     C87402   4.930   3.134   8.953  0.6877  0.1246  0.2047
  648MOL0     O87403   4.799   3.157   8.991  0.1351  0.2522 -0.6463
  648MOL0     C87404   4.738   3.039   9.048  0.8489 -0.0659  0.3116
  648MOL0     C87405   4.594   3.034   8.992 -0.8895 -0.3464  0.3949
  648MOL0     C87406   4.521   2.907   9.047  0.6024  0.9200  0.3209
  648MOL0     C87407   4.376   2.886   8.993  0.1586 -0.1311 -0.3660
  648MOL0     C87408   4.328   2.745   9.004 -0.4332  0.0569  0.5084
  648MOL0     C87409   4.281   2.632   9.017 -0.2417  0.0483 -0.7563
  648MOL0     C87410   4.972   3.176   8.825 -0.1993  0.1513 -0.4151
  648MOL0     C87411   5.098   3.148   8.767 -0.0228 -0.0478  0.3887
  648MOL0     C87412   5.114   3.208   8.620  0.6083 -0.7194 -0.5400
  648MOL0     H87413   5.648   3.130   8.961 -1.0188  0.4516 -0.4779
  648MOL0     H87414   5.860   3.062   8.897  2.0222 -1.5746 -2.7357
  648MOL0     H87415   5.992   2.994   8.628 -0.0713  1.2252  0.7098
  648MOL0     H87416   6.030   3.018   8.791 -0.6976 -1.1919  1.0400
  648MOL0     H87417   6.144   2.815   8.611  1.3145 -2.6751  1.0651
  648MOL0     H87418   6.174   2.806   8.789 -2.3932 -0.6010 -0.5369
  648MOL0     H87419   6.302   3.020   8.789  0.1212  1.8534 -1.4605
  648MOL0     H87420   6.267   3.050   8.621 -0.9850  1.1071  0.9224
  648MOL0     H87421   6.389   2.818   8.581  0.9284 -1.3791  1.5049
  648MOL0     H87422   6.476   2.962   8.640 -0.0546  1.9523  3.0381
  648MOL0     H87423   6.452   2.855   8.881 -1.8405  1.2654 -0.3590
  648MOL0     H87424   6.383   2.719   8.799  0.3084  0.0864  0.1955
  648MOL0     H87425   6.610   2.662   8.833  1.4648  2.0838  3.1687
  648MOL0     H87426   6.609   2.692   8.661 -0.7584  1.9702 -1.3246
  648MOL0     H87427   6.680   2.914   8.857  0.7969  1.8936 -0.5315
  648MOL0     H87428   6.706   2.903   8.681  1.4788  0.5211  0.9825
  648MOL0     H87429   6.882   2.827   8.893  0.1226 -0.1177 -1.0697
  648MOL0     H87430   6.822   2.677   8.827  0.2743 -0.0064  0.2900
  648MOL0     H87431   6.976   2.569   8.656 -0.8235  0.0103 -0.9449
  648MOL0     H87432   7.128   2.531   8.447  0.9947 -0.2503 -0.1871
  648MOL0     H87433   7.119   2.668   8.340  1.9746 -0.7628 -0.7207
  648MOL0     H87434   7.321   2.623   8.561  1.7476  0.1774 -0.9714
  648MOL0     H87435   7.339   2.558   8.408  2.9648  0.2518  0.9752
  648MOL0     H87436   7.343   2.853   8.507 -2.2956 -0.3527  0.1604
  648MOL0     H87437   7.343   2.818   8.337  3.8841  3.2674  0.4741
  648MOL0     H87438   7.548   2.654   8.482  1.5502  1.0772  0.7539
  648MOL0     H87439   7.556   2.826   8.496 -2.0349 -0.6741  1.9183
  648MOL0     H87440   7.775   2.693   8.469  1.4958  0.5831  1.3222
  648MOL0     H87441   8.010   2.692   8.403  0.3806  4.1411  0.0468
  648MOL0     H87442   8.251   2.574   7.981 -1.5089 -0.2250  1.2569
  648MOL0     H87443   8.480   2.543   7.873  1.5265  1.1028 -0.6735
  648MOL0     H87444   8.714   2.562   7.840 -0.6479 -2.8511 -2.7897
  648MOL0     H87445   8.628   2.599   7.693 -2.9077  1.2709  2.0115
  648MOL0     H87446   8.816   2.735   7.606 -0.5671 -1.3973  0.3759
  648MOL0     H87447   8.875   2.753   7.771 -0.5376  2.1738 -0.8324
  648MOL0     H87448   8.975   2.552   7.780  4.2477  1.7414 -0.9846
  648MOL0     H87449   8.879   2.471   7.656 -3.4853  1.4641 -1.2338
  648MOL0     H87450   9.110   2.667   7.619  0.0295 -0.4811 -0.5372
  648MOL0     H87451   8.996   2.654   7.492  0.6291 -0.2648 -0.9872
  648MOL0     H87452   9.036   2.417   7.464  0.4966  0.9374 -0.5830
  648MOL0     H87453   9.129   2.418   7.617  1.3128 -0.3453  0.7756
  648MOL0     H87454   9.211   2.600   7.403  1.5839  1.1678  1.1377
  648MOL0     H87455   9.316   2.523   7.527  1.1657 -0.6135 -0.9404
  648MOL0     H87456   9.220   2.379   7.279  2.2862 -3.3001 -1.7436
  648MOL0     H87457   9.293   2.305   7.424 -0.5969 -0.2126  0.0840
  648MOL0     H87458   9.421   2.514   7.230 -1.1426  1.2454  1.5214
  648MOL0     H87459   9.508   2.430   7.364 -1.3048  1.7183  0.1167
  648MOL0     H87460   8.525   2.959   7.869  1.3986 -0.8503 -1.0326
  648MOL0     H87461   8.303   2.999   7.946 -0.7356 -0.5103  0.6775
  648MOL0     H87462   7.895   2.805   8.003  2.8676 -3.1095 -0.0334
  648MOL0     H87463   7.658   2.790   8.066  0.0064  2.2390 -1.1516
  648MOL0     H87464   5.718   2.705   8.710  0.4081  0.5303 -1.5468
  648MOL0     H87465   5.476   2.780   8.766 -1.4008  3.2754 -1.5385
  648MOL0     H87466   5.210   2.979   9.049 -1.4930 -0.7133  0.0251
  648MOL0     H87467   4.999   3.029   9.131 -0.8659 -0.0324 -0.2151
  648MOL0     H87468   4.744   3.043   9.157 -3.0951  1.2178  0.6252
  648MOL0     H87469   4.788   2.950   9.009  2.1789  0.1553  1.3952
  648MOL0     H87470   4.617   3.033   8.885  3.4164 -1.2786  1.1392
  648MOL0     H87471   4.541   3.124   9.024 -0.8353 -1.1272  2.8621
  648MOL0     H87472   4.524   2.898   9.156 -0.6163  0.6247  0.3522
  648MOL0     H87473   4.585   2.832   8.999 -0.9424  0.7000 -1.5507
  648MOL0     H87474   4.311   2.954   9.049 -0.3700  0.1078 -1.2577
  648MOL0     H87475   4.375   2.912   8.887  1.8459 -2.8644 -1.1459
  648MOL0     H87476   4.238   2.534   9.025 -0.3505  0.2725  2.4440
  648MOL0     H87477   4.891   3.233   8.780 -0.6395  1.6159  2.0884
  648MOL0     H87478   5.194   3.282   8.614  0.7313 -0.6924  1.1480
  648MOL0     H87479   5.148   3.121   8.562  0.8499 -0.6533 -0.4978
  648MOL0     H87480   5.023   3.250   8.577 -0.3558 -1.7812  0.3808
  649MOL0     O87481   8.436   5.518   0.554 -0.0447 -0.1680  0.4841
  649MOL0     C87482   8.361   5.458   0.481  0.2643  0.3141  0.4405
  649MOL0     O87483   8.361   5.311   0.462  0.0900 -0.2443 -0.5040
  649MOL0     C87484   8.425   5.234   0.545 -1.0681 -0.7181  0.4006
  649MOL0     C87485   8.373   5.120   0.599  0.7365  0.3208 -0.4400
  649MOL0     C87486   8.457   5.024   0.662  0.6206 -0.2328  0.2116
  649MOL0     C87487   8.598   5.047   0.660  0.3158 -0.6253  0.3344
  649MOL0     O87488   8.685   4.965   0.723  0.1603 -0.1630 -0.1343
  649MOL0     C87489   8.653   4.833   0.752 -0.6175 -0.3797 -1.0766
  649MOL0     C87490   8.759   4.770   0.833 -0.4541  0.0645 -0.1743
  649MOL0     C87491   8.890   4.771   0.757  0.9565 -0.4110  0.2268
  649MOL0     C87492   9.000   4.687   0.822  0.0155  0.4390 -0.2714
  649MOL0     C87493   9.126   4.678   0.744  0.0892  0.1980 -0.3451
  649MOL0     C87494   9.207   4.545   0.762  1.0181 -0.2168 -0.6654
  649MOL0     C87495   9.268   4.548   0.904  0.1751  0.5642 -0.3723
  649MOL0     C87496   9.365   4.661   0.928 -0.5967  0.0280 -0.1950
  649MOL0     N87497   9.465   4.682   0.818 -0.0415 -0.0307 -0.4447
  649MOL0     C87498   9.547   4.583   0.770 -0.5815  0.1151 -0.1983
  649MOL0     C87499   9.577   4.622   0.643  0.2581 -0.3259 -0.7702
  649MOL0     C87500   9.668   4.526   0.552  0.0906 -0.5851  0.1860
  649MOL0     C87501   9.572   4.433   0.473 -0.9196  0.1972  0.5219
  649MOL0     C87502   9.648   4.342   0.379  0.4870 -0.3001  1.0974
  649MOL0     C87503   9.716   4.405   0.262  0.6918  0.3171  0.4793
  649MOL0     O87504   9.761   4.300   0.171  0.3790  0.3204 -0.4494
  649MOL0     C87505   9.890   4.266   0.182 -0.0336  0.4516  0.3107
  649MOL0     C87506   9.983   4.305   0.285  0.4906  0.5146 -0.0566
  649MOL0     C87507  10.122   4.277   0.274 -0.0531  0.0649  0.3927
  649MOL0     C87508  10.165   4.198   0.167 -0.3836 -0.0314 -0.3061
  649MOL0     C87509  10.309   4.165   0.159  0.3216  0.8325  0.5920
  649MOL0     O87510  10.373   4.156   0.276 -0.5356  0.3543 -0.4547
  649MOL0     C87511  10.511   4.152   0.273  0.5137 -0.4137  0.3042
  649MOL0     C87512  10.586   4.043   0.316 -0.9728  0.0884  0.5309
  649MOL0     C87513  10.729   4.043   0.317  0.7284 -0.1864 -0.5335
  649MOL0     C87514  10.796   4.161   0.281 -0.3158  0.3044 -0.0642
  649MOL0     O87515  10.931   4.170   0.255  0.2358  0.2756 -1.2354
  649MOL0     C87516  11.010   4.067   0.321  0.1178  0.1035  0.4498
  649MOL0     C87517  11.157   4.088   0.284  0.5421  0.1336  1.0243
  649MOL0     C87518  11.215   4.207   0.359 -0.1767 -0.1989  0.1708
  649MOL0     C87519  11.367   4.205   0.363  0.0857 -1.0625  0.7072
  649MOL0     C87520  11.424   4.143   0.480  0.2096  0.2067  0.0673
  649MOL0     C87521  11.583   4.150   0.484  0.0799 -0.0639  0.6474
  649MOL0     C87522  11.638   4.079   0.611  0.3674  0.6832 -0.2311
  649MOL0     C87523  11.788   4.038   0.595 -0.0217 -0.2173  0.1732
  649MOL0    Cl87524  11.889   4.166   0.527  0.2029 -0.0499  0.1236
  649MOL0     C87525  10.724   4.275   0.241  0.1464  0.1334  0.1161
  649MOL0     C87526  10.589   4.266   0.225  0.1789  0.5203 -0.5297
  649MOL0     O87527  10.357   4.133   0.046  0.5893 -0.0378  0.1597
  649MOL0     C87528  10.074   4.160   0.062 -0.3205  0.5115  0.4592
  649MOL0     C87529   9.940   4.186   0.080  0.5632 -0.7799 -0.1191
  649MOL0     N87530   9.510   4.739   0.620 -0.0767  0.0053  0.3578
  649MOL0     N87531   9.446   4.779   0.720 -0.0134  1.0769 -0.1277
  649MOL0     C87532   8.652   5.167   0.610  0.4869  0.1132 -0.3209
  649MOL0     C87533   8.569   5.262   0.554  0.3564 -0.1953  0.2139
  649MOL0     C87534   8.270   5.532   0.395  0.5906 -0.8944 -0.1052
  649MOL0     C87535   8.226   5.469   0.277 -0.2979 -0.2079  0.2854
  649MOL0     C87536   8.147   5.531   0.187 -0.2567 -0.1138  0.7235
  649MOL0     C87537   8.093   5.656   0.216  0.2414 -0.4634  0.1970
  649MOL0     O87538   8.020   5.723   0.117 -0.1029 -0.6523 -0.3066
  649MOL0     C87539   7.875   5.717   0.145  0.5300  0.1819 -0.0587
  649MOL0     C87540   7.811   5.842   0.204  1.0489 -0.4783  0.3182
  649MOL0     C87541   7.837   5.969   0.125  0.4938  0.1861 -1.3330
  649MOL0     C87542   7.984   6.025   0.120  0.2303  0.6068 -0.6961
  649MOL0     C87543   7.970   6.165   0.091 -0.1291 -0.3869  0.0313
  649MOL0     C87544   7.943   6.281   0.071 -0.5802  0.5570 -0.2787
  649MOL0     C87545   8.124   5.719   0.337 -0.6869  0.3949  0.3778
  649MOL0     C87546   8.211   5.655   0.427  0.0758 -0.4757  0.2103
  649MOL0     C87547   8.240   5.729   0.558  0.7034 -0.1825 -0.1055
  649MOL0     H87548   8.267   5.100   0.585 -0.0359  1.8020  2.4030
  649MOL0     H87549   8.422   4.927   0.695  1.2812 -0.1043  1.3336
  649MOL0     H87550   8.559   4.826   0.807 -0.9481  4.0770 -0.7349
  649MOL0     H87551   8.654   4.772   0.661  2.5404 -1.7696 -0.2677
  649MOL0     H87552   8.733   4.664   0.843 -1.4854  0.1180 -1.8216
  649MOL0     H87553   8.772   4.817   0.930 -2.0581 -1.0651  0.6450
  649MOL0     H87554   8.924   4.871   0.730 -3.0976  0.2317 -3.7603
  649MOL0     H87555   8.878   4.716   0.663  0.5529 -0.6018  0.3881
  649MOL0     H87556   9.024   4.737   0.917 -0.7240 -0.4168  0.3858
  649MOL0     H87557   8.956   4.589   0.845 -0.6736  1.0654  1.2755
  649MOL0     H87558   9.104   4.685   0.637  1.1085  1.0716 -0.5151
  649MOL0     H87559   9.179   4.773   0.759  1.7965 -0.3616 -2.3451
  649MOL0     H87560   9.139   4.461   0.747  2.4261 -1.3314 -0.9694
  649MOL0     H87561   9.279   4.526   0.682 -1.1682 -6.4896 -1.7006
  649MOL0     H87562   9.325   4.458   0.928  0.4185  0.4721 -1.2516
  649MOL0     H87563   9.187   4.563   0.977 -1.3057  0.5156 -1.9320
  649MOL0     H87564   9.313   4.755   0.949 -2.0303 -1.2133  2.2185
  649MOL0     H87565   9.415   4.628   1.019  0.1506 -0.2480 -0.6926
  649MOL0     H87566   9.574   4.495   0.828 -0.6394  0.5048  0.4243
  649MOL0     H87567   9.726   4.585   0.481  0.3520 -3.9063 -2.6210
  649MOL0     H87568   9.725   4.457   0.616 -2.4830 -3.3811 -0.3484
  649MOL0     H87569   9.513   4.384   0.552 -1.3819  1.8527  1.2672
  649MOL0     H87570   9.496   4.497   0.426 -1.8716 -1.2659  0.0174
  649MOL0     H87571   9.578   4.270   0.336  0.1388  1.2269 -1.0286
  649MOL0     H87572   9.721   4.282   0.435  1.2896 -0.4665 -0.0975
  649MOL0     H87573   9.799   4.471   0.288  0.9252  0.7881 -1.3870
  649MOL0     H87574   9.638   4.467   0.217 -0.1072  0.6657  2.2218
  649MOL0     H87575   9.953   4.366   0.370 -0.2392  0.4736 -0.2858
  649MOL0     H87576  10.201   4.309   0.341  0.0129 -1.0788  0.8780
  649MOL0     H87577  10.533   3.952   0.346 -0.8269 -0.2666 -0.2785
  649MOL0     H87578  10.775   3.951   0.354 -2.7258 -1.5444  0.8467
  649MOL0     H87579  10.995   4.079   0.429  1.2328 -2.9875  1.0525
  649MOL0     H87580  10.971   3.971   0.285 -1.5368  1.9683 -3.2623
  649MOL0     H87581  11.223   4.004   0.305  2.0442  1.1940  0.6952
  649MOL0     H87582  11.168   4.098   0.176 -3.3126 -0.0625  0.4917
  649MOL0     H87583  11.176   4.296   0.310  0.7194 -0.5579 -1.2401
  649MOL0     H87584  11.176   4.213   0.462  1.9805 -1.7750  1.1658
  649MOL0     H87585  11.409   4.306   0.358  3.8231 -2.4717  0.6855
  649MOL0     H87586  11.415   4.168   0.272 -0.3219  0.9181 -0.3789
  649MOL0     H87587  11.401   4.037   0.466  0.0770  0.3347 -0.7136
  649MOL0     H87588  11.387   4.185   0.575  1.1769 -1.3085  1.1672
  649MOL0     H87589  11.625   4.100   0.397  1.1545  0.1096  1.0513
  649MOL0     H87590  11.614   4.254   0.492 -0.3069  0.2807 -1.7278
  649MOL0     H87591  11.586   3.984   0.625  0.8199  0.3457 -0.7910
  649MOL0     H87592  11.625   4.135   0.704  1.8552  0.2650  0.2513
  649MOL0     H87593  11.828   4.030   0.697  1.0188  3.5735  0.2349
  649MOL0     H87594  11.801   3.944   0.541 -3.0532 -0.6857  0.0463
  649MOL0     H87595  10.778   4.365   0.213  2.2280 -1.0792  0.0225
  649MOL0     H87596  10.533   4.352   0.190  0.0582  0.4860 -0.4220
  649MOL0     H87597  10.104   4.109  -0.029  0.6748  0.3013  0.8923
  649MOL0     H87598   9.872   4.172  -0.003  0.5961  3.9183 -1.2331
  649MOL0     H87599   8.757   5.190   0.624 -0.0105  0.5364  3.8802
  649MOL0     H87600   8.628   5.342   0.509 -0.2281 -1.2119 -2.5807
  649MOL0     H87601   8.270   5.377   0.240  1.8487  1.6625 -2.1772
  649MOL0     H87602   8.119   5.483   0.093 -1.8693  1.4724  0.3183
  649MOL0     H87603   7.845   5.624   0.193  0.2102 -0.6848 -1.8343
  649MOL0     H87604   7.829   5.722   0.046 -2.8837 -2.2615  1.2212
  649MOL0     H87605   7.845   5.852   0.307 -0.8200 -1.3820  1.0760
  649MOL0     H87606   7.706   5.811   0.211  1.1628 -0.9989 -0.1824
  649MOL0     H87607   7.762   6.045   0.149  0.0591  0.1394 -2.4722
  649MOL0     H87608   7.803   5.948   0.023  1.9286 -0.3647 -1.7230
  649MOL0     H87609   8.021   6.010   0.222  1.3647 -1.0431 -1.3052
  649MOL0     H87610   8.039   5.971   0.042 -1.0458  2.3330 -2.9022
  649MOL0     H87611   7.940   6.387   0.058 -1.1631  0.5347 -0.3263
  649MOL0     H87612   8.076   5.811   0.369  1.2235  1.4800  0.2808
  649MOL0     H87613   8.167   5.809   0.573  2.4099  1.0970  2.0536
  649MOL0     H87614   8.232   5.660   0.643  2.4969  1.5548  1.5768
  649MOL0     H87615   8.345   5.758   0.553  1.2324 -2.2027 -3.0127
  650MOL0     O87616   1.803  10.316  10.949  0.4359 -0.0682  0.0578
  650MOL0     C87617   1.713  10.399  10.947  0.8452 -0.3789  0.4884
  650MOL0     O87618   1.711  10.512  10.873 -0.6015  0.9028 -0.7980
  650MOL0     C87619   1.816  10.538  10.791  0.5839 -0.1125 -1.0011
  650MOL0     C87620   1.798  10.533  10.653 -0.0507 -0.1323 -0.1237
  650MOL0     C87621   1.904  10.580  10.567  0.4107 -0.6681  0.0415
  650MOL0     C87622   2.022  10.633  10.623 -0.5623 -0.0916  0.2532
  650MOL0     O87623   2.126  10.680  10.539  0.1179 -0.0684  0.7670
  650MOL0     C87624   2.247  10.735  10.594  0.6931 -0.2269 -0.6864
  650MOL0     C87625   2.345  10.794  10.494  0.1307 -0.4182 -0.3061
  650MOL0     C87626   2.295  10.916  10.418 -0.1765 -0.2260  0.4720
  650MOL0     C87627   2.402  10.955  10.309 -0.1543 -0.1666  0.2021
  650MOL0     C87628   2.545  10.955  10.356 -0.1452  0.7689  0.7627
  650MOL0     C87629   2.634  10.988  10.242  0.0188  0.6404  0.3688
  650MOL0     C87630   2.776  11.010  10.286 -0.0630  0.2245  0.1440
  650MOL0     C87631   2.801  11.152  10.335  1.1640  0.2389 -0.4909
  650MOL0     N87632   2.780  11.254  10.232 -0.7853 -0.2731 -0.7813
  650MOL0     C87633   2.887  11.329  10.169  1.1958 -0.1133  0.0905
  650MOL0     C87634   2.816  11.440  10.115 -0.9296 -0.6159 -0.9053
  650MOL0     C87635   2.867  11.574  10.062 -0.3626 -0.1727  0.7435
  650MOL0     C87636   2.891  11.558   9.912 -1.2013  0.5113  0.3310
  650MOL0     C87637   2.938  11.683   9.854 -0.0959  1.1542  0.4425
  650MOL0     C87638   2.982  11.639   9.714 -0.4523  0.4491 -0.2972
  650MOL0     O87639   3.007  11.746   9.635 -0.6521 -0.4122  0.4706
  650MOL0     C87640   2.905  11.790   9.553 -0.0102 -0.1326 -0.2592
  650MOL0     C87641   2.881  11.928   9.555 -0.4314  0.0690 -0.2095
  650MOL0     C87642   2.785  11.981   9.473 -0.0887  0.0690 -1.2056
  650MOL0     C87643   2.694  11.906   9.400 -0.2701  0.7465 -0.0721
  650MOL0     C87644   2.586  11.975   9.323 -0.2026 -0.6450 -0.6348
  650MOL0     O87645   2.602  12.095   9.280  0.4731 -0.1274  0.9070
  650MOL0     C87646   2.508  12.155   9.202  0.2923  0.0225  0.7328
  650MOL0     C87647   2.371  12.155   9.214  0.1802  1.1991  0.6819
  650MOL0     C87648   2.291  12.224   9.122 -0.2931  0.4685  0.2265
  650MOL0     C87649   2.346  12.315   9.032 -0.5110  0.0364 -0.7464
  650MOL0     O87650   2.271  12.369   8.937  0.9588  0.8100  0.6088
  650MOL0     C87651   2.202  12.485   8.978 -0.5886  0.1363  0.2725
  650MOL0     C87652   2.054  12.487   8.929  0.0474 -0.5508  1.1265
  650MOL0     C87653   1.974  12.400   9.026  0.2634  0.2296  0.2829
  650MOL0     C87654   1.832  12.377   8.983  0.4353  0.3203 -0.6475
  650MOL0     C87655   1.752  12.289   9.088 -0.3743 -0.3390  0.0025
  650MOL0     C87656   1.603  12.285   9.064  0.1926 -0.5216  0.2881
  650MOL0     C87657   1.557  12.195   8.948  0.1880 -0.2748  0.2453
  650MOL0     C87658   1.398  12.214   8.923 -0.3191 -0.2612  0.1221
  650MOL0    Cl87659   1.307  12.145   9.066  0.2466 -0.2120  0.3085
  650MOL0     C87660   2.487  12.326   9.018 -0.1523  0.5071 -0.7163
  650MOL0     C87661   2.567  12.245   9.101  0.1711  0.4307  0.8416
  650MOL0     O87662   2.507  11.892   9.275 -0.8750  0.8199 -0.0312
  650MOL0     C87663   2.707  11.767   9.404 -0.2095 -0.5263  0.8612
  650MOL0     C87664   2.813  11.712   9.480 -0.2407 -1.3982  0.6312
  650MOL0     N87665   2.682  11.425  10.137 -0.1841  0.6665  0.7310
  650MOL0     N87666   2.661  11.309  10.205 -0.9061  0.1829  0.5519
  650MOL0     C87667   2.034  10.639  10.768  0.0258 -0.3225  0.1053
  650MOL0     C87668   1.932  10.592  10.854 -0.1989 -0.0982 -0.2287
  650MOL0     C87669   1.608  10.396  11.052 -0.0132  0.7330 -0.1963
  650MOL0     C87670   1.530  10.508  11.062 -0.3319  0.4380 -0.0958
  650MOL0     C87671   1.419  10.507  11.152 -0.2243 -0.1053 -0.1077
  650MOL0     C87672   1.383  10.396  11.230 -0.8043 -0.1045  0.6572
  650MOL0     O87673   1.269  10.404  11.301 -0.4407  0.2841  0.5993
  650MOL0     C87674   1.238  10.312  11.406 -0.1738 -0.5407 -0.0947
  650MOL0     C87675   1.153  10.194  11.341 -0.3538 -0.1033  0.6461
  650MOL0     C87676   1.005  10.232  11.353 -0.2782 -0.3675  0.1984
  650MOL0     C87677   0.901  10.131  11.288 -0.7003  0.4954 -0.5926
  650MOL0     C87678   0.925   9.998  11.334  0.5366  0.2630 -0.0601
  650MOL0     C87679   0.936   9.888  11.384 -0.6185 -0.1557 -0.4754
  650MOL0     C87680   1.470  10.286  11.222 -0.2021 -0.7684  0.6942
  650MOL0     C87681   1.579  10.281  11.133  0.7297 -0.1008 -0.5702
  650MOL0     C87682   1.670  10.160  11.146  0.1047 -0.5943  0.4981
  650MOL0     H87683   1.712  10.490  10.603 -0.3287  0.3834 -0.0890
  650MOL0     H87684   1.906  10.575  10.459  2.1184 -0.2392  0.0293
  650MOL0     H87685   2.216  10.820  10.654 -1.6557 -0.0278 -2.0451
  650MOL0     H87686   2.289  10.659  10.661  0.5730 -1.3267 -1.8137
  650MOL0     H87687   2.376  10.712  10.428  2.5819  0.3844 -0.2335
  650MOL0     H87688   2.435  10.822  10.549 -0.8630  0.1728  1.0799
  650MOL0     H87689   2.283  10.990  10.498  1.8642 -0.5041  1.1131
  650MOL0     H87690   2.196  10.907  10.374  0.2359  1.7539 -0.9689
  650MOL0     H87691   2.391  10.880  10.230  0.9617 -1.0122  0.8165
  650MOL0     H87692   2.376  11.050  10.261 -3.2664 -0.6909  0.6685
  650MOL0     H87693   2.548  11.031  10.435  1.4758  1.2265  0.3049
  650MOL0     H87694   2.589  10.865  10.400 -0.8176 -1.9624 -3.5710
  650MOL0     H87695   2.623  10.906  10.170 -2.5926 -0.0575  1.4568
  650MOL0     H87696   2.590  11.076  10.195  1.8338  0.9521 -0.8576
  650MOL0     H87697   2.850  11.000  10.206  1.3352 -0.3589  1.4723
  650MOL0     H87698   2.796  10.951  10.377 -0.2237  1.8225  1.2444
  650MOL0     H87699   2.738  11.173  10.421  1.8418  1.4497 -0.2636
  650MOL0     H87700   2.899  11.163  10.383  0.5317  2.3131  0.4478
  650MOL0     H87701   2.993  11.303  10.168  1.2837  0.0973 -2.3996
  650MOL0     H87702   2.800  11.658  10.081 -1.5486 -0.4832 -1.6419
  650MOL0     H87703   2.963  11.585  10.114 -1.0063 -0.9738  2.1530
  650MOL0     H87704   2.959  11.475   9.891 -2.0319  0.2535 -1.5658
  650MOL0     H87705   2.797  11.525   9.866 -2.0571 -0.0795  2.3698
  650MOL0     H87706   3.031  11.720   9.898  1.0767 -0.8638 -0.2123
  650MOL0     H87707   2.856  11.755   9.853 -0.3053  0.9354 -0.9391
  650MOL0     H87708   2.905  11.580   9.664 -1.9653  2.0275  0.0593
  650MOL0     H87709   3.075  11.583   9.731 -0.8185  0.2614  1.2227
  650MOL0     H87710   2.937  11.995   9.620 -2.7631  0.3539  1.6274
  650MOL0     H87711   2.762  12.087   9.463 -1.4949 -0.3193 -2.4972
  650MOL0     H87712   2.307  12.100   9.283 -3.9343 -0.3350 -3.7876
  650MOL0     H87713   2.184  12.213   9.115 -0.2446 -2.2021  2.0793
  650MOL0     H87714   2.215  12.518   9.081  1.8878  5.8339 -1.4876
  650MOL0     H87715   2.254  12.565   8.924 -1.1653  1.2723  1.3460
  650MOL0     H87716   2.000  12.582   8.932 -1.3142 -1.0692 -2.2699
  650MOL0     H87717   2.054  12.444   8.828 -0.6769 -0.1144  0.9340
  650MOL0     H87718   2.012  12.302   9.057  0.0933  0.3109  0.7568
  650MOL0     H87719   1.973  12.455   9.120  3.4283 -2.1019  1.9136
  650MOL0     H87720   1.823  12.338   8.882 -0.6583  2.9786 -1.6504
  650MOL0     H87721   1.786  12.476   8.977 -0.3021 -0.1163 -3.0605
  650MOL0     H87722   1.774  12.335   9.185  1.5166 -2.7948  0.8553
  650MOL0     H87723   1.794  12.188   9.095  0.3579  0.0536  1.6374
  650MOL0     H87724   1.559  12.260   9.161  1.2390  0.0893  0.9403
  650MOL0     H87725   1.587  12.387   9.030  0.8619 -1.5107 -3.4092
  650MOL0     H87726   1.570  12.087   8.965 -0.8121 -0.3359  0.7041
  650MOL0     H87727   1.620  12.221   8.863  0.8171 -1.7710  0.2152
  650MOL0     H87728   1.358  12.316   8.926 -1.1703 -0.4518 -2.4190
  650MOL0     H87729   1.364  12.153   8.839 -0.5947 -0.1751  0.1718
  650MOL0     H87730   2.537  12.387   8.943 -1.3932  1.1687 -1.0469
  650MOL0     H87731   2.675  12.247   9.091  0.1588  2.8235  0.5089
  650MOL0     H87732   2.642  11.702   9.347  1.4360 -1.2794 -0.2024
  650MOL0     H87733   2.817  11.603   9.485 -3.3770 -1.5655  1.4844
  650MOL0     H87734   2.126  10.680  10.810 -0.5426  2.2504 -1.0145
  650MOL0     H87735   1.939  10.583  10.962 -0.0246  2.9794  0.1207
  650MOL0     H87736   1.555  10.600  11.010 -0.2598 -1.1090 -3.0415
  650MOL0     H87737   1.364  10.600  11.163  2.3312  1.1559  4.5777
  650MOL0     H87738   1.173  10.362  11.479  1.1541  1.2734 -0.0683
  650MOL0     H87739   1.330  10.278  11.455 -0.8562 -1.3282  0.6586
  650MOL0     H87740   1.188  10.097  11.377 -0.4404 -1.1552 -1.8721
  650MOL0     H87741   1.178  10.196  11.234 -1.3358 -1.2894  0.3725
  650MOL0     H87742   0.995  10.327  11.300 -0.2858 -1.0457 -1.0692
  650MOL0     H87743   0.975  10.242  11.458  1.6689  0.2452  0.7323
  650MOL0     H87744   0.797  10.156  11.308 -0.2715  1.9446 -0.0225
  650MOL0     H87745   0.926  10.133  11.182 -0.0099 -0.5441 -0.4654
  650MOL0     H87746   0.953   9.796  11.436 -0.7122  1.2362  2.2182
  650MOL0     H87747   1.444  10.199  11.281 -0.0285 -3.1932 -2.5062
  650MOL0     H87748   1.746  10.166  11.225  0.4706 -1.8443  0.2735
  650MOL0     H87749   1.614  10.073  11.182  2.1970 -2.0867  0.3985
  650MOL0     H87750   1.710  10.139  11.046  2.9386  2.8661  0.6890
  651MOL0     O87751   1.037   9.003   3.302  0.1534  0.5262  0.4293
  651MOL0     C87752   0.985   8.890   3.304  0.1614  0.3194 -0.9440
  651MOL0     O87753   1.052   8.772   3.295 -0.2683 -0.5372 -0.8751
  651MOL0     C87754   1.189   8.769   3.297  0.3969 -0.4665 -1.1990
  651MOL0     C87755   1.269   8.833   3.206  0.5583 -0.2655  0.1633
  651MOL0     C87756   1.405   8.816   3.206 -0.1966 -0.2999 -0.6318
  651MOL0     C87757   1.462   8.733   3.304 -0.0454  0.4076  0.4951
  651MOL0     O87758   1.583   8.678   3.296 -0.1044  0.7743  0.1243
  651MOL0     C87759   1.696   8.751   3.231 -0.2878  0.0489 -0.2740
  651MOL0     C87760   1.815   8.714   3.318  0.0928  0.0363 -0.0807
  651MOL0     C87761   1.943   8.800   3.292 -0.2069  0.3280 -0.1855
  651MOL0     C87762   2.005   8.773   3.155  1.8389 -0.5415  0.5170
  651MOL0     C87763   2.139   8.858   3.145  0.1384  0.0081 -0.5702
  651MOL0     C87764   2.209   8.824   3.014  0.6190  0.4147  0.7528
  651MOL0     C87765   2.343   8.894   3.004  0.2981  0.9152 -0.5550
  651MOL0     C87766   2.408   8.855   2.868 -0.2412  0.6009 -0.9927
  651MOL0     N87767   2.463   8.716   2.865 -0.1162 -0.0352 -1.4966
  651MOL0     C87768   2.410   8.609   2.802  0.2088  0.3128 -0.0668
  651MOL0     C87769   2.495   8.508   2.818 -0.4931  0.1814  0.4480
  651MOL0     C87770   2.483   8.377   2.752 -0.0859  0.3959  0.0835
  651MOL0     C87771   2.374   8.304   2.824 -0.1238  0.8717 -0.4243
  651MOL0     C87772   2.237   8.305   2.753  0.5768 -0.1989  0.3960
  651MOL0     C87773   2.149   8.210   2.824  0.4428 -0.1001 -0.6750
  651MOL0     O87774   2.008   8.251   2.813 -0.5764  0.1754  1.1328
  651MOL0     C87775   1.927   8.217   2.705  0.1695 -0.8112  0.6653
  651MOL0     C87776   1.788   8.224   2.724 -0.0407 -0.3359  0.2052
  651MOL0     C87777   1.700   8.187   2.616 -0.7532  0.0525 -0.3121
  651MOL0     C87778   1.754   8.145   2.492  0.2798  0.4635 -0.2724
  651MOL0     C87779   1.673   8.093   2.382  0.1546 -0.3252  0.5538
  651MOL0     O87780   1.717   8.080   2.255  0.4466  0.7925 -0.1274
  651MOL0     C87781   1.624   8.058   2.154 -1.1939  0.4470  0.6279
  651MOL0     C87782   1.659   7.953   2.059 -0.1981  0.0035 -0.1612
  651MOL0     C87783   1.566   7.912   1.958 -0.1262  1.0801 -0.0260
  651MOL0     C87784   1.439   7.975   1.953 -0.0645  0.2640  0.0434
  651MOL0     O87785   1.340   7.933   1.873  0.3303 -0.5909 -0.1022
  651MOL0     C87786   1.281   7.807   1.899  0.0447  0.2793 -0.6279
  651MOL0     C87787   1.213   7.801   2.038 -0.0286  0.2709 -0.7025
  651MOL0     C87788   1.092   7.896   2.034  0.5670  0.2324 -0.3432
  651MOL0     C87789   0.965   7.823   1.977 -0.7051 -1.1446 -0.7850
  651MOL0     C87790   0.853   7.930   1.979 -0.7408 -0.5761 -0.2027
  651MOL0     C87791   0.733   7.894   1.895  0.9287 -0.0858  0.6929
  651MOL0     C87792   0.629   8.013   1.913 -0.0559  0.1704 -0.3580
  651MOL0     C87793   0.539   7.999   2.038 -0.3119  0.0213 -0.1075
  651MOL0    Cl87794   0.410   8.121   2.033 -0.5468 -0.0778 -0.4579
  651MOL0     C87795   1.418   8.086   2.038  0.5766  0.3597 -0.5032
  651MOL0     C87796   1.505   8.130   2.128 -0.5719 -0.2180 -0.3821
  651MOL0     O87797   1.567   8.044   2.421 -0.4082  0.3501  0.4192
  651MOL0     C87798   1.892   8.143   2.477  1.1315 -0.1701 -0.0268
  651MOL0     C87799   1.974   8.188   2.575  0.0265 -0.9909  0.3012
  651MOL0     N87800   2.598   8.551   2.903  0.1805  0.3664 -0.4852
  651MOL0     N87801   2.576   8.677   2.922  1.0438 -0.1113  0.0930
  651MOL0     C87802   1.379   8.672   3.395 -0.2890 -0.3771  0.1285
  651MOL0     C87803   1.245   8.696   3.402  0.7317 -0.4375  0.6388
  651MOL0     C87804   0.832   8.893   3.308 -0.5431 -0.3979 -0.2005
  651MOL0     C87805   0.754   8.774   3.272 -0.5129  0.3015  0.2223
  651MOL0     C87806   0.610   8.772   3.265  0.0748  0.7504  0.5118
  651MOL0     C87807   0.533   8.873   3.315  0.5130 -0.0862  0.2743
  651MOL0     O87808   0.397   8.866   3.342 -0.3154  0.0949  0.2671
  651MOL0     C87809   0.341   8.734   3.339  0.0198 -0.1218 -1.2431
  651MOL0     C87810   0.193   8.755   3.378 -0.5290  0.5972 -0.4418
  651MOL0     C87811   0.126   8.619   3.375  0.2842 -0.2964 -0.3228
  651MOL0     C87812  -0.024   8.635   3.345 -0.0448 -0.0652  0.4693
  651MOL0     C87813  -0.108   8.693   3.445  0.3571  0.1804  0.5794
  651MOL0     C87814  -0.171   8.762   3.523 -0.0375 -0.2023 -0.2237
  651MOL0     C87815   0.609   8.990   3.351  0.7515 -0.0019 -0.1491
  651MOL0     C87816   0.753   9.005   3.344 -0.7259  0.8955  0.0145
  651MOL0     C87817   0.808   9.135   3.390 -0.3597  0.0836 -0.0023
  651MOL0     H87818   1.230   8.889   3.122 -0.9046 -2.4159 -0.7068
  651MOL0     H87819   1.466   8.874   3.137  2.2341  0.0385  1.6441
  651MOL0     H87820   1.713   8.725   3.126  0.5816  0.2046 -0.1758
  651MOL0     H87821   1.687   8.860   3.220 -0.9629 -0.1842 -2.6217
  651MOL0     H87822   1.837   8.613   3.283  0.8706  0.9293 -2.3922
  651MOL0     H87823   1.786   8.713   3.423 -1.1371 -1.4391 -0.3980
  651MOL0     H87824   2.021   8.775   3.364  0.2337  1.9545 -0.0526
  651MOL0     H87825   1.909   8.904   3.289 -0.2878  0.3976 -4.6787
  651MOL0     H87826   2.018   8.665   3.149 -1.7492 -1.0254 -2.2257
  651MOL0     H87827   1.930   8.791   3.077 -0.5235 -2.2134  2.2275
  651MOL0     H87828   2.133   8.966   3.157 -1.1874 -0.1655  0.5614
  651MOL0     H87829   2.202   8.829   3.230  0.1668 -1.6384 -1.1024
  651MOL0     H87830   2.227   8.717   3.000  1.7186  0.6541  0.2353
  651MOL0     H87831   2.147   8.852   2.928  0.2446  1.6049  1.3952
  651MOL0     H87832   2.401   8.847   3.083  1.4146  1.2360 -1.1534
  651MOL0     H87833   2.346   9.001   3.027  5.4342  0.9763 -0.2493
  651MOL0     H87834   2.343   8.869   2.781 -0.6688 -1.7184 -1.1037
  651MOL0     H87835   2.486   8.928   2.842  0.5991 -0.0438 -0.3604
  651MOL0     H87836   2.322   8.609   2.740 -0.4096  0.4086  0.7878
  651MOL0     H87837   2.457   8.394   2.647 -2.6617 -0.1810  0.5575
  651MOL0     H87838   2.575   8.317   2.754  0.1707  0.7847  1.8004
  651MOL0     H87839   2.408   8.200   2.835 -1.1758  0.5547 -0.0343
  651MOL0     H87840   2.366   8.338   2.928  1.9262 -1.0978  0.4683
  651MOL0     H87841   2.255   8.272   2.650 -1.2433 -0.7121  0.2143
  651MOL0     H87842   2.206   8.409   2.758 -0.0532 -0.4004  0.7937
  651MOL0     H87843   2.178   8.210   2.930  2.1522 -0.7630 -1.1279
  651MOL0     H87844   2.156   8.110   2.780 -0.4377 -0.1035 -0.8228
  651MOL0     H87845   1.755   8.257   2.822  1.8335  0.2956  0.6654
  651MOL0     H87846   1.592   8.197   2.618 -0.7922  0.1933  3.0798
  651MOL0     H87847   1.760   7.913   2.052  0.6528  1.8689  0.7626
  651MOL0     H87848   1.577   7.841   1.877  0.4547 -0.3837  1.2948
  651MOL0     H87849   1.208   7.810   1.818  0.9596  1.6779 -1.4312
  651MOL0     H87850   1.347   7.723   1.878  0.4841  0.6460 -0.7202
  651MOL0     H87851   1.177   7.700   2.059 -1.2691  0.6752 -0.7796
  651MOL0     H87852   1.281   7.836   2.115  0.8560  1.1805 -1.8713
  651MOL0     H87853   1.083   7.932   2.137  0.2117 -0.3103 -0.1795
  651MOL0     H87854   1.111   7.990   1.981 -0.4120  0.6164 -0.0316
  651MOL0     H87855   0.933   7.734   2.032  3.0419 -2.3656 -0.2810
  651MOL0     H87856   0.980   7.789   1.874  0.2799 -1.2803 -0.6028
  651MOL0     H87857   0.892   8.023   1.937 -0.9127 -0.3707  0.0839
  651MOL0     H87858   0.818   7.953   2.081  2.0761  0.0271  0.7085
  651MOL0     H87859   0.768   7.888   1.791  0.4157  0.9951  0.4415
  651MOL0     H87860   0.688   7.797   1.919 -0.4753 -0.0609 -1.5678
  651MOL0     H87861   0.562   8.014   1.826 -0.6586  1.1608  0.1038
  651MOL0     H87862   0.693   8.102   1.913  3.0331 -1.8862  0.7290
  651MOL0     H87863   0.505   7.895   2.027 -1.3363  0.3890 -0.6221
  651MOL0     H87864   0.589   8.000   2.135 -0.2457  1.0281 -0.1423
  651MOL0     H87865   1.319   8.131   2.032 -1.4354 -3.7751 -2.0205
  651MOL0     H87866   1.486   8.223   2.181  1.7989 -0.5817  1.2646
  651MOL0     H87867   1.944   8.098   2.393 -0.0051  0.6193 -1.1836
  651MOL0     H87868   2.077   8.179   2.542  0.0688  1.0876 -0.2330
  651MOL0     H87869   1.408   8.594   3.465 -0.3996 -0.8041 -0.2978
  651MOL0     H87870   1.183   8.635   3.466  2.7717 -3.0208  0.3501
  651MOL0     H87871   0.800   8.676   3.269  0.4111  0.6742  1.4212
  651MOL0     H87872   0.566   8.674   3.254 -0.3477  0.8749  1.0692
  651MOL0     H87873   0.387   8.666   3.411 -4.6825  0.1817  2.5319
  651MOL0     H87874   0.356   8.684   3.243  5.1217 -1.4132 -0.0882
  651MOL0     H87875   0.157   8.829   3.307  1.3989  1.3171 -0.7218
  651MOL0     H87876   0.202   8.801   3.477  0.0229 -1.2147  0.3997
  651MOL0     H87877   0.122   8.569   3.473  0.6418 -0.3947 -0.3577
  651MOL0     H87878   0.175   8.554   3.302  3.0640  1.8584 -0.5723
  651MOL0     H87879  -0.034   8.701   3.258  0.2682 -0.3393  0.2266
  651MOL0     H87880  -0.060   8.533   3.327 -2.3860  0.8180 -0.3229
  651MOL0     H87881  -0.244   8.795   3.594  1.2968 -1.8686  2.0798
  651MOL0     H87882   0.549   9.068   3.397 -0.1552 -1.0454  0.4973
  651MOL0     H87883   0.884   9.124   3.468  1.1418 -1.6414 -1.6016
  651MOL0     H87884   0.859   9.192   3.312 -0.4082  1.2303  0.7827
  651MOL0     H87885   0.730   9.195   3.436  1.8091  2.9079  0.2712
  652MOL0     O87886  10.924   8.155   4.647  1.2346  0.1966  0.0175
  652MOL0     C87887  10.880   8.221   4.556  0.0628 -0.4666  0.2422
  652MOL0     O87888  10.953   8.320   4.490 -0.1438 -0.0658  0.8841
  652MOL0     C87889  11.091   8.318   4.480 -0.8319  0.0806 -0.2804
  652MOL0     C87890  11.152   8.434   4.454 -0.7047  0.0658  0.8911
  652MOL0     C87891  11.291   8.444   4.425  0.2919 -0.4799  0.1525
  652MOL0     C87892  11.367   8.333   4.416  0.0489  0.4280  0.3783
  652MOL0     O87893  11.499   8.353   4.384  0.3638 -0.5539 -0.1173
  652MOL0     C87894  11.547   8.287   4.271  0.1987 -0.3490 -0.2075
  652MOL0     C87895  11.668   8.366   4.219 -0.6615 -0.7646 -0.3458
  652MOL0     C87896  11.778   8.288   4.162 -0.4095  0.0207 -1.2264
  652MOL0     C87897  11.733   8.194   4.047 -0.0231  0.6415 -0.7764
  652MOL0     C87898  11.845   8.105   3.999  0.3656  0.3140  0.2763
  652MOL0     C87899  11.969   8.191   3.973 -0.4338 -0.4162 -0.7576
  652MOL0     C87900  12.070   8.126   3.879  0.7801  0.1749 -0.4471
  652MOL0     C87901  12.190   8.195   3.839  0.5030 -0.7479  0.0779
  652MOL0     N87902  12.287   8.208   3.947 -0.4474  0.2732  0.3721
  652MOL0     C87903  12.406   8.137   3.962 -0.0178 -0.6002  0.2253
  652MOL0     C87904  12.464   8.185   4.069 -1.0832 -1.1168 -0.0930
  652MOL0     C87905  12.585   8.134   4.140  0.3440 -0.2079 -0.2928
  652MOL0     C87906  12.574   8.118   4.293  0.1864  0.4717  0.0911
  652MOL0     C87907  12.695   8.032   4.335  0.4761 -0.4334 -0.1113
  652MOL0     C87908  12.697   8.002   4.480 -0.0797 -0.4671 -0.2880
  652MOL0     O87909  12.808   7.930   4.526  0.5445  0.5061  0.7497
  652MOL0     C87910  12.813   7.792   4.529 -0.2219 -0.5397  0.2199
  652MOL0     C87911  12.919   7.734   4.597  0.7895  0.1303  1.1441
  652MOL0     C87912  12.935   7.597   4.621  1.0149  0.0593 -0.5701
  652MOL0     C87913  12.846   7.513   4.555  0.8187 -0.2738 -0.5634
  652MOL0     C87914  12.863   7.372   4.570  0.4005  0.4921 -0.1764
  652MOL0     O87915  12.978   7.325   4.635  0.2285  0.3918  0.3804
  652MOL0     C87916  13.001   7.190   4.654 -0.2186  0.0124  0.0211
  652MOL0     C87917  12.928   7.080   4.612 -0.2896 -0.0153 -0.4132
  652MOL0     C87918  12.983   6.954   4.621 -0.1106 -0.1132  0.5749
  652MOL0     C87919  13.102   6.925   4.685 -0.1355  0.0412 -0.2987
  652MOL0     O87920  13.137   6.791   4.692 -0.4405 -0.0604 -0.0594
  652MOL0     C87921  13.185   6.748   4.824  0.4244 -0.5963  0.1058
  652MOL0     C87922  13.196   6.598   4.843 -0.0502 -0.8160  0.3997
  652MOL0     C87923  13.052   6.549   4.812 -0.2006  1.6089  0.0693
  652MOL0     C87924  13.069   6.393   4.842  0.3408  1.2021 -0.5062
  652MOL0     C87925  12.935   6.318   4.834  0.1075  0.0606 -0.1858
  652MOL0     C87926  12.942   6.169   4.860 -0.1934 -0.5806  0.2888
  652MOL0     C87927  12.819   6.088   4.813 -0.1822  0.3206  0.6767
  652MOL0     C87928  12.841   5.941   4.853  0.5594 -0.0039  0.1897
  652MOL0    Cl87929  12.690   5.851   4.817  0.1426  0.4131 -0.5060
  652MOL0     C87930  13.182   7.030   4.731 -0.5617 -0.2895  0.4823
  652MOL0     C87931  13.119   7.160   4.727  0.2239  0.0903  0.7016
  652MOL0     O87932  12.770   7.301   4.529 -0.3725 -0.3600 -0.0554
  652MOL0     C87933  12.745   7.566   4.481  0.1890  0.5712  0.0713
  652MOL0     C87934  12.722   7.701   4.469 -0.0759  0.3104  0.1178
  652MOL0     N87935  12.396   8.297   4.107 -0.0149  0.3856  0.2952
  652MOL0     N87936  12.301   8.323   4.019 -0.8034 -0.2044 -0.8374
  652MOL0     C87937  11.307   8.206   4.437  0.3002 -0.4481  0.4612
  652MOL0     C87938  11.169   8.203   4.469  0.1916  0.5709  0.3544
  652MOL0     C87939  10.740   8.197   4.539  0.4629 -0.5280  0.4245
  652MOL0     C87940  10.650   8.220   4.646 -0.3158  1.4537  0.0368
  652MOL0     C87941  10.517   8.178   4.634  0.0164 -0.2479  1.0319
  652MOL0     C87942  10.473   8.124   4.516 -0.0470 -0.0501  0.4089
  652MOL0     O87943  10.347   8.081   4.483  0.1680 -0.4087  0.0061
  652MOL0     C87944  10.244   8.073   4.578  0.1253 -0.2350 -0.6617
  652MOL0     C87945  10.115   8.045   4.502 -0.5766  0.6659 -0.4628
  652MOL0     C87946  10.024   8.167   4.508 -0.3163 -0.2318  0.4612
  652MOL0     C87947  10.066   8.282   4.413  0.7977  0.3008  0.9052
  652MOL0     C87948  10.009   8.413   4.455  0.1732  0.2095  0.2106
  652MOL0     C87949   9.979   8.526   4.491  0.6971  0.6993 -0.3408
  652MOL0     C87950  10.562   8.124   4.405 -0.7320 -0.3825  0.7880
  652MOL0     C87951  10.690   8.161   4.414 -0.6002 -0.2509  0.0398
  652MOL0     C87952  10.785   8.153   4.294 -0.0682 -0.2267  0.4001
  652MOL0     H87953  11.097   8.528   4.458  0.7206  0.9256  1.0193
  652MOL0     H87954  11.333   8.544   4.421 -0.3368 -0.2488 -1.2225
  652MOL0     H87955  11.575   8.187   4.306  3.0833  0.6846  0.7379
  652MOL0     H87956  11.475   8.278   4.190  0.1896  1.7643 -0.4887
  652MOL0     H87957  11.701   8.433   4.299 -0.3791 -0.0439 -1.0510
  652MOL0     H87958  11.640   8.432   4.137 -0.1910  0.2491  0.2824
  652MOL0     H87959  11.824   8.223   4.237 -1.1903 -1.3729 -1.9236
  652MOL0     H87960  11.855   8.357   4.126  2.5408 -2.8925 -1.0306
  652MOL0     H87961  11.652   8.132   4.089 -0.1683  2.2196  1.4506
  652MOL0     H87962  11.686   8.253   3.967 -1.0230  0.6301 -0.2176
  652MOL0     H87963  11.873   8.029   4.072 -1.7783  0.3570  1.2110
  652MOL0     H87964  11.813   8.057   3.906  1.2340 -1.2170  0.7435
  652MOL0     H87965  11.950   8.290   3.930  0.7745 -0.0951 -0.5883
  652MOL0     H87966  12.020   8.211   4.068  2.4458 -0.8610 -2.0993
  652MOL0     H87967  12.012   8.088   3.794 -0.8646 -0.0874  0.7515
  652MOL0     H87968  12.089   8.035   3.935 -3.1594  0.0800  1.0423
  652MOL0     H87969  12.235   8.163   3.744  1.8609  3.0346 -0.7423
  652MOL0     H87970  12.164   8.297   3.809  1.6545  0.5659  3.1626
  652MOL0     H87971  12.449   8.056   3.903  1.6606 -0.0697  0.6744
  652MOL0     H87972  12.606   8.039   4.089 -0.5625  0.1564 -1.3979
  652MOL0     H87973  12.672   8.201   4.126  1.8085 -1.5838  1.6836
  652MOL0     H87974  12.575   8.214   4.345  2.3467  0.2467  0.5220
  652MOL0     H87975  12.484   8.066   4.328  0.5325 -0.0308  0.2472
  652MOL0     H87976  12.783   8.080   4.291  0.4921  0.6112  1.0275
  652MOL0     H87977  12.684   7.935   4.286  2.1183 -0.6113 -0.1746
  652MOL0     H87978  12.610   7.942   4.507  0.9480 -1.7185  0.3931
  652MOL0     H87979  12.677   8.086   4.547 -0.9464 -0.7437 -0.1840
  652MOL0     H87980  12.987   7.810   4.634 -0.8163  2.4455 -0.3534
  652MOL0     H87981  13.022   7.569   4.679  0.2074  0.8224  1.0527
  652MOL0     H87982  12.831   7.085   4.564 -1.6875 -0.6623  2.1671
  652MOL0     H87983  12.924   6.869   4.587 -2.7000  2.0867 -0.8678
  652MOL0     H87984  13.274   6.809   4.844 -1.0868  1.0109  2.5396
  652MOL0     H87985  13.118   6.788   4.901  0.1921  4.1986 -2.1524
  652MOL0     H87986  13.278   6.550   4.791 -0.9043  1.5199 -3.4879
  652MOL0     H87987  13.212   6.578   4.950  4.0620  0.4161  0.1732
  652MOL0     H87988  12.978   6.576   4.888 -2.7769 -2.8885 -0.4665
  652MOL0     H87989  13.019   6.560   4.709 -1.2864  0.0405  0.2130
  652MOL0     H87990  13.106   6.389   4.944  1.7721 -1.3467 -1.0431
  652MOL0     H87991  13.138   6.349   4.769  1.0606  1.8032 -0.2019
  652MOL0     H87992  12.883   6.331   4.739  0.5723  0.2772 -0.4138
  652MOL0     H87993  12.865   6.353   4.911 -1.8710 -2.5318 -0.6452
  652MOL0     H87994  13.022   6.129   4.798 -1.3523  0.8566 -2.2786
  652MOL0     H87995  12.964   6.151   4.966 -3.2053 -2.1740  0.7593
  652MOL0     H87996  12.816   6.091   4.704  0.9290 -1.0203  0.5825
  652MOL0     H87997  12.724   6.123   4.855 -2.7851 -2.0320 -2.7276
  652MOL0     H87998  12.926   5.896   4.799  1.1391 -0.2450  1.2788
  652MOL0     H87999  12.855   5.948   4.961 -1.9446  0.4465  0.5335
  652MOL0     H88000  13.274   7.013   4.785 -0.7429  0.1316  0.9304
  652MOL0     H88001  13.170   7.248   4.762 -1.9289  2.4167 -1.5136
  652MOL0     H88002  12.671   7.498   4.439  0.2359  0.1422  0.6691
  652MOL0     H88003  12.643   7.738   4.404 -1.2611 -0.4352  1.0853
  652MOL0     H88004  11.349   8.107   4.428 -1.5869 -1.3215  0.6728
  652MOL0     H88005  11.131   8.102   4.479  0.8838  0.1143 -1.2438
  652MOL0     H88006  10.679   8.270   4.738  0.6175  0.1485  0.4738
  652MOL0     H88007  10.458   8.193   4.724 -2.9402 -0.6822 -0.6978
  652MOL0     H88008  10.249   8.171   4.625 -0.1037  0.7211 -2.5223
  652MOL0     H88009  10.256   7.992   4.650  0.0689 -1.7544 -2.2715
  652MOL0     H88010  10.065   7.956   4.541  0.3338 -0.2938 -1.4308
  652MOL0     H88011  10.144   8.005   4.404  0.9758 -0.6470  0.4716
  652MOL0     H88012  10.013   8.213   4.607  2.3237 -0.3346  0.8838
  652MOL0     H88013   9.925   8.128   4.483  0.0191 -1.5872  1.1485
  652MOL0     H88014  10.174   8.301   4.424  0.9791  1.1099 -1.6733
  652MOL0     H88015  10.039   8.261   4.310 -0.8013 -0.0788  1.3817
  652MOL0     H88016   9.950   8.627   4.512  1.7390  1.3138 -1.6543
  652MOL0     H88017  10.526   8.112   4.303  0.0463  1.1515  0.2929
  652MOL0     H88018  10.826   8.254   4.283 -1.6351  0.3363 -0.6590
  652MOL0     H88019  10.855   8.073   4.321  0.2660 -0.7733 -1.8712
  652MOL0     H88020  10.737   8.118   4.202  1.0452  1.1002 -0.7322
  653MOL0     O88021   5.262   9.440   1.584  0.5951 -0.2966 -0.3308
  653MOL0     C88022   5.167   9.506   1.535  0.0655 -0.6078  0.8081
  653MOL0     O88023   5.173   9.634   1.480  0.2567  0.3234 -0.2736
  653MOL0     C88024   5.301   9.678   1.470 -0.6841  0.1128 -0.0969
  653MOL0     C88025   5.374   9.734   1.580 -0.2401 -0.3713 -0.5281
  653MOL0     C88026   5.504   9.778   1.566 -0.3577  0.3239  0.6851
  653MOL0     C88027   5.570   9.774   1.442  0.8399 -0.3368 -0.2988
  653MOL0     O88028   5.707   9.807   1.428  0.4201  0.2795 -0.6950
  653MOL0     C88029   5.792   9.742   1.527 -1.6408  0.1312  0.3086
  653MOL0     C88030   5.931   9.816   1.531 -0.3770  0.5287  0.5724
  653MOL0     C88031   6.016   9.786   1.402  0.7234 -0.0083 -0.6092
  653MOL0     C88032   6.137   9.866   1.409 -0.6408  0.1276 -0.4299
  653MOL0     C88033   6.240   9.820   1.512  0.2971 -0.3400 -0.5812
  653MOL0     C88034   6.367   9.899   1.475 -0.8443  0.3735  0.0262
  653MOL0     C88035   6.486   9.851   1.556  0.4263 -0.9335  0.1784
  653MOL0     C88036   6.592   9.953   1.553  0.2461  0.1449  0.4581
  653MOL0     N88037   6.710   9.903   1.620  0.0646  0.4170  0.1850
  653MOL0     C88038   6.722   9.883   1.754  0.3403 -0.1553  0.1080
  653MOL0     C88039   6.833   9.821   1.778 -0.0449 -0.0728  0.7830
  653MOL0     C88040   6.878   9.778   1.912 -0.5578  0.2543  0.1088
  653MOL0     C88041   7.026   9.723   1.934  0.2657  0.5533 -0.0511
  653MOL0     C88042   7.131   9.811   1.867  0.8128 -0.2266  0.3919
  653MOL0     C88043   7.247   9.839   1.953  0.1036  0.3625  1.0507
  653MOL0     O88044   7.355   9.888   1.870 -0.1974 -0.3981  0.4246
  653MOL0     C88045   7.479   9.910   1.929 -0.2276  0.4392  0.6145
  653MOL0     C88046   7.578   9.969   1.844 -0.1162 -0.5092 -0.4474
  653MOL0     C88047   7.702   9.999   1.905 -0.5298  0.5642  0.4705
  653MOL0     C88048   7.727   9.970   2.041  0.3250  0.3434  0.1469
  653MOL0     C88049   7.850  10.004   2.104  0.1249 -0.0965  0.1670
  653MOL0     O88050   7.959  10.001   2.020  0.6001  0.8005 -0.2433
  653MOL0     C88051   8.086  10.029   2.062  0.8956 -0.6235  0.1581
  653MOL0     C88052   8.139  10.005   2.188 -0.2270  0.2157 -0.1502
  653MOL0     C88053   8.268  10.047   2.207 -0.2242 -0.9575  0.2815
  653MOL0     C88054   8.355  10.098   2.106 -0.1195  0.3292 -0.1403
  653MOL0     O88055   8.492  10.130   2.136 -0.1493 -0.1029  0.3129
  653MOL0     C88056   8.562  10.231   2.057 -0.3421  0.4396 -0.9299
  653MOL0     C88057   8.691  10.239   2.127 -0.2134 -0.7061  0.3361
  653MOL0     C88058   8.794  10.313   2.035 -0.5546  0.7146 -0.3128
  653MOL0     C88059   8.918  10.358   2.116  0.0683 -0.1768  0.2143
  653MOL0     C88060   9.010  10.442   2.031 -0.1210  0.8119  0.0675
  653MOL0     C88061   9.143  10.462   2.100 -0.4663  0.2183 -0.1247
  653MOL0     C88062   9.244  10.543   2.015  0.3894 -0.1973 -0.6643
  653MOL0     C88063   9.320  10.492   1.884 -0.5361 -0.4055 -0.8008
  653MOL0    Cl88064   9.403  10.332   1.920  0.1765 -0.2631  0.2154
  653MOL0     C88065   8.296  10.113   1.984  0.2332  0.3439  0.2562
  653MOL0     C88066   8.164  10.090   1.964  0.5928  0.5341 -0.1197
  653MOL0     O88067   7.844  10.046   2.219 -0.9410 -0.1823 -0.6583
  653MOL0     C88068   7.630   9.897   2.116  0.4971 -0.7690  0.3569
  653MOL0     C88069   7.508   9.868   2.059 -0.6912  0.7816 -0.4156
  653MOL0     N88070   6.890   9.798   1.656  0.3079 -0.0877 -0.3406
  653MOL0     N88071   6.812   9.839   1.561 -0.0437 -0.6136 -0.4444
  653MOL0     C88072   5.504   9.724   1.327  0.3014  0.5468 -0.6294
  653MOL0     C88073   5.373   9.679   1.346  0.5338  0.5840  0.3907
  653MOL0     C88074   5.037   9.447   1.548  0.0535  0.9881 -0.0092
  653MOL0     C88075   5.007   9.399   1.681  0.5081  1.0821  0.5015
  653MOL0     C88076   4.875   9.364   1.721 -0.1340  1.1257  0.6430
  653MOL0     C88077   4.775   9.361   1.624  0.4765  0.9225  0.6981
  653MOL0     O88078   4.652   9.323   1.675  0.1295  0.7361  0.2649
  653MOL0     C88079   4.528   9.350   1.593 -0.7660  0.4020 -0.3774
  653MOL0     C88080   4.498   9.239   1.494 -0.5521  0.4115  0.4766
  653MOL0     C88081   4.433   9.136   1.570  0.2177 -0.6031  0.9850
  653MOL0     C88082   4.403   9.013   1.477  0.7919 -0.4552  0.2459
  653MOL0     C88083   4.320   8.924   1.557  0.5145  0.5120 -0.5282
  653MOL0     C88084   4.262   8.843   1.630  0.1333 -0.0135  0.0043
  653MOL0     C88085   4.810   9.408   1.492 -0.2075  0.5985  0.0105
  653MOL0     C88086   4.939   9.442   1.454 -0.1262 -0.8039 -0.5289
  653MOL0     C88087   4.966   9.485   1.306 -0.0303  0.3147 -0.1090
  653MOL0     H88088   5.322   9.754   1.673  1.4147  0.6030  0.2311
  653MOL0     H88089   5.545   9.828   1.653 -1.3740 -2.6622  3.0782
  653MOL0     H88090   5.747   9.745   1.627 -1.0211 -0.0563  0.5959
  653MOL0     H88091   5.823   9.642   1.496  0.5844  0.8438  0.0242
  653MOL0     H88092   5.977   9.758   1.612 -1.5682  1.3387  1.8646
  653MOL0     H88093   5.928   9.923   1.553  1.8979  0.7651 -0.0448
  653MOL0     H88094   5.955   9.809   1.314  0.2055 -1.1620 -0.5795
  653MOL0     H88095   6.046   9.681   1.402  0.2224 -0.3199  3.5805
  653MOL0     H88096   6.182   9.876   1.310 -1.3035  1.6990 -0.5982
  653MOL0     H88097   6.109   9.969   1.435 -0.6232 -0.4124  1.9534
  653MOL0     H88098   6.207   9.839   1.615 -1.5331  0.0725 -1.2180
  653MOL0     H88099   6.256   9.712   1.511  0.4942 -0.3169 -1.7217
  653MOL0     H88100   6.392   9.891   1.369 -1.4407  0.9287 -0.1600
  653MOL0     H88101   6.366  10.008   1.485  1.4523  1.0858 -4.6609
  653MOL0     H88102   6.530   9.766   1.503  1.6157 -0.4123  0.3104
  653MOL0     H88103   6.461   9.832   1.661  1.7871  0.4728  0.8004
  653MOL0     H88104   6.618   9.976   1.450  3.8163  3.2149  1.8260
  653MOL0     H88105   6.549  10.041   1.602 -3.1309 -1.2189  0.2653
  653MOL0     H88106   6.641   9.907   1.822 -2.8295 -0.1908 -3.3264
  653MOL0     H88107   6.866   9.866   1.977 -1.2163  0.8432 -0.7974
  653MOL0     H88108   6.813   9.699   1.952 -0.4855  0.5324  0.7990
  653MOL0     H88109   7.042   9.733   2.042  0.5051  2.5414 -0.2254
  653MOL0     H88110   7.020   9.618   1.903 -1.1689  0.3354  0.8832
  653MOL0     H88111   7.086   9.908   1.844  0.4694 -0.4323  0.1906
  653MOL0     H88112   7.162   9.767   1.773  1.0401 -0.0215  0.3692
  653MOL0     H88113   7.279   9.740   1.986  2.0210  0.2386 -0.9507
  653MOL0     H88114   7.227   9.903   2.039 -0.4179 -0.0156  1.2195
  653MOL0     H88115   7.564   9.996   1.740 -1.7760  3.2273  0.5839
  653MOL0     H88116   7.768  10.043   1.831 -2.9223  2.2271 -0.7988
  653MOL0     H88117   8.077   9.957   2.262 -2.8783 -2.2897 -3.6391
  653MOL0     H88118   8.308  10.035   2.307 -1.0666  1.6754  1.0046
  653MOL0     H88119   8.577  10.202   1.952 -1.3519 -1.3459 -0.6306
  653MOL0     H88120   8.511  10.327   2.056 -1.2026 -0.0099 -1.2332
  653MOL0     H88121   8.679  10.296   2.219  0.2717  0.1528 -0.1144
  653MOL0     H88122   8.724  10.140   2.161  1.3390  0.3497  2.1272
  653MOL0     H88123   8.832  10.241   1.962  0.6404 -0.2825  1.2484
  653MOL0     H88124   8.751  10.397   1.979 -2.3133  0.4645  0.5929
  653MOL0     H88125   8.967  10.262   2.138 -0.8958 -1.1930 -1.7695
  653MOL0     H88126   8.886  10.415   2.203 -1.7052 -0.5792 -0.1306
  653MOL0     H88127   8.965  10.540   2.011  1.0321  1.0566 -1.5187
  653MOL0     H88128   9.022  10.391   1.935  1.7213 -2.4581  1.8627
  653MOL0     H88129   9.115  10.520   2.189 -0.9081  2.0000 -1.3817
  653MOL0     H88130   9.188  10.373   2.145  2.0199  2.5199  2.3171
  653MOL0     H88131   9.321  10.572   2.086 -0.5023  2.7258 -0.7485
  653MOL0     H88132   9.190  10.635   1.988 -1.1561 -0.4452  1.3519
  653MOL0     H88133   9.249  10.469   1.804  0.6313 -1.7839 -1.4737
  653MOL0     H88134   9.391  10.562   1.840 -0.1658 -0.3357 -0.1088
  653MOL0     H88135   8.347  10.151   1.895  1.8254 -0.6242  0.7026
  653MOL0     H88136   8.131  10.116   1.864 -2.3247 -0.9382  0.3332
  653MOL0     H88137   7.641   9.886   2.224  3.4524  1.8263  0.4826
  653MOL0     H88138   7.440   9.809   2.119 -2.0827  1.5119 -1.2331
  653MOL0     H88139   5.552   9.724   1.230 -0.1095 -0.8131 -0.8404
  653MOL0     H88140   5.317   9.658   1.256  1.8609 -0.0073 -0.3262
  653MOL0     H88141   5.086   9.393   1.755  0.7943  1.5461  0.2402
  653MOL0     H88142   4.851   9.330   1.821 -1.4786 -2.9273 -0.8229
  653MOL0     H88143   4.543   9.441   1.535  0.4741  0.9022  0.6791
  653MOL0     H88144   4.441   9.359   1.658  0.1921 -0.6839  1.1373
  653MOL0     H88145   4.590   9.210   1.443  1.0408  3.9694  1.0538
  653MOL0     H88146   4.421   9.283   1.429 -2.0029  2.3685  3.3011
  653MOL0     H88147   4.332   9.164   1.601 -0.2246 -1.6709  0.5306
  653MOL0     H88148   4.486   9.108   1.662  0.0930 -1.5678  0.7665
  653MOL0     H88149   4.345   9.032   1.387 -1.1210 -1.0218  1.3176
  653MOL0     H88150   4.505   8.980   1.452  2.3925  0.8470  4.2178
  653MOL0     H88151   4.220   8.762   1.686 -0.4259  1.7716  2.2972
  653MOL0     H88152   4.734   9.414   1.415 -2.1414 -0.2916  1.7452
  653MOL0     H88153   5.024   9.412   1.248 -1.0379 -1.0577  0.5512
  653MOL0     H88154   4.876   9.498   1.246 -0.1289  2.2139  0.3994
  653MOL0     H88155   5.020   9.580   1.303 -1.9166  1.4520  0.5336
  654MOL0     O88156   0.345   9.915   7.061  1.0907  0.5104 -0.3944
  654MOL0     C88157   0.221   9.920   7.081 -0.2122 -0.1842 -0.0321
  654MOL0     O88158   0.158   9.981   7.191 -0.2201 -0.4203  0.5056
  654MOL0     C88159   0.236  10.048   7.279 -0.1498  0.7753  0.4637
  654MOL0     C88160   0.313   9.977   7.371  0.2025  0.8398  0.0262
  654MOL0     C88161   0.382  10.051   7.466 -0.7159 -0.3297  0.0826
  654MOL0     C88162   0.397  10.192   7.462 -0.6868 -0.4287 -0.5085
  654MOL0     O88163   0.480  10.272   7.534  0.2822  1.0896  0.4079
  654MOL0     C88164   0.564  10.214   7.636 -0.1565 -0.2030  0.3918
  654MOL0     C88165   0.680  10.306   7.669  0.0114 -0.1471  0.0308
  654MOL0     C88166   0.780  10.318   7.558  0.5196  0.4755 -0.1382
  654MOL0     C88167   0.895  10.400   7.599 -0.5453  0.4363  1.0670
  654MOL0     C88168   1.009  10.411   7.494 -0.2303 -0.0587  0.5346
  654MOL0     C88169   1.132  10.468   7.550  0.9851  0.5853 -0.3650
  654MOL0     C88170   1.113  10.609   7.605  0.4757  0.2152 -0.3182
  654MOL0     C88171   1.228  10.650   7.698  0.4501 -0.2929  0.6550
  654MOL0     N88172   1.359  10.640   7.620 -0.0103 -1.2473 -1.1244
  654MOL0     C88173   1.389  10.709   7.501 -0.4469 -0.2759 -0.4080
  654MOL0     C88174   1.525  10.699   7.499 -0.2033 -0.1511  0.4107
  654MOL0     C88175   1.608  10.756   7.390  0.1730 -0.5595 -0.5322
  654MOL0     C88176   1.750  10.688   7.374 -0.1659 -0.2524 -0.1287
  654MOL0     C88177   1.844  10.763   7.467  0.4053 -0.0223  0.3144
  654MOL0     C88178   1.990  10.734   7.431 -0.1321 -1.4389 -0.9926
  654MOL0     O88179   2.020  10.598   7.427  0.1418 -0.9548  0.1439
  654MOL0     C88180   2.148  10.572   7.369 -0.1289  0.5050  0.2008
  654MOL0     C88181   2.148  10.453   7.298 -0.6950  0.0346 -0.3283
  654MOL0     C88182   2.269  10.406   7.249 -0.0430 -0.5742  0.0743
  654MOL0     C88183   2.386  10.482   7.259 -0.5204  0.0530 -0.6802
  654MOL0     C88184   2.513  10.422   7.201 -0.1528  0.2434  0.4001
  654MOL0     O88185   2.625  10.492   7.232  0.1731  1.1141  0.3232
  654MOL0     C88186   2.740  10.437   7.204 -0.5712  0.2926  0.7598
  654MOL0     C88187   2.791  10.307   7.250  0.3271 -0.1927  0.0202
  654MOL0     C88188   2.920  10.272   7.228 -0.3877  0.4245 -0.0349
  654MOL0     C88189   3.005  10.347   7.151 -0.3485  0.5286 -0.0300
  654MOL0     O88190   3.137  10.300   7.136  0.5508  0.1946  0.3846
  654MOL0     C88191   3.206  10.339   7.016  0.4497  0.0014 -0.5191
  654MOL0     C88192   3.343  10.266   7.020  0.2612 -0.7106  0.4311
  654MOL0     C88193   3.434  10.281   6.896  0.5765  0.3065 -0.1463
  654MOL0     C88194   3.572  10.221   6.921 -0.0682  0.2722 -0.1788
  654MOL0     C88195   3.649  10.203   6.785  0.4486 -0.7943  0.3727
  654MOL0     C88196   3.763  10.112   6.817 -0.0457  0.1359  0.1315
  654MOL0     C88197   3.848  10.096   6.687  1.0231 -0.2841  0.5740
  654MOL0     C88198   3.962  10.003   6.706  0.0519 -0.0139  0.5963
  654MOL0    Cl88199   3.908   9.837   6.710  0.0243  0.3572  0.2972
  654MOL0     C88200   2.955  10.461   7.097 -1.4133 -1.1773 -0.3056
  654MOL0     C88201   2.829  10.515   7.121  0.1638  0.2008 -0.1393
  654MOL0     O88202   2.505  10.331   7.125  0.0726 -0.0027 -0.1845
  654MOL0     C88203   2.386  10.602   7.335 -0.3896  0.5107 -0.0652
  654MOL0     C88204   2.266  10.644   7.389  0.1641 -0.8008  0.0167
  654MOL0     N88205   1.566  10.615   7.600 -0.0027 -0.2803  1.2368
  654MOL0     N88206   1.467  10.579   7.676 -1.1039  0.6154  0.5663
  654MOL0     C88207   0.311  10.260   7.375 -0.7536 -0.1167  0.2674
  654MOL0     C88208   0.233  10.189   7.282 -0.5473  0.1636 -0.8441
  654MOL0     C88209   0.129   9.872   6.978 -0.4507  0.1163 -0.5382
  654MOL0     C88210  -0.001   9.842   7.028 -0.1538 -0.0172  0.1268
  654MOL0     C88211  -0.103   9.790   6.950 -0.3169 -0.0936 -0.1574
  654MOL0     C88212  -0.084   9.783   6.811  0.6233 -0.0191 -0.4886
  654MOL0     O88213  -0.197   9.759   6.733 -0.2488  1.0025  0.7255
  654MOL0     C88214  -0.330   9.739   6.791  0.1577 -0.0063  0.3218
  654MOL0     C88215  -0.424   9.719   6.680 -0.1378 -0.9079  1.3085
  654MOL0     C88216  -0.564   9.666   6.733  0.5711 -0.4765 -0.3334
  654MOL0     C88217  -0.634   9.604   6.613 -0.2378  1.0661  0.0486
  654MOL0     C88218  -0.747   9.533   6.654  0.6230 -0.2928  0.3640
  654MOL0     C88219  -0.860   9.477   6.679 -0.0718 -0.2557  0.2228
  654MOL0     C88220   0.032   9.819   6.762 -0.3609  0.6815 -0.5062
  654MOL0     C88221   0.144   9.858   6.838  0.2064  0.5153  0.1745
  654MOL0     C88222   0.263   9.903   6.764  0.1591 -0.4994  0.0741
  654MOL0     H88223   0.304   9.870   7.353  2.2651  0.3793  1.4368
  654MOL0     H88224   0.430   9.991   7.543 -0.4585  0.4379  0.5250
  654MOL0     H88225   0.506  10.196   7.727  0.5965 -4.0450  0.2785
  654MOL0     H88226   0.594  10.112   7.608 -0.7702 -0.8892  2.1271
  654MOL0     H88227   0.728  10.274   7.762  2.6564 -1.4637 -1.6596
  654MOL0     H88228   0.635  10.406   7.677 -4.1686 -1.7739 -0.3762
  654MOL0     H88229   0.728  10.358   7.471 -3.5810  1.3746  2.4700
  654MOL0     H88230   0.826  10.220   7.537  0.4345 -0.3311  3.0056
  654MOL0     H88231   0.858  10.499   7.628 -2.4072  0.9594 -2.5151
  654MOL0     H88232   0.930  10.365   7.696  0.0657  0.0835  0.7251
  654MOL0     H88233   1.043  10.313   7.456  3.8605  0.8175  1.4745
  654MOL0     H88234   0.973  10.467   7.407  1.6261 -1.2625 -1.1006
  654MOL0     H88235   1.163  10.400   7.630 -1.4761  1.3063  1.3608
  654MOL0     H88236   1.214  10.471   7.479 -1.1168  0.9958 -2.9428
  654MOL0     H88237   1.023  10.613   7.667  1.0713  0.7486  0.5268
  654MOL0     H88238   1.094  10.681   7.524  1.2869 -2.1853 -2.7879
  654MOL0     H88239   1.216  10.749   7.743 -2.4317 -1.2757  2.3010
  654MOL0     H88240   1.230  10.576   7.778  1.7627  0.6103  1.4954
  654MOL0     H88241   1.336  10.781   7.439  2.4122  3.0715  0.6585
  654MOL0     H88242   1.560  10.733   7.295  0.4752  2.1134 -1.4218
  654MOL0     H88243   1.614  10.865   7.403 -3.5948 -0.3617  0.8380
  654MOL0     H88244   1.740  10.583   7.404 -0.1508 -1.3113 -3.4604
  654MOL0     H88245   1.782  10.706   7.272  0.1684 -1.5563 -0.2767
  654MOL0     H88246   1.842  10.740   7.574  0.4719  0.7296  0.4816
  654MOL0     H88247   1.823  10.870   7.465 -0.1388 -0.1119 -2.3386
  654MOL0     H88248   2.052  10.767   7.515 -0.6264  2.5505 -2.0016
  654MOL0     H88249   2.019  10.794   7.344 -1.2612  0.1851 -0.2990
  654MOL0     H88250   2.055  10.398   7.289 -1.1454  0.6982  0.1568
  654MOL0     H88251   2.282  10.310   7.199  1.9060 -1.0593  1.3753
  654MOL0     H88252   2.729  10.242   7.310  0.8327 -0.1596  0.5847
  654MOL0     H88253   2.943  10.171   7.261  0.2258  0.1142 -1.3216
  654MOL0     H88254   3.148  10.319   6.926 -0.7683  1.2311 -0.0323
  654MOL0     H88255   3.228  10.446   7.010  1.4204 -0.1689 -0.1862
  654MOL0     H88256   3.395  10.301   7.110 -0.5406  0.0518  0.6055
  654MOL0     H88257   3.322  10.159   7.028  0.9943 -1.1281 -2.2039
  654MOL0     H88258   3.384  10.236   6.810  1.6866  0.7651 -1.0476
  654MOL0     H88259   3.446  10.386   6.868  0.6483  0.3918  0.2022
  654MOL0     H88260   3.573  10.122   6.967  0.5646  0.6113  0.5561
  654MOL0     H88261   3.629  10.280   6.993 -0.4180  1.8545 -1.1442
  654MOL0     H88262   3.681  10.305   6.763 -1.0823 -0.0906  1.2318
  654MOL0     H88263   3.587  10.168   6.702  2.3523  2.1845 -2.5340
  654MOL0     H88264   3.822  10.138   6.906  0.9450 -0.9003 -0.2019
  654MOL0     H88265   3.715  10.017   6.845 -3.2983  0.9917 -2.0852
  654MOL0     H88266   3.894  10.192   6.658  0.4245 -0.5423 -1.3463
  654MOL0     H88267   3.780  10.065   6.607  0.2405 -0.2638  1.2274
  654MOL0     H88268   4.008  10.012   6.607  2.3987 -1.2978  1.4713
  654MOL0     H88269   4.042  10.026   6.777  0.9380  1.6179 -0.8641
  654MOL0     H88270   3.027  10.517   7.038 -0.9514 -0.6355  0.7313
  654MOL0     H88271   2.793  10.613   7.092 -0.2727 -0.5715 -2.3991
  654MOL0     H88272   2.467  10.671   7.355 -0.4815  1.1436 -1.6873
  654MOL0     H88273   2.260  10.741   7.436  0.3283 -0.3094 -0.9437
  654MOL0     H88274   0.320  10.368   7.374 -0.9811 -0.0980 -0.0006
  654MOL0     H88275   0.180  10.251   7.211 -0.0842  1.5573  0.0011
  654MOL0     H88276  -0.041   9.851   7.128  0.7822  1.4233  0.4002
  654MOL0     H88277  -0.197   9.771   7.001  0.5943 -1.5296  1.0826
  654MOL0     H88278  -0.359   9.832   6.841  1.3633  1.0024 -0.7923
  654MOL0     H88279  -0.321   9.656   6.862  4.2898 -0.1951 -0.2135
  654MOL0     H88280  -0.390   9.637   6.618 -1.1240  0.8322 -1.7477
  654MOL0     H88281  -0.427   9.813   6.624  1.5677 -0.8917  1.2010
  654MOL0     H88282  -0.617   9.753   6.775  0.6053 -0.9267  0.6645
  654MOL0     H88283  -0.550   9.593   6.813 -0.6598 -0.3231  0.0462
  654MOL0     H88284  -0.675   9.683   6.549 -1.6440  0.8004  0.5907
  654MOL0     H88285  -0.565   9.540   6.558  1.4873  0.1711  3.0128
  654MOL0     H88286  -0.949   9.429   6.712  1.5454 -2.9019  1.0724
  654MOL0     H88287   0.032   9.827   6.653  0.2636  1.7741 -0.4421
  654MOL0     H88288   0.260   9.863   6.662  2.0215  1.0241 -0.6331
  654MOL0     H88289   0.260  10.012   6.768 -0.7572 -0.5058 -0.1715
  654MOL0     H88290   0.362   9.875   6.802  0.1079 -0.1276  0.4810
  655MOL0     O88291   1.480   4.835   2.083  0.8782 -0.2224  1.3359
  655MOL0     C88292   1.466   4.715   2.118  0.9435  0.1601 -0.6546
  655MOL0     O88293   1.512   4.608   2.055 -0.0431  0.7980 -0.1552
  655MOL0     C88294   1.623   4.588   1.972 -0.2064  0.2820 -1.1583
  655MOL0     C88295   1.702   4.691   1.918  0.2766 -0.0045  1.3988
  655MOL0     C88296   1.807   4.663   1.830  1.0127 -0.0881  0.9763
  655MOL0     C88297   1.832   4.531   1.790  0.2095 -0.6715 -0.2674
  655MOL0     O88298   1.944   4.489   1.721  0.4237  0.2203 -0.4504
  655MOL0     C88299   1.951   4.553   1.590 -0.3548 -0.1434 -0.6595
  655MOL0     C88300   2.091   4.517   1.537 -0.2313 -0.2036 -0.1171
  655MOL0     C88301   2.209   4.616   1.567  1.2715  0.2786  0.1344
  655MOL0     C88302   2.214   4.678   1.712 -0.2669 -0.9621 -0.0526
  655MOL0     C88303   2.363   4.706   1.760 -0.2071  1.0970  0.0450
  655MOL0     C88304   2.369   4.719   1.909  0.1356 -1.3506 -0.1917
  655MOL0     C88305   2.509   4.755   1.960  0.3359 -0.0995 -0.3851
  655MOL0     C88306   2.533   4.728   2.111  0.6805  0.3900  0.7134
  655MOL0     N88307   2.672   4.754   2.142  0.5985  0.4485 -0.2228
  655MOL0     C88308   2.725   4.873   2.170  0.0011 -0.7135 -0.2406
  655MOL0     C88309   2.855   4.848   2.202 -0.6274 -0.7460 -0.3715
  655MOL0     C88310   2.951   4.954   2.239 -0.4899 -0.1474 -0.1923
  655MOL0     C88311   3.073   4.895   2.303  1.3342 -0.4636 -0.0098
  655MOL0     C88312   3.168   5.010   2.330  1.0411  0.7948 -0.7692
  655MOL0     C88313   3.282   4.967   2.425 -0.6278  0.2829 -0.5596
  655MOL0     O88314   3.351   4.841   2.384 -0.1605 -0.1820 -0.3086
  655MOL0     C88315   3.475   4.810   2.442 -0.2592 -0.4951 -0.0908
  655MOL0     C88316   3.550   4.717   2.371 -0.2692 -0.4700  0.4823
  655MOL0     C88317   3.680   4.686   2.405  0.4314 -0.1069 -0.2638
  655MOL0     C88318   3.741   4.762   2.514 -0.0731 -0.5406  0.7145
  655MOL0     C88319   3.879   4.732   2.554 -0.3185 -0.6719 -0.2340
  655MOL0     O88320   3.948   4.641   2.476 -0.4015  0.4142 -0.2320
  655MOL0     C88321   4.080   4.604   2.516 -0.9137  0.7894 -0.0859
  655MOL0     C88322   4.114   4.485   2.586  0.2478 -0.2705 -0.3202
  655MOL0     C88323   4.242   4.449   2.626 -1.1908 -0.1135 -0.0400
  655MOL0     C88324   4.347   4.537   2.600 -0.3754  0.3008  0.8234
  655MOL0     O88325   4.471   4.521   2.638 -1.0867 -0.3612  0.4407
  655MOL0     C88326   4.514   4.394   2.694  0.1513  0.3348 -0.5947
  655MOL0     C88327   4.658   4.412   2.753  0.6012 -0.1600  0.4894
  655MOL0     C88328   4.733   4.275   2.775  0.4565 -0.1325  0.2026
  655MOL0     C88329   4.694   4.221   2.912 -1.0352 -0.3776 -0.9024
  655MOL0     C88330   4.764   4.090   2.956 -0.2543  0.6781 -0.4965
  655MOL0     C88331   4.911   4.122   2.975 -0.1430 -0.6942 -0.4621
  655MOL0     C88332   4.995   4.001   3.020  0.9080 -0.0634  0.0695
  655MOL0     C88333   5.008   3.891   2.915 -0.4665  0.6819  0.3773
  655MOL0    Cl88334   5.123   3.768   2.967 -0.2463  0.0864 -0.2095
  655MOL0     C88335   4.326   4.651   2.530 -0.3854  0.0482  0.1297
  655MOL0     C88336   4.195   4.683   2.484 -0.0212  0.2242 -0.5277
  655MOL0     O88337   3.923   4.784   2.654  0.4990 -0.0441 -0.0562
  655MOL0     C88338   3.661   4.863   2.578 -0.2689 -0.5592 -0.3097
  655MOL0     C88339   3.529   4.877   2.549  0.0103  0.8294 -0.2668
  655MOL0     N88340   2.875   4.713   2.200  0.3792  1.0776  0.0826
  655MOL0     N88341   2.766   4.655   2.154 -0.0815  0.8559 -0.4027
  655MOL0     C88342   1.764   4.428   1.851 -0.5586 -1.0517 -0.3929
  655MOL0     C88343   1.660   4.459   1.940 -0.5033 -0.2453  0.1331
  655MOL0     C88344   1.360   4.680   2.216 -0.1616  0.3336  0.2640
  655MOL0     C88345   1.312   4.552   2.229 -0.4548  0.4473  0.7573
  655MOL0     C88346   1.225   4.508   2.332 -0.4777 -0.7809 -0.0066
  655MOL0     C88347   1.173   4.596   2.415 -0.0324 -0.0543 -0.2054
  655MOL0     O88348   1.087   4.539   2.506  0.1559  0.3107 -0.2944
  655MOL0     C88349   1.059   4.601   2.639 -0.2309  1.3538  0.3605
  655MOL0     C88350   0.946   4.703   2.642 -0.0677  0.5858  0.1113
  655MOL0     C88351   0.816   4.632   2.630  0.9018 -0.4831  0.0299
  655MOL0     C88352   0.707   4.733   2.619  1.2960 -0.3952 -0.6054
  655MOL0     C88353   0.695   4.792   2.756  0.1937  0.3062  0.2677
  655MOL0     C88354   0.666   4.846   2.857  0.9082 -0.0627  0.5398
  655MOL0     C88355   1.212   4.734   2.407  0.0625  0.0511 -0.6773
  655MOL0     C88356   1.306   4.776   2.312 -0.3730  0.5214  0.4653
  655MOL0     C88357   1.370   4.911   2.340  0.0958 -0.2567  0.1870
  655MOL0     H88358   1.673   4.793   1.939  0.5295  0.6354 -1.0210
  655MOL0     H88359   1.870   4.746   1.801 -0.8896  0.0980 -3.3240
  655MOL0     H88360   1.873   4.511   1.527 -1.6157 -0.5549  1.0977
  655MOL0     H88361   1.946   4.662   1.599  0.6006 -0.0805 -0.7763
  655MOL0     H88362   2.099   4.505   1.429  1.2612  2.7058 -0.4532
  655MOL0     H88363   2.120   4.419   1.574  1.8377  0.6582  0.7248
  655MOL0     H88364   2.201   4.697   1.494  0.3766 -0.0247 -0.1158
  655MOL0     H88365   2.307   4.571   1.544  0.7689 -0.2779 -0.9856
  655MOL0     H88366   2.151   4.767   1.720  0.6275 -0.3349  0.0896
  655MOL0     H88367   2.164   4.607   1.780 -2.5333  1.6200  1.1711
  655MOL0     H88368   2.420   4.616   1.732 -1.4973  0.7889 -1.8024
  655MOL0     H88369   2.402   4.794   1.708 -0.5862 -0.2922 -2.8293
  655MOL0     H88370   2.296   4.793   1.943 -0.6892 -1.0683 -2.4302
  655MOL0     H88371   2.339   4.620   1.945  1.3434 -1.4156  0.7325
  655MOL0     H88372   2.536   4.859   1.937 -0.1496  0.2215  0.4683
  655MOL0     H88373   2.582   4.685   1.917  1.4156  1.0766 -0.5368
  655MOL0     H88374   2.462   4.782   2.174 -0.1683 -1.3279  1.2710
  655MOL0     H88375   2.505   4.626   2.138 -3.3114  0.9439 -0.7671
  655MOL0     H88376   2.672   4.967   2.156  2.6868  0.8068 -0.8732
  655MOL0     H88377   2.987   5.000   2.147 -0.4862  0.5808  0.1651
  655MOL0     H88378   2.914   5.033   2.306 -1.0494  0.3617 -1.0901
  655MOL0     H88379   3.036   4.841   2.390  0.6163 -1.8141 -1.1336
  655MOL0     H88380   3.123   4.826   2.235 -0.9512 -0.6506 -1.6193
  655MOL0     H88381   3.116   5.098   2.369 -0.4918 -0.1511 -0.6117
  655MOL0     H88382   3.201   5.041   2.230 -3.3123 -1.7778 -3.2966
  655MOL0     H88383   3.251   4.939   2.526  0.9981 -1.9892 -0.6320
  655MOL0     H88384   3.354   5.047   2.444 -0.8776  0.3314  0.2090
  655MOL0     H88385   3.512   4.675   2.279  2.4144 -0.8990 -0.5267
  655MOL0     H88386   3.731   4.612   2.345 -0.6406  0.3733 -1.8369
  655MOL0     H88387   4.035   4.418   2.617  0.8493  0.0128  1.9487
  655MOL0     H88388   4.265   4.348   2.659  1.8723  0.2670 -0.7814
  655MOL0     H88389   4.453   4.371   2.782 -0.0492 -1.1500 -1.0890
  655MOL0     H88390   4.518   4.316   2.617  0.3763 -0.1481 -0.0989
  655MOL0     H88391   4.715   4.465   2.677 -0.5374 -1.2576 -1.2087
  655MOL0     H88392   4.656   4.474   2.843 -0.3663  0.7494 -0.1413
  655MOL0     H88393   4.724   4.189   2.708  5.9041 -1.8280  1.1848
  655MOL0     H88394   4.840   4.294   2.783  0.7446 -2.3374  3.7344
  655MOL0     H88395   4.586   4.206   2.902 -1.1690  1.3420 -2.5904
  655MOL0     H88396   4.716   4.297   2.988 -1.2149 -0.4368 -0.7905
  655MOL0     H88397   4.740   4.024   2.871 -3.9416  0.1400  0.7618
  655MOL0     H88398   4.729   4.042   3.048  0.8283  0.9551  0.0669
  655MOL0     H88399   4.945   4.157   2.877 -1.0227  3.0947  0.4665
  655MOL0     H88400   4.920   4.202   3.049  0.4469  0.3867 -1.6634
  655MOL0     H88401   4.935   3.956   3.098 -0.9334  2.3869  0.1882
  655MOL0     H88402   5.087   4.041   3.064  0.3561  0.3796  0.8483
  655MOL0     H88403   4.914   3.841   2.888  0.4427 -0.0512 -1.6051
  655MOL0     H88404   5.050   3.933   2.823  0.4317 -0.5358  0.1993
  655MOL0     H88405   4.413   4.711   2.507 -1.0624  0.1927 -2.3350
  655MOL0     H88406   4.187   4.770   2.420 -0.0117 -0.5128 -1.5440
  655MOL0     H88407   3.713   4.931   2.643 -2.9213 -0.2639  1.6756
  655MOL0     H88408   3.470   4.945   2.609 -2.6839 -1.3586 -0.2514
  655MOL0     H88409   1.794   4.329   1.819  3.5746  0.4942 -2.0241
  655MOL0     H88410   1.611   4.377   1.993  0.4778 -0.8362  0.1645
  655MOL0     H88411   1.350   4.481   2.156  0.1086  0.7684  0.7357
  655MOL0     H88412   1.200   4.404   2.347  0.2590 -1.1508 -1.1506
  655MOL0     H88413   1.151   4.647   2.677 -0.8352  0.8312  2.6087
  655MOL0     H88414   1.034   4.520   2.707  4.5552 -1.1488 -0.3825
  655MOL0     H88415   0.938   4.770   2.556 -2.8846  0.6751  0.3305
  655MOL0     H88416   0.955   4.770   2.728  3.2474  3.4469 -2.1767
  655MOL0     H88417   0.797   4.562   2.712  0.5590  0.5468  0.8466
  655MOL0     H88418   0.814   4.566   2.543  0.0428 -0.0220 -0.3096
  655MOL0     H88419   0.734   4.820   2.558  2.2746  1.4799  2.2581
  655MOL0     H88420   0.615   4.681   2.591  1.0388 -0.2680 -0.0185
  655MOL0     H88421   0.642   4.905   2.943  0.9487  1.7748 -0.6529
  655MOL0     H88422   1.161   4.808   2.467  0.4473  1.0097 -1.5069
  655MOL0     H88423   1.364   4.981   2.257  0.1315  3.5314  3.1325
  655MOL0     H88424   1.314   4.957   2.423  2.3591 -0.6255  2.0196
  655MOL0     H88425   1.473   4.886   2.366  0.1462  0.2823  0.5138
  656MOL0     O88426   3.844   4.617   0.177  0.0930 -0.1338 -0.8940
  656MOL0     C88427   3.781   4.573   0.274 -0.0607 -0.5481  0.2912
  656MOL0     O88428   3.830   4.551   0.403  0.5948  0.0213 -0.1243
  656MOL0     C88429   3.965   4.576   0.431  0.6319  0.2509  0.3582
  656MOL0     C88430   4.055   4.495   0.366  0.8848 -0.0175 -0.1670
  656MOL0     C88431   4.194   4.508   0.388 -0.0773 -0.1666  0.2713
  656MOL0     C88432   4.243   4.620   0.464  0.6945  0.2369 -0.7496
  656MOL0     O88433   4.382   4.633   0.479  0.0244 -0.1235  0.3158
  656MOL0     C88434   4.433   4.749   0.548  0.1391  0.0157  0.3903
  656MOL0     C88435   4.589   4.750   0.532  0.4583  0.6693 -0.1317
  656MOL0     C88436   4.635   4.776   0.390 -1.4498  0.4030 -0.1936
  656MOL0     C88437   4.788   4.783   0.376 -0.4720  0.5406  0.3001
  656MOL0     C88438   4.832   4.815   0.231 -0.0770  0.3886 -0.6411
  656MOL0     C88439   4.985   4.831   0.243 -0.1137 -0.2833  0.3666
  656MOL0     C88440   5.049   4.841   0.102  0.5825 -0.1583 -0.7093
  656MOL0     C88441   5.185   4.907   0.094  0.7265  0.0127  1.4799
  656MOL0     N88442   5.290   4.816   0.138 -0.3272 -0.6000 -0.2325
  656MOL0     C88443   5.347   4.716   0.058 -0.1520 -0.0416 -0.4157
  656MOL0     C88444   5.449   4.664   0.139 -0.0823 -0.0545 -0.2309
  656MOL0     C88445   5.553   4.572   0.090 -0.1463  0.2471 -0.4620
  656MOL0     C88446   5.685   4.551   0.177  0.4479 -0.3353 -0.0300
  656MOL0     C88447   5.789   4.488   0.095  0.5551 -0.5050  0.0741
  656MOL0     C88448   5.911   4.472   0.186  0.9094  0.3235 -0.7705
  656MOL0     O88449   6.028   4.482   0.115  0.0263 -0.7514 -0.1187
  656MOL0     C88450   6.152   4.440   0.164 -0.5282 -0.2231 -0.2062
  656MOL0     C88451   6.268   4.495   0.108 -0.7795 -0.0124 -0.3285
  656MOL0     C88452   6.397   4.456   0.142  0.0422  0.2939 -0.5111
  656MOL0     C88453   6.407   4.372   0.254  0.7298  0.5987 -0.9827
  656MOL0     C88454   6.547   4.334   0.303  1.0197 -0.0095  0.6741
  656MOL0     O88455   6.553   4.239   0.402  0.1740  0.3572  0.2729
  656MOL0     C88456   6.676   4.197   0.439  0.1434 -0.1372 -0.3299
  656MOL0     C88457   6.712   4.226   0.569  0.4897  0.0725  0.3149
  656MOL0     C88458   6.836   4.204   0.627 -0.2370  0.4879  0.0781
  656MOL0     C88459   6.926   4.143   0.537 -0.1764  0.3694 -0.3441
  656MOL0     O88460   7.056   4.097   0.567 -0.1030  0.5912  0.4424
  656MOL0     C88461   7.127   4.179   0.665  1.1104 -0.2564 -0.3011
  656MOL0     C88462   7.277   4.174   0.657  0.1755  0.7300 -0.6175
  656MOL0     C88463   7.347   4.069   0.739  0.2884 -0.1986 -0.0721
  656MOL0     C88464   7.497   4.040   0.722 -1.0707  0.8323  0.3645
  656MOL0     C88465   7.597   4.152   0.750  0.3141  0.4220  0.7469
  656MOL0     C88466   7.736   4.108   0.722 -0.0225  0.4822 -0.4835
  656MOL0     C88467   7.831   4.228   0.743  0.4356  0.1571 -0.6223
  656MOL0     C88468   7.982   4.195   0.724  0.3333  0.4663 -0.6295
  656MOL0    Cl88469   8.033   4.076   0.850  0.3984  0.0511 -0.0146
  656MOL0     C88470   6.897   4.101   0.404 -0.9115 -0.3486 -0.6140
  656MOL0     C88471   6.772   4.135   0.359 -0.0033 -0.3115  0.0555
  656MOL0     O88472   6.641   4.398   0.254  0.7432 -0.2899  0.1133
  656MOL0     C88473   6.292   4.314   0.309 -0.0777 -0.4821  0.1670
  656MOL0     C88474   6.165   4.349   0.268 -0.1848 -0.1727 -0.6144
  656MOL0     N88475   5.441   4.731   0.264  0.7436 -0.2888 -0.5588
  656MOL0     N88476   5.340   4.818   0.264  0.5433 -1.1353  0.3368
  656MOL0     C88477   4.148   4.710   0.520  0.1149 -0.3410 -0.1715
  656MOL0     C88478   4.008   4.689   0.498  0.0978  0.8350 -0.6135
  656MOL0     C88479   3.631   4.570   0.259  0.6924 -0.3244 -0.6601
  656MOL0     C88480   3.563   4.602   0.375 -0.5541  0.2818  0.2748
  656MOL0     C88481   3.423   4.582   0.375 -0.0395 -0.3351  0.6774
  656MOL0     C88482   3.354   4.534   0.270  0.9910  0.1923  0.2498
  656MOL0     O88483   3.216   4.517   0.272  0.0215  0.0487  0.6257
  656MOL0     C88484   3.139   4.549   0.390  0.2805  0.0647  0.2017
  656MOL0     C88485   2.997   4.551   0.342  1.0692  0.3704 -0.6874
  656MOL0     C88486   2.973   4.662   0.236 -0.6196 -0.7577 -0.5700
  656MOL0     C88487   2.836   4.637   0.167 -0.3824  0.0319 -0.0122
  656MOL0     C88488   2.731   4.643   0.265 -0.0415 -0.1151 -0.7490
  656MOL0     C88489   2.642   4.638   0.347  0.4019 -0.0453 -0.9817
  656MOL0     C88490   3.426   4.506   0.154  1.0991  1.1232  0.6311
  656MOL0     C88491   3.564   4.523   0.141  0.5457 -0.2103 -0.4231
  656MOL0     C88492   3.636   4.498   0.012 -0.1775  0.2009  0.5311
  656MOL0     H88493   4.019   4.416   0.301  1.4468  1.7221 -2.7028
  656MOL0     H88494   4.266   4.442   0.339 -1.5135 -0.1250 -2.0366
  656MOL0     H88495   4.399   4.846   0.509 -2.0029 -1.1210 -0.7528
  656MOL0     H88496   4.409   4.755   0.655  0.6347 -2.4092  0.6799
  656MOL0     H88497   4.630   4.653   0.559  1.7126  1.7018  1.9108
  656MOL0     H88498   4.627   4.825   0.603  0.3776 -0.2433  0.9020
  656MOL0     H88499   4.599   4.866   0.339 -1.6465 -0.6066 -1.9148
  656MOL0     H88500   4.602   4.691   0.330 -1.7203 -0.0193  0.5443
  656MOL0     H88501   4.829   4.855   0.447  1.0600  1.6655 -1.6273
  656MOL0     H88502   4.838   4.688   0.396  3.1509  1.5177 -2.9816
  656MOL0     H88503   4.806   4.731   0.166  1.0384 -1.2489  0.9440
  656MOL0     H88504   4.792   4.908   0.190 -1.8488 -0.3809 -0.7502
  656MOL0     H88505   5.008   4.914   0.310 -2.7718 -0.8978  2.2266
  656MOL0     H88506   5.021   4.736   0.285 -0.6070 -0.3154  0.7281
  656MOL0     H88507   4.976   4.907   0.055 -1.2340 -0.5409  1.3864
  656MOL0     H88508   5.041   4.749   0.042 -2.0733  0.4278 -1.3976
  656MOL0     H88509   5.198   4.925  -0.013  0.3847 -1.6597  1.1364
  656MOL0     H88510   5.180   4.996   0.158  0.5686 -0.6042  2.3403
  656MOL0     H88511   5.327   4.688  -0.045  0.2412 -0.1891 -0.4512
  656MOL0     H88512   5.506   4.474   0.074 -1.2465  0.7324 -0.2658
  656MOL0     H88513   5.580   4.603  -0.011  1.0310 -0.3401 -0.3374
  656MOL0     H88514   5.719   4.650   0.209 -0.2042 -0.7394  2.0954
  656MOL0     H88515   5.660   4.500   0.271 -0.0432  2.6352  1.5586
  656MOL0     H88516   5.817   4.551   0.009  1.5183  2.0047  2.0875
  656MOL0     H88517   5.757   4.389   0.061  1.9371 -0.4074 -1.6143
  656MOL0     H88518   5.895   4.377   0.239  0.2644  1.4671  1.1903
  656MOL0     H88519   5.905   4.547   0.265 -1.5006  0.5644 -1.0904
  656MOL0     H88520   6.255   4.572   0.032  0.5048  2.2126  1.5794
  656MOL0     H88521   6.478   4.496   0.082  0.0430  0.3928 -0.4433
  656MOL0     H88522   6.630   4.270   0.624 -0.4060 -1.3798  0.1987
  656MOL0     H88523   6.869   4.230   0.727  0.6263 -2.8882  0.7905
  656MOL0     H88524   7.100   4.283   0.643  1.2471 -0.4119 -1.2429
  656MOL0     H88525   7.094   4.152   0.766 -0.7897 -1.2358 -1.1377
  656MOL0     H88526   7.308   4.167   0.552 -0.2179  3.4646 -0.9956
  656MOL0     H88527   7.308   4.272   0.693 -2.2540  1.0917  0.6833
  656MOL0     H88528   7.338   4.097   0.844  1.3095  1.1498 -0.3163
  656MOL0     H88529   7.297   3.972   0.739 -1.4832  0.6620  1.0415
  656MOL0     H88530   7.504   3.997   0.622  0.7741 -1.8917  1.5288
  656MOL0     H88531   7.525   3.956   0.786  0.1879 -0.5968 -1.9333
  656MOL0     H88532   7.595   4.190   0.852  1.8891  0.8361  0.6590
  656MOL0     H88533   7.574   4.233   0.680 -0.4516  0.9289  1.5769
  656MOL0     H88534   7.764   4.030   0.794 -3.8511 -2.6437 -1.9744
  656MOL0     H88535   7.736   4.068   0.620 -0.1058  1.7892 -1.0090
  656MOL0     H88536   7.825   4.252   0.850  2.3897 -3.4413  0.4721
  656MOL0     H88537   7.801   4.310   0.678  0.0558 -0.7108 -1.5721
  656MOL0     H88538   7.995   4.152   0.624 -2.6882  1.8718 -1.7593
  656MOL0     H88539   8.048   4.281   0.723  2.5237 -1.1129  0.2466
  656MOL0     H88540   6.975   4.057   0.343 -0.6149 -1.8734  0.7830
  656MOL0     H88541   6.737   4.122   0.257  0.7349  1.8290 -0.5263
  656MOL0     H88542   6.295   4.244   0.392 -4.9984 -3.8567 -1.9914
  656MOL0     H88543   6.084   4.320   0.333 -0.6193  1.5591 -0.3515
  656MOL0     H88544   4.174   4.801   0.573 -0.6711  0.6601 -1.4333
  656MOL0     H88545   3.936   4.752   0.549  0.4343 -1.4745  3.1207
  656MOL0     H88546   3.604   4.645   0.465 -0.7874 -2.0152  1.5502
  656MOL0     H88547   3.365   4.604   0.464 -0.5984  0.3380  0.1543
  656MOL0     H88548   3.162   4.650   0.425  0.2064  0.6746 -1.3989
  656MOL0     H88549   3.154   4.471   0.466 -1.0816 -1.0214 -0.5826
  656MOL0     H88550   2.943   4.581   0.432  1.8493 -1.5173  0.4778
  656MOL0     H88551   2.960   4.452   0.311  1.9151 -0.6884  1.4778
  656MOL0     H88552   3.047   4.663   0.155  1.7407 -0.1982  1.4641
  656MOL0     H88553   2.971   4.766   0.271 -0.6723  0.6742 -4.3994
  656MOL0     H88554   2.825   4.716   0.092 -2.7530 -1.5437 -1.4417
  656MOL0     H88555   2.843   4.541   0.114  2.9036 -0.0719  0.4244
  656MOL0     H88556   2.561   4.638   0.417  0.9436  3.1417 -0.2229
  656MOL0     H88557   3.366   4.464   0.074  2.4769 -0.3193  0.3200
  656MOL0     H88558   3.663   4.589  -0.042  4.2701 -2.8475 -3.2132
  656MOL0     H88559   3.726   4.436   0.020 -0.2036  0.2455  1.2375
  656MOL0     H88560   3.566   4.447  -0.055  1.3240  0.3938 -1.2603
  657MOL0     O88561   0.115   8.781   6.513 -0.0906  0.0556  0.2913
  657MOL0     C88562   0.035   8.686   6.504 -0.1030 -0.5963  0.2556
  657MOL0     O88563   0.059   8.559   6.452 -0.1324  0.2151  0.1390
  657MOL0     C88564   0.174   8.537   6.374  0.0090  0.0016  0.0938
  657MOL0     C88565   0.302   8.567   6.411 -0.1609  0.1578 -0.6774
  657MOL0     C88566   0.410   8.540   6.322  0.7449  0.0599 -0.8432
  657MOL0     C88567   0.397   8.465   6.208 -0.6037 -0.5765 -0.3984
  657MOL0     O88568   0.494   8.413   6.124  0.1305  0.2271 -0.4004
  657MOL0     C88569   0.629   8.427   6.171 -0.0131  0.7648  0.1087
  657MOL0     C88570   0.709   8.338   6.079  0.1886  0.1953 -0.6302
  657MOL0     C88571   0.853   8.353   6.102 -0.4935  0.2853 -0.1234
  657MOL0     C88572   0.907   8.253   6.203  0.6813 -0.2833  0.6222
  657MOL0     C88573   1.048   8.278   6.255  0.6180  0.0950  0.7762
  657MOL0     C88574   1.068   8.236   6.403 -0.3269 -0.8586 -1.0157
  657MOL0     C88575   1.210   8.235   6.450 -0.4350  0.7193 -0.0083
  657MOL0     C88576   1.281   8.109   6.398 -0.1181  0.6862  0.6165
  657MOL0     N88577   1.422   8.087   6.437  0.6334 -0.7076  0.5296
  657MOL0     C88578   1.459   8.038   6.556 -0.2118  1.0091  0.5719
  657MOL0     C88579   1.594   8.050   6.545 -0.0708  0.3925  0.3558
  657MOL0     C88580   1.685   8.004   6.649  0.1355 -0.0869 -0.9145
  657MOL0     C88581   1.656   7.850   6.690 -0.0063 -1.0829  0.0692
  657MOL0     C88582   1.752   7.795   6.798 -0.2840 -0.9492 -0.8663
  657MOL0     C88583   1.898   7.790   6.763  0.9361  0.3835  0.8346
  657MOL0     O88584   1.969   7.755   6.879  0.7640  0.2131 -0.2238
  657MOL0     C88585   2.105   7.727   6.868 -0.0325  0.2060  0.8838
  657MOL0     C88586   2.175   7.668   6.973  0.5807 -1.6334 -0.1361
  657MOL0     C88587   2.309   7.635   6.965 -0.9577 -0.6660 -0.2499
  657MOL0     C88588   2.380   7.668   6.852 -0.8931 -0.2860  0.3321
  657MOL0     C88589   2.521   7.664   6.844 -0.1378  0.7662  0.0774
  657MOL0     O88590   2.573   7.704   6.721 -0.3788  1.1131 -0.5162
  657MOL0     C88591   2.710   7.699   6.707 -0.1158  0.6122 -0.0338
  657MOL0     C88592   2.800   7.747   6.802 -0.6494 -0.3807 -0.0212
  657MOL0     C88593   2.942   7.734   6.776 -0.7107 -0.0560 -0.1766
  657MOL0     C88594   2.984   7.680   6.653 -0.1847 -0.4345 -0.9005
  657MOL0     O88595   3.120   7.667   6.631  0.4974 -0.0263  0.1028
  657MOL0     C88596   3.180   7.765   6.552 -0.5570 -0.6592  0.0117
  657MOL0     C88597   3.322   7.722   6.528  0.0142  0.5315  0.4346
  657MOL0     C88598   3.412   7.843   6.473  0.4854  0.2992 -0.7797
  657MOL0     C88599   3.528   7.875   6.569 -0.2499  0.1796 -0.4560
  657MOL0     C88600   3.615   7.984   6.515 -0.2398  0.3880 -0.5127
  657MOL0     C88601   3.546   8.117   6.497 -0.9848  0.3452  0.0388
  657MOL0     C88602   3.649   8.220   6.451 -0.3548  0.0253  0.4027
  657MOL0     C88603   3.585   8.347   6.397  0.9086  0.3694  0.6066
  657MOL0    Cl88604   3.695   8.464   6.341 -0.3030  0.0283 -0.4286
  657MOL0     C88605   2.893   7.631   6.566 -0.1730 -0.7785 -0.4333
  657MOL0     C88606   2.758   7.633   6.594 -0.5027  1.0889 -0.4928
  657MOL0     O88607   2.573   7.636   6.947 -0.5705  0.6724 -0.3474
  657MOL0     C88608   2.309   7.720   6.737  0.1641 -0.1587  0.1384
  657MOL0     C88609   2.175   7.751   6.747  0.6509 -0.0894 -0.1036
  657MOL0     N88610   1.636   8.105   6.428 -0.2054 -1.1869 -0.2678
  657MOL0     N88611   1.526   8.124   6.356 -0.2289  0.3706 -0.5955
  657MOL0     C88612   0.265   8.432   6.178 -0.2619  0.0439  0.2617
  657MOL0     C88613   0.153   8.472   6.259 -0.1299 -0.0028  0.0839
  657MOL0     C88614  -0.102   8.717   6.564 -0.3276 -0.1443  0.4012
  657MOL0     C88615  -0.174   8.612   6.617 -0.1326 -0.5994 -0.1204
  657MOL0     C88616  -0.283   8.642   6.698 -0.2994 -0.2444 -0.3424
  657MOL0     C88617  -0.328   8.770   6.724 -0.2566 -0.2385 -0.0333
  657MOL0     O88618  -0.418   8.801   6.819 -0.5650 -0.8341  0.0255
  657MOL0     C88619  -0.476   8.694   6.899 -0.0938 -0.7012  0.1323
  657MOL0     C88620  -0.550   8.760   7.012  0.0870 -0.3606 -0.3696
  657MOL0     C88621  -0.694   8.809   6.968 -0.1556  0.2553  0.4098
  657MOL0     C88622  -0.788   8.690   6.935  0.3194  0.8029  0.3676
  657MOL0     C88623  -0.935   8.721   6.949 -0.6872 -0.8837 -0.1339
  657MOL0     C88624  -1.049   8.753   6.971  0.0423  0.3574 -0.5711
  657MOL0     C88625  -0.272   8.874   6.658  0.6521  0.4683 -0.4570
  657MOL0     C88626  -0.158   8.852   6.580  0.3860  0.2020  0.4726
  657MOL0     C88627  -0.097   8.969   6.508 -0.7259 -0.8439  0.6587
  657MOL0     H88628   0.311   8.614   6.508  2.7529 -0.2095 -0.6749
  657MOL0     H88629   0.507   8.585   6.342  0.7538  0.2379 -1.2709
  657MOL0     H88630   0.666   8.529   6.160  0.4673  0.4061 -2.3193
  657MOL0     H88631   0.636   8.398   6.276  0.1956 -2.5826 -0.6964
  657MOL0     H88632   0.692   8.362   5.974 -0.8449  0.6813 -0.3723
  657MOL0     H88633   0.685   8.232   6.096  0.8840  0.2446  0.8047
  657MOL0     H88634   0.865   8.458   6.128 -0.8429  0.5830 -1.1413
  657MOL0     H88635   0.912   8.329   6.012 -0.7729 -1.9540  0.2256
  657MOL0     H88636   0.833   8.260   6.283 -1.4385 -0.0062 -1.2525
  657MOL0     H88637   0.893   8.155   6.155 -0.1660  0.7312 -1.3254
  657MOL0     H88638   1.122   8.233   6.189  1.2230  1.5221  0.4519
  657MOL0     H88639   1.066   8.386   6.247 -0.4285  0.3554  1.6450
  657MOL0     H88640   1.009   8.308   6.462 -1.1205 -1.9145 -0.4744
  657MOL0     H88641   1.026   8.138   6.426 -1.0313 -0.5054 -0.7471
  657MOL0     H88642   1.228   8.231   6.557  0.1400  1.6428 -0.0621
  657MOL0     H88643   1.272   8.316   6.411  2.0275 -1.5769 -1.2268
  657MOL0     H88644   1.216   8.028   6.433 -2.5188  2.0847 -0.3449
  657MOL0     H88645   1.282   8.103   6.289 -1.8571  0.0294  0.6069
  657MOL0     H88646   1.400   8.005   6.642  2.8007 -2.1270  1.6880
  657MOL0     H88647   1.788   8.019   6.617  0.0751 -0.2496 -1.1929
  657MOL0     H88648   1.661   8.065   6.737 -4.3988  0.7371 -2.4729
  657MOL0     H88649   1.551   7.847   6.721 -0.7352 -0.0161 -2.0616
  657MOL0     H88650   1.669   7.789   6.600 -0.8476  0.6888 -1.3134
  657MOL0     H88651   1.718   7.695   6.830 -1.4094  0.0863  1.4232
  657MOL0     H88652   1.736   7.857   6.887  0.6387 -2.8591  0.7234
  657MOL0     H88653   1.922   7.890   6.727 -0.3356  0.7924  1.0812
  657MOL0     H88654   1.928   7.722   6.683  1.9185  1.8910 -0.1230
  657MOL0     H88655   2.115   7.646   7.060  0.0971 -1.1693 -0.3424
  657MOL0     H88656   2.364   7.583   7.043 -0.5592 -1.2950 -0.9338
  657MOL0     H88657   2.768   7.798   6.892  0.4497  0.3857 -0.0488
  657MOL0     H88658   3.024   7.766   6.840  1.9009 -2.5716 -1.9956
  657MOL0     H88659   3.128   7.770   6.456 -1.7252 -1.8222  0.5531
  657MOL0     H88660   3.174   7.861   6.604 -0.9416  0.1729 -1.5046
  657MOL0     H88661   3.361   7.690   6.625  2.2476 -1.9506 -1.1246
  657MOL0     H88662   3.329   7.640   6.456  0.9381  0.8093  0.1898
  657MOL0     H88663   3.451   7.822   6.373  0.8351  1.2718 -0.8569
  657MOL0     H88664   3.342   7.926   6.461 -2.2286 -1.9101 -1.1069
  657MOL0     H88665   3.582   7.783   6.592  0.3403  0.3171 -1.2611
  657MOL0     H88666   3.495   7.909   6.668 -1.8710 -3.3437  0.3936
  657MOL0     H88667   3.652   7.963   6.414 -0.9093  0.2160 -0.7317
  657MOL0     H88668   3.698   7.993   6.585 -1.1606  0.3380  0.6080
  657MOL0     H88669   3.468   8.105   6.420  0.7931 -0.0163 -1.7898
  657MOL0     H88670   3.508   8.142   6.596 -0.1625 -0.6746  0.6297
  657MOL0     H88671   3.721   8.180   6.379 -1.8802  1.2469 -1.9349
  657MOL0     H88672   3.705   8.250   6.540 -2.2016  1.8186  1.0222
  657MOL0     H88673   3.519   8.327   6.312 -0.1532  0.8905  1.2926
  657MOL0     H88674   3.520   8.385   6.476 -1.3526 -1.3826 -0.2795
  657MOL0     H88675   2.931   7.579   6.479 -1.0058 -1.3668 -0.4509
  657MOL0     H88676   2.682   7.587   6.531  2.0582 -0.1189 -2.9269
  657MOL0     H88677   2.347   7.738   6.637 -1.5382 -0.7838 -0.6514
  657MOL0     H88678   2.133   7.791   6.655 -0.6797  0.3777  0.6705
  657MOL0     H88679   0.253   8.370   6.090 -0.3272  0.1547  0.1924
  657MOL0     H88680   0.052   8.442   6.235 -0.5191  1.7052 -0.5512
  657MOL0     H88681  -0.137   8.511   6.606  1.1960 -0.4600  2.2706
  657MOL0     H88682  -0.316   8.554   6.754 -1.8779  0.7170  0.3039
  657MOL0     H88683  -0.406   8.619   6.937 -1.1548 -1.5208  0.4976
  657MOL0     H88684  -0.546   8.634   6.841 -0.8744 -0.5147  0.8568
  657MOL0     H88685  -0.494   8.850   7.040  0.5597 -0.2027 -1.7309
  657MOL0     H88686  -0.568   8.698   7.100 -1.8250  0.5513 -0.0539
  657MOL0     H88687  -0.671   8.866   6.877  3.3209 -0.1091  0.9138
  657MOL0     H88688  -0.744   8.869   7.045 -3.1208 -0.9122 -0.4468
  657MOL0     H88689  -0.773   8.657   6.832  2.8958 -2.2362  1.5516
  657MOL0     H88690  -0.767   8.608   7.004  1.1232  2.0861  1.7016
  657MOL0     H88691  -1.143   8.803   6.981  0.2049  0.5307  0.1917
  657MOL0     H88692  -0.316   8.973   6.669 -0.4435  0.0304 -0.7449
  657MOL0     H88693  -0.165   9.055   6.512  0.5862  0.1927  1.4600
  657MOL0     H88694  -0.005   9.004   6.555 -0.0632 -0.0290 -1.1633
  657MOL0     H88695  -0.070   8.937   6.407  0.1937 -3.4123  1.6607
  658MOL0     O88696   0.200   5.161  11.235 -0.1421  0.7261 -0.9336
  658MOL0     C88697   0.197   5.087  11.330  0.6492  0.1729 -0.0365
  658MOL0     O88698   0.294   5.072  11.421 -0.2977  0.4221  0.6061
  658MOL0     C88699   0.412   5.150  11.397  0.0307  0.7899 -0.3074
  658MOL0     C88700   0.530   5.077  11.401 -0.9864  0.1131  0.5283
  658MOL0     C88701   0.652   5.135  11.389  0.3376 -0.3171  0.6985
  658MOL0     C88702   0.664   5.265  11.377 -0.6657  0.7231  0.2348
  658MOL0     O88703   0.785   5.330  11.390 -0.0007 -0.1848  0.3357
  658MOL0     C88704   0.911   5.270  11.354 -0.0354  0.6915  0.2582
  658MOL0     C88705   1.013   5.370  11.390 -0.2260  0.2369 -0.6120
  658MOL0     C88706   1.155   5.307  11.367 -0.5713 -0.0329  0.3117
  658MOL0     C88707   1.259   5.399  11.429  1.1433  0.1365 -0.2511
  658MOL0     C88708   1.401   5.345  11.421 -0.6418  0.4229 -0.2196
  658MOL0     C88709   1.499   5.424  11.508 -0.9008  0.1632  0.6431
  658MOL0     C88710   1.470   5.394  11.656 -1.4009 -0.2363 -0.6324
  658MOL0     C88711   1.600   5.382  11.733 -0.6602  0.0405 -0.4219
  658MOL0     N88712   1.660   5.518  11.749 -0.6163 -0.3256  0.2760
  658MOL0     C88713   1.741   5.579  11.657 -0.0588  0.8608 -0.4192
  658MOL0     C88714   1.770   5.697  11.718  0.2114 -0.1466 -0.5174
  658MOL0     C88715   1.880   5.786  11.670  0.2261 -0.4012 -0.0757
  658MOL0     C88716   1.930   5.885  11.783  0.7074  0.1877 -0.3595
  658MOL0     C88717   2.043   5.972  11.732 -0.4726 -0.4882 -0.0434
  658MOL0     C88718   2.101   6.079  11.831 -0.1456  0.7982 -0.4059
  658MOL0     O88719   2.136   6.030  11.961  0.7471  0.4115  0.1742
  658MOL0     C88720   2.194   6.117  12.044 -0.4207 -0.6624  0.2819
  658MOL0     C88721   2.197   6.089  12.179 -0.6895 -0.1640  0.2136
  658MOL0     C88722   2.262   6.173  12.271 -0.8480 -0.4417 -0.1768
  658MOL0     C88723   2.339   6.285  12.226  0.1050  0.1108 -0.5513
  658MOL0     C88724   2.401   6.381  12.327  0.4053  0.1930 -0.2978
  658MOL0     O88725   2.405   6.513  12.300  0.6660  0.0106 -0.0708
  658MOL0     C88726   2.477   6.603  12.371  0.6064  0.4311  1.3235
  658MOL0     C88727   2.506   6.715  12.303 -0.8119 -0.7539  0.7852
  658MOL0     C88728   2.576   6.817  12.362 -0.5056 -0.2349 -1.4143
  658MOL0     C88729   2.619   6.804  12.500 -0.7429 -0.8679 -0.7611
  658MOL0     O88730   2.681   6.897  12.577  0.0725 -0.5065  0.0761
  658MOL0     C88731   2.699   7.029  12.509 -0.3742 -0.1851  0.0033
  658MOL0     C88732   2.775   7.131  12.600  0.5989 -0.0185 -0.7679
  658MOL0     C88733   2.875   7.213  12.516 -0.1635 -0.4404 -0.1589
  658MOL0     C88734   2.928   7.328  12.606 -0.7064 -0.1169 -0.4264
  658MOL0     C88735   3.006   7.428  12.523  1.4160 -0.2869 -1.0124
  658MOL0     C88736   3.066   7.530  12.621  0.0944  0.2566  0.5912
  658MOL0     C88737   3.175   7.613  12.555 -0.0420 -0.1247 -0.5770
  658MOL0     C88738   3.247   7.693  12.668 -0.1013 -0.9098 -0.2390
  658MOL0    Cl88739   3.382   7.594  12.752  0.1380 -0.0780 -0.0524
  658MOL0     C88740   2.583   6.688  12.571 -0.2806  0.1804  0.5355
  658MOL0     C88741   2.520   6.589  12.505  0.2879  0.3961  0.3774
  658MOL0     O88742   2.461   6.321  12.415  0.2955 -0.1818  0.8046
  658MOL0     C88743   2.341   6.306  12.086 -0.0993  0.4866 -0.1089
  658MOL0     C88744   2.260   6.228  12.003 -0.1033 -0.0839  0.1036
  658MOL0     N88745   1.695   5.702  11.841 -0.3619 -0.6280  1.2021
  658MOL0     N88746   1.633   5.591  11.855 -0.2347  0.5453  0.0126
  658MOL0     C88747   0.549   5.340  11.386  0.0731  0.1718 -0.2446
  658MOL0     C88748   0.419   5.291  11.390  0.5173  0.7640 -0.5951
  658MOL0     C88749   0.078   4.988  11.329 -1.0550  0.3290 -0.6532
  658MOL0     C88750   0.105   4.861  11.391  0.0791  0.1166  0.1413
  658MOL0     C88751   0.004   4.762  11.392  0.3801  0.1937 -0.7147
  658MOL0     C88752  -0.125   4.780  11.335 -0.2597  0.7720  0.0237
  658MOL0     O88753  -0.216   4.677  11.340 -0.3268  0.4318 -0.9154
  658MOL0     C88754  -0.337   4.692  11.267 -0.1143 -0.6426 -1.0014
  658MOL0     C88755  -0.423   4.573  11.254 -0.2974  1.6733 -0.2549
  658MOL0     C88756  -0.553   4.621  11.191 -0.3030  0.4991 -0.5718
  658MOL0     C88757  -0.649   4.694  11.288 -0.1427 -0.5270  0.2928
  658MOL0     C88758  -0.792   4.692  11.244 -0.3076 -0.4158 -0.5218
  658MOL0     C88759  -0.916   4.703  11.231 -0.8214  0.0747 -0.0008
  658MOL0     C88760  -0.157   4.914  11.290 -0.5496  0.6281  0.1143
  658MOL0     C88761  -0.055   5.012  11.281  0.5533 -0.0330  0.0046
  658MOL0     C88762  -0.077   5.141  11.208 -0.1817  0.7178 -0.3481
  658MOL0     H88763   0.504   4.972  11.411 -1.6964  0.0159 -1.6042
  658MOL0     H88764   0.743   5.076  11.398  1.0383  0.9667  2.8555
  658MOL0     H88765   0.929   5.184  11.419  0.5864 -0.2177 -1.0715
  658MOL0     H88766   0.931   5.243  11.250  0.0319  2.6512 -0.2812
  658MOL0     H88767   0.999   5.378  11.498  1.0161  1.0283 -0.4890
  658MOL0     H88768   0.992   5.464  11.339 -0.6140 -0.1050 -1.1035
  658MOL0     H88769   1.175   5.290  11.261  1.4050  1.0704  0.4489
  658MOL0     H88770   1.166   5.207  11.409 -0.6853  0.7904  2.4361
  658MOL0     H88771   1.246   5.505  11.405 -2.2760  0.3013  1.6747
  658MOL0     H88772   1.235   5.394  11.536 -0.5294 -1.0324 -0.6548
  658MOL0     H88773   1.401   5.237  11.440  1.9192  0.3193 -0.5083
  658MOL0     H88774   1.441   5.354  11.320  1.8023 -1.7918  0.4431
  658MOL0     H88775   1.593   5.379  11.476 -0.6229  1.6058 -0.6206
  658MOL0     H88776   1.510   5.531  11.491 -0.1848  0.0896  0.6177
  658MOL0     H88777   1.410   5.304  11.674 -0.1467 -0.8340  0.8536
  658MOL0     H88778   1.408   5.477  11.691  0.4282  0.2252  1.8415
  658MOL0     H88779   1.583   5.340  11.832  1.6702  4.3817  2.1450
  658MOL0     H88780   1.660   5.308  11.679 -1.6303  0.4656 -2.1679
  658MOL0     H88781   1.773   5.531  11.564 -1.6363 -0.0411 -0.5394
  658MOL0     H88782   1.969   5.730  11.642  1.8073  1.6317  0.5919
  658MOL0     H88783   1.860   5.849  11.583 -0.1770  0.6180  0.7321
  658MOL0     H88784   1.850   5.949  11.820  2.8352  1.9131  1.5824
  658MOL0     H88785   1.971   5.833  11.871 -1.0199 -2.5382 -1.0349
  658MOL0     H88786   2.002   6.024  11.645 -2.3309  1.6644  1.9826
  658MOL0     H88787   2.126   5.909  11.698 -2.0304 -0.2655 -5.0617
  658MOL0     H88788   2.021   6.153  11.841 -1.0680 -0.3157  0.9911
  658MOL0     H88789   2.191   6.113  11.780 -0.2394  0.6729 -0.6571
  658MOL0     H88790   2.138   6.003  12.210  0.0728  0.1238  2.5784
  658MOL0     H88791   2.248   6.150  12.376 -2.2933 -0.1602 -0.2847
  658MOL0     H88792   2.479   6.724  12.198  5.3459 -1.2660 -1.2276
  658MOL0     H88793   2.606   6.904  12.305  0.1952  0.8743  0.5558
  658MOL0     H88794   2.758   7.013  12.418  3.2184  1.7293  1.7762
  658MOL0     H88795   2.604   7.067  12.472 -1.9108 -2.9284  0.8331
  658MOL0     H88796   2.701   7.193  12.651  2.1669  0.8815  0.5060
  658MOL0     H88797   2.832   7.083  12.680 -3.2322 -0.7492  1.8291
  658MOL0     H88798   2.957   7.150  12.481 -1.2007 -1.4919 -0.7991
  658MOL0     H88799   2.830   7.260  12.428 -2.7259 -1.9118  0.2592
  658MOL0     H88800   3.009   7.297  12.673  1.0243  3.0671 -0.8693
  658MOL0     H88801   2.847   7.375  12.662 -2.0671 -0.4916 -2.0207
  658MOL0     H88802   2.941   7.488  12.458  1.1462  2.6589  1.7673
  658MOL0     H88803   3.085   7.374  12.470  2.5614 -2.3531  2.4878
  658MOL0     H88804   2.979   7.592  12.647 -1.3877 -0.3165 -2.5961
  658MOL0     H88805   3.103   7.490  12.715  1.5872  1.4467  0.5488
  658MOL0     H88806   3.140   7.693  12.489  3.1135  1.8204 -0.1345
  658MOL0     H88807   3.248   7.551  12.503 -0.2209 -0.5082 -0.3709
  658MOL0     H88808   3.297   7.776  12.618 -1.0056  0.7825  1.5478
  658MOL0     H88809   3.196   7.733  12.756  0.1779  0.7512 -0.8009
  658MOL0     H88810   2.626   6.668  12.669  1.0160 -1.8456 -0.3777
  658MOL0     H88811   2.484   6.505  12.563  1.1852 -0.9036 -0.8657
  658MOL0     H88812   2.381   6.400  12.050  0.5089  0.0458 -0.6006
  658MOL0     H88813   2.266   6.256  11.898 -0.7012  1.7465  0.5124
  658MOL0     H88814   0.559   5.448  11.380 -3.3528  0.6762  1.0942
  658MOL0     H88815   0.328   5.348  11.384 -1.4028 -1.8249  1.2419
  658MOL0     H88816   0.206   4.843  11.427  0.2618 -1.0539 -0.8740
  658MOL0     H88817   0.025   4.663  11.433 -3.2462 -0.3138  0.2962
  658MOL0     H88818  -0.323   4.741  11.171  0.9774 -1.5839 -1.3509
  658MOL0     H88819  -0.399   4.763  11.323 -0.0888 -2.3496  1.3555
  658MOL0     H88820  -0.443   4.532  11.353  2.7882 -1.0193 -0.5500
  658MOL0     H88821  -0.374   4.499  11.190 -0.1529  1.1245  0.4836
  658MOL0     H88822  -0.609   4.545  11.136 -0.2622  0.6385 -0.8052
  658MOL0     H88823  -0.531   4.699  11.117  0.3848 -0.7508 -1.7277
  658MOL0     H88824  -0.652   4.636  11.380  0.1619 -0.5276  0.3025
  658MOL0     H88825  -0.612   4.797  11.299  1.6480 -1.0981 -0.0230
  658MOL0     H88826  -1.020   4.715  11.254 -1.2703 -0.1859 -1.7923
  658MOL0     H88827  -0.253   4.934  11.242  0.1605 -1.2606 -2.2965
  658MOL0     H88828  -0.081   5.226  11.277 -1.3132 -1.7811  2.9315
  658MOL0     H88829  -0.012   5.157  11.122 -0.9390 -1.9872 -1.5331
  658MOL0     H88830  -0.170   5.126  11.151 -0.2021 -0.2553 -0.0727
  659MOL0     O88831   5.806   7.346   9.092  0.4155  0.7148  0.1213
  659MOL0     C88832   5.771   7.255   9.017  0.2494  0.4143  0.1706
  659MOL0     O88833   5.853   7.202   8.919 -0.3851  0.1228 -0.0975
  659MOL0     C88834   5.990   7.221   8.918  0.7661  0.5230  0.9521
  659MOL0     C88835   6.069   7.124   8.967 -0.1907 -0.0190  0.0764
  659MOL0     C88836   6.210   7.125   8.952 -0.1287  0.1851 -0.3556
  659MOL0     C88837   6.270   7.219   8.880 -0.7560 -0.2397 -0.5051
  659MOL0     O88838   6.406   7.233   8.858  0.1143  0.0732  0.7214
  659MOL0     C88839   6.492   7.154   8.931 -0.2296  0.0397  0.0691
  659MOL0     C88840   6.632   7.185   8.879 -0.0049  0.1124  0.0262
  659MOL0     C88841   6.741   7.118   8.965 -0.1936 -0.1828 -0.8475
  659MOL0     C88842   6.877   7.171   8.918  0.9751 -0.3181 -0.3143
  659MOL0     C88843   6.995   7.113   8.997 -1.2439  0.3766  0.1403
  659MOL0     C88844   7.109   7.201   8.964 -0.6370  0.5573 -0.9525
  659MOL0     C88845   7.226   7.163   9.053 -0.3839  0.4619 -0.0710
  659MOL0     C88846   7.358   7.234   9.017  0.6230 -0.1865  0.2068
  659MOL0     N88847   7.482   7.184   9.091  0.5294 -0.1643 -0.2281
  659MOL0     C88848   7.486   7.065   9.163  0.4438 -0.6247  0.3653
  659MOL0     C88849   7.617   7.044   9.186  0.1998 -0.2829 -0.7285
  659MOL0     C88850   7.676   6.941   9.269 -0.3486  0.1063 -0.8067
  659MOL0     C88851   7.669   6.805   9.200  0.3829  0.5204 -0.0549
  659MOL0     C88852   7.764   6.781   9.085 -0.4201  0.2790  0.4328
  659MOL0     C88853   7.897   6.838   9.096 -0.4018 -0.5508 -1.1004
  659MOL0     O88854   7.969   6.804   9.216  0.0195  0.6192  0.0519
  659MOL0     C88855   8.102   6.817   9.207  0.5466  0.2234 -0.3351
  659MOL0     C88856   8.168   6.761   9.319  0.4803 -0.1983 -0.1176
  659MOL0     C88857   8.308   6.768   9.337 -0.6954  0.2746  0.4676
  659MOL0     C88858   8.387   6.834   9.237 -0.0360  0.1446  0.1945
  659MOL0     C88859   8.537   6.822   9.241  0.1844  0.7948 -0.7837
  659MOL0     O88860   8.623   6.901   9.160 -0.8535 -0.2645 -0.6553
  659MOL0     C88861   8.756   6.902   9.198  0.2017  0.3310  0.1374
  659MOL0     C88862   8.850   6.818   9.143  0.2614 -0.9631  0.7284
  659MOL0     C88863   8.982   6.829   9.179  0.5860 -0.3629 -0.1047
  659MOL0     C88864   9.029   6.911   9.270  0.7592 -1.3625  0.2581
  659MOL0     O88865   9.161   6.903   9.287 -0.5372 -0.0645  0.7678
  659MOL0     C88866   9.236   7.019   9.327  0.5483 -1.3228 -0.5544
  659MOL0     C88867   9.390   7.003   9.305  0.0333  0.3319  0.2525
  659MOL0     C88868   9.449   7.137   9.340 -0.6526  0.1774 -0.3115
  659MOL0     C88869   9.604   7.123   9.330 -0.7509  0.8952 -0.1911
  659MOL0     C88870   9.666   7.258   9.361  0.7026  0.1971  0.4362
  659MOL0     C88871   9.816   7.263   9.384 -0.1419 -0.5710  0.0193
  659MOL0     C88872   9.857   7.407   9.431  0.3283 -0.5935  0.4423
  659MOL0     C88873  10.009   7.434   9.411  0.1740  0.7280  0.0112
  659MOL0    Cl88874  10.113   7.338   9.513 -0.2413  0.1235 -0.0605
  659MOL0     C88875   8.935   6.983   9.346 -0.1447  0.0917  0.2511
  659MOL0     C88876   8.796   6.978   9.307 -0.3351  0.3407 -0.6691
  659MOL0     O88877   8.569   6.741   9.333  0.1098  0.3768 -0.3177
  659MOL0     C88878   8.320   6.891   9.125 -0.8793  0.2112  0.4207
  659MOL0     C88879   8.180   6.878   9.116  0.3943  0.5051 -0.4808
  659MOL0     N88880   7.688   7.153   9.135 -0.4075 -0.3158  0.4099
  659MOL0     N88881   7.606   7.233   9.080  0.6577  0.2064 -0.7918
  659MOL0     C88882   6.193   7.323   8.834 -0.3497 -0.4616  0.4112
  659MOL0     C88883   6.057   7.330   8.852  0.0196  0.3996 -0.2638
  659MOL0     C88884   5.625   7.203   9.029 -0.6582  0.1851 -0.4060
  659MOL0     C88885   5.582   7.097   8.936 -0.3754  0.4651  0.1977
  659MOL0     C88886   5.444   7.053   8.933 -0.5140  0.0475  0.8895
  659MOL0     C88887   5.355   7.117   9.020 -0.4981 -0.3134  1.1650
  659MOL0     O88888   5.224   7.094   9.028  0.0455  0.5817  0.6008
  659MOL0     C88889   5.164   6.971   8.983  0.3547  0.0165  0.3745
  659MOL0     C88890   5.018   6.989   8.953  0.2783 -0.0825 -0.6417
  659MOL0     C88891   4.941   7.021   9.084 -0.5444  0.4999 -0.6553
  659MOL0     C88892   4.798   7.000   9.049  0.0648 -0.0784 -0.1737
  659MOL0     C88893   4.716   6.990   9.166 -0.5867 -0.7853  0.5454
  659MOL0     C88894   4.648   6.962   9.259 -0.5845  0.0038 -0.2349
  659MOL0     C88895   5.401   7.213   9.112 -0.1600  0.8644 -0.9706
  659MOL0     C88896   5.534   7.245   9.127 -0.9591  0.4914  0.3670
  659MOL0     C88897   5.560   7.338   9.243 -0.5535  0.2049 -0.1353
  659MOL0     H88898   6.023   7.045   9.025 -1.6695  1.1299  0.5204
  659MOL0     H88899   6.271   7.051   9.002  1.2784  1.7208  0.2864
  659MOL0     H88900   6.483   7.177   9.037  0.7416 -1.0901  0.4224
  659MOL0     H88901   6.460   7.049   8.928 -2.9648  0.7886 -0.3973
  659MOL0     H88902   6.657   7.291   8.879 -3.3105  0.9861  0.0776
  659MOL0     H88903   6.657   7.143   8.781  2.0422  3.0276 -0.8195
  659MOL0     H88904   6.741   7.009   8.971  1.1950 -0.2159 -1.2073
  659MOL0     H88905   6.731   7.144   9.071  2.1752 -3.0452  0.1937
  659MOL0     H88906   6.878   7.151   8.811 -0.9969  1.5915 -0.7533
  659MOL0     H88907   6.872   7.280   8.927 -1.1599 -0.5121  1.7603
  659MOL0     H88908   6.978   7.105   9.105  1.3047  2.3923  0.7716
  659MOL0     H88909   7.022   7.016   8.953  0.4819  0.5278  0.8013
  659MOL0     H88910   7.148   7.199   8.862 -1.4325 -1.3404 -1.2533
  659MOL0     H88911   7.076   7.301   8.996  0.9108  2.1395 -3.9029
  659MOL0     H88912   7.249   7.058   9.033 -0.1955 -0.1203  2.7376
  659MOL0     H88913   7.205   7.173   9.160  0.5084  0.7426  0.0907
  659MOL0     H88914   7.376   7.225   8.909  0.8354  0.2946  0.2001
  659MOL0     H88915   7.344   7.342   9.020 -1.3795 -0.3040 -1.9727
  659MOL0     H88916   7.413   6.993   9.199  0.5640 -0.9512 -0.0372
  659MOL0     H88917   7.773   6.975   9.308 -1.5198 -1.5808  4.4872
  659MOL0     H88918   7.612   6.936   9.358  0.5466  1.1015 -0.0793
  659MOL0     H88919   7.684   6.732   9.280 -0.6446 -0.0366 -0.3630
  659MOL0     H88920   7.566   6.780   9.174  0.3072  0.9971 -0.2301
  659MOL0     H88921   7.725   6.822   8.992  1.6455  0.6013 -0.3472
  659MOL0     H88922   7.784   6.674   9.069  1.4089  0.5316  0.8506
  659MOL0     H88923   7.894   6.947   9.086 -0.0311 -0.4166  0.0193
  659MOL0     H88924   7.953   6.799   9.011  1.1099 -2.7743  0.7987
  659MOL0     H88925   8.109   6.704   9.390  0.7309  0.1570  0.3823
  659MOL0     H88926   8.350   6.715   9.422  0.7755  1.0538  0.2679
  659MOL0     H88927   8.827   6.753   9.060  0.7029 -1.1803  0.7717
  659MOL0     H88928   9.048   6.764   9.121 -0.7943 -0.7266 -1.3263
  659MOL0     H88929   9.197   7.109   9.277  3.0598  0.5184  0.6405
  659MOL0     H88930   9.224   7.024   9.435  1.6248 -2.1199 -0.3774
  659MOL0     H88931   9.424   6.924   9.373 -0.2627 -1.0427 -1.1277
  659MOL0     H88932   9.403   6.976   9.200 -1.0902  1.5231 -0.2262
  659MOL0     H88933   9.418   7.205   9.260 -0.8843 -0.0263 -0.3946
  659MOL0     H88934   9.409   7.176   9.435  0.2515  0.9671 -0.2399
  659MOL0     H88935   9.632   7.096   9.228 -0.8373  0.6830 -0.1573
  659MOL0     H88936   9.633   7.039   9.393 -0.6660  2.2160  1.6027
  659MOL0     H88937   9.612   7.295   9.449  1.2267 -0.9711  1.2730
  659MOL0     H88938   9.631   7.321   9.278 -0.1155 -0.9928 -0.1577
  659MOL0     H88939   9.850   7.181   9.448 -1.7872 -1.6147 -0.3814
  659MOL0     H88940   9.864   7.243   9.288  2.5683 -1.6138  1.4966
  659MOL0     H88941   9.831   7.412   9.537  2.3562  0.6884  0.9370
  659MOL0     H88942   9.812   7.495   9.382 -1.6168 -1.8181 -0.0781
  659MOL0     H88943  10.038   7.406   9.309 -0.9924 -2.6099  0.4733
  659MOL0     H88944  10.037   7.538   9.426  2.4709  0.3286 -1.0263
  659MOL0     H88945   8.959   7.034   9.438 -0.2302 -1.2709  1.0509
  659MOL0     H88946   8.725   7.037   9.365 -0.7652 -0.2500 -0.5823
  659MOL0     H88947   8.382   6.945   9.054  0.5590  1.3221  2.4079
  659MOL0     H88948   8.128   6.930   9.036 -0.1514 -0.0513 -0.4982
  659MOL0     H88949   6.255   7.400   8.790  0.3498 -0.3057  1.6168
  659MOL0     H88950   5.998   7.411   8.810 -3.7942 -3.1162 -2.3960
  659MOL0     H88951   5.652   7.056   8.863 -2.2391  2.5279 -3.0210
  659MOL0     H88952   5.414   6.978   8.860  3.0025  1.9160 -2.9221
  659MOL0     H88953   5.181   6.893   9.058 -4.0903  1.4638  3.2576
  659MOL0     H88954   5.205   6.942   8.886  0.6660  0.6207  0.3194
  659MOL0     H88955   4.982   6.897   8.905  2.9254 -1.1903 -0.6987
  659MOL0     H88956   5.004   7.069   8.880  0.7108  1.0687  0.5064
  659MOL0     H88957   4.967   7.120   9.122  4.3104 -1.3017  1.4835
  659MOL0     H88958   4.972   6.948   9.160 -1.4242  0.7141 -0.0775
  659MOL0     H88959   4.772   7.094   9.000  0.8471  0.2578  0.0376
  659MOL0     H88960   4.779   6.906   8.996  0.9450 -0.2924 -0.1270
  659MOL0     H88961   4.583   6.917   9.332  0.8351 -0.0317  1.0485
  659MOL0     H88962   5.328   7.233   9.190  0.4866 -0.8557  0.1413
  659MOL0     H88963   5.660   7.317   9.282 -0.7285  1.1185  0.8559
  659MOL0     H88964   5.572   7.442   9.213 -1.2933  0.2766 -0.1960
  659MOL0     H88965   5.489   7.337   9.326 -0.2064  0.1322  0.1670
  660MOL0     O88966   1.239   1.515   1.677  0.0832 -1.3483  0.4728
  660MOL0     C88967   1.217   1.448   1.777 -0.7577  0.2836 -0.1084
  660MOL0     O88968   1.316   1.387   1.836  0.3736 -0.1201 -0.1635
  660MOL0     C88969   1.438   1.453   1.832  0.0253  0.0429 -0.5894
  660MOL0     C88970   1.542   1.388   1.756 -0.2126  0.5048  0.2422
  660MOL0     C88971   1.663   1.459   1.738 -0.3533  0.3089  1.1298
  660MOL0     C88972   1.690   1.584   1.798  0.0473 -0.0498  0.1637
  660MOL0     O88973   1.816   1.626   1.783  0.0985 -0.0225 -0.6492
  660MOL0     C88974   1.854   1.753   1.838 -0.4399  0.3157  0.4895
  660MOL0     C88975   1.988   1.777   1.772  0.0278  0.0925 -0.1782
  660MOL0     C88976   2.095   1.714   1.857 -0.3699 -0.0028  0.4994
  660MOL0     C88977   2.218   1.701   1.766 -0.6277 -0.1145 -0.2195
  660MOL0     C88978   2.344   1.672   1.851 -0.3261 -0.0555  1.3839
  660MOL0     C88979   2.467   1.704   1.763  0.1454  0.7802  0.0291
  660MOL0     C88980   2.596   1.682   1.835 -0.9735  0.5437 -0.7273
  660MOL0     C88981   2.719   1.694   1.742 -0.8101 -0.6195  1.1193
  660MOL0     N88982   2.845   1.689   1.818  0.5525 -0.6964 -0.0844
  660MOL0     C88983   2.876   1.592   1.914 -0.4656 -0.2132 -0.2911
  660MOL0     C88984   3.009   1.634   1.946 -0.1016 -0.1723  0.0705
  660MOL0     C88985   3.095   1.553   2.047  0.6970 -0.2347  0.1445
  660MOL0     C88986   3.159   1.643   2.151  0.2701  0.3335  0.4751
  660MOL0     C88987   3.257   1.580   2.242 -0.0726  0.3233 -0.2154
  660MOL0     C88988   3.328   1.687   2.336 -0.4531 -0.5183 -1.3101
  660MOL0     O88989   3.414   1.605   2.420 -0.4724  0.2993  0.3677
  660MOL0     C88990   3.499   1.665   2.511  0.2601  0.0493 -0.5429
  660MOL0     C88991   3.570   1.579   2.592  0.4104 -0.2493  0.3564
  660MOL0     C88992   3.662   1.628   2.675 -0.2229  0.6776  1.1419
  660MOL0     C88993   3.681   1.773   2.695  0.2325  0.3483 -0.0010
  660MOL0     C88994   3.776   1.829   2.792 -0.5336  0.2920  0.7485
  660MOL0     O88995   3.845   1.744   2.864  0.0359  0.0404 -0.2286
  660MOL0     C88996   3.975   1.757   2.901  0.5025  0.0317  0.0236
  660MOL0     C88997   4.048   1.644   2.916 -0.3164 -0.4777 -0.1511
  660MOL0     C88998   4.189   1.657   2.929  0.0911 -0.0380  0.3761
  660MOL0     C88999   4.251   1.784   2.950  0.6969  0.4903  0.6922
  660MOL0     O89000   4.382   1.809   2.976  0.4928 -0.0745 -0.5053
  660MOL0     C89001   4.446   1.706   3.057 -0.0520 -0.0585  0.3845
  660MOL0     C89002   4.587   1.743   3.112  1.1156  0.3425  0.4572
  660MOL0     C89003   4.678   1.786   3.004  0.3682  0.0691  0.0082
  660MOL0     C89004   4.820   1.814   3.058 -0.0054  0.1693  0.1695
  660MOL0     C89005   4.914   1.852   2.950  0.5110 -0.5707 -0.2614
  660MOL0     C89006   5.056   1.875   3.010 -0.2156  0.3209 -0.1408
  660MOL0     C89007   5.135   1.963   2.919  0.2715  0.9364  0.8109
  660MOL0     C89008   5.261   2.020   2.970 -0.1884  0.3213  0.1758
  660MOL0    Cl89009   5.377   1.886   3.007  0.1036 -0.1767 -0.2127
  660MOL0     C89010   4.179   1.899   2.956  0.1821  0.3273 -0.3756
  660MOL0     C89011   4.039   1.881   2.925 -0.5540  0.1278 -0.0714
  660MOL0     O89012   3.809   1.950   2.780  0.1111  0.4088  0.5275
  660MOL0     C89013   3.600   1.859   2.614 -0.1317 -0.0568  0.4899
  660MOL0     C89014   3.510   1.808   2.519  0.3527  0.2035  0.1752
  660MOL0     N89015   3.039   1.744   1.876 -0.2823  0.2650  0.4784
  660MOL0     N89016   2.947   1.774   1.798 -0.4852  0.0403 -1.1236
  660MOL0     C89017   1.583   1.647   1.866 -0.1220 -0.6124  0.1247
  660MOL0     C89018   1.454   1.586   1.873  0.6092  0.1466  0.4382
  660MOL0     C89019   1.079   1.459   1.827  0.0169  0.1951 -0.5833
  660MOL0     C89020   0.977   1.512   1.747  0.0304 -0.0816 -0.8763
  660MOL0     C89021   0.840   1.509   1.796  0.0126 -0.2711 -0.2907
  660MOL0     C89022   0.804   1.458   1.924 -0.3218  0.3054  0.3197
  660MOL0     O89023   0.671   1.462   1.950  0.5510 -0.4179  0.0467
  660MOL0     C89024   0.628   1.388   2.051  0.6024  0.2870 -0.7971
  660MOL0     C89025   0.473   1.393   2.049  1.1812  0.4712  0.7071
  660MOL0     C89026   0.409   1.363   2.189 -0.7435  0.4875 -0.5868
  660MOL0     C89027   0.257   1.382   2.191 -0.6886  0.1404 -0.1743
  660MOL0     C89028   0.181   1.269   2.140  0.9978 -0.7952 -0.6648
  660MOL0     C89029   0.104   1.190   2.098 -0.4229 -0.0488  0.4647
  660MOL0     C89030   0.910   1.423   2.006 -0.2897  0.3299  0.0475
  660MOL0     C89031   1.046   1.426   1.963 -0.3077  0.2531 -0.0933
  660MOL0     C89032   1.158   1.399   2.062  0.2867 -0.2492 -0.1641
  660MOL0     H89033   1.522   1.289   1.717  1.3286  1.4460 -3.2916
  660MOL0     H89034   1.738   1.420   1.670  0.3493  0.5711  1.7485
  660MOL0     H89035   1.785   1.836   1.821 -0.0026  0.4339 -0.7991
  660MOL0     H89036   1.862   1.719   1.942  0.4482 -0.4516  0.1863
  660MOL0     H89037   2.006   1.885   1.781 -1.2545  0.1707  2.3308
  660MOL0     H89038   1.992   1.754   1.665  0.4902 -0.2383 -0.0933
  660MOL0     H89039   2.070   1.614   1.894  2.8813 -0.7150  1.1445
  660MOL0     H89040   2.122   1.771   1.947  1.4199 -0.9414  0.6170
  660MOL0     H89041   2.207   1.625   1.689 -1.4291  0.3998 -0.6255
  660MOL0     H89042   2.232   1.796   1.713  0.3332 -0.4126 -0.5230
  660MOL0     H89043   2.346   1.743   1.934  0.8658 -0.8903  2.0952
  660MOL0     H89044   2.340   1.567   1.879  0.4726 -0.1482  1.1662
  660MOL0     H89045   2.464   1.650   1.668  0.8523  2.1206 -0.7761
  660MOL0     H89046   2.460   1.808   1.729  0.4688  0.8069  0.0388
  660MOL0     H89047   2.588   1.585   1.885  1.4939  1.5713  1.9625
  660MOL0     H89048   2.600   1.754   1.918  2.0406 -0.0401 -0.2289
  660MOL0     H89049   2.718   1.622   1.660 -0.5607  2.0594 -1.3666
  660MOL0     H89050   2.722   1.792   1.693  0.3842 -0.6311  1.1304
  660MOL0     H89051   2.826   1.509   1.964  1.6434 -0.5893  1.3490
  660MOL0     H89052   3.024   1.486   2.096 -0.5525  1.7628  1.1653
  660MOL0     H89053   3.176   1.501   1.994  0.8072 -1.8583  1.8123
  660MOL0     H89054   3.199   1.731   2.098  0.1056  0.6209  0.8214
  660MOL0     H89055   3.082   1.667   2.225  0.4540 -1.4150  1.2623
  660MOL0     H89056   3.335   1.539   2.178  0.7955 -1.4305  1.8256
  660MOL0     H89057   3.210   1.497   2.295 -1.5731  0.6963 -0.9111
  660MOL0     H89058   3.249   1.741   2.389  1.0048 -0.3468  0.8376
  660MOL0     H89059   3.385   1.754   2.271  1.5045  0.1163  0.8955
  660MOL0     H89060   3.541   1.474   2.589  2.2430 -0.8421 -3.5953
  660MOL0     H89061   3.716   1.552   2.732 -0.0377  0.3682  0.5595
  660MOL0     H89062   4.024   1.541   2.892  2.1843 -1.4318  1.0759
  660MOL0     H89063   4.240   1.563   2.944 -2.3169 -1.4754  0.0070
  660MOL0     H89064   4.376   1.672   3.134 -0.9434 -0.6050 -0.6377
  660MOL0     H89065   4.469   1.615   3.001  3.1733  0.4683  0.6631
  660MOL0     H89066   4.578   1.815   3.194 -2.8560  0.2148  0.2929
  660MOL0     H89067   4.631   1.653   3.157  1.9201 -0.1235 -1.1817
  660MOL0     H89068   4.686   1.705   2.931 -1.9399 -0.4704  0.2560
  660MOL0     H89069   4.640   1.880   2.961  0.5149  0.7085  1.2256
  660MOL0     H89070   4.862   1.725   3.106 -0.8881 -0.5595 -0.3720
  660MOL0     H89071   4.818   1.897   3.130 -3.4298  0.1707  0.2180
  660MOL0     H89072   4.877   1.941   2.898  0.4594 -0.0805  0.5971
  660MOL0     H89073   4.928   1.780   2.869  2.5331 -0.5018 -0.0240
  660MOL0     H89074   5.037   1.931   3.102 -4.0614 -3.4969  1.7833
  660MOL0     H89075   5.106   1.781   3.035 -0.8977  0.1121  0.4851
  660MOL0     H89076   5.080   2.056   2.901  0.2749  0.8171  0.1740
  660MOL0     H89077   5.156   1.908   2.826  2.2820  2.5793  0.2387
  660MOL0     H89078   5.307   2.085   2.895 -0.7624 -0.0865 -0.5416
  660MOL0     H89079   5.243   2.079   3.061 -0.8442  1.7410 -0.8453
  660MOL0     H89080   4.221   1.999   2.965 -1.7512  1.1860 -0.4542
  660MOL0     H89081   3.982   1.973   2.930 -2.1791 -0.9047  1.8006
  660MOL0     H89082   3.629   1.964   2.609 -0.1114 -0.0853 -0.0294
  660MOL0     H89083   3.459   1.875   2.451  0.1394  0.9743  1.0820
  660MOL0     H89084   1.604   1.740   1.918  2.4120  0.4470 -2.5270
  660MOL0     H89085   1.372   1.638   1.920 -1.4114 -0.4521 -2.2379
  660MOL0     H89086   0.993   1.564   1.653 -0.0789  0.5130 -0.5737
  660MOL0     H89087   0.768   1.549   1.726  2.6390 -0.3283 -3.2362
  660MOL0     H89088   0.678   1.426   2.141  1.3330  0.8211 -1.4172
  660MOL0     H89089   0.656   1.282   2.051  0.2147  0.0770  2.2268
  660MOL0     H89090   0.441   1.302   1.997 -0.1752  0.4315  1.5679
  660MOL0     H89091   0.435   1.488   2.012  1.5187  0.9565  1.5685
  660MOL0     H89092   0.468   1.432   2.249 -2.1369  0.5526  0.7634
  660MOL0     H89093   0.438   1.264   2.227 -1.3363  0.6922  0.4237
  660MOL0     H89094   0.224   1.399   2.294 -0.1484 -0.1742  0.0578
  660MOL0     H89095   0.236   1.472   2.132  0.7309  0.9209  0.4605
  660MOL0     H89096   0.028   1.119   2.072 -1.2667  0.9668  0.0561
  660MOL0     H89097   0.893   1.398   2.110 -0.3666 -0.3487 -0.1229
  660MOL0     H89098   1.128   1.394   2.167 -0.3768  0.9070 -0.2851
  660MOL0     H89099   1.212   1.305   2.044 -0.0484 -0.3697 -0.5380
  660MOL0     H89100   1.226   1.484   2.054 -0.2081  0.1931  0.2874
  661MOL0     O89101   6.991   9.235   7.862  0.4037 -0.0110 -0.0045
  661MOL0     C89102   6.986   9.217   7.983 -0.1591  0.3331 -0.0024
  661MOL0     O89103   7.072   9.267   8.074  0.3264  0.3093  0.2749
  661MOL0     C89104   7.142   9.376   8.029  0.2311 -0.4755 -0.2107
  661MOL0     C89105   7.284   9.376   8.038 -0.0557  0.5983  0.1922
  661MOL0     C89106   7.357   9.501   8.019  1.0607  0.5527 -0.3694
  661MOL0     C89107   7.296   9.623   7.977 -0.3890  0.8114 -0.5090
  661MOL0     O89108   7.348   9.739   7.937  0.1621  0.2130  0.3962
  661MOL0     C89109   7.491   9.742   7.909 -0.9563 -0.6353 -0.6396
  661MOL0     C89110   7.526   9.655   7.784  0.4028 -0.2076 -0.1642
  661MOL0     C89111   7.674   9.601   7.782 -0.7177 -0.1440 -0.2704
  661MOL0     C89112   7.682   9.447   7.809 -0.0243 -0.1920  1.4152
  661MOL0     C89113   7.806   9.394   7.736  0.2032 -0.0037  0.0858
  661MOL0     C89114   7.929   9.469   7.752  0.6018 -0.3312  0.0446
  661MOL0     C89115   8.030   9.391   7.661  0.5356  0.0024 -0.1952
  661MOL0     C89116   8.161   9.466   7.686  0.0188 -0.1459  0.1485
  661MOL0     N89117   8.282   9.396   7.638 -0.1432  0.2274  0.8133
  661MOL0     C89118   8.301   9.369   7.506  0.5314  0.1011  0.4864
  661MOL0     C89119   8.441   9.339   7.497  1.7668 -0.6049  0.0869
  661MOL0     C89120   8.511   9.303   7.368 -0.2274  0.1481  0.9522
  661MOL0     C89121   8.652   9.354   7.366  0.3715 -0.9827 -0.2321
  661MOL0     C89122   8.756   9.254   7.398  0.0129  0.1402 -0.1176
  661MOL0     C89123   8.907   9.271   7.362  0.1317 -0.3253  0.0523
  661MOL0     O89124   8.932   9.204   7.238  0.4801 -0.3470 -0.1710
  661MOL0     C89125   9.054   9.223   7.180 -0.0061  0.1115 -0.4258
  661MOL0     C89126   9.069   9.147   7.064 -0.1041 -0.4406 -0.2109
  661MOL0     C89127   9.196   9.141   7.003 -0.2348  0.7346 -0.0104
  661MOL0     C89128   9.307   9.209   7.061  0.3636  0.6101 -0.2498
  661MOL0     C89129   9.443   9.179   7.009  0.1958 -0.2506  0.3806
  661MOL0     O89130   9.461   9.095   6.902 -0.0778 -0.5946 -0.0155
  661MOL0     C89131   9.586   9.072   6.865  0.9778  0.0492 -0.3782
  661MOL0     C89132   9.662   8.971   6.925  0.0409  0.4473 -0.0747
  661MOL0     C89133   9.796   8.965   6.895 -0.8478 -0.1718  0.0683
  661MOL0     C89134   9.858   9.069   6.820  0.2549  0.1325 -0.4424
  661MOL0     O89135   9.996   9.062   6.816  1.1285  0.2625 -0.3654
  661MOL0     C89136  10.065   9.115   6.702  0.1938  0.5832 -0.1008
  661MOL0     C89137  10.200   9.056   6.680 -0.3366 -0.1524 -0.4406
  661MOL0     C89138  10.288   9.119   6.783 -0.3682 -0.2863 -0.3415
  661MOL0     C89139  10.433   9.077   6.776  0.1629  0.5510  0.9140
  661MOL0     C89140  10.516   9.148   6.883 -0.2103 -0.1765 -0.5163
  661MOL0     C89141  10.659   9.163   6.824  0.4791  0.3272 -0.9763
  661MOL0     C89142  10.764   9.221   6.932  0.0581 -0.1743 -0.7104
  661MOL0     C89143  10.900   9.213   6.870 -0.1116  0.6132 -0.7049
  661MOL0    Cl89144  10.927   9.331   6.735  0.2027  0.3037  0.4402
  661MOL0     C89145   9.774   9.169   6.761 -0.7090 -0.5522  0.3259
  661MOL0     C89146   9.639   9.164   6.780  0.6273  0.4766  1.0311
  661MOL0     O89147   9.535   9.233   7.075  0.5731  0.9051 -0.2571
  661MOL0     C89148   9.287   9.291   7.174 -0.8824 -0.0697  0.1023
  661MOL0     C89149   9.158   9.309   7.228  0.4618  0.5136  0.2939
  661MOL0     N89150   8.486   9.333   7.633  0.8945 -0.5085 -0.1596
  661MOL0     N89151   8.388   9.371   7.713 -0.0428 -0.3443  0.5862
  661MOL0     C89152   7.152   9.617   7.976 -0.1690  0.2036 -0.2957
  661MOL0     C89153   7.080   9.504   8.008 -0.1862  1.1998  0.8123
  661MOL0     C89154   6.872   9.130   8.036 -0.6563 -0.6085  0.1251
  661MOL0     C89155   6.829   9.147   8.174 -1.2157  0.4224  0.6506
  661MOL0     C89156   6.722   9.072   8.230 -0.1016  0.0228  0.1818
  661MOL0     C89157   6.656   8.984   8.143 -0.3310 -0.6394  0.2691
  661MOL0     O89158   6.547   8.916   8.190 -0.0427  0.3107 -0.2862
  661MOL0     C89159   6.466   8.818   8.120  0.7031 -0.3565 -0.4111
  661MOL0     C89160   6.386   8.894   8.013  0.1508 -0.0440 -0.0578
  661MOL0     C89161   6.238   8.931   8.048  0.2744  0.7989  0.1941
  661MOL0     C89162   6.217   8.993   8.191  0.0826  0.0736  0.6863
  661MOL0     C89163   6.092   9.076   8.197  0.0974  0.5868 -0.0615
  661MOL0     C89164   5.996   9.147   8.184 -0.7345 -0.6709  0.1934
  661MOL0     C89165   6.689   8.971   8.012 -0.3342 -0.3231  0.0710
  661MOL0     C89166   6.790   9.046   7.954  0.0357 -0.7238  0.1162
  661MOL0     C89167   6.827   9.008   7.811  0.5791 -0.1101 -0.7401
  661MOL0     H89168   7.338   9.285   8.060 -1.4177  0.2794  2.6842
  661MOL0     H89169   7.465   9.502   8.029  1.0740 -0.3755 -0.3188
  661MOL0     H89170   7.519   9.846   7.888 -1.2668  0.2133  2.6155
  661MOL0     H89171   7.536   9.707   8.003 -3.1313  0.3495  0.8459
  661MOL0     H89172   7.518   9.713   7.692  0.2015 -0.6877 -0.4539
  661MOL0     H89173   7.453   9.574   7.771 -0.4360  0.5956 -0.5940
  661MOL0     H89174   7.738   9.650   7.855  0.6554 -2.3294  0.1128
  661MOL0     H89175   7.710   9.630   7.682 -3.5936  1.3454 -0.9845
  661MOL0     H89176   7.698   9.429   7.916 -0.3469 -0.3465  1.4374
  661MOL0     H89177   7.603   9.385   7.767  1.5139 -0.6174 -1.0715
  661MOL0     H89178   7.828   9.293   7.771  3.8798  0.9963  1.1790
  661MOL0     H89179   7.768   9.384   7.634  0.7689  1.9227 -0.3549
  661MOL0     H89180   7.920   9.575   7.730 -2.1237 -0.2639  1.1877
  661MOL0     H89181   7.959   9.470   7.857 -1.6608  3.8588  0.8729
  661MOL0     H89182   7.998   9.395   7.556  1.6354 -2.3367 -0.6856
  661MOL0     H89183   8.042   9.284   7.680 -2.5937 -0.5664 -0.8347
  661MOL0     H89184   8.151   9.560   7.630 -1.4877 -0.5816 -0.3621
  661MOL0     H89185   8.177   9.488   7.792  0.1079  2.6678 -0.3788
  661MOL0     H89186   8.231   9.375   7.423  1.4397 -2.4824 -0.5931
  661MOL0     H89187   8.508   9.197   7.345 -1.3901  0.6775 -1.6757
  661MOL0     H89188   8.464   9.349   7.280  1.6954 -1.1872 -0.8563
  661MOL0     H89189   8.666   9.400   7.268 -1.5719 -0.8238 -0.4649
  661MOL0     H89190   8.662   9.435   7.439 -1.2313 -1.8491  1.0054
  661MOL0     H89191   8.727   9.157   7.357  0.8134  0.9225 -2.6817
  661MOL0     H89192   8.760   9.232   7.505  4.0527 -4.6533 -0.8894
  661MOL0     H89193   8.974   9.227   7.436  1.7004  1.7939 -0.0236
  661MOL0     H89194   8.930   9.377   7.349 -2.4841  0.4065  0.6597
  661MOL0     H89195   8.987   9.081   7.037 -2.6981  2.3479  0.3709
  661MOL0     H89196   9.217   9.093   6.908  2.5664  0.1628  0.7941
  661MOL0     H89197   9.616   8.893   6.984  0.8560 -0.5295 -0.6858
  661MOL0     H89198   9.848   8.885   6.947 -0.1317  0.3104  0.1055
  661MOL0     H89199  10.016   9.083   6.609  2.8969 -0.5142 -1.2536
  661MOL0     H89200  10.073   9.224   6.689  1.3277  0.2628 -3.0143
  661MOL0     H89201  10.197   8.947   6.692 -3.3291  0.0190  1.7906
  661MOL0     H89202  10.237   9.077   6.580  0.5524 -0.1396 -0.1170
  661MOL0     H89203  10.282   9.229   6.779 -0.6985 -0.2983 -0.2581
  661MOL0     H89204  10.258   9.095   6.885  1.8307  0.5438  0.5757
  661MOL0     H89205  10.474   9.087   6.675 -0.0327 -2.0778  0.5072
  661MOL0     H89206  10.445   8.971   6.801 -0.2732  0.3512  0.3179
  661MOL0     H89207  10.509   9.108   6.985  0.3812 -0.5782 -0.6321
  661MOL0     H89208  10.480   9.252   6.879  2.0842  0.7182  0.3408
  661MOL0     H89209  10.705   9.072   6.785  2.0652  0.6518  0.0364
  661MOL0     H89210  10.657   9.232   6.739 -1.3659 -0.8026 -1.9191
  661MOL0     H89211  10.763   9.153   7.018 -0.4607  2.4470  1.4659
  661MOL0     H89212  10.743   9.322   6.967 -0.9816 -0.5887 -0.0552
  661MOL0     H89213  10.975   9.242   6.944  0.3742  0.0499 -0.9598
  661MOL0     H89214  10.916   9.107   6.846 -0.9245 -0.2064  2.0376
  661MOL0     H89215   9.817   9.251   6.703 -3.4590  1.5426  1.0314
  661MOL0     H89216   9.585   9.238   6.722 -0.2223  0.2721  1.5572
  661MOL0     H89217   9.372   9.341   7.220 -1.3284  1.5099 -0.7197
  661MOL0     H89218   9.142   9.371   7.316 -1.2637  0.2288  0.2013
  661MOL0     H89219   7.099   9.704   7.939 -0.3080  1.6804  2.9734
  661MOL0     H89220   6.973   9.517   8.015 -0.2005  2.6958 -1.3961
  661MOL0     H89221   6.887   9.210   8.240 -2.0582  1.1599  0.7030
  661MOL0     H89222   6.681   9.087   8.330  0.5556  2.9268  0.1102
  661MOL0     H89223   6.391   8.776   8.188  2.2146 -0.5396  1.2050
  661MOL0     H89224   6.528   8.733   8.090 -2.4036 -2.3569 -1.6566
  661MOL0     H89225   6.380   8.841   7.917  1.7023 -1.7078  0.7028
  661MOL0     H89226   6.432   8.991   7.987  2.1042 -1.1108 -0.8090
  661MOL0     H89227   6.185   8.835   8.040 -0.2069  0.9282  1.5730
  661MOL0     H89228   6.205   8.998   7.968 -0.5194  0.4725  0.2374
  661MOL0     H89229   6.202   8.906   8.256  0.9126 -1.6762 -1.3595
  661MOL0     H89230   6.311   9.047   8.207  1.3238 -0.8394 -2.6529
  661MOL0     H89231   5.916   9.213   8.158  1.2003  1.5243 -0.6074
  661MOL0     H89232   6.646   8.884   7.963 -1.5542 -0.4912  1.3555
  661MOL0     H89233   6.763   8.925   7.781  1.2173 -0.2514 -1.7534
  661MOL0     H89234   6.816   9.095   7.746  0.1901  2.3799  2.3899
  661MOL0     H89235   6.932   8.978   7.803  0.5050 -0.5699 -0.0836
  662MOL0     O89236   7.184   6.476  10.339  0.4256 -0.2771  0.2814
  662MOL0     C89237   7.161   6.441  10.223  1.0506  0.4596  0.5692
  662MOL0     O89238   7.248   6.429  10.124  0.3424  0.7942  0.1356
  662MOL0     C89239   7.376   6.473  10.143 -0.2259 -0.5220  0.8226
  662MOL0     C89240   7.440   6.553  10.039  0.7280  0.0121 -1.0378
  662MOL0     C89241   7.573   6.592  10.050  0.1283  0.4815 -0.4146
  662MOL0     C89242   7.652   6.547  10.160 -0.0447  0.4078 -0.1662
  662MOL0     O89243   7.785   6.587  10.161  0.7222 -0.1943 -0.3310
  662MOL0     C89244   7.852   6.589  10.278  0.1182  0.0716 -0.7055
  662MOL0     C89245   7.990   6.645  10.252 -0.0049 -0.0731  0.3424
  662MOL0     C89246   8.063   6.564  10.156 -0.5907  0.2031  0.5004
  662MOL0     C89247   8.189   6.648  10.120 -0.3562  0.3631  0.7883
  662MOL0     C89248   8.269   6.581   9.999 -0.3154  0.7728 -0.7601
  662MOL0     C89249   8.387   6.661   9.956  0.9986  0.2202  0.6886
  662MOL0     C89250   8.449   6.596   9.822  0.2505  0.0049 -0.0012
  662MOL0     C89251   8.590   6.658   9.806  0.6745  0.2063 -0.9704
  662MOL0     N89252   8.672   6.579   9.724 -0.2139 -1.4304  0.5099
  662MOL0     C89253   8.632   6.545   9.593 -0.2160 -0.1456  0.9791
  662MOL0     C89254   8.728   6.464   9.541  0.8025  0.2217 -0.5227
  662MOL0     C89255   8.734   6.405   9.414  0.4782  0.5175  0.3664
  662MOL0     C89256   8.844   6.468   9.317  0.5080  0.2631 -0.4415
  662MOL0     C89257   8.985   6.423   9.368  0.1889 -0.6001  0.2929
  662MOL0     C89258   9.103   6.492   9.308 -0.6588  0.0890  0.1064
  662MOL0     O89259   9.093   6.470   9.164 -0.2093  0.0069 -0.2609
  662MOL0     C89260   9.197   6.522   9.089  0.9388  0.4034 -0.6074
  662MOL0     C89261   9.311   6.596   9.124 -1.3484 -0.3407 -0.6207
  662MOL0     C89262   9.403   6.634   9.029 -0.0770 -0.7944  0.7157
  662MOL0     C89263   9.394   6.586   8.897 -0.5051  0.0469  0.0683
  662MOL0     C89264   9.503   6.599   8.795  0.4763  0.1023  0.1206
  662MOL0     O89265   9.483   6.562   8.659  0.1613 -0.1348  0.3457
  662MOL0     C89266   9.586   6.566   8.572 -0.6849 -0.6570 -0.5430
  662MOL0     C89267   9.644   6.683   8.541 -0.2344 -0.7597 -0.6675
  662MOL0     C89268   9.751   6.688   8.459 -0.5629 -0.2114  0.4416
  662MOL0     C89269   9.786   6.583   8.377 -0.2726 -0.0992  0.2416
  662MOL0     O89270   9.892   6.597   8.284  0.0299  0.1868 -0.0802
  662MOL0     C89271   9.963   6.480   8.253  0.6970  0.2006  0.0590
  662MOL0     C89272  10.037   6.416   8.367 -0.3943 -0.2575 -0.9023
  662MOL0     C89273  10.155   6.506   8.428  0.2844  0.5708  0.1698
  662MOL0     C89274  10.106   6.615   8.527 -0.0460 -0.0827  0.0123
  662MOL0     C89275  10.220   6.693   8.602  0.6373  0.8476 -0.5746
  662MOL0     C89276  10.329   6.768   8.514  0.3547 -0.0689 -0.4184
  662MOL0     C89277  10.410   6.873   8.589  0.0057 -0.1376  0.1264
  662MOL0     C89278  10.543   6.900   8.510  0.2508 -0.8349 -0.5551
  662MOL0    Cl89279  10.501   6.965   8.353 -0.6711 -0.3343 -0.3256
  662MOL0     C89280   9.716   6.463   8.393 -0.1882 -0.1599 -0.7897
  662MOL0     C89281   9.618   6.451   8.497  0.9897  0.0920  0.0687
  662MOL0     O89282   9.610   6.640   8.842  0.0778 -0.2938 -0.0372
  662MOL0     C89283   9.283   6.518   8.859 -0.3084  0.6786 -0.2990
  662MOL0     C89284   9.188   6.486   8.953  0.3378 -0.1244 -0.6121
  662MOL0     N89285   8.811   6.429   9.647  0.2671 -0.6816  0.1102
  662MOL0     N89286   8.769   6.495   9.756 -0.6013 -0.3428 -0.1760
  662MOL0     C89287   7.583   6.478  10.260  0.6615  0.1808  0.3042
  662MOL0     C89288   7.450   6.429  10.248  0.8947  0.6079 -0.0023
  662MOL0     C89289   7.022   6.380  10.191 -0.5855  0.7674  0.0588
  662MOL0     C89290   7.004   6.308  10.071  0.3539 -1.1557 -0.7833
  662MOL0     C89291   6.890   6.243  10.045  0.0964 -0.0608 -0.1472
  662MOL0     C89292   6.783   6.248  10.134  0.5276  0.6147  1.0384
  662MOL0     O89293   6.673   6.176  10.130  0.6363  0.0186 -0.0401
  662MOL0     C89294   6.628   6.105  10.010  0.0681 -0.6857  0.3539
  662MOL0     C89295   6.471   6.074  10.015  0.3648  0.4022  0.2301
  662MOL0     C89296   6.437   5.973   9.915  0.0403  0.6979  0.1076
  662MOL0     C89297   6.294   5.927   9.939  0.0025  0.0330  0.3049
  662MOL0     C89298   6.219   5.898   9.815  0.4824  0.2650 -0.4070
  662MOL0     C89299   6.175   5.886   9.702 -0.2380 -0.1689  0.0457
  662MOL0     C89300   6.793   6.319  10.254  0.1827 -0.7113 -0.2839
  662MOL0     C89301   6.909   6.392  10.278  0.0397  0.3203 -1.3546
  662MOL0     C89302   6.900   6.454  10.422 -0.2993  0.0855 -0.1810
  662MOL0     H89303   7.387   6.584   9.950 -0.9905  0.6562  0.1527
  662MOL0     H89304   7.622   6.646   9.969  3.2679  1.0770  1.6880
  662MOL0     H89305   7.797   6.654  10.348  1.4968 -0.5650  1.0509
  662MOL0     H89306   7.857   6.485  10.312  2.0004  0.0665 -0.8924
  662MOL0     H89307   8.056   6.635  10.339  0.1963 -0.7541  0.1164
  662MOL0     H89308   7.968   6.748  10.224  1.3633  0.4260  1.0136
  662MOL0     H89309   8.012   6.551  10.060 -1.9611  0.7597  1.1237
  662MOL0     H89310   8.086   6.465  10.196 -0.3767 -1.2084 -2.8545
  662MOL0     H89311   8.156   6.746  10.085 -3.8858 -0.4529  1.4870
  662MOL0     H89312   8.252   6.660  10.208  0.3494  0.2243  0.3096
  662MOL0     H89313   8.298   6.481  10.031  2.2912  0.6755 -3.0946
  662MOL0     H89314   8.209   6.579   9.907 -0.5955 -0.9604 -0.5636
  662MOL0     H89315   8.365   6.767   9.948  1.0016  0.2024  0.4145
  662MOL0     H89316   8.461   6.651  10.036  0.1689  0.6300  1.5187
  662MOL0     H89317   8.376   6.626   9.746 -1.1222 -1.5657  0.6404
  662MOL0     H89318   8.441   6.487   9.826 -2.0824  0.1033 -0.7056
  662MOL0     H89319   8.582   6.757   9.761 -1.0587  0.7905  0.4791
  662MOL0     H89320   8.641   6.671   9.902 -0.7560  1.3121 -0.3265
  662MOL0     H89321   8.548   6.574   9.531  0.0038 -1.6484 -0.0683
  662MOL0     H89322   8.760   6.300   9.431 -0.3290  0.6251  2.5605
  662MOL0     H89323   8.638   6.420   9.362 -0.8361  3.0974  3.2611
  662MOL0     H89324   8.835   6.436   9.213 -1.6323  2.2555 -0.9591
  662MOL0     H89325   8.837   6.577   9.323 -0.4842  0.1802  0.0169
  662MOL0     H89326   8.998   6.317   9.343  2.0514 -0.2803 -0.2154
  662MOL0     H89327   9.003   6.442   9.474  0.4971  0.9787 -0.0312
  662MOL0     H89328   9.199   6.463   9.352 -0.6490 -0.0264  0.0095
  662MOL0     H89329   9.094   6.600   9.319  0.1420  0.4538 -2.2293
  662MOL0     H89330   9.333   6.630   9.225  0.0929 -0.4395 -0.8767
  662MOL0     H89331   9.492   6.692   9.048  0.2859 -1.2182  0.3449
  662MOL0     H89332   9.619   6.779   8.586  0.7469 -0.5479 -0.5542
  662MOL0     H89333   9.820   6.768   8.433  0.8505 -1.1163  1.2577
  662MOL0     H89334   9.903   6.401   8.207  1.6648 -0.3956 -0.1860
  662MOL0     H89335  10.033   6.499   8.172  2.0407 -1.7574  0.6939
  662MOL0     H89336   9.975   6.391   8.454  2.3774 -3.0557  0.4592
  662MOL0     H89337  10.093   6.330   8.329  1.3987  1.3052 -1.9042
  662MOL0     H89338  10.223   6.434   8.476 -1.1477 -1.6035 -0.9087
  662MOL0     H89339  10.223   6.549   8.354  0.6056 -0.7964 -0.3576
  662MOL0     H89340  10.027   6.571   8.587 -0.2764 -0.1896 -0.3630
  662MOL0     H89341  10.056   6.692   8.467  0.9922  2.3644  2.0965
  662MOL0     H89342  10.258   6.616   8.671 -4.3115 -1.9481 -0.4682
  662MOL0     H89343  10.165   6.761   8.668  1.4527  1.5453 -0.5845
  662MOL0     H89344  10.393   6.701   8.456  0.0252  0.4170 -1.3582
  662MOL0     H89345  10.275   6.832   8.444 -0.7742  0.9396  1.2731
  662MOL0     H89346  10.438   6.827   8.684  0.9247  2.3417  1.1234
  662MOL0     H89347  10.357   6.965   8.614  2.9139  2.2456 -1.8891
  662MOL0     H89348  10.602   6.977   8.560  1.2039 -1.0041 -1.3733
  662MOL0     H89349  10.600   6.806   8.505  0.1438 -1.1855  2.6261
  662MOL0     H89350   9.738   6.378   8.329  0.4958 -1.4262  1.0189
  662MOL0     H89351   9.577   6.356   8.530 -1.0492  0.6972 -0.5743
  662MOL0     H89352   9.281   6.483   8.756  0.8505  0.8125 -0.3883
  662MOL0     H89353   9.117   6.411   8.920  0.8523 -1.0095  0.2252
  662MOL0     H89354   7.643   6.444  10.343 -0.8826 -1.3812  0.8387
  662MOL0     H89355   7.405   6.364  10.323 -1.3250  1.4206 -0.5298
  662MOL0     H89356   7.083   6.307   9.997  1.9207  1.8035  0.6986
  662MOL0     H89357   6.899   6.205   9.944  1.1729  1.8991 -0.8491
  662MOL0     H89358   6.684   6.011  10.010  0.5030 -0.4544  2.1092
  662MOL0     H89359   6.660   6.161   9.922  0.8714  0.8694  1.5827
  662MOL0     H89360   6.413   6.166  10.006  0.2396  0.2628 -0.4504
  662MOL0     H89361   6.447   6.028  10.111  0.2699  0.6851  0.3415
  662MOL0     H89362   6.504   5.889   9.934  2.2697  2.6428  1.3486
  662MOL0     H89363   6.461   6.022   9.820  0.6837 -2.5214 -1.5457
  662MOL0     H89364   6.299   5.833   9.994 -0.0487 -0.9458 -1.2808
  662MOL0     H89365   6.238   5.998  10.000 -0.2870 -0.8149  1.0380
  662MOL0     H89366   6.127   5.879   9.607  0.2848  0.1690 -0.2464
  662MOL0     H89367   6.714   6.334  10.327  0.9376  1.7940  0.1106
  662MOL0     H89368   6.914   6.562  10.408 -2.2897  0.2914 -0.9957
  662MOL0     H89369   6.804   6.431  10.469 -0.5065 -0.3403 -0.8056
  662MOL0     H89370   6.985   6.414  10.478  1.6738  4.4518  0.3444
  663MOL0     O89371   0.851   8.172  11.080  0.3531 -0.0371 -0.2704
  663MOL0     C89372   0.795   8.267  11.017  0.2973  0.3578  0.2104
  663MOL0     O89373   0.866   8.375  10.963 -0.4909  0.6191 -0.4933
  663MOL0     C89374   0.996   8.390  10.970 -1.0387  0.6108 -0.9399
  663MOL0     C89375   1.069   8.413  11.088 -0.9779  0.3068 -0.7296
  663MOL0     C89376   1.199   8.459  11.088 -0.3342 -0.2213 -0.2582
  663MOL0     C89377   1.260   8.496  10.972  0.5590 -0.3631  0.4746
  663MOL0     O89378   1.388   8.544  10.982 -0.5074 -0.4652  0.3018
  663MOL0     C89379   1.496   8.467  10.925  0.0151 -0.6590 -0.4162
  663MOL0     C89380   1.636   8.529  10.930 -0.0292  1.0327 -0.0610
  663MOL0     C89381   1.752   8.431  10.967  0.4803 -0.2120 -0.1660
  663MOL0     C89382   1.881   8.503  10.933 -0.2941  0.2724  0.2341
  663MOL0     C89383   2.007   8.428  10.980  0.7164 -0.7601 -0.7883
  663MOL0     C89384   2.132   8.488  10.916 -0.0280 -0.0112  0.1798
  663MOL0     C89385   2.257   8.422  10.972 -0.3806 -0.0801  0.8283
  663MOL0     C89386   2.386   8.504  10.917 -0.3975 -0.6451  0.0859
  663MOL0     N89387   2.514   8.447  10.969 -0.1787 -0.9955  0.1850
  663MOL0     C89388   2.581   8.338  10.915 -0.3650 -0.4544 -0.5656
  663MOL0     C89389   2.700   8.326  10.988 -0.1713  0.0492  0.2047
  663MOL0     C89390   2.816   8.248  10.933  0.2583  0.6044 -0.8574
  663MOL0     C89391   2.921   8.345  10.874  0.6514  0.2019 -0.0365
  663MOL0     C89392   3.056   8.281  10.838  0.3394 -0.3570  0.2950
  663MOL0     C89393   3.138   8.366  10.751 -0.0037  0.0060 -0.6266
  663MOL0     O89394   3.265   8.301  10.749 -0.1204 -0.2756  0.4689
  663MOL0     C89395   3.372   8.361  10.678  0.2697  1.3517  0.1368
  663MOL0     C89396   3.365   8.459  10.584 -0.2080  0.0931  0.4471
  663MOL0     C89397   3.473   8.496  10.504 -0.1158 -1.2300  0.4193
  663MOL0     C89398   3.593   8.436  10.530  0.0462  0.2067  1.0112
  663MOL0     C89399   3.722   8.456  10.453  0.4452 -1.0162 -1.0173
  663MOL0     O89400   3.813   8.356  10.440 -0.9775 -0.6179  0.8364
  663MOL0     C89401   3.931   8.380  10.364 -0.4567  0.6702 -0.0502
  663MOL0     C89402   3.968   8.286  10.264 -0.2878  0.1443 -0.7311
  663MOL0     C89403   4.092   8.305  10.199 -0.5344  0.1043  0.1104
  663MOL0     C89404   4.173   8.420  10.226 -0.3868  0.0034 -0.1119
  663MOL0     O89405   4.290   8.428  10.159  0.0591 -0.0781  0.5205
  663MOL0     C89406   4.386   8.525  10.203 -0.5713 -0.6661 -0.4551
  663MOL0     C89407   4.501   8.503  10.115 -0.3578  0.4182 -1.0727
  663MOL0     C89408   4.582   8.630  10.109 -0.1250 -0.1503  0.1436
  663MOL0     C89409   4.707   8.600  10.008  1.3542 -0.0481  0.3145
  663MOL0     C89410   4.791   8.725   9.979 -0.3862  0.2942 -0.4031
  663MOL0     C89411   4.726   8.816   9.875 -0.7068  0.0718 -0.4545
  663MOL0     C89412   4.835   8.909   9.819 -0.3134  0.3007 -0.3038
  663MOL0     C89413   4.772   8.992   9.709 -0.3294 -0.4618  0.9809
  663MOL0    Cl89414   4.905   9.075   9.613  0.0924  0.0499 -0.3536
  663MOL0     C89415   4.126   8.506  10.325 -0.1175 -0.2007 -1.1016
  663MOL0     C89416   4.008   8.494  10.395 -0.5646  0.6848  0.8607
  663MOL0     O89417   3.732   8.566  10.406 -0.8352  0.4138  0.6872
  663MOL0     C89418   3.608   8.340  10.626  0.5090 -0.1318 -0.2296
  663MOL0     C89419   3.496   8.302  10.705  0.2883  0.0827  0.1387
  663MOL0     N89420   2.700   8.434  11.081 -0.7646  1.0712  0.5902
  663MOL0     N89421   2.586   8.497  11.074  0.1626 -0.5290  0.2434
  663MOL0     C89422   1.186   8.492  10.856  0.3153 -0.5857  0.2033
  663MOL0     C89423   1.061   8.434  10.858 -0.4544  0.0185  0.4712
  663MOL0     C89424   0.656   8.253  10.985  0.9965 -0.0703 -0.3816
  663MOL0     C89425   0.603   8.327  10.872 -0.3695 -0.6703 -0.0854
  663MOL0     C89426   0.468   8.332  10.860 -0.1427  0.7100  0.3545
  663MOL0     C89427   0.384   8.261  10.938 -0.6518  0.1367  0.2054
  663MOL0     O89428   0.250   8.269  10.917 -0.0880 -0.1621  0.1488
  663MOL0     C89429   0.197   8.405  10.898  0.5117  0.1148 -0.4396
  663MOL0     C89430   0.044   8.400  10.920 -0.5995  0.2994  0.3494
  663MOL0     C89431  -0.018   8.280  10.847 -0.1971 -0.9416 -0.2704
  663MOL0     C89432  -0.157   8.321  10.810 -0.1250  0.0723  0.3162
  663MOL0     C89433  -0.232   8.202  10.759  0.4403 -0.4471 -0.5364
  663MOL0     C89434  -0.299   8.113  10.713  1.1402 -0.5709  0.2032
  663MOL0     C89435   0.429   8.179  11.039  0.0165 -0.0395 -0.2122
  663MOL0     C89436   0.561   8.175  11.065 -0.1692 -0.0076 -0.1226
  663MOL0     C89437   0.603   8.079  11.170  0.8359  0.4641 -0.1351
  663MOL0     H89438   1.018   8.415  11.184 -1.4452 -0.1525 -0.9640
  663MOL0     H89439   1.248   8.477  11.183 -1.4739  0.4988  0.2246
  663MOL0     H89440   1.500   8.370  10.975  2.5170 -1.8783 -2.7519
  663MOL0     H89441   1.463   8.448  10.823 -2.9133 -1.7360  0.6151
  663MOL0     H89442   1.633   8.599  11.014 -0.5694 -0.5035  1.2646
  663MOL0     H89443   1.654   8.574  10.832  1.9510  1.2806  0.3821
  663MOL0     H89444   1.741   8.334  10.917  1.1943  0.8240 -2.4454
  663MOL0     H89445   1.755   8.408  11.074  0.2275 -1.8900 -0.4922
  663MOL0     H89446   1.888   8.500  10.824 -0.2970 -1.6459  0.2487
  663MOL0     H89447   1.876   8.604  10.974 -1.1516  0.0788  0.6327
  663MOL0     H89448   2.014   8.426  11.090 -0.3069 -2.4496 -0.7136
  663MOL0     H89449   2.001   8.323  10.950  2.4911 -1.2816  0.5307
  663MOL0     H89450   2.120   8.465  10.810 -1.9145 -2.5721  0.8495
  663MOL0     H89451   2.144   8.596  10.926  2.2617 -0.1034 -0.9052
  663MOL0     H89452   2.281   8.321  10.937  0.5161  0.1133  0.8422
  663MOL0     H89453   2.255   8.427  11.081  0.5047 -2.2086  0.9947
  663MOL0     H89454   2.398   8.509  10.808  2.0685  0.3142  0.3371
  663MOL0     H89455   2.383   8.608  10.953  4.8498 -0.4679  0.7462
  663MOL0     H89456   2.556   8.286  10.823  1.9458  2.1563 -2.8350
  663MOL0     H89457   2.863   8.184  11.010  1.1841  2.7925  0.4831
  663MOL0     H89458   2.793   8.176  10.854  1.1807  0.8030 -1.3169
  663MOL0     H89459   2.865   8.393  10.794  0.9616 -0.3457 -0.5954
  663MOL0     H89460   2.956   8.417  10.949  3.9527 -0.9943 -0.2581
  663MOL0     H89461   3.029   8.184  10.794 -0.3722 -0.1016  0.1594
  663MOL0     H89462   3.105   8.268  10.935  0.0545  2.5569  0.9084
  663MOL0     H89463   3.127   8.470  10.782 -3.4066  0.1085 -1.6768
  663MOL0     H89464   3.104   8.363  10.647 -1.2530  0.2634 -0.2429
  663MOL0     H89465   3.267   8.498  10.558 -0.7033 -1.7871 -0.6931
  663MOL0     H89466   3.464   8.571  10.425  0.1664  0.0583  1.5654
  663MOL0     H89467   3.906   8.201  10.236 -2.2366  0.5071  2.0947
  663MOL0     H89468   4.136   8.244  10.121  2.3628 -1.2620  2.6103
  663MOL0     H89469   4.356   8.629  10.190  0.6481 -0.6141 -3.6527
  663MOL0     H89470   4.404   8.499  10.308 -1.4480  2.5750  0.6167
  663MOL0     H89471   4.559   8.421  10.158 -1.0515  1.8723  3.0507
  663MOL0     H89472   4.468   8.478  10.013 -1.2275  1.4409 -1.0589
  663MOL0     H89473   4.532   8.720  10.072 -1.0012 -0.1793  1.1969
  663MOL0     H89474   4.626   8.646  10.207 -0.7087 -1.8083  0.7179
  663MOL0     H89475   4.671   8.571   9.909 -1.1934  1.7465  0.6130
  663MOL0     H89476   4.757   8.513  10.052 -1.2930 -2.5700 -1.2465
  663MOL0     H89477   4.887   8.698   9.933  1.4830  3.5832  1.1444
  663MOL0     H89478   4.820   8.781  10.069 -1.2555  1.7087 -0.9668
  663MOL0     H89479   4.689   8.759   9.789  4.5406 -0.7363 -2.5313
  663MOL0     H89480   4.646   8.870   9.926  2.2846  1.9611  2.6462
  663MOL0     H89481   4.912   8.841   9.782  1.4114  1.0505  1.7477
  663MOL0     H89482   4.878   8.964   9.903  0.3223 -2.0891  1.0342
  663MOL0     H89483   4.706   8.933   9.646 -0.8118 -0.0356  1.0832
  663MOL0     H89484   4.711   9.076   9.743  2.6447  2.9997 -1.4396
  663MOL0     H89485   4.177   8.601  10.334  0.5140 -0.4805 -1.6239
  663MOL0     H89486   3.980   8.554  10.481  0.8877  1.4195  0.8471
  663MOL0     H89487   3.701   8.284  10.626  2.1596  2.4267 -1.3130
  663MOL0     H89488   3.515   8.212  10.761  2.2071 -1.7962 -3.2297
  663MOL0     H89489   1.233   8.535  10.768  1.0310 -0.7661  0.4857
  663MOL0     H89490   1.013   8.413  10.763 -0.5061 -3.3619  1.0985
  663MOL0     H89491   0.669   8.378  10.802 -0.0111  0.9927  1.3677
  663MOL0     H89492   0.432   8.374  10.766 -0.7498  0.5906  0.5339
  663MOL0     H89493   0.205   8.447  10.797 -1.6055  2.9604  0.4530
  663MOL0     H89494   0.229   8.474  10.976 -0.8782 -1.5277  1.6768
  663MOL0     H89495  -0.005   8.487  10.877 -2.0813 -0.8968 -0.4861
  663MOL0     H89496   0.018   8.397  11.026  3.1709 -0.6155  1.3857
  663MOL0     H89497  -0.017   8.191  10.911  2.5309 -1.6518 -1.1745
  663MOL0     H89498   0.035   8.244  10.759 -2.3226  0.0616 -2.0532
  663MOL0     H89499  -0.215   8.371  10.888 -1.1642  0.0267 -0.4052
  663MOL0     H89500  -0.155   8.395  10.730 -0.2054  0.3624  0.5820
  663MOL0     H89501  -0.354   8.038  10.661  0.0933  0.2514  0.0920
  663MOL0     H89502   0.353   8.125  11.095 -0.1860  2.2948  1.9435
  663MOL0     H89503   0.518   8.015  11.192  0.3341  0.7708 -1.1271
  663MOL0     H89504   0.689   8.019  11.140 -0.1284 -1.5398  0.9587
  663MOL0     H89505   0.634   8.137  11.258  0.1103  1.3507 -0.4544
  664MOL0     O89506   5.810   7.751   6.347  0.2605 -0.7102 -0.6021
  664MOL0     C89507   5.813   7.637   6.309 -0.5201 -0.6897 -0.3038
  664MOL0     O89508   5.920   7.573   6.269 -0.7527  0.0158 -0.3996
  664MOL0     C89509   6.042   7.646   6.269 -0.5544  0.3583 -0.5684
  664MOL0     C89510   6.085   7.742   6.171 -0.4538  0.1629 -0.3860
  664MOL0     C89511   6.213   7.805   6.180  0.7733 -0.2659  0.0328
  664MOL0     C89512   6.304   7.768   6.279 -0.2554  0.2444  0.1232
  664MOL0     O89513   6.435   7.810   6.293 -0.5396 -0.0324 -0.0239
  664MOL0     C89514   6.500   7.871   6.182  0.4584 -0.4201 -0.4960
  664MOL0     C89515   6.657   7.877   6.209 -0.1508  0.2603 -0.2515
  664MOL0     C89516   6.714   7.738   6.203 -0.9370  0.7847 -0.6872
  664MOL0     C89517   6.857   7.757   6.259  0.9694  0.4030  0.4022
  664MOL0     C89518   6.920   7.615   6.256  0.1026  0.7390  0.2928
  664MOL0     C89519   7.055   7.600   6.321  0.2164 -0.0469 -0.5443
  664MOL0     C89520   7.162   7.706   6.266 -0.0624  0.7795 -0.2081
  664MOL0     C89521   7.303   7.667   6.315  0.4100  1.0039  0.2748
  664MOL0     N89522   7.370   7.575   6.217  0.9380 -0.2609  0.4709
  664MOL0     C89523   7.370   7.440   6.232 -0.7502  0.1142 -0.3788
  664MOL0     C89524   7.422   7.390   6.117 -0.3871 -0.5313  0.3048
  664MOL0     C89525   7.455   7.246   6.100 -0.1738  0.0879 -0.9405
  664MOL0     C89526   7.604   7.221   6.149  0.9962 -0.1389  1.0870
  664MOL0     C89527   7.708   7.292   6.060  1.0712  0.3227  0.9471
  664MOL0     C89528   7.853   7.275   6.107  0.0285 -0.0023 -0.4916
  664MOL0     O89529   7.952   7.341   6.033 -0.6081 -0.4248 -0.8942
  664MOL0     C89530   8.082   7.331   6.074  0.7156  1.0544 -0.4290
  664MOL0     C89531   8.177   7.371   5.983 -0.2157 -0.0703  0.5520
  664MOL0     C89532   8.311   7.388   6.003  0.3638 -0.1051  0.0514
  664MOL0     C89533   8.359   7.348   6.126  0.7529 -0.9486 -0.4144
  664MOL0     C89534   8.502   7.374   6.165  0.3904 -0.3201  0.0665
  664MOL0     O89535   8.587   7.437   6.074 -0.0464 -0.3404 -0.4162
  664MOL0     C89536   8.711   7.465   6.118 -0.2413 -0.3681 -0.5248
  664MOL0     C89537   8.734   7.560   6.212 -0.2862 -0.4513 -0.0113
  664MOL0     C89538   8.858   7.600   6.246  0.5488 -0.0834 -0.4336
  664MOL0     C89539   8.973   7.539   6.190  0.5003  0.8604 -0.4361
  664MOL0     O89540   9.096   7.592   6.218 -0.0035 -0.1836 -0.7391
  664MOL0     C89541   9.211   7.532   6.147  0.0265  0.0790  0.2265
  664MOL0     C89542   9.350   7.594   6.190 -0.4654  0.9910 -0.1769
  664MOL0     C89543   9.467   7.553   6.103 -0.0560  0.7341  0.4145
  664MOL0     C89544   9.592   7.583   6.172 -0.5590 -0.2144 -0.0561
  664MOL0     C89545   9.712   7.583   6.078 -1.0249 -0.2465 -0.6321
  664MOL0     C89546   9.753   7.441   6.042 -0.0453  0.8596  0.7565
  664MOL0     C89547   9.886   7.438   5.953  0.7212 -1.0144 -1.0195
  664MOL0     C89548   9.937   7.294   5.945 -0.5461  0.0115  0.1068
  664MOL0    Cl89549  10.101   7.304   5.882  0.1228 -0.2930  0.0555
  664MOL0     C89550   8.953   7.419   6.113  0.1287  0.1556  0.1886
  664MOL0     C89551   8.820   7.383   6.085  0.5130 -0.3829 -0.0101
  664MOL0     O89552   8.543   7.327   6.276  0.0785 -0.2011 -0.4885
  664MOL0     C89553   8.269   7.302   6.225 -0.9363 -0.0717  0.3592
  664MOL0     C89554   8.132   7.291   6.196  0.1490  0.1652  0.0009
  664MOL0     N89555   7.421   7.498   6.023  0.3460 -0.5243 -0.1125
  664MOL0     N89556   7.392   7.609   6.088 -0.3212  0.2141 -0.6183
  664MOL0     C89557   6.266   7.676   6.372  0.9958  0.3576  0.6507
  664MOL0     C89558   6.138   7.611   6.372  0.1538  0.9220  0.8134
  664MOL0     C89559   5.686   7.561   6.327  0.7757  0.6287  0.1031
  664MOL0     C89560   5.563   7.635   6.344  0.3026 -0.3903 -0.4372
  664MOL0     C89561   5.442   7.580   6.347  0.6766 -0.0239  0.7995
  664MOL0     C89562   5.424   7.442   6.339 -0.0355 -0.2839 -0.2754
  664MOL0     O89563   5.297   7.383   6.362 -0.0650  0.0489 -0.2833
  664MOL0     C89564   5.173   7.446   6.338 -0.3418 -0.4035  0.2174
  664MOL0     C89565   5.063   7.347   6.295  0.2114 -0.0135 -1.3368
  664MOL0     C89566   4.926   7.413   6.294 -0.3441 -0.4624  0.3816
  664MOL0     C89567   4.834   7.313   6.220  0.1301 -0.1675 -0.0275
  664MOL0     C89568   4.786   7.208   6.308 -0.4362  0.5969  0.2578
  664MOL0     C89569   4.767   7.117   6.387 -0.1682 -0.0270 -0.1512
  664MOL0     C89570   5.545   7.364   6.340  0.1246  0.0409 -0.2713
  664MOL0     C89571   5.681   7.419   6.332  0.9116 -0.3310 -0.7552
  664MOL0     C89572   5.799   7.333   6.347  0.9859  0.4672 -0.6065
  664MOL0     H89573   6.025   7.763   6.083  0.0976 -0.3394 -0.8926
  664MOL0     H89574   6.245   7.866   6.096  0.9542 -1.5647 -0.8661
  664MOL0     H89575   6.468   7.833   6.085  1.9822 -2.3624 -0.3199
  664MOL0     H89576   6.469   7.975   6.194 -0.7189 -0.9419  1.3406
  664MOL0     H89577   6.675   7.933   6.301 -0.1018  1.4225 -0.9425
  664MOL0     H89578   6.704   7.940   6.133  1.9827  1.2071  1.7174
  664MOL0     H89579   6.709   7.693   6.104 -0.5433 -0.2736 -0.2334
  664MOL0     H89580   6.657   7.685   6.280 -0.1395  0.9649  0.0452
  664MOL0     H89581   6.918   7.817   6.190  1.0338  0.6076  0.6363
  664MOL0     H89582   6.859   7.798   6.360  2.8751 -1.2742  1.1105
  664MOL0     H89583   6.844   7.552   6.304  0.3900  0.1859  0.0317
  664MOL0     H89584   6.925   7.584   6.151 -0.1619 -1.2698  0.8256
  664MOL0     H89585   7.046   7.607   6.430  1.1412 -0.1054 -0.4545
  664MOL0     H89586   7.079   7.495   6.305 -0.6942 -0.3529  0.0273
  664MOL0     H89587   7.144   7.805   6.309  0.3301  0.8173 -0.1317
  664MOL0     H89588   7.157   7.710   6.156  3.7442 -1.6388 -0.6486
  664MOL0     H89589   7.352   7.765   6.316  1.4694  0.5338 -1.0732
  664MOL0     H89590   7.313   7.616   6.411  1.8401  1.2656  0.2883
  664MOL0     H89591   7.349   7.366   6.309 -0.2602  0.1543 -0.2040
  664MOL0     H89592   7.385   7.182   6.155 -1.8197  2.0095 -0.6571
  664MOL0     H89593   7.452   7.219   5.994  0.3842  0.5491 -1.0760
  664MOL0     H89594   7.622   7.269   6.246  0.9956 -0.7081  1.3764
  664MOL0     H89595   7.615   7.112   6.151 -3.0401 -1.0856 -4.2643
  664MOL0     H89596   7.689   7.400   6.054  2.6383  0.5189 -2.3124
  664MOL0     H89597   7.702   7.252   5.959  0.7730  2.2477  0.1604
  664MOL0     H89598   7.863   7.167   6.090  0.3606  0.0081 -0.3707
  664MOL0     H89599   7.867   7.295   6.213  0.4829 -2.8074  0.0645
  664MOL0     H89600   8.140   7.396   5.884  1.7571 -1.2260 -0.5371
  664MOL0     H89601   8.364   7.444   5.927 -0.5099 -0.5822 -0.9350
  664MOL0     H89602   8.659   7.619   6.263  3.8959  0.6793  5.7891
  664MOL0     H89603   8.861   7.681   6.319 -3.4805  0.3701 -0.5597
  664MOL0     H89604   9.216   7.424   6.162 -2.1497  0.0507  1.1947
  664MOL0     H89605   9.190   7.550   6.041 -0.5726  0.0952  0.3459
  664MOL0     H89606   9.331   7.702   6.190 -0.4328  1.0180 -1.5033
  664MOL0     H89607   9.366   7.550   6.288 -0.9711 -0.3913 -0.6904
  664MOL0     H89608   9.462   7.444   6.089  3.2217  0.5169  0.2141
  664MOL0     H89609   9.460   7.585   5.999 -0.0652 -2.3972 -0.6786
  664MOL0     H89610   9.610   7.504   6.246 -3.5751 -0.0175  1.0317
  664MOL0     H89611   9.591   7.683   6.216 -2.1890 -0.1139 -0.2906
  664MOL0     H89612   9.800   7.622   6.131 -1.2585  0.1842 -0.5534
  664MOL0     H89613   9.687   7.648   5.993 -1.1389  0.4623 -0.0644
  664MOL0     H89614   9.763   7.376   6.130 -2.1806 -1.0403 -0.2990
  664MOL0     H89615   9.672   7.396   5.984  0.0879  1.8193 -0.1978
  664MOL0     H89616   9.965   7.502   5.992 -1.6988  1.7089 -0.2080
  664MOL0     H89617   9.870   7.475   5.851  0.4909 -0.7880 -0.9013
  664MOL0     H89618   9.938   7.242   6.041 -2.0705  0.2957  0.3031
  664MOL0     H89619   9.871   7.233   5.882  0.2948 -0.1108 -0.6762
  664MOL0     H89620   9.043   7.364   6.090 -0.2819 -0.0634 -0.9156
  664MOL0     H89621   8.795   7.296   6.024 -0.5928  1.7844 -2.8887
  664MOL0     H89622   8.299   7.274   6.325 -1.9157  1.4716  1.1260
  664MOL0     H89623   8.058   7.266   6.271  0.9456 -2.1195  0.0998
  664MOL0     H89624   6.329   7.644   6.454 -2.3868 -1.9568  2.6018
  664MOL0     H89625   6.128   7.537   6.450  1.9166 -0.8504 -0.5259
  664MOL0     H89626   5.567   7.743   6.339  2.1435 -0.4592 -1.3159
  664MOL0     H89627   5.352   7.641   6.352 -0.8980 -2.0360 -1.2549
  664MOL0     H89628   5.189   7.526   6.265 -0.8030 -0.9568 -0.4960
  664MOL0     H89629   5.149   7.492   6.434  2.3462  0.7186  0.4569
  664MOL0     H89630   5.065   7.262   6.365 -0.1677  0.6090 -0.5528
  664MOL0     H89631   5.089   7.321   6.192  0.8134 -1.8177 -0.7792
  664MOL0     H89632   4.939   7.505   6.236  1.0850 -0.9126 -0.0618
  664MOL0     H89633   4.887   7.434   6.394 -1.9691 -2.6796  0.2778
  664MOL0     H89634   4.752   7.376   6.185 -0.0641 -0.9455 -1.0495
  664MOL0     H89635   4.871   7.262   6.130 -1.1946 -1.9183  0.3530
  664MOL0     H89636   4.774   7.032   6.452  2.2153  1.2288  1.4011
  664MOL0     H89637   5.536   7.258   6.357 -0.0355  0.6249  4.6896
  664MOL0     H89638   5.835   7.363   6.445  3.1913 -2.5012 -0.3670
  664MOL0     H89639   5.774   7.227   6.357 -0.3069  0.8769  0.9949
  664MOL0     H89640   5.869   7.339   6.263  0.9697 -4.1655 -1.2599
  665MOL0     O89641   8.185   5.987  11.122  0.4168 -0.5296 -0.2993
  665MOL0     C89642   8.197   5.903  11.028  0.1514 -0.2950 -0.2425
  665MOL0     O89643   8.301   5.815  11.018 -0.0648  0.3088 -0.1610
  665MOL0     C89644   8.387   5.803  11.128  1.1033 -0.3237  0.0459
  665MOL0     C89645   8.342   5.757  11.258  0.3138 -0.1652  1.0090
  665MOL0     C89646   8.426   5.729  11.358  0.3533  0.0467  0.9411
  665MOL0     C89647   8.567   5.759  11.339  0.2892  0.8569 -0.5254
  665MOL0     O89648   8.664   5.746  11.434 -0.0061  0.3597  0.1451
  665MOL0     C89649   8.629   5.704  11.565  0.1751 -0.4897 -0.2502
  665MOL0     C89650   8.763   5.690  11.637  0.1993  0.3385  0.7196
  665MOL0     C89651   8.752   5.638  11.775 -0.2979  0.1864  0.3047
  665MOL0     C89652   8.889   5.629  11.836 -0.1195  0.9838  0.4571
  665MOL0     C89653   8.885   5.608  11.990  0.8325  0.6103 -0.1119
  665MOL0     C89654   8.872   5.745  12.058 -0.4961  0.3490  0.4746
  665MOL0     C89655   8.889   5.724  12.211  0.0201 -0.6669 -0.1922
  665MOL0     C89656   8.759   5.653  12.268  0.2577 -0.5837 -0.2419
  665MOL0     N89657   8.650   5.750  12.278 -0.3945  0.0566  0.3120
  665MOL0     C89658   8.562   5.787  12.182 -0.3474  0.4246 -0.1840
  665MOL0     C89659   8.464   5.847  12.250  0.7970 -0.1870 -0.8853
  665MOL0     C89660   8.345   5.924  12.200  1.4141 -0.2699  0.4672
  665MOL0     C89661   8.211   5.861  12.244  0.0207  0.3110  0.2561
  665MOL0     C89662   8.176   5.901  12.388  0.1097  0.8756  0.2231
  665MOL0     C89663   8.068   5.800  12.436 -0.1563 -0.3901 -0.2754
  665MOL0     O89664   7.947   5.806  12.363 -0.2092 -0.1591 -0.0088
  665MOL0     C89665   7.915   5.754  12.238  0.2684 -0.6359 -0.4648
  665MOL0     C89666   7.812   5.819  12.162 -0.5728 -0.0784 -0.3286
  665MOL0     C89667   7.773   5.759  12.033 -0.1517 -0.1851  0.0863
  665MOL0     C89668   7.838   5.655  11.979 -0.5041 -0.4736  0.2168
  665MOL0     C89669   7.781   5.600  11.848 -0.5635 -0.9993 -0.1955
  665MOL0     O89670   7.817   5.481  11.809 -0.3780  0.0098 -0.2652
  665MOL0     C89671   7.762   5.416  11.694 -0.4688 -0.3018 -0.5461
  665MOL0     C89672   7.841   5.318  11.646 -0.0536 -0.3187  0.0761
  665MOL0     C89673   7.793   5.234  11.543 -0.9176 -0.0523 -1.1082
  665MOL0     C89674   7.675   5.263  11.475  0.9738  0.1533 -0.5204
  665MOL0     O89675   7.647   5.170  11.379  0.2294  0.1225 -0.2875
  665MOL0     C89676   7.522   5.158  11.312  0.4591 -0.5781  0.1176
  665MOL0     C89677   7.514   5.032  11.223  0.0302 -0.5287 -0.7332
  665MOL0     C89678   7.371   4.987  11.192  0.2309  0.3923 -0.0166
  665MOL0     C89679   7.366   4.873  11.085  0.4955 -0.4000 -0.5255
  665MOL0     C89680   7.239   4.788  11.089 -0.2080 -0.0467 -0.5655
  665MOL0     C89681   7.226   4.686  10.978  0.7553 -0.4163 -1.2525
  665MOL0     C89682   7.098   4.611  10.998 -0.8485  0.4589  0.1883
  665MOL0     C89683   6.976   4.682  10.948  0.7502  0.5560  0.0779
  665MOL0    Cl89684   6.960   4.710  10.773 -0.4336  0.1877 -0.4082
  665MOL0     C89685   7.590   5.364  11.527  0.0267  0.1146  0.3462
  665MOL0     C89686   7.635   5.440  11.639 -0.2668  0.0832 -0.0525
  665MOL0     O89687   7.704   5.676  11.792 -0.4206  0.4592 -0.3522
  665MOL0     C89688   7.935   5.587  12.060  0.2479 -0.6612  0.3479
  665MOL0     C89689   7.964   5.636  12.190 -0.7908  0.0567  0.5480
  665MOL0     N89690   8.499   5.846  12.378 -0.5163  0.7576 -1.3288
  665MOL0     N89691   8.607   5.787  12.401  0.2252 -0.7493 -0.0621
  665MOL0     C89692   8.606   5.815  11.217 -0.2560 -0.4651  0.1242
  665MOL0     C89693   8.521   5.835  11.119  0.9124  0.2779  0.1160
  665MOL0     C89694   8.105   5.927  10.921  0.6027 -0.5609 -0.7319
  665MOL0     C89695   8.148   5.898  10.796  0.0167 -0.7539  0.1058
  665MOL0     C89696   8.076   5.928  10.678 -0.4519 -0.8306 -1.0279
  665MOL0     C89697   7.953   5.990  10.693 -0.0262 -0.3504 -0.0596
  665MOL0     O89698   7.879   6.038  10.587  0.3407 -0.2818 -0.0490
  665MOL0     C89699   7.929   6.014  10.452 -0.0946 -0.2980 -0.4538
  665MOL0     C89700   7.839   6.083  10.349  0.1669  0.2720  1.3392
  665MOL0     C89701   7.694   6.045  10.363 -0.8351  0.2688  0.5474
  665MOL0     C89702   7.612   6.087  10.239  0.1319  0.5275 -0.7439
  665MOL0     C89703   7.660   6.010  10.123 -0.9486  0.6225  0.1010
  665MOL0     C89704   7.704   5.946  10.028 -0.1988  0.3270 -0.5730
  665MOL0     C89705   7.898   6.013  10.821 -0.3959  0.4101 -0.0254
  665MOL0     C89706   7.970   5.979  10.938  0.1288  0.6638  0.4746
  665MOL0     C89707   7.896   6.000  11.064  0.5515  0.0518  0.0666
  665MOL0     H89708   8.236   5.738  11.270  0.4503 -1.5983  0.1973
  665MOL0     H89709   8.379   5.690  11.448 -2.4400  0.6408 -0.1558
  665MOL0     H89710   8.560   5.763  11.626 -0.0689 -0.9995 -0.0329
  665MOL0     H89711   8.584   5.605  11.556 -1.9829  0.4698 -0.8846
  665MOL0     H89712   8.818   5.785  11.637 -0.9835  1.1378 -2.3347
  665MOL0     H89713   8.815   5.614  11.577  1.5820  0.0433  2.2414
  665MOL0     H89714   8.714   5.536  11.763  1.9840 -0.6266 -0.6452
  665MOL0     H89715   8.684   5.703  11.831 -1.5544  2.5891 -3.5978
  665MOL0     H89716   8.938   5.542  11.791 -0.3843  0.3817  1.3103
  665MOL0     H89717   8.960   5.708  11.811  1.5972 -0.0123  1.9529
  665MOL0     H89718   8.795   5.549  12.012 -0.0241  1.3284 -1.5670
  665MOL0     H89719   8.981   5.560  12.009 -0.2786 -1.3128  1.0113
  665MOL0     H89720   8.961   5.803  12.035 -1.4027  1.2126 -1.0612
  665MOL0     H89721   8.791   5.809  12.023 -0.4418  0.2948  0.2473
  665MOL0     H89722   8.897   5.822  12.259  0.0605 -2.0834  2.9621
  665MOL0     H89723   8.981   5.670  12.236 -0.8130 -1.4418  1.3955
  665MOL0     H89724   8.724   5.556  12.230  0.7911  0.0708 -2.5519
  665MOL0     H89725   8.797   5.637  12.369  3.5628 -0.2229 -1.2853
  665MOL0     H89726   8.573   5.756  12.078 -1.9673  0.1535 -0.2950
  665MOL0     H89727   8.367   6.025  12.237 -3.3103  1.3003 -0.2928
  665MOL0     H89728   8.361   5.933  12.092 -1.7807  1.8869  0.0493
  665MOL0     H89729   8.139   5.894  12.169  0.3732 -1.4376 -0.9169
  665MOL0     H89730   8.212   5.752  12.236  1.2483  0.4024 -1.2848
  665MOL0     H89731   8.138   6.003  12.393 -0.5323  0.6705 -0.3315
  665MOL0     H89732   8.265   5.885  12.450  3.0119 -0.2419 -3.7626
  665MOL0     H89733   8.027   5.824  12.535 -0.2427  0.2952 -0.4732
  665MOL0     H89734   8.116   5.702  12.434  2.4736  0.8112  0.4745
  665MOL0     H89735   7.760   5.910  12.189 -1.1101 -0.0760 -1.3196
  665MOL0     H89736   7.699   5.818  11.980 -0.1120 -2.1952 -2.3779
  665MOL0     H89737   7.935   5.298  11.697 -0.0018 -0.3166 -0.0206
  665MOL0     H89738   7.861   5.154  11.517  1.7479  2.0018 -0.9345
  665MOL0     H89739   7.437   5.167  11.381  0.4302 -2.2784  0.3365
  665MOL0     H89740   7.510   5.241  11.242 -1.8728 -0.3057  0.7580
  665MOL0     H89741   7.564   5.059  11.129  1.3799  0.5587  0.2554
  665MOL0     H89742   7.565   4.947  11.270  1.3669  1.4573  1.6298
  665MOL0     H89743   7.337   4.950  11.289 -2.5646 -1.3309 -1.5197
  665MOL0     H89744   7.296   5.059  11.158 -0.5743 -0.1305  0.6113
  665MOL0     H89745   7.450   4.807  11.109  2.2429  1.1416 -2.1573
  665MOL0     H89746   7.376   4.908  10.983 -2.0032 -0.5610 -0.8979
  665MOL0     H89747   7.153   4.854  11.074  0.4437  0.5111 -2.0495
  665MOL0     H89748   7.226   4.758  11.193  0.8302  1.5764  0.0803
  665MOL0     H89749   7.230   4.743  10.885  1.1260  2.3855  0.3630
  665MOL0     H89750   7.314   4.622  10.985  2.9366  2.5230  1.7067
  665MOL0     H89751   7.078   4.592  11.104 -1.4507  1.0622  0.1892
  665MOL0     H89752   7.120   4.517  10.945 -1.9048 -2.3629  4.2786
  665MOL0     H89753   6.892   4.614  10.970  0.6902  1.1130  1.7477
  665MOL0     H89754   6.960   4.773  11.006  0.5576 -0.9752  2.5963
  665MOL0     H89755   7.492   5.388  11.486  0.1273  2.5204  1.3465
  665MOL0     H89756   7.576   5.522  11.679 -1.4046  2.0951 -5.0531
  665MOL0     H89757   7.971   5.492  12.021 -0.3729 -0.4411 -0.8280
  665MOL0     H89758   8.031   5.576  12.250 -3.0780 -2.4197  0.8601
  665MOL0     H89759   8.708   5.847  11.197 -0.2430  0.7834  1.9051
  665MOL0     H89760   8.562   5.877  11.028  0.4654  2.5437  0.8684
  665MOL0     H89761   8.251   5.865  10.787  0.5077  1.0527 -1.3915
  665MOL0     H89762   8.121   5.911  10.581 -0.3897  0.2895 -1.2007
  665MOL0     H89763   7.929   5.908  10.425  0.0994  0.2534 -2.8373
  665MOL0     H89764   8.034   6.045  10.444 -0.0847 -0.2881 -0.3003
  665MOL0     H89765   7.871   6.048  10.251 -0.8212  2.7872  0.0336
  665MOL0     H89766   7.844   6.192  10.346 -1.0468  0.3212 -1.0099
  665MOL0     H89767   7.645   6.092  10.449 -0.1629 -0.6145  1.4410
  665MOL0     H89768   7.682   5.937  10.377 -0.8650  0.4368  1.9679
  665MOL0     H89769   7.505   6.068  10.256 -0.4834  2.3268 -2.2500
  665MOL0     H89770   7.636   6.193  10.225 -2.1444  1.1617 -0.4053
  665MOL0     H89771   7.731   5.862   9.967  0.7791  0.5431 -0.4581
  665MOL0     H89772   7.806   6.070  10.832 -0.2434  0.8959 -1.1488
  665MOL0     H89773   7.915   5.918  11.134  0.0920 -1.6522 -1.7139
  665MOL0     H89774   7.918   6.091  11.121  0.6746  0.3927 -0.5194
  665MOL0     H89775   7.787   5.989  11.057  0.7274 -4.9000  0.9480
  666MOL0     O89776   7.455  10.483   6.264 -0.2422  0.0201 -0.5522
  666MOL0     C89777   7.354  10.459   6.331 -0.2225  0.4654 -0.4907
  666MOL0     O89778   7.356  10.383   6.450  0.4262 -0.4414  0.2040
  666MOL0     C89779   7.475  10.324   6.478  0.5211  0.0094 -0.6100
  666MOL0     C89780   7.589  10.393   6.502 -0.8023 -0.1785 -0.7224
  666MOL0     C89781   7.709  10.324   6.535  0.1685 -0.5201 -0.0342
  666MOL0     C89782   7.708  10.180   6.546 -0.0478 -0.4057 -0.0013
  666MOL0     O89783   7.820  10.112   6.569 -0.2124  0.8834  0.5141
  666MOL0     C89784   7.947  10.173   6.603 -0.3416  0.9187 -0.6055
  666MOL0     C89785   8.046  10.057   6.626  0.0862  0.1515 -0.2925
  666MOL0     C89786   8.190  10.107   6.665  0.4076 -0.6393 -0.5326
  666MOL0     C89787   8.295  10.000   6.626 -1.0247  0.0998 -0.0901
  666MOL0     C89788   8.438  10.032   6.665 -0.0393 -0.2041  0.1545
  666MOL0     C89789   8.476  10.180   6.623 -1.2881 -0.0220 -0.0443
  666MOL0     C89790   8.615  10.227   6.659 -0.6417 -0.5031 -0.1240
  666MOL0     C89791   8.723  10.133   6.627  0.1788  0.7301 -0.0312
  666MOL0     N89792   8.856  10.189   6.645  0.4329  0.1822 -0.6925
  666MOL0     C89793   8.911  10.274   6.550  0.4709 -0.1526 -0.1907
  666MOL0     C89794   8.988  10.362   6.616  0.6539  0.7450  0.3414
  666MOL0     C89795   9.048  10.489   6.564  0.2899 -0.4389  0.2027
  666MOL0     C89796   9.174  10.533   6.632 -0.3247  0.8306  0.5949
  666MOL0     C89797   9.284  10.415   6.617  0.3728  0.6193  0.6400
  666MOL0     C89798   9.403  10.447   6.707 -0.3207  0.3977  0.4748
  666MOL0     O89799   9.424  10.590   6.734  0.6103 -0.1257 -0.2818
  666MOL0     C89800   9.553  10.640   6.762 -0.0554  0.3305 -0.5805
  666MOL0     C89801   9.566  10.778   6.783  0.4527 -0.4700 -0.1520
  666MOL0     C89802   9.694  10.828   6.825 -0.4656 -0.9336 -0.6632
  666MOL0     C89803   9.809  10.748   6.844 -0.0481  0.5552 -0.9068
  666MOL0     C89804   9.943  10.803   6.870 -0.2902  0.3714 -0.6057
  666MOL0     O89805  10.046  10.725   6.845 -0.1235  0.8020 -0.6890
  666MOL0     C89806  10.170  10.780   6.865  0.2599  0.6713  0.1634
  666MOL0     C89807  10.241  10.839   6.763  0.4286  1.2139  0.7400
  666MOL0     C89808  10.378  10.876   6.784 -0.0892  0.1641 -0.1271
  666MOL0     C89809  10.445  10.847   6.907  0.2410 -0.7701  0.2157
  666MOL0     O89810  10.571  10.894   6.925  0.5883  0.1690 -0.3372
  666MOL0     C89811  10.570  11.029   6.982  0.6872  0.6580  0.3096
  666MOL0     C89812  10.705  11.093   6.954  0.2838  0.1255 -0.3223
  666MOL0     C89813  10.817  11.024   7.036 -0.4121  0.7307 -0.0552
  666MOL0     C89814  10.938  11.115   7.071  0.7307 -0.2144  0.6690
  666MOL0     C89815  11.023  11.053   7.181 -0.7962 -0.7199 -0.0470
  666MOL0     C89816  11.151  11.136   7.203  0.8387 -0.2090  0.2953
  666MOL0     C89817  11.243  11.082   7.301 -0.4050  0.8657 -0.1654
  666MOL0     C89818  11.390  11.137   7.282  0.0845  0.0955  0.1403
  666MOL0    Cl89819  11.387  11.306   7.222  0.2749 -0.0677 -0.2067
  666MOL0     C89820  10.372  10.784   7.004  0.7702  0.2960 -0.7179
  666MOL0     C89821  10.233  10.757   6.986  0.0229 -0.2536  0.5555
  666MOL0     O89822   9.950  10.924   6.888  0.0838  0.5287  0.2603
  666MOL0     C89823   9.792  10.611   6.821  0.1239  0.1342 -0.6698
  666MOL0     C89824   9.666  10.556   6.777 -1.4227 -0.2565 -0.3603
  666MOL0     N89825   8.986  10.328   6.751 -0.1725  0.5682  0.4077
  666MOL0     N89826   8.908  10.230   6.767  0.1744 -0.4577 -0.1497
  666MOL0     C89827   7.593  10.115   6.528 -0.8184  0.3313  0.4877
  666MOL0     C89828   7.471  10.186   6.489 -0.1013  1.0795 -0.2460
  666MOL0     C89829   7.212  10.491   6.272 -0.4660  0.4871 -0.3334
  666MOL0     C89830   7.104  10.415   6.328 -0.3918 -0.0246  0.2532
  666MOL0     C89831   6.971  10.429   6.272 -0.2398 -0.5592 -0.1830
  666MOL0     C89832   6.941  10.524   6.171  0.7004 -0.4474 -0.1693
  666MOL0     O89833   6.811  10.541   6.131  0.4351  0.9687  0.0243
  666MOL0     C89834   6.774  10.632   6.029 -0.2112  0.2812  0.4721
  666MOL0     C89835   6.749  10.776   6.087  0.2610  0.1564 -0.1581
  666MOL0     C89836   6.617  10.764   6.170  0.8427 -0.9756 -0.1967
  666MOL0     C89837   6.576  10.907   6.217 -0.6482 -0.4660  0.6476
  666MOL0     C89838   6.661  10.957   6.317 -0.6070  1.0705  0.6802
  666MOL0     C89839   6.720  11.004   6.409 -1.2153 -0.3958 -0.2423
  666MOL0     C89840   7.049  10.604   6.128 -0.5359 -0.1577 -0.3448
  666MOL0     C89841   7.180  10.590   6.174 -0.5377  0.6691  0.5287
  666MOL0     C89842   7.290  10.671   6.106  0.4615  0.4096  0.1303
  666MOL0     H89843   7.588  10.501   6.493  3.3846 -0.0271 -1.0614
  666MOL0     H89844   7.803  10.377   6.550 -1.0904  1.7394  0.2462
  666MOL0     H89845   7.984  10.233   6.520  1.6858 -1.2975 -1.4380
  666MOL0     H89846   7.947  10.232   6.695  1.1240 -0.4890  0.3451
  666MOL0     H89847   8.052   9.991   6.539  0.7565 -0.1683 -0.0067
  666MOL0     H89848   8.001   9.998   6.707 -0.9866  2.2298  0.7103
  666MOL0     H89849   8.195  10.120   6.774 -1.7298 -0.8480 -0.3745
  666MOL0     H89850   8.189  10.195   6.601 -2.8981 -1.8106 -2.3540
  666MOL0     H89851   8.270   9.899   6.661 -3.6178  1.7286  3.2606
  666MOL0     H89852   8.299   9.993   6.517  2.3054 -1.8325  0.0118
  666MOL0     H89853   8.461  10.027   6.771 -1.0765 -0.4739  0.3789
  666MOL0     H89854   8.494   9.964   6.600  3.4125  1.3318  1.3242
  666MOL0     H89855   8.465  10.185   6.514  3.5778  3.3194 -0.6707
  666MOL0     H89856   8.412  10.251   6.677  0.6550  1.5687  0.2672
  666MOL0     H89857   8.613  10.245   6.767  2.5476 -2.2211  0.3557
  666MOL0     H89858   8.638  10.322   6.609  1.7819 -0.1365  1.5272
  666MOL0     H89859   8.709  10.047   6.693  1.3396  1.6282  1.4523
  666MOL0     H89860   8.729  10.094   6.525  2.8792 -1.1749  0.7365
  666MOL0     H89861   8.877  10.283   6.447  1.8157 -1.8561 -0.8536
  666MOL0     H89862   9.063  10.481   6.456  0.0216  0.2839  0.1048
  666MOL0     H89863   8.985  10.578   6.571 -0.3587 -0.9632  1.1376
  666MOL0     H89864   9.212  10.619   6.577  3.6374 -1.1565 -0.1132
  666MOL0     H89865   9.155  10.555   6.738 -1.4127  0.2669  0.5364
  666MOL0     H89866   9.328  10.420   6.517 -0.7622 -0.4626  0.0570
  666MOL0     H89867   9.239  10.317   6.634  1.9358 -0.3449 -0.5067
  666MOL0     H89868   9.486  10.413   6.645 -1.1985  2.7187 -2.1934
  666MOL0     H89869   9.373  10.395   6.798 -0.4794  0.8223  0.6690
  666MOL0     H89870   9.484  10.841   6.752  0.7526 -0.5329 -1.0869
  666MOL0     H89871   9.710  10.935   6.837  0.5600 -1.3940  3.7585
  666MOL0     H89872  10.184  10.855   6.672 -1.1692  1.7040  1.7751
  666MOL0     H89873  10.434  10.917   6.700 -2.1482 -0.9912 -2.2012
  666MOL0     H89874  10.495  11.093   6.935  0.6793 -0.5287 -1.3766
  666MOL0     H89875  10.544  11.025   7.088 -2.3904  0.7603 -0.3452
  666MOL0     H89876  10.720  11.087   6.845  0.4127  2.0709 -0.4483
  666MOL0     H89877  10.705  11.193   6.997 -0.5982  0.1521 -0.3695
  666MOL0     H89878  10.764  10.997   7.128  1.8313 -0.3158  1.0193
  666MOL0     H89879  10.848  10.931   6.986 -0.2536  0.7168  0.0687
  666MOL0     H89880  10.883  11.206   7.098  0.7814  1.6205 -4.3162
  666MOL0     H89881  11.001  11.138   6.984  0.5804  0.5448  0.7511
  666MOL0     H89882  11.060  10.958   7.143  3.2817  0.4664  0.5448
  666MOL0     H89883  10.960  11.049   7.271 -1.8292 -2.2458 -0.7845
  666MOL0     H89884  11.205  11.156   7.110 -2.3097  0.8018 -1.4532
  666MOL0     H89885  11.122  11.234   7.240  2.4553  0.3783  0.0761
  666MOL0     H89886  11.241  10.973   7.289 -2.2478  0.2961  3.7047
  666MOL0     H89887  11.207  11.105   7.402  0.6364  0.4558  0.3156
  666MOL0     H89888  11.452  11.120   7.371  2.9790 -1.2426 -1.9664
  666MOL0     H89889  11.427  11.071   7.203 -1.2918 -0.0411 -0.4112
  666MOL0     H89890  10.436  10.766   7.089  3.0913  1.2069 -2.1881
  666MOL0     H89891  10.169  10.721   7.065 -0.6932  0.1019  0.1421
  666MOL0     H89892   9.870  10.535   6.824 -2.4065 -2.8858 -3.2849
  666MOL0     H89893   9.661  10.448   6.773 -0.0675 -0.3964  0.6643
  666MOL0     H89894   7.591  10.006   6.529  0.4402  0.2372 -1.9943
  666MOL0     H89895   7.378  10.132   6.478  0.9161 -0.2670 -4.1642
  666MOL0     H89896   7.121  10.340   6.405  0.9971 -0.8933 -0.8662
  666MOL0     H89897   6.886  10.373   6.311 -2.9419  0.7651 -3.5893
  666MOL0     H89898   6.690  10.593   5.971  1.5268 -0.2283 -1.8500
  666MOL0     H89899   6.840  10.632   5.942 -1.1710 -1.4354 -0.3164
  666MOL0     H89900   6.731  10.847   6.006  0.2966  0.2956 -0.0445
  666MOL0     H89901   6.841  10.798   6.142  1.8410 -1.6529 -1.9075
  666MOL0     H89902   6.626  10.685   6.245  0.7960 -3.3820 -2.5771
  666MOL0     H89903   6.530  10.724   6.117 -0.8295 -0.3145  1.8857
  666MOL0     H89904   6.579  10.978   6.134 -1.0869 -0.5345  0.5669
  666MOL0     H89905   6.476  10.898   6.261 -0.4568 -1.4371  0.9050
  666MOL0     H89906   6.778  11.040   6.491 -0.5619  1.7056 -1.5483
  666MOL0     H89907   7.026  10.690   6.066  2.8384  2.3305  1.5300
  666MOL0     H89908   7.361  10.706   6.181  1.7442 -1.1070 -0.3213
  666MOL0     H89909   7.345  10.604   6.039  2.5340 -0.5285  2.6313
  666MOL0     H89910   7.245  10.756   6.053 -0.3589  1.6258  2.6428
  667MOL0     O89911   9.299   4.380   3.636  0.6263 -0.1045  0.0271
  667MOL0     C89912   9.264   4.277   3.693 -0.3414  0.0459  1.1795
  667MOL0     O89913   9.155   4.211   3.674 -0.0828 -0.4397 -0.0351
  667MOL0     C89914   9.075   4.231   3.563  0.8623 -0.1303  0.2722
  667MOL0     C89915   9.063   4.131   3.469 -0.3127 -0.0900  0.1453
  667MOL0     C89916   8.982   4.149   3.361 -0.3186  0.0985  0.6347
  667MOL0     C89917   8.916   4.279   3.345  0.6271 -0.4771  0.0137
  667MOL0     O89918   8.840   4.304   3.238  0.7728 -0.2540  0.3595
  667MOL0     C89919   8.856   4.231   3.122 -0.1019  0.5074  0.1373
  667MOL0     C89920   8.799   4.278   2.986  0.0232  0.5076  0.5469
  667MOL0     C89921   8.859   4.410   2.940 -0.8598  0.9927  0.6475
  667MOL0     C89922   9.010   4.393   2.917  0.3210  1.3608 -0.2885
  667MOL0     C89923   9.048   4.495   2.815  0.2290  0.0734 -0.0350
  667MOL0     C89924   9.204   4.507   2.796 -0.2441 -0.2864  0.2866
  667MOL0     C89925   9.248   4.632   2.725  0.4514  0.6242 -0.0102
  667MOL0     C89926   9.391   4.673   2.754 -0.4107 -0.9734 -0.2393
  667MOL0     N89927   9.409   4.727   2.887  0.2972 -0.1879 -0.3312
  667MOL0     C89928   9.382   4.857   2.919 -0.0240  0.1307 -0.2499
  667MOL0     C89929   9.423   4.868   3.046 -0.8779 -0.2218  0.1018
  667MOL0     C89930   9.430   5.004   3.114  0.4498  0.3535  0.0693
  667MOL0     C89931   9.552   5.081   3.081  0.0137  0.1906  0.4112
  667MOL0     C89932   9.548   5.225   3.138  0.4603 -0.2887 -0.2324
  667MOL0     C89933   9.605   5.217   3.286  0.6179 -0.6253  0.8360
  667MOL0     O89934   9.700   5.324   3.322 -0.6531  0.9402 -0.3267
  667MOL0     C89935   9.820   5.333   3.262  0.6255 -0.3318 -0.2183
  667MOL0     C89936   9.883   5.224   3.200  0.9144  0.1243 -0.4662
  667MOL0     C89937  10.012   5.242   3.159 -0.6254 -0.3079 -0.2897
  667MOL0     C89938  10.081   5.358   3.182 -0.4079  0.3854 -0.3364
  667MOL0     C89939  10.225   5.358   3.153 -1.0758  0.2658  0.1681
  667MOL0     O89940  10.285   5.235   3.138  0.0076 -0.8492 -0.3491
  667MOL0     C89941  10.412   5.240   3.074 -0.0065 -0.7662 -0.1862
  667MOL0     C89942  10.539   5.281   3.125 -0.4696 -0.4100  0.1956
  667MOL0     C89943  10.650   5.281   3.050 -1.2479  0.5998  0.2897
  667MOL0     C89944  10.638   5.249   2.917 -0.3911  0.1291  0.0023
  667MOL0     O89945  10.741   5.262   2.822  0.5522 -0.4191 -0.3889
  667MOL0     C89946  10.867   5.305   2.859 -0.1273 -0.1072  0.2915
  667MOL0     C89947  10.956   5.283   2.735 -0.5931 -0.1240 -0.2488
  667MOL0     C89948  11.104   5.310   2.766 -0.4644  0.0330 -0.2837
  667MOL0     C89949  11.198   5.290   2.642  0.0862 -0.0947 -0.6539
  667MOL0     C89950  11.343   5.321   2.650  0.1319 -0.6686  0.5444
  667MOL0     C89951  11.371   5.470   2.682 -0.8539 -1.3578 -0.0898
  667MOL0     C89952  11.518   5.500   2.644  0.4154  1.0131  0.4616
  667MOL0     C89953  11.606   5.436   2.749 -0.0468 -0.0522  0.0076
  667MOL0    Cl89954  11.768   5.468   2.687 -0.0174  0.4896 -0.4501
  667MOL0     C89955  10.519   5.212   2.859  0.0741  0.9998  0.7959
  667MOL0     C89956  10.405   5.206   2.938 -0.9770 -0.2471  0.7144
  667MOL0     O89957  10.276   5.467   3.119 -0.5695  0.1645  0.8707
  667MOL0     C89958  10.027   5.456   3.262  0.5723 -0.2310 -0.2806
  667MOL0     C89959   9.891   5.448   3.303  0.1589  0.0641  0.3638
  667MOL0     N89960   9.465   4.750   3.090  0.1588 -0.3679  0.2365
  667MOL0     N89961   9.468   4.669   2.989 -0.7297 -0.0010 -0.6976
  667MOL0     C89962   8.924   4.371   3.446  0.3238 -0.4019 -1.2379
  667MOL0     C89963   9.011   4.346   3.556 -0.5809  0.2809  0.3402
  667MOL0     C89964   9.346   4.235   3.812  0.1249 -0.1734  0.0543
  667MOL0     C89965   9.459   4.307   3.859  0.1820  0.2258 -0.0309
  667MOL0     C89966   9.536   4.270   3.970  0.6060  0.1604  0.0627
  667MOL0     C89967   9.510   4.148   4.033 -0.8023 -0.1980 -0.5427
  667MOL0     O89968   9.578   4.120   4.150  0.0013  0.5419 -0.0674
  667MOL0     C89969   9.723   4.103   4.138 -0.6699 -0.4502 -0.1273
  667MOL0     C89970   9.788   4.068   4.271 -0.2860  0.3746  0.4150
  667MOL0     C89971   9.936   4.111   4.287 -0.3955 -0.1056 -0.0786
  667MOL0     C89972  10.037   4.055   4.187 -0.2921 -0.1638 -0.7713
  667MOL0     C89973  10.039   3.912   4.201  0.2035  0.2776  0.1069
  667MOL0     C89974  10.064   3.796   4.202  0.1676  0.5372 -0.2143
  667MOL0     C89975   9.400   4.076   3.989 -0.0275  0.9162  0.5616
  667MOL0     C89976   9.324   4.111   3.882 -0.6580  0.0913  1.3856
  667MOL0     C89977   9.216   4.017   3.850  0.4536 -0.0744  0.1509
  667MOL0     H89978   9.130   4.047   3.483 -0.2183 -0.5109 -2.4083
  667MOL0     H89979   8.977   4.073   3.284 -0.2654  0.2042  0.5263
  667MOL0     H89980   8.965   4.227   3.107 -0.0034 -0.6843  1.0407
  667MOL0     H89981   8.823   4.130   3.147  0.6458  0.4862  1.0821
  667MOL0     H89982   8.690   4.283   2.992 -0.0362  0.0930 -0.0943
  667MOL0     H89983   8.815   4.204   2.906  3.2054  0.5975  0.9733
  667MOL0     H89984   8.847   4.480   3.023  3.5263  2.3283  0.3914
  667MOL0     H89985   8.812   4.443   2.847  0.0721 -0.2793 -0.3152
  667MOL0     H89986   9.064   4.411   3.010 -2.4829 -0.1241  1.7967
  667MOL0     H89987   9.028   4.290   2.887  0.1088  1.2544 -0.0617
  667MOL0     H89988   9.004   4.461   2.721 -1.9920 -4.2781  2.2693
  667MOL0     H89989   9.010   4.594   2.841 -1.2016 -0.1844 -1.0248
  667MOL0     H89990   9.258   4.512   2.890  2.1207 -0.2375 -0.9922
  667MOL0     H89991   9.245   4.426   2.736 -2.3717 -0.1775 -1.4820
  667MOL0     H89992   9.176   4.707   2.757 -1.7490 -0.6754 -1.5750
  667MOL0     H89993   9.233   4.613   2.618 -2.3636 -1.5577  0.6405
  667MOL0     H89994   9.454   4.589   2.724 -1.4028 -1.9119  0.2352
  667MOL0     H89995   9.409   4.747   2.675 -2.3663 -1.2786 -1.0353
  667MOL0     H89996   9.351   4.936   2.851  4.1661  3.3712  1.1576
  667MOL0     H89997   9.341   5.060   3.085 -0.3706 -1.5178 -1.2913
  667MOL0     H89998   9.435   4.982   3.221 -3.3824 -0.8577  0.1252
  667MOL0     H89999   9.646   5.028   3.100  0.4829  0.5110 -0.8478
  667MOL0     H90000   9.545   5.083   2.972 -2.3923 -1.8069  0.4519
  667MOL0     H90001   9.447   5.267   3.131  1.6013  2.5039 -1.6959
  667MOL0     H90002   9.616   5.284   3.076 -0.1419  0.7309  0.0520
  667MOL0     H90003   9.664   5.128   3.307  1.4036  0.1955  2.3040
  667MOL0     H90004   9.520   5.213   3.355 -0.6808 -3.8099 -0.7370
  667MOL0     H90005   9.837   5.126   3.189 -1.9664  1.4354 -1.0733
  667MOL0     H90006  10.054   5.154   3.110  2.2911  1.8394 -1.9897
  667MOL0     H90007  10.553   5.307   3.230  2.0264  0.8131 -0.3835
  667MOL0     H90008  10.743   5.317   3.092 -0.9560  1.3303 -0.9322
  667MOL0     H90009  10.869   5.413   2.875 -1.1319 -0.0319 -0.0346
  667MOL0     H90010  10.902   5.250   2.947  1.7236 -0.0842 -0.3814
  667MOL0     H90011  10.947   5.176   2.714 -0.4761  0.3442 -2.9797
  667MOL0     H90012  10.908   5.327   2.648 -2.2312 -1.5556 -0.1403
  667MOL0     H90013  11.123   5.408   2.810  0.7069  1.3732 -3.4530
  667MOL0     H90014  11.128   5.246   2.851  0.3457  2.6677  1.5768
  667MOL0     H90015  11.161   5.357   2.564  1.3518 -0.2531 -1.4134
  667MOL0     H90016  11.197   5.187   2.605  0.6692  0.7165 -3.0927
  667MOL0     H90017  11.383   5.291   2.553  0.8895 -1.0784  0.9711
  667MOL0     H90018  11.383   5.261   2.732 -0.9067 -0.8922  0.8996
  667MOL0     H90019  11.305   5.539   2.629 -0.7528 -0.1759  1.2551
  667MOL0     H90020  11.347   5.490   2.787  0.9690  0.4069  0.0542
  667MOL0     H90021  11.538   5.606   2.629 -0.1822  0.9717 -0.7858
  667MOL0     H90022  11.536   5.446   2.550  2.8139  0.4510  1.1770
  667MOL0     H90023  11.598   5.472   2.852 -0.6428  0.4396 -0.2085
  667MOL0     H90024  11.593   5.328   2.756  1.7659 -0.2330  1.9568
  667MOL0     H90025  10.500   5.186   2.755 -2.1597  0.0612  1.3637
  667MOL0     H90026  10.309   5.177   2.896 -0.1072 -2.0926 -0.0850
  667MOL0     H90027  10.072   5.551   3.289 -1.9075  0.4891  1.7873
  667MOL0     H90028   9.850   5.533   3.356 -0.2526  0.2799 -0.2957
  667MOL0     H90029   8.880   4.466   3.419 -1.0861 -0.6291  0.1049
  667MOL0     H90030   9.031   4.422   3.631  3.9302 -0.4842  0.1723
  667MOL0     H90031   9.483   4.402   3.812  1.0467 -0.1203 -0.3109
  667MOL0     H90032   9.624   4.328   3.996  3.9800 -5.1763  2.2637
  667MOL0     H90033   9.778   4.194   4.112 -0.6624 -0.1066  1.0362
  667MOL0     H90034   9.754   4.030   4.062 -1.3685 -0.9337  0.0410
  667MOL0     H90035   9.789   3.959   4.287  0.1189  0.5782  1.9525
  667MOL0     H90036   9.732   4.108   4.356  0.1218  0.8420  0.4704
  667MOL0     H90037   9.969   4.081   4.386  0.3233  0.4861 -0.1256
  667MOL0     H90038   9.937   4.220   4.281  2.1221 -0.0860 -0.6617
  667MOL0     H90039  10.019   4.086   4.084  2.3033  2.1281 -0.6403
  667MOL0     H90040  10.135   4.097   4.212 -1.1249  0.7568  1.1797
  667MOL0     H90041  10.092   3.693   4.218 -1.8220 -0.4474 -2.4676
  667MOL0     H90042   9.400   3.982   4.043  2.6744  0.2099 -0.4699
  667MOL0     H90043   9.123   4.061   3.885 -0.2694  1.6561 -3.4660
  667MOL0     H90044   9.221   4.005   3.741  1.2187  1.2614  0.0145
  667MOL0     H90045   9.220   3.922   3.905  0.2749  1.2515  2.5913
  668MOL0     O90046   8.853   1.756   5.565  0.1920 -0.6950  0.4656
  668MOL0     C90047   8.821   1.852   5.641  0.5086 -0.0030  0.2505
  668MOL0     O90048   8.901   1.920   5.721  0.3127 -0.1085  0.0899
  668MOL0     C90049   9.034   1.891   5.718 -1.2822 -0.2169 -0.0333
  668MOL0     C90050   9.091   1.813   5.817 -0.8636 -0.1756 -0.8664
  668MOL0     C90051   9.229   1.780   5.816 -0.1907  0.2819 -0.2313
  668MOL0     C90052   9.315   1.844   5.725  0.0460 -0.2397 -0.1787
  668MOL0     O90053   9.449   1.811   5.738 -0.0274 -0.2649 -0.2941
  668MOL0     C90054   9.527   1.833   5.623 -0.6316 -0.2952 -0.0627
  668MOL0     C90055   9.667   1.763   5.621  0.5754  0.3629 -0.1663
  668MOL0     C90056   9.661   1.605   5.608 -0.2805  0.1544  0.0364
  668MOL0     C90057   9.684   1.550   5.468  0.0067 -0.4076 -0.0283
  668MOL0     C90058   9.649   1.397   5.454 -0.0325  0.0477 -0.1104
  668MOL0     C90059   9.750   1.313   5.374  0.0732 -0.0003  0.7375
  668MOL0     C90060   9.698   1.172   5.369  0.4274  0.0436  0.4043
  668MOL0     C90061   9.740   1.094   5.497 -0.6225 -0.5251  1.0451
  668MOL0     N90062   9.636   1.091   5.595  0.2842 -0.4185  0.4749
  668MOL0     C90063   9.661   1.135   5.719 -0.0828 -0.2550 -0.3283
  668MOL0     C90064   9.546   1.114   5.792 -0.8895  0.0645  0.6476
  668MOL0     C90065   9.514   1.150   5.931 -0.0849 -0.4889 -0.2587
  668MOL0     C90066   9.634   1.207   6.019  0.1783  0.6482  0.1822
  668MOL0     C90067   9.643   1.363   5.989 -0.1960 -0.1360  0.5663
  668MOL0     C90068   9.785   1.417   6.005 -0.0258 -0.8156 -0.0744
  668MOL0     O90069   9.871   1.366   5.901 -0.1158 -0.4862  0.4718
  668MOL0     C90070   9.960   1.446   5.826 -0.7851 -0.7570 -0.8615
  668MOL0     C90071  10.034   1.374   5.737  0.3386 -0.2674  0.5555
  668MOL0     C90072  10.129   1.440   5.652  0.6589  0.1930  0.6899
  668MOL0     C90073  10.157   1.579   5.661  0.7625  0.2343 -0.7125
  668MOL0     C90074  10.256   1.635   5.570  1.1798 -0.8511 -0.0288
  668MOL0     O90075  10.318   1.552   5.474  0.3273 -0.3961  0.7374
  668MOL0     C90076  10.434   1.594   5.407 -0.0467 -0.0508 -0.2662
  668MOL0     C90077  10.425   1.690   5.305 -0.0487 -0.1622 -0.2418
  668MOL0     C90078  10.539   1.738   5.240 -0.4650  0.8498  0.2561
  668MOL0     C90079  10.663   1.700   5.281  0.0026  0.0248 -0.1627
  668MOL0     O90080  10.771   1.757   5.214  0.0735  0.6819 -0.1291
  668MOL0     C90081  10.902   1.692   5.237  0.0382 -0.0723  0.2287
  668MOL0     C90082  10.997   1.739   5.132 -0.4626  0.6177 -0.3919
  668MOL0     C90083  11.124   1.648   5.122  0.1957 -0.7255  0.0820
  668MOL0     C90084  11.237   1.732   5.054 -0.2703  0.1566 -0.3297
  668MOL0     C90085  11.349   1.635   5.024  0.1294  0.2580  0.1891
  668MOL0     C90086  11.473   1.698   4.962 -0.2499  0.9778 -0.9806
  668MOL0     C90087  11.577   1.598   4.915 -0.6159  0.6245  0.3920
  668MOL0     C90088  11.696   1.672   4.839 -0.4614 -0.0136  0.0552
  668MOL0    Cl90089  11.790   1.767   4.959  0.4611  0.2863  0.1341
  668MOL0     C90090  10.671   1.611   5.399  0.0608 -0.3315  0.5567
  668MOL0     C90091  10.553   1.555   5.451 -0.6689 -0.4878 -0.8114
  668MOL0     O90092  10.272   1.762   5.577  0.5975 -0.0448 -0.5498
  668MOL0     C90093  10.087   1.651   5.759 -0.1150  0.5589 -0.1542
  668MOL0     C90094   9.986   1.591   5.832  0.2188 -0.2628 -0.4050
  668MOL0     N90095   9.460   1.062   5.703 -0.2264  0.1828 -0.2376
  668MOL0     N90096   9.511   1.050   5.585 -0.2012  1.3036 -0.4816
  668MOL0     C90097   9.260   1.937   5.632  0.4622 -0.6276 -0.1109
  668MOL0     C90098   9.117   1.962   5.628 -0.0680  0.4234  0.8506
  668MOL0     C90099   8.677   1.897   5.643 -0.0187 -0.4359 -0.0337
  668MOL0     C90100   8.642   2.013   5.712 -0.1915  0.7379  0.1758
  668MOL0     C90101   8.510   2.055   5.734  0.0800 -0.9468  0.3001
  668MOL0     C90102   8.403   1.977   5.678  0.3954 -0.5046 -0.3857
  668MOL0     O90103   8.265   2.003   5.694 -0.4334 -0.4980 -0.3760
  668MOL0     C90104   8.228   2.076   5.815 -0.2195  0.0566 -1.1583
  668MOL0     C90105   8.077   2.051   5.829  0.3519  0.2160  0.8974
  668MOL0     C90106   7.995   2.141   5.724  0.1149  0.3658  0.3626
  668MOL0     C90107   7.854   2.081   5.728  0.1746 -0.8578 -0.2043
  668MOL0     C90108   7.835   1.947   5.669 -0.8483 -1.1493  0.0044
  668MOL0     C90109   7.816   1.845   5.609  0.0002 -0.4170  0.2186
  668MOL0     C90110   8.434   1.862   5.613  0.1701 -0.8218 -0.1527
  668MOL0     C90111   8.566   1.816   5.594  0.2143  0.0874 -1.1935
  668MOL0     C90112   8.570   1.693   5.521  0.2695 -0.2202 -0.0886
  668MOL0     H90113   9.026   1.767   5.891 -1.1693 -0.0166 -1.0366
  668MOL0     H90114   9.267   1.709   5.888 -1.2518  1.4725  1.5779
  668MOL0     H90115   9.479   1.781   5.540  0.8410  1.2880 -2.0158
  668MOL0     H90116   9.535   1.940   5.599 -2.6922 -0.0857  0.0085
  668MOL0     H90117   9.726   1.784   5.711 -2.3408  0.1164  1.9861
  668MOL0     H90118   9.735   1.806   5.547  1.4360 -0.2073  0.2770
  668MOL0     H90119   9.562   1.578   5.645 -0.8812  2.5140  0.3168
  668MOL0     H90120   9.741   1.562   5.667  0.9323  0.3466 -1.4063
  668MOL0     H90121   9.636   1.611   5.391  0.5744  1.2936  0.9045
  668MOL0     H90122   9.786   1.575   5.436 -1.3045  1.2704 -3.4536
  668MOL0     H90123   9.642   1.354   5.555  0.9023  1.6364  0.6598
  668MOL0     H90124   9.551   1.377   5.408  0.9590  0.6227 -2.6270
  668MOL0     H90125   9.746   1.350   5.271 -0.6471 -3.6980 -0.6911
  668MOL0     H90126   9.849   1.326   5.419  0.8243  0.3304 -0.9567
  668MOL0     H90127   9.758   1.133   5.286  3.2595  0.1951  2.2197
  668MOL0     H90128   9.590   1.165   5.354  0.3669 -0.1264  0.8803
  668MOL0     H90129   9.752   0.988   5.471 -0.5364 -0.2624 -0.0115
  668MOL0     H90130   9.837   1.135   5.527  0.9037 -0.5494 -3.1641
  668MOL0     H90131   9.752   1.186   5.745 -2.2017  2.9998  1.4004
  668MOL0     H90132   9.434   1.224   5.924  1.6734  1.4339 -1.1273
  668MOL0     H90133   9.470   1.059   5.973 -1.0738  0.6959  1.4071
  668MOL0     H90134   9.623   1.206   6.127  0.2764  1.5717  0.2027
  668MOL0     H90135   9.724   1.151   5.991  0.8124  2.5157 -1.7445
  668MOL0     H90136   9.577   1.406   6.065  1.6644 -1.0485  2.8080
  668MOL0     H90137   9.589   1.376   5.895 -0.8367 -0.4466  0.8790
  668MOL0     H90138   9.830   1.391   6.101  0.4792 -0.0573 -0.0919
  668MOL0     H90139   9.776   1.526   5.996  0.3698 -0.5090  2.3879
  668MOL0     H90140  10.010   1.269   5.740 -0.7586 -0.0616 -0.2710
  668MOL0     H90141  10.186   1.374   5.587 -1.3952 -1.7192  0.7071
  668MOL0     H90142  10.331   1.736   5.274 -1.2226 -0.4071  2.6218
  668MOL0     H90143  10.537   1.812   5.161 -1.0277  1.4547  0.8287
  668MOL0     H90144  10.947   1.719   5.333  1.3469  3.1527 -1.1080
  668MOL0     H90145  10.901   1.583   5.230  1.9494 -0.0504 -1.6837
  668MOL0     H90146  10.952   1.734   5.033 -0.0060 -0.9570 -0.5500
  668MOL0     H90147  11.029   1.842   5.150 -0.6738  0.5774  0.2709
  668MOL0     H90148  11.152   1.619   5.223  0.0981 -2.6352 -0.4025
  668MOL0     H90149  11.110   1.551   5.073  1.7121 -1.1726  0.4663
  668MOL0     H90150  11.269   1.816   5.116 -0.2509 -0.3006  0.2876
  668MOL0     H90151  11.194   1.782   4.966  1.6051  2.1508 -0.1903
  668MOL0     H90152  11.310   1.562   4.953 -1.9977  2.1363 -0.7126
  668MOL0     H90153  11.375   1.579   5.114  1.5892  0.8094  0.1388
  668MOL0     H90154  11.430   1.736   4.870 -0.6591 -2.3528 -2.3240
  668MOL0     H90155  11.515   1.777   5.025  1.4994  0.8222 -1.8933
  668MOL0     H90156  11.528   1.532   4.842  0.4215 -1.8724  1.8384
  668MOL0     H90157  11.620   1.536   4.994  0.5644  0.6034 -0.2491
  668MOL0     H90158  11.774   1.615   4.788  0.4365  1.4990 -0.3568
  668MOL0     H90159  11.639   1.739   4.774 -1.5221 -0.3835  0.5788
  668MOL0     H90160  10.765   1.592   5.450 -0.8891 -1.6587  1.8984
  668MOL0     H90161  10.578   1.495   5.538  2.0996  3.1955  1.1849
  668MOL0     H90162  10.104   1.757   5.770  0.7070  0.4534 -0.3368
  668MOL0     H90163   9.928   1.649   5.903  1.0680 -0.3937  0.4189
  668MOL0     H90164   9.320   1.989   5.557  0.6371 -0.1943  0.3201
  668MOL0     H90165   9.067   2.034   5.564 -0.4541  0.4260  1.1515
  668MOL0     H90166   8.729   2.072   5.740  0.4321  0.8013 -1.7677
  668MOL0     H90167   8.488   2.152   5.776 -1.8164  0.1917 -2.9200
  668MOL0     H90168   8.249   2.182   5.796  0.4393  0.2735  0.5719
  668MOL0     H90169   8.284   2.041   5.902  0.3327  0.6596 -1.2573
  668MOL0     H90170   8.037   2.059   5.930  0.5397 -0.8281  1.0670
  668MOL0     H90171   8.060   1.946   5.802 -0.6090 -0.0532  2.4370
  668MOL0     H90172   8.043   2.148   5.626 -1.3151 -1.3177 -0.5146
  668MOL0     H90173   7.994   2.244   5.761  2.8092  1.2893 -1.7105
  668MOL0     H90174   7.818   2.077   5.832 -0.3019  3.4767 -0.0264
  668MOL0     H90175   7.791   2.153   5.674  0.7732  0.3606  0.6735
  668MOL0     H90176   7.804   1.744   5.575 -2.4291  0.4247 -1.7124
  668MOL0     H90177   8.346   1.807   5.581 -0.2820  0.8281 -1.8780
  668MOL0     H90178   8.648   1.693   5.443  0.9985 -1.4482  0.6112
  668MOL0     H90179   8.594   1.617   5.596 -0.6334 -1.3733 -0.9212
  668MOL0     H90180   8.478   1.654   5.476  0.0616 -2.2311  1.8951
  669MOL0     O90181   2.422   5.170   3.253  0.1199  0.0654 -0.0804
  669MOL0     C90182   2.400   5.096   3.350 -0.1550 -0.2856  0.7897
  669MOL0     O90183   2.485   5.007   3.401  0.1916 -0.2188 -0.6568
  669MOL0     C90184   2.610   4.983   3.361 -0.6078  0.4983  0.5024
  669MOL0     C90185   2.691   4.956   3.462  0.2765 -0.9341 -0.4109
  669MOL0     C90186   2.825   4.941   3.447 -0.0660  0.1840 -0.4287
  669MOL0     C90187   2.877   4.927   3.311  0.9912 -0.1295 -0.2788
  669MOL0     O90188   2.999   4.880   3.286 -0.5588  0.6732 -0.2853
  669MOL0     C90189   3.106   4.961   3.350  0.3298 -0.1044  0.4499
  669MOL0     C90190   3.243   4.892   3.340  0.4259 -0.1574 -0.0934
  669MOL0     C90191   3.351   4.965   3.415  0.4473 -0.7773 -0.0761
  669MOL0     C90192   3.481   4.896   3.387 -0.0845  0.4546  0.4210
  669MOL0     C90193   3.600   4.949   3.473  0.7963 -0.1490 -0.1467
  669MOL0     C90194   3.738   4.884   3.430 -0.2154 -0.2766 -0.8985
  669MOL0     C90195   3.857   4.959   3.497 -0.4008 -0.0013  0.5975
  669MOL0     C90196   3.988   4.880   3.483  0.3093 -0.1885  0.0127
  669MOL0     N90197   4.092   4.943   3.564 -0.2584  0.0912 -0.4920
  669MOL0     C90198   4.195   5.009   3.511 -0.7537 -0.7298  0.5475
  669MOL0     C90199   4.289   5.005   3.605  0.3688 -1.5456 -0.2141
  669MOL0     C90200   4.432   5.060   3.597 -0.7509 -0.1785  0.5379
  669MOL0     C90201   4.529   5.019   3.721 -0.7049 -0.2039 -0.3339
  669MOL0     C90202   4.681   5.066   3.706 -0.5248  0.9020 -0.3531
  669MOL0     C90203   4.777   5.010   3.800 -1.6242  0.4129 -0.3351
  669MOL0     O90204   4.899   5.076   3.784  0.0520 -0.4679  0.3287
  669MOL0     C90205   5.004   5.072   3.872  0.4317 -0.3507 -0.7017
  669MOL0     C90206   5.128   5.115   3.831  1.2455  0.2004 -0.0071
  669MOL0     C90207   5.229   5.126   3.922 -0.8302  0.7433 -1.1141
  669MOL0     C90208   5.213   5.092   4.061  0.0589  0.5469  0.2009
  669MOL0     C90209   5.327   5.113   4.151  0.3248  0.0963  0.2782
  669MOL0     O90210   5.445   5.157   4.104  0.3437  0.5506  0.1170
  669MOL0     C90211   5.543   5.186   4.188  0.2276  0.3055  0.1411
  669MOL0     C90212   5.668   5.126   4.155 -0.2866  0.0065  1.0104
  669MOL0     C90213   5.773   5.152   4.239 -0.1024 -1.2129  0.3405
  669MOL0     C90214   5.765   5.262   4.326 -0.6287 -0.3973  0.3487
  669MOL0     O90215   5.885   5.302   4.387  0.2820 -0.0790 -0.8030
  669MOL0     C90216   5.912   5.435   4.424 -0.2754 -0.4917  0.4958
  669MOL0     C90217   6.042   5.441   4.508  0.7500 -0.1197  0.0477
  669MOL0     C90218   6.125   5.559   4.472 -0.1301  0.0176  0.3203
  669MOL0     C90219   6.248   5.550   4.561  0.4208  0.3386  0.1240
  669MOL0     C90220   6.352   5.650   4.522  0.2251  0.1832  0.7186
  669MOL0     C90221   6.500   5.620   4.559 -0.2468  0.2434  0.0665
  669MOL0     C90222   6.573   5.502   4.486 -0.3518  0.7601  0.3941
  669MOL0     C90223   6.722   5.505   4.493 -0.3600 -0.5335 -0.0236
  669MOL0    Cl90224   6.799   5.634   4.410 -0.0083 -0.0859 -0.0008
  669MOL0     C90225   5.642   5.330   4.351  0.3755  0.1438 -0.0780
  669MOL0     C90226   5.525   5.285   4.288  0.8351 -0.8511  0.5189
  669MOL0     O90227   5.295   5.074   4.264 -0.7208  0.0392 -0.7595
  669MOL0     C90228   5.087   5.029   4.099  0.2408 -0.5908  0.1286
  669MOL0     C90229   4.991   5.018   4.002  0.5994 -0.2617  0.5655
  669MOL0     N90230   4.233   4.961   3.723  0.5801  0.5396 -0.1728
  669MOL0     N90231   4.119   4.915   3.700  0.3018 -0.1522  0.1321
  669MOL0     C90232   2.789   4.931   3.201 -0.0162 -0.5409 -0.1340
  669MOL0     C90233   2.657   4.959   3.231  0.4124  0.4874 -0.0037
  669MOL0     C90234   2.273   5.125   3.427  0.2134 -0.5647 -0.7098
  669MOL0     C90235   2.253   5.073   3.554 -1.0944  0.3367 -0.3138
  669MOL0     C90236   2.145   5.100   3.638 -0.0836  0.1597  0.1819
  669MOL0     C90237   2.051   5.194   3.593 -0.0115  0.1980  0.4188
  669MOL0     O90238   1.953   5.228   3.674 -0.1439  1.2041 -0.0346
  669MOL0     C90239   1.834   5.313   3.633  0.1779 -0.0918  0.9585
  669MOL0     C90240   1.744   5.324   3.754  0.1054  0.7385 -0.1098
  669MOL0     C90241   1.663   5.192   3.775 -0.2849  0.0209 -0.2622
  669MOL0     C90242   1.736   5.093   3.883 -0.2730  0.1140 -1.1740
  669MOL0     C90243   1.658   4.969   3.897 -0.6577  0.8830 -0.7040
  669MOL0     C90244   1.604   4.861   3.902  1.1137 -0.2646 -0.5046
  669MOL0     C90245   2.067   5.247   3.461  0.4868  0.5757 -0.1822
  669MOL0     C90246   2.168   5.205   3.374  0.8535 -0.1245 -0.4648
  669MOL0     C90247   2.158   5.237   3.225  0.6272  0.0510 -0.7392
  669MOL0     H90248   2.656   4.975   3.562  0.6215  0.9667 -0.6171
  669MOL0     H90249   2.888   4.925   3.534  1.4573  1.8566 -1.1674
  669MOL0     H90250   3.106   5.051   3.287 -2.8924  0.0855  0.5601
  669MOL0     H90251   3.100   4.997   3.453 -0.7465 -0.0169  0.3755
  669MOL0     H90252   3.272   4.880   3.235  1.9263  0.7444  0.1966
  669MOL0     H90253   3.228   4.790   3.377 -0.4186  0.4936  1.4608
  669MOL0     H90254   3.329   4.956   3.522  1.9256  2.6859  0.6490
  669MOL0     H90255   3.355   5.073   3.399 -1.3619 -0.4777  1.1784
  669MOL0     H90256   3.475   4.787   3.372  3.2287  0.2688 -0.3590
  669MOL0     H90257   3.506   4.910   3.281 -0.5577  2.5508  0.5505
  669MOL0     H90258   3.603   5.056   3.452  2.1164 -0.5936 -2.6020
  669MOL0     H90259   3.575   4.937   3.579 -1.7380  4.8433  0.1637
  669MOL0     H90260   3.735   4.778   3.457  3.7167 -1.7307 -4.9410
  669MOL0     H90261   3.767   4.887   3.324 -1.8174  1.5677 -1.3490
  669MOL0     H90262   3.836   4.970   3.604  2.4878 -0.8800  1.3511
  669MOL0     H90263   3.866   5.053   3.442 -1.4943  0.1042  0.5823
  669MOL0     H90264   3.965   4.784   3.530 -3.2063  1.5791  2.3147
  669MOL0     H90265   4.016   4.871   3.378  1.7541  0.4140  0.3218
  669MOL0     H90266   4.200   5.043   3.408 -0.0475  1.8708  1.3655
  669MOL0     H90267   4.475   5.031   3.501 -1.0612  0.8151  0.0876
  669MOL0     H90268   4.421   5.169   3.605 -2.7822 -0.4148  1.8305
  669MOL0     H90269   4.483   5.068   3.807 -1.2031 -1.9306  0.4380
  669MOL0     H90270   4.539   4.912   3.740  2.4503  0.6337  4.5537
  669MOL0     H90271   4.694   5.174   3.716  1.0391  0.7548 -0.5997
  669MOL0     H90272   4.717   5.046   3.605 -0.8761 -4.7205  0.3185
  669MOL0     H90273   4.788   4.903   3.783 -2.4409  0.1534  0.6924
  669MOL0     H90274   4.740   5.026   3.901 -0.1462 -0.9322  0.4540
  669MOL0     H90275   5.136   5.159   3.733  1.2689  0.5638  0.1562
  669MOL0     H90276   5.310   5.185   3.882  0.2637 -0.8192 -1.2751
  669MOL0     H90277   5.672   5.051   4.076  0.5572  2.0156 -0.9696
  669MOL0     H90278   5.864   5.094   4.231  0.2801 -0.5640 -0.0758
  669MOL0     H90279   5.920   5.502   4.337 -0.4827 -0.8209  0.2228
  669MOL0     H90280   5.839   5.469   4.498 -1.3603 -4.6809  1.6210
  669MOL0     H90281   6.011   5.460   4.611 -2.2536  0.5284 -0.8864
  669MOL0     H90282   6.101   5.350   4.492  0.7226 -0.2037  0.4229
  669MOL0     H90283   6.156   5.548   4.367 -1.6196  0.2905 -0.1648
  669MOL0     H90284   6.069   5.651   4.491  0.5627 -0.0605  3.2554
  669MOL0     H90285   6.282   5.446   4.563  2.2680  0.9083  2.6232
  669MOL0     H90286   6.224   5.578   4.664  2.4339  0.4602  0.6090
  669MOL0     H90287   6.322   5.741   4.575  0.0720 -0.2263  1.3369
  669MOL0     H90288   6.342   5.675   4.416 -2.3174  0.4287  0.9673
  669MOL0     H90289   6.564   5.709   4.553 -0.1905  0.1074 -3.2339
  669MOL0     H90290   6.496   5.595   4.665  2.0561 -2.2736 -0.3159
  669MOL0     H90291   6.552   5.489   4.380  0.7187 -3.9737  0.5667
  669MOL0     H90292   6.533   5.406   4.520  0.2523  0.3973  0.0882
  669MOL0     H90293   6.757   5.513   4.596 -4.2138 -1.4354  1.5265
  669MOL0     H90294   6.762   5.411   4.452 -5.2012 -2.3805 -1.2999
  669MOL0     H90295   5.636   5.410   4.424  3.7122 -0.4999  1.1104
  669MOL0     H90296   5.430   5.334   4.309  0.1618 -0.7861 -2.2736
  669MOL0     H90297   5.076   5.007   4.205  3.4922 -0.6437  0.5592
  669MOL0     H90298   4.896   4.971   4.028  0.8166 -0.3225  1.2607
  669MOL0     H90299   2.835   4.910   3.105 -1.8171  0.2496 -1.2234
  669MOL0     H90300   2.591   4.963   3.145 -1.7432  1.7428  1.6093
  669MOL0     H90301   2.319   4.999   3.598 -0.7914  1.4360  1.1280
  669MOL0     H90302   2.139   5.044   3.731 -2.4543  1.9227  1.1896
  669MOL0     H90303   1.788   5.248   3.558  0.4771 -0.8184  1.4037
  669MOL0     H90304   1.873   5.411   3.601 -0.2239  0.1100  1.0771
  669MOL0     H90305   1.675   5.408   3.742  1.1720  1.5327 -0.9095
  669MOL0     H90306   1.802   5.351   3.843 -1.7044  1.2341  0.9711
  669MOL0     H90307   1.645   5.144   3.678  0.8409  2.0753 -1.5847
  669MOL0     H90308   1.564   5.212   3.816  0.5508 -1.5279  2.7947
  669MOL0     H90309   1.832   5.062   3.840 -0.7500 -1.1659 -1.3715
  669MOL0     H90310   1.759   5.143   3.977  1.3705  1.2249 -2.1152
  669MOL0     H90311   1.543   4.773   3.897  0.4247 -0.3373  4.3810
  669MOL0     H90312   1.988   5.309   3.419 -0.6567 -0.1497  0.8571
  669MOL0     H90313   2.057   5.257   3.187 -0.1349 -1.3805  0.4095
  669MOL0     H90314   2.225   5.323   3.221 -0.1594  0.8636  1.4712
  669MOL0     H90315   2.196   5.152   3.167  5.0446  0.9276  0.4972
  670MOL0     O90316  10.792   9.151   5.361 -0.3745  0.0792  0.7304
  670MOL0     C90317  10.750   9.234   5.437 -0.8411  0.3668 -0.2939
  670MOL0     O90318  10.824   9.296   5.521 -0.8707  0.0452  0.5808
  670MOL0     C90319  10.956   9.259   5.539 -0.3491  0.0891 -0.4356
  670MOL0     C90320  10.993   9.231   5.669 -0.9203 -0.0209 -0.3436
  670MOL0     C90321  11.132   9.201   5.699  0.2728 -0.0755 -0.5398
  670MOL0     C90322  11.232   9.201   5.600  0.1695  0.5891  0.1441
  670MOL0     O90323  11.365   9.189   5.635 -0.4883 -0.0365  0.4188
  670MOL0     C90324  11.428   9.317   5.656  1.1547  0.0552  0.7043
  670MOL0     C90325  11.539   9.291   5.761  0.3968 -0.5913 -0.0176
  670MOL0     C90326  11.578   9.422   5.805 -0.8339 -0.8244 -0.1221
  670MOL0     C90327  11.700   9.417   5.904  0.5434  0.3241  0.0851
  670MOL0     C90328  11.720   9.570   5.928  0.8591  0.0281 -0.6471
  670MOL0     C90329  11.827   9.573   6.036 -0.1572  0.6968  0.2757
  670MOL0     C90330  11.850   9.727   6.070  0.4147 -0.0222 -0.0045
  670MOL0     C90331  11.931   9.754   6.194 -0.3442  1.3467  0.1875
  670MOL0     N90332  12.053   9.683   6.215 -0.4714  0.1283 -0.2038
  670MOL0     C90333  12.083   9.624   6.332  0.5581 -0.0429  0.3093
  670MOL0     C90334  12.173   9.530   6.305  0.7434 -0.4406  0.2075
  670MOL0     C90335  12.221   9.420   6.395 -0.7693 -1.0572  0.3678
  670MOL0     C90336  12.370   9.389   6.385 -0.0488  0.0010 -0.5199
  670MOL0     C90337  12.448   9.508   6.436 -0.1789  0.5232  0.5760
  670MOL0     C90338  12.603   9.499   6.447  0.0031  0.8403 -0.3747
  670MOL0     O90339  12.666   9.457   6.326  0.1987  0.5176 -0.3617
  670MOL0     C90340  12.804   9.455   6.326 -0.5196  0.9097 -0.1890
  670MOL0     C90341  12.890   9.530   6.400 -0.3049 -1.0477 -0.3754
  670MOL0     C90342  13.030   9.511   6.404  0.5624  1.2046 -0.3244
  670MOL0     C90343  13.089   9.408   6.321  0.6536 -0.3928  0.3449
  670MOL0     C90344  13.235   9.390   6.308  0.2608  0.0078 -0.0243
  670MOL0     O90345  13.309   9.512   6.327  0.2044 -0.4175  0.5647
  670MOL0     C90346  13.444   9.487   6.341 -0.3205  0.2578 -0.1282
  670MOL0     C90347  13.520   9.477   6.222 -0.0823  0.5138 -0.6197
  670MOL0     C90348  13.663   9.463   6.227  0.4078 -0.2230  0.8000
  670MOL0     C90349  13.738   9.445   6.350  0.5137 -0.7637  0.6065
  670MOL0     O90350  13.876   9.453   6.360  0.1622  0.6579 -0.5742
  670MOL0     C90351  13.929   9.559   6.284  0.1952  0.3542  0.3579
  670MOL0     C90352  14.057   9.589   6.356  0.2545 -0.4500  0.2672
  670MOL0     C90353  14.044   9.687   6.471 -0.1391 -0.5796  0.7125
  670MOL0     C90354  14.178   9.701   6.549 -0.0499 -0.4715 -0.0540
  670MOL0     C90355  14.161   9.807   6.661  0.2108 -0.2176 -0.1807
  670MOL0     C90356  14.289   9.843   6.734 -0.1369  0.1893  0.2019
  670MOL0     C90357  14.386   9.939   6.657 -0.2034  0.7646  0.0374
  670MOL0     C90358  14.489  10.005   6.752  0.1621  0.1223 -0.4650
  670MOL0    Cl90359  14.617  10.056   6.641  0.2233  0.1938  0.3405
  670MOL0     C90360  13.657   9.446   6.462 -0.5588  0.6173 -0.2196
  670MOL0     C90361  13.516   9.468   6.457  1.0229  1.0665  0.3671
  670MOL0     O90362  13.281   9.276   6.295 -0.1880 -0.1638 -0.5715
  670MOL0     C90363  13.000   9.328   6.244  0.0598  0.0027  0.6277
  670MOL0     C90364  12.864   9.351   6.253 -0.1878 -0.6671  0.9058
  670MOL0     N90365  12.214   9.543   6.176  0.1020 -0.7829  0.1962
  670MOL0     N90366  12.138   9.629   6.118  0.6214 -1.0007  0.6704
  670MOL0     C90367  11.189   9.228   5.462 -0.2250  0.8478  0.2658
  670MOL0     C90368  11.053   9.251   5.438  0.0919  0.5696  0.0056
  670MOL0     C90369  10.619   9.285   5.405 -0.1270 -1.0140 -1.0434
  670MOL0     C90370  10.596   9.425   5.416  0.0751  0.6529 -0.0137
  670MOL0     C90371  10.473   9.485   5.387  0.0409  0.4484 -0.0598
  670MOL0     C90372  10.363   9.399   5.369 -0.1694 -0.3877 -0.2360
  670MOL0     O90373  10.243   9.465   5.362 -0.2292  1.0151 -0.8565
  670MOL0     C90374  10.111   9.400   5.357  0.3872  0.4094 -0.2749
  670MOL0     C90375  10.065   9.349   5.494 -0.2058  0.2012 -0.0849
  670MOL0     C90376   9.918   9.302   5.492 -0.5095  0.0015 -0.8809
  670MOL0     C90377   9.903   9.154   5.481  0.5826 -0.2465  0.1608
  670MOL0     C90378   9.976   9.092   5.358  0.0947  0.8552 -0.2311
  670MOL0     C90379  10.029   9.032   5.270  0.0956 -0.0822  0.1601
  670MOL0     C90380  10.377   9.265   5.348 -0.0301  0.4810  0.4858
  670MOL0     C90381  10.504   9.206   5.380 -1.0592  0.2921  0.1174
  670MOL0     C90382  10.505   9.053   5.390  0.1065 -0.1120 -0.3955
  670MOL0     H90383  10.921   9.249   5.749 -0.8394 -1.1754  0.0048
  670MOL0     H90384  11.153   9.190   5.805  0.5162 -0.9478 -0.6721
  670MOL0     H90385  11.470   9.363   5.566 -0.0719  3.3039  1.6366
  670MOL0     H90386  11.353   9.382   5.703 -1.1049 -0.5741 -1.7575
  670MOL0     H90387  11.615   9.234   5.708  0.4970 -0.9655  0.5177
  670MOL0     H90388  11.502   9.232   5.845  2.5389  0.5027  1.8260
  670MOL0     H90389  11.489   9.448   5.862 -1.0806  1.5165 -1.4569
  670MOL0     H90390  11.597   9.488   5.720  1.6466 -2.0072 -0.6032
  670MOL0     H90391  11.682   9.358   5.994  0.2394  1.5617  0.8618
  670MOL0     H90392  11.795   9.392   5.855 -0.0185  2.1429 -2.1008
  670MOL0     H90393  11.741   9.628   5.838 -0.5767  2.3177  0.3843
  670MOL0     H90394  11.634   9.613   5.981 -0.9656 -3.1595 -0.7138
  670MOL0     H90395  11.802   9.508   6.120  1.4527 -1.8641 -1.0990
  670MOL0     H90396  11.916   9.536   5.984  0.0198  0.9008  0.4290
  670MOL0     H90397  11.753   9.776   6.084  1.6669  2.1166  1.7780
  670MOL0     H90398  11.897   9.785   5.990  0.8472 -1.6729 -0.9938
  670MOL0     H90399  11.949   9.862   6.184  3.9039  0.6115 -4.0750
  670MOL0     H90400  11.868   9.730   6.280 -0.1414 -0.4679 -0.1307
  670MOL0     H90401  12.026   9.649   6.421 -1.7079  0.2978 -1.1302
  670MOL0     H90402  12.201   9.457   6.496  0.2434  1.5338 -0.3088
  670MOL0     H90403  12.162   9.329   6.382 -1.5212 -0.5595  0.1960
  670MOL0     H90404  12.388   9.304   6.452  2.2432  0.6701 -0.2348
  670MOL0     H90405  12.408   9.343   6.293 -2.0504 -2.1766 -0.3745
  670MOL0     H90406  12.415   9.527   6.539 -0.0636 -2.1038  1.1841
  670MOL0     H90407  12.423   9.589   6.368 -0.2673  0.1672  0.1832
  670MOL0     H90408  12.628   9.423   6.522 -2.3754  2.3401  2.1297
  670MOL0     H90409  12.643   9.596   6.476  1.8869 -0.1691  0.6133
  670MOL0     H90410  12.857   9.611   6.463 -1.9107 -0.1434 -2.2693
  670MOL0     H90411  13.098   9.566   6.468 -0.9071 -0.3967  2.8782
  670MOL0     H90412  13.482   9.494   6.122  2.5620 -0.8165 -1.9636
  670MOL0     H90413  13.709   9.474   6.129 -0.9833  1.4618  0.2739
  670MOL0     H90414  13.953   9.513   6.188 -0.7303 -4.8449  2.3175
  670MOL0     H90415  13.869   9.650   6.273 -0.3327  0.1961  1.7446
  670MOL0     H90416  14.098   9.492   6.387 -0.2874  0.0718  2.8259
  670MOL0     H90417  14.126   9.639   6.287 -0.5576 -0.2071 -0.3874
  670MOL0     H90418  14.013   9.786   6.435 -1.3847 -0.9511  0.7168
  670MOL0     H90419  13.972   9.645   6.540  1.9139 -0.6578  2.9365
  670MOL0     H90420  14.256   9.740   6.483  1.7671 -1.4658  1.4013
  670MOL0     H90421  14.214   9.607   6.592  1.7725  0.5448  0.7318
  670MOL0     H90422  14.089   9.755   6.725  2.4571 -2.5865  0.6252
  670MOL0     H90423  14.128   9.906   6.629 -0.2621  0.5817  2.5180
  670MOL0     H90424  14.261   9.902   6.822 -1.2279  0.1191 -0.0935
  670MOL0     H90425  14.337   9.750   6.765  0.2514  1.1219  2.6188
  670MOL0     H90426  14.332  10.022   6.613 -2.2664  0.6382  2.1761
  670MOL0     H90427  14.449   9.885   6.584  0.8903  0.4929  1.1400
  670MOL0     H90428  14.441  10.085   6.809 -0.6591  0.8629 -2.1253
  670MOL0     H90429  14.517   9.931   6.828 -3.4833 -0.9052  0.0658
  670MOL0     H90430  13.698   9.439   6.563  0.9347  1.6543 -0.7196
  670MOL0     H90431  13.463   9.474   6.551 -2.1480 -0.2336 -1.1781
  670MOL0     H90432  13.040   9.239   6.197 -1.3433  0.1535 -0.9497
  670MOL0     H90433  12.790   9.289   6.203  0.5442  1.2222 -2.9537
  670MOL0     H90434  11.262   9.223   5.381  0.7083  0.4734  1.1036
  670MOL0     H90435  11.016   9.275   5.339 -2.2755 -0.6418  0.5375
  670MOL0     H90436  10.683   9.490   5.412  1.4770 -1.0813  0.7540
  670MOL0     H90437  10.456   9.592   5.388 -1.5533  0.2130  1.9029
  670MOL0     H90438  10.102   9.330   5.274 -0.9045  0.0176  0.1762
  670MOL0     H90439  10.044   9.485   5.337  2.3108  2.0328 -0.1336
  670MOL0     H90440  10.050   9.438   5.557 -3.6509  0.0491 -0.5250
  670MOL0     H90441  10.129   9.276   5.544  0.7797  1.5201  0.6712
  670MOL0     H90442   9.876   9.364   5.413 -0.7092  0.5619 -0.3401
  670MOL0     H90443   9.863   9.338   5.579 -1.7146  0.7685 -1.9342
  670MOL0     H90444   9.938   9.098   5.568  0.8582 -2.2098 -1.1544
  670MOL0     H90445   9.800   9.137   5.449  1.1601  0.6099 -2.4735
  670MOL0     H90446  10.065   8.967   5.194  0.8975  0.9085 -0.3252
  670MOL0     H90447  10.284   9.213   5.330 -0.3677  0.8885  1.0173
  670MOL0     H90448  10.408   9.014   5.424  0.9547 -0.6349  1.5580
  670MOL0     H90449  10.529   9.003   5.295  0.7416 -0.4654 -0.0580
  670MOL0     H90450  10.576   9.009   5.460 -1.7263 -2.2159  0.2453
  671MOL0     O90451   1.870   5.437   1.580 -0.2988  0.8498 -0.2227
  671MOL0     C90452   1.865   5.421   1.458 -0.1559 -0.1268 -0.0591
  671MOL0     O90453   1.966   5.436   1.368 -0.0254 -0.9007  0.2284
  671MOL0     C90454   2.103   5.430   1.400  0.4371  0.2962  0.2133
  671MOL0     C90455   2.166   5.449   1.526 -0.8036  0.1450 -0.0058
  671MOL0     C90456   2.304   5.444   1.543 -0.0430 -0.1807 -0.0313
  671MOL0     C90457   2.380   5.417   1.432 -0.3972  0.3894 -0.3962
  671MOL0     O90458   2.513   5.401   1.454  0.1650 -0.6611  0.4003
  671MOL0     C90459   2.598   5.503   1.405 -0.1882 -0.2934 -0.5467
  671MOL0     C90460   2.734   5.455   1.436 -0.0221 -0.4817 -0.7570
  671MOL0     C90461   2.844   5.556   1.385  0.4627  0.5090 -0.3967
  671MOL0     C90462   2.974   5.518   1.462 -0.0370  0.7412  0.6939
  671MOL0     C90463   3.099   5.563   1.391  0.5960  0.6134  1.1979
  671MOL0     C90464   3.231   5.523   1.461 -0.9045 -1.3287 -0.0831
  671MOL0     C90465   3.342   5.606   1.401  0.7105  1.0496 -0.4050
  671MOL0     C90466   3.360   5.571   1.256  0.7345 -0.0966 -0.8167
  671MOL0     N90467   3.492   5.593   1.208  0.0939 -0.1830  0.4475
  671MOL0     C90468   3.605   5.524   1.247  0.8014  0.0041  0.0078
  671MOL0     C90469   3.709   5.579   1.180  0.3626 -0.0643  0.0215
  671MOL0     C90470   3.860   5.543   1.172  0.1176 -0.0251  0.2397
  671MOL0     C90471   3.943   5.650   1.240 -0.3734  0.8709  0.1833
  671MOL0     C90472   3.977   5.754   1.133 -0.4409  0.5958  0.8684
  671MOL0     C90473   3.941   5.887   1.196  0.9737 -0.0326  0.4628
  671MOL0     O90474   3.988   5.980   1.104 -0.1884  0.3135  0.2923
  671MOL0     C90475   3.919   6.030   0.993 -0.8365  0.0391  0.7364
  671MOL0     C90476   3.988   6.110   0.908  0.2274  0.6995 -0.5728
  671MOL0     C90477   3.933   6.177   0.803  0.4969  0.1413  0.3608
  671MOL0     C90478   3.799   6.151   0.775 -0.9579  0.0092  0.5478
  671MOL0     C90479   3.742   6.202   0.649  0.1240 -0.1126 -0.6542
  671MOL0     O90480   3.609   6.201   0.651  0.4362  0.8383  1.1914
  671MOL0     C90481   3.541   6.188   0.534  1.9364 -0.4002 -0.5558
  671MOL0     C90482   3.399   6.212   0.543 -0.9220  1.0218 -0.1224
  671MOL0     C90483   3.321   6.196   0.429 -0.6710 -1.2554 -0.1127
  671MOL0     C90484   3.367   6.158   0.310 -0.4795 -0.5971  0.0453
  671MOL0     O90485   3.278   6.145   0.206 -0.8208 -0.0327 -0.2170
  671MOL0     C90486   3.314   6.160   0.067 -0.6909 -0.0242 -0.5336
  671MOL0     C90487   3.188   6.181  -0.024  1.1239  0.0195  0.6768
  671MOL0     C90488   3.128   6.312   0.004 -1.0249 -0.1641  0.4963
  671MOL0     C90489   3.017   6.343  -0.094  0.2098 -0.0979  0.5151
  671MOL0     C90490   2.961   6.485  -0.092  0.3715  0.1101 -0.1050
  671MOL0     C90491   2.917   6.531  -0.228 -0.7757 -0.1987 -0.2315
  671MOL0     C90492   2.795   6.437  -0.266 -1.4480  0.2855  0.3165
  671MOL0     C90493   2.746   6.448  -0.411 -0.6846  0.1847  0.4131
  671MOL0    Cl90494   2.881   6.364  -0.497  0.2052  0.5184  0.0018
  671MOL0     C90495   3.505   6.132   0.302  0.0529  0.6570  0.4749
  671MOL0     C90496   3.590   6.140   0.413 -0.6672 -0.3020  1.3405
  671MOL0     O90497   3.813   6.248   0.566  0.0567 -0.1319  0.3976
  671MOL0     C90498   3.722   6.072   0.861  0.3841  0.2650  0.5412
  671MOL0     C90499   3.783   6.011   0.967 -0.2099  0.3737 -0.0665
  671MOL0     N90500   3.664   5.678   1.098 -0.2917 -0.3314 -0.1178
  671MOL0     N90501   3.536   5.692   1.122  1.4262 -0.3580 -0.1536
  671MOL0     C90502   2.326   5.395   1.310 -0.0814 -0.5396 -0.1121
  671MOL0     C90503   2.188   5.410   1.291  0.0201 -1.2024  0.0887
  671MOL0     C90504   1.739   5.364   1.407 -0.0428 -0.0314  0.3840
  671MOL0     C90505   1.751   5.288   1.279  0.0867  0.2426  0.0101
  671MOL0     C90506   1.643   5.208   1.234 -0.3573 -0.5166 -0.0122
  671MOL0     C90507   1.516   5.211   1.300 -0.2824 -0.2981 -0.1050
  671MOL0     O90508   1.423   5.136   1.241  0.7742 -0.0995  0.6633
  671MOL0     C90509   1.288   5.144   1.287  0.0380  0.5955  0.2587
  671MOL0     C90510   1.201   5.056   1.203  0.2024 -0.1917  0.6354
  671MOL0     C90511   1.054   5.087   1.230 -0.9659  0.4565  0.2389
  671MOL0     C90512   0.973   4.981   1.153  0.0136 -0.0004  0.4489
  671MOL0     C90513   0.969   5.018   1.010 -0.8274 -0.2866 -0.2334
  671MOL0     C90514   0.953   5.044   0.898  0.0211 -0.0699 -0.1755
  671MOL0     C90515   1.503   5.289   1.416 -0.0046  0.2031 -0.0913
  671MOL0     C90516   1.610   5.370   1.466 -0.5117 -0.4435 -0.6398
  671MOL0     C90517   1.578   5.444   1.596 -0.3004  0.1057  0.5286
  671MOL0     H90518   2.109   5.463   1.617  0.1334  0.1905  0.5897
  671MOL0     H90519   2.342   5.450   1.645  3.2579  1.9666 -1.2186
  671MOL0     H90520   2.590   5.506   1.296  0.4983 -5.4128 -1.0014
  671MOL0     H90521   2.570   5.601   1.443  2.8320  0.3710  0.2407
  671MOL0     H90522   2.752   5.353   1.403 -1.1153 -0.8788 -0.1830
  671MOL0     H90523   2.738   5.462   1.546  2.0236  0.3775 -0.8337
  671MOL0     H90524   2.799   5.650   1.418 -0.1991  0.1089 -0.1165
  671MOL0     H90525   2.857   5.545   1.277 -1.3873 -2.2988 -0.4618
  671MOL0     H90526   2.949   5.552   1.563 -1.5216 -1.8859  1.2967
  671MOL0     H90527   2.971   5.411   1.482 -3.5116  0.9064  1.7274
  671MOL0     H90528   3.087   5.519   1.292 -1.7900  1.8197  0.8900
  671MOL0     H90529   3.108   5.671   1.380 -0.9979  0.5724 -1.3084
  671MOL0     H90530   3.232   5.542   1.569 -1.7300  2.1045 -0.5574
  671MOL0     H90531   3.260   5.420   1.438  2.3821 -0.3700 -0.8527
  671MOL0     H90532   3.437   5.572   1.445  1.6242  0.6824 -2.5067
  671MOL0     H90533   3.330   5.711   1.426 -2.5441  0.8290 -0.6116
  671MOL0     H90534   3.321   5.469   1.251 -3.4096  1.2856 -0.8283
  671MOL0     H90535   3.293   5.634   1.196 -1.8602  0.7606  2.6272
  671MOL0     H90536   3.622   5.434   1.306  0.5060  0.5617  0.9573
  671MOL0     H90537   3.879   5.445   1.218  2.1820  0.7496  1.1678
  671MOL0     H90538   3.872   5.537   1.063  1.1740 -1.4148  0.4025
  671MOL0     H90539   3.895   5.692   1.329  0.6137  0.7677  0.7834
  671MOL0     H90540   4.033   5.613   1.290 -0.6341  1.6442  1.2774
  671MOL0     H90541   3.922   5.736   1.040  1.5164 -0.8838 -0.0782
  671MOL0     H90542   4.077   5.758   1.091 -2.1396  0.6975 -3.7118
  671MOL0     H90543   3.992   5.896   1.292  3.4188  0.5497 -0.8068
  671MOL0     H90544   3.832   5.881   1.203  1.0437 -0.6057  1.1408
  671MOL0     H90545   4.095   6.116   0.922  0.6099  0.0197 -2.8135
  671MOL0     H90546   3.986   6.250   0.742 -0.3121  0.7963  0.4110
  671MOL0     H90547   3.348   6.248   0.632 -0.6975 -3.1980  1.9833
  671MOL0     H90548   3.219   6.231   0.428 -0.4807 -0.3802 -4.0767
  671MOL0     H90549   3.385   6.242   0.054 -0.2657 -0.3727 -0.4163
  671MOL0     H90550   3.353   6.064   0.033 -0.6990  0.1926 -1.1624
  671MOL0     H90551   3.222   6.173  -0.127 -0.2601  2.0053  0.0108
  671MOL0     H90552   3.110   6.108   0.001  0.2562  1.8070  3.7813
  671MOL0     H90553   3.096   6.330   0.107  0.2914  0.8015  0.7625
  671MOL0     H90554   3.202   6.391  -0.014  0.2624 -1.3830  0.2036
  671MOL0     H90555   2.930   6.282  -0.067 -0.1222  0.9943  2.0383
  671MOL0     H90556   3.043   6.313  -0.196 -1.8163  1.5530 -0.5728
  671MOL0     H90557   3.045   6.549  -0.062  0.4572 -0.7680  1.6668
  671MOL0     H90558   2.891   6.501  -0.010  1.8760 -0.2185  1.3171
  671MOL0     H90559   2.886   6.635  -0.238 -1.6928 -0.2275  1.8101
  671MOL0     H90560   3.002   6.513  -0.294  1.4816  2.9019  1.5952
  671MOL0     H90561   2.716   6.479  -0.203  0.7113  1.5924  2.3230
  671MOL0     H90562   2.810   6.331  -0.242  0.1273  0.5749  0.7695
  671MOL0     H90563   2.658   6.386  -0.431 -0.7997  1.0511 -2.1150
  671MOL0     H90564   2.731   6.551  -0.443  0.2227  0.1660 -0.0920
  671MOL0     H90565   3.548   6.089   0.213 -0.6378  0.0553  0.4248
  671MOL0     H90566   3.692   6.106   0.401 -1.2630 -1.3057 -1.6557
  671MOL0     H90567   3.615   6.064   0.843  0.2543 -0.6064  1.5443
  671MOL0     H90568   3.707   5.955   1.022 -1.2126 -0.8268 -2.4831
  671MOL0     H90569   2.391   5.362   1.229  0.1765  1.0209 -0.5921
  671MOL0     H90570   2.149   5.407   1.190 -1.3036  1.3581  0.4481
  671MOL0     H90571   1.847   5.282   1.229  0.5329  1.3513  0.6636
  671MOL0     H90572   1.658   5.145   1.147  0.9469  0.1552 -0.2947
  671MOL0     H90573   1.253   5.247   1.285 -0.1937  0.5818 -3.3605
  671MOL0     H90574   1.295   5.098   1.385  1.2058 -2.9620 -1.3150
  671MOL0     H90575   1.225   4.950   1.218 -0.1855 -0.6318 -1.5435
  671MOL0     H90576   1.226   5.078   1.099 -1.6945  1.6847  0.5147
  671MOL0     H90577   1.023   5.188   1.204  3.2328  1.4283 -1.8479
  671MOL0     H90578   1.031   5.055   1.333  0.1290 -0.6961  0.1489
  671MOL0     H90579   1.016   4.882   1.171  0.5412  0.3507  1.1574
  671MOL0     H90580   0.871   4.972   1.191  1.4887 -4.3269  4.2362
  671MOL0     H90581   0.932   5.058   0.794  2.2775  0.8015 -0.5911
  671MOL0     H90582   1.406   5.283   1.466 -1.1012 -1.2252 -2.2457
  671MOL0     H90583   1.475   5.479   1.603 -0.3113  0.6263 -1.5616
  671MOL0     H90584   1.607   5.379   1.679 -1.5036  1.0775  1.7502
  671MOL0     H90585   1.654   5.522   1.596  0.6874 -0.6849 -2.6380
  672MOL0     O90586   0.129   5.044   7.160 -0.6153  0.2187 -0.5156
  672MOL0     C90587   0.013   5.055   7.212 -0.6821  0.2859 -0.4001
  672MOL0     O90588  -0.009   5.035   7.345  0.8987  0.0555 -0.1375
  672MOL0     C90589   0.089   5.037   7.445  0.7904 -0.2267  0.3036
  672MOL0     C90590   0.218   5.095   7.441 -0.0509 -0.5013  0.3700
  672MOL0     C90591   0.307   5.077   7.543 -0.5619 -0.7726 -0.0301
  672MOL0     C90592   0.274   5.020   7.664 -0.3035  0.1053 -0.5192
  672MOL0     O90593   0.348   5.024   7.782  0.1572  0.2292 -0.5028
  672MOL0     C90594   0.477   5.091   7.780  0.3104  1.1177 -0.5900
  672MOL0     C90595   0.553   5.071   7.906  0.3439 -0.0118  0.1323
  672MOL0     C90596   0.692   5.118   7.882 -0.8316 -0.2228 -0.0878
  672MOL0     C90597   0.717   5.267   7.841  0.2820 -0.5485 -0.0102
  672MOL0     C90598   0.865   5.296   7.804  0.5899  0.0066  0.3011
  672MOL0     C90599   0.973   5.251   7.891 -0.7181  0.0421 -1.0241
  672MOL0     C90600   0.965   5.308   8.030  0.4428 -0.1651 -0.7004
  672MOL0     C90601   1.066   5.277   8.138 -0.4761 -0.2732 -0.2768
  672MOL0     N90602   1.185   5.363   8.128 -0.1925  0.6285  0.1179
  672MOL0     C90603   1.296   5.327   8.060  0.3346  0.2619 -0.3374
  672MOL0     C90604   1.386   5.430   8.081  0.9108  0.0868 -0.7266
  672MOL0     C90605   1.523   5.440   8.016  0.0568 -1.0553 -0.7913
  672MOL0     C90606   1.646   5.448   8.114 -0.0520 -0.2203  0.3002
  672MOL0     C90607   1.714   5.311   8.142 -0.9653  0.4845 -0.4202
  672MOL0     C90608   1.856   5.327   8.190 -0.4092 -0.1359 -0.2670
  672MOL0     O90609   1.903   5.211   8.264 -0.1390 -0.3317  0.1638
  672MOL0     C90610   2.015   5.153   8.205  0.6063 -0.2802 -0.8477
  672MOL0     C90611   2.004   5.048   8.125  0.7567 -0.1320  0.2668
  672MOL0     C90612   2.123   4.997   8.068  0.0312  0.0690  0.5401
  672MOL0     C90613   2.257   5.044   8.097  0.4823  0.1698 -1.2185
  672MOL0     C90614   2.377   4.991   8.036  0.1007 -0.5389 -0.1317
  672MOL0     O90615   2.492   5.019   8.104 -1.0561  0.7394  0.0492
  672MOL0     C90616   2.612   5.007   8.042  0.3408  0.0330  0.6985
  672MOL0     C90617   2.723   4.973   8.119 -0.3371 -0.0361  0.1185
  672MOL0     C90618   2.852   4.980   8.073  0.4163 -0.0859  0.5922
  672MOL0     C90619   2.886   5.024   7.944  0.0649  0.2631 -0.1421
  672MOL0     O90620   3.007   5.027   7.884 -0.3843  0.3300 -0.0623
  672MOL0     C90621   3.098   4.929   7.932 -0.0936  1.2201 -0.2925
  672MOL0     C90622   3.206   4.907   7.838 -0.4143  0.5916 -0.1902
  672MOL0     C90623   3.331   4.836   7.893 -0.5178 -0.1002  0.1002
  672MOL0     C90624   3.401   4.897   8.009 -0.4827  0.7014  0.8968
  672MOL0     C90625   3.551   4.842   8.020  0.3968  0.5654 -0.4163
  672MOL0     C90626   3.622   4.926   8.124  0.4470  0.1036 -0.1270
  672MOL0     C90627   3.565   4.944   8.263  0.0060 -0.5758 -0.2324
  672MOL0     C90628   3.524   4.809   8.323  0.1001  0.2257 -0.5658
  672MOL0    Cl90629   3.451   4.822   8.491  0.2311  0.1244  0.1805
  672MOL0     C90630   2.775   5.062   7.867  0.5084 -0.1262  0.4575
  672MOL0     C90631   2.646   5.060   7.918  0.5959 -0.4329  0.6353
  672MOL0     O90632   2.370   4.924   7.929  0.0695  0.1588 -0.1024
  672MOL0     C90633   2.258   5.152   8.193 -0.2533  0.2309  0.1588
  672MOL0     C90634   2.137   5.213   8.241 -0.5034  0.4559 -0.4829
  672MOL0     N90635   1.324   5.519   8.170  0.4559  0.0167  0.7223
  672MOL0     N90636   1.202   5.476   8.198  0.4837 -0.3558 -0.4625
  672MOL0     C90637   0.149   4.969   7.674 -0.5103 -0.0825 -0.0613
  672MOL0     C90638   0.048   4.976   7.567  0.1521  0.8274  0.1170
  672MOL0     C90639  -0.115   5.075   7.140 -0.5061  0.5170  0.2650
  672MOL0     C90640  -0.233   5.013   7.201  0.3024  0.2367  0.5346
  672MOL0     C90641  -0.354   5.024   7.139  0.5971 -0.9614  0.4627
  672MOL0     C90642  -0.375   5.103   7.020 -0.4375 -0.3916 -0.2268
  672MOL0     O90643  -0.503   5.130   6.982  0.5222 -0.0175  0.3397
  672MOL0     C90644  -0.540   5.210   6.876 -1.0184 -0.2994  0.2385
  672MOL0     C90645  -0.687   5.232   6.866  1.4875  0.3520 -0.6549
  672MOL0     C90646  -0.763   5.114   6.812 -0.3973  0.2801  0.2460
  672MOL0     C90647  -0.913   5.139   6.780  0.0135 -0.4982 -0.2906
  672MOL0     C90648  -0.962   5.032   6.700 -0.3781  0.2994 -0.2853
  672MOL0     C90649  -0.990   4.925   6.642  0.2769  0.3155  0.7349
  672MOL0     C90650  -0.257   5.153   6.959  0.6921 -0.0341  0.2615
  672MOL0     C90651  -0.125   5.133   7.008 -0.2349 -0.2201 -0.6103
  672MOL0     C90652  -0.009   5.206   6.950  0.0649  0.2659  0.0127
  672MOL0     H90653   0.261   5.147   7.356  0.9219  0.0399  1.1699
  672MOL0     H90654   0.403   5.127   7.540 -1.2614  0.6291  0.0033
  672MOL0     H90655   0.532   5.055   7.692  0.3216 -2.3694  0.7165
  672MOL0     H90656   0.459   5.199   7.778 -0.9790  0.9855  1.6099
  672MOL0     H90657   0.553   4.970   7.948 -0.8136  0.7129  2.0151
  672MOL0     H90658   0.499   5.119   7.988 -0.6162 -2.5624  1.1026
  672MOL0     H90659   0.752   5.068   7.806 -0.0908  1.0160 -0.3336
  672MOL0     H90660   0.755   5.103   7.971  3.0112 -0.5232 -2.6204
  672MOL0     H90661   0.651   5.295   7.759  0.3107 -0.1926  0.0857
  672MOL0     H90662   0.690   5.331   7.926 -2.8758  2.0594 -2.7101
  672MOL0     H90663   0.886   5.247   7.708  0.1745  1.2124 -0.4233
  672MOL0     H90664   0.894   5.400   7.786  2.0926 -0.8084 -2.7680
  672MOL0     H90665   0.972   5.142   7.896  0.3146  0.0358 -0.6726
  672MOL0     H90666   1.067   5.290   7.852 -1.2721  2.9957  0.2822
  672MOL0     H90667   0.868   5.271   8.066  1.6542 -1.8904  0.9479
  672MOL0     H90668   0.964   5.417   8.021  0.2991  0.1659  2.3213
  672MOL0     H90669   1.028   5.294   8.239 -0.3162  1.5037 -0.4810
  672MOL0     H90670   1.095   5.173   8.123 -2.1373 -0.7577 -0.3756
  672MOL0     H90671   1.305   5.234   8.005  1.8830  0.8050 -1.0601
  672MOL0     H90672   1.522   5.357   7.943 -2.0225 -1.8079  0.0146
  672MOL0     H90673   1.530   5.540   7.973  2.3335 -0.1565  1.4776
  672MOL0     H90674   1.719   5.511   8.061  0.5200 -1.6224 -0.6278
  672MOL0     H90675   1.611   5.486   8.210 -0.4560 -2.1263  0.9473
  672MOL0     H90676   1.707   5.239   8.059  1.3068 -1.6717  1.1056
  672MOL0     H90677   1.661   5.258   8.221  0.6140 -0.0808  0.2994
  672MOL0     H90678   1.852   5.409   8.263 -1.3505 -1.0616  0.7510
  672MOL0     H90679   1.934   5.350   8.117  1.7352 -0.5582  1.7468
  672MOL0     H90680   1.905   5.012   8.100  0.5691  1.8146 -2.1583
  672MOL0     H90681   2.109   4.925   7.988  0.5723  0.8534 -0.2754
  672MOL0     H90682   2.715   4.944   8.223 -0.0969 -0.9554 -0.1156
  672MOL0     H90683   2.932   4.950   8.139 -0.4210  0.7500  2.0478
  672MOL0     H90684   3.142   4.963   8.027 -0.9993  2.4025 -0.2685
  672MOL0     H90685   3.046   4.834   7.943  1.3131  0.4522 -0.0133
  672MOL0     H90686   3.174   4.856   7.746 -1.4908  2.0140 -0.6499
  672MOL0     H90687   3.238   5.004   7.798 -1.1057  0.6030 -0.7418
  672MOL0     H90688   3.310   4.734   7.928  1.7291 -0.4407  0.6614
  672MOL0     H90689   3.413   4.823   7.821  2.4554  0.0350  3.2099
  672MOL0     H90690   3.345   4.882   8.102  0.0550  0.6046  1.2122
  672MOL0     H90691   3.401   5.005   7.991 -0.9836  0.5370 -0.2057
  672MOL0     H90692   3.599   4.848   7.922 -0.6005  2.9619 -0.8286
  672MOL0     H90693   3.546   4.735   8.045 -2.1884 -0.1789 -3.4404
  672MOL0     H90694   3.724   4.888   8.139  0.1497 -0.8899 -0.5818
  672MOL0     H90695   3.631   5.025   8.077 -2.3537 -0.1675 -1.4421
  672MOL0     H90696   3.477   5.008   8.273  1.2514  1.1177  0.2960
  672MOL0     H90697   3.638   5.001   8.321 -0.3818 -0.8952  0.5940
  672MOL0     H90698   3.451   4.762   8.256 -2.1022  0.3199  1.6064
  672MOL0     H90699   3.604   4.734   8.325 -0.8851 -0.8472  0.1519
  672MOL0     H90700   2.789   5.102   7.767  5.1285 -1.3397  0.3795
  672MOL0     H90701   2.571   5.108   7.855  1.2448 -1.8825 -1.3311
  672MOL0     H90702   2.352   5.194   8.228  0.6864 -1.3029 -0.3614
  672MOL0     H90703   2.139   5.299   8.307 -2.4244 -0.6801  1.1635
  672MOL0     H90704   0.135   4.916   7.768  1.4250 -0.2488  0.1832
  672MOL0     H90705  -0.049   4.929   7.577  0.7577 -0.4756  0.0468
  672MOL0     H90706  -0.228   4.955   7.292  0.3553  1.7273  1.5097
  672MOL0     H90707  -0.445   4.989   7.187 -1.0534  1.3024 -0.8264
  672MOL0     H90708  -0.521   5.180   6.772 -3.7650 -1.5847  0.0009
  672MOL0     H90709  -0.488   5.306   6.886  0.7462 -1.2161  0.2718
  672MOL0     H90710  -0.708   5.315   6.798  1.4360 -0.2599 -1.3943
  672MOL0     H90711  -0.729   5.251   6.966 -0.4224 -2.0743 -0.8996
  672MOL0     H90712  -0.776   5.043   6.895  2.3107  1.3884  1.7590
  672MOL0     H90713  -0.717   5.072   6.722  1.2853 -0.8298  1.5439
  672MOL0     H90714  -0.971   5.130   6.873  3.0488  1.9416  2.0870
  672MOL0     H90715  -0.935   5.238   6.739 -0.9027 -1.1210 -1.3172
  672MOL0     H90716  -1.024   4.826   6.617 -1.8952  1.4609 -1.3345
  672MOL0     H90717  -0.266   5.207   6.865  0.6859  1.0464  0.8665
  672MOL0     H90718   0.015   5.290   7.016 -0.1502 -0.6856  1.3435
  672MOL0     H90719   0.081   5.146   6.934 -0.7508 -0.7207 -1.0378
  672MOL0     H90720  -0.035   5.241   6.850 -1.5632  1.0625  0.6788
  673MOL0     O90721   1.678  10.789   5.803 -0.4026  0.1192 -0.1134
  673MOL0     C90722   1.664  10.899   5.767 -0.5710 -0.9132  0.6205
  673MOL0     O90723   1.727  11.015   5.822  0.3345  0.8526  0.6472
  673MOL0     C90724   1.836  10.993   5.893 -0.2081 -0.3149  0.1231
  673MOL0     C90725   1.854  11.032   6.028  0.8201 -0.2085  0.0784
  673MOL0     C90726   1.966  11.003   6.107 -0.0339  0.0855 -1.2795
  673MOL0     C90727   2.077  10.946   6.037  0.3387  0.2217 -0.4241
  673MOL0     O90728   2.192  10.901   6.092  0.0049  0.0061  0.1097
  673MOL0     C90729   2.192  10.845   6.220  0.1401  0.4023 -0.6119
  673MOL0     C90730   2.324  10.775   6.239  0.1643  0.4388  0.7330
  673MOL0     C90731   2.429  10.862   6.296  0.4577 -0.5018 -0.2069
  673MOL0     C90732   2.508  10.947   6.189 -0.3646 -0.5891  0.5353
  673MOL0     C90733   2.569  11.070   6.248  0.1186 -0.0719  0.2020
  673MOL0     C90734   2.711  11.022   6.277 -0.7342 -0.3528 -0.4833
  673MOL0     C90735   2.786  11.130   6.363  0.5333  0.1990  0.4330
  673MOL0     C90736   2.734  11.130   6.512 -0.3242 -0.0448  0.2967
  673MOL0     N90737   2.772  11.008   6.583 -0.1864  0.2985 -0.7244
  673MOL0     C90738   2.698  10.895   6.579 -0.7184 -0.1738  0.5583
  673MOL0     C90739   2.747  10.805   6.677 -0.3131 -0.7688  0.9261
  673MOL0     C90740   2.702  10.675   6.708  0.4416  0.1399  0.1346
  673MOL0     C90741   2.563  10.685   6.759  0.2929  0.1620  0.3529
  673MOL0     C90742   2.502  10.541   6.761 -0.0043 -0.1972  0.2859
  673MOL0     C90743   2.373  10.542   6.841 -0.0540 -0.0674 -0.7134
  673MOL0     O90744   2.269  10.570   6.751 -0.7138 -0.1239  0.1106
  673MOL0     C90745   2.170  10.484   6.778 -0.5754  0.0834  0.7322
  673MOL0     C90746   2.183  10.348   6.749 -0.2668  0.3014 -0.4733
  673MOL0     C90747   2.073  10.257   6.761 -0.5567  0.5428 -0.3083
  673MOL0     C90748   1.941  10.313   6.798 -0.2033 -0.1367  0.5359
  673MOL0     C90749   1.825  10.224   6.797 -0.1088 -0.1971  0.5422
  673MOL0     O90750   1.704  10.273   6.849 -0.1690 -0.0327  1.1646
  673MOL0     C90751   1.589  10.201   6.862  0.2428  0.4236  0.5634
  673MOL0     C90752   1.586  10.073   6.924  1.0278  0.5904 -0.1255
  673MOL0     C90753   1.468  10.013   6.949  0.3546 -0.6916  0.4090
  673MOL0     C90754   1.344  10.074   6.921 -0.0731  0.7991  0.3357
  673MOL0     O90755   1.220  10.021   6.932  0.7672  0.0302  0.3635
  673MOL0     C90756   1.215   9.894   7.004  0.3392 -0.9513 -0.5258
  673MOL0     C90757   1.077   9.827   7.006 -0.6321 -1.0337 -0.6338
  673MOL0     C90758   1.055   9.734   7.119 -0.2757 -0.6877 -0.8257
  673MOL0     C90759   1.149   9.615   7.109 -0.2277  0.0009 -0.2836
  673MOL0     C90760   1.106   9.523   7.222  0.5966  0.5971  0.1922
  673MOL0     C90761   0.983   9.432   7.190 -0.9495 -0.5504 -0.1537
  673MOL0     C90762   0.958   9.335   7.301  0.2460 -0.1643 -0.3644
  673MOL0     C90763   0.872   9.221   7.247 -0.9225 -0.1168  0.7678
  673MOL0    Cl90764   0.703   9.275   7.224 -0.5844 -0.6148  0.3606
  673MOL0     C90765   1.350  10.194   6.855 -0.1962 -0.3181  0.0997
  673MOL0     C90766   1.471  10.262   6.823  0.5095 -0.0222 -1.1210
  673MOL0     O90767   1.838  10.107   6.754 -0.7646 -0.0397 -0.9310
  673MOL0     C90768   1.934  10.448   6.827  0.6399 -0.1065  0.8823
  673MOL0     C90769   2.044  10.534   6.817  0.1005  0.3898 -0.7334
  673MOL0     N90770   2.850  10.866   6.738  0.3583  0.7552 -0.2006
  673MOL0     N90771   2.862  10.988   6.684 -0.2852  0.3821  0.5141
  673MOL0     C90772   2.061  10.905   5.901 -0.0099 -0.4029 -0.2531
  673MOL0     C90773   1.944  10.934   5.831  0.5799 -0.2275 -0.1781
  673MOL0     C90774   1.567  10.929   5.658 -0.3739  0.6087  0.5696
  673MOL0     C90775   1.459  10.833   5.638  0.3075 -1.1555 -0.9726
  673MOL0     C90776   1.351  10.860   5.548  0.0283  0.1504  0.1054
  673MOL0     C90777   1.343  10.985   5.486 -0.9186  0.6644 -0.3526
  673MOL0     O90778   1.229  11.006   5.424  0.7239 -0.1013 -0.5916
  673MOL0     C90779   1.190  11.146   5.403  0.2305 -0.3781 -0.7954
  673MOL0     C90780   1.036  11.164   5.403 -0.8750 -0.0269  1.2012
  673MOL0     C90781   0.985  11.101   5.273  0.7363  0.5428  0.2283
  673MOL0     C90782   0.835  11.144   5.248  0.5410 -0.2396 -0.0862
  673MOL0     C90783   0.753  11.079   5.355 -0.1533  0.3791 -0.1057
  673MOL0     C90784   0.688  11.017   5.428 -0.8947 -1.0692 -0.4686
  673MOL0     C90785   1.451  11.065   5.495 -0.8502  0.5057  0.0049
  673MOL0     C90786   1.567  11.042   5.572 -0.0190 -0.4923 -0.0256
  673MOL0     C90787   1.688  11.141   5.553 -0.0027 -0.4665 -0.0315
  673MOL0     H90788   1.774  11.089   6.073  0.5107  0.8957 -1.7694
  673MOL0     H90789   1.981  11.033   6.211  0.7563  0.1258 -1.4032
  673MOL0     H90790   2.186  10.927   6.292 -0.0460 -0.6893  0.6563
  673MOL0     H90791   2.112  10.772   6.236  2.4571 -3.2767 -3.8753
  673MOL0     H90792   2.364  10.736   6.145 -0.8862  2.5258 -0.6768
  673MOL0     H90793   2.300  10.695   6.310  1.3052 -1.1086 -0.5630
  673MOL0     H90794   2.497  10.810   6.365 -1.2590 -1.2846  0.9732
  673MOL0     H90795   2.375  10.936   6.357 -0.0959 -0.9607 -0.1323
  673MOL0     H90796   2.584  10.892   6.133  0.1676  2.5131 -2.0436
  673MOL0     H90797   2.435  10.980   6.115 -3.3176 -1.8202  2.6535
  673MOL0     H90798   2.578  11.152   6.176  2.4163  0.3370  0.8752
  673MOL0     H90799   2.512  11.107   6.334 -0.4307 -1.4606  0.4637
  673MOL0     H90800   2.707  10.925   6.326 -4.3968  0.7690  1.8645
  673MOL0     H90801   2.767  11.017   6.183  1.9874  3.5594  0.6634
  673MOL0     H90802   2.778  11.229   6.317  2.5525 -0.1741 -0.9071
  673MOL0     H90803   2.894  11.110   6.360  0.0561 -3.8001  2.4392
  673MOL0     H90804   2.769  11.217   6.568 -3.5296  0.5008  1.6773
  673MOL0     H90805   2.625  11.135   6.511 -0.3261  0.3126  1.1348
  673MOL0     H90806   2.625  10.876   6.501 -2.1310  1.1241  1.4991
  673MOL0     H90807   2.710  10.614   6.617 -0.2032 -0.0761  0.2204
  673MOL0     H90808   2.762  10.635   6.791  0.8119  1.9350  0.7689
  673MOL0     H90809   2.577  10.716   6.862  1.2676 -0.1855  0.3425
  673MOL0     H90810   2.502  10.759   6.706  1.2623  0.4335 -0.4389
  673MOL0     H90811   2.572  10.468   6.802  2.1748  0.9288 -1.2575
  673MOL0     H90812   2.478  10.502   6.662 -2.0262 -1.1706  1.0877
  673MOL0     H90813   2.381  10.627   6.908  2.3769  1.0839 -2.3260
  673MOL0     H90814   2.364  10.445   6.891  3.4459 -0.3204 -0.3843
  673MOL0     H90815   2.280  10.304   6.729  0.8912  2.0680  0.9344
  673MOL0     H90816   2.088  10.152   6.738  1.2470  0.8517 -0.6516
  673MOL0     H90817   1.675  10.017   6.951 -0.8031 -2.9400 -0.9181
  673MOL0     H90818   1.472   9.918   7.001  0.4409  0.3414  2.3759
  673MOL0     H90819   1.287   9.823   6.963  2.4563  1.5735 -1.4869
  673MOL0     H90820   1.246   9.919   7.106  1.2979  0.9413 -1.2275
  673MOL0     H90821   1.001   9.905   7.012 -0.5423 -1.0006  0.1980
  673MOL0     H90822   1.048   9.771   6.917  0.3016  1.1101 -2.3887
  673MOL0     H90823   1.075   9.791   7.210  2.2353 -0.1148 -1.6409
  673MOL0     H90824   0.951   9.700   7.122 -0.8037  0.9518  1.6559
  673MOL0     H90825   1.249   9.657   7.126  0.0543 -0.5453 -0.5824
  673MOL0     H90826   1.149   9.563   7.013  1.9323 -0.8348  0.1114
  673MOL0     H90827   1.102   9.575   7.318  1.7743  1.3131 -0.1189
  673MOL0     H90828   1.188   9.451   7.235  0.5568  0.5952  0.4327
  673MOL0     H90829   0.900   9.498   7.162 -0.9996 -1.3477 -1.9980
  673MOL0     H90830   1.012   9.375   7.101 -0.4016  0.9316 -0.9666
  673MOL0     H90831   0.898   9.378   7.382 -1.2823 -1.8360 -0.5571
  673MOL0     H90832   1.042   9.283   7.349 -2.3973 -1.9708  2.7843
  673MOL0     H90833   0.913   9.197   7.149 -2.7809 -2.1999  0.4226
  673MOL0     H90834   0.878   9.134   7.314  3.5264  0.3460  1.2777
  673MOL0     H90835   1.258  10.243   6.824 -0.1932 -1.7142 -2.3812
  673MOL0     H90836   1.476  10.359   6.776  2.6282 -0.6534 -2.3451
  673MOL0     H90837   1.835  10.477   6.860  0.8965 -0.4019  1.9453
  673MOL0     H90838   2.034  10.634   6.856 -1.4745 -0.7428  2.0968
  673MOL0     H90839   2.157  10.864   5.872  1.0297  0.2756  1.9810
  673MOL0     H90840   1.936  10.918   5.724  1.8586  2.2954 -0.7378
  673MOL0     H90841   1.467  10.733   5.680 -1.1498 -0.8106  0.2308
  673MOL0     H90842   1.266  10.793   5.538 -0.6276  1.1729 -1.4983
  673MOL0     H90843   1.248  11.196   5.325 -0.9295 -0.0643 -1.4887
  673MOL0     H90844   1.210  11.199   5.497 -2.8697  0.4152 -0.4478
  673MOL0     H90845   1.022  11.273   5.406  1.3399  0.3635  0.0331
  673MOL0     H90846   0.988  11.121   5.491 -0.5970 -0.4825  1.1360
  673MOL0     H90847   0.998  10.993   5.277  1.7041  0.6779  1.0059
  673MOL0     H90848   1.046  11.136   5.189  1.0973 -1.3453 -0.3469
  673MOL0     H90849   0.817  11.252   5.254 -2.0241 -0.5640 -1.0146
  673MOL0     H90850   0.809  11.110   5.148  2.3902  1.0762 -1.0747
  673MOL0     H90851   0.637  10.975   5.512 -0.2779 -0.3578  0.2674
  673MOL0     H90852   1.442  11.163   5.448 -0.6008  0.2021 -0.6995
  673MOL0     H90853   1.668  11.228   5.489 -0.7926 -1.6948 -1.5131
  673MOL0     H90854   1.730  11.181   5.646  2.0135 -2.7330  0.1098
  673MOL0     H90855   1.772  11.085   5.513  1.4776  1.8868 -0.4334
  674MOL0     O90856   0.505   9.413   9.631 -0.3552 -0.1050 -0.2944
  674MOL0     C90857   0.487   9.290   9.625 -0.5941 -0.5055 -0.1329
  674MOL0     O90858   0.587   9.205   9.623 -0.2822  0.8632  0.2041
  674MOL0     C90859   0.715   9.236   9.658  0.0266 -0.1189  0.3398
  674MOL0     C90860   0.738   9.260   9.789  0.4589 -0.5522 -0.6984
  674MOL0     C90861   0.869   9.266   9.837 -0.7771 -0.5936  0.2658
  674MOL0     C90862   0.978   9.268   9.746  0.0731 -1.3944 -0.0421
  674MOL0     O90863   1.107   9.290   9.775 -0.5826 -0.2010  0.7571
  674MOL0     C90864   1.163   9.276   9.908  0.7478  0.2347  0.5001
  674MOL0     C90865   1.318   9.277   9.897 -0.2327  0.4302  0.9756
  674MOL0     C90866   1.380   9.375  10.007 -0.2225 -0.3320  0.5930
  674MOL0     C90867   1.530   9.401   9.987  0.5274 -0.3099  0.3498
  674MOL0     C90868   1.589   9.499  10.085 -0.0788 -0.0667  0.2092
  674MOL0     C90869   1.739   9.498  10.091 -0.0533 -0.1364 -0.4534
  674MOL0     C90870   1.814   9.551   9.971  0.5748 -0.3219 -0.2884
  674MOL0     C90871   1.961   9.578  10.010  0.7244 -0.1237 -0.6165
  674MOL0     N90872   2.032   9.646   9.904 -0.2277  0.7573  0.5123
  674MOL0     C90873   2.040   9.614   9.767  0.0091 -0.4522  0.4682
  674MOL0     C90874   2.141   9.693   9.719 -1.0625 -0.0764  0.1546
  674MOL0     C90875   2.177   9.699   9.576 -0.1723 -0.6159 -0.1797
  674MOL0     C90876   2.219   9.557   9.533  0.2137 -0.1818 -0.2483
  674MOL0     C90877   2.225   9.559   9.376  0.3267  0.2339  0.1571
  674MOL0     C90878   2.249   9.418   9.338 -0.1206 -0.3695 -0.3499
  674MOL0     O90879   2.377   9.364   9.385  0.2659 -0.0612 -0.0672
  674MOL0     C90880   2.496   9.405   9.327  0.0992  0.1698 -0.5801
  674MOL0     C90881   2.612   9.362   9.394 -0.4827 -1.0575  0.0816
  674MOL0     C90882   2.738   9.406   9.361 -0.5168  0.2201 -0.0408
  674MOL0     C90883   2.758   9.493   9.251 -0.7387 -0.1953 -0.2279
  674MOL0     C90884   2.894   9.559   9.227 -0.5181  1.1836 -0.7826
  674MOL0     O90885   2.897   9.674   9.145 -0.1351  0.1544 -0.2075
  674MOL0     C90886   3.015   9.731   9.099 -0.4799 -0.7325 -0.9917
  674MOL0     C90887   3.120   9.755   9.192  0.1653 -0.6272 -0.2725
  674MOL0     C90888   3.241   9.804   9.151  0.0645 -0.2258  0.6263
  674MOL0     C90889   3.261   9.837   9.012 -0.2954 -0.0235  0.2131
  674MOL0     O90890   3.372   9.883   8.958 -0.0945 -0.6863 -0.6402
  674MOL0     C90891   3.486   9.896   9.053 -0.4218  0.4139 -0.2820
  674MOL0     C90892   3.575   9.774   9.074 -0.2288 -0.0558 -0.8098
  674MOL0     C90893   3.715   9.814   9.142  0.6944 -0.7432 -0.3188
  674MOL0     C90894   3.831   9.714   9.111  0.4860 -0.4521  0.1670
  674MOL0     C90895   3.966   9.765   9.172 -0.0918 -0.0794 -0.4726
  674MOL0     C90896   4.066   9.645   9.196  0.0542  0.1394  0.4162
  674MOL0     C90897   4.213   9.696   9.228  1.6643 -0.2349 -0.3982
  674MOL0     C90898   4.299   9.581   9.273 -0.5316  1.2440  0.0877
  674MOL0    Cl90899   4.239   9.507   9.422  0.3633  0.1088 -0.2570
  674MOL0     C90900   3.158   9.804   8.921  0.0329  0.5465 -0.1788
  674MOL0     C90901   3.030   9.760   8.964 -0.6687  0.7092 -0.8453
  674MOL0     O90902   2.997   9.492   9.265  0.4672  0.0526 -0.6213
  674MOL0     C90903   2.639   9.520   9.177 -1.0674  0.1433  0.3400
  674MOL0     C90904   2.514   9.483   9.213  0.7432  0.7770 -1.2705
  674MOL0     N90905   2.185   9.778   9.810 -0.0173  0.0841  0.5063
  674MOL0     N90906   2.126   9.745   9.920  0.2392  0.2747 -0.5575
  674MOL0     C90907   0.946   9.262   9.610  0.6051  0.2699 -0.0504
  674MOL0     C90908   0.818   9.252   9.564 -0.3405  0.1006  0.1229
  674MOL0     C90909   0.349   9.237   9.627 -0.0048 -0.0608  0.9185
  674MOL0     C90910   0.327   9.101   9.657 -1.1706 -0.0808  0.2483
  674MOL0     C90911   0.208   9.053   9.679  0.2036  0.2052 -1.3676
  674MOL0     C90912   0.087   9.132   9.660 -0.6574  0.0864 -0.3489
  674MOL0     O90913  -0.043   9.085   9.639 -1.4178  0.2546 -0.5037
  674MOL0     C90914  -0.094   8.973   9.711 -0.1770  0.0391 -0.0654
  674MOL0     C90915  -0.221   9.025   9.772 -0.5201 -0.2926  0.5749
  674MOL0     C90916  -0.334   9.074   9.683  0.0040  0.7406 -0.0511
  674MOL0     C90917  -0.448   8.978   9.636  0.1451  0.8308 -0.1447
  674MOL0     C90918  -0.527   8.927   9.752  0.6300  0.0372  0.0051
  674MOL0     C90919  -0.586   8.889   9.854  0.3680 -0.9502 -0.3744
  674MOL0     C90920   0.104   9.264   9.608 -0.9870 -0.0601  0.3864
  674MOL0     C90921   0.234   9.311   9.589  0.4914  0.0621 -0.1762
  674MOL0     C90922   0.225   9.447   9.531 -0.1711 -0.7699 -0.3200
  674MOL0     H90923   0.661   9.257   9.866  0.7003  1.3784 -0.3261
  674MOL0     H90924   0.891   9.287   9.942  0.4459 -2.4600  0.4331
  674MOL0     H90925   1.128   9.361   9.968  3.0805  1.2107  0.5543
  674MOL0     H90926   1.131   9.186   9.963 -4.5396  0.3783 -1.7034
  674MOL0     H90927   1.355   9.304   9.798  3.2664 -1.5013  1.5634
  674MOL0     H90928   1.354   9.174   9.909 -2.2075 -0.4171  0.0334
  674MOL0     H90929   1.359   9.333  10.106 -3.4737 -1.7266 -0.5513
  674MOL0     H90930   1.327   9.471  10.000  3.1866  1.5874 -3.3188
  674MOL0     H90931   1.576   9.304  10.010  0.1763 -0.1998  1.5801
  674MOL0     H90932   1.553   9.437   9.886 -2.9487 -2.1637 -1.2753
  674MOL0     H90933   1.554   9.602  10.072  0.9837  0.2794  0.0220
  674MOL0     H90934   1.548   9.470  10.183 -1.2951  1.6011  0.2392
  674MOL0     H90935   1.765   9.549  10.185 -1.4815 -0.7569  0.3257
  674MOL0     H90936   1.776   9.396  10.103  1.6377  0.5100  0.0927
  674MOL0     H90937   1.770   9.645   9.936  1.7315  1.4112  2.5425
  674MOL0     H90938   1.819   9.475   9.892  2.8822 -1.1286  0.5643
  674MOL0     H90939   1.967   9.640  10.100  3.9156 -0.1477 -0.6969
  674MOL0     H90940   2.017   9.489  10.042  0.9333 -0.8386 -2.8489
  674MOL0     H90941   1.980   9.535   9.725 -2.2563  1.2759  0.2376
  674MOL0     H90942   2.095   9.736   9.514 -0.5490 -2.3944 -0.7981
  674MOL0     H90943   2.260   9.768   9.560 -1.6144  0.9992 -1.0596
  674MOL0     H90944   2.317   9.518   9.562 -0.5417 -2.8429 -0.9137
  674MOL0     H90945   2.144   9.485   9.568 -1.3334  0.7751 -1.4384
  674MOL0     H90946   2.301   9.629   9.341 -1.0819  1.5997 -0.2614
  674MOL0     H90947   2.128   9.585   9.332  0.1939 -1.8359 -0.9398
  674MOL0     H90948   2.244   9.424   9.229 -1.1035 -0.1448 -0.3041
  674MOL0     H90949   2.166   9.353   9.369 -0.6267 -0.0714 -1.0579
  674MOL0     H90950   2.601   9.300   9.482 -1.4236 -0.8914  0.0815
  674MOL0     H90951   2.825   9.360   9.407 -0.4594 -0.0012 -0.3663
  674MOL0     H90952   3.102   9.758   9.299 -0.1379  2.3785 -0.3295
  674MOL0     H90953   3.322   9.811   9.223  2.3453 -0.4458 -1.7672
  674MOL0     H90954   3.553   9.964   9.000  2.2712 -2.9835 -1.6128
  674MOL0     H90955   3.467   9.943   9.150  1.5357 -0.5326  0.6081
  674MOL0     H90956   3.528   9.697   9.135  0.1960  1.5187  1.6531
  674MOL0     H90957   3.585   9.729   8.975 -0.0581 -3.2365  0.5454
  674MOL0     H90958   3.755   9.911   9.112  0.2104 -0.0194  1.3038
  674MOL0     H90959   3.696   9.829   9.249 -0.4109  0.6742 -0.6779
  674MOL0     H90960   3.842   9.705   9.003 -1.3410 -0.0265 -0.0830
  674MOL0     H90961   3.800   9.622   9.160  2.7955 -0.8320  1.0564
  674MOL0     H90962   3.941   9.812   9.268 -1.8910  0.3559 -1.1169
  674MOL0     H90963   4.005   9.839   9.103 -2.8205  3.9062  1.8442
  674MOL0     H90964   4.034   9.582   9.280 -0.4156 -1.3823 -0.8541
  674MOL0     H90965   4.064   9.582   9.107  0.7802 -1.3465  1.4120
  674MOL0     H90966   4.205   9.770   9.309 -0.3155  0.2028 -0.9474
  674MOL0     H90967   4.257   9.756   9.148  0.5219  0.3489 -0.6029
  674MOL0     H90968   4.305   9.512   9.188  0.7377  1.6769 -0.2023
  674MOL0     H90969   4.401   9.615   9.294  0.2592 -0.4578 -0.7803
  674MOL0     H90970   3.179   9.818   8.816  1.4236 -1.3860 -0.2005
  674MOL0     H90971   2.946   9.724   8.906 -0.3770  1.8817 -2.0456
  674MOL0     H90972   2.653   9.577   9.085 -0.3584  0.8368  0.8607
  674MOL0     H90973   2.426   9.527   9.166 -1.2498  1.1376  2.4587
  674MOL0     H90974   1.024   9.271   9.535  1.0489  0.6624  0.4419
  674MOL0     H90975   0.800   9.261   9.458 -0.3933  0.2368  0.1434
  674MOL0     H90976   0.412   9.042   9.691  0.5843  2.1782  0.0142
  674MOL0     H90977   0.202   8.946   9.690 -2.1682  0.5415  2.0769
  674MOL0     H90978  -0.030   8.945   9.795 -1.0725  4.5684  2.4310
  674MOL0     H90979  -0.120   8.893   9.640 -1.4549 -0.7853  1.2679
  674MOL0     H90980  -0.196   9.103   9.845  0.7080  1.7281 -1.8333
  674MOL0     H90981  -0.269   8.939   9.818 -0.8507  0.3319  1.4327
  674MOL0     H90982  -0.293   9.128   9.597  1.2888  1.8589  1.2203
  674MOL0     H90983  -0.384   9.154   9.737 -1.7039  1.7697 -2.9216
  674MOL0     H90984  -0.513   9.023   9.560 -0.1539  0.9728  0.1918
  674MOL0     H90985  -0.405   8.886   9.595 -2.6356 -1.2699  1.2770
  674MOL0     H90986  -0.634   8.857   9.944  1.1515  2.2903  1.3664
  674MOL0     H90987   0.020   9.325   9.578  0.2245  2.1237  1.2233
  674MOL0     H90988   0.207   9.432   9.424 -2.4430 -0.3576 -0.0441
  674MOL0     H90989   0.139   9.504   9.566 -1.3445 -1.1034 -2.4986
  674MOL0     H90990   0.311   9.509   9.555  0.1589 -0.9936 -0.8951
  675MOL0     O90991  10.851   8.391   7.979 -0.4776 -0.0048 -0.2389
  675MOL0     C90992  10.821   8.381   8.097  0.8042 -0.0731 -1.2040
  675MOL0     O90993  10.908   8.394   8.203  0.1686  0.3470 -0.3125
  675MOL0     C90994  11.037   8.444   8.184  0.3998 -0.2865 -0.4426
  675MOL0     C90995  11.077   8.536   8.282 -0.4090 -0.3618  0.0207
  675MOL0     C90996  11.201   8.607   8.270  0.4082  0.2929  0.4450
  675MOL0     C90997  11.287   8.578   8.162  0.8654 -0.4659  0.0541
  675MOL0     O90998  11.395   8.662   8.155  0.8980 -0.2027  0.2875
  675MOL0     C90999  11.490   8.636   8.050 -0.1826 -0.9003 -0.8165
  675MOL0     C91000  11.619   8.712   8.067 -0.4218  0.6407 -0.2394
  675MOL0     C91001  11.707   8.703   8.188  0.0397  0.6241 -0.3057
  675MOL0     C91002  11.846   8.762   8.176 -0.3692  0.0683 -0.8751
  675MOL0     C91003  11.858   8.882   8.263 -0.3104  0.2042  0.2440
  675MOL0     C91004  11.990   8.965   8.233  0.1911 -0.5306  0.4201
  675MOL0     C91005  12.112   8.894   8.190 -0.1980 -0.4217  0.3797
  675MOL0     C91006  12.225   8.977   8.159  0.0757 -0.8559  0.3833
  675MOL0     N91007  12.327   8.915   8.083 -0.9986  0.7696  0.8425
  675MOL0     C91008  12.405   8.807   8.124 -0.7347 -1.1565 -1.4672
  675MOL0     C91009  12.482   8.774   8.016 -0.0771 -0.2068 -1.3022
  675MOL0     C91010  12.586   8.663   8.014 -0.0403 -0.9625  0.0481
  675MOL0     C91011  12.718   8.711   7.949  1.4132 -0.2299 -0.0910
  675MOL0     C91012  12.822   8.604   7.976 -0.0988 -0.7226 -0.5027
  675MOL0     C91013  12.961   8.667   8.007 -0.1364  0.3364 -0.1907
  675MOL0     O91014  13.066   8.566   8.011 -0.7459 -0.4045  0.3893
  675MOL0     C91015  13.204   8.594   7.976  0.6125  1.2986 -0.1891
  675MOL0     C91016  13.298   8.497   7.936 -0.0291  0.2728  0.3641
  675MOL0     C91017  13.429   8.534   7.905 -0.3740 -0.3286 -0.1396
  675MOL0     C91018  13.475   8.664   7.937 -0.7216 -0.0809 -0.1157
  675MOL0     C91019  13.619   8.685   7.922 -0.0750 -0.3508  1.0570
  675MOL0     O91020  13.689   8.570   7.904  0.1758  0.2011  0.0155
  675MOL0     C91021  13.824   8.571   7.924  0.2464 -0.2642 -0.5256
  675MOL0     C91022  13.879   8.515   8.040 -0.0431 -0.0700  0.9100
  675MOL0     C91023  14.020   8.500   8.053  0.7101 -0.0449  0.5749
  675MOL0     C91024  14.107   8.548   7.957 -0.0762 -0.8493 -1.1318
  675MOL0     O91025  14.239   8.527   7.985 -0.4599 -0.6348  0.2250
  675MOL0     C91026  14.328   8.638   7.953 -0.4071  0.1932  0.8709
  675MOL0     C91027  14.291   8.776   8.022  0.4585  0.5058 -0.0589
  675MOL0     C91028  14.339   8.779   8.166 -0.7485  0.2214 -0.0148
  675MOL0     C91029  14.235   8.723   8.261 -0.6667 -0.9382 -0.1599
  675MOL0     C91030  14.291   8.715   8.403  0.7135 -0.7101 -0.6452
  675MOL0     C91031  14.194   8.652   8.500 -0.3141 -0.2916  0.2809
  675MOL0     C91032  14.234   8.508   8.520 -0.8466  0.6876  0.0564
  675MOL0     C91033  14.141   8.432   8.620 -0.1644  0.9896 -0.3359
  675MOL0    Cl91034  13.972   8.414   8.546  0.1488 -0.2295  0.1796
  675MOL0     C91035  14.049   8.611   7.841  0.4309  0.2091 -0.2539
  675MOL0     C91036  13.911   8.621   7.828  0.3559 -0.5212  0.4868
  675MOL0     O91037  13.673   8.790   7.954  0.1506 -0.4649 -0.1119
  675MOL0     C91038  13.381   8.768   7.976 -0.1062  0.3188  0.2310
  675MOL0     C91039  13.245   8.733   7.987 -0.2685  0.0334 -0.1441
  675MOL0     N91040  12.445   8.861   7.921 -0.7520 -0.9543  0.4890
  675MOL0     N91041  12.363   8.950   7.957 -0.3011  0.2686  0.3350
  675MOL0     C91042  11.246   8.476   8.072  0.1860 -0.5012  0.3879
  675MOL0     C91043  11.123   8.414   8.081 -0.4157  1.0534  0.3934
  675MOL0     C91044  10.676   8.360   8.142 -0.2101  0.3256 -0.0994
  675MOL0     C91045  10.630   8.411   8.265 -0.0150  0.4725  0.2384
  675MOL0     C91046  10.502   8.377   8.313 -0.2330  0.8952 -0.1936
  675MOL0     C91047  10.413   8.302   8.235 -0.2937  0.1566  0.0606
  675MOL0     O91048  10.290   8.257   8.283 -0.2596  0.4730  0.3311
  675MOL0     C91049  10.250   8.305   8.418 -0.5897 -0.2045 -0.1501
  675MOL0     C91050  10.105   8.240   8.445 -0.2337  0.6909  0.5043
  675MOL0     C91051  10.103   8.086   8.425 -0.6756 -0.9474 -0.0724
  675MOL0     C91052   9.964   8.014   8.409 -1.2036  0.3897 -0.0643
  675MOL0     C91053   9.876   8.028   8.523  1.4852 -0.5749  0.3668
  675MOL0     C91054   9.796   8.025   8.604  0.9484 -0.7961 -0.6805
  675MOL0     C91055  10.459   8.243   8.118  0.0591 -0.3367  0.3967
  675MOL0     C91056  10.585   8.275   8.072 -0.3968  0.7434  0.8993
  675MOL0     C91057  10.639   8.197   7.954  0.2479  0.2282 -0.3639
  675MOL0     H91058  11.013   8.575   8.360 -0.5370  0.5782 -0.5301
  675MOL0     H91059  11.248   8.672   8.343 -1.3775  0.5017  1.4733
  675MOL0     H91060  11.527   8.533   8.053  0.4454 -0.6703 -0.3255
  675MOL0     H91061  11.448   8.660   7.952 -0.2931  0.0740 -0.5459
  675MOL0     H91062  11.583   8.815   8.062 -0.3413  0.6241 -2.4254
  675MOL0     H91063  11.686   8.689   7.983 -1.1787 -2.2649 -0.1411
  675MOL0     H91064  11.730   8.598   8.209 -0.5959  0.9203  2.1613
  675MOL0     H91065  11.652   8.740   8.275  2.0429  1.4265  0.6918
  675MOL0     H91066  11.917   8.681   8.193 -0.4991  0.3665  1.5511
  675MOL0     H91067  11.849   8.805   8.076 -2.4843  0.3119 -0.8661
  675MOL0     H91068  11.770   8.945   8.246 -2.5748 -1.8767  3.4292
  675MOL0     H91069  11.852   8.844   8.365 -2.3435 -1.7357 -0.5097
  675MOL0     H91070  11.968   9.038   8.154  0.5007  0.0216  0.8359
  675MOL0     H91071  12.021   9.013   8.326 -0.5967 -3.5346  2.3635
  675MOL0     H91072  12.092   8.833   8.101  1.2794  0.8978 -0.9155
  675MOL0     H91073  12.149   8.826   8.267  0.0373 -1.3684 -0.5373
  675MOL0     H91074  12.182   9.062   8.105 -1.3282 -1.3959  0.6051
  675MOL0     H91075  12.276   9.020   8.246  1.6197 -2.2119  0.1928
  675MOL0     H91076  12.395   8.770   8.226  0.1360  0.1573 -0.8723
  675MOL0     H91077  12.607   8.620   8.112 -0.5272 -0.8254  0.2140
  675MOL0     H91078  12.539   8.584   7.953 -1.4276  1.4603 -2.2337
  675MOL0     H91079  12.712   8.719   7.840  3.7141  2.1405 -0.1389
  675MOL0     H91080  12.744   8.811   7.986 -0.9278  1.4727 -2.6516
  675MOL0     H91081  12.838   8.552   7.881  0.3001 -0.6172 -0.4971
  675MOL0     H91082  12.790   8.545   8.062  1.7991 -0.0396  0.7441
  675MOL0     H91083  12.951   8.707   8.109  4.7343 -0.9780  1.1175
  675MOL0     H91084  12.983   8.751   7.941  0.6046  0.3924  0.1104
  675MOL0     H91085  13.263   8.395   7.927 -0.5103  0.5240 -0.6963
  675MOL0     H91086  13.497   8.458   7.867  2.2144  0.0397  3.2996
  675MOL0     H91087  13.815   8.480   8.120  0.0484  0.3120  1.1558
  675MOL0     H91088  14.063   8.437   8.130 -0.6586  0.0092  1.4142
  675MOL0     H91089  14.428   8.605   7.983 -2.0171 -3.8043  2.5130
  675MOL0     H91090  14.330   8.641   7.844 -0.6675 -0.1415  0.8572
  675MOL0     H91091  14.347   8.857   7.974  1.0853  2.1628  3.2004
  675MOL0     H91092  14.183   8.796   8.011  0.4067 -0.6495 -2.3626
  675MOL0     H91093  14.430   8.719   8.177  1.7957  2.9980 -3.5066
  675MOL0     H91094  14.362   8.884   8.188  0.9854 -0.2782  0.8016
  675MOL0     H91095  14.194   8.625   8.235 -1.7963 -1.6733  3.7130
  675MOL0     H91096  14.152   8.793   8.269  0.1590 -0.0394  0.9518
  675MOL0     H91097  14.314   8.813   8.445  0.5639 -0.6248 -0.7630
  675MOL0     H91098  14.383   8.656   8.397  0.1060 -1.5897 -1.6489
  675MOL0     H91099  14.197   8.697   8.600 -2.5878 -1.4329  0.9317
  675MOL0     H91100  14.088   8.659   8.472 -1.2958 -1.8013  3.2589
  675MOL0     H91101  14.337   8.509   8.559  0.1079 -3.8972 -1.7039
  675MOL0     H91102  14.233   8.452   8.426 -0.3623  0.2566  0.2949
  675MOL0     H91103  14.176   8.330   8.636  2.0639  1.4134 -2.0000
  675MOL0     H91104  14.152   8.482   8.717  1.2602 -0.5895  0.3599
  675MOL0     H91105  14.111   8.648   7.759  2.5373 -0.8932  0.7663
  675MOL0     H91106  13.871   8.682   7.748 -0.8588  0.6635  1.9305
  675MOL0     H91107  13.427   8.865   7.997  0.8444 -0.4912  2.1544
  675MOL0     H91108  13.173   8.809   8.015 -0.4157  0.0962 -0.6728
  675MOL0     H91109  11.304   8.449   7.985 -0.4062 -0.5999  0.0173
  675MOL0     H91110  11.091   8.333   8.016  1.0279  1.0738 -0.3804
  675MOL0     H91111  10.689   8.483   8.321 -1.4315  3.4783 -1.8263
  675MOL0     H91112  10.472   8.424   8.406 -0.4830  1.7014 -0.6717
  675MOL0     H91113  10.242   8.414   8.418 -1.3497 -0.1402  3.3310
  675MOL0     H91114  10.324   8.269   8.490  0.2850 -1.9676 -1.8388
  675MOL0     H91115  10.034   8.289   8.378 -0.6102 -2.1286 -1.3179
  675MOL0     H91116  10.063   8.265   8.543 -0.1226  0.0369  0.7194
  675MOL0     H91117  10.150   8.035   8.509 -1.3730  0.3293  1.1405
  675MOL0     H91118  10.153   8.073   8.328  0.6190  0.4110  0.3651
  675MOL0     H91119   9.912   8.056   8.323  1.8545  1.9142 -1.3453
  675MOL0     H91120   9.988   7.908   8.393 -0.9887 -0.0880  2.8052
  675MOL0     H91121   9.731   8.006   8.687  2.0216 -3.6021 -0.3655
  675MOL0     H91122  10.396   8.172   8.066 -0.1018  1.0902 -1.4643
  675MOL0     H91123  10.669   8.266   7.875  1.0475  1.4189  0.9233
  675MOL0     H91124  10.729   8.147   7.991 -0.9968 -2.2356 -0.4775
  675MOL0     H91125  10.566   8.123   7.918  0.6786 -0.2853 -0.1813
  676MOL0     O91126   5.223   5.112   5.621 -0.1201 -0.0484 -0.2789
  676MOL0     C91127   5.189   5.001   5.588  0.2761 -0.3607  0.3134
  676MOL0     O91128   5.275   4.919   5.529  0.1681 -0.0595 -0.2644
  676MOL0     C91129   5.404   4.969   5.513  0.1091  0.1435  0.1512
  676MOL0     C91130   5.515   4.919   5.588 -1.0307 -0.0117 -0.1007
  676MOL0     C91131   5.642   4.945   5.534 -0.2928 -0.7138  0.5987
  676MOL0     C91132   5.661   5.023   5.415 -0.8582  0.1525  0.8839
  676MOL0     O91133   5.788   5.037   5.358 -0.3305 -0.0063 -0.3945
  676MOL0     C91134   5.799   5.144   5.263  0.7074 -0.4047  0.1869
  676MOL0     C91135   5.939   5.160   5.204  0.1819  1.0022 -0.8047
  676MOL0     C91136   6.052   5.121   5.301 -0.3234 -0.3532  0.1408
  676MOL0     C91137   6.187   5.147   5.236  0.6185  0.3521  0.4934
  676MOL0     C91138   6.287   5.114   5.342 -0.7871  0.6948 -0.2252
  676MOL0     C91139   6.421   5.065   5.279 -0.8052 -0.3511  0.2501
  676MOL0     C91140   6.505   5.046   5.405 -0.4487 -0.4689 -0.9155
  676MOL0     C91141   6.641   4.973   5.375  0.3548  0.3325 -0.4890
  676MOL0     N91142   6.694   4.921   5.494  0.9993  0.1310 -0.6217
  676MOL0     C91143   6.797   4.968   5.572 -0.3020 -0.4326 -0.3031
  676MOL0     C91144   6.796   4.908   5.688  0.1579 -0.2984 -0.5086
  676MOL0     C91145   6.886   4.941   5.817  0.6146  0.1453 -0.1809
  676MOL0     C91146   7.007   5.035   5.788 -0.1554 -0.2750 -0.7740
  676MOL0     C91147   7.088   5.059   5.909 -0.5222  0.2683 -0.4743
  676MOL0     C91148   7.209   5.141   5.861 -0.4609 -0.7158  0.3551
  676MOL0     O91149   7.302   5.180   5.963 -0.2284 -0.1721  0.3657
  676MOL0     C91150   7.426   5.237   5.931 -0.0744 -1.0949  0.2327
  676MOL0     C91151   7.522   5.253   6.030  0.2063  0.0201  0.5477
  676MOL0     C91152   7.642   5.317   6.003  0.3766 -0.0320 -1.0501
  676MOL0     C91153   7.675   5.366   5.875  0.0427 -0.2807  0.2097
  676MOL0     C91154   7.806   5.424   5.842 -0.6243 -0.6833 -0.4189
  676MOL0     O91155   7.814   5.496   5.729  0.3653  0.5583 -0.1761
  676MOL0     C91156   7.919   5.571   5.699 -0.0241  0.1117  0.0930
  676MOL0     C91157   7.993   5.632   5.800 -0.9359  0.2164 -0.0261
  676MOL0     C91158   8.120   5.685   5.777  0.0124  0.1043 -0.6140
  676MOL0     C91159   8.155   5.700   5.638 -0.7209  0.0623  1.1433
  676MOL0     O91160   8.273   5.765   5.599 -0.1175 -0.8645 -0.5825
  676MOL0     C91161   8.378   5.769   5.698  1.0159  0.0495  0.5679
  676MOL0     C91162   8.496   5.827   5.613  0.2635  1.2817  0.2821
  676MOL0     C91163   8.488   5.974   5.578  0.6455 -0.9169 -0.3389
  676MOL0     C91164   8.464   6.065   5.701  0.9049 -0.1596  0.6148
  676MOL0     C91165   8.465   6.220   5.668 -0.2146 -0.4214  0.0767
  676MOL0     C91166   8.464   6.326   5.784  0.2560 -1.4418 -0.3886
  676MOL0     C91167   8.524   6.472   5.750  0.2054  0.0703  0.0907
  676MOL0     C91168   8.613   6.516   5.861  0.3106  1.0647 -0.0388
  676MOL0    Cl91169   8.656   6.680   5.818 -0.5974  0.4360 -0.3828
  676MOL0     C91170   8.066   5.652   5.542 -0.4384 -0.4141  1.2088
  676MOL0     C91171   7.956   5.574   5.568 -0.3435 -0.6103  0.2165
  676MOL0     O91172   7.898   5.397   5.925 -0.1904 -0.6788  0.3817
  676MOL0     C91173   7.578   5.355   5.776 -0.2492  0.3716  0.3172
  676MOL0     C91174   7.452   5.296   5.807  0.0351  0.4165 -0.9162
  676MOL0     N91175   6.693   4.818   5.681  0.4669 -0.3774 -0.6983
  676MOL0     N91176   6.627   4.827   5.566 -0.0630 -0.2151 -0.3458
  676MOL0     C91177   5.547   5.078   5.355 -0.1556 -0.2940 -0.7612
  676MOL0     C91178   5.416   5.041   5.392 -0.3882  0.6014 -0.2635
  676MOL0     C91179   5.037   4.974   5.573 -0.3420 -1.3262  0.2451
  676MOL0     C91180   4.955   5.057   5.662 -0.4497  0.3671 -0.4097
  676MOL0     C91181   4.822   5.040   5.652  1.3666 -0.8840  0.3729
  676MOL0     C91182   4.755   4.965   5.557  0.2853 -0.4145  1.6122
  676MOL0     O91183   4.619   4.944   5.551  0.0803  0.9622  0.3224
  676MOL0     C91184   4.550   4.959   5.432  0.1802 -0.6361 -0.9067
  676MOL0     C91185   4.414   5.017   5.460  0.0994  0.5667 -0.1039
  676MOL0     C91186   4.309   4.912   5.512  0.4490  0.7617  0.8746
  676MOL0     C91187   4.164   4.969   5.529  0.4653 -0.9997  0.3953
  676MOL0     C91188   4.106   5.014   5.405  0.4877 -0.6213  1.1768
  676MOL0     C91189   4.055   5.044   5.299  0.5042 -0.4483  1.1837
  676MOL0     C91190   4.836   4.894   5.464 -0.4880 -0.2195 -0.6305
  676MOL0     C91191   4.978   4.890   5.481 -0.2394  0.0993 -0.0128
  676MOL0     C91192   5.048   4.812   5.374  0.4059  0.6580 -0.0204
  676MOL0     H91193   5.503   4.870   5.684  3.4096 -0.9028  0.2011
  676MOL0     H91194   5.734   4.912   5.581  1.0734  0.8851 -0.8464
  676MOL0     H91195   5.736   5.132   5.174  0.3980 -3.2961  0.6882
  676MOL0     H91196   5.775   5.240   5.310 -2.1024 -0.0404 -1.7172
  676MOL0     H91197   5.947   5.265   5.178 -1.5270  1.3634 -0.0012
  676MOL0     H91198   5.943   5.102   5.112 -2.3655 -0.4346 -0.1012
  676MOL0     H91199   6.062   5.015   5.326  2.2052 -0.5301 -1.2849
  676MOL0     H91200   6.043   5.185   5.389 -1.6298 -1.3658  0.7890
  676MOL0     H91201   6.193   5.081   5.148 -2.1156  2.7953 -1.7347
  676MOL0     H91202   6.196   5.245   5.188  0.6320 -0.1568 -0.5775
  676MOL0     H91203   6.296   5.202   5.407 -3.1419  0.8810 -0.0691
  676MOL0     H91204   6.249   5.033   5.406  0.4864  0.3482  0.1185
  676MOL0     H91205   6.408   4.977   5.215  0.4727 -0.5833  0.2847
  676MOL0     H91206   6.462   5.146   5.218 -2.0559  1.1394  1.3037
  676MOL0     H91207   6.448   4.988   5.479  2.4542 -0.8166  1.2495
  676MOL0     H91208   6.525   5.144   5.448 -1.5164 -1.0784  1.0827
  676MOL0     H91209   6.615   4.881   5.322 -0.7263  0.6339 -0.5058
  676MOL0     H91210   6.709   5.043   5.325  0.5628  1.7578  1.6602
  676MOL0     H91211   6.870   5.044   5.545 -0.1057  0.0018  1.3652
  676MOL0     H91212   6.820   4.989   5.890 -0.5225 -2.7628  0.8455
  676MOL0     H91213   6.909   4.845   5.862 -2.0357 -0.3243  0.3774
  676MOL0     H91214   7.076   4.994   5.713  2.1054  1.0159  0.4925
  676MOL0     H91215   6.959   5.126   5.750  0.6970 -0.1650 -1.6297
  676MOL0     H91216   7.118   4.963   5.951 -0.5299  0.4111 -0.1326
  676MOL0     H91217   7.024   5.101   5.987 -1.0251 -2.3897  0.6499
  676MOL0     H91218   7.172   5.232   5.814 -0.4995 -1.1023 -0.3747
  676MOL0     H91219   7.275   5.086   5.793  1.0567  0.9718  0.3726
  676MOL0     H91220   7.484   5.207   6.121  1.4220 -0.9423  0.6086
  676MOL0     H91221   7.713   5.340   6.081 -0.7664 -0.1616  0.0734
  676MOL0     H91222   7.962   5.629   5.904  0.5281 -2.6526  0.4246
  676MOL0     H91223   8.186   5.735   5.847 -1.5712  1.0299  0.2929
  676MOL0     H91224   8.352   5.837   5.780  0.5981 -1.0801  1.3997
  676MOL0     H91225   8.393   5.673   5.747  1.5924  0.4172  1.1207
  676MOL0     H91226   8.589   5.801   5.664 -0.7981  0.3232  1.8081
  676MOL0     H91227   8.510   5.775   5.517  1.4683  0.6338  0.7876
  676MOL0     H91228   8.580   6.010   5.530 -0.1456  0.4272 -0.9272
  676MOL0     H91229   8.411   5.994   5.503  0.4061 -0.7062 -0.0392
  676MOL0     H91230   8.543   6.034   5.770 -1.0030 -0.1019  2.9294
  676MOL0     H91231   8.368   6.032   5.741 -0.6276  4.3705  1.2630
  676MOL0     H91232   8.373   6.246   5.613 -0.2598  2.2223  1.2291
  676MOL0     H91233   8.551   6.245   5.605 -1.3034  1.0015 -0.9080
  676MOL0     H91234   8.367   6.340   5.834  1.0528 -3.3881  1.9087
  676MOL0     H91235   8.517   6.282   5.870 -1.5681  0.2118  1.7136
  676MOL0     H91236   8.441   6.543   5.746 -0.8910 -1.1988 -0.3445
  676MOL0     H91237   8.571   6.481   5.651 -1.1241  0.7574 -0.5018
  676MOL0     H91238   8.564   6.515   5.959 -0.3203 -0.4427 -0.3315
  676MOL0     H91239   8.707   6.461   5.853 -1.2993 -1.8783 -0.3949
  676MOL0     H91240   8.097   5.657   5.438  0.0868 -3.5289  1.1206
  676MOL0     H91241   7.902   5.523   5.489  2.8124  0.4693 -2.9337
  676MOL0     H91242   7.590   5.396   5.676 -2.6217  4.9088  1.5803
  676MOL0     H91243   7.365   5.297   5.742 -3.5088 -2.3330  3.2444
  676MOL0     H91244   5.551   5.120   5.255 -0.1151 -3.4941 -2.2141
  676MOL0     H91245   5.330   5.069   5.332  0.1534  3.0270 -0.0164
  676MOL0     H91246   5.004   5.126   5.729 -1.7317  0.7393  0.1779
  676MOL0     H91247   4.761   5.093   5.725  1.2405  0.9398 -0.9920
  676MOL0     H91248   4.527   4.863   5.385  0.8241 -1.5769  0.6371
  676MOL0     H91249   4.607   5.016   5.358  2.0073  0.8754  1.5124
  676MOL0     H91250   4.369   5.038   5.363  1.8197 -1.4095 -1.3967
  676MOL0     H91251   4.423   5.112   5.513  2.5076  1.1806 -1.4873
  676MOL0     H91252   4.331   4.873   5.611  1.2135 -2.1960 -0.3271
  676MOL0     H91253   4.303   4.825   5.444 -0.4436  0.9850  0.6522
  676MOL0     H91254   4.099   4.891   5.570  1.2042 -1.0663  1.4698
  676MOL0     H91255   4.164   5.042   5.610 -3.2731 -0.3954  0.0309
  676MOL0     H91256   4.017   5.084   5.208  1.1401  2.7432  2.2100
  676MOL0     H91257   4.795   4.827   5.389  4.2496 -1.7796 -2.1698
  676MOL0     H91258   4.982   4.776   5.295 -0.9385  2.9544 -0.0085
  676MOL0     H91259   5.123   4.880   5.334 -0.3875  1.8776  0.5139
  676MOL0     H91260   5.103   4.728   5.419 -1.0816  0.4229  1.4589
  677MOL0     O91261   8.475  11.033   6.170 -0.2560  0.2382  0.4281
  677MOL0     C91262   8.386  11.111   6.186 -0.1359 -0.8874 -0.0232
  677MOL0     O91263   8.402  11.245   6.169  0.0416 -0.1566  0.0052
  677MOL0     C91264   8.516  11.308   6.219  1.4198  0.0344  0.2369
  677MOL0     C91265   8.502  11.441   6.208  0.2666 -0.1589 -0.0079
  677MOL0     C91266   8.615  11.524   6.230  0.6175  0.5690 -0.3573
  677MOL0     C91267   8.726  11.475   6.297  0.4138 -0.0463 -0.0079
  677MOL0     O91268   8.835  11.560   6.337 -0.0934  0.2493  0.0001
  677MOL0     C91269   8.845  11.688   6.278 -0.0877  0.6955 -0.3130
  677MOL0     C91270   8.984  11.744   6.309  0.5100 -0.3909  0.0935
  677MOL0     C91271   9.023  11.848   6.206  0.3916 -0.1893 -0.1934
  677MOL0     C91272   8.952  11.983   6.236 -0.2898 -0.4317 -0.1864
  677MOL0     C91273   9.020  12.099   6.158  0.4124 -0.7711 -0.0313
  677MOL0     C91274   8.995  12.241   6.217 -1.1377 -0.5028 -0.0682
  677MOL0     C91275   9.040  12.363   6.141 -0.0761 -0.4235 -0.7083
  677MOL0     C91276   8.993  12.381   5.995 -0.4462 -1.0293  0.0591
  677MOL0     N91277   9.056  12.496   5.926 -0.2508 -0.1819  0.0616
  677MOL0     C91278   9.164  12.493   5.831 -0.0609  0.2200  0.0315
  677MOL0     C91279   9.168  12.622   5.787  0.3593  0.3391  0.0140
  677MOL0     C91280   9.270  12.687   5.705  0.0862  0.6188 -0.0306
  677MOL0     C91281   9.261  12.645   5.561 -0.0990  0.8441  0.3646
  677MOL0     C91282   9.132  12.665   5.500 -0.2552 -0.7436  0.0146
  677MOL0     C91283   9.088  12.816   5.494 -0.7720 -0.9937  0.1499
  677MOL0     O91284   8.976  12.824   5.391 -0.5994 -0.0311  0.0280
  677MOL0     C91285   8.849  12.773   5.414 -0.5881  0.8780  0.4295
  677MOL0     C91286   8.810  12.718   5.535 -0.3823 -0.2799 -0.9570
  677MOL0     C91287   8.681  12.659   5.545 -0.2737  0.7587  0.5784
  677MOL0     C91288   8.584  12.673   5.443 -0.2173  0.4270 -0.6846
  677MOL0     C91289   8.448  12.621   5.451 -0.3883 -0.1340 -0.0858
  677MOL0     O91290   8.363  12.663   5.357  0.2388  0.6884  0.8513
  677MOL0     C91291   8.234  12.615   5.344  0.5279 -0.0119  0.5816
  677MOL0     C91292   8.154  12.679   5.250 -0.1750 -0.2072  0.5319
  677MOL0     C91293   8.024  12.636   5.221 -0.4206 -0.5879  0.7410
  677MOL0     C91294   7.965  12.533   5.286 -0.0216 -0.3051 -0.2801
  677MOL0     O91295   7.838  12.510   5.239  0.3278 -0.4818  0.1961
  677MOL0     C91296   7.748  12.435   5.318  0.1590  0.3512  0.1011
  677MOL0     C91297   7.633  12.375   5.239  0.1719  0.3463  0.4032
  677MOL0     C91298   7.542  12.483   5.175 -1.2230  1.2256  0.0799
  677MOL0     C91299   7.408  12.420   5.135 -0.3038  0.1255  1.0671
  677MOL0     C91300   7.315  12.527   5.082 -0.1451 -0.8563  0.3886
  677MOL0     C91301   7.173  12.482   5.111 -0.1025  0.0864  0.5794
  677MOL0     C91302   7.135  12.372   5.011 -0.5961 -0.4369 -0.5935
  677MOL0     C91303   7.008  12.300   5.039  0.4276 -0.0449  0.0372
  677MOL0    Cl91304   6.864  12.397   5.071  0.2017  0.5210  0.2818
  677MOL0     C91305   8.043  12.463   5.384 -0.3496 -0.0911  1.5831
  677MOL0     C91306   8.178  12.499   5.402  0.1742 -1.7567 -0.2956
  677MOL0     O91307   8.421  12.553   5.547  0.1972 -0.0935  0.3467
  677MOL0     C91308   8.624  12.730   5.319  0.9702 -0.9279 -1.1598
  677MOL0     C91309   8.750  12.788   5.316 -0.0760  0.2990  0.4194
  677MOL0     N91310   9.074  12.700   5.850 -0.5054 -0.0494 -0.6178
  677MOL0     N91311   9.011  12.619   5.928 -0.0809 -0.0811 -0.0976
  677MOL0     C91312   8.738  11.339   6.320  0.5088  0.0844 -0.3253
  677MOL0     C91313   8.630  11.261   6.279 -0.4139  0.8143 -0.3721
  677MOL0     C91314   8.252  11.048   6.216 -0.0314  0.6135 -0.0928
  677MOL0     C91315   8.136  11.109   6.166 -0.6489 -1.0613 -0.2794
  677MOL0     C91316   8.008  11.054   6.183 -0.5506 -0.3148  0.4117
  677MOL0     C91317   7.995  10.934   6.241 -0.3211 -1.0262  0.7801
  677MOL0     O91318   7.869  10.891   6.260  0.0567  1.0997  0.6795
  677MOL0     C91319   7.859  10.749   6.259  0.1266 -0.4940 -0.5316
  677MOL0     C91320   7.722  10.693   6.230  0.3452 -0.9391 -0.0605
  677MOL0     C91321   7.692  10.670   6.080 -0.5586 -0.3440 -0.9140
  677MOL0     C91322   7.695  10.794   5.991 -0.7260  0.3419  0.3969
  677MOL0     C91323   7.614  10.900   6.056 -0.3275 -0.8196 -0.0713
  677MOL0     C91324   7.559  10.998   6.095  0.8922 -0.4356 -1.0390
  677MOL0     C91325   8.108  10.870   6.300 -0.5532  0.2729  0.1339
  677MOL0     C91326   8.237  10.929   6.292  0.4480 -0.6352  0.4520
  677MOL0     C91327   8.349  10.877   6.378  0.4119 -0.2454 -0.2323
  677MOL0     H91328   8.407  11.480   6.172 -1.1879 -3.2253  0.1611
  677MOL0     H91329   8.619  11.631   6.213  0.6940  1.0913  2.3714
  677MOL0     H91330   8.826  11.688   6.171 -0.8464  0.4383 -0.1806
  677MOL0     H91331   8.770  11.754   6.322 -1.3118 -1.1849  0.5361
  677MOL0     H91332   9.060  11.666   6.297  1.1904  0.3123 -0.2187
  677MOL0     H91333   8.986  11.769   6.416 -3.1993 -1.9521  0.7069
  677MOL0     H91334   9.004  11.806   6.107 -2.8993 -2.7413  1.3134
  677MOL0     H91335   9.132  11.854   6.211  0.7962 -1.7143 -3.8187
  677MOL0     H91336   8.846  11.965   6.219  0.3162 -1.3845 -4.0156
  677MOL0     H91337   8.969  11.998   6.343  0.8015 -0.7346 -0.3037
  677MOL0     H91338   9.129  12.086   6.162  0.5706 -1.3940 -3.4863
  677MOL0     H91339   8.984  12.086   6.056  0.8473 -1.4263 -0.1129
  677MOL0     H91340   8.889  12.249   6.242 -0.0693  1.8516  5.0021
  677MOL0     H91341   9.051  12.240   6.310 -0.3816 -3.0440 -0.4680
  677MOL0     H91342   9.149  12.369   6.149 -0.0352 -1.8582  0.1931
  677MOL0     H91343   8.995  12.453   6.183  0.0098 -0.5613 -0.3166
  677MOL0     H91344   9.001  12.291   5.933  2.5540 -0.8908  0.0622
  677MOL0     H91345   8.891  12.416   6.007  0.8261  2.6465  1.5709
  677MOL0     H91346   9.222  12.405   5.804  0.4146  0.9110 -1.3273
  677MOL0     H91347   9.266  12.796   5.709  3.6569  0.9188 -1.0324
  677MOL0     H91348   9.367  12.663   5.748  0.3363  0.3179 -0.7373
  677MOL0     H91349   9.331  12.703   5.501 -0.8264 -1.3425 -2.8183
  677MOL0     H91350   9.297  12.542   5.554  0.6580  0.9200  2.2887
  677MOL0     H91351   9.053  12.607   5.548  0.4376 -0.4372  1.5935
  677MOL0     H91352   9.144  12.634   5.396  3.6013 -1.0613  0.3995
  677MOL0     H91353   9.172  12.879   5.465 -1.0521 -0.9256 -0.5316
  677MOL0     H91354   9.052  12.848   5.592 -1.1988  1.2859 -0.7053
  677MOL0     H91355   8.874  12.713   5.622  0.9636  6.2003 -1.0188
  677MOL0     H91356   8.643  12.616   5.637 -0.6205 -0.1882  0.0063
  677MOL0     H91357   8.199  12.761   5.194 -1.0947 -1.6473 -2.5381
  677MOL0     H91358   7.974  12.692   5.144 -1.2349 -0.3280  1.4461
  677MOL0     H91359   7.799  12.352   5.368 -0.9188 -0.4822 -0.1794
  677MOL0     H91360   7.705  12.505   5.390  1.1470  1.8030 -0.6553
  677MOL0     H91361   7.670  12.314   5.156  0.1408  2.2118 -1.0679
  677MOL0     H91362   7.568  12.319   5.306  0.6443  0.5805  1.0627
  677MOL0     H91363   7.513  12.558   5.249  1.2905  4.1057 -1.6298
  677MOL0     H91364   7.585  12.532   5.087  0.1625 -1.8628 -1.1101
  677MOL0     H91365   7.372  12.374   5.227 -0.0632  2.0085  2.1583
  677MOL0     H91366   7.423  12.336   5.066  2.1526  2.5572 -1.6367
  677MOL0     H91367   7.336  12.550   4.977 -2.3620  0.4275  0.1543
  677MOL0     H91368   7.339  12.619   5.137  0.5417  1.3356 -3.2010
  677MOL0     H91369   7.159  12.451   5.215 -0.3804  0.2902  0.6042
  677MOL0     H91370   7.093  12.557   5.103 -0.7216 -0.6266  0.0061
  677MOL0     H91371   7.220  12.304   5.008 -0.0966  0.1528 -0.0867
  677MOL0     H91372   7.127  12.415   4.911  2.7265 -2.3410 -1.8503
  677MOL0     H91373   6.996  12.228   4.958 -0.0368  0.8799 -0.7304
  677MOL0     H91374   7.029  12.247   5.132  0.8795  2.3167  1.3690
  677MOL0     H91375   8.014  12.372   5.433  0.9909 -0.0033  2.5949
  677MOL0     H91376   8.242  12.431   5.459  2.5396 -0.7327 -1.5651
  677MOL0     H91377   8.545  12.738   5.244  0.3523  0.2151 -0.4237
  677MOL0     H91378   8.781  12.832   5.222  2.6074 -1.7897  0.2212
  677MOL0     H91379   8.828  11.294   6.360  0.7617 -0.0724 -1.0595
  677MOL0     H91380   8.655  11.156   6.286 -0.1682  0.7574 -1.7815
  677MOL0     H91381   8.137  11.206   6.117  1.5573 -0.4142  0.8914
  677MOL0     H91382   7.927  11.116   6.147 -0.8660  0.9944  3.1328
  677MOL0     H91383   7.902  10.715   6.354  1.5488 -0.0806 -1.0051
  677MOL0     H91384   7.926  10.713   6.180 -0.1901  2.4543 -2.2657
  677MOL0     H91385   7.640  10.748   6.277  0.6964 -0.4414 -0.0224
  677MOL0     H91386   7.720  10.594   6.277 -0.3167 -0.2561  1.3745
  677MOL0     H91387   7.594  10.622   6.073  0.0043 -2.1764  2.0373
  677MOL0     H91388   7.759  10.591   6.044  1.7004 -1.8472  5.3823
  677MOL0     H91389   7.798  10.825   5.975  1.1197 -5.7356 -2.7497
  677MOL0     H91390   7.641  10.766   5.900 -0.4900  0.1195  0.3226
  677MOL0     H91391   7.523  11.093   6.130  5.0484  2.5468 -3.8027
  677MOL0     H91392   8.101  10.784   6.366  2.1204  0.8179  1.2585
  677MOL0     H91393   8.414  10.953   6.423  1.0414 -1.4273  0.9331
  677MOL0     H91394   8.300  10.824   6.460  0.9361 -0.1012  0.1789
  677MOL0     H91395   8.405  10.807   6.316 -0.1768 -2.5650  1.7042
  678MOL0     O91396   4.304   6.910   4.191 -0.1065  0.6581  0.3194
  678MOL0     C91397   4.294   7.023   4.237 -0.6247  0.4703 -0.1579
  678MOL0     O91398   4.393   7.115   4.231  0.2258 -0.0316  0.0983
  678MOL0     C91399   4.506   7.107   4.153  0.5405  0.5659  1.3710
  678MOL0     C91400   4.604   7.193   4.185 -0.7906 -1.0811  0.3585
  678MOL0     C91401   4.733   7.194   4.130  0.1569  0.0784 -0.0708
  678MOL0     C91402   4.770   7.095   4.040  0.1411 -1.4993 -0.4042
  678MOL0     O91403   4.896   7.117   3.986  0.3553  0.6852 -0.3373
  678MOL0     C91404   4.945   7.013   3.901 -0.1766  0.4611  0.0709
  678MOL0     C91405   5.086   7.036   3.870 -0.6213 -1.3663 -0.5088
  678MOL0     C91406   5.093   7.164   3.785 -0.2095  0.3672  0.2628
  678MOL0     C91407   5.245   7.204   3.774  0.6087  0.9394  0.4550
  678MOL0     C91408   5.243   7.303   3.664  0.0150  0.7609  0.3890
  678MOL0     C91409   5.379   7.378   3.654  0.2191  0.1694  0.2108
  678MOL0     C91410   5.386   7.449   3.524 -0.7826  0.6950 -0.0673
  678MOL0     C91411   5.443   7.359   3.415 -0.4714 -0.9332  0.0211
  678MOL0     N91412   5.592   7.339   3.439  0.3403 -0.5212 -0.1306
  678MOL0     C91413   5.662   7.247   3.368  0.1038 -0.1249 -0.7170
  678MOL0     C91414   5.775   7.238   3.438  0.2798 -0.1628  0.4315
  678MOL0     C91415   5.889   7.145   3.424 -0.1386  0.0536  0.8243
  678MOL0     C91416   5.986   7.201   3.309  0.4963 -0.5649  0.0265
  678MOL0     C91417   6.116   7.118   3.314  0.2137  0.5202 -0.3257
  678MOL0     C91418   6.224   7.192   3.240  0.6523  0.4731  0.0022
  678MOL0     O91419   6.345   7.119   3.233  0.1330 -0.2450 -0.3720
  678MOL0     C91420   6.473   7.166   3.242  0.2523 -1.0646 -0.3898
  678MOL0     C91421   6.513   7.234   3.127  0.1944 -0.2762 -0.4102
  678MOL0     C91422   6.648   7.276   3.124 -0.0998  0.4209  0.5049
  678MOL0     C91423   6.718   7.280   3.238 -0.0541 -0.5321 -0.1383
  678MOL0     C91424   6.851   7.351   3.235 -0.1481 -0.5599  0.3839
  678MOL0     O91425   6.909   7.374   3.118  0.0180  0.9084  0.2526
  678MOL0     C91426   7.029   7.437   3.122 -0.3918 -0.0526  0.7565
  678MOL0     C91427   7.149   7.367   3.113  0.7463 -0.1351  0.0880
  678MOL0     C91428   7.275   7.443   3.120  0.3032 -0.7978  0.1122
  678MOL0     C91429   7.266   7.580   3.139 -0.1332 -0.8764  0.0714
  678MOL0     O91430   7.381   7.648   3.137  0.0814 -0.4718 -0.0921
  678MOL0     C91431   7.445   7.653   3.264 -0.2894 -0.1567  0.5158
  678MOL0     C91432   7.430   7.791   3.330  0.0171 -0.6227  0.4091
  678MOL0     C91433   7.489   7.898   3.235  0.7068 -0.1924 -0.3360
  678MOL0     C91434   7.624   7.964   3.258 -0.1900  0.3160 -0.6635
  678MOL0     C91435   7.733   7.893   3.165  0.6600 -1.0940  0.2487
  678MOL0     C91436   7.865   7.981   3.149  0.8123  0.2551  0.6552
  678MOL0     C91437   7.977   7.918   3.064  0.7666 -0.1421 -0.2134
  678MOL0     C91438   8.098   8.010   3.050  0.3896 -0.1351 -0.2199
  678MOL0    Cl91439   8.059   8.144   2.926 -0.3018  0.5246 -0.1143
  678MOL0     C91440   7.146   7.649   3.155 -0.2592 -1.1671  0.5951
  678MOL0     C91441   7.030   7.578   3.146 -0.0325  0.3528  0.9567
  678MOL0     O91442   6.903   7.380   3.343 -0.1377  0.1872 -0.6648
  678MOL0     C91443   6.680   7.201   3.352  0.4832  0.1235 -0.6765
  678MOL0     C91444   6.560   7.133   3.349  0.1039 -0.2134  0.7068
  678MOL0     N91445   5.783   7.345   3.535  0.0670 -0.1182 -0.3108
  678MOL0     N91446   5.665   7.396   3.534 -0.4909  0.4398 -0.4011
  678MOL0     C91447   4.675   6.998   4.009 -0.4496 -0.6822 -0.3065
  678MOL0     C91448   4.545   7.005   4.060 -0.6356  0.8315 -0.9308
  678MOL0     C91449   4.175   7.061   4.313  1.2409 -0.1034 -0.0061
  678MOL0     C91450   4.166   7.180   4.378 -0.0939  0.0600 -0.4454
  678MOL0     C91451   4.061   7.232   4.445  0.1387  0.2473 -0.6086
  678MOL0     C91452   3.943   7.154   4.450  0.3376 -0.3068  0.1614
  678MOL0     O91453   3.830   7.205   4.509  0.8951  0.4330  0.1433
  678MOL0     C91454   3.844   7.307   4.602 -0.1075  0.1671 -0.7803
  678MOL0     C91455   3.722   7.307   4.687 -0.5748 -0.5364 -0.4196
  678MOL0     C91456   3.611   7.367   4.600 -0.5109  0.2566  0.4475
  678MOL0     C91457   3.475   7.340   4.657 -0.2538  0.9468  0.0877
  678MOL0     C91458   3.454   7.402   4.785 -0.1336  0.0398  1.2166
  678MOL0     C91459   3.433   7.466   4.885 -0.0798  0.1636  0.0135
  678MOL0     C91460   3.939   7.036   4.386  0.4645  1.0481  0.2712
  678MOL0     C91461   4.052   6.985   4.317  0.5976  1.2538  0.0254
  678MOL0     C91462   4.048   6.842   4.270  0.4702  0.9063  0.4935
  678MOL0     H91463   4.573   7.268   4.257  2.9257  0.1730  0.8641
  678MOL0     H91464   4.795   7.279   4.158  1.0518  0.2991 -2.4437
  678MOL0     H91465   4.927   6.916   3.948  1.9002 -0.5655 -1.1050
  678MOL0     H91466   4.904   7.027   3.800  2.2518  1.1415 -0.8919
  678MOL0     H91467   5.117   6.946   3.816 -2.7499 -0.7058 -3.0739
  678MOL0     H91468   5.142   7.059   3.961 -1.3074 -1.4933 -0.0499
  678MOL0     H91469   5.035   7.250   3.820 -0.4460  0.3809 -0.1515
  678MOL0     H91470   5.053   7.126   3.691  2.9999 -2.5026 -0.1145
  678MOL0     H91471   5.284   7.251   3.865  3.8583  0.8897 -0.8002
  678MOL0     H91472   5.298   7.112   3.750  2.5007  2.1285 -0.0995
  678MOL0     H91473   5.212   7.260   3.568  1.8850  0.1522  0.0132
  678MOL0     H91474   5.172   7.384   3.685  0.4848  1.4158 -0.4500
  678MOL0     H91475   5.387   7.458   3.728  0.0680 -1.4848  2.1168
  678MOL0     H91476   5.467   7.313   3.665  1.9128  1.9432 -1.8711
  678MOL0     H91477   5.451   7.536   3.538 -0.0836 -0.1614  2.5325
  678MOL0     H91478   5.287   7.488   3.499 -2.4766 -0.2051  4.3758
  678MOL0     H91479   5.397   7.261   3.399  0.0445 -1.3108  0.7788
  678MOL0     H91480   5.439   7.414   3.321  4.6422  0.5616  0.3707
  678MOL0     H91481   5.630   7.194   3.278  1.8059 -1.4690 -0.5828
  678MOL0     H91482   5.937   7.134   3.521 -0.5074 -1.2810  0.8750
  678MOL0     H91483   5.846   7.048   3.396  1.0063  0.0796 -1.2700
  678MOL0     H91484   5.934   7.187   3.214 -1.1083 -0.3442  0.8500
  678MOL0     H91485   6.006   7.309   3.316 -3.6105  0.2743  1.6456
  678MOL0     H91486   6.106   7.018   3.271  3.3723 -0.1373  0.2199
  678MOL0     H91487   6.151   7.107   3.417 -1.0451  3.6189  0.5504
  678MOL0     H91488   6.231   7.295   3.276 -1.8356  1.2412 -1.3994
  678MOL0     H91489   6.186   7.208   3.138  0.0831  1.5750  0.3674
  678MOL0     H91490   6.451   7.240   3.038  0.6431 -0.7950 -0.7644
  678MOL0     H91491   6.680   7.314   3.028  0.4736  0.1058  0.5673
  678MOL0     H91492   7.162   7.259   3.116  1.3069 -0.1104  4.4670
  678MOL0     H91493   7.368   7.388   3.129  0.2020 -1.1034 -0.6307
  678MOL0     H91494   7.406   7.573   3.327  1.8137 -1.7624 -0.1258
  678MOL0     H91495   7.551   7.638   3.244 -0.7086 -0.1144 -2.1378
  678MOL0     H91496   7.322   7.807   3.342 -0.3053 -1.2269 -1.3666
  678MOL0     H91497   7.473   7.793   3.431 -0.7696  0.5587  0.7399
  678MOL0     H91498   7.477   7.863   3.132 -2.8483  0.4097 -0.2542
  678MOL0     H91499   7.430   7.990   3.237  1.5367  0.3437  0.9378
  678MOL0     H91500   7.656   7.945   3.361  1.4202 -1.4723 -1.4133
  678MOL0     H91501   7.627   8.070   3.231 -0.7481  1.3063  2.7759
  678MOL0     H91502   7.691   7.874   3.066  1.3990 -5.2043  0.5505
  678MOL0     H91503   7.755   7.794   3.208 -0.4885 -1.0610  0.9729
  678MOL0     H91504   7.835   8.079   3.109 -1.2891 -0.2759  0.8175
  678MOL0     H91505   7.895   7.996   3.253 -3.2348 -2.4385  2.4969
  678MOL0     H91506   7.949   7.913   2.958  2.0241  3.9062 -0.8972
  678MOL0     H91507   8.008   7.821   3.104  2.6453 -0.3851 -2.0775
  678MOL0     H91508   8.113   8.062   3.145 -0.8510  2.1968 -1.2076
  678MOL0     H91509   8.192   7.960   3.026  1.4448  0.4422  2.3646
  678MOL0     H91510   7.149   7.755   3.177 -1.1070 -0.7285 -1.2417
  678MOL0     H91511   6.932   7.623   3.159 -1.1480 -1.9888  1.0876
  678MOL0     H91512   6.744   7.198   3.440  1.7911  1.1319 -1.5629
  678MOL0     H91513   6.515   7.089   3.437  2.6425 -1.1573  1.6483
  678MOL0     H91514   4.694   6.912   3.945 -2.1381 -2.3002  1.2159
  678MOL0     H91515   4.482   6.920   4.037  2.0013 -1.9093  1.2032
  678MOL0     H91516   4.238   7.258   4.400 -1.0809  0.3002  2.4200
  678MOL0     H91517   4.071   7.331   4.488  1.1403  1.2478 -2.9657
  678MOL0     H91518   3.856   7.399   4.545 -0.0210  0.4217 -0.3550
  678MOL0     H91519   3.930   7.300   4.670 -1.7126  2.1796  1.6390
  678MOL0     H91520   3.746   7.360   4.780 -0.5735  0.1150 -0.7878
  678MOL0     H91521   3.699   7.204   4.716  0.0508 -0.0850  1.9310
  678MOL0     H91522   3.613   7.322   4.500  1.4274  3.4935 -1.1479
  678MOL0     H91523   3.639   7.473   4.600  2.3492 -0.4038  0.9111
  678MOL0     H91524   3.406   7.386   4.585 -2.3405 -3.1034 -0.7957
  678MOL0     H91525   3.456   7.233   4.661 -2.3620  1.2470  5.1245
  678MOL0     H91526   3.422   7.523   4.975  3.5089 -0.7532  1.2223
  678MOL0     H91527   3.853   6.970   4.385  0.4267  1.0566 -1.7911
  678MOL0     H91528   3.955   6.786   4.283  0.9013 -0.0933 -0.5313
  678MOL0     H91529   4.063   6.839   4.162 -3.1017 -3.5370 -0.2185
  678MOL0     H91530   4.122   6.778   4.320 -0.5858 -1.0253 -0.3046
  679MOL0     O91531  10.132   7.018   7.881  0.2133  0.5309  0.2770
  679MOL0     C91532  10.071   6.942   7.957 -0.5363  0.1475  0.2526
  679MOL0     O91533  10.124   6.830   8.016 -0.3599 -0.5232  0.5038
  679MOL0     C91534  10.261   6.805   8.020  1.5784  0.4427  0.5750
  679MOL0     C91535  10.297   6.720   8.131  0.3025  0.1549  0.3460
  679MOL0     C91536  10.428   6.675   8.151  0.3030  0.1454 -1.3927
  679MOL0     C91537  10.529   6.718   8.062 -0.6267  0.5672 -0.4289
  679MOL0     O91538  10.661   6.670   8.086 -0.4154 -0.2392 -0.0265
  679MOL0     C91539  10.776   6.725   8.016 -0.2378  0.7252  0.8068
  679MOL0     C91540  10.905   6.695   8.088 -0.2215  0.2681  0.1151
  679MOL0     C91541  10.910   6.727   8.230 -0.1142 -0.7124 -0.4597
  679MOL0     C91542  11.054   6.703   8.299  0.4809  0.6168 -0.3348
  679MOL0     C91543  11.049   6.754   8.445  0.1075  0.1929  0.4699
  679MOL0     C91544  11.181   6.735   8.517 -0.5287 -0.1458  0.6271
  679MOL0     C91545  11.301   6.809   8.450 -0.2031 -0.3541  0.3896
  679MOL0     C91546  11.424   6.803   8.543 -0.6403  0.1156  0.5089
  679MOL0     N91547  11.534   6.873   8.472 -0.5300  0.0220 -0.5267
  679MOL0     C91548  11.626   6.810   8.387 -0.3410  0.1550 -0.2130
  679MOL0     C91549  11.716   6.905   8.351  0.4646 -1.0177 -1.1264
  679MOL0     C91550  11.843   6.894   8.271 -0.0504 -0.2358  0.0248
  679MOL0     C91551  11.979   6.894   8.350 -0.0501 -0.4663  0.1621
  679MOL0     C91552  12.086   6.906   8.240 -0.7216  0.1410 -0.1471
  679MOL0     C91553  12.227   6.932   8.300  0.3081  0.4550 -0.5285
  679MOL0     O91554  12.245   6.846   8.418 -0.5073  0.2271 -0.9612
  679MOL0     C91555  12.365   6.862   8.486 -0.9200 -1.3014  0.7214
  679MOL0     C91556  12.462   6.945   8.442 -0.2627  0.2142 -1.3010
  679MOL0     C91557  12.580   6.955   8.524  0.0641 -0.3005 -0.3600
  679MOL0     C91558  12.594   6.865   8.641  0.7553 -0.3477  0.4878
  679MOL0     C91559  12.725   6.848   8.715  1.1842 -0.0792  0.3100
  679MOL0     O91560  12.730   6.760   8.812  0.2948  0.4193 -0.2472
  679MOL0     C91561  12.843   6.698   8.858  0.1392 -0.1502 -0.3192
  679MOL0     C91562  12.826   6.596   8.953  1.1829 -0.4659 -0.5538
  679MOL0     C91563  12.942   6.536   9.003 -0.1911 -0.4857  0.2060
  679MOL0     C91564  13.069   6.555   8.960 -0.6645  0.4270  0.0163
  679MOL0     O91565  13.187   6.500   9.012  0.3866 -0.8524 -0.1802
  679MOL0     C91566  13.194   6.487   9.153  0.9783 -0.5941 -0.1845
  679MOL0     C91567  13.330   6.510   9.197  0.1199 -0.3658  0.2923
  679MOL0     C91568  13.366   6.462   9.336  1.0381 -0.3275  0.2847
  679MOL0     C91569  13.518   6.499   9.365 -0.2034 -0.0802 -0.2765
  679MOL0     C91570  13.593   6.638   9.319  0.0815  0.4523 -0.0057
  679MOL0     C91571  13.746   6.644   9.357  0.4381 -0.6194 -0.2595
  679MOL0     C91572  13.769   6.672   9.504  0.5537 -0.1397  0.1405
  679MOL0     C91573  13.916   6.671   9.539 -0.5307 -0.9309  0.1233
  679MOL0    Cl91574  14.001   6.828   9.491  0.3953 -0.0563  0.0330
  679MOL0     C91575  13.084   6.647   8.854 -1.3812 -0.1899  0.6100
  679MOL0     C91576  12.972   6.715   8.797  0.6804  0.1303  0.7462
  679MOL0     O91577  12.801   6.939   8.697 -0.3376 -0.1756 -0.8674
  679MOL0     C91578  12.486   6.782   8.675  0.3359 -0.2800 -0.8107
  679MOL0     C91579  12.374   6.784   8.597 -0.8428  0.5082  0.7122
  679MOL0     N91580  11.670   7.026   8.405 -0.1400 -1.1284 -0.3219
  679MOL0     N91581  11.564   7.007   8.478 -0.0287 -0.4081  0.1705
  679MOL0     C91582  10.499   6.795   7.951  0.3209 -0.8623  0.3704
  679MOL0     C91583  10.365   6.845   7.927 -0.1808  0.3944 -0.2432
  679MOL0     C91584   9.930   6.960   7.982 -0.1187  0.0164 -0.1643
  679MOL0     C91585   9.849   6.983   7.875 -0.3134  0.3877  0.0549
  679MOL0     C91586   9.715   6.985   7.886  0.1323 -0.2035  0.4962
  679MOL0     C91587   9.652   6.975   8.007  0.4562 -0.6216 -0.0599
  679MOL0     O91588   9.519   6.989   8.009  0.7817  0.0797  0.1354
  679MOL0     C91589   9.444   7.006   8.128  1.1307  0.3235 -0.2818
  679MOL0     C91590   9.305   7.043   8.074 -0.0083 -0.0995  0.2915
  679MOL0     C91591   9.299   7.192   8.046  0.9029 -0.4307  0.0308
  679MOL0     C91592   9.166   7.227   7.975  0.4057  0.2338 -0.3899
  679MOL0     C91593   9.190   7.217   7.826 -0.5733 -0.1469 -0.2442
  679MOL0     C91594   9.196   7.218   7.704  0.1221 -1.2109 -0.0453
  679MOL0     C91595   9.728   6.963   8.123  0.3959 -0.5507 -0.5721
  679MOL0     C91596   9.864   6.958   8.109 -0.7312 -0.7954 -0.4536
  679MOL0     C91597   9.947   6.952   8.229 -0.2794 -0.0890 -0.1213
  679MOL0     H91598  10.212   6.693   8.193  0.6392  0.5744  1.0010
  679MOL0     H91599  10.454   6.614   8.237 -3.3172  0.7730  0.3267
  679MOL0     H91600  10.762   6.681   7.917  0.0214  2.8307 -0.2098
  679MOL0     H91601  10.757   6.832   8.013 -1.3458  0.5511 -2.4505
  679MOL0     H91602  10.980   6.751   8.032 -3.4247  2.0982 -2.7158
  679MOL0     H91603  10.936   6.591   8.075 -0.9045  0.3229 -2.4874
  679MOL0     H91604  10.821   6.687   8.279 -1.0765  0.7296 -0.9708
  679MOL0     H91605  10.908   6.836   8.235  3.6461 -0.5329 -0.0982
  679MOL0     H91606  11.074   6.595   8.303 -1.8119  0.0876 -1.3554
  679MOL0     H91607  11.133   6.753   8.242  0.9497  1.1263  0.7350
  679MOL0     H91608  11.018   6.858   8.452  1.6162  0.5867  1.7183
  679MOL0     H91609  10.970   6.691   8.488 -0.1734 -0.2666 -0.6845
  679MOL0     H91610  11.169   6.760   8.623  1.1884 -1.8929  1.3029
  679MOL0     H91611  11.206   6.629   8.507  0.5703  0.3346 -3.2158
  679MOL0     H91612  11.265   6.912   8.448 -2.6517 -1.1603 -0.7994
  679MOL0     H91613  11.324   6.777   8.348 -1.1099  1.1178 -0.3103
  679MOL0     H91614  11.390   6.849   8.636 -2.0775 -1.1561  0.6441
  679MOL0     H91615  11.450   6.700   8.569  0.2195  0.8702  2.8747
  679MOL0     H91616  11.627   6.702   8.379 -0.3145  0.1354  0.0584
  679MOL0     H91617  11.841   6.805   8.207  0.5089 -0.6981  0.6293
  679MOL0     H91618  11.836   6.980   8.204 -0.6433  0.7686  1.3267
  679MOL0     H91619  11.995   6.982   8.414  1.7883 -0.4012 -0.3081
  679MOL0     H91620  11.990   6.805   8.413 -1.8446  0.7515  2.3355
  679MOL0     H91621  12.054   6.994   8.183 -2.9022  0.9964  2.2138
  679MOL0     H91622  12.082   6.816   8.178 -2.1056  0.4744 -0.5660
  679MOL0     H91623  12.239   7.036   8.330  1.3460 -0.1981  1.5930
  679MOL0     H91624  12.296   6.907   8.220 -2.1822  0.5461 -2.8328
  679MOL0     H91625  12.480   7.005   8.353  2.1898 -0.9557 -1.6784
  679MOL0     H91626  12.660   7.025   8.502 -0.3797 -0.1931 -1.7687
  679MOL0     H91627  12.732   6.570   8.999  1.0227  1.7743  0.5001
  679MOL0     H91628  12.921   6.468   9.084 -2.8642 -0.5310 -0.4390
  679MOL0     H91629  13.126   6.551   9.210  0.5870 -0.9049 -0.2971
  679MOL0     H91630  13.163   6.384   9.173  0.0844 -0.0695  1.3234
  679MOL0     H91631  13.399   6.453   9.135  1.3833  2.8509 -1.4941
  679MOL0     H91632  13.359   6.615   9.181 -0.1168 -0.1722  1.0782
  679MOL0     H91633  13.302   6.520   9.403 -0.0412 -0.8337 -0.2762
  679MOL0     H91634  13.360   6.354   9.350  4.0295 -0.6980 -0.4949
  679MOL0     H91635  13.580   6.411   9.344 -0.1440 -0.5333  1.6686
  679MOL0     H91636  13.526   6.500   9.474  0.4444  0.0967 -0.3200
  679MOL0     H91637  13.541   6.728   9.353  2.7882  1.3665  2.0436
  679MOL0     H91638  13.589   6.649   9.210  0.0374  1.6741  0.1136
  679MOL0     H91639  13.795   6.550   9.330  1.1106  0.2859 -2.3676
  679MOL0     H91640  13.796   6.729   9.310  0.3461  0.4392  1.4454
  679MOL0     H91641  13.713   6.608   9.572  1.5889  0.6806  1.8317
  679MOL0     H91642  13.734   6.774   9.524  1.3436  0.2471 -0.3642
  679MOL0     H91643  13.923   6.665   9.648 -1.6920  1.1932  0.3753
  679MOL0     H91644  13.950   6.581   9.487  0.9790 -0.8408  0.8739
  679MOL0     H91645  13.180   6.678   8.814 -1.0430  1.0721  2.3108
  679MOL0     H91646  12.994   6.789   8.721  1.4223 -0.7282  0.1098
  679MOL0     H91647  12.507   6.728   8.767  1.3356  0.4311 -0.6117
  679MOL0     H91648  12.292   6.718   8.622 -0.1469 -0.7135 -0.1035
  679MOL0     H91649  10.567   6.809   7.868 -2.1766 -1.9315 -2.0167
  679MOL0     H91650  10.349   6.909   7.841 -0.5143  2.3867  1.2302
  679MOL0     H91651   9.885   6.977   7.772  4.1439 -2.7023  1.4587
  679MOL0     H91652   9.660   6.999   7.794  0.3495 -0.0862  0.3854
  679MOL0     H91653   9.469   7.086   8.199 -0.1631 -0.1158  0.6927
  679MOL0     H91654   9.445   6.913   8.186  1.7115  0.3158 -0.2892
  679MOL0     H91655   9.234   7.013   8.152  0.7658 -1.3673  0.5317
  679MOL0     H91656   9.287   6.996   7.977  1.6172  1.1579 -0.6537
  679MOL0     H91657   9.388   7.222   7.989  1.2005 -2.7285 -0.8252
  679MOL0     H91658   9.298   7.244   8.142  0.6758 -0.7813  0.2166
  679MOL0     H91659   9.094   7.150   8.004  2.1379 -1.5787 -0.6634
  679MOL0     H91660   9.128   7.324   8.008 -0.2507 -0.9959  2.9171
  679MOL0     H91661   9.205   7.228   7.598  0.0259  2.5771  0.1700
  679MOL0     H91662   9.683   6.955   8.222  1.2886  1.3483  0.0398
  679MOL0     H91663  10.010   7.041   8.224 -0.0756 -0.2702 -0.8025
  679MOL0     H91664   9.899   6.946   8.327 -0.7880  0.9508 -0.2974
  679MOL0     H91665  10.000   6.856   8.227 -1.1980 -0.6435  0.7584
  680MOL0     O91666   7.500   2.350   9.014  0.0790  0.2150  0.5610
  680MOL0     C91667   7.437   2.254   9.059  0.5312  0.6953 -0.3067
  680MOL0     O91668   7.481   2.120   9.065 -0.1172 -0.3825 -0.4103
  680MOL0     C91669   7.609   2.116   9.025 -0.2617 -0.1840 -0.1047
  680MOL0     C91670   7.716   2.142   9.108  0.1590  0.4134 -0.3597
  680MOL0     C91671   7.849   2.130   9.069  0.2760  0.2357  0.2585
  680MOL0     C91672   7.870   2.081   8.937  0.2337 -0.3302 -0.6712
  680MOL0     O91673   7.997   2.062   8.907 -0.0330 -0.7351  0.0778
  680MOL0     C91674   8.032   2.013   8.778 -0.0882  0.0892  0.5930
  680MOL0     C91675   8.176   2.035   8.765 -0.1174  0.3613 -0.1372
  680MOL0     C91676   8.231   1.994   8.622 -0.1706 -0.3672  0.8136
  680MOL0     C91677   8.380   2.015   8.609 -0.0794 -0.0688 -0.6185
  680MOL0     C91678   8.439   1.931   8.501  0.7366  0.9071 -0.4338
  680MOL0     C91679   8.562   1.979   8.440  0.3461  0.6985  0.2219
  680MOL0     C91680   8.626   1.881   8.338  0.4070  0.1001  0.2109
  680MOL0     C91681   8.743   1.944   8.268 -0.0213  0.2006  0.0210
  680MOL0     N91682   8.793   1.845   8.173  0.3337  0.2788  0.2104
  680MOL0     C91683   8.770   1.854   8.040  1.1647 -0.3697  0.5277
  680MOL0     C91684   8.848   1.749   7.996  0.5322  0.2839  0.1434
  680MOL0     C91685   8.872   1.710   7.848  0.8712  0.1419 -0.6999
  680MOL0     C91686   9.019   1.716   7.807 -0.4475  0.2075 -0.7195
  680MOL0     C91687   9.028   1.723   7.660 -0.3680  0.1634 -0.4142
  680MOL0     C91688   9.173   1.721   7.611 -0.3409 -0.2192 -0.1706
  680MOL0     O91689   9.238   1.833   7.675  0.2194  0.5186 -0.1322
  680MOL0     C91690   9.375   1.840   7.675  0.4889 -1.2742  0.7887
  680MOL0     C91691   9.437   1.953   7.736  0.2626 -0.2218  0.1013
  680MOL0     C91692   9.568   1.980   7.726 -0.1526  0.0214 -0.1325
  680MOL0     C91693   9.659   1.891   7.671 -0.5103 -0.3376 -0.5280
  680MOL0     C91694   9.805   1.927   7.671  0.9140  0.4974  0.4489
  680MOL0     O91695   9.887   1.832   7.638 -0.3038  0.7749  0.1907
  680MOL0     C91696  10.016   1.837   7.605  0.9882  0.0099  0.0183
  680MOL0     C91697  10.076   1.719   7.574  1.1914 -0.0971  1.4864
  680MOL0     C91698  10.207   1.712   7.526  0.5122 -0.3295  0.5623
  680MOL0     C91699  10.278   1.836   7.511  0.2534  0.0530 -0.9084
  680MOL0     O91700  10.408   1.821   7.462 -0.3172 -0.2074 -0.0401
  680MOL0     C91701  10.505   1.925   7.476 -0.2973  0.3824  0.9409
  680MOL0     C91702  10.639   1.888   7.409 -0.4438 -0.4186  0.8640
  680MOL0     C91703  10.760   1.974   7.465  0.2083  0.0199  0.2346
  680MOL0     C91704  10.866   2.034   7.367  0.4087 -0.1725 -0.0701
  680MOL0     C91705  10.840   2.176   7.330  0.4850 -0.2143  0.2411
  680MOL0     C91706  10.963   2.242   7.262 -0.1480 -0.4285  0.2930
  680MOL0     C91707  10.949   2.377   7.208 -0.0271  0.2300  0.2079
  680MOL0     C91708  11.062   2.405   7.109 -0.1456 -0.5216 -0.2975
  680MOL0    Cl91709  11.065   2.575   7.040 -0.0272 -0.2458 -0.0434
  680MOL0     C91710  10.221   1.952   7.548 -0.5483  0.0789  0.1291
  680MOL0     C91711  10.089   1.950   7.589 -0.6302 -0.1083  0.6006
  680MOL0     O91712   9.838   2.041   7.703  0.3143  0.4712 -0.1025
  680MOL0     C91713   9.607   1.771   7.613  0.1626 -0.1605 -0.0865
  680MOL0     C91714   9.467   1.749   7.620  0.1136  0.0392 -0.4138
  680MOL0     N91715   8.911   1.688   8.105  0.4037 -0.0113  0.0655
  680MOL0     N91716   8.869   1.743   8.206 -0.4867 -0.0647  0.8848
  680MOL0     C91717   7.759   2.075   8.850 -0.0950 -0.4871 -0.8809
  680MOL0     C91718   7.631   2.081   8.902  0.0569  0.1534  0.2080
  680MOL0     C91719   7.289   2.262   9.076  0.9016  1.1132 -1.0304
  680MOL0     C91720   7.221   2.152   9.129  0.3952 -0.2939 -0.2188
  680MOL0     C91721   7.082   2.146   9.155 -0.2571 -0.0660 -1.1097
  680MOL0     C91722   7.007   2.261   9.147 -0.1986 -0.1877  0.0357
  680MOL0     O91723   6.881   2.257   9.190  0.1333 -0.2844  0.1689
  680MOL0     C91724   6.799   2.374   9.193 -0.1864  0.2726  0.3555
  680MOL0     C91725   6.657   2.347   9.226  0.8977  0.0814  0.3406
  680MOL0     C91726   6.587   2.311   9.091 -0.1797  0.1373  0.0993
  680MOL0     C91727   6.431   2.327   9.103  0.2005  0.7919  0.4125
  680MOL0     C91728   6.375   2.265   9.220  0.3818  0.6590 -0.4931
  680MOL0     C91729   6.339   2.189   9.307 -0.5641  0.5856 -0.2583
  680MOL0     C91730   7.070   2.386   9.110  0.0880  0.4896  0.1688
  680MOL0     C91731   7.206   2.381   9.078  0.2642 -0.2348 -0.2996
  680MOL0     C91732   7.280   2.505   9.047 -0.2498 -0.2100  0.1515
  680MOL0     H91733   7.696   2.169   9.212 -2.3258  1.6626 -1.0882
  680MOL0     H91734   7.929   2.130   9.142 -0.5984 -0.3378  1.2559
  680MOL0     H91735   8.006   1.907   8.775 -1.5603  0.3406  2.4515
  680MOL0     H91736   7.981   2.072   8.701  0.1717 -1.7923 -1.1273
  680MOL0     H91737   8.228   1.962   8.829 -0.8213  0.7478  0.8953
  680MOL0     H91738   8.199   2.141   8.778  0.5694  0.8198 -4.0344
  680MOL0     H91739   8.182   2.044   8.537 -0.7183 -2.6376 -0.2676
  680MOL0     H91740   8.201   1.890   8.614 -2.9026  0.3799  0.3219
  680MOL0     H91741   8.412   2.119   8.598  1.5006 -0.7918 -4.7959
  680MOL0     H91742   8.435   1.987   8.700  0.6305  1.4937 -0.5438
  680MOL0     H91743   8.448   1.832   8.548 -4.7144  0.9888  1.5070
  680MOL0     H91744   8.359   1.918   8.428  1.0278  0.0941 -0.6267
  680MOL0     H91745   8.535   2.073   8.390 -3.0601  1.0553  2.3723
  680MOL0     H91746   8.633   2.002   8.519  1.2725 -0.4657 -0.2463
  680MOL0     H91747   8.550   1.853   8.264 -0.7165  2.2147  0.5039
  680MOL0     H91748   8.660   1.791   8.390  0.0253  0.2688  0.7656
  680MOL0     H91749   8.706   2.031   8.213  2.1154  0.6828 -0.7225
  680MOL0     H91750   8.821   1.980   8.336  1.2578 -0.4881 -1.0422
  680MOL0     H91751   8.697   1.914   7.986  0.0557 -1.2043  1.0629
  680MOL0     H91752   8.834   1.611   7.825 -0.4001  0.4518 -0.0551
  680MOL0     H91753   8.815   1.790   7.798  0.2187  0.4251  0.4394
  680MOL0     H91754   9.067   1.807   7.844  0.1510 -0.9164  1.4503
  680MOL0     H91755   9.073   1.628   7.845 -0.6640  1.0309  1.6515
  680MOL0     H91756   8.987   1.823   7.640  1.7303  1.4216  1.1202
  680MOL0     H91757   8.982   1.635   7.613 -0.4125 -1.0901  1.8564
  680MOL0     H91758   9.177   1.728   7.501 -3.4349  0.9671 -0.3062
  680MOL0     H91759   9.218   1.627   7.644 -5.0063 -1.0905  5.3937
  680MOL0     H91760   9.378   2.027   7.789  0.7831  1.0499 -1.0238
  680MOL0     H91761   9.597   2.081   7.756 -0.3378  0.1709 -0.4501
  680MOL0     H91762  10.020   1.628   7.589  0.2609  0.0768 -0.6604
  680MOL0     H91763  10.245   1.618   7.487  0.2520 -0.8759  1.5876
  680MOL0     H91764  10.468   2.019   7.435  1.2043 -0.8313 -3.9164
  680MOL0     H91765  10.530   1.943   7.581  3.3238  2.1700 -0.0754
  680MOL0     H91766  10.663   1.783   7.427  0.8283 -0.0092  1.7658
  680MOL0     H91767  10.645   1.906   7.302 -0.4165  3.0625  1.3209
  680MOL0     H91768  10.723   2.049   7.535  0.0810 -0.0365  0.2282
  680MOL0     H91769  10.817   1.903   7.525  0.3123 -0.0697  0.0317
  680MOL0     H91770  10.879   1.963   7.284  0.7967 -2.6441  2.0037
  680MOL0     H91771  10.960   2.037   7.422  0.7107  0.7278 -0.6120
  680MOL0     H91772  10.816   2.242   7.414  0.5616  1.4692 -1.0124
  680MOL0     H91773  10.754   2.184   7.263  0.3881  2.1171  0.5752
  680MOL0     H91774  11.060   2.225   7.309  1.5278 -1.2571 -3.1519
  680MOL0     H91775  10.974   2.171   7.179  0.3489 -1.8368  1.5058
  680MOL0     H91776  10.963   2.444   7.293  1.4639 -0.3886  0.4847
  680MOL0     H91777  10.852   2.386   7.159  1.0151  0.3866 -1.9545
  680MOL0     H91778  11.155   2.402   7.166 -1.6789  1.6306  2.5614
  680MOL0     H91779  11.066   2.327   7.032  0.1738 -1.5004  0.7007
  680MOL0     H91780  10.276   2.045   7.537 -2.3107  1.0120 -1.3864
  680MOL0     H91781  10.058   2.051   7.617  0.5606  0.6873 -0.7851
  680MOL0     H91782   9.675   1.699   7.570 -2.5091 -1.0852 -3.1242
  680MOL0     H91783   9.429   1.653   7.586 -1.8481  0.5068  0.3321
  680MOL0     H91784   7.775   2.042   8.748  2.5849 -1.5052 -0.2215
  680MOL0     H91785   7.545   2.066   8.838 -1.4520 -1.0611  2.3799
  680MOL0     H91786   7.270   2.055   9.140  2.2708  0.9018  3.8251
  680MOL0     H91787   7.037   2.052   9.186  1.5217 -0.9709 -1.1442
  680MOL0     H91788   6.797   2.425   9.096 -1.0374 -0.7822 -0.2050
  680MOL0     H91789   6.842   2.435   9.273 -0.8439  1.3229 -0.0753
  680MOL0     H91790   6.605   2.437   9.259  0.0808 -0.6557  1.1579
  680MOL0     H91791   6.658   2.272   9.306  2.4201 -2.4516 -1.8639
  680MOL0     H91792   6.615   2.209   9.065  1.9469  1.1006 -1.7230
  680MOL0     H91793   6.625   2.367   9.005  1.7007 -1.3188 -0.0840
  680MOL0     H91794   6.401   2.432   9.097 -0.1780  0.6142 -3.7849
  680MOL0     H91795   6.376   2.289   9.017 -1.7887 -0.6750  2.2410
  680MOL0     H91796   6.313   2.131   9.393 -0.1883  0.6293 -0.1126
  680MOL0     H91797   7.020   2.482   9.110 -0.9171 -0.0188  0.4624
  680MOL0     H91798   7.321   2.486   8.948 -0.4242  0.3185 -0.0281
  680MOL0     H91799   7.209   2.588   9.037 -1.6846 -1.3926  0.1773
  680MOL0     H91800   7.357   2.525   9.123 -0.1744 -0.2358  0.0807
  681MOL0     O91801   6.485   6.478   6.041 -0.4018 -0.2966  0.3192
  681MOL0     C91802   6.434   6.401   5.961  0.4618 -0.4617  0.5074
  681MOL0     O91803   6.503   6.317   5.882  0.3508  0.5053 -0.0117
  681MOL0     C91804   6.622   6.357   5.834  0.2229  1.2628  0.3493
  681MOL0     C91805   6.624   6.405   5.704  0.6981  0.3516 -1.2818
  681MOL0     C91806   6.747   6.450   5.650  0.5020 -0.9029 -0.7565
  681MOL0     C91807   6.865   6.437   5.726  0.3292 -0.5126 -0.2157
  681MOL0     O91808   6.989   6.470   5.685 -0.0699  0.0748  0.2263
  681MOL0     C91809   7.032   6.426   5.557  0.0627 -1.0830 -0.3438
  681MOL0     C91810   7.059   6.273   5.542  0.3067  0.2561  0.4171
  681MOL0     C91811   6.930   6.195   5.505 -0.8620  0.2848 -0.1557
  681MOL0     C91812   6.954   6.039   5.500 -0.3286  0.2968  0.0690
  681MOL0     C91813   7.051   5.994   5.393 -0.8437  0.2463  0.5147
  681MOL0     C91814   7.006   6.010   5.248  0.6080 -0.0314 -0.0796
  681MOL0     C91815   7.113   5.955   5.151 -0.1891 -1.3763 -0.2860
  681MOL0     C91816   7.131   6.045   5.025 -0.4568 -0.4312  0.4063
  681MOL0     N91817   7.180   6.182   5.055 -0.0728  0.0564 -0.0966
  681MOL0     C91818   7.309   6.226   5.082 -0.5104  0.3563  0.0408
  681MOL0     C91819   7.297   6.359   5.101  0.3269  0.1109 -0.3263
  681MOL0     C91820   7.412   6.457   5.115 -1.1151  0.1078  0.9662
  681MOL0     C91821   7.408   6.543   5.243 -0.8747 -0.0601  0.3192
  681MOL0     C91822   7.501   6.658   5.243 -0.1909 -0.2366 -0.0724
  681MOL0     C91823   7.643   6.616   5.221 -0.4712 -0.6757  0.4083
  681MOL0     O91824   7.714   6.733   5.196 -0.3579  0.4411 -0.1209
  681MOL0     C91825   7.849   6.746   5.177 -0.3087  0.4986 -0.2276
  681MOL0     C91826   7.897   6.878   5.151 -0.2106 -0.3436 -0.0300
  681MOL0     C91827   8.033   6.904   5.129  0.0828  0.3033  0.3351
  681MOL0     C91828   8.121   6.798   5.119 -0.3177 -0.2215  0.0518
  681MOL0     C91829   8.256   6.829   5.072 -0.3736  0.2047 -0.2658
  681MOL0     O91830   8.287   6.959   5.044  0.1360 -0.0779  0.5906
  681MOL0     C91831   8.415   6.977   4.987  0.3137 -0.5091 -0.4183
  681MOL0     C91832   8.517   7.011   5.078 -0.5581 -0.3976  0.0459
  681MOL0     C91833   8.645   7.033   5.031 -0.8912  0.0755 -0.5990
  681MOL0     C91834   8.672   7.026   4.893  0.2938 -0.1351  1.0934
  681MOL0     O91835   8.798   7.061   4.848 -0.1093 -0.2384 -0.2462
  681MOL0     C91836   8.908   6.995   4.900 -0.5648 -0.5852 -0.0710
  681MOL0     C91837   9.007   7.101   4.941 -0.1549 -0.6303 -0.0278
  681MOL0     C91838   9.138   7.055   4.983  0.0351 -0.2906 -0.0252
  681MOL0     C91839   9.259   7.156   4.983  0.2858 -0.1916 -0.8305
  681MOL0     C91840   9.316   7.185   4.842  1.0317  0.0673  0.1461
  681MOL0     C91841   9.443   7.265   4.835 -0.2342 -0.4354  0.2313
  681MOL0     C91842   9.558   7.218   4.923 -0.5354  0.2858  0.6854
  681MOL0     C91843   9.561   7.292   5.049  0.0169 -0.0662 -0.0087
  681MOL0    Cl91844   9.694   7.240   5.156 -0.0096  0.1105 -0.0284
  681MOL0     C91845   8.565   7.018   4.800  0.2061 -0.8302 -0.1871
  681MOL0     C91846   8.435   6.988   4.843  0.5402 -0.7243 -0.0469
  681MOL0     O91847   8.334   6.735   5.075 -0.1294 -0.1907 -0.1311
  681MOL0     C91848   8.080   6.668   5.144 -0.4298  0.2242 -0.2872
  681MOL0     C91849   7.947   6.641   5.169  0.2449  1.0982  0.1702
  681MOL0     N91850   7.164   6.396   5.086 -0.6349 -0.1556  0.6325
  681MOL0     N91851   7.095   6.289   5.055  0.3624 -0.4078  0.5187
  681MOL0     C91852   6.862   6.393   5.853 -0.6262  0.2872 -0.0637
  681MOL0     C91853   6.742   6.351   5.908 -0.2324  0.1212 -0.2496
  681MOL0     C91854   6.286   6.390   5.966 -0.8521  0.9204  0.0770
  681MOL0     C91855   6.220   6.431   6.082 -0.1839  0.4083  0.3362
  681MOL0     C91856   6.086   6.411   6.109 -0.5582  0.5573 -0.4935
  681MOL0     C91857   6.007   6.357   6.016  0.4671 -0.3392 -0.4856
  681MOL0     O91858   5.869   6.342   6.042 -0.2232  0.1132  0.0281
  681MOL0     C91859   5.790   6.265   5.949  0.1732  0.1567  0.9684
  681MOL0     C91860   5.656   6.235   6.015 -0.0177 -0.4255 -0.0106
  681MOL0     C91861   5.560   6.166   5.916  0.5438 -0.1205  0.5057
  681MOL0     C91862   5.420   6.144   5.972  0.2818 -0.7537 -0.1900
  681MOL0     C91863   5.338   6.111   5.860 -0.0607 -0.5225 -0.0760
  681MOL0     C91864   5.257   6.090   5.777  0.3605 -0.1305  0.0247
  681MOL0     C91865   6.062   6.322   5.895  0.0921 -0.0646 -0.1872
  681MOL0     C91866   6.202   6.348   5.859  0.8986 -0.1244 -0.8233
  681MOL0     C91867   6.257   6.300   5.728  1.4615  0.3604 -0.5640
  681MOL0     H91868   6.527   6.426   5.658 -0.0142  1.0715  0.4714
  681MOL0     H91869   6.745   6.483   5.547 -1.5745 -0.2334 -0.5337
  681MOL0     H91870   6.974   6.463   5.472  1.4852 -1.2312 -1.4074
  681MOL0     H91871   7.128   6.477   5.559 -1.0008  1.0359 -0.5367
  681MOL0     H91872   7.095   6.224   5.633  0.0158 -0.3766  0.1999
  681MOL0     H91873   7.126   6.259   5.457  0.7992 -2.9307  1.1983
  681MOL0     H91874   6.894   6.227   5.407 -0.4153 -2.8595 -1.4752
  681MOL0     H91875   6.855   6.224   5.578 -2.0677 -1.1330 -0.7958
  681MOL0     H91876   7.001   6.008   5.594 -0.1339 -2.0318 -0.7277
  681MOL0     H91877   6.861   5.983   5.485  0.6674 -1.5385  0.4288
  681MOL0     H91878   7.145   6.046   5.410 -0.0694 -0.8211 -0.3522
  681MOL0     H91879   7.070   5.888   5.412 -1.9357  0.3365  2.2903
  681MOL0     H91880   6.907   5.965   5.236 -1.2540  3.2567  1.4088
  681MOL0     H91881   6.986   6.116   5.227 -1.6274 -0.5261 -0.7185
  681MOL0     H91882   7.074   5.862   5.109 -0.5489 -0.7093 -1.4533
  681MOL0     H91883   7.209   5.934   5.199  0.3999  1.1887 -0.1978
  681MOL0     H91884   7.196   6.000   4.950  2.3786  0.4712  2.1760
  681MOL0     H91885   7.034   6.064   4.978  0.0466 -2.4843 -1.6557
  681MOL0     H91886   7.402   6.169   5.088 -0.2435  0.1757 -3.4016
  681MOL0     H91887   7.508   6.406   5.108 -0.2005  1.7392  1.1122
  681MOL0     H91888   7.403   6.511   5.020 -0.9429 -0.8768  0.3729
  681MOL0     H91889   7.305   6.577   5.260 -1.3189  0.3094 -2.6568
  681MOL0     H91890   7.426   6.473   5.325  1.6561 -0.6557 -0.6585
  681MOL0     H91891   7.496   6.712   5.338 -0.5860  1.9966 -1.2907
  681MOL0     H91892   7.473   6.729   5.163  0.5081 -0.6745 -0.7182
  681MOL0     H91893   7.660   6.560   5.128  1.1725  0.4110  0.0255
  681MOL0     H91894   7.682   6.559   5.306 -0.7778 -1.7482 -0.1428
  681MOL0     H91895   7.843   6.971   5.164  0.6308  0.4800 -2.0946
  681MOL0     H91896   8.056   7.007   5.107  0.9929 -0.1107 -0.7930
  681MOL0     H91897   8.484   7.028   5.180  1.3314  1.7375  0.3722
  681MOL0     H91898   8.719   7.064   5.104  0.2391 -2.7149 -0.4205
  681MOL0     H91899   8.895   6.931   4.987  0.6864  0.5303  0.9795
  681MOL0     H91900   8.941   6.927   4.821 -1.2877 -0.1671 -0.7563
  681MOL0     H91901   9.034   7.173   4.863  0.1382  0.6699  1.2347
  681MOL0     H91902   8.966   7.161   5.023 -0.2193 -0.0582 -0.4680
  681MOL0     H91903   9.116   7.020   5.084  1.6215  0.3581  0.5811
  681MOL0     H91904   9.158   6.971   4.915  0.0020  0.1473 -0.5870
  681MOL0     H91905   9.338   7.109   5.041 -0.8757 -2.9906 -1.3383
  681MOL0     H91906   9.228   7.250   5.029  1.1180 -1.8138  3.4945
  681MOL0     H91907   9.244   7.249   4.790 -1.6904 -2.0684  1.0841
  681MOL0     H91908   9.325   7.088   4.792  1.0095 -0.2519  0.7525
  681MOL0     H91909   9.479   7.255   4.732 -2.1389  4.2617 -1.1514
  681MOL0     H91910   9.423   7.370   4.857 -1.2650  0.1640 -3.0761
  681MOL0     H91911   9.654   7.234   4.874  0.1392 -2.3953  0.9901
  681MOL0     H91912   9.559   7.110   4.940 -0.5454 -0.0382 -1.1307
  681MOL0     H91913   9.572   7.400   5.035 -1.9303  0.1358 -0.1895
  681MOL0     H91914   9.464   7.270   5.093 -0.3474  0.7858 -0.3779
  681MOL0     H91915   8.584   7.035   4.695  1.1704  2.8566  0.4525
  681MOL0     H91916   8.358   6.972   4.769 -1.2013  0.6689  1.3806
  681MOL0     H91917   8.148   6.583   5.135 -1.6197 -0.5628 -2.5095
  681MOL0     H91918   7.922   6.535   5.165  1.5857  0.6092  2.5454
  681MOL0     H91919   6.954   6.377   5.908 -0.1849  1.2393 -0.4986
  681MOL0     H91920   6.749   6.305   6.005  0.2851 -1.8754 -1.1774
  681MOL0     H91921   6.290   6.473   6.154  0.1802  1.0047 -0.3487
  681MOL0     H91922   6.042   6.441   6.204  2.9440  1.7291  0.9224
  681MOL0     H91923   5.840   6.172   5.918  0.4707  1.0727 -1.5271
  681MOL0     H91924   5.778   6.333   5.864 -1.3190  0.6089  1.5097
  681MOL0     H91925   5.611   6.328   6.053  2.5739  1.0290 -0.2576
  681MOL0     H91926   5.678   6.174   6.103 -0.8072 -1.0687 -0.2445
  681MOL0     H91927   5.602   6.067   5.897 -2.0342 -0.9915 -1.0629
  681MOL0     H91928   5.550   6.223   5.824  0.1236 -1.1197 -0.0792
  681MOL0     H91929   5.416   6.062   6.045 -1.3634  0.9571  1.7820
  681MOL0     H91930   5.381   6.232   6.023  0.2869 -2.8652  3.8535
  681MOL0     H91931   5.184   6.092   5.698  0.4786 -3.0067 -0.2550
  681MOL0     H91932   6.008   6.280   5.811  2.8322  1.9946 -3.2372
  681MOL0     H91933   6.338   6.360   5.686  1.5053  0.7016 -0.0089
  681MOL0     H91934   6.296   6.199   5.741  2.7442  1.0572  1.5389
  681MOL0     H91935   6.170   6.303   5.662 -0.1564  1.4834  1.4646
  682MOL0     O91936  11.205   7.367   3.317 -0.2727 -0.5917  1.1085
  682MOL0     C91937  11.126   7.292   3.262  0.2691 -1.0882 -0.0151
  682MOL0     O91938  11.158   7.225   3.153 -0.0494  0.0685  0.3833
  682MOL0     C91939  11.295   7.206   3.122 -0.2931  0.1061 -0.3742
  682MOL0     C91940  11.341   7.231   2.990 -0.5205 -0.5257 -0.4037
  682MOL0     C91941  11.477   7.228   2.958  0.7940  0.5172 -0.5091
  682MOL0     C91942  11.578   7.192   3.052  0.0588 -0.3153  0.9390
  682MOL0     O91943  11.707   7.211   3.013  0.2521  0.3629 -0.0695
  682MOL0     C91944  11.818   7.192   3.111 -0.4078  0.5777  0.3642
  682MOL0     C91945  11.947   7.253   3.068 -0.2256  0.3550 -0.4544
  682MOL0     C91946  11.944   7.396   3.040  0.1103 -0.0905 -0.4919
  682MOL0     C91947  12.063   7.452   2.961 -0.8834 -0.5361 -0.5590
  682MOL0     C91948  12.186   7.453   3.052 -0.4228  0.1351  1.3055
  682MOL0     C91949  12.177   7.539   3.182 -0.4659  0.2958 -0.0455
  682MOL0     C91950  12.176   7.461   3.313  0.0910  0.0677 -0.0676
  682MOL0     C91951  12.210   7.556   3.433  0.1567  0.2537  0.5024
  682MOL0     N91952  12.174   7.479   3.551  0.1568  0.0813 -0.8794
  682MOL0     C91953  12.046   7.470   3.606 -0.9898  0.2701 -0.9450
  682MOL0     C91954  12.058   7.379   3.706 -0.4740  0.1751 -0.0612
  682MOL0     C91955  11.948   7.323   3.799  0.7192  0.0156  0.5621
  682MOL0     C91956  11.968   7.318   3.953  0.7230 -0.2712  0.0157
  682MOL0     C91957  11.858   7.244   4.025 -0.5995 -0.5665  0.5420
  682MOL0     C91958  11.862   7.276   4.170 -0.1974  0.1711  0.1347
  682MOL0     O91959  11.765   7.188   4.235 -0.1429  0.5089 -0.3354
  682MOL0     C91960  11.629   7.222   4.247  0.4515  0.3203 -0.1310
  682MOL0     C91961  11.590   7.351   4.275 -0.2970  0.3842 -0.0229
  682MOL0     C91962  11.454   7.380   4.311 -0.1692  0.6832  0.0026
  682MOL0     C91963  11.356   7.290   4.284  0.6393 -0.1330 -0.3287
  682MOL0     C91964  11.214   7.334   4.293  0.4162  0.8551 -0.3564
  682MOL0     O91965  11.120   7.234   4.247 -0.1965 -0.0105 -0.4198
  682MOL0     C91966  10.985   7.265   4.239 -0.8238 -0.7100  1.0471
  682MOL0     C91967  10.906   7.348   4.320  0.2324 -0.1004 -0.1863
  682MOL0     C91968  10.763   7.335   4.306  0.6172 -0.0627  0.1987
  682MOL0     C91969  10.703   7.272   4.202 -0.7753  0.4733  0.5210
  682MOL0     O91970  10.567   7.293   4.197  0.5471  0.3026 -0.6697
  682MOL0     C91971  10.491   7.240   4.084  0.2110 -0.3417  0.0512
  682MOL0     C91972  10.349   7.290   4.080  0.0287 -0.0178  0.5590
  682MOL0     C91973  10.270   7.219   3.964  0.4968  0.3462  0.3391
  682MOL0     C91974  10.120   7.251   3.975 -0.6464 -0.1766 -0.0230
  682MOL0     C91975  10.032   7.207   3.861 -0.3664 -0.9003 -0.5547
  682MOL0     C91976   9.878   7.257   3.894 -0.6916  0.0987 -0.6536
  682MOL0     C91977   9.788   7.216   3.774 -0.6787  0.0612  0.5446
  682MOL0     C91978   9.643   7.260   3.788  0.9394  0.1100  0.2598
  682MOL0    Cl91979   9.542   7.221   3.642  0.2498 -0.1857  0.0218
  682MOL0     C91980  10.776   7.193   4.125  0.2592  0.4250 -0.3497
  682MOL0     C91981  10.914   7.188   4.145 -0.2914  0.7217  0.0868
  682MOL0     O91982  11.185   7.445   4.329  0.4997 -0.4001 -0.3878
  682MOL0     C91983  11.399   7.156   4.243 -0.1555  0.3602  0.2727
  682MOL0     C91984  11.533   7.121   4.227  0.8274  1.3029 -0.1567
  682MOL0     N91985  12.196   7.336   3.711  0.3480  0.8247  0.3390
  682MOL0     N91986  12.265   7.404   3.626  0.3618  0.0391  0.2715
  682MOL0     C91987  11.527   7.143   3.177  0.1148 -0.5398  0.4339
  682MOL0     C91988  11.390   7.144   3.210 -0.9796  0.4522 -0.1550
  682MOL0     C91989  10.995   7.264   3.323 -0.4045 -0.0162  0.8607
  682MOL0     C91990  10.909   7.165   3.271 -0.2577  0.2814  0.2734
  682MOL0     C91991  10.784   7.140   3.321 -0.9168 -0.1603  0.6772
  682MOL0     C91992  10.724   7.213   3.426 -0.8910  0.1769  0.7305
  682MOL0     O91993  10.598   7.180   3.466  0.5151 -0.6656  0.2742
  682MOL0     C91994  10.536   7.286   3.557 -0.6739  0.3582  0.9553
  682MOL0     C91995  10.385   7.272   3.573 -0.4466 -0.7982 -0.0761
  682MOL0     C91996  10.317   7.327   3.449  0.0504  0.1563 -0.7688
  682MOL0     C91997  10.165   7.297   3.437  0.3797  0.1720 -0.7305
  682MOL0     C91998  10.110   7.347   3.307 -0.9806 -0.0832  1.0149
  682MOL0     C91999  10.079   7.393   3.199 -0.1953  0.6169 -1.4010
  682MOL0     C92000  10.813   7.309   3.484  0.0232  0.2770  0.6141
  682MOL0     C92001  10.944   7.341   3.431 -0.3206  0.3429  0.0579
  682MOL0     C92002  11.013   7.469   3.494  0.2351 -0.4650  0.2439
  682MOL0     H92003  11.264   7.255   2.919 -0.6342  0.8672  0.1617
  682MOL0     H92004  11.504   7.249   2.855 -1.0190  1.8851 -0.7587
  682MOL0     H92005  11.788   7.232   3.208 -2.6407  0.0349 -0.0463
  682MOL0     H92006  11.828   7.084   3.122  0.4162  0.2777 -2.4370
  682MOL0     H92007  11.984   7.197   2.982 -2.8777 -0.1845 -1.3494
  682MOL0     H92008  12.023   7.236   3.144 -2.5400 -0.6184  1.7799
  682MOL0     H92009  11.952   7.447   3.136  0.7200  1.9871 -1.5950
  682MOL0     H92010  11.848   7.420   2.994  0.2875 -0.3660 -1.0161
  682MOL0     H92011  12.081   7.388   2.874 -2.4991 -0.6436 -0.8536
  682MOL0     H92012  12.037   7.553   2.927  0.1182  0.8048  2.3555
  682MOL0     H92013  12.210   7.349   3.077 -3.2794 -1.0042 -0.3448
  682MOL0     H92014  12.266   7.505   2.998 -0.9863 -0.5512 -0.2067
  682MOL0     H92015  12.266   7.603   3.177  0.1309 -0.6132 -1.7717
  682MOL0     H92016  12.094   7.611   3.183 -0.6277  0.1104  0.2218
  682MOL0     H92017  12.239   7.371   3.311  0.0412 -0.1515  2.9031
  682MOL0     H92018  12.074   7.429   3.339  0.5828 -0.5001  1.2852
  682MOL0     H92019  12.317   7.578   3.434  0.4021 -0.8796  0.2477
  682MOL0     H92020  12.150   7.647   3.425 -0.0327  0.2240  1.4230
  682MOL0     H92021  11.966   7.535   3.573 -0.9619  1.1253  0.5855
  682MOL0     H92022  11.857   7.382   3.785 -0.6559 -1.9402  0.7658
  682MOL0     H92023  11.932   7.223   3.756  1.4905 -0.5014  1.4457
  682MOL0     H92024  12.061   7.266   3.976  1.0555  1.0834  2.0228
  682MOL0     H92025  11.969   7.423   3.985 -2.9358  0.5097 -1.8038
  682MOL0     H92026  11.867   7.136   4.006 -0.4107 -0.2039 -1.6503
  682MOL0     H92027  11.762   7.282   3.988 -0.5322  0.9187  1.8120
  682MOL0     H92028  11.842   7.382   4.184 -0.9184 -0.0584  0.9919
  682MOL0     H92029  11.966   7.259   4.199  1.0720  1.0059 -3.4528
  682MOL0     H92030  11.659   7.434   4.286 -0.3398  0.2315  1.8277
  682MOL0     H92031  11.427   7.482   4.336  0.8578  0.5814  1.6741
  682MOL0     H92032  10.954   7.406   4.398 -1.0279  2.0222 -0.9209
  682MOL0     H92033  10.704   7.386   4.382  1.2680 -2.6228  2.6036
  682MOL0     H92034  10.537   7.258   3.987 -0.2848  0.1490 -0.1023
  682MOL0     H92035  10.483   7.132   4.095 -3.3275 -0.3548 -1.2533
  682MOL0     H92036  10.305   7.263   4.177  0.2948  2.1103  1.3089
  682MOL0     H92037  10.350   7.397   4.061 -1.2414 -0.1523 -0.4287
  682MOL0     H92038  10.294   7.242   3.860 -1.8641 -0.4171 -0.4301
  682MOL0     H92039  10.280   7.110   3.971 -0.4095 -0.0446 -2.8587
  682MOL0     H92040  10.103   7.359   3.979 -1.6688 -0.2904 -0.7271
  682MOL0     H92041  10.092   7.200   4.068  1.4637  1.9178  1.8782
  682MOL0     H92042  10.033   7.098   3.856  1.2706 -0.8827 -1.3795
  682MOL0     H92043  10.074   7.235   3.764 -0.9013 -1.0498 -0.8308
  682MOL0     H92044   9.834   7.224   3.988  2.9246 -2.3266  0.3962
  682MOL0     H92045   9.885   7.366   3.894 -0.6574  0.0970 -0.7816
  682MOL0     H92046   9.796   7.106   3.776 -0.0036  0.1088  1.6776
  682MOL0     H92047   9.828   7.263   3.685  1.6542  1.6023  2.2887
  682MOL0     H92048   9.598   7.208   3.873  0.4401 -0.3027 -0.2484
  682MOL0     H92049   9.638   7.367   3.807  0.8790 -0.0477  1.1641
  682MOL0     H92050  10.740   7.139   4.038  0.2701 -1.6004  0.8374
  682MOL0     H92051  10.968   7.117   4.084 -0.1951  0.9405 -0.0796
  682MOL0     H92052  11.330   7.076   4.217  2.2938 -1.4899 -0.9734
  682MOL0     H92053  11.558   7.018   4.205  3.1025  1.8898 -0.6109
  682MOL0     H92054  11.592   7.097   3.251  0.6973 -0.3440  0.0598
  682MOL0     H92055  11.365   7.095   3.304  1.1576 -1.6975 -0.5959
  682MOL0     H92056  10.916   7.101   3.183 -1.1191 -1.8038  1.6690
  682MOL0     H92057  10.726   7.063   3.270  0.2501 -1.0570  0.6624
  682MOL0     H92058  10.564   7.386   3.522  2.8238 -1.2943 -1.5708
  682MOL0     H92059  10.578   7.265   3.656  0.9272 -1.0674  0.0264
  682MOL0     H92060  10.354   7.338   3.655 -1.0830 -0.1882 -0.7908
  682MOL0     H92061  10.355   7.168   3.584 -2.3430 -0.1633  1.5163
  682MOL0     H92062  10.385   7.295   3.369  4.4561  2.9739  1.4188
  682MOL0     H92063  10.326   7.436   3.452 -2.5345  0.4002  1.2177
  682MOL0     H92064  10.162   7.187   3.434  3.1169  0.0034  0.4106
  682MOL0     H92065  10.107   7.332   3.523  1.3142  2.1730 -0.8630
  682MOL0     H92066  10.038   7.434   3.110 -4.1517  1.0707  0.4258
  682MOL0     H92067  10.782   7.383   3.557  0.1060  2.9438 -1.8753
  682MOL0     H92068  10.942   7.536   3.544  2.3706  0.8035  1.6975
  682MOL0     H92069  11.086   7.443   3.571  1.7034  1.9352 -0.2525
  682MOL0     H92070  11.059   7.540   3.425  2.3484 -0.4517  1.5838
  683MOL0     O92071   8.909   9.227   5.090  0.0621 -0.3093  0.8125
  683MOL0     C92072   8.813   9.206   5.015 -0.1712 -0.2449  0.6392
  683MOL0     O92073   8.825   9.181   4.885  0.5101 -0.7260 -0.0840
  683MOL0     C92074   8.953   9.179   4.834 -0.7421  0.3548  0.2864
  683MOL0     C92075   9.024   9.061   4.808 -0.0496  0.6962  0.6448
  683MOL0     C92076   9.157   9.058   4.750  0.8667 -0.4214  0.3661
  683MOL0     C92077   9.225   9.178   4.720 -0.4910 -0.7294  0.5720
  683MOL0     O92078   9.352   9.192   4.664 -0.0750  0.3286 -0.0484
  683MOL0     C92079   9.406   9.082   4.594 -0.7805 -0.4581 -0.2864
  683MOL0     C92080   9.533   9.116   4.507  0.2232 -0.0467  0.2907
  683MOL0     C92081   9.610   8.982   4.472  0.0554  0.1922 -0.0966
  683MOL0     C92082   9.736   9.026   4.387  0.6799  0.1985 -0.4379
  683MOL0     C92083   9.867   8.938   4.419 -0.1711  0.3480  0.0323
  683MOL0     C92084   9.966   8.913   4.301  0.5053  0.4383 -0.7409
  683MOL0     C92085  10.021   9.045   4.255  0.7662 -0.3515  0.9363
  683MOL0     C92086  10.160   9.031   4.193  0.6977  0.7533 -0.1220
  683MOL0     N92087  10.201   9.157   4.131 -0.3453  0.4610  0.1461
  683MOL0     C92088  10.193   9.177   3.991  0.4696 -0.1019 -0.4314
  683MOL0     C92089  10.249   9.301   3.977  0.1014 -0.6984 -0.5338
  683MOL0     C92090  10.257   9.386   3.854 -0.5198 -0.0284  0.2236
  683MOL0     C92091  10.395   9.390   3.793  0.4428  0.3971 -0.2245
  683MOL0     C92092  10.422   9.271   3.698  0.8217  0.5511  1.0889
  683MOL0     C92093  10.569   9.239   3.674 -0.6439 -0.7358  0.9247
  683MOL0     O92094  10.575   9.125   3.582 -0.9807 -0.1812  0.7635
  683MOL0     C92095  10.689   9.126   3.517 -0.4452 -0.3265 -0.4334
  683MOL0     C92096  10.801   9.066   3.568  0.5092  0.6126 -1.4352
  683MOL0     C92097  10.915   9.064   3.495 -0.4205  0.2191  0.2547
  683MOL0     C92098  10.930   9.124   3.376 -0.3498 -0.3919  0.5456
  683MOL0     C92099  11.061   9.137   3.312 -0.0673 -0.5789  1.3460
  683MOL0     O92100  11.169   9.077   3.374  1.2074 -0.3109 -0.2506
  683MOL0     C92101  11.298   9.110   3.340  0.0425 -0.2672  0.1822
  683MOL0     C92102  11.343   9.143   3.217  0.1767 -0.6680 -0.1253
  683MOL0     C92103  11.471   9.174   3.193 -0.5185 -1.1330 -0.0990
  683MOL0     C92104  11.560   9.190   3.293  0.4357  0.2502 -0.4059
  683MOL0     O92105  11.692   9.232   3.287 -0.5412 -0.2041  0.1519
  683MOL0     C92106  11.729   9.312   3.170  0.4524 -0.5035 -0.3676
  683MOL0     C92107  11.880   9.297   3.151  0.3299 -0.0578 -0.7811
  683MOL0     C92108  11.938   9.365   3.023 -0.5612  0.5140  0.0713
  683MOL0     C92109  12.100   9.364   3.030  0.5734  0.4648 -0.4077
  683MOL0     C92110  12.149   9.509   3.031  0.3863  0.2292  0.2487
  683MOL0     C92111  12.304   9.505   3.023 -0.8085  0.8718 -0.6750
  683MOL0     C92112  12.372   9.624   3.088  0.5624 -0.2124 -0.0934
  683MOL0     C92113  12.523   9.617   3.112  1.3210 -0.1034 -0.5295
  683MOL0    Cl92114  12.580   9.474   3.192 -0.4177  0.2375 -0.0719
  683MOL0     C92115  11.528   9.148   3.417  0.1447 -0.1889 -0.0516
  683MOL0     C92116  11.390   9.109   3.446  0.1065  0.7081 -0.7744
  683MOL0     O92117  11.072   9.215   3.218  0.3300 -0.2495  0.2943
  683MOL0     C92118  10.821   9.181   3.318  0.3851 -1.1547  0.2268
  683MOL0     C92119  10.699   9.190   3.390 -0.4056  0.2208  0.1139
  683MOL0     N92120  10.290   9.352   4.100 -0.4632 -0.1613 -0.1692
  683MOL0     N92121  10.270   9.260   4.188  0.4677 -0.4491  0.2518
  683MOL0     C92122   9.155   9.298   4.752 -0.3466 -0.4546  0.7015
  683MOL0     C92123   9.015   9.300   4.809 -0.7787 -0.8272  0.4788
  683MOL0     C92124   8.675   9.211   5.069 -0.4575 -0.7264  0.3373
  683MOL0     C92125   8.575   9.141   4.999 -0.3481  0.3217 -0.3999
  683MOL0     C92126   8.436   9.150   5.040 -0.1787 -0.5739 -0.1402
  683MOL0     C92127   8.397   9.230   5.147 -0.4381 -0.5992  0.4768
  683MOL0     O92128   8.267   9.265   5.186 -0.7760 -0.3673 -0.8901
  683MOL0     C92129   8.158   9.183   5.157 -0.1561 -0.4496 -0.1614
  683MOL0     C92130   8.093   9.208   5.019 -0.1479  0.1411 -0.4382
  683MOL0     C92131   7.942   9.209   5.032  0.1608  0.1227 -0.6278
  683MOL0     C92132   7.875   9.070   5.050 -0.3073  0.0071 -0.3882
  683MOL0     C92133   7.726   9.091   5.054 -0.0276 -0.5423  0.1677
  683MOL0     C92134   7.610   9.117   5.062  0.4843  0.2036 -0.0846
  683MOL0     C92135   8.497   9.312   5.203  0.0347 -0.4042 -0.5042
  683MOL0     C92136   8.635   9.305   5.170  0.0340 -0.1478  0.7432
  683MOL0     C92137   8.729   9.394   5.248  0.0087  0.0011  0.4118
  683MOL0     H92138   8.974   8.966   4.826 -2.2260  1.9766  1.6976
  683MOL0     H92139   9.207   8.962   4.737  0.7299 -0.1603 -3.1945
  683MOL0     H92140   9.408   8.989   4.651  0.3749 -0.9784 -1.1378
  683MOL0     H92141   9.331   9.057   4.518 -0.3708  1.9156 -1.5763
  683MOL0     H92142   9.602   9.183   4.560 -1.5347  2.4788 -0.4420
  683MOL0     H92143   9.512   9.179   4.420  1.4026 -0.7622 -0.5489
  683MOL0     H92144   9.553   8.906   4.420  1.1247 -1.6477  1.3005
  683MOL0     H92145   9.652   8.945   4.566  0.7912 -0.6911 -0.7537
  683MOL0     H92146   9.720   9.023   4.279 -1.4530  0.9602 -0.1902
  683MOL0     H92147   9.754   9.132   4.405 -1.6298  0.5416  0.1981
  683MOL0     H92148   9.927   8.986   4.498  0.2614  3.5262 -2.0214
  683MOL0     H92149   9.835   8.847   4.469 -1.9941  1.2674  0.6092
  683MOL0     H92150  10.052   8.851   4.328  0.1495  0.4569  0.4842
  683MOL0     H92151   9.912   8.871   4.216 -0.6567  1.6722 -0.6486
  683MOL0     H92152  10.025   9.120   4.335  0.8828 -0.1395  0.7328
  683MOL0     H92153   9.953   9.088   4.180 -0.7683 -2.6873  0.8951
  683MOL0     H92154  10.232   8.988   4.264  0.4019 -1.7391 -1.2622
  683MOL0     H92155  10.160   8.962   4.108 -0.7514 -1.4968  1.5971
  683MOL0     H92156  10.161   9.105   3.917  0.3496 -1.3461  0.7760
  683MOL0     H92157  10.192   9.340   3.779 -2.0580  0.2323  1.3230
  683MOL0     H92158  10.224   9.489   3.876 -0.7990  0.1015 -0.7701
  683MOL0     H92159  10.383   9.483   3.737 -3.2596  0.1573 -0.0465
  683MOL0     H92160  10.464   9.409   3.876 -1.1713  1.6947  0.9016
  683MOL0     H92161  10.363   9.277   3.607  0.6145 -1.7026  1.0219
  683MOL0     H92162  10.379   9.182   3.744  1.0300  0.1297  0.4793
  683MOL0     H92163  10.618   9.218   3.770  1.6808  1.0947  0.2639
  683MOL0     H92164  10.619   9.331   3.640  0.8358 -1.5027  0.9578
  683MOL0     H92165  10.805   9.021   3.666 -2.9125 -0.4591 -1.6519
  683MOL0     H92166  11.005   9.018   3.533  0.2862  0.5585 -0.9563
  683MOL0     H92167  11.274   9.125   3.135 -1.4898 -3.4348  1.6801
  683MOL0     H92168  11.498   9.183   3.088 -0.9004  0.3623 -0.0922
  683MOL0     H92169  11.677   9.278   3.080  1.6261  1.5382 -1.8878
  683MOL0     H92170  11.705   9.418   3.187  1.0940 -0.2992 -0.7171
  683MOL0     H92171  11.929   9.336   3.241 -1.7173 -1.1855  0.9113
  683MOL0     H92172  11.904   9.191   3.145  1.7560  0.2768 -1.7089
  683MOL0     H92173  11.906   9.307   2.936 -0.3449 -0.2330  0.4847
  683MOL0     H92174  11.901   9.468   3.021  2.2360  1.5910 -0.6993
  683MOL0     H92175  12.139   9.317   2.939  0.3711  3.0767 -1.9431
  683MOL0     H92176  12.132   9.295   3.109  0.1928 -0.8117 -1.3231
  683MOL0     H92177  12.099   9.555   3.116 -1.8736 -0.0262 -0.8532
  683MOL0     H92178  12.110   9.567   2.947 -0.3250 -0.2639  0.2270
  683MOL0     H92179  12.334   9.420   3.085 -0.2462  1.0351 -0.7187
  683MOL0     H92180  12.342   9.497   2.921 -1.5804 -0.2462 -0.8893
  683MOL0     H92181  12.328   9.645   3.186 -1.6454 -2.0912 -0.6065
  683MOL0     H92182  12.358   9.715   3.029  1.7972 -1.2769 -2.1268
  683MOL0     H92183  12.568   9.621   3.012 -0.7011 -3.0569 -1.6989
  683MOL0     H92184  12.563   9.703   3.168  0.9717 -0.9493  1.0792
  683MOL0     H92185  11.608   9.135   3.489  0.6348  0.4829 -0.4571
  683MOL0     H92186  11.370   9.075   3.547  1.5746  0.2680 -0.5984
  683MOL0     H92187  10.828   9.239   3.226 -2.4875  2.1024  1.8218
  683MOL0     H92188  10.616   9.247   3.350 -1.4676  0.2155  2.1734
  683MOL0     H92189   9.220   9.385   4.751  0.9637 -1.2841 -3.2262
  683MOL0     H92190   8.967   9.396   4.824  3.0463  1.6893 -1.5120
  683MOL0     H92191   8.598   9.077   4.914 -0.5513  0.4366 -0.5423
  683MOL0     H92192   8.357   9.101   4.984 -0.0601 -0.4564 -0.4092
  683MOL0     H92193   8.096   9.208   5.244  2.1156  2.7467  0.7603
  683MOL0     H92194   8.191   9.079   5.168  0.8831 -0.0603  0.6691
  683MOL0     H92195   8.136   9.138   4.947 -2.8108 -0.7909 -1.2593
  683MOL0     H92196   8.125   9.308   4.990 -0.5432  1.4946  3.1748
  683MOL0     H92197   7.890   9.258   4.949 -4.4180 -0.1118  1.7719
  683MOL0     H92198   7.914   9.271   5.118  0.0476 -0.9589  0.1424
  683MOL0     H92199   7.897   9.010   4.961  0.3068  0.2916 -0.4397
  683MOL0     H92200   7.906   9.014   5.138  4.3513  0.4405 -1.4454
  683MOL0     H92201   7.507   9.144   5.064 -0.2668 -2.3642 -0.2643
  683MOL0     H92202   8.454   9.389   5.266  1.1433  1.6017 -2.0540
  683MOL0     H92203   8.807   9.336   5.298  0.1122  1.0643  1.5404
  683MOL0     H92204   8.773   9.469   5.181 -1.1939 -1.3111 -1.9643
  683MOL0     H92205   8.669   9.442   5.326 -1.1861  1.4055 -1.2899
  684MOL0     O92206  10.643   4.964   5.273 -0.4426 -0.4539  0.3619
  684MOL0     C92207  10.595   4.862   5.322  0.8427  0.5499  0.4702
  684MOL0     O92208  10.660   4.765   5.384 -0.6948  0.4280  0.1206
  684MOL0     C92209  10.803   4.753   5.389 -0.2599  0.1692  0.3783
  684MOL0     C92210  10.843   4.623   5.405  1.2258 -0.0928 -0.0963
  684MOL0     C92211  10.985   4.591   5.412  0.8794  0.7950  0.7490
  684MOL0     C92212  11.079   4.696   5.385  0.2200 -0.5724 -0.3472
  684MOL0     O92213  11.216   4.677   5.368  0.3683  0.2576 -0.0598
  684MOL0     C92214  11.277   4.550   5.384 -0.1912  0.6063 -0.2206
  684MOL0     C92215  11.431   4.567   5.375  0.6466 -0.0560  0.7909
  684MOL0     C92216  11.473   4.612   5.510 -0.3004 -0.0650 -0.3381
  684MOL0     C92217  11.624   4.614   5.510  0.1480  0.3333  0.0567
  684MOL0     C92218  11.681   4.654   5.647 -0.4503 -0.5306 -0.2586
  684MOL0     C92219  11.836   4.640   5.654 -0.2553 -0.4616 -0.2876
  684MOL0     C92220  11.888   4.677   5.798  0.7387 -0.0986  0.3562
  684MOL0     C92221  11.914   4.830   5.804  0.8438 -0.0479  0.5029
  684MOL0     N92222  12.005   4.872   5.909 -0.9013  0.3074  0.3169
  684MOL0     C92223  12.081   4.788   5.992 -0.2908 -0.7466  0.5211
  684MOL0     C92224  12.153   4.876   6.061  0.2675  1.0069 -0.4308
  684MOL0     C92225  12.251   4.830   6.165 -0.3125  0.4919  0.1099
  684MOL0     C92226  12.345   4.940   6.214 -1.0691  0.5132  0.4881
  684MOL0     C92227  12.437   4.983   6.092 -0.0451 -0.4437 -0.3341
  684MOL0     C92228  12.552   5.060   6.145 -0.3940 -1.0914  0.0595
  684MOL0     O92229  12.634   5.070   6.028  0.1950  0.0275  0.1216
  684MOL0     C92230  12.759   5.119   6.049  0.0462  0.3278  0.1554
  684MOL0     C92231  12.830   5.122   6.168  1.3321 -0.0030 -0.0317
  684MOL0     C92232  12.962   5.155   6.177  0.1301  0.0356  0.6534
  684MOL0     C92233  13.033   5.197   6.060 -0.3852  1.0510 -0.2854
  684MOL0     C92234  13.180   5.227   6.060  0.7960  0.0498  0.4051
  684MOL0     O92235  13.220   5.274   5.936 -0.2605 -0.4869 -0.1045
  684MOL0     C92236  13.347   5.336   5.921  0.0310 -0.0549  0.6218
  684MOL0     C92237  13.466   5.264   5.940  0.1120 -0.4894  0.0862
  684MOL0     C92238  13.587   5.324   5.907 -0.6453 -0.5731  0.3734
  684MOL0     C92239  13.590   5.460   5.863  0.3604 -0.0140 -0.0518
  684MOL0     O92240  13.707   5.530   5.848  0.1415 -0.3002 -0.2336
  684MOL0     C92241  13.737   5.546   5.711  0.1070 -0.6207  0.6547
  684MOL0     C92242  13.879   5.610   5.687 -0.0663  0.4938  0.7749
  684MOL0     C92243  13.992   5.504   5.717  0.3403 -0.1350  0.9561
  684MOL0     C92244  14.126   5.553   5.655 -0.5516  0.8390  0.0521
  684MOL0     C92245  14.225   5.439   5.629 -0.0871 -0.4059  0.3081
  684MOL0     C92246  14.221   5.309   5.725  0.4480 -0.2514  0.7969
  684MOL0     C92247  14.263   5.334   5.872 -0.5336 -0.0256 -0.7912
  684MOL0     C92248  14.294   5.211   5.954  0.2367  0.4479 -0.3669
  684MOL0    Cl92249  14.431   5.135   5.866 -0.0312  0.0584  0.1594
  684MOL0     C92250  13.473   5.528   5.845  0.2425 -0.6184  0.0972
  684MOL0     C92251  13.355   5.465   5.876  1.0920 -0.2758 -0.1053
  684MOL0     O92252  13.244   5.218   6.161 -0.1426  0.0580  0.9182
  684MOL0     C92253  12.964   5.188   5.940 -0.7314 -0.5182  0.3873
  684MOL0     C92254  12.832   5.154   5.937  0.3921 -0.1638 -0.1380
  684MOL0     N92255  12.112   5.004   6.030 -0.2124  0.1137  0.0836
  684MOL0     N92256  12.022   4.999   5.936 -0.1045 -0.3531  0.0534
  684MOL0     C92257  11.038   4.832   5.377 -0.3391  1.1179 -0.3450
  684MOL0     C92258  10.900   4.855   5.375  0.2272  0.1927  0.2820
  684MOL0     C92259  10.442   4.844   5.329  0.3947 -0.2473  0.1158
  684MOL0     C92260  10.369   4.961   5.318 -0.1732 -0.9186  0.3231
  684MOL0     C92261  10.238   4.966   5.296 -0.3829  0.5311  0.0080
  684MOL0     C92262  10.160   4.847   5.300  0.1302 -0.5204  0.9053
  684MOL0     O92263  10.031   4.860   5.274  0.7109 -0.5351  0.3751
  684MOL0     C92264   9.932   4.763   5.320  0.1431  0.3867  0.1533
  684MOL0     C92265   9.921   4.759   5.475  0.7760  0.0924  0.7760
  684MOL0     C92266   9.849   4.894   5.514 -1.0163  0.2067  0.5209
  684MOL0     C92267   9.812   4.897   5.656  0.3744  0.1333  0.1583
  684MOL0     C92268   9.739   5.020   5.699 -0.6590  0.1009  0.3282
  684MOL0     C92269   9.669   5.114   5.725 -0.4796 -0.5605 -0.1202
  684MOL0     C92270  10.228   4.730   5.331 -0.2085 -0.2251 -0.5240
  684MOL0     C92271  10.366   4.724   5.346  0.0784  0.1938 -0.1884
  684MOL0     C92272  10.432   4.596   5.387 -0.0403  0.0649  0.5846
  684MOL0     H92273  10.761   4.552   5.403 -0.5234  1.7905  0.1882
  684MOL0     H92274  10.995   4.484   5.426 -2.0500  0.1448 -1.0670
  684MOL0     H92275  11.249   4.500   5.477 -0.0931 -3.0847 -2.0279
  684MOL0     H92276  11.246   4.488   5.300  0.4557  0.5358 -0.4087
  684MOL0     H92277  11.451   4.652   5.308  0.0757 -1.1986 -0.8994
  684MOL0     H92278  11.474   4.477   5.331 -0.7450  0.2799 -1.4220
  684MOL0     H92279  11.440   4.535   5.581 -2.4190  1.0709 -0.0047
  684MOL0     H92280  11.421   4.706   5.531  0.0806  0.1396 -0.3041
  684MOL0     H92281  11.659   4.517   5.472 -0.8522  0.4940 -1.3402
  684MOL0     H92282  11.663   4.687   5.438  0.4560  3.4141  3.0926
  684MOL0     H92283  11.656   4.760   5.653  0.6603  0.0259 -3.3424
  684MOL0     H92284  11.646   4.591   5.729  0.2633  0.3626  0.7556
  684MOL0     H92285  11.858   4.536   5.625 -2.4835 -0.8426 -0.8174
  684MOL0     H92286  11.888   4.700   5.579 -0.1368 -1.5709 -1.1321
  684MOL0     H92287  11.982   4.623   5.811  1.4701  1.1883  0.6204
  684MOL0     H92288  11.823   4.629   5.871  1.4501 -2.5052 -0.4994
  684MOL0     H92289  11.950   4.885   5.716 -0.6277 -0.4578 -0.3800
  684MOL0     H92290  11.823   4.887   5.823 -0.3673 -2.5298  2.6650
  684MOL0     H92291  12.103   4.682   5.989 -0.2848 -0.7735  1.3768
  684MOL0     H92292  12.195   4.785   6.248  0.1730 -2.6573 -1.1417
  684MOL0     H92293  12.316   4.751   6.127 -1.6906 -1.0098  0.7709
  684MOL0     H92294  12.300   5.025   6.264 -1.7514  1.3061 -1.3757
  684MOL0     H92295  12.406   4.907   6.299 -2.1400  2.0809  1.9125
  684MOL0     H92296  12.393   5.049   6.017 -0.7245 -0.8105 -0.2689
  684MOL0     H92297  12.480   4.894   6.045  0.8118  0.0905 -0.6009
  684MOL0     H92298  12.601   5.011   6.230 -0.2804 -1.5005 -0.2381
  684MOL0     H92299  12.513   5.155   6.183 -0.2286 -1.1167  0.2936
  684MOL0     H92300  12.786   5.097   6.264 -0.6280  2.2705 -0.2316
  684MOL0     H92301  13.015   5.149   6.271 -1.4515 -1.4296  1.5110
  684MOL0     H92302  13.460   5.160   5.969 -0.7278 -1.3730 -2.9254
  684MOL0     H92303  13.673   5.263   5.932  0.5239  0.9592  0.1818
  684MOL0     H92304  13.744   5.449   5.662 -0.7525 -0.0511 -0.6379
  684MOL0     H92305  13.662   5.602   5.655  0.2788 -1.9564 -1.0037
  684MOL0     H92306  13.876   5.661   5.591 -4.4252  0.0253  0.4440
  684MOL0     H92307  13.885   5.696   5.754 -2.6387  0.9461  0.5367
  684MOL0     H92308  14.005   5.493   5.826  0.7392 -1.2447  0.8074
  684MOL0     H92309  13.960   5.409   5.675 -0.1997  0.3225  0.3103
  684MOL0     H92310  14.160   5.614   5.739 -2.3178  2.0432 -0.0551
  684MOL0     H92311  14.113   5.607   5.561 -1.3933 -1.6070 -1.3105
  684MOL0     H92312  14.328   5.474   5.619 -0.3267 -0.2776 -2.3409
  684MOL0     H92313  14.207   5.405   5.527  0.5492 -2.0858  0.7193
  684MOL0     H92314  14.122   5.262   5.731  0.5435 -0.2723  2.7440
  684MOL0     H92315  14.289   5.235   5.680 -0.5387  0.0086 -1.2458
  684MOL0     H92316  14.183   5.388   5.925  1.2988  1.3728  0.6737
  684MOL0     H92317  14.352   5.396   5.881  1.3012 -2.8160  1.9638
  684MOL0     H92318  14.325   5.245   6.054  1.9771  0.8322 -1.0058
  684MOL0     H92319  14.207   5.147   5.967  1.9320 -2.0099 -0.4174
  684MOL0     H92320  13.465   5.631   5.811  0.6255 -1.1744 -1.7740
  684MOL0     H92321  13.259   5.516   5.880  1.5829  0.5823  2.1717
  684MOL0     H92322  13.024   5.192   5.850 -0.1950 -0.0134  0.7614
  684MOL0     H92323  12.790   5.133   5.839 -0.5294 -2.7262  0.7099
  684MOL0     H92324  11.117   4.906   5.366  2.7659 -2.0271 -0.7574
  684MOL0     H92325  10.864   4.954   5.350 -1.4245 -0.2055  0.9542
  684MOL0     H92326  10.420   5.057   5.313 -1.2517 -0.3078  0.7035
  684MOL0     H92327  10.188   5.060   5.277 -3.6905 -1.3409 -1.5541
  684MOL0     H92328   9.960   4.659   5.301 -1.1902  0.1392 -0.6066
  684MOL0     H92329   9.836   4.773   5.268  0.7633 -0.4584 -1.2176
  684MOL0     H92330  10.022   4.749   5.515  1.3177  0.6891 -0.3893
  684MOL0     H92331   9.863   4.671   5.505 -0.1957  0.2085 -0.6383
  684MOL0     H92332   9.760   4.905   5.452  0.7124 -2.0085 -2.6203
  684MOL0     H92333   9.916   4.978   5.493 -0.3579 -0.7404 -1.4033
  684MOL0     H92334   9.740   4.816   5.677 -0.4690  1.1641  1.4105
  684MOL0     H92335   9.900   4.876   5.718  1.0331  0.0964 -0.7743
  684MOL0     H92336   9.596   5.184   5.761 -0.4171 -0.1386 -0.7940
  684MOL0     H92337  10.176   4.638   5.357 -1.9980  1.2669  1.5419
  684MOL0     H92338  10.484   4.610   5.482  3.4172 -0.3708 -1.0557
  684MOL0     H92339  10.361   4.513   5.378  0.7497 -0.4836 -1.0455
  684MOL0     H92340  10.507   4.574   5.310  1.4530 -0.1605  2.0362
  685MOL0     O92341   6.575  10.655   6.822 -0.4662 -0.6019 -0.1810
  685MOL0     C92342   6.574  10.768   6.770 -0.4238 -0.1269 -0.6053
  685MOL0     O92343   6.677  10.811   6.694 -0.1524 -0.1679 -0.2601
  685MOL0     C92344   6.804  10.742   6.703  0.2160 -0.6123  0.3869
  685MOL0     C92345   6.876  10.729   6.588  0.4919  0.3510  0.5364
  685MOL0     C92346   6.994  10.650   6.583  0.3396 -0.3335  0.9054
  685MOL0     C92347   7.043  10.589   6.694 -0.5010  0.1823 -0.3002
  685MOL0     O92348   7.148  10.511   6.676 -0.2283  0.4997 -0.3875
  685MOL0     C92349   7.241  10.466   6.778  0.0949 -0.8645 -0.5822
  685MOL0     C92350   7.322  10.587   6.816 -0.1573  0.0684  0.1819
  685MOL0     C92351   7.394  10.649   6.693 -0.1095 -0.1738 -0.4619
  685MOL0     C92352   7.472  10.771   6.736 -0.7727  0.1795  0.2559
  685MOL0     C92353   7.580  10.745   6.842 -0.0364 -0.2219 -0.0156
  685MOL0     C92354   7.662  10.869   6.866  0.5658 -0.7257  0.2604
  685MOL0     C92355   7.761  10.867   6.981  0.4208 -0.1491  0.0629
  685MOL0     C92356   7.850  10.743   6.983 -0.4582 -0.3502 -0.2747
  685MOL0     N92357   7.956  10.766   7.082  0.7315  0.1490 -0.0220
  685MOL0     C92358   7.958  10.728   7.214 -0.9776  1.0232 -0.5864
  685MOL0     C92359   8.085  10.746   7.247 -0.0950 -0.1421  0.6710
  685MOL0     C92360   8.135  10.709   7.389  0.1560  0.2760  0.1243
  685MOL0     C92361   8.111  10.824   7.497 -0.8897 -0.2022 -0.3506
  685MOL0     C92362   8.142  10.775   7.644 -0.5790  0.4246  0.9460
  685MOL0     C92363   8.289  10.751   7.667 -0.6173 -0.1238  0.6500
  685MOL0     O92364   8.329  10.847   7.772  0.9227 -0.1330 -0.2743
  685MOL0     C92365   8.451  10.837   7.827  0.2922  0.2915 -0.8762
  685MOL0     C92366   8.476  10.875   7.960 -0.3349  0.0563  0.1144
  685MOL0     C92367   8.605  10.864   8.011 -0.2358 -0.0770  0.3273
  685MOL0     C92368   8.718  10.825   7.933 -0.4162  0.3932 -0.9032
  685MOL0     C92369   8.859  10.815   7.976  0.0990 -0.4550 -0.5818
  685MOL0     O92370   8.952  10.812   7.873 -0.3204  0.3545  0.5097
  685MOL0     C92371   9.083  10.823   7.907  0.0362  0.0867  0.6513
  685MOL0     C92372   9.139  10.949   7.883  0.0968 -0.1251 -0.3093
  685MOL0     C92373   9.274  10.971   7.897 -0.1956  0.1799 -0.0764
  685MOL0     C92374   9.362  10.862   7.937 -0.3490  0.0261  0.8243
  685MOL0     O92375   9.499  10.880   7.953  0.4519 -0.2317 -0.2415
  685MOL0     C92376   9.532  10.979   8.053  0.0705 -0.0100 -0.5845
  685MOL0     C92377   9.603  10.931   8.177 -0.2246 -0.4691  0.2179
  685MOL0     C92378   9.628  11.041   8.275 -1.0168  0.5628  0.0355
  685MOL0     C92379   9.756  11.010   8.355  0.0448 -0.6167 -0.1075
  685MOL0     C92380   9.778  11.129   8.449  0.5163 -0.1477 -0.2240
  685MOL0     C92381   9.919  11.129   8.523  0.1204 -0.3052  0.1520
  685MOL0     C92382   9.922  11.049   8.654 -0.5763 -0.2303 -0.0660
  685MOL0     C92383   9.798  11.041   8.746  0.0255  0.1065  0.4525
  685MOL0    Cl92384   9.858  10.967   8.897  0.3520 -0.3282  0.3132
  685MOL0     C92385   9.295  10.734   7.973 -0.2749  0.2577  0.0930
  685MOL0     C92386   9.161  10.723   7.957  0.0303 -1.2293  0.2947
  685MOL0     O92387   8.886  10.829   8.093  0.1044  0.0820 -0.3611
  685MOL0     C92388   8.687  10.808   7.799 -0.1795  0.4435 -0.0718
  685MOL0     C92389   8.561  10.801   7.748 -0.2307  0.4747 -0.2359
  685MOL0     N92390   8.157  10.801   7.145  0.1374 -0.1325  1.3297
  685MOL0     N92391   8.075  10.814   7.040 -0.2987  0.0327  0.2559
  685MOL0     C92392   6.981  10.606   6.817  0.3275 -0.5861  0.2553
  685MOL0     C92393   6.858  10.684   6.820 -0.6814  0.6689  0.7664
  685MOL0     C92394   6.444  10.841   6.778 -0.0949  0.0813 -0.1435
  685MOL0     C92395   6.433  10.951   6.695 -0.2107  0.3360 -0.6477
  685MOL0     C92396   6.317  11.024   6.684 -0.6126  0.8018 -0.0830
  685MOL0     C92397   6.216  10.997   6.772 -0.0817 -0.4072  0.8862
  685MOL0     O92398   6.089  11.049   6.766 -0.2235  0.4419  0.1816
  685MOL0     C92399   6.066  11.170   6.702 -1.1883 -0.3623  0.6436
  685MOL0     C92400   5.916  11.200   6.682 -0.1690 -0.1506  0.3861
  685MOL0     C92401   5.824  11.174   6.799  0.4124  0.6640 -0.3221
  685MOL0     C92402   5.851  11.263   6.926 -0.5677  0.6532  0.6983
  685MOL0     C92403   5.819  11.400   6.915  0.5259 -0.4155 -0.1431
  685MOL0     C92404   5.791  11.519   6.909  0.3204 -0.1063  0.1531
  685MOL0     C92405   6.226  10.894   6.862 -0.0236  0.6804 -0.3727
  685MOL0     C92406   6.336  10.807   6.863 -0.2342 -1.5323 -0.9986
  685MOL0     C92407   6.338  10.700   6.967  0.8494 -0.6440  0.7700
  685MOL0     H92408   6.826  10.774   6.502 -1.2427  0.3035  1.4673
  685MOL0     H92409   7.035  10.632   6.484 -0.5143  1.5381  0.1586
  685MOL0     H92410   7.194  10.421   6.867 -0.4571 -1.6586 -1.2603
  685MOL0     H92411   7.306  10.388   6.737 -0.6295 -2.2348  0.7530
  685MOL0     H92412   7.392  10.553   6.893 -1.6636 -1.8336  0.7945
  685MOL0     H92413   7.253  10.658   6.860 -0.6923 -0.1931 -0.2258
  685MOL0     H92414   7.332  10.660   6.604  0.4582 -0.4745 -0.9041
  685MOL0     H92415   7.464  10.571   6.660 -1.3895 -1.0776 -1.1202
  685MOL0     H92416   7.515  10.814   6.645 -0.6435  0.0699  0.2655
  685MOL0     H92417   7.406  10.848   6.778 -0.0495  1.4566 -0.8702
  685MOL0     H92418   7.529  10.723   6.936 -0.2014  2.1685  0.5229
  685MOL0     H92419   7.637  10.661   6.801 -1.5743 -1.5657  0.4848
  685MOL0     H92420   7.713  10.906   6.777 -0.4620  2.6875  0.9514
  685MOL0     H92421   7.594  10.949   6.897  0.7335 -0.9682  1.3160
  685MOL0     H92422   7.706  10.869   7.076  0.5839 -0.8315  0.1724
  685MOL0     H92423   7.822  10.958   6.980 -0.0283  0.2860  3.0015
  685MOL0     H92424   7.803  10.647   7.006  2.5531 -1.7317  0.5728
  685MOL0     H92425   7.888  10.736   6.881 -0.9485 -1.6104 -0.3843
  685MOL0     H92426   7.882  10.682   7.277 -0.7118 -1.0305 -1.6759
  685MOL0     H92427   8.080  10.617   7.410 -0.8080  0.1607 -2.5810
  685MOL0     H92428   8.243  10.693   7.388 -0.0468 -1.4192  1.1307
  685MOL0     H92429   8.156  10.917   7.463 -1.3036 -0.0871 -0.5955
  685MOL0     H92430   8.004  10.848   7.501 -0.8194 -0.0232  0.7998
  685MOL0     H92431   8.085  10.683   7.655 -1.0378  0.1478 -2.4983
  685MOL0     H92432   8.099  10.849   7.712 -0.6599  1.4461 -0.1811
  685MOL0     H92433   8.337  10.775   7.572 -0.3025  3.2356  1.5514
  685MOL0     H92434   8.321  10.652   7.701  3.8884  0.3668 -1.4677
  685MOL0     H92435   8.387  10.908   8.013 -2.2102 -2.4383 -1.2444
  685MOL0     H92436   8.617  10.894   8.115  1.2388 -0.3821  0.2719
  685MOL0     H92437   9.071  11.028   7.854 -0.5665 -0.3264  0.6510
  685MOL0     H92438   9.314  11.069   7.872  0.6129  0.2429  1.3395
  685MOL0     H92439   9.586  11.061   8.005  1.0758  0.1645  0.7762
  685MOL0     H92440   9.441  11.024   8.094 -0.8344  0.5939 -3.0632
  685MOL0     H92441   9.538  10.865   8.235 -1.0988  1.0098  0.9767
  685MOL0     H92442   9.694  10.882   8.142  0.7399  0.3120  1.5047
  685MOL0     H92443   9.646  11.136   8.223  1.2856  0.1805  0.0026
  685MOL0     H92444   9.532  11.059   8.325 -1.7062 -2.6375  0.0593
  685MOL0     H92445   9.834  11.004   8.278  1.5922  0.8988  1.2546
  685MOL0     H92446   9.741  10.914   8.404 -2.2721 -0.6224 -0.7345
  685MOL0     H92447   9.696  11.135   8.521  0.0409  2.3731 -0.8706
  685MOL0     H92448   9.764  11.221   8.392  0.1476 -0.9766 -1.5095
  685MOL0     H92449   9.997  11.099   8.452 -0.4310 -2.2411  0.3021
  685MOL0     H92450   9.931  11.232   8.558  0.4430 -0.4947  0.6020
  685MOL0     H92451  10.004  11.075   8.721 -0.7359 -0.0446  0.0569
  685MOL0     H92452   9.948  10.946   8.626 -0.1007 -0.2546  0.4459
  685MOL0     H92453   9.752  11.138   8.767 -1.7470 -0.3293 -1.1891
  685MOL0     H92454   9.724  10.982   8.692 -1.1455  3.0033 -1.3491
  685MOL0     H92455   9.343  10.642   8.006 -0.0745 -0.2270 -1.4417
  685MOL0     H92456   9.119  10.623   7.956 -1.3952 -0.6955 -2.3049
  685MOL0     H92457   8.769  10.793   7.730  1.6786  4.5105  0.9617
  685MOL0     H92458   8.562  10.772   7.643 -1.8845 -1.0743  0.1235
  685MOL0     H92459   7.025  10.564   6.907 -1.0743 -2.8832 -0.0496
  685MOL0     H92460   6.817  10.684   6.921 -1.4461 -0.1631  0.4640
  685MOL0     H92461   6.511  10.988   6.629 -0.5821 -0.3325 -1.4841
  685MOL0     H92462   6.310  11.101   6.607 -3.7374 -1.2969 -2.1945
  685MOL0     H92463   6.108  11.162   6.601  1.0397  0.4326  1.4599
  685MOL0     H92464   6.117  11.248   6.759 -1.1057 -1.1350  1.6353
  685MOL0     H92465   5.882  11.138   6.599  0.3253  2.9659 -2.3649
  685MOL0     H92466   5.901  11.302   6.647 -0.1312 -0.3821 -0.3188
  685MOL0     H92467   5.848  11.072   6.829 -0.3806  0.5234 -0.1356
  685MOL0     H92468   5.717  11.172   6.777  0.5850 -1.5932 -1.2247
  685MOL0     H92469   5.781  11.220   6.999 -0.5313 -2.4790 -0.9507
  685MOL0     H92470   5.954  11.238   6.950 -0.5653 -1.2241 -1.0310
  685MOL0     H92471   5.783  11.625   6.922 -0.1617 -0.2371  0.9987
  685MOL0     H92472   6.131  10.870   6.908  0.8758 -0.9018  0.7348
  685MOL0     H92473   6.325  10.603   6.917 -3.3991 -0.5599  1.3331
  685MOL0     H92474   6.430  10.702   7.026  1.4279 -0.9997 -0.0904
  685MOL0     H92475   6.259  10.711   7.042  0.8687  0.6481  0.6225
  686MOL0     O92476   5.169   3.535   8.676  0.0595 -0.0232  0.7205
  686MOL0     C92477   5.121   3.642   8.715 -0.4196 -0.6157  0.1494
  686MOL0     O92478   5.159   3.771   8.681 -0.4665 -0.1940  0.5295
  686MOL0     C92479   5.268   3.800   8.599  0.0339 -0.3450  0.9555
  686MOL0     C92480   5.242   3.879   8.491 -0.6853 -0.3619 -0.0506
  686MOL0     C92481   5.356   3.911   8.413  0.3563 -0.8976 -0.6559
  686MOL0     C92482   5.487   3.890   8.456  0.2923 -0.3861  0.3916
  686MOL0     O92483   5.580   3.958   8.375  0.1619 -0.1703  0.9265
  686MOL0     C92484   5.710   3.927   8.404  0.1140 -0.4825 -0.3880
  686MOL0     C92485   5.769   4.026   8.506 -0.3516  0.3437  0.8416
  686MOL0     C92486   5.921   3.997   8.526  0.0356 -0.5437  0.2297
  686MOL0     C92487   5.991   4.092   8.620  0.0360  0.8702  0.1583
  686MOL0     C92488   6.130   4.119   8.572  0.7908  0.3413  0.6699
  686MOL0     C92489   6.229   3.996   8.584 -0.6763 -0.9639  0.3340
  686MOL0     C92490   6.361   4.062   8.574 -0.2765  0.7789 -0.4807
  686MOL0     C92491   6.461   3.967   8.511 -0.6249 -0.3651 -0.3348
  686MOL0     N92492   6.600   4.021   8.538 -0.5181 -0.0235 -1.1523
  686MOL0     C92493   6.661   4.136   8.490  1.0111  0.7883  0.1408
  686MOL0     C92494   6.792   4.118   8.517  0.0602 -0.0479  0.3349
  686MOL0     C92495   6.906   4.214   8.506 -0.2479  0.5082  0.2022
  686MOL0     C92496   7.035   4.131   8.488 -0.5106 -0.6221 -0.2637
  686MOL0     C92497   7.156   4.222   8.469  0.5658 -0.5945 -0.0817
  686MOL0     C92498   7.282   4.147   8.510 -0.5888  0.3213  0.5364
  686MOL0     O92499   7.392   4.227   8.462 -0.5239 -1.1743  0.8226
  686MOL0     C92500   7.514   4.196   8.522  0.3545 -0.5007 -0.1827
  686MOL0     C92501   7.632   4.244   8.464 -0.3736 -0.0434 -0.3167
  686MOL0     C92502   7.757   4.234   8.522 -0.4361  1.2297  0.1451
  686MOL0     C92503   7.768   4.158   8.641 -0.8512 -0.4790 -0.0232
  686MOL0     C92504   7.901   4.133   8.703 -0.3284  0.4021  0.5533
  686MOL0     O92505   8.010   4.164   8.625  0.2732  0.4696 -0.5730
  686MOL0     C92506   8.135   4.128   8.681 -0.0527  0.3470  0.3069
  686MOL0     C92507   8.177   4.174   8.804  0.8745  0.5590 -0.5783
  686MOL0     C92508   8.299   4.144   8.856  0.0757  0.1078  0.1327
  686MOL0     C92509   8.388   4.077   8.773  0.0048  0.5806  0.0012
  686MOL0     O92510   8.520   4.053   8.807  0.0561 -0.7121 -0.6001
  686MOL0     C92511   8.559   4.086   8.942  0.6152 -0.1970 -0.3500
  686MOL0     C92512   8.703   4.030   8.963  0.1504 -0.0702 -0.7906
  686MOL0     C92513   8.768   4.079   9.088  0.2559  0.2828  1.0156
  686MOL0     C92514   8.706   4.033   9.221  0.1805  0.1408 -0.1848
  686MOL0     C92515   8.777   4.080   9.350  0.0585 -0.5822  0.3553
  686MOL0     C92516   8.733   4.011   9.488 -0.2645 -0.3430  0.5719
  686MOL0     C92517   8.843   4.019   9.589 -0.3945  0.1232 -0.9824
  686MOL0     C92518   8.794   3.940   9.716 -0.2030  0.0438  0.5101
  686MOL0    Cl92519   8.743   3.763   9.706 -0.1294  0.4997 -0.1293
  686MOL0     C92520   8.349   4.035   8.643  0.4301 -0.4911 -0.5668
  686MOL0     C92521   8.216   4.056   8.600 -0.1496  0.2730  0.0162
  686MOL0     O92522   7.904   4.083   8.815 -0.1208  0.0489  0.0670
  686MOL0     C92523   7.661   4.096   8.689 -0.4819  0.2567  0.0221
  686MOL0     C92524   7.534   4.114   8.632 -0.3113  0.5221  0.7663
  686MOL0     N92525   6.800   4.013   8.604 -0.4275 -0.3620  0.2090
  686MOL0     N92526   6.692   3.948   8.616  0.5021 -0.2305  0.4062
  686MOL0     C92527   5.511   3.806   8.566 -0.5945  0.0174 -0.4398
  686MOL0     C92528   5.397   3.749   8.624 -0.7720  0.3853  0.8175
  686MOL0     C92529   4.992   3.627   8.791 -0.3547  0.2825 -0.4400
  686MOL0     C92530   4.980   3.516   8.879  0.5108  0.1557 -1.0898
  686MOL0     C92531   4.861   3.496   8.953 -0.1211  0.1744 -0.0997
  686MOL0     C92532   4.752   3.576   8.935 -0.5692  0.0113 -0.2887
  686MOL0     O92533   4.628   3.556   8.980 -0.3111  0.1811 -0.1175
  686MOL0     C92534   4.597   3.434   9.041  0.0913  0.4637 -0.3092
  686MOL0     C92535   4.589   3.450   9.192  0.1067  0.0409  0.8153
  686MOL0     C92536   4.481   3.552   9.252 -0.0007  0.1048  0.0714
  686MOL0     C92537   4.346   3.496   9.272  1.4107  0.8682  0.6390
  686MOL0     C92538   4.343   3.389   9.375 -0.2152 -0.1114  0.7707
  686MOL0     C92539   4.355   3.305   9.459  1.2376 -0.5473  0.4012
  686MOL0     C92540   4.761   3.684   8.847  0.0126  0.4216  0.5453
  686MOL0     C92541   4.876   3.710   8.774 -0.4819 -0.3588  0.3422
  686MOL0     C92542   4.857   3.807   8.662 -0.8684 -0.0902  0.5625
  686MOL0     H92543   5.143   3.918   8.471 -1.2510  1.3067  4.8190
  686MOL0     H92544   5.360   3.982   8.331 -0.4041 -1.6300 -1.3404
  686MOL0     H92545   5.728   3.819   8.413  0.9429 -0.3266 -0.1211
  686MOL0     H92546   5.751   3.943   8.304 -2.7343 -2.0255 -1.9465
  686MOL0     H92547   5.730   4.007   8.606  1.4142  1.0828  1.7112
  686MOL0     H92548   5.745   4.130   8.483  1.4929  0.4217 -1.0223
  686MOL0     H92549   5.969   4.011   8.429 -0.6546 -1.4438 -0.2559
  686MOL0     H92550   5.936   3.894   8.562 -1.8402 -1.2672 -0.8913
  686MOL0     H92551   5.933   4.182   8.637  0.7700  1.4858 -0.4985
  686MOL0     H92552   6.005   4.038   8.714 -0.3186  0.9254  0.2431
  686MOL0     H92553   6.120   4.159   8.471  0.6282 -0.0517  0.5293
  686MOL0     H92554   6.163   4.202   8.635  1.6295 -0.0353  0.7347
  686MOL0     H92555   6.220   3.938   8.676  1.3296  0.1898  1.3182
  686MOL0     H92556   6.199   3.932   8.500 -0.2444  1.0884 -1.4659
  686MOL0     H92557   6.372   4.085   8.680 -0.8871  0.4298 -0.3395
  686MOL0     H92558   6.365   4.157   8.518  0.5286 -0.3926 -2.5062
  686MOL0     H92559   6.462   3.863   8.546  2.3080 -0.9318 -1.7319
  686MOL0     H92560   6.451   3.964   8.402 -2.7292  1.2793 -0.2424
  686MOL0     H92561   6.620   4.219   8.434 -1.2889 -0.1179  0.3735
  686MOL0     H92562   6.893   4.274   8.416  2.3083 -2.0266 -2.0805
  686MOL0     H92563   6.907   4.285   8.588  2.5157  0.9011 -0.0866
  686MOL0     H92564   7.043   4.079   8.584 -0.9581 -0.8501 -0.3478
  686MOL0     H92565   7.014   4.063   8.405 -1.3027 -1.3121  0.4787
  686MOL0     H92566   7.157   4.309   8.535  2.8015  0.3561 -1.2860
  686MOL0     H92567   7.162   4.262   8.368  1.5864  0.4235  0.3661
  686MOL0     H92568   7.286   4.047   8.468 -1.5904 -0.4166  2.0818
  686MOL0     H92569   7.269   4.131   8.618 -0.4694 -1.0308  0.3637
  686MOL0     H92570   7.627   4.285   8.364  1.0707  1.3256  0.1416
  686MOL0     H92571   7.848   4.266   8.474  0.4190 -2.2718 -0.8341
  686MOL0     H92572   8.107   4.238   8.857  2.8047  1.2057  1.3490
  686MOL0     H92573   8.332   4.175   8.955  1.2557 -2.4879  0.6384
  686MOL0     H92574   8.579   4.191   8.964  0.6316 -0.3942  0.6352
  686MOL0     H92575   8.485   4.057   9.018 -0.3950  3.0155  0.0498
  686MOL0     H92576   8.702   3.921   8.960  0.2441 -0.1015  0.0852
  686MOL0     H92577   8.779   4.057   8.889  0.9208  5.1405  1.4848
  686MOL0     H92578   8.872   4.048   9.102  0.5163  0.1570 -0.9452
  686MOL0     H92579   8.767   4.186   9.069  1.4826 -0.0830 -1.5177
  686MOL0     H92580   8.712   3.924   9.232  1.7258  0.3745  1.8213
  686MOL0     H92581   8.602   4.065   9.231  1.0613  3.1030  0.3414
  686MOL0     H92582   8.759   4.187   9.367 -3.1197 -1.1703  1.4428
  686MOL0     H92583   8.883   4.058   9.336  0.5521 -0.4326  3.2662
  686MOL0     H92584   8.640   4.046   9.532  0.1936  0.7366  0.7132
  686MOL0     H92585   8.719   3.905   9.465 -1.5512 -0.2393  0.8164
  686MOL0     H92586   8.853   4.122   9.623 -2.9207  0.7462 -1.8795
  686MOL0     H92587   8.938   3.982   9.550 -0.5180 -1.8597  0.4466
  686MOL0     H92588   8.885   3.953   9.776  1.1843 -1.1510 -1.2246
  686MOL0     H92589   8.713   3.997   9.760  1.3287  1.0604  2.1580
  686MOL0     H92590   8.417   3.978   8.581  2.9192  2.3178 -0.6263
  686MOL0     H92591   8.181   4.014   8.506  1.0110  3.3809 -1.9528
  686MOL0     H92592   7.674   4.034   8.778  1.0404  1.2059  0.5030
  686MOL0     H92593   7.449   4.065   8.679  0.2813 -0.4557  0.8432
  686MOL0     H92594   5.609   3.774   8.600  1.0574  1.6350 -3.2758
  686MOL0     H92595   5.407   3.678   8.705 -2.0925  0.3363  0.9691
  686MOL0     H92596   5.061   3.444   8.885 -0.0900 -0.4661 -0.1983
  686MOL0     H92597   4.861   3.405   9.011  0.4109  1.1868  1.5510
  686MOL0     H92598   4.664   3.348   9.025  0.4161  0.6576 -0.0044
  686MOL0     H92599   4.513   3.393   8.985  1.3270 -1.6065 -0.7553
  686MOL0     H92600   4.687   3.481   9.230  2.2929 -0.9377 -3.4200
  686MOL0     H92601   4.578   3.347   9.228 -0.0278 -0.1541  0.2317
  686MOL0     H92602   4.466   3.638   9.185  1.8136  1.8401  1.7678
  686MOL0     H92603   4.520   3.599   9.343 -0.3851 -0.5121  0.5585
  686MOL0     H92604   4.271   3.569   9.304 -0.1734  0.4204 -1.8135
  686MOL0     H92605   4.311   3.455   9.177  2.3374 -2.2955  1.5343
  686MOL0     H92606   4.348   3.247   9.549  0.2211 -0.4605  0.3949
  686MOL0     H92607   4.673   3.748   8.842  0.6201  1.2736  0.5262
  686MOL0     H92608   4.751   3.830   8.647 -0.8957 -1.3190 -1.4033
  686MOL0     H92609   4.909   3.901   8.685 -0.2633 -0.1714 -0.4065
  686MOL0     H92610   4.892   3.762   8.569 -2.2289  0.7022 -0.3699
  687MOL0     O92611   0.042   3.081   4.229  0.2852  0.0749  0.5259
  687MOL0     C92612   0.091   3.080   4.120  0.6899  0.0905  0.0602
  687MOL0     O92613   0.019   3.069   4.000 -0.0395  0.4210 -0.0686
  687MOL0     C92614  -0.094   2.992   4.005 -0.1572 -0.0620 -0.0746
  687MOL0     C92615  -0.212   3.056   3.960  0.5404  0.2261 -0.5508
  687MOL0     C92616  -0.329   2.994   3.963 -0.0915  0.3354 -0.1466
  687MOL0     C92617  -0.337   2.863   4.009 -0.1521 -0.4524 -0.0424
  687MOL0     O92618  -0.453   2.789   4.005  0.4010  0.1764  0.6051
  687MOL0     C92619  -0.544   2.806   3.895 -0.1114 -0.1616 -0.2656
  687MOL0     C92620  -0.648   2.688   3.877 -0.4455  0.3906  0.6973
  687MOL0     C92621  -0.723   2.663   4.009  0.1877 -0.0185  0.7732
  687MOL0     C92622  -0.874   2.667   3.977  0.4978 -0.1062 -0.3650
  687MOL0     C92623  -0.963   2.669   4.106 -0.4635  0.0284  0.7780
  687MOL0     C92624  -1.114   2.648   4.086 -0.3514 -0.5869  0.2726
  687MOL0     C92625  -1.158   2.496   4.059 -0.4002  0.4796 -0.0936
  687MOL0     C92626  -1.123   2.398   4.161  0.1328  0.4820 -0.1950
  687MOL0     N92627  -1.197   2.417   4.289  1.4818 -0.6629  0.1736
  687MOL0     C92628  -1.151   2.511   4.381 -0.1509  0.3955  0.0973
  687MOL0     C92629  -1.241   2.502   4.479  0.3880  0.4198  0.0802
  687MOL0     C92630  -1.256   2.579   4.602 -1.0857  0.9612 -0.9770
  687MOL0     C92631  -1.362   2.689   4.603 -0.7929  0.3237  0.1176
  687MOL0     C92632  -1.336   2.781   4.476  0.4112 -0.3874 -0.1974
  687MOL0     C92633  -1.194   2.845   4.466 -0.0250 -0.4698  0.8233
  687MOL0     O92634  -1.186   2.929   4.348 -0.6767 -0.2900 -0.2063
  687MOL0     C92635  -1.061   2.964   4.311 -0.4819  0.5399  0.6886
  687MOL0     C92636  -1.044   3.020   4.181 -1.3481  0.1402  0.8447
  687MOL0     C92637  -0.922   3.065   4.136  0.2911 -0.0787  0.3167
  687MOL0     C92638  -0.807   3.052   4.213 -1.1100 -0.2957  0.2851
  687MOL0     C92639  -0.676   3.111   4.175  0.3657 -0.7471  0.8310
  687MOL0     O92640  -0.602   3.151   4.287 -0.5689 -0.8564 -0.4159
  687MOL0     C92641  -0.488   3.229   4.254 -0.7509 -0.4530  0.6537
  687MOL0     C92642  -0.348   3.182   4.272 -0.1282 -0.3108  0.3197
  687MOL0     C92643  -0.239   3.265   4.259  0.4535  0.6622 -0.1204
  687MOL0     C92644  -0.261   3.394   4.214  0.3561 -0.3314  0.8716
  687MOL0     O92645  -0.159   3.479   4.183 -0.4422 -0.1980 -0.5445
  687MOL0     C92646  -0.180   3.625   4.207 -0.5856 -0.2802  0.5206
  687MOL0     C92647  -0.062   3.714   4.169 -0.1212 -0.0278 -0.0011
  687MOL0     C92648   0.050   3.681   4.274 -0.1345  0.4620 -0.0654
  687MOL0     C92649   0.164   3.763   4.239 -0.2225  0.3345  0.3374
  687MOL0     C92650   0.277   3.745   4.349  0.0506 -0.7858  0.0576
  687MOL0     C92651   0.409   3.808   4.310  0.0686 -0.3402 -0.2029
  687MOL0     C92652   0.527   3.797   4.415  0.2588 -0.3543 -0.4397
  687MOL0     C92653   0.662   3.843   4.354 -0.7507  0.4320  0.3969
  687MOL0    Cl92654   0.659   4.021   4.332 -0.0057 -0.2200  0.0181
  687MOL0     C92655  -0.392   3.436   4.196  0.0741 -0.3947  0.7200
  687MOL0     C92656  -0.507   3.360   4.221  0.9917 -0.7407  0.9640
  687MOL0     O92657  -0.642   3.128   4.055  0.7752  0.4486  0.5347
  687MOL0     C92658  -0.820   3.001   4.347  0.9396 -0.1304  0.0891
  687MOL0     C92659  -0.946   2.956   4.387  0.1489  0.3602  0.4678
  687MOL0     N92660  -1.345   2.417   4.442 -0.4647 -0.0429  0.0037
  687MOL0     N92661  -1.327   2.368   4.326  0.6620  0.0351  0.9618
  687MOL0     C92662  -0.223   2.795   4.055  0.5989  0.2919  0.2173
  687MOL0     C92663  -0.102   2.859   4.048 -0.2804  0.1503 -0.7004
  687MOL0     C92664   0.238   3.096   4.105  0.2702  0.6082  0.2246
  687MOL0     C92665   0.290   3.171   3.994 -0.5935  0.2710 -0.2550
  687MOL0     C92666   0.428   3.175   3.957  0.6397 -0.0353  0.2749
  687MOL0     C92667   0.525   3.133   4.050  0.6288  0.5854  0.0846
  687MOL0     O92668   0.657   3.151   4.010  0.2729  0.4957  0.5680
  687MOL0     C92669   0.759   3.101   4.106  0.2639  0.6305 -0.3109
  687MOL0     C92670   0.906   3.099   4.058  0.0818  0.1802  0.1736
  687MOL0     C92671   0.972   3.231   4.108 -0.8081  0.1331 -0.5585
  687MOL0     C92672   1.128   3.230   4.085 -0.3839  0.0397 -0.4827
  687MOL0     C92673   1.153   3.250   3.942 -0.3075  1.0777 -0.7866
  687MOL0     C92674   1.170   3.277   3.824 -0.4541  0.9362 -0.2266
  687MOL0     C92675   0.477   3.055   4.160 -0.7147  0.3129  0.5364
  687MOL0     C92676   0.342   3.029   4.188 -0.1532 -0.1845  0.2974
  687MOL0     C92677   0.295   2.945   4.311 -0.3706 -0.0011  0.0550
  687MOL0     H92678  -0.216   3.162   3.935 -2.8459 -0.1689 -2.3248
  687MOL0     H92679  -0.418   3.044   3.928 -0.9181 -0.8559  0.1580
  687MOL0     H92680  -0.598   2.899   3.915 -3.1612 -1.7622 -0.4515
  687MOL0     H92681  -0.488   2.824   3.803 -1.1748  1.0954 -0.7003
  687MOL0     H92682  -0.593   2.600   3.843 -1.3511  0.2630 -0.5070
  687MOL0     H92683  -0.720   2.713   3.799  1.2317 -0.1965 -1.1391
  687MOL0     H92684  -0.704   2.742   4.082 -1.5922  0.8266  0.3789
  687MOL0     H92685  -0.687   2.567   4.049  1.5257  0.4276  0.7073
  687MOL0     H92686  -0.894   2.764   3.931 -0.0312 -0.9573 -2.0129
  687MOL0     H92687  -0.900   2.578   3.919  1.0224 -0.3531 -0.2245
  687MOL0     H92688  -0.923   2.601   4.181  2.1930  1.7199  1.0173
  687MOL0     H92689  -0.950   2.769   4.148  0.1089  0.5187 -0.5202
  687MOL0     H92690  -1.169   2.678   4.177 -0.6915 -1.5380  0.3905
  687MOL0     H92691  -1.150   2.716   4.009 -0.3346 -1.4498 -0.5108
  687MOL0     H92692  -1.109   2.460   3.968  1.1040 -0.9446  1.2094
  687MOL0     H92693  -1.266   2.487   4.045 -0.2408 -1.0577 -0.5497
  687MOL0     H92694  -1.138   2.301   4.114  1.3880  0.6828 -1.0900
  687MOL0     H92695  -1.015   2.410   4.178 -0.1743  1.8148  1.0154
  687MOL0     H92696  -1.063   2.571   4.362  0.7353 -0.3803  1.6029
  687MOL0     H92697  -1.278   2.511   4.684  3.1134  2.5386  1.8083
  687MOL0     H92698  -1.154   2.615   4.621 -0.4281 -1.2541  0.0134
  687MOL0     H92699  -1.469   2.663   4.600 -1.6459  3.3762  0.0281
  687MOL0     H92700  -1.343   2.756   4.687 -1.8342  0.9100 -0.0929
  687MOL0     H92701  -1.403   2.867   4.475 -0.1513 -0.8193 -0.4955
  687MOL0     H92702  -1.351   2.725   4.383 -0.4360  0.2766 -0.4780
  687MOL0     H92703  -1.130   2.757   4.457 -1.5978 -1.6013  0.0841
  687MOL0     H92704  -1.172   2.901   4.557 -0.0896  1.8245 -0.5103
  687MOL0     H92705  -1.125   3.029   4.110 -1.3734 -4.5114 -0.0493
  687MOL0     H92706  -0.907   3.100   4.034 -1.9749 -0.5418 -0.2118
  687MOL0     H92707  -0.327   3.077   4.292  1.3208  0.4996  3.8292
  687MOL0     H92708  -0.138   3.228   4.276 -0.6253 -2.4365  0.1505
  687MOL0     H92709  -0.260   3.662   4.141 -0.2776  0.2444  0.4375
  687MOL0     H92710  -0.219   3.640   4.308  0.2583  1.0649  0.6655
  687MOL0     H92711  -0.038   3.694   4.064  0.6878  2.8908 -0.4497
  687MOL0     H92712  -0.086   3.820   4.182  1.6271  0.5916 -1.3270
  687MOL0     H92713   0.015   3.720   4.369  0.0301  0.5949 -0.0583
  687MOL0     H92714   0.073   3.574   4.272  0.5331  0.5986 -1.5173
  687MOL0     H92715   0.137   3.869   4.238 -1.5263  0.0106  0.0560
  687MOL0     H92716   0.208   3.738   4.142 -1.3649  0.8212 -0.3333
  687MOL0     H92717   0.287   3.639   4.372 -3.7468 -1.2089  0.3490
  687MOL0     H92718   0.231   3.789   4.438  0.8785  0.2743 -0.0112
  687MOL0     H92719   0.446   3.766   4.216  2.0040 -1.8891  1.1636
  687MOL0     H92720   0.395   3.915   4.293 -0.1005 -0.2865  0.2641
  687MOL0     H92721   0.539   3.692   4.441  0.7963 -0.3151 -0.5202
  687MOL0     H92722   0.495   3.849   4.506 -0.1760  1.2188 -1.4516
  687MOL0     H92723   0.743   3.818   4.424  1.2823 -0.2863 -2.0595
  687MOL0     H92724   0.687   3.801   4.256 -1.0251 -0.0405  0.5259
  687MOL0     H92725  -0.418   3.530   4.149 -2.5236 -1.7559 -0.7674
  687MOL0     H92726  -0.609   3.398   4.223  1.2619  0.3527 -1.8917
  687MOL0     H92727  -0.737   2.985   4.416  2.3869  0.3145 -1.4742
  687MOL0     H92728  -0.948   2.922   4.490  0.5570  1.2026  0.7560
  687MOL0     H92729  -0.230   2.691   4.086  0.9553  0.3410  0.4740
  687MOL0     H92730  -0.011   2.805   4.074  1.5669  1.0374 -4.6665
  687MOL0     H92731   0.226   3.219   3.921 -3.1300 -0.3058  1.4562
  687MOL0     H92732   0.465   3.227   3.870 -1.6776 -0.2155 -0.8818
  687MOL0     H92733   0.737   2.995   4.119  0.0903  0.7923  0.8680
  687MOL0     H92734   0.744   3.146   4.205 -2.5688  1.4090 -1.0211
  687MOL0     H92735   0.900   3.097   3.948 -1.4374 -2.5874  0.2197
  687MOL0     H92736   0.953   3.006   4.090  2.5991  0.4937 -2.2218
  687MOL0     H92737   0.959   3.233   4.217  1.4225 -0.7751 -0.2209
  687MOL0     H92738   0.930   3.317   4.056 -2.0937 -1.2940 -1.9873
  687MOL0     H92739   1.180   3.294   4.156 -0.9031 -0.4162  0.3171
  687MOL0     H92740   1.169   3.131   4.107 -0.6999 -0.3528 -1.5382
  687MOL0     H92741   1.186   3.305   3.722 -2.3628  0.1037 -0.7946
  687MOL0     H92742   0.543   3.010   4.233 -1.0925  1.7868  1.8317
  687MOL0     H92743   0.370   2.868   4.334 -0.4791 -0.3607 -0.7554
  687MOL0     H92744   0.284   3.006   4.401  0.5408 -2.0406  1.6512
  687MOL0     H92745   0.199   2.896   4.293 -0.0506 -1.0825  1.1362
  688MOL0     O92746   4.898   9.081   3.553 -0.0151  0.6437  0.0676
  688MOL0     C92747   5.010   9.125   3.520 -0.2605 -0.7467  0.1432
  688MOL0     O92748   5.038   9.257   3.504 -0.2863  0.6518 -0.3050
  688MOL0     C92749   4.931   9.346   3.514  0.4019 -0.3710  0.1658
  688MOL0     C92750   4.917   9.437   3.410  0.1178  0.4890  0.0443
  688MOL0     C92751   4.819   9.534   3.416 -0.8240  0.0539  0.5827
  688MOL0     C92752   4.736   9.542   3.531  0.2843 -0.0599 -0.3698
  688MOL0     O92753   4.646   9.646   3.558 -0.3633  0.3150  1.2179
  688MOL0     C92754   4.591   9.718   3.445  0.3222 -0.7686 -0.5116
  688MOL0     C92755   4.505   9.836   3.484  0.9656  0.1903  0.2384
  688MOL0     C92756   4.422   9.884   3.363  0.6733 -0.4326 -0.4924
  688MOL0     C92757   4.321   9.992   3.414  0.3709  0.4625 -0.4325
  688MOL0     C92758   4.262  10.067   3.302  0.4020  0.9235 -0.3632
  688MOL0     C92759   4.163   9.978   3.226 -0.5414  0.5446  0.2197
  688MOL0     C92760   4.064  10.065   3.153  0.2180 -0.1022  0.4403
  688MOL0     C92761   4.110  10.131   3.023 -0.2548  0.4850  0.6075
  688MOL0     N92762   4.143  10.273   3.029 -0.4854  0.3427 -0.2582
  688MOL0     C92763   4.268  10.317   3.038 -0.4685 -0.7871 -0.9324
  688MOL0     C92764   4.256  10.446   3.072  0.1995 -0.9704 -0.7040
  688MOL0     C92765   4.373  10.545   3.096  0.5228 -0.0005  0.5193
  688MOL0     C92766   4.367  10.684   3.021  0.5887 -0.2554 -0.8876
  688MOL0     C92767   4.435  10.794   3.098 -0.4211 -0.4427  0.4929
  688MOL0     C92768   4.588  10.789   3.084  0.5936  0.4362  0.4032
  688MOL0     O92769   4.607  10.812   2.946 -0.2324  0.5656  0.3322
  688MOL0     C92770   4.734  10.803   2.892  0.7014 -0.2012  0.1095
  688MOL0     C92771   4.752  10.796   2.751 -0.1174 -0.1921 -0.3435
  688MOL0     C92772   4.873  10.743   2.701  0.7699  0.1515  0.5111
  688MOL0     C92773   4.989  10.733   2.782  0.4897  0.0743 -0.3048
  688MOL0     C92774   5.117  10.698   2.718  0.6466 -0.5890 -0.4007
  688MOL0     O92775   5.120  10.654   2.590  0.5886  0.0874  0.2324
  688MOL0     C92776   5.245  10.621   2.545 -0.4804  0.3014  0.2327
  688MOL0     C92777   5.337  10.718   2.501 -0.3098 -0.2785  0.2777
  688MOL0     C92778   5.461  10.683   2.456 -0.0110 -0.2198 -0.0400
  688MOL0     C92779   5.492  10.549   2.450 -0.1177  0.4353  0.5036
  688MOL0     O92780   5.615  10.501   2.417 -0.0032 -0.0018 -1.1282
  688MOL0     C92781   5.715  10.599   2.392 -0.1230  0.3139  0.0108
  688MOL0     C92782   5.853  10.535   2.362 -0.7830 -0.1090 -0.2545
  688MOL0     C92783   5.964  10.650   2.344  0.2216 -0.3178 -0.1696
  688MOL0     C92784   6.103  10.600   2.314 -0.1892 -0.8102 -0.2229
  688MOL0     C92785   6.207  10.715   2.335  1.3769  0.2300 -1.0186
  688MOL0     C92786   6.186  10.834   2.242  0.2853  0.5021  0.7770
  688MOL0     C92787   6.295  10.946   2.251 -0.9583  0.7124 -0.7604
  688MOL0     C92788   6.289  11.054   2.147  0.0866 -0.0440 -0.0967
  688MOL0    Cl92789   6.273  10.988   1.983 -0.5301  0.1843  0.2356
  688MOL0     C92790   5.397  10.446   2.480 -0.1301 -0.1434 -0.0968
  688MOL0     C92791   5.271  10.483   2.529  0.4037  1.5172 -0.5142
  688MOL0     O92792   5.219  10.702   2.790  0.9209 -0.2263 -0.4132
  688MOL0     C92793   4.975  10.758   2.920  0.8247 -0.0838  0.0973
  688MOL0     C92794   4.842  10.791   2.974  0.4699  0.1799 -0.0725
  688MOL0     N92795   4.124  10.479   3.080  0.5639 -0.3315 -0.8590
  688MOL0     N92796   4.053  10.371   3.050  0.0937 -1.0926 -0.0996
  688MOL0     C92797   4.745   9.446   3.631  1.3539  0.0852  0.5964
  688MOL0     C92798   4.841   9.346   3.626 -0.6845 -0.7843  0.3225
  688MOL0     C92799   5.126   9.030   3.509 -0.1139  0.3054 -0.3462
  688MOL0     C92800   5.251   9.089   3.473 -0.3616  0.2013  0.0158
  688MOL0     C92801   5.366   9.011   3.444 -0.1380  0.1001 -0.1594
  688MOL0     C92802   5.355   8.865   3.467 -0.2203  0.2959  0.2123
  688MOL0     O92803   5.456   8.778   3.430 -0.4144 -0.3507  0.5313
  688MOL0     C92804   5.559   8.835   3.350 -0.2406 -0.2712  0.1468
  688MOL0     C92805   5.637   8.714   3.291  0.6116  0.7767  0.0798
  688MOL0     C92806   5.708   8.635   3.398 -0.6466  0.7302  0.1520
  688MOL0     C92807   5.791   8.513   3.351 -0.5221 -0.3897  0.1993
  688MOL0     C92808   5.898   8.534   3.252  0.5580 -0.4453 -0.1874
  688MOL0     C92809   5.979   8.560   3.163 -0.1327  0.1255 -0.6971
  688MOL0     C92810   5.240   8.809   3.521  1.0387 -0.2143  0.8649
  688MOL0     C92811   5.120   8.889   3.536  0.5409  0.1629 -0.3683
  688MOL0     C92812   4.997   8.810   3.556  0.1375  0.2499  1.0264
  688MOL0     H92813   4.985   9.418   3.328  0.5615 -3.6490  1.1090
  688MOL0     H92814   4.833   9.603   3.333  4.6897 -0.9903  0.2266
  688MOL0     H92815   4.677   9.761   3.392  0.3774 -1.0376 -0.6406
  688MOL0     H92816   4.535   9.654   3.376 -0.3897  1.0482 -1.7091
  688MOL0     H92817   4.574   9.910   3.525  0.9753  0.0809  0.4210
  688MOL0     H92818   4.432   9.803   3.559 -0.8436 -1.6175 -2.1459
  688MOL0     H92819   4.364   9.808   3.311  0.2672 -0.0853 -0.5572
  688MOL0     H92820   4.489   9.937   3.295 -0.5804  0.5245 -1.0332
  688MOL0     H92821   4.248   9.943   3.480 -0.1119  0.0650 -1.2454
  688MOL0     H92822   4.362  10.059   3.491 -2.2865 -0.5185  2.0220
  688MOL0     H92823   4.204  10.154   3.333 -2.6336 -0.3810 -1.9158
  688MOL0     H92824   4.344  10.095   3.235  0.3244  0.4582 -0.6572
  688MOL0     H92825   4.219   9.912   3.160 -0.3451  1.6677 -0.7579
  688MOL0     H92826   4.122   9.907   3.300  2.8392  0.4825  2.2406
  688MOL0     H92827   4.015  10.138   3.218  0.0630  1.9052 -1.7915
  688MOL0     H92828   3.986   9.994   3.122  0.7861  0.1957 -1.8840
  688MOL0     H92829   4.207  10.088   2.997 -1.8222 -2.8164 -0.3122
  688MOL0     H92830   4.027  10.121   2.953  0.0149 -0.3622  0.3989
  688MOL0     H92831   4.357  10.262   3.010 -0.2707 -1.4231  0.8416
  688MOL0     H92832   4.391  10.560   3.203  1.7008 -1.6075  0.5844
  688MOL0     H92833   4.461  10.488   3.065  0.1349 -0.9377  1.0955
  688MOL0     H92834   4.394  10.678   2.916  0.4097 -0.7247 -0.9108
  688MOL0     H92835   4.265  10.723   3.006  0.2812 -0.8579 -0.4179
  688MOL0     H92836   4.394  10.789   3.200 -4.1118 -0.7843 -0.8762
  688MOL0     H92837   4.390  10.887   3.064 -0.0776 -0.2101  0.6608
  688MOL0     H92838   4.633  10.695   3.116  1.1423  0.9337  1.1618
  688MOL0     H92839   4.633  10.876   3.134 -0.7921  0.5156  1.5829
  688MOL0     H92840   4.671  10.821   2.683 -2.5582  1.6766  2.9310
  688MOL0     H92841   4.882  10.723   2.594  1.6842 -1.2395  0.8291
  688MOL0     H92842   5.310  10.822   2.519  1.5809  0.0533  1.4575
  688MOL0     H92843   5.526  10.769   2.441  0.0735 -0.7418 -3.2970
  688MOL0     H92844   5.680  10.657   2.305  0.4600 -0.0386 -0.4660
  688MOL0     H92845   5.725  10.661   2.482  0.2965 -2.3904  1.9579
  688MOL0     H92846   5.877  10.473   2.448  1.0700  1.6802  0.5934
  688MOL0     H92847   5.844  10.469   2.275 -1.6128  3.7253 -3.3815
  688MOL0     H92848   5.939  10.707   2.254  1.9076  0.6187 -0.0938
  688MOL0     H92849   5.961  10.721   2.427 -0.2770 -0.6372  0.0907
  688MOL0     H92850   6.113  10.582   2.207 -0.2216 -0.3201 -0.3125
  688MOL0     H92851   6.132  10.518   2.380  3.1469  0.3539 -0.0837
  688MOL0     H92852   6.308  10.674   2.324  0.8746 -1.6795  0.8599
  688MOL0     H92853   6.186  10.753   2.435 -1.7449  2.4909 -2.3579
  688MOL0     H92854   6.188  10.799   2.139 -0.1385  2.0743  0.2065
  688MOL0     H92855   6.088  10.881   2.254 -0.4397 -0.5559 -0.7421
  688MOL0     H92856   6.394  10.901   2.261 -0.0321  2.2674 -2.3753
  688MOL0     H92857   6.278  11.001   2.344  0.9713  1.9493 -1.0797
  688MOL0     H92858   6.199  11.112   2.167  1.3852  1.3190  2.3207
  688MOL0     H92859   6.384  11.108   2.145 -0.0981  0.2583 -0.7299
  688MOL0     H92860   5.444  10.348   2.474  4.0120  1.6698 -1.3080
  688MOL0     H92861   5.206  10.403   2.564  2.2464  1.4083  3.0721
  688MOL0     H92862   5.055  10.738   2.991  0.7553  0.3905  0.3122
  688MOL0     H92863   4.835  10.804   3.081 -0.8157 -1.2971  0.0628
  688MOL0     H92864   4.689   9.473   3.720 -0.6977  2.9846 -1.3905
  688MOL0     H92865   4.857   9.269   3.701  0.2563 -1.5685 -0.6386
  688MOL0     H92866   5.264   9.197   3.467 -0.2539  0.2443  0.9142
  688MOL0     H92867   5.455   9.063   3.411 -0.4796  1.0586  0.3730
  688MOL0     H92868   5.620   8.899   3.415 -1.0479 -0.4410  1.0892
  688MOL0     H92869   5.527   8.895   3.264 -0.3165  1.5590  1.4019
  688MOL0     H92870   5.711   8.739   3.215 -1.3995 -1.1610 -2.7526
  688MOL0     H92871   5.563   8.650   3.242 -0.7701  0.4753  2.3934
  688MOL0     H92872   5.635   8.599   3.471 -1.5083  1.7029 -0.2115
  688MOL0     H92873   5.770   8.709   3.448 -1.0839 -1.7877  5.0752
  688MOL0     H92874   5.826   8.471   3.446 -1.5181 -0.7183  0.4324
  688MOL0     H92875   5.717   8.444   3.310 -0.4162 -0.9866  0.9721
  688MOL0     H92876   6.056   8.585   3.093  0.3522 -0.8845 -0.5473
  688MOL0     H92877   5.238   8.701   3.534  3.9402 -0.7199 -1.8841
  688MOL0     H92878   4.927   8.839   3.478  0.5884 -0.7145  0.2503
  688MOL0     H92879   5.022   8.704   3.545  1.0098  0.4092  1.3588
  688MOL0     H92880   4.943   8.833   3.649 -3.7468  1.9820 -1.3866
  689MOL0     O92881   7.975   8.151   6.667 -0.5472  0.5706  0.2346
  689MOL0     C92882   7.909   8.235   6.608 -0.3381 -0.9491  1.1542
  689MOL0     O92883   7.973   8.333   6.516 -0.1554  0.0208 -0.5145
  689MOL0     C92884   8.112   8.340   6.492 -0.1267  0.5672  0.6638
  689MOL0     C92885   8.163   8.468   6.474  0.0814 -0.3234  0.2203
  689MOL0     C92886   8.294   8.482   6.443 -0.6621 -0.7312 -0.4412
  689MOL0     C92887   8.386   8.382   6.436  0.0302  0.0921  0.5783
  689MOL0     O92888   8.519   8.398   6.393 -0.3895  0.0848 -0.4941
  689MOL0     C92889   8.624   8.337   6.471 -0.2716 -0.4028 -0.6754
  689MOL0     C92890   8.758   8.402   6.432  0.0019 -0.0255  0.4475
  689MOL0     C92891   8.885   8.326   6.490 -0.3948  0.0085 -0.2754
  689MOL0     C92892   9.021   8.363   6.420  0.0224 -0.7992 -0.5162
  689MOL0     C92893   9.138   8.280   6.472 -0.4716  0.5805  0.5005
  689MOL0     C92894   9.269   8.365   6.439  0.8766  0.3765  0.8725
  689MOL0     C92895   9.390   8.264   6.426 -0.7478  0.5193 -0.6278
  689MOL0     C92896   9.383   8.156   6.541  0.4839 -1.0609  1.0207
  689MOL0     N92897   9.511   8.091   6.555  0.6738  1.0796 -0.1053
  689MOL0     C92898   9.616   8.144   6.622  0.0545  1.1934 -0.4388
  689MOL0     C92899   9.715   8.058   6.588 -0.3398 -0.2972 -0.1293
  689MOL0     C92900   9.854   8.092   6.634  0.2529  0.1744 -1.0251
  689MOL0     C92901   9.929   8.167   6.530  0.0917  0.4506 -0.3185
  689MOL0     C92902  10.078   8.187   6.585 -0.2821 -0.9671  0.0204
  689MOL0     C92903  10.167   8.067   6.545  0.2197 -0.3338  0.4169
  689MOL0     O92904  10.307   8.107   6.524  0.6742 -0.1133 -0.0249
  689MOL0     C92905  10.400   8.016   6.547 -0.5611  0.8546 -0.8443
  689MOL0     C92906  10.381   7.886   6.525  0.5539  0.7407  0.0853
  689MOL0     C92907  10.489   7.794   6.553  0.5472 -0.3579  0.4021
  689MOL0     C92908  10.611   7.850   6.596  0.1252  0.1890 -0.1919
  689MOL0     C92909  10.724   7.759   6.625 -0.4941 -0.4453  0.3159
  689MOL0     O92910  10.837   7.819   6.694  0.5168 -0.3360  0.8954
  689MOL0     C92911  10.944   7.741   6.722  0.3602 -0.4861 -0.5186
  689MOL0     C92912  10.946   7.676   6.844 -0.1909  0.2082  0.3299
  689MOL0     C92913  11.038   7.578   6.888  0.0206 -0.6489 -0.1570
  689MOL0     C92914  11.153   7.571   6.800  0.2165  0.0195 -0.0611
  689MOL0     O92915  11.247   7.480   6.825 -0.7801  0.2389  0.0757
  689MOL0     C92916  11.216   7.349   6.854  0.6568 -0.5646 -0.5103
  689MOL0     C92917  11.330   7.261   6.813 -0.1778  1.4940 -0.2494
  689MOL0     C92918  11.455   7.264   6.906 -0.0068 -0.4792 -0.2240
  689MOL0     C92919  11.450   7.165   7.029  0.3009 -0.3069  0.9242
  689MOL0     C92920  11.567   7.199   7.124  0.1690 -1.0029  0.3247
  689MOL0     C92921  11.551   7.156   7.271  0.3330 -0.5140  0.1560
  689MOL0     C92922  11.685   7.161   7.351 -0.3926  0.4577  0.6973
  689MOL0     C92923  11.740   7.311   7.360  0.7831  0.2625 -0.5017
  689MOL0    Cl92924  11.874   7.323   7.476  0.3606  0.1271  0.0833
  689MOL0     C92925  11.161   7.647   6.680  0.0353 -0.6731  0.6849
  689MOL0     C92926  11.052   7.721   6.639 -0.2375 -0.3256 -0.3825
  689MOL0     O92927  10.712   7.637   6.609  0.4094 -0.5798  0.9296
  689MOL0     C92928  10.624   7.989   6.624  0.3490 -0.4799  0.3182
  689MOL0     C92929  10.518   8.070   6.598  0.3394  0.0750 -0.6351
  689MOL0     N92930   9.662   7.954   6.517  0.1894  0.6280 -0.3919
  689MOL0     N92931   9.539   7.971   6.503  0.8967  0.4267  0.3926
  689MOL0     C92932   8.335   8.253   6.461 -0.3490 -0.1362  1.2075
  689MOL0     C92933   8.196   8.230   6.480  0.0622  0.3122  0.5076
  689MOL0     C92934   7.756   8.257   6.634 -0.6663  0.2572  0.2541
  689MOL0     C92935   7.688   8.365   6.592  0.2865 -1.3149 -0.6652
  689MOL0     C92936   7.552   8.394   6.629 -0.9396 -0.1839 -0.1975
  689MOL0     C92937   7.484   8.309   6.702 -0.0968  0.1836  0.0588
  689MOL0     O92938   7.351   8.346   6.732 -0.3235  0.6091  0.3397
  689MOL0     C92939   7.326   8.461   6.815 -0.2441  0.0626 -0.9994
  689MOL0     C92940   7.183   8.523   6.802  0.4190 -0.1390 -0.5540
  689MOL0     C92941   7.080   8.432   6.724  0.1471  0.1822  0.5863
  689MOL0     C92942   6.939   8.504   6.721  0.7372  0.5333  0.5510
  689MOL0     C92943   6.853   8.416   6.651  0.2120 -0.4102  1.1198
  689MOL0     C92944   6.779   8.343   6.583  0.0189 -0.6753  0.2055
  689MOL0     C92945   7.544   8.193   6.747  0.3026 -0.7052  1.1375
  689MOL0     C92946   7.681   8.169   6.711 -0.1663  0.3241  0.4097
  689MOL0     C92947   7.734   8.029   6.747 -0.0493  0.5187 -0.3729
  689MOL0     H92948   8.099   8.556   6.486  0.3223 -0.3846  2.1784
  689MOL0     H92949   8.333   8.580   6.418 -0.4841 -0.5497  0.4975
  689MOL0     H92950   8.597   8.348   6.576 -2.6355 -0.1490 -1.2643
  689MOL0     H92951   8.636   8.230   6.450  0.0390 -0.3681 -0.6908
  689MOL0     H92952   8.765   8.508   6.458 -0.4231  0.0273  0.3426
  689MOL0     H92953   8.749   8.392   6.324  0.6574 -0.2494  0.4076
  689MOL0     H92954   8.867   8.218   6.486 -0.3290 -0.2555  3.2216
  689MOL0     H92955   8.895   8.349   6.597 -0.8733  1.2881 -0.4919
  689MOL0     H92956   9.005   8.356   6.312 -1.6044 -3.2492 -0.1915
  689MOL0     H92957   9.035   8.469   6.444  0.2866 -0.2621 -2.8006
  689MOL0     H92958   9.121   8.263   6.578 -0.5273  1.0490  0.5715
  689MOL0     H92959   9.124   8.184   6.423 -1.6532 -0.8233  3.3669
  689MOL0     H92960   9.246   8.422   6.348  0.8432  3.6587  2.7744
  689MOL0     H92961   9.293   8.448   6.506  2.4038  0.4086  0.3276
  689MOL0     H92962   9.487   8.313   6.435 -0.0751 -0.7835 -0.5447
  689MOL0     H92963   9.390   8.204   6.335 -2.7751  2.1074 -1.7549
  689MOL0     H92964   9.353   8.215   6.628 -1.1603  0.5071 -0.5131
  689MOL0     H92965   9.308   8.081   6.515 -0.7597 -0.7460  3.4048
  689MOL0     H92966   9.631   8.245   6.660 -1.1285  1.4089 -0.5133
  689MOL0     H92967   9.863   8.142   6.731 -0.4657 -1.9942  0.2295
  689MOL0     H92968   9.895   7.993   6.656 -1.7588 -0.4261  0.2116
  689MOL0     H92969   9.941   8.114   6.435  0.0592  1.2360 -0.7636
  689MOL0     H92970   9.883   8.265   6.522  2.3285  1.6449  0.5050
  689MOL0     H92971  10.078   8.199   6.694 -2.0601  1.4076 -0.1663
  689MOL0     H92972  10.127   8.278   6.549 -0.5036 -0.8741 -0.0473
  689MOL0     H92973  10.130   8.021   6.453  3.6202 -2.9410  0.1260
  689MOL0     H92974  10.161   8.002   6.633  0.2415  0.4591  1.0196
  689MOL0     H92975  10.285   7.843   6.496  0.4646  0.3428  0.9309
  689MOL0     H92976  10.473   7.687   6.538  1.5888 -0.5070  0.3199
  689MOL0     H92977  10.858   7.685   6.908 -0.8456 -0.4380 -0.4421
  689MOL0     H92978  11.052   7.529   6.984  0.7680 -1.6524 -0.7516
  689MOL0     H92979  11.201   7.341   6.962  0.3997 -1.4486 -0.5995
  689MOL0     H92980  11.133   7.311   6.795  1.6430 -0.2584 -2.1466
  689MOL0     H92981  11.284   7.162   6.814 -0.4856  1.6270 -0.7989
  689MOL0     H92982  11.363   7.283   6.711  1.8978 -0.4476 -0.0873
  689MOL0     H92983  11.546   7.254   6.846  0.6162 -2.6807  0.9630
  689MOL0     H92984  11.458   7.364   6.950 -1.0623 -0.6303  0.2170
  689MOL0     H92985  11.461   7.063   6.990  5.9422 -0.1148  1.2885
  689MOL0     H92986  11.351   7.174   7.074  0.4729  2.6389  0.8637
  689MOL0     H92987  11.576   7.308   7.130 -1.2180 -0.8110 -0.6902
  689MOL0     H92988  11.664   7.169   7.082  2.6268  3.6137  1.9504
  689MOL0     H92989  11.469   7.212   7.318 -4.5424 -4.1426 -3.1524
  689MOL0     H92990  11.513   7.054   7.281 -1.5656  0.2432  1.2275
  689MOL0     H92991  11.762   7.109   7.293 -1.0275  2.3267 -2.0007
  689MOL0     H92992  11.669   7.127   7.453  2.9930  1.3447  1.6560
  689MOL0     H92993  11.774   7.348   7.263  1.8884 -1.1001 -0.6611
  689MOL0     H92994  11.657   7.375   7.391  1.1576  0.8193 -0.6285
  689MOL0     H92995  11.248   7.636   6.615 -1.1272  1.0715 -1.3169
  689MOL0     H92996  11.052   7.783   6.550  3.2044  1.2084  0.5386
  689MOL0     H92997  10.713   8.027   6.672 -0.5379  1.0400  0.8428
  689MOL0     H92998  10.520   8.171   6.638  0.5087 -0.0829 -0.2349
  689MOL0     H92999   8.413   8.178   6.462  1.2064  1.3105 -1.2446
  689MOL0     H93000   8.163   8.128   6.498  3.2668 -1.3805 -1.9935
  689MOL0     H93001   7.743   8.431   6.526 -0.4048 -1.8594 -1.8225
  689MOL0     H93002   7.504   8.484   6.593  1.8079  1.8778  0.9046
  689MOL0     H93003   7.405   8.537   6.817 -0.2699  0.0780  0.1255
  689MOL0     H93004   7.330   8.410   6.912  0.7701  0.3349 -0.8790
  689MOL0     H93005   7.199   8.615   6.744  0.0789  0.5480  0.4261
  689MOL0     H93006   7.160   8.548   6.906  1.6461  0.4567 -0.3988
  689MOL0     H93007   7.073   8.329   6.758 -0.4779 -0.8121 -2.2487
  689MOL0     H93008   7.117   8.427   6.621 -1.7363  0.3162 -0.1412
  689MOL0     H93009   6.904   8.508   6.825  1.1124  0.5580  0.6783
  689MOL0     H93010   6.950   8.603   6.676  1.0432 -0.4019 -1.5590
  689MOL0     H93011   6.716   8.284   6.520  1.5055  1.6988 -3.9912
  689MOL0     H93012   7.501   8.127   6.821  0.0349 -2.1140 -0.2245
  689MOL0     H93013   7.784   7.982   6.662  0.7389 -2.5779  1.6311
  689MOL0     H93014   7.807   8.030   6.829 -0.1972  0.5765 -0.2393
  689MOL0     H93015   7.656   7.963   6.785  3.4481 -2.2971  2.7476
  690MOL0     O93016   3.149   6.293   4.847 -0.3344  0.2648  0.7859
  690MOL0     C93017   3.164   6.409   4.803  0.9608  0.9006  0.0050
  690MOL0     O93018   3.276   6.449   4.739  0.0162 -0.4044 -0.2173
  690MOL0     C93019   3.380   6.360   4.738  0.6562  0.6516 -0.2434
  690MOL0     C93020   3.425   6.317   4.610  0.5187  0.2382 -0.1600
  690MOL0     C93021   3.526   6.223   4.598 -0.4912 -0.0843  0.0467
  690MOL0     C93022   3.594   6.181   4.717 -0.6179  0.0435 -0.3535
  690MOL0     O93023   3.705   6.098   4.707  0.8185 -0.0627  0.7156
  690MOL0     C93024   3.825   6.158   4.762  0.3542 -0.2983 -0.2411
  690MOL0     C93025   3.954   6.090   4.703  0.3368  0.6764 -0.5118
  690MOL0     C93026   4.078   6.161   4.749  0.0794 -1.0559  0.4022
  690MOL0     C93027   4.103   6.166   4.908  0.4685 -0.5825  1.4394
  690MOL0     C93028   4.229   6.246   4.940 -0.3659  0.0125 -0.1129
  690MOL0     C93029   4.359   6.169   4.914  0.1772 -0.0784  0.1086
  690MOL0     C93030   4.481   6.232   4.982 -0.1382 -0.3210 -0.4805
  690MOL0     C93031   4.513   6.126   5.093 -0.9667 -0.8917 -0.0588
  690MOL0     N93032   4.651   6.159   5.155  0.0314  0.1940 -0.7510
  690MOL0     C93033   4.697   6.274   5.205 -0.7030  0.6913  0.0855
  690MOL0     C93034   4.828   6.259   5.241 -0.0240 -0.7126 -0.5847
  690MOL0     C93035   4.907   6.364   5.326 -0.0343 -0.2446 -0.3114
  690MOL0     C93036   5.054   6.375   5.294  0.1630  0.4263  0.1118
  690MOL0     C93037   5.117   6.485   5.384  0.0678 -0.1214 -0.3500
  690MOL0     C93038   5.264   6.497   5.347  0.2308  0.7367  0.0434
  690MOL0     O93039   5.345   6.419   5.435  0.8016 -0.3400 -0.1120
  690MOL0     C93040   5.482   6.443   5.440  0.1089  1.2746 -0.8998
  690MOL0     C93041   5.562   6.543   5.378 -0.0818  0.3565 -0.3820
  690MOL0     C93042   5.700   6.558   5.399  0.7494 -0.0536  0.7769
  690MOL0     C93043   5.765   6.487   5.496  1.4534  0.3349  0.8808
  690MOL0     C93044   5.917   6.492   5.517  0.9284 -0.6704  0.4036
  690MOL0     O93045   5.982   6.564   5.425  0.0593 -0.5241 -0.4410
  690MOL0     C93046   6.109   6.587   5.456  0.0998  0.1338 -0.5369
  690MOL0     C93047   6.209   6.535   5.372 -0.2223 -0.2025  0.3229
  690MOL0     C93048   6.345   6.557   5.413  0.7980 -0.3052 -0.0978
  690MOL0     C93049   6.378   6.639   5.520  0.5759 -0.0259  0.4549
  690MOL0     O93050   6.509   6.642   5.548 -0.7645 -0.1689 -0.6360
  690MOL0     C93051   6.567   6.765   5.580  0.1380 -1.2355  0.2215
  690MOL0     C93052   6.575   6.775   5.733  0.3159 -0.1962  0.4709
  690MOL0     C93053   6.688   6.872   5.783  0.4623 -0.0757 -0.8464
  690MOL0     C93054   6.829   6.819   5.780  0.3875  0.9341  0.2497
  690MOL0     C93055   6.920   6.920   5.853  0.0067 -0.1625  0.1303
  690MOL0     C93056   7.073   6.887   5.833  0.2863  0.0883 -0.3467
  690MOL0     C93057   7.150   7.017   5.848  0.0907  0.1374 -0.0681
  690MOL0     C93058   7.299   7.005   5.801 -0.0133  0.9148 -0.1178
  690MOL0    Cl93059   7.386   6.908   5.922  0.1008  0.0279  0.1383
  690MOL0     C93060   6.284   6.695   5.600  0.8109  0.4429  0.0565
  690MOL0     C93061   6.149   6.671   5.567 -0.4835  0.6390 -0.6848
  690MOL0     O93062   5.958   6.440   5.622  0.3830  0.0735  0.0762
  690MOL0     C93063   5.684   6.390   5.564 -0.2266  0.2107  0.0475
  690MOL0     C93064   5.548   6.362   5.536  0.3082 -0.1545  0.2569
  690MOL0     N93065   4.851   6.127   5.226 -0.8329  0.4928 -0.8788
  690MOL0     N93066   4.755   6.067   5.164 -0.2730  0.3156  0.0182
  690MOL0     C93067   3.550   6.227   4.841  0.5329  0.3586 -0.0327
  690MOL0     C93068   3.445   6.309   4.854  0.4875  0.2568 -0.6909
  690MOL0     C93069   3.039   6.498   4.797  0.2115 -0.0561 -0.4744
  690MOL0     C93070   3.034   6.590   4.680 -0.6874  1.0608 -0.1056
  690MOL0     C93071   2.921   6.665   4.656  0.5984  0.3844 -0.2931
  690MOL0     C93072   2.799   6.660   4.728 -1.1257  0.8458 -0.4679
  690MOL0     O93073   2.688   6.724   4.697  0.6160  0.0309 -0.3574
  690MOL0     C93074   2.702   6.844   4.607 -0.8278  0.9466 -0.1424
  690MOL0     C93075   2.581   6.935   4.593  0.8658  0.3040  0.7802
  690MOL0     C93076   2.446   6.861   4.560 -0.3426  0.3219 -0.5205
  690MOL0     C93077   2.323   6.886   4.647  0.4499 -0.8141 -0.4154
  690MOL0     C93078   2.278   7.029   4.654  0.1711  1.2940 -1.1872
  690MOL0     C93079   2.239   7.143   4.665  0.5071 -0.5910  0.4546
  690MOL0     C93080   2.807   6.578   4.838 -0.6058 -0.0219 -0.5227
  690MOL0     C93081   2.921   6.499   4.876 -0.1909 -0.7670 -0.5678
  690MOL0     C93082   2.894   6.421   5.004 -0.1852 -0.6051 -0.6184
  690MOL0     H93083   3.378   6.351   4.519  1.6159  0.9702 -0.4725
  690MOL0     H93084   3.563   6.197   4.499  2.2474 -1.7657  1.3950
  690MOL0     H93085   3.826   6.267   4.750  1.6594 -0.1999  0.5861
  690MOL0     H93086   3.824   6.136   4.869  2.1789  1.2451  0.1501
  690MOL0     H93087   3.946   6.083   4.594 -1.1066 -3.7264 -0.3150
  690MOL0     H93088   3.958   5.985   4.732  1.1360  1.2338  1.6508
  690MOL0     H93089   4.080   6.264   4.712  1.7888 -0.9061  0.8369
  690MOL0     H93090   4.171   6.127   4.703  1.3448  1.5022  0.8938
  690MOL0     H93091   4.015   6.208   4.958  0.4072  2.9198 -1.1985
  690MOL0     H93092   4.115   6.063   4.942  2.0966 -1.0060 -0.2901
  690MOL0     H93093   4.234   6.341   4.886  3.4770  0.2082  0.2569
  690MOL0     H93094   4.221   6.263   5.047 -0.9944 -1.8949  0.1647
  690MOL0     H93095   4.360   6.063   4.939  2.4184  0.1288  1.0927
  690MOL0     H93096   4.371   6.178   4.805 -1.4367  0.9938 -0.0166
  690MOL0     H93097   4.444   6.321   5.033 -0.4974  0.7594 -2.5445
  690MOL0     H93098   4.571   6.249   4.923  0.6280  0.7657  0.9425
  690MOL0     H93099   4.438   6.126   5.174  0.1702 -1.1538  1.0261
  690MOL0     H93100   4.519   6.026   5.050 -0.9099  0.0229 -2.3028
  690MOL0     H93101   4.637   6.364   5.214  0.7905  1.8211 -0.7829
  690MOL0     H93102   4.856   6.461   5.317 -0.6020 -0.6873 -2.5351
  690MOL0     H93103   4.897   6.343   5.433 -1.0549  0.6548 -0.2135
  690MOL0     H93104   5.106   6.279   5.299  1.4946  1.1747  1.7902
  690MOL0     H93105   5.058   6.414   5.192 -1.5870  2.9123  0.8934
  690MOL0     H93106   5.096   6.469   5.490 -2.4443 -0.4155 -0.8427
  690MOL0     H93107   5.069   6.581   5.365  1.1221  0.1561 -1.7529
  690MOL0     H93108   5.281   6.604   5.354  1.3618  0.8206 -2.6410
  690MOL0     H93109   5.278   6.466   5.243 -1.8977 -0.7277  0.1380
  690MOL0     H93110   5.513   6.606   5.304  1.2749  3.0113  0.8222
  690MOL0     H93111   5.749   6.644   5.356 -1.7318  2.9552  3.4482
  690MOL0     H93112   6.171   6.471   5.292  1.9076 -1.0085 -0.1430
  690MOL0     H93113   6.428   6.514   5.357  1.7019  0.1753  0.8477
  690MOL0     H93114   6.665   6.764   5.531  0.2394 -2.2969  0.4392
  690MOL0     H93115   6.512   6.854   5.545  2.3925  0.3443  0.4715
  690MOL0     H93116   6.483   6.813   5.778  0.3440  2.0641 -1.2148
  690MOL0     H93117   6.597   6.676   5.773  1.1002 -0.1529  0.1799
  690MOL0     H93118   6.688   6.956   5.713  0.0879 -2.3083 -3.7016
  690MOL0     H93119   6.653   6.901   5.882  0.8451 -2.7086  0.1373
  690MOL0     H93120   6.852   6.796   5.675 -0.6346 -0.9178  0.3831
  690MOL0     H93121   6.842   6.729   5.839 -0.4486  1.3294  1.0700
  690MOL0     H93122   6.909   6.914   5.961 -3.1764 -2.7215 -0.1695
  690MOL0     H93123   6.893   7.021   5.820  3.6454  1.4482  1.5020
  690MOL0     H93124   7.111   6.812   5.903  1.8729  3.0787  2.2204
  690MOL0     H93125   7.088   6.853   5.730  1.8911 -0.2131 -0.0492
  690MOL0     H93126   7.152   7.052   5.952 -1.0302 -4.4158  1.7136
  690MOL0     H93127   7.099   7.086   5.780 -1.3702  1.1969  1.9748
  690MOL0     H93128   7.308   6.957   5.703 -1.2239  0.4375 -0.0103
  690MOL0     H93129   7.346   7.102   5.787 -0.2439  0.6453 -3.6152
  690MOL0     H93130   6.301   6.763   5.683 -0.7961  0.9645 -0.0148
  690MOL0     H93131   6.066   6.713   5.623  0.7182 -0.0201  1.7745
  690MOL0     H93132   5.743   6.359   5.651  1.5556  0.9334 -0.8478
  690MOL0     H93133   5.484   6.309   5.606 -1.7513  3.3747  1.3309
  690MOL0     H93134   3.594   6.192   4.933  4.1824  0.4318 -1.5969
  690MOL0     H93135   3.404   6.330   4.952  1.9846 -1.5122  0.3951
  690MOL0     H93136   3.116   6.597   4.609 -2.0714 -1.3386 -2.1442
  690MOL0     H93137   2.932   6.727   4.567 -1.8803  1.2312 -0.0920
  690MOL0     H93138   2.723   6.805   4.507 -0.0869 -3.2904  1.4656
  690MOL0     H93139   2.789   6.905   4.630  0.0792 -0.1858 -0.4552
  690MOL0     H93140   2.602   7.020   4.527 -3.2425  1.8310  1.1049
  690MOL0     H93141   2.557   6.986   4.687 -0.5492  0.6682  0.2425
  690MOL0     H93142   2.466   6.753   4.555  2.6619  0.6199  2.2407
  690MOL0     H93143   2.409   6.895   4.462  2.5496  2.3798 -1.0302
  690MOL0     H93144   2.238   6.823   4.620  2.0961 -4.3901  1.8508
  690MOL0     H93145   2.347   6.846   4.746  1.6761 -1.5420 -0.9738
  690MOL0     H93146   2.192   7.234   4.696  0.9361 -0.7837  1.7428
  690MOL0     H93147   2.719   6.561   4.900  1.5046 -2.6795  2.0762
  690MOL0     H93148   2.982   6.373   5.048 -0.1512 -0.8531 -0.9571
  690MOL0     H93149   2.860   6.495   5.077  0.3998 -1.9437  1.0922
  690MOL0     H93150   2.810   6.351   4.998 -1.2378  0.4515  1.0353
  691MOL0     O93151   8.524   6.122   6.471  0.0988  1.3610  0.1263
  691MOL0     C93152   8.523   6.108   6.592 -0.0470 -0.1377  0.0192
  691MOL0     O93153   8.614   6.159   6.676 -0.3154  0.1615  0.4280
  691MOL0     C93154   8.693   6.263   6.625 -0.0949 -0.6489 -0.7887
  691MOL0     C93155   8.659   6.393   6.671  0.4820  0.6115  0.0072
  691MOL0     C93156   8.731   6.508   6.635  0.5771 -0.8519  0.0352
  691MOL0     C93157   8.850   6.491   6.561 -1.4779  0.6509  0.2291
  691MOL0     O93158   8.930   6.597   6.532  0.0904  0.2049 -0.3379
  691MOL0     C93159   8.894   6.727   6.533 -0.6048 -0.3114 -0.7383
  691MOL0     C93160   8.994   6.818   6.460  0.2574  0.1564 -0.6916
  691MOL0     C93161   9.142   6.819   6.505  0.6721 -1.0197  0.0277
  691MOL0     C93162   9.233   6.734   6.404  0.3050 -0.8114 -0.8553
  691MOL0     C93163   9.368   6.701   6.461  0.3170 -0.6768 -0.2964
  691MOL0     C93164   9.465   6.629   6.367  0.2908  0.2955 -0.3175
  691MOL0     C93165   9.503   6.721   6.249 -0.3076  0.1640 -0.0145
  691MOL0     C93166   9.634   6.677   6.177  0.1476  0.6450 -0.4828
  691MOL0     N93167   9.643   6.528   6.139 -0.4361 -0.8906 -1.0141
  691MOL0     C93168   9.718   6.442   6.209  0.2143  0.0779  0.5061
  691MOL0     C93169   9.719   6.325   6.142 -0.0167  0.3889  0.1366
  691MOL0     C93170   9.786   6.198   6.170  0.5174  0.5739 -0.3540
  691MOL0     C93171   9.927   6.193   6.105  0.6518  0.5375 -0.2075
  691MOL0     C93172   9.987   6.058   6.115 -0.9578 -0.2638  0.2058
  691MOL0     C93173  10.136   6.071   6.066 -0.2537 -0.2281  0.2629
  691MOL0     O93174  10.225   6.141   6.163  0.7426 -0.3023 -0.5774
  691MOL0     C93175  10.357   6.134   6.135 -0.5451  0.0430  0.2097
  691MOL0     C93176  10.432   6.198   6.227 -0.3531  0.7082 -0.4237
  691MOL0     C93177  10.570   6.193   6.221 -1.2993  0.2102 -0.1367
  691MOL0     C93178  10.642   6.144   6.113  0.6505 -0.6080  0.0512
  691MOL0     C93179  10.787   6.162   6.085 -0.2727  0.0437 -0.1344
  691MOL0     O93180  10.856   6.249   6.172 -0.2517  0.6290 -1.0943
  691MOL0     C93181  10.995   6.246   6.168  0.0174  0.0262  0.2924
  691MOL0     C93182  11.070   6.345   6.098 -0.3387  0.3753 -0.4762
  691MOL0     C93183  11.205   6.320   6.077  0.2300  0.3171 -0.5348
  691MOL0     C93184  11.277   6.213   6.129  0.3616  0.6275 -0.6395
  691MOL0     O93185  11.412   6.215   6.111  0.7262 -0.6808  0.1712
  691MOL0     C93186  11.490   6.114   6.181  0.5767 -0.6199 -0.1272
  691MOL0     C93187  11.636   6.139   6.141 -0.2237 -0.5510  0.3393
  691MOL0     C93188  11.701   6.249   6.229 -0.4793  0.0989  0.5582
  691MOL0     C93189  11.820   6.326   6.166  0.7719 -0.2635 -0.3928
  691MOL0     C93190  11.929   6.224   6.130  0.3806  0.3925 -0.0825
  691MOL0     C93191  12.060   6.296   6.098  0.6381 -0.3776 -0.1112
  691MOL0     C93192  12.170   6.208   6.030 -0.7248  0.0270 -0.3577
  691MOL0     C93193  12.296   6.272   5.987  0.6050 -0.5876 -0.5113
  691MOL0    Cl93194  12.386   6.155   5.883 -0.4082 -0.5114  0.0316
  691MOL0     C93195  11.204   6.119   6.196  0.0224  0.5231 -0.5634
  691MOL0     C93196  11.068   6.131   6.212  0.4433  0.3823  0.6985
  691MOL0     O93197  10.841   6.103   5.996 -0.3135 -0.2902  0.3256
  691MOL0     C93198  10.562   6.078   6.015  0.0795 -0.0795 -0.3927
  691MOL0     C93199  10.421   6.077   6.022 -0.2682  0.9487 -0.3669
  691MOL0     N93200   9.624   6.340   6.043  0.0038  0.2859 -0.2177
  691MOL0     N93201   9.596   6.461   6.031 -0.2349  0.6578  0.4153
  691MOL0     C93202   8.887   6.362   6.511 -0.1924  0.2354 -0.7304
  691MOL0     C93203   8.808   6.253   6.541  0.6469 -0.3957 -0.6046
  691MOL0     C93204   8.417   6.011   6.650 -0.1724 -1.7231  0.0703
  691MOL0     C93205   8.383   5.893   6.581 -0.5081  0.0079  0.5004
  691MOL0     C93206   8.275   5.818   6.633  0.1813  0.2845 -0.2361
  691MOL0     C93207   8.213   5.856   6.755 -0.3975 -0.0136 -0.5389
  691MOL0     O93208   8.108   5.791   6.814  0.1884  0.1852  0.0133
  691MOL0     C93209   8.024   5.707   6.732  0.3032 -0.4413 -0.4695
  691MOL0     C93210   7.896   5.705   6.807 -0.2211 -0.1498  0.5502
  691MOL0     C93211   7.791   5.627   6.724  0.2808 -0.3294 -0.3699
  691MOL0     C93212   7.648   5.643   6.787 -0.1129  0.1908  0.2353
  691MOL0     C93213   7.565   5.561   6.704 -0.3450 -0.2429 -0.1586
  691MOL0     C93214   7.508   5.478   6.632 -0.9224 -0.0932 -0.4624
  691MOL0     C93215   8.249   5.976   6.814  0.8662  0.2050 -0.3854
  691MOL0     C93216   8.344   6.061   6.763  0.0164  0.3380  0.2943
  691MOL0     C93217   8.357   6.195   6.831  0.9947  0.7173  0.2271
  691MOL0     H93218   8.570   6.396   6.734 -0.7075 -0.3004 -1.5557
  691MOL0     H93219   8.697   6.605   6.671 -2.9156 -1.5603 -0.9996
  691MOL0     H93220   8.797   6.738   6.485  0.5540  0.1084 -3.1458
  691MOL0     H93221   8.870   6.771   6.630  1.3929  2.1945 -1.2727
  691MOL0     H93222   8.945   6.915   6.476 -1.2913 -0.5714 -0.8446
  691MOL0     H93223   8.990   6.792   6.354  0.5430  0.9019 -0.8907
  691MOL0     H93224   9.155   6.775   6.604 -1.2082  0.0248  0.7896
  691MOL0     H93225   9.162   6.926   6.505 -0.6997 -0.7452  1.1589
  691MOL0     H93226   9.187   6.640   6.373  0.8724 -1.4988  0.3585
  691MOL0     H93227   9.241   6.799   6.316 -0.4377  0.7826  0.2085
  691MOL0     H93228   9.419   6.794   6.487  0.0389 -0.5939 -0.0470
  691MOL0     H93229   9.349   6.641   6.550 -3.3868 -0.0257 -0.4996
  691MOL0     H93230   9.559   6.598   6.414  1.9629  0.4033 -3.3474
  691MOL0     H93231   9.421   6.541   6.321  1.5933 -0.7902  0.4495
  691MOL0     H93232   9.520   6.823   6.284  2.5012 -0.3288  0.3473
  691MOL0     H93233   9.421   6.718   6.177 -1.3269  1.5725  1.0623
  691MOL0     H93234   9.626   6.752   6.098 -1.3016  1.3391  0.2742
  691MOL0     H93235   9.715   6.703   6.246  1.2632  0.6262 -1.7518
  691MOL0     H93236   9.765   6.466   6.304 -2.2878  1.7349  1.4178
  691MOL0     H93237   9.797   6.178   6.277  1.5933 -1.1070 -0.7474
  691MOL0     H93238   9.732   6.113   6.128 -1.2829  0.1879  2.4663
  691MOL0     H93239   9.931   6.223   5.999  1.8155 -0.2400 -0.4054
  691MOL0     H93240   9.990   6.259   6.165 -1.3277  2.1938  0.1584
  691MOL0     H93241   9.935   5.982   6.057  1.6712  0.4347 -3.3787
  691MOL0     H93242   9.993   6.033   6.222 -1.2762 -0.1062  0.2626
  691MOL0     H93243  10.144   6.129   5.973  3.2724 -0.9749 -0.0441
  691MOL0     H93244  10.173   5.974   6.032  0.6053  1.0843 -2.9962
  691MOL0     H93245  10.383   6.257   6.304 -2.7776 -0.7040 -0.7621
  691MOL0     H93246  10.630   6.249   6.291 -1.9001  0.1634  0.4265
  691MOL0     H93247  11.018   6.430   6.054 -2.8732 -1.7061 -1.7359
  691MOL0     H93248  11.262   6.397   6.026  2.4522 -3.0222 -3.5293
  691MOL0     H93249  11.482   6.123   6.290  1.3185  0.2305 -0.1295
  691MOL0     H93250  11.452   6.021   6.139 -0.7786  1.6372 -4.4682
  691MOL0     H93251  11.688   6.043   6.154 -1.1365 -1.1808 -0.5356
  691MOL0     H93252  11.634   6.157   6.034 -2.3873  0.1708  0.4665
  691MOL0     H93253  11.626   6.324   6.254 -1.8903 -0.2898 -2.1418
  691MOL0     H93254  11.739   6.199   6.319  1.3717 -0.9972 -0.7561
  691MOL0     H93255  11.862   6.393   6.241  0.3250  0.3930 -0.7218
  691MOL0     H93256  11.792   6.390   6.082 -0.1025 -0.7593 -0.4910
  691MOL0     H93257  11.886   6.178   6.040 -2.0684  0.7175  0.8376
  691MOL0     H93258  11.949   6.143   6.201  1.3660  0.2049 -0.5491
  691MOL0     H93259  12.022   6.372   6.029 -0.8506 -1.3954 -0.4396
  691MOL0     H93260  12.104   6.348   6.184 -1.7397  2.8985 -0.6869
  691MOL0     H93261  12.118   6.170   5.941  1.3835 -0.7023 -1.3431
  691MOL0     H93262  12.197   6.125   6.096 -1.5526  0.2856  0.3145
  691MOL0     H93263  12.266   6.357   5.924 -2.1044  0.0895  1.5157
  691MOL0     H93264  12.361   6.315   6.064 -0.9278  1.7725 -0.4093
  691MOL0     H93265  11.247   6.038   6.255 -0.8418  0.9013  0.6215
  691MOL0     H93266  11.024   6.049   6.267 -3.6311 -1.4514 -4.4509
  691MOL0     H93267  10.610   6.055   5.921 -0.6268 -0.3952 -0.6846
  691MOL0     H93268  10.373   6.004   5.958 -0.0789 -0.8572  1.4786
  691MOL0     H93269   8.983   6.346   6.464  2.0466  0.4560  3.3188
  691MOL0     H93270   8.839   6.157   6.499 -1.2485 -0.9890 -0.7506
  691MOL0     H93271   8.443   5.864   6.495  1.7811 -1.9585  2.5845
  691MOL0     H93272   8.239   5.727   6.585 -0.6249 -1.0861  2.7152
  691MOL0     H93273   8.069   5.607   6.732  2.4013  0.4358  1.2218
  691MOL0     H93274   8.016   5.739   6.628  0.2355  1.2264  0.0190
  691MOL0     H93275   7.872   5.812   6.809 -1.3407 -0.3929  1.6780
  691MOL0     H93276   7.892   5.665   6.909 -1.1407  2.1948  1.5071
  691MOL0     H93277   7.809   5.519   6.720  0.8378 -0.2225 -1.2401
  691MOL0     H93278   7.791   5.671   6.623 -0.1772 -0.1170 -0.2802
  691MOL0     H93279   7.631   5.605   6.888 -1.2234 -0.3177 -0.1330
  691MOL0     H93280   7.614   5.747   6.780 -0.9373  0.0293  1.5448
  691MOL0     H93281   7.458   5.409   6.566 -0.3885 -1.9024  0.9257
  691MOL0     H93282   8.204   5.999   6.911  3.3002 -0.0177  0.8782
  691MOL0     H93283   8.386   6.271   6.759  1.2017 -1.5180 -2.1938
  691MOL0     H93284   8.260   6.214   6.878  0.5340 -1.3481  0.2313
  691MOL0     H93285   8.423   6.184   6.918  0.7843 -0.0667  0.2943
  692MOL0     O93286   6.090   8.034   8.103 -0.7573 -0.6488  0.3768
  692MOL0     C93287   6.046   7.949   8.171 -0.2254  0.5036 -0.2503
  692MOL0     O93288   6.122   7.873   8.264 -0.6684  0.0558  0.7220
  692MOL0     C93289   6.248   7.924   8.301  0.3759 -0.3056  0.9643
  692MOL0     C93290   6.365   7.856   8.280 -0.1263  0.5687 -0.2770
  692MOL0     C93291   6.492   7.895   8.332 -0.3112  0.9165  0.7126
  692MOL0     C93292   6.503   8.013   8.397  0.0821  0.2296 -0.2569
  692MOL0     O93293   6.621   8.063   8.455 -0.0612 -0.3378  0.4477
  692MOL0     C93294   6.748   8.007   8.423  0.0506 -0.4228 -0.3157
  692MOL0     C93295   6.856   8.118   8.437  0.6500  0.2147 -0.7570
  692MOL0     C93296   6.996   8.063   8.437  0.2523  0.1005  0.9919
  692MOL0     C93297   7.063   8.034   8.575 -0.1438 -0.7277 -0.1101
  692MOL0     C93298   7.208   8.003   8.549 -0.2260 -0.2415 -0.0686
  692MOL0     C93299   7.274   7.976   8.682 -0.4353 -0.5267  0.3812
  692MOL0     C93300   7.407   7.906   8.654  0.9763 -0.6383  0.3204
  692MOL0     C93301   7.509   7.965   8.552  0.7088  0.0352 -0.7832
  692MOL0     N93302   7.566   8.090   8.605 -0.5002  0.1193  0.5710
  692MOL0     C93303   7.618   8.113   8.736  0.0158  0.3538 -0.7248
  692MOL0     C93304   7.652   8.241   8.730 -0.4285  0.3262  0.2026
  692MOL0     C93305   7.716   8.310   8.844  0.0134 -0.4384 -0.9224
  692MOL0     C93306   7.786   8.449   8.813 -0.0423  0.2917 -0.1284
  692MOL0     C93307   7.899   8.420   8.712 -0.9615 -0.1226  0.4057
  692MOL0     C93308   7.992   8.539   8.692  0.7461 -0.5410 -0.3546
  692MOL0     O93309   8.084   8.550   8.811 -0.6357  0.5639  0.7853
  692MOL0     C93310   8.178   8.645   8.792 -0.2168 -0.9723 -0.3961
  692MOL0     C93311   8.179   8.745   8.691 -0.1385  0.5058  0.2232
  692MOL0     C93312   8.285   8.845   8.679  0.2323 -0.2144 -0.2513
  692MOL0     C93313   8.393   8.845   8.768  0.5961  0.1894  0.4018
  692MOL0     C93314   8.499   8.945   8.754 -0.5821 -0.1660  0.0266
  692MOL0     O93315   8.607   8.915   8.829 -0.4894 -0.1859  0.2116
  692MOL0     C93316   8.732   8.961   8.785  0.8216  1.5785  0.0114
  692MOL0     C93317   8.767   9.093   8.802 -0.4020  0.3553 -0.0377
  692MOL0     C93318   8.892   9.150   8.765 -0.0456 -0.3163  0.3920
  692MOL0     C93319   8.991   9.068   8.703  0.4900  0.1561  0.3449
  692MOL0     O93320   9.118   9.105   8.661 -0.0185  0.8860 -0.3442
  692MOL0     C93321   9.160   9.244   8.686  0.5153  0.1603 -0.5618
  692MOL0     C93322   9.114   9.323   8.560  0.6333 -0.1057 -0.4054
  692MOL0     C93323   9.217   9.316   8.449 -0.0766  0.6510  1.1784
  692MOL0     C93324   9.307   9.442   8.432 -0.2058  0.5631  0.0826
  692MOL0     C93325   9.403   9.419   8.319  0.6066 -0.1290 -0.6879
  692MOL0     C93326   9.494   9.535   8.292 -0.1383 -0.3587 -0.3731
  692MOL0     C93327   9.617   9.532   8.378 -0.3872  0.1349  0.6281
  692MOL0     C93328   9.700   9.664   8.352 -0.0481  0.1253 -0.3377
  692MOL0    Cl93329   9.793   9.656   8.203 -0.4161  0.1080  0.0677
  692MOL0     C93330   8.954   8.934   8.678  0.3413  0.1417  1.4018
  692MOL0     C93331   8.833   8.876   8.723 -0.1393  0.4993  0.7469
  692MOL0     O93332   8.491   9.041   8.681 -0.3427 -0.6650 -0.0787
  692MOL0     C93333   8.389   8.741   8.866 -0.8885 -0.9927  0.3758
  692MOL0     C93334   8.285   8.648   8.877 -0.7122 -0.2365  0.6283
  692MOL0     N93335   7.623   8.298   8.609  0.1450 -0.9189 -0.2052
  692MOL0     N93336   7.556   8.209   8.541 -0.9180  0.9084  0.1603
  692MOL0     C93337   6.383   8.089   8.409 -0.3826  0.0234 -1.1618
  692MOL0     C93338   6.261   8.038   8.370 -0.2825  0.2064 -0.4702
  692MOL0     C93339   5.904   7.911   8.183  0.1167 -0.3367 -0.4816
  692MOL0     C93340   5.852   7.869   8.314  0.1735 -0.6112 -0.5325
  692MOL0     C93341   5.728   7.806   8.320  0.0280 -0.1806  0.3094
  692MOL0     C93342   5.654   7.794   8.201 -0.4599 -0.2228 -0.2790
  692MOL0     O93343   5.527   7.737   8.200  0.2443 -0.3845 -0.5961
  692MOL0     C93344   5.471   7.703   8.326  0.1106 -0.1255  0.7111
  692MOL0     C93345   5.323   7.666   8.299 -0.5654  0.3386  0.2409
  692MOL0     C93346   5.247   7.607   8.420  0.2321  0.4773 -0.4548
  692MOL0     C93347   5.269   7.461   8.460 -0.1504  0.6652  0.0263
  692MOL0     C93348   5.272   7.366   8.344 -1.1402 -0.4253 -1.1189
  692MOL0     C93349   5.245   7.283   8.262  0.9067 -0.4105 -0.0982
  692MOL0     C93350   5.701   7.844   8.079  0.2964 -0.4149 -1.0785
  692MOL0     C93351   5.822   7.906   8.064 -0.1514 -0.3990  0.0675
  692MOL0     C93352   5.871   7.954   7.926  0.3488 -0.5385 -0.6156
  692MOL0     H93353   6.370   7.763   8.224 -1.5917  0.2721  0.0515
  692MOL0     H93354   6.582   7.834   8.321 -0.6477  0.5572 -0.1009
  692MOL0     H93355   6.780   7.926   8.490 -2.0311  0.2638  1.6442
  692MOL0     H93356   6.751   7.962   8.324  3.5763 -1.0174 -0.0649
  692MOL0     H93357   6.845   8.180   8.526  3.2877 -2.1243  1.3498
  692MOL0     H93358   6.848   8.183   8.349  0.8926  0.2317 -0.7683
  692MOL0     H93359   7.058   8.127   8.373 -2.5065  1.7775 -0.2081
  692MOL0     H93360   6.995   7.968   8.383 -1.0415 -0.0520  1.2420
  692MOL0     H93361   7.045   8.124   8.634  0.5335 -1.0451  0.5930
  692MOL0     H93362   7.013   7.951   8.627  0.2945  0.3876  2.2267
  692MOL0     H93363   7.217   7.907   8.496  2.1266 -1.2860  2.0138
  692MOL0     H93364   7.264   8.082   8.499  0.6820  1.8372  3.8221
  692MOL0     H93365   7.292   8.069   8.736 -1.0133  0.8476 -1.6962
  692MOL0     H93366   7.206   7.918   8.744 -1.8652 -1.5017 -1.9690
  692MOL0     H93367   7.386   7.800   8.634 -0.6526 -0.4523  0.8155
  692MOL0     H93368   7.461   7.893   8.748  1.3139  1.1578  0.4087
  692MOL0     H93369   7.586   7.893   8.522 -0.2088 -1.8235  1.1183
  692MOL0     H93370   7.463   7.986   8.455  0.7761 -2.3369 -1.3953
  692MOL0     H93371   7.618   8.046   8.821 -1.8229  1.7506  0.4519
  692MOL0     H93372   7.638   8.324   8.920  0.8220 -1.6321  0.1846
  692MOL0     H93373   7.798   8.246   8.878  1.0184  0.4870 -1.5289
  692MOL0     H93374   7.710   8.507   8.759 -0.6835 -0.6058 -0.2041
  692MOL0     H93375   7.806   8.500   8.908 -4.0039 -3.2250  2.9409
  692MOL0     H93376   7.866   8.394   8.611  1.0718  1.3805 -0.7243
  692MOL0     H93377   7.962   8.339   8.750  1.0554  1.4126  0.4667
  692MOL0     H93378   7.933   8.631   8.692  3.8713  1.5773 -0.3509
  692MOL0     H93379   8.036   8.535   8.593 -0.1124  2.4039 -0.9604
  692MOL0     H93380   8.101   8.764   8.618  0.2082 -0.0969 -0.3130
  692MOL0     H93381   8.290   8.899   8.584 -2.9803 -1.9155 -1.5639
  692MOL0     H93382   8.692   9.157   8.846  0.4087  0.8287  0.6989
  692MOL0     H93383   8.908   9.256   8.786 -1.0238  0.2917 -1.7270
  692MOL0     H93384   9.120   9.276   8.783  3.0345 -1.1712  1.0260
  692MOL0     H93385   9.266   9.257   8.709  0.0799  1.1545  1.0421
  692MOL0     H93386   9.020   9.280   8.524  2.0449 -2.1001 -1.9631
  692MOL0     H93387   9.094   9.427   8.589 -0.0228 -0.0180 -1.1259
  692MOL0     H93388   9.286   9.232   8.461  0.0492  0.8792  2.2411
  692MOL0     H93389   9.156   9.286   8.364 -1.7053 -1.3341  2.9322
  692MOL0     H93390   9.372   9.456   8.518 -1.9800  1.5645  1.3348
  692MOL0     H93391   9.244   9.528   8.406 -1.0797 -0.1353 -0.1786
  692MOL0     H93392   9.327   9.399   8.243 -2.7424  2.8990  1.5568
  692MOL0     H93393   9.462   9.329   8.341  0.3657 -0.2373 -0.4800
  692MOL0     H93394   9.511   9.536   8.184 -2.4144  1.8062 -0.8323
  692MOL0     H93395   9.441   9.629   8.312  0.6151  0.9283 -3.6994
  692MOL0     H93396   9.677   9.445   8.350 -1.7483 -0.6774  0.1427
  692MOL0     H93397   9.596   9.533   8.485  1.5091  1.6665  1.0248
  692MOL0     H93398   9.628   9.746   8.346 -2.1693 -1.5322  0.7237
  692MOL0     H93399   9.766   9.671   8.439 -1.2477  0.9121  0.5367
  692MOL0     H93400   9.020   8.864   8.627 -0.0590 -0.0739  1.1753
  692MOL0     H93401   8.814   8.771   8.702 -0.2908  0.9237 -1.4816
  692MOL0     H93402   8.472   8.748   8.936 -0.7885  0.9447  0.1201
  692MOL0     H93403   8.287   8.588   8.968  0.6073  0.0956  0.8422
  692MOL0     H93404   6.389   8.178   8.472 -0.1026 -0.8841  0.1172
  692MOL0     H93405   6.176   8.102   8.393  0.4661 -0.0288  3.6918
  692MOL0     H93406   5.898   7.909   8.404 -0.9238  6.0737 -2.3878
  692MOL0     H93407   5.678   7.784   8.414  0.2024 -0.6180  0.3011
  692MOL0     H93408   5.465   7.789   8.393  0.2968  0.5684 -0.1415
  692MOL0     H93409   5.527   7.621   8.370  0.0880  0.3959  1.7327
  692MOL0     H93410   5.321   7.595   8.216  1.6122  1.7497 -1.1372
  692MOL0     H93411   5.279   7.763   8.276  1.9591  1.3530 -0.7660
  692MOL0     H93412   5.138   7.616   8.414  0.2314  0.0933 -1.1889
  692MOL0     H93413   5.285   7.665   8.504  3.1794 -1.8206 -0.0199
  692MOL0     H93414   5.365   7.457   8.511  0.5830  1.5152 -1.2132
  692MOL0     H93415   5.203   7.412   8.532  0.6136 -0.3730  0.0346
  692MOL0     H93416   5.229   7.207   8.188 -2.3931  0.9508 -0.9156
  692MOL0     H93417   5.642   7.836   7.988  2.5528  2.0975 -2.9499
  692MOL0     H93418   5.918   8.052   7.938 -0.6172  0.0569 -1.5020
  692MOL0     H93419   5.934   7.876   7.883 -0.3800 -2.0336  0.9143
  692MOL0     H93420   5.787   7.976   7.859 -0.7292  0.8436  1.0917
  693MOL0     O93421   6.911   0.285   2.735 -0.1504  0.1346  0.3693
  693MOL0     C93422   6.922   0.263   2.855 -1.3193  1.0239 -1.1336
  693MOL0     O93423   7.029   0.186   2.907  0.3557 -0.2599 -0.4698
  693MOL0     C93424   7.142   0.165   2.829  0.4958  0.2930  0.4479
  693MOL0     C93425   7.138   0.093   2.713 -0.3636  1.2243 -0.1071
  693MOL0     C93426   7.256   0.070   2.639  0.3060  0.2595 -0.4573
  693MOL0     C93427   7.374   0.132   2.676  0.1797  0.6951 -0.1955
  693MOL0     O93428   7.483   0.113   2.599  0.1807  0.0988 -0.5503
  693MOL0     C93429   7.620   0.119   2.652 -0.1338  0.0974 -0.9954
  693MOL0     C93430   7.653   0.004   2.752  1.3015 -0.0636 -0.1997
  693MOL0     C93431   7.638  -0.126   2.672  0.6828  0.3937  0.1152
  693MOL0     C93432   7.781  -0.180   2.632 -0.1971  0.8332  0.0734
  693MOL0     C93433   7.759  -0.336   2.625 -0.6920 -0.0621  0.2272
  693MOL0     C93434   7.869  -0.396   2.537  0.4121  0.5795  0.3837
  693MOL0     C93435   8.016  -0.384   2.588  0.2278  0.7635  0.4347
  693MOL0     C93436   8.039  -0.467   2.710  0.1246  0.9275 -0.3308
  693MOL0     N93437   8.183  -0.493   2.734 -0.1321  0.4707  0.4448
  693MOL0     C93438   8.258  -0.603   2.699  0.9179  0.1228 -0.3172
  693MOL0     C93439   8.377  -0.572   2.750  0.1334  0.4854  0.4871
  693MOL0     C93440   8.499  -0.660   2.735 -0.0829  0.0192  0.3327
  693MOL0     C93441   8.599  -0.600   2.635  0.4842 -1.0189 -0.6247
  693MOL0     C93442   8.541  -0.565   2.496  0.9897 -0.0615  0.6143
  693MOL0     C93443   8.658  -0.498   2.424  0.1312  0.3521  0.1440
  693MOL0     O93444   8.772  -0.579   2.408  0.1086  1.1212  0.1551
  693MOL0     C93445   8.876  -0.530   2.346  0.6833 -1.0619 -0.7464
  693MOL0     C93446   8.884  -0.398   2.294 -0.0037  0.4313 -1.1482
  693MOL0     C93447   9.007  -0.354   2.240  0.1090 -0.0205 -0.4796
  693MOL0     C93448   9.121  -0.431   2.239  0.3283  1.0320 -0.3897
  693MOL0     C93449   9.243  -0.374   2.175 -0.8806  0.7698 -0.4224
  693MOL0     O93450   9.242  -0.245   2.147  0.2085 -0.2545 -0.3887
  693MOL0     C93451   9.363  -0.189   2.102  0.0884  0.2774 -0.4063
  693MOL0     C93452   9.414  -0.208   1.971  1.0537  0.5913 -0.2437
  693MOL0     C93453   9.522  -0.140   1.919  0.0818  0.3635 -0.5382
  693MOL0     C93454   9.600  -0.061   2.007  0.5269  0.0356  0.1826
  693MOL0     O93455   9.709   0.008   1.948  0.0762 -0.1679 -0.9868
  693MOL0     C93456   9.798   0.073   2.037  0.3796  0.4605  0.8585
  693MOL0     C93457   9.787   0.227   2.028 -0.1911  0.0473  0.0383
  693MOL0     C93458   9.909   0.287   2.086 -0.7510 -0.9461  0.2945
  693MOL0     C93459   9.925   0.441   2.070 -0.2084  0.7271  0.4939
  693MOL0     C93460  10.068   0.476   2.129 -0.5677 -0.5429  0.3494
  693MOL0     C93461  10.120   0.617   2.102  0.5799 -0.6341  0.2297
  693MOL0     C93462  10.207   0.680   2.222 -0.2644  2.1112 -0.0546
  693MOL0     C93463  10.212   0.831   2.220 -0.1592 -0.1540 -0.5826
  693MOL0    Cl93464  10.287   0.904   2.360 -0.1118  0.0069  0.0773
  693MOL0     C93465   9.552  -0.038   2.137  0.0098 -0.4533  0.1782
  693MOL0     C93466   9.434  -0.104   2.178  0.2432 -0.1423  0.3364
  693MOL0     O93467   9.333  -0.455   2.147  0.4547  0.1735  0.1651
  693MOL0     C93468   9.114  -0.560   2.298  0.4924 -0.5446  0.6225
  693MOL0     C93469   8.992  -0.608   2.348  1.2025 -0.0451 -0.2249
  693MOL0     N93470   8.377  -0.457   2.828  0.1122 -0.3728  0.6304
  693MOL0     N93471   8.260  -0.409   2.804 -0.7972 -0.1043  1.0319
  693MOL0     C93472   7.378   0.223   2.787 -0.8142  0.3835 -0.1417
  693MOL0     C93473   7.256   0.235   2.861 -0.5345  0.8934 -0.0691
  693MOL0     C93474   6.820   0.317   2.954 -0.0346  0.3892 -0.0647
  693MOL0     C93475   6.845   0.307   3.094 -0.0233  0.2635  0.3603
  693MOL0     C93476   6.742   0.345   3.190 -0.5885  0.1087  0.1144
  693MOL0     C93477   6.620   0.391   3.156 -0.6994 -0.6193 -0.3828
  693MOL0     O93478   6.517   0.428   3.241 -0.0233  0.3719 -0.9521
  693MOL0     C93479   6.537   0.437   3.382  0.8494  0.8153  0.7078
  693MOL0     C93480   6.624   0.556   3.418 -0.8382 -0.2038 -0.4003
  693MOL0     C93481   6.578   0.688   3.373 -0.5966  0.1588  0.7181
  693MOL0     C93482   6.687   0.797   3.412 -0.1413  0.5859  0.3381
  693MOL0     C93483   6.670   0.921   3.343  0.0215 -0.6196 -0.1853
  693MOL0     C93484   6.641   1.012   3.264  0.6540 -0.0953 -0.8473
  693MOL0     C93485   6.593   0.395   3.012  0.3566  0.5642 -0.5974
  693MOL0     C93486   6.693   0.368   2.920  0.4750  0.7510  0.4107
  693MOL0     C93487   6.638   0.383   2.774  0.4560  0.3179  0.8026
  693MOL0     H93488   7.042   0.061   2.674  0.1735 -1.7618  0.7234
  693MOL0     H93489   7.260   0.000   2.556 -0.3021  2.4068 -2.4125
  693MOL0     H93490   7.692   0.129   2.570 -2.1177  1.9467 -2.6367
  693MOL0     H93491   7.634   0.209   2.713 -2.5136 -1.7227  2.6298
  693MOL0     H93492   7.577   0.003   2.831 -0.6376  0.9201 -1.9429
  693MOL0     H93493   7.748   0.009   2.805  1.8589 -3.5017 -0.6019
  693MOL0     H93494   7.581  -0.121   2.579  0.5084 -0.7771  0.1362
  693MOL0     H93495   7.596  -0.206   2.735 -0.7078 -1.1659 -2.6229
  693MOL0     H93496   7.805  -0.129   2.538  1.6162  1.1454  0.6821
  693MOL0     H93497   7.855  -0.144   2.704 -0.6140  5.0313 -1.3002
  693MOL0     H93498   7.761  -0.389   2.721 -1.4410 -0.1578  0.1976
  693MOL0     H93499   7.658  -0.363   2.591 -1.0360 -0.0749  1.2231
  693MOL0     H93500   7.834  -0.498   2.518 -0.6113  0.9166  0.3952
  693MOL0     H93501   7.855  -0.336   2.447  0.1940  1.0704  0.7382
  693MOL0     H93502   8.054  -0.281   2.594  0.9075  0.6237 -0.9498
  693MOL0     H93503   8.077  -0.420   2.505 -1.0441 -0.1400 -0.1344
  693MOL0     H93504   8.007  -0.405   2.794 -1.1529 -0.0028 -0.1006
  693MOL0     H93505   7.980  -0.559   2.708  2.8627 -1.0401  1.3739
  693MOL0     H93506   8.231  -0.694   2.647  0.9704 -0.9157  1.4221
  693MOL0     H93507   8.539  -0.657   2.837  2.9554  2.2297 -0.7687
  693MOL0     H93508   8.473  -0.762   2.706 -0.9345  0.3905 -0.2585
  693MOL0     H93509   8.643  -0.509   2.676 -0.1178 -0.9279 -0.1680
  693MOL0     H93510   8.678  -0.676   2.638  0.1295 -1.3544  0.5758
  693MOL0     H93511   8.462  -0.490   2.509 -0.3476 -1.6791  2.3429
  693MOL0     H93512   8.501  -0.657   2.452 -0.9003  0.6468  0.7433
  693MOL0     H93513   8.688  -0.411   2.483  0.9131  0.0216  0.2420
  693MOL0     H93514   8.624  -0.473   2.323 -0.0607 -1.1850 -0.1977
  693MOL0     H93515   8.803  -0.326   2.296 -0.0259  0.4352 -1.9544
  693MOL0     H93516   9.010  -0.255   2.196  0.4875  0.2466  0.1345
  693MOL0     H93517   9.341  -0.266   1.915  0.5271 -1.3515  2.2834
  693MOL0     H93518   9.549  -0.151   1.814  1.2489  0.6886 -0.2827
  693MOL0     H93519   9.781   0.046   2.142 -1.5835 -0.0341  0.4564
  693MOL0     H93520   9.897   0.041   2.003  1.6217  4.6449  0.0735
  693MOL0     H93521   9.785   0.244   1.920 -5.9346  1.4870  0.0831
  693MOL0     H93522   9.693   0.271   2.062  0.5884  2.7485 -1.0663
  693MOL0     H93523   9.920   0.251   2.189  0.0772 -1.7904 -0.0719
  693MOL0     H93524   9.986   0.249   2.019 -2.4776  0.3552 -2.6155
  693MOL0     H93525   9.845   0.487   2.130  0.7159  2.0363  0.7668
  693MOL0     H93526   9.910   0.470   1.966  1.8811  1.7196  0.4314
  693MOL0     H93527  10.143   0.411   2.083 -1.0394 -0.5082 -0.4828
  693MOL0     H93528  10.073   0.459   2.237  2.1785 -0.1866  0.3511
  693MOL0     H93529  10.161   0.622   2.001 -3.8322 -0.0173 -1.7742
  693MOL0     H93530  10.033   0.681   2.084  1.0559 -0.5500 -2.0648
  693MOL0     H93531  10.306   0.635   2.236 -0.2159  2.8221  2.4391
  693MOL0     H93532  10.159   0.656   2.317  1.2033 -3.1595 -0.3427
  693MOL0     H93533  10.280   0.866   2.142  0.6222  1.6167  0.8288
  693MOL0     H93534  10.116   0.877   2.195 -0.3554 -0.0982  0.2628
  693MOL0     H93535   9.608   0.010   2.217 -0.3107  0.5277 -0.1664
  693MOL0     H93536   9.386  -0.072   2.271 -1.2093  3.2470 -1.4036
  693MOL0     H93537   9.206  -0.616   2.291  0.6457 -0.5087  2.0376
  693MOL0     H93538   9.002  -0.705   2.396  0.2275  0.3143  0.7731
  693MOL0     H93539   7.466   0.276   2.823 -0.5528 -0.5727  0.6865
  693MOL0     H93540   7.246   0.305   2.943 -0.0683  1.0180 -0.1129
  693MOL0     H93541   6.939   0.265   3.126 -0.0581 -0.9952 -1.0945
  693MOL0     H93542   6.767   0.317   3.292 -1.1885  0.2084  0.2919
  693MOL0     H93543   6.569   0.336   3.410  2.7563  1.0973 -0.3204
  693MOL0     H93544   6.444   0.456   3.437  0.0916 -1.8397  0.4720
  693MOL0     H93545   6.721   0.533   3.372 -0.2162 -0.7365  1.1078
  693MOL0     H93546   6.640   0.553   3.526 -1.6790 -0.6293 -0.2827
  693MOL0     H93547   6.487   0.716   3.426 -0.4372 -2.1628  2.3652
  693MOL0     H93548   6.560   0.681   3.265  2.4798  2.2736 -0.0724
  693MOL0     H93549   6.683   0.826   3.518  0.4631  2.8334 -0.2031
  693MOL0     H93550   6.788   0.762   3.391 -0.2583 -0.0714  0.8531
  693MOL0     H93551   6.594   1.092   3.210  1.7779  0.7332 -0.6340
  693MOL0     H93552   6.491   0.426   2.994 -0.6946 -1.6701  1.0160
  693MOL0     H93553   6.707   0.432   2.705 -0.0462  0.1846  0.2018
  693MOL0     H93554   6.616   0.285   2.732  0.5011  1.7387 -2.8250
  693MOL0     H93555   6.548   0.444   2.761  0.0349 -0.7319 -1.8082
  694MOL0     O93556   6.940   3.406   5.717  0.2236  0.2230 -0.2416
  694MOL0     C93557   7.028   3.316   5.702  1.1883  0.7616 -0.3966
  694MOL0     O93558   6.999   3.178   5.709 -0.3957 -0.0798  0.1001
  694MOL0     C93559   6.874   3.130   5.747  0.6534  0.1780  0.3973
  694MOL0     C93560   6.754   3.156   5.679  0.1727 -1.1120  0.4215
  694MOL0     C93561   6.640   3.093   5.702  0.1970  0.4564  0.6009
  694MOL0     C93562   6.630   2.998   5.806 -0.3041 -0.6284  0.0009
  694MOL0     O93563   6.519   2.930   5.808 -1.0680  0.2471  0.1950
  694MOL0     C93564   6.459   2.931   5.940 -0.1027 -0.1772  0.3817
  694MOL0     C93565   6.311   2.880   5.927  0.7783 -0.5377  0.2294
  694MOL0     C93566   6.242   2.848   6.057  0.7478 -0.2044 -0.3292
  694MOL0     C93567   6.090   2.833   6.045  1.1359 -0.1999  0.0442
  694MOL0     C93568   6.009   2.808   6.174 -0.5370 -0.5649 -0.0307
  694MOL0     C93569   5.863   2.839   6.154  0.3049 -0.4920  0.4028
  694MOL0     C93570   5.787   2.769   6.276  0.1677 -0.0667 -0.2352
  694MOL0     C93571   5.650   2.840   6.317  0.2841  0.0046 -0.7080
  694MOL0     N93572   5.586   2.774   6.431 -0.2012  0.2019 -0.5656
  694MOL0     C93573   5.499   2.671   6.434  1.3280 -0.4431  0.0436
  694MOL0     C93574   5.468   2.642   6.562  0.1015 -0.7490  0.0441
  694MOL0     C93575   5.393   2.518   6.609 -0.0866 -0.4022  0.4196
  694MOL0     C93576   5.498   2.402   6.588 -0.3664 -0.3385 -0.6551
  694MOL0     C93577   5.601   2.396   6.705  0.3896 -0.0041  0.0412
  694MOL0     C93578   5.730   2.315   6.681  0.2705 -1.4690 -0.2098
  694MOL0     O93579   5.791   2.368   6.558  0.3247  0.0189 -0.3243
  694MOL0     C93580   5.924   2.407   6.554  0.2021 -0.3364 -0.4637
  694MOL0     C93581   5.974   2.474   6.439  0.5602 -0.2847 -0.3027
  694MOL0     C93582   6.103   2.518   6.428 -0.6376 -0.4375  0.0668
  694MOL0     C93583   6.197   2.481   6.523 -0.4325  0.2540 -1.0934
  694MOL0     C93584   6.339   2.517   6.506 -0.0091  0.5173 -0.0027
  694MOL0     O93585   6.365   2.616   6.419 -0.1720  0.2412 -0.3100
  694MOL0     C93586   6.488   2.658   6.376 -0.6483  0.2979 -0.8806
  694MOL0     C93587   6.511   2.794   6.342 -0.3472  0.4230 -0.3624
  694MOL0     C93588   6.634   2.832   6.281  1.2733 -0.6269 -0.6902
  694MOL0     C93589   6.737   2.743   6.264  0.5990 -0.0441 -0.6102
  694MOL0     O93590   6.849   2.806   6.212  0.3536  0.1922  1.0989
  694MOL0     C93591   6.964   2.717   6.185 -0.4828 -0.0014 -1.0170
  694MOL0     C93592   7.076   2.803   6.127 -0.4789 -0.5622 -0.1526
  694MOL0     C93593   7.106   2.756   5.979  0.2336  0.0537 -0.0151
  694MOL0     C93594   7.227   2.826   5.919  0.0637  0.2537  0.3080
  694MOL0     C93595   7.356   2.742   5.921 -0.2031  0.6889 -1.1823
  694MOL0     C93596   7.486   2.798   5.856  0.0961  0.6333 -0.2540
  694MOL0     C93597   7.542   2.929   5.923  0.3292  1.0464  0.5193
  694MOL0     C93598   7.680   2.953   5.859  0.4676 -0.5636 -0.4017
  694MOL0    Cl93599   7.731   3.127   5.888  0.1635 -0.0391  0.0585
  694MOL0     C93600   6.720   2.609   6.296 -0.6150  0.6356 -0.2307
  694MOL0     C93601   6.599   2.565   6.351 -0.1682  1.0878  0.0625
  694MOL0     O93602   6.422   2.450   6.576 -0.0256 -0.3065 -1.1929
  694MOL0     C93603   6.148   2.410   6.636 -0.2948  0.4162  0.9476
  694MOL0     C93604   6.019   2.388   6.661  0.2414 -0.5642 -0.2862
  694MOL0     N93605   5.522   2.741   6.642 -0.5773 -1.3614 -0.0657
  694MOL0     N93606   5.598   2.818   6.565 -0.3269  0.5128  1.0875
  694MOL0     C93607   6.742   2.976   5.891 -0.5878  0.6487  0.2438
  694MOL0     C93608   6.864   3.039   5.854  0.3431 -0.3766 -0.6685
  694MOL0     C93609   7.170   3.354   5.675 -0.2804  0.2529 -0.9954
  694MOL0     C93610   7.276   3.260   5.702  0.3890 -0.5809 -0.3548
  694MOL0     C93611   7.410   3.293   5.682 -1.0488 -0.0000  0.6889
  694MOL0     C93612   7.455   3.418   5.636  0.2774 -0.1499 -0.2341
  694MOL0     O93613   7.587   3.443   5.628  0.7724 -0.2011  0.1753
  694MOL0     C93614   7.637   3.534   5.528 -0.2873  1.0882 -0.9423
  694MOL0     C93615   7.791   3.521   5.521  0.1321  0.7624  0.9744
  694MOL0     C93616   7.867   3.650   5.546  0.1581 -0.2127  0.2365
  694MOL0     C93617   7.820   3.761   5.452  0.0858 -0.4387 -0.1949
  694MOL0     C93618   7.890   3.886   5.477 -0.6755 -0.0503 -0.0292
  694MOL0     C93619   7.927   4.003   5.489  0.0507 -0.5652 -0.3910
  694MOL0     C93620   7.356   3.509   5.598  0.1043 -0.7297 -0.1779
  694MOL0     C93621   7.218   3.481   5.617 -0.0936  0.3596 -0.7484
  694MOL0     C93622   7.130   3.589   5.552 -0.4419  0.2897 -0.3071
  694MOL0     H93623   6.758   3.243   5.614 -4.5069  0.0921  1.3816
  694MOL0     H93624   6.555   3.108   5.636  0.9933 -2.3005 -1.2680
  694MOL0     H93625   6.523   2.881   6.013  1.6166 -0.9177 -1.5207
  694MOL0     H93626   6.437   3.033   5.973 -0.1997 -0.2819  0.6438
  694MOL0     H93627   6.303   2.791   5.863 -0.3962 -0.7983  0.7105
  694MOL0     H93628   6.263   2.958   5.868 -2.0013 -0.5771  2.2412
  694MOL0     H93629   6.271   2.922   6.132  2.5563 -0.4398 -0.7532
  694MOL0     H93630   6.274   2.748   6.086 -0.4619 -0.5266 -0.0324
  694MOL0     H93631   6.049   2.927   6.006  0.7753 -0.3846 -0.0259
  694MOL0     H93632   6.073   2.745   5.983  2.9589 -1.1844  0.8863
  694MOL0     H93633   6.022   2.703   6.204  0.0611 -0.9643 -1.5745
  694MOL0     H93634   6.051   2.874   6.250  1.5284 -1.8440  0.0188
  694MOL0     H93635   5.848   2.947   6.148  0.2396 -0.5546 -0.9627
  694MOL0     H93636   5.822   2.795   6.063  0.3100 -1.3527  0.8032
  694MOL0     H93637   5.854   2.765   6.362  1.2434 -1.1866 -1.0942
  694MOL0     H93638   5.768   2.664   6.253 -0.1600 -0.4597  1.6591
  694MOL0     H93639   5.672   2.943   6.347  1.4609 -0.6906  0.9632
  694MOL0     H93640   5.581   2.840   6.232  0.0245  1.3296 -0.5260
  694MOL0     H93641   5.463   2.619   6.346  1.1175 -0.0224 -0.1192
  694MOL0     H93642   5.366   2.527   6.714  0.8659  0.3280  0.6064
  694MOL0     H93643   5.300   2.494   6.557  0.3410  0.7618 -0.9444
  694MOL0     H93644   5.450   2.307   6.564 -1.5328 -0.1179  0.6637
  694MOL0     H93645   5.559   2.428   6.501  1.0152  0.2139  0.4410
  694MOL0     H93646   5.548   2.363   6.795 -0.1141 -2.2533 -0.9927
  694MOL0     H93647   5.638   2.496   6.727  0.2964  0.1272 -0.3829
  694MOL0     H93648   5.693   2.213   6.671 -0.7106 -0.9501 -2.2945
  694MOL0     H93649   5.795   2.325   6.769 -0.9486 -2.0981  0.7979
  694MOL0     H93650   5.905   2.488   6.357  0.4887  2.6894  0.1594
  694MOL0     H93651   6.141   2.572   6.343  0.8099 -0.3505  0.7286
  694MOL0     H93652   6.435   2.859   6.384 -0.8241  0.3066 -1.0414
  694MOL0     H93653   6.653   2.934   6.248  1.3780 -1.0281 -1.9404
  694MOL0     H93654   6.990   2.666   6.278  0.3932  1.3968 -0.4763
  694MOL0     H93655   6.934   2.639   6.114 -0.2971 -1.5453  0.5265
  694MOL0     H93656   7.054   2.910   6.133 -0.4928 -0.6349  1.2631
  694MOL0     H93657   7.164   2.790   6.190  1.6558  2.5335 -2.2512
  694MOL0     H93658   7.117   2.647   5.975 -0.0941  0.0252 -0.1347
  694MOL0     H93659   7.018   2.778   5.918  0.7057 -1.1626 -1.1901
  694MOL0     H93660   7.252   2.921   5.966  2.8318 -0.9380  1.4502
  694MOL0     H93661   7.198   2.853   5.816 -4.4127 -1.1106  0.9886
  694MOL0     H93662   7.334   2.643   5.880  0.4236 -0.1995  0.5003
  694MOL0     H93663   7.374   2.722   6.027 -2.9874  1.4583 -0.4756
  694MOL0     H93664   7.568   2.726   5.853  0.7112  1.3641 -1.6557
  694MOL0     H93665   7.459   2.827   5.754  0.2261 -0.7819 -0.7160
  694MOL0     H93666   7.560   2.921   6.030 -0.1339  1.3805  0.6241
  694MOL0     H93667   7.488   3.020   5.895  0.1267  0.1351 -2.5214
  694MOL0     H93668   7.748   2.879   5.902 -0.6952 -1.5700 -0.2312
  694MOL0     H93669   7.680   2.943   5.750  1.5658 -0.9390 -0.3787
  694MOL0     H93670   6.799   2.540   6.269 -2.4109 -1.2199 -1.0280
  694MOL0     H93671   6.584   2.460   6.375 -0.0859  1.2091  0.6681
  694MOL0     H93672   6.224   2.388   6.710  1.4801  0.3905 -0.8070
  694MOL0     H93673   6.012   2.340   6.758  3.4541 -2.4628 -0.8559
  694MOL0     H93674   6.727   2.906   5.973 -0.0714  1.5045  1.0909
  694MOL0     H93675   6.954   3.016   5.911 -0.8449 -2.4146  0.4924
  694MOL0     H93676   7.249   3.168   5.751 -0.6686 -0.4681 -0.7063
  694MOL0     H93677   7.483   3.221   5.720  0.6996  2.5867  2.5320
  694MOL0     H93678   7.610   3.635   5.561  2.7289  1.1007  1.9534
  694MOL0     H93679   7.593   3.519   5.428 -2.8674  0.9267  0.1353
  694MOL0     H93680   7.826   3.487   5.424  2.8348  1.6023  1.5785
  694MOL0     H93681   7.830   3.442   5.586  1.7100  1.0058  0.3585
  694MOL0     H93682   7.976   3.651   5.534  0.4775  2.1131  2.4352
  694MOL0     H93683   7.844   3.678   5.649  1.2506  3.0670 -0.2992
  694MOL0     H93684   7.840   3.733   5.348  1.1152 -2.8951  0.5811
  694MOL0     H93685   7.719   3.790   5.482  1.0891  2.1862  0.9646
  694MOL0     H93686   7.963   4.104   5.494  0.4006 -0.7424  1.7967
  694MOL0     H93687   7.397   3.589   5.537  0.1966 -2.9013 -3.1798
  694MOL0     H93688   7.058   3.642   5.615  1.2357 -0.1751  2.1426
  694MOL0     H93689   7.177   3.666   5.490 -2.1157  0.1720 -1.8126
  694MOL0     H93690   7.067   3.546   5.474 -2.9731  4.4182 -0.8315
  695MOL0     O93691   8.145   4.857   2.010  0.2652  0.6394 -0.2079
  695MOL0     C93692   8.095   4.922   1.920  0.4052 -0.3450  0.3901
  695MOL0     O93693   8.169   4.962   1.811 -0.2722 -0.2361 -0.2013
  695MOL0     C93694   8.298   4.917   1.778 -0.1189  0.2180 -0.1968
  695MOL0     C93695   8.400   5.002   1.726  0.5703  0.2107 -0.2526
  695MOL0     C93696   8.518   4.953   1.679 -0.0766 -0.6389  0.5933
  695MOL0     C93697   8.559   4.824   1.699  0.2631  0.0071 -1.3692
  695MOL0     O93698   8.671   4.783   1.652 -0.3471  0.7732  0.1036
  695MOL0     C93699   8.773   4.792   1.749 -0.2992  0.4611 -0.2600
  695MOL0     C93700   8.899   4.757   1.664 -0.1206 -0.3757 -1.0055
  695MOL0     C93701   9.030   4.750   1.739  0.3004  0.2205  0.0732
  695MOL0     C93702   9.150   4.719   1.632  1.4034  0.0648 -0.9461
  695MOL0     C93703   9.289   4.732   1.683 -0.4295 -0.0897 -0.2704
  695MOL0     C93704   9.321   4.619   1.786 -0.2595 -0.3215 -0.5219
  695MOL0     C93705   9.450   4.630   1.874 -0.4423 -0.2450  0.8067
  695MOL0     C93706   9.575   4.679   1.800  0.6965 -0.1550  0.0644
  695MOL0     N93707   9.686   4.681   1.893  0.1143  0.0678  1.3662
  695MOL0     C93708   9.768   4.571   1.917  0.0161  0.2720  0.3691
  695MOL0     C93709   9.868   4.623   1.992  0.7090  0.2309  0.1556
  695MOL0     C93710   9.982   4.558   2.060  0.2147  0.3211  0.2009
  695MOL0     C93711   9.994   4.581   2.209 -0.3120  0.2922 -0.4874
  695MOL0     C93712  10.132   4.535   2.274 -0.3375  0.7934 -0.1082
  695MOL0     C93713  10.252   4.605   2.220  0.2818 -0.0950  0.8729
  695MOL0     O93714  10.373   4.541   2.268  0.1616 -0.4900  0.3891
  695MOL0     C93715  10.491   4.580   2.218  0.2582 -0.6829 -0.9027
  695MOL0     C93716  10.596   4.498   2.243 -0.3883  0.8755  0.2701
  695MOL0     C93717  10.720   4.521   2.182  0.1129 -0.1027  0.0435
  695MOL0     C93718  10.736   4.622   2.086 -0.1045 -0.8832 -0.6819
  695MOL0     C93719  10.873   4.652   2.025  0.3812 -1.0623 -0.6463
  695MOL0     O93720  10.982   4.578   2.053 -0.0536  0.4545  0.5243
  695MOL0     C93721  11.109   4.628   2.039  0.1739 -0.5677 -0.3515
  695MOL0     C93722  11.199   4.601   2.137 -1.2851 -0.1797  0.0546
  695MOL0     C93723  11.339   4.641   2.132  0.6113 -0.6465  0.1056
  695MOL0     C93724  11.387   4.711   2.019  0.1585 -0.6733 -0.2566
  695MOL0     O93725  11.518   4.751   1.989 -0.0189 -0.8381  0.1901
  695MOL0     C93726  11.610   4.649   1.970  0.9639  0.0474  0.0749
  695MOL0     C93727  11.725   4.705   1.882  1.0870  0.4356 -0.1590
  695MOL0     C93728  11.842   4.611   1.858 -0.0788  0.2313  0.1515
  695MOL0     C93729  11.957   4.687   1.790  0.1476  0.2514  0.1003
  695MOL0     C93730  12.059   4.757   1.883  0.3081 -0.6236 -0.1430
  695MOL0     C93731  12.166   4.836   1.807  0.2466 -0.0077  0.2997
  695MOL0     C93732  12.248   4.907   1.915  0.2400 -0.1023 -0.2967
  695MOL0     C93733  12.389   4.901   1.884 -0.0342  0.1316  0.2477
  695MOL0    Cl93734  12.475   4.992   2.004 -0.2257 -0.0149  0.0212
  695MOL0     C93735  11.291   4.740   1.920 -0.1014 -0.7106 -0.3328
  695MOL0     C93736  11.163   4.689   1.928  0.7754  0.4990 -0.6697
  695MOL0     O93737  10.875   4.767   1.971  0.2511 -0.8218  0.2272
  695MOL0     C93738  10.627   4.710   2.061 -0.1603 -0.2024 -0.3393
  695MOL0     C93739  10.509   4.684   2.126  1.0965 -0.1058 -0.4541
  695MOL0     N93740   9.844   4.757   2.011  0.2373 -0.1229 -0.2100
  695MOL0     N93741   9.743   4.793   1.943 -0.3722 -0.2433  0.0685
  695MOL0     C93742   8.468   4.738   1.771  0.0641 -0.3946  0.6677
  695MOL0     C93743   8.340   4.785   1.800  0.5030 -0.2404 -0.5505
  695MOL0     C93744   7.943   4.949   1.908 -0.6798 -0.6011 -0.2067
  695MOL0     C93745   7.880   4.983   1.788 -0.0076  0.0335 -0.3793
  695MOL0     C93746   7.742   5.001   1.775 -0.1764 -0.2852 -0.0077
  695MOL0     C93747   7.655   5.013   1.884 -0.5721  0.3942 -0.2261
  695MOL0     O93748   7.517   5.016   1.858  0.1530 -0.2867 -0.0872
  695MOL0     C93749   7.432   5.039   1.969 -0.0679  0.5792 -0.3101
  695MOL0     C93750   7.373   4.907   2.024  0.8041  0.6583  0.3529
  695MOL0     C93751   7.316   4.811   1.905  0.1814 -0.0910 -1.1618
  695MOL0     C93752   7.155   4.800   1.910 -0.4835  0.5263  0.3311
  695MOL0     C93753   7.107   4.932   1.880  0.7767 -0.4780  0.8852
  695MOL0     C93754   7.072   5.042   1.848  0.2919 -0.8276  0.8041
  695MOL0     C93755   7.716   4.986   2.010 -0.3950  0.0761  0.8369
  695MOL0     C93756   7.849   4.942   2.018 -1.0106 -0.0730 -0.6177
  695MOL0     C93757   7.900   4.901   2.154  0.2344  0.5862  0.1030
  695MOL0     H93758   8.367   5.099   1.688 -2.1731 -0.1790  0.8880
  695MOL0     H93759   8.592   5.013   1.628  0.5649 -0.9652  1.1267
  695MOL0     H93760   8.780   4.891   1.795  4.5318  1.3158 -2.1420
  695MOL0     H93761   8.754   4.721   1.830 -1.2078  2.2124  1.1371
  695MOL0     H93762   8.904   4.831   1.584  0.4415 -0.9414 -1.4994
  695MOL0     H93763   8.880   4.665   1.608 -2.8283 -0.6724  0.1969
  695MOL0     H93764   9.010   4.673   1.813 -0.5692  0.6770  0.3205
  695MOL0     H93765   9.049   4.843   1.793  4.0211 -0.7823  0.7510
  695MOL0     H93766   9.140   4.620   1.587  2.8339 -0.8704  0.6751
  695MOL0     H93767   9.134   4.801   1.562  0.7876  1.0401  0.2867
  695MOL0     H93768   9.363   4.722   1.604 -0.2407 -1.0317  0.0156
  695MOL0     H93769   9.304   4.833   1.723 -0.0271 -0.3635  0.2841
  695MOL0     H93770   9.248   4.609   1.866  0.7661 -0.1267  0.4699
  695MOL0     H93771   9.330   4.524   1.733  1.1479 -0.4631 -0.0899
  695MOL0     H93772   9.463   4.537   1.931  0.5275  0.0075  1.0163
  695MOL0     H93773   9.425   4.709   1.945 -2.1812 -0.9061  0.9721
  695MOL0     H93774   9.594   4.596   1.732  1.2839 -2.5815  2.9672
  695MOL0     H93775   9.561   4.778   1.756  0.8830 -0.2919 -0.3046
  695MOL0     H93776   9.747   4.468   1.889 -1.3811  0.6108  0.1449
  695MOL0     H93777   9.967   4.450   2.052 -1.7678  0.4245  1.6471
  695MOL0     H93778  10.077   4.584   2.013 -0.3560  0.8301 -0.6972
  695MOL0     H93779   9.972   4.682   2.246 -2.5380 -0.7195  1.2358
  695MOL0     H93780   9.913   4.530   2.262  0.4307  1.8549  2.3254
  695MOL0     H93781  10.136   4.427   2.253 -0.5472  0.2125  2.5160
  695MOL0     H93782  10.136   4.545   2.383 -0.5859  0.6603 -0.0864
  695MOL0     H93783  10.245   4.712   2.241 -1.6082 -0.1938  0.8846
  695MOL0     H93784  10.264   4.605   2.111  4.7694 -2.9926  1.0778
  695MOL0     H93785  10.584   4.415   2.312  0.1283 -0.6356 -1.4028
  695MOL0     H93786  10.804   4.463   2.221 -1.4568 -1.7005  1.2008
  695MOL0     H93787  11.165   4.545   2.223  0.4800 -1.1496  0.1594
  695MOL0     H93788  11.414   4.610   2.204  0.7251 -0.5727  0.0184
  695MOL0     H93789  11.641   4.629   2.074 -1.5774  2.9748  1.5499
  695MOL0     H93790  11.567   4.557   1.930 -1.1417 -0.1864  2.6335
  695MOL0     H93791  11.699   4.736   1.780  2.4359 -1.1152 -1.0307
  695MOL0     H93792  11.757   4.791   1.941 -0.1066 -0.8938  2.6414
  695MOL0     H93793  11.880   4.565   1.949  1.3099  2.4455  0.7884
  695MOL0     H93794  11.803   4.540   1.785 -3.1147  2.1677 -0.2876
  695MOL0     H93795  11.919   4.761   1.719  2.0307  0.3392 -0.8752
  695MOL0     H93796  12.009   4.619   1.722 -1.9524 -0.9875 -0.3527
  695MOL0     H93797  12.102   4.682   1.949 -1.5004  0.3406  2.2830
  695MOL0     H93798  12.005   4.839   1.930 -1.6408 -2.1391  0.3742
  695MOL0     H93799  12.228   4.765   1.752  0.6102 -0.2010  0.9453
  695MOL0     H93800  12.113   4.906   1.743 -0.1349 -1.5200 -1.1075
  695MOL0     H93801  12.234   4.857   2.011  0.8868  0.3664  0.0437
  695MOL0     H93802  12.218   5.012   1.925 -3.3927 -1.0474  0.0688
  695MOL0     H93803  12.438   4.803   1.889  0.1199  0.2429  1.0541
  695MOL0     H93804  12.412   4.939   1.784 -3.9486 -1.5640 -1.5408
  695MOL0     H93805  11.329   4.813   1.848 -0.7292 -1.3343 -1.3280
  695MOL0     H93806  11.094   4.710   1.848  0.2841 -1.5504 -0.8439
  695MOL0     H93807  10.644   4.792   1.991  0.1096  0.1942  0.1810
  695MOL0     H93808  10.425   4.750   2.105  1.4765  0.4366 -0.3074
  695MOL0     H93809   8.501   4.637   1.790  1.7177  0.2368  1.3707
  695MOL0     H93810   8.266   4.715   1.838 -0.8269  1.1951 -0.4150
  695MOL0     H93811   7.933   4.979   1.693 -1.9457 -2.8902 -1.5115
  695MOL0     H93812   7.694   5.020   1.680  0.1317 -0.1691 -0.1412
  695MOL0     H93813   7.352   5.095   1.919 -1.4940 -0.2479  0.9691
  695MOL0     H93814   7.475   5.099   2.050  0.9226 -0.8261  0.2404
  695MOL0     H93815   7.289   4.932   2.090  1.0908 -0.4353  1.1698
  695MOL0     H93816   7.450   4.848   2.075  1.7872  1.5938 -0.0117
  695MOL0     H93817   7.367   4.715   1.913  0.5238  0.0402 -1.7884
  695MOL0     H93818   7.343   4.844   1.805 -0.4183  1.3364 -0.8826
  695MOL0     H93819   7.127   4.731   1.830  3.5759 -0.5870 -0.3328
  695MOL0     H93820   7.113   4.769   2.006  3.7949 -0.1398  2.2192
  695MOL0     H93821   7.047   5.137   1.806  2.0562 -0.9284 -0.5970
  695MOL0     H93822   7.645   4.983   2.091 -2.5908  0.8801 -0.9516
  695MOL0     H93823   7.978   4.966   2.194  1.1799  0.4907 -1.5200
  695MOL0     H93824   7.820   4.897   2.229  0.6220 -1.9246  0.4899
  695MOL0     H93825   7.925   4.795   2.144 -2.6923 -0.1749 -0.1645
  696MOL0     O93826   0.172   9.912   6.054 -0.2004  0.0865  0.4883
  696MOL0     C93827   0.061   9.858   6.080  0.0356 -0.1112 -0.2997
  696MOL0     O93828   0.053   9.741   6.159  0.8301  0.4218  0.6586
  696MOL0     C93829   0.161   9.703   6.232  0.5076 -0.2484 -0.0261
  696MOL0     C93830   0.196   9.567   6.217  0.1266 -0.6653  0.1131
  696MOL0     C93831   0.268   9.504   6.313 -0.1576  0.1565  0.0496
  696MOL0     C93832   0.326   9.586   6.413  0.4709 -0.1868 -0.0515
  696MOL0     O93833   0.412   9.550   6.509  0.1814  0.0155  0.1960
  696MOL0     C93834   0.465   9.422   6.520  0.2145 -0.9694 -0.6340
  696MOL0     C93835   0.577   9.420   6.629  0.2030 -0.6896  0.0928
  696MOL0     C93836   0.536   9.479   6.763 -0.5825  0.3888  0.6188
  696MOL0     C93837   0.661   9.469   6.864 -0.2825  0.2393  0.7957
  696MOL0     C93838   0.629   9.556   6.984 -0.7682  0.3423 -0.0247
  696MOL0     C93839   0.516   9.518   7.074 -1.2335 -0.3498 -0.6448
  696MOL0     C93840   0.543   9.559   7.221 -0.0519 -0.8636 -0.1977
  696MOL0     C93841   0.504   9.706   7.242  1.0461  0.1307 -1.0886
  696MOL0     N93842   0.580   9.745   7.367  0.3164  0.5208  0.0848
  696MOL0     C93843   0.710   9.779   7.366  0.1156  0.6360  0.1121
  696MOL0     C93844   0.748   9.815   7.487  1.1856  0.2625  0.5516
  696MOL0     C93845   0.889   9.840   7.525 -0.2956 -0.0952 -0.5676
  696MOL0     C93846   0.952   9.712   7.567 -0.0115 -0.0721  0.7266
  696MOL0     C93847   1.072   9.733   7.654 -0.5102 -0.5926 -0.0705
  696MOL0     C93848   1.130   9.602   7.707  1.2322 -0.3168  0.4090
  696MOL0     O93849   1.232   9.635   7.797 -0.0401  0.4801  0.7765
  696MOL0     C93850   1.362   9.669   7.761 -0.3121  0.4814  0.3990
  696MOL0     C93851   1.445   9.702   7.867 -0.0052 -0.7608  0.0923
  696MOL0     C93852   1.582   9.735   7.848 -0.0236  0.5675  0.4101
  696MOL0     C93853   1.640   9.705   7.720  0.4809  0.2809  0.5135
  696MOL0     C93854   1.778   9.728   7.689  1.2178  0.0032  0.5481
  696MOL0     O93855   1.869   9.768   7.778  0.3451 -0.0308 -0.7098
  696MOL0     C93856   2.008   9.785   7.741  0.2334 -0.4701 -0.1805
  696MOL0     C93857   2.048   9.923   7.728  0.0038 -0.0917  0.0146
  696MOL0     C93858   2.183   9.953   7.688 -0.2500 -0.0946 -0.1087
  696MOL0     C93859   2.277   9.853   7.682 -0.1362 -0.6284 -0.1390
  696MOL0     O93860   2.402   9.886   7.642 -0.4577  0.8300 -0.1401
  696MOL0     C93861   2.513   9.800   7.668 -0.1183  1.3392  0.2390
  696MOL0     C93862   2.642   9.878   7.615 -0.0150  0.0430 -0.5258
  696MOL0     C93863   2.770   9.796   7.632 -0.0103 -0.1930  0.0650
  696MOL0     C93864   2.878   9.877   7.691  0.4545  0.5533  0.2954
  696MOL0     C93865   3.023   9.808   7.681  0.8921 -0.6165 -0.7123
  696MOL0     C93866   3.137   9.890   7.745 -0.1263 -0.3127  0.4225
  696MOL0     C93867   3.270   9.826   7.719  0.6232 -0.2978 -0.0655
  696MOL0     C93868   3.384   9.910   7.777  0.3110  0.9073 -0.4451
  696MOL0    Cl93869   3.538   9.800   7.748  0.4513 -0.4491 -0.2253
  696MOL0     C93870   2.236   9.719   7.702  0.1758  0.5694  0.7461
  696MOL0     C93871   2.103   9.686   7.739  0.1032  0.2991  0.4134
  696MOL0     O93872   1.807   9.690   7.576 -0.1291  1.1523 -0.2993
  696MOL0     C93873   1.549   9.675   7.612  0.2262  0.0808 -0.2416
  696MOL0     C93874   1.415   9.657   7.629  0.0434 -0.1440  0.9755
  696MOL0     N93875   0.644   9.794   7.571 -0.4531 -0.9296  0.2996
  696MOL0     N93876   0.543   9.747   7.502  0.0271  0.7038  0.4360
  696MOL0     C93877   0.309   9.724   6.421  1.0542 -0.8116  0.4858
  696MOL0     C93878   0.219   9.779   6.329 -0.3956 -0.3361  0.0813
  696MOL0     C93879  -0.061   9.904   6.013 -0.3253 -0.2894 -0.9373
  696MOL0     C93880  -0.160   9.814   5.977  0.2125  0.6812 -0.4070
  696MOL0     C93881  -0.268   9.855   5.905  1.6353  0.2593  1.3063
  696MOL0     C93882  -0.280   9.988   5.865 -0.1771 -0.0961  0.1862
  696MOL0     O93883  -0.386  10.032   5.796  0.1128 -0.0531 -0.0453
  696MOL0     C93884  -0.458   9.954   5.692  0.5593 -0.0059 -0.3955
  696MOL0     C93885  -0.544  10.054   5.622 -0.4253 -0.1523  0.1556
  696MOL0     C93886  -0.668  10.082   5.704 -0.2794  0.2139 -0.4786
  696MOL0     C93887  -0.772  10.172   5.633 -0.1934  0.4516 -0.1131
  696MOL0     C93888  -0.884  10.215   5.726 -0.6340 -0.2733  0.0988
  696MOL0     C93889  -0.975  10.242   5.796 -0.6037 -0.4074 -0.1245
  696MOL0     C93890  -0.182  10.080   5.902  0.0870  0.2623  0.7637
  696MOL0     C93891  -0.073  10.039   5.978  0.6355  0.0119 -0.8697
  696MOL0     C93892   0.018  10.153   6.026  0.3991  0.6586 -0.5504
  696MOL0     H93893   0.159   9.520   6.127 -0.4432  0.7056 -0.3916
  696MOL0     H93894   0.281   9.396   6.316  0.4257  0.2368  2.4529
  696MOL0     H93895   0.383   9.357   6.550  0.3342 -1.0405 -0.4611
  696MOL0     H93896   0.509   9.384   6.427  1.7594 -0.4963 -0.1241
  696MOL0     H93897   0.660   9.480   6.590 -2.1973  3.6444  0.9422
  696MOL0     H93898   0.610   9.318   6.646 -1.4455 -1.1121  0.9700
  696MOL0     H93899   0.452   9.428   6.810 -0.5752  0.6977  0.9731
  696MOL0     H93900   0.498   9.581   6.755  0.0389  0.7762  2.2100
  696MOL0     H93901   0.669   9.365   6.895  0.3790 -0.4257 -1.4299
  696MOL0     H93902   0.752   9.511   6.822 -1.6882  2.8369  0.1062
  696MOL0     H93903   0.725   9.557   7.036 -1.0107 -1.0169  0.4784
  696MOL0     H93904   0.616   9.658   6.946 -0.8361  0.4715  0.3419
  696MOL0     H93905   0.421   9.560   7.037  0.0512  3.1958 -0.2584
  696MOL0     H93906   0.504   9.409   7.068 -0.8556 -0.4463  0.2670
  696MOL0     H93907   0.648   9.536   7.240  0.7068  1.4987 -1.0622
  696MOL0     H93908   0.473   9.495   7.276 -3.1108  2.3827  0.0777
  696MOL0     H93909   0.519   9.783   7.166  1.4866  1.2779  0.1224
  696MOL0     H93910   0.397   9.699   7.262  1.0349 -1.4699 -1.5211
  696MOL0     H93911   0.781   9.765   7.284  1.6307  3.2210  0.8712
  696MOL0     H93912   0.946   9.893   7.447  0.1864 -0.0032 -0.1533
  696MOL0     H93913   0.887   9.907   7.611  4.4458  0.2096 -0.4326
  696MOL0     H93914   0.893   9.636   7.618 -0.8041 -0.5382 -0.8250
  696MOL0     H93915   0.983   9.656   7.478 -1.7586 -1.4004  0.9024
  696MOL0     H93916   1.051   9.784   7.748  2.1039 -1.3814  1.0595
  696MOL0     H93917   1.154   9.790   7.608 -0.6718 -0.4970 -0.2412
  696MOL0     H93918   1.172   9.547   7.622  1.1102  0.4770 -0.1675
  696MOL0     H93919   1.065   9.536   7.765  0.9056 -0.1597  0.2218
  696MOL0     H93920   1.393   9.698   7.962  0.3314  0.4695  0.3364
  696MOL0     H93921   1.650   9.761   7.928 -0.3850  0.0160  0.9054
  696MOL0     H93922   1.974  10.002   7.735 -1.8284 -1.1451 -4.2046
  696MOL0     H93923   2.202  10.058   7.671  1.3396 -0.3994 -0.3939
  696MOL0     H93924   2.524   9.777   7.774  0.5342 -3.3746 -0.6422
  696MOL0     H93925   2.505   9.707   7.611 -1.9778  0.5547  1.6667
  696MOL0     H93926   2.618   9.912   7.514 -0.0753 -1.0535 -0.8962
  696MOL0     H93927   2.655   9.967   7.677 -2.1022 -0.3192  0.5006
  696MOL0     H93928   2.752   9.711   7.698  0.1973 -1.3588 -1.3254
  696MOL0     H93929   2.793   9.755   7.533  2.1265 -1.9689  1.2232
  696MOL0     H93930   2.860   9.927   7.786  3.0982  3.0004 -0.3462
  696MOL0     H93931   2.882   9.965   7.626 -0.2282  0.5674  0.2620
  696MOL0     H93932   3.045   9.801   7.574  0.5921  0.7816 -0.8892
  696MOL0     H93933   3.022   9.714   7.737  1.4507  0.3321  0.9627
  696MOL0     H93934   3.142   9.993   7.710  3.1910 -0.2086  0.8927
  696MOL0     H93935   3.125   9.888   7.854  1.5530  0.8074  0.6569
  696MOL0     H93936   3.287   9.827   7.611  0.9569 -0.3243 -0.0138
  696MOL0     H93937   3.272   9.719   7.744 -0.4855 -1.0367 -2.8004
  696MOL0     H93938   3.386  10.004   7.720 -2.1584 -0.3490 -2.8519
  696MOL0     H93939   3.372   9.944   7.880 -0.5067  0.1661 -0.2830
  696MOL0     H93940   2.311   9.642   7.691  0.6563  1.1056  0.1549
  696MOL0     H93941   2.062   9.585   7.744 -1.3373  0.7586 -1.1595
  696MOL0     H93942   1.587   9.666   7.511  0.4429  3.1533 -0.5511
  696MOL0     H93943   1.361   9.640   7.537 -2.3372 -0.2002  2.2965
  696MOL0     H93944   0.368   9.781   6.491  3.5121 -0.5621 -1.6060
  696MOL0     H93945   0.199   9.885   6.336  1.3959 -0.0230  1.2157
  696MOL0     H93946  -0.147   9.712   6.012 -0.3870  1.0687  1.0265
  696MOL0     H93947  -0.343   9.779   5.885  2.0078  0.2759 -0.3296
  696MOL0     H93948  -0.512   9.872   5.741  3.2341 -0.9438  1.2152
  696MOL0     H93949  -0.391   9.907   5.619 -1.1726 -1.0457 -1.3845
  696MOL0     H93950  -0.573  10.028   5.520  0.4010  1.9680 -0.6648
  696MOL0     H93951  -0.482  10.142   5.601  0.8843 -0.8507  0.9312
  696MOL0     H93952  -0.631  10.135   5.792  0.1712 -1.8462  0.6485
  696MOL0     H93953  -0.712   9.988   5.739 -0.5920  1.0537  1.5367
  696MOL0     H93954  -0.714  10.259   5.601  0.3556  0.3836  0.6740
  696MOL0     H93955  -0.813  10.129   5.541  0.2580  0.6267 -0.3988
  696MOL0     H93956  -1.050  10.270   5.867 -0.9296 -0.9452 -0.2511
  696MOL0     H93957  -0.203  10.178   5.861 -0.7052 -0.0537  0.4110
  696MOL0     H93958  -0.024  10.254   6.025 -0.1338  0.5128  1.7979
  696MOL0     H93959   0.054  10.135   6.128  0.0621 -0.5388 -0.6203
  696MOL0     H93960   0.103  10.145   5.959  1.0285  2.4252 -0.0127
  697MOL0     O93961   2.707   1.101  10.533  0.3386 -0.3285 -0.2279
  697MOL0     C93962   2.761   1.090  10.420 -0.0715  0.6223 -0.3482
  697MOL0     O93963   2.691   1.076  10.301  0.0623 -0.0479  0.2836
  697MOL0     C93964   2.559   1.105  10.295 -1.2969  0.2321 -0.6250
  697MOL0     C93965   2.476   1.005  10.252  0.1707  0.1360  0.2855
  697MOL0     C93966   2.337   1.031  10.242  0.1278 -0.1977 -0.5602
  697MOL0     C93967   2.293   1.168  10.250 -0.1245  0.1506  0.1943
  697MOL0     O93968   2.163   1.205  10.225 -0.4281 -0.3399  0.7912
  697MOL0     C93969   2.156   1.329  10.139  0.7852 -0.2816  0.4790
  697MOL0     C93970   2.006   1.356  10.123  0.1493 -0.0874 -0.4684
  697MOL0     C93971   1.965   1.281  10.000  0.1715  0.6175 -0.3502
  697MOL0     C93972   1.818   1.299   9.970  0.9576 -0.3988  0.8046
  697MOL0     C93973   1.771   1.246   9.826 -0.2207 -0.2719 -1.0072
  697MOL0     C93974   1.849   1.307   9.710  0.4556 -1.5941 -0.3816
  697MOL0     C93975   1.835   1.461   9.711  0.2160  0.5273 -0.1465
  697MOL0     C93976   1.911   1.525   9.594 -0.0847 -0.5038 -0.5059
  697MOL0     N93977   2.060   1.519   9.594  0.5128  0.0764 -0.0069
  697MOL0     C93978   2.152   1.490   9.697  0.1564  0.1367  0.0303
  697MOL0     C93979   2.271   1.466   9.638 -0.4810 -0.0149  0.9349
  697MOL0     C93980   2.389   1.430   9.718  0.2246 -0.2157 -0.2997
  697MOL0     C93981   2.360   1.289   9.764 -0.2079 -0.4148  0.3691
  697MOL0     C93982   2.485   1.230   9.829 -0.0415 -0.4507  0.2959
  697MOL0     C93983   2.526   1.310   9.956 -0.5745 -0.2067  0.3019
  697MOL0     O93984   2.632   1.404   9.929  0.3871 -0.7976 -0.1608
  697MOL0     C93985   2.760   1.372   9.919 -0.5487  0.9357  0.0466
  697MOL0     C93986   2.802   1.237   9.930  0.1039  0.4850 -0.7760
  697MOL0     C93987   2.936   1.206   9.937 -0.1140 -0.4655  0.0971
  697MOL0     C93988   3.033   1.310   9.920  1.0216  0.3664 -0.1125
  697MOL0     C93989   3.176   1.279   9.918  1.0694 -0.7012 -0.3222
  697MOL0     O93990   3.262   1.380   9.864 -0.6687 -0.7858  0.4598
  697MOL0     C93991   3.380   1.329   9.830  0.3397  0.1091  0.8464
  697MOL0     C93992   3.412   1.294   9.701  0.8266 -0.5448 -0.1165
  697MOL0     C93993   3.550   1.260   9.675  1.1292  0.0812  0.2693
  697MOL0     C93994   3.648   1.256   9.773  0.7868 -0.4573  0.2452
  697MOL0     O93995   3.770   1.217   9.728  0.7788  0.3813  0.1479
  697MOL0     C93996   3.890   1.240   9.801 -0.1054  0.0513 -0.6840
  697MOL0     C93997   4.015   1.248   9.714  0.0352 -0.0523 -0.0996
  697MOL0     C93998   4.040   1.117   9.639  0.5841  1.0831 -0.1679
  697MOL0     C93999   4.165   1.142   9.551 -0.9020 -0.1066 -0.6339
  697MOL0     C94000   4.223   1.012   9.492  0.3308  0.0536 -0.0829
  697MOL0     C94001   4.346   1.042   9.412  0.0830  1.0554 -1.2390
  697MOL0     C94002   4.464   1.091   9.489 -0.2137 -0.3262 -0.1126
  697MOL0     C94003   4.595   1.049   9.430 -0.3052  0.8286  0.0101
  697MOL0    Cl94004   4.731   1.098   9.521  0.0765 -0.2836  0.2026
  697MOL0     C94005   3.602   1.292   9.909 -0.8100  0.1097 -0.0382
  697MOL0     C94006   3.476   1.327   9.927 -0.2197  0.6640 -0.3216
  697MOL0     O94007   3.210   1.176   9.969 -0.2327  0.0585  0.4042
  697MOL0     C94008   2.987   1.439   9.915  0.1337 -0.3701  0.2856
  697MOL0     C94009   2.852   1.473   9.906 -1.0328 -1.1853 -0.6313
  697MOL0     N94010   2.255   1.497   9.506  1.5546 -0.1422  0.6839
  697MOL0     N94011   2.130   1.529   9.471  0.3583  0.5891 -1.0714
  697MOL0     C94012   2.385   1.271  10.295  0.3925  0.7971 -0.0214
  697MOL0     C94013   2.515   1.235  10.326  0.5894  0.5769  0.9515
  697MOL0     C94014   2.916   1.064  10.403 -0.1045 -0.3989 -1.0667
  697MOL0     C94015   2.971   1.029  10.276  0.4911 -0.4837  0.4222
  697MOL0     C94016   3.110   1.006  10.256 -0.7214 -0.4863  0.4295
  697MOL0     C94017   3.208   1.036  10.351 -0.0051 -0.0620 -0.7693
  697MOL0     O94018   3.340   1.003  10.335  0.4759 -0.7883 -0.6289
  697MOL0     C94019   3.371   0.921  10.220  0.4398  0.2441  0.2660
  697MOL0     C94020   3.519   0.884  10.245  0.1445 -0.0773  0.3389
  697MOL0     C94021   3.604   1.009  10.200  1.2306  0.0957  1.1586
  697MOL0     C94022   3.738   0.963  10.158 -0.5283 -0.0768  0.5065
  697MOL0     C94023   3.826   0.921  10.270 -0.2972 -0.2749 -0.6906
  697MOL0     C94024   3.908   0.895  10.358 -0.7201 -0.2488  0.0948
  697MOL0     C94025   3.165   1.068  10.480 -0.4559  0.8850  0.8911
  697MOL0     C94026   3.023   1.083  10.503  0.8636  0.7196  0.1097
  697MOL0     C94027   2.992   1.109  10.655 -0.5608 -0.5258 -0.4040
  697MOL0     H94028   2.509   0.904  10.228 -1.3227  0.0630 -1.6122
  697MOL0     H94029   2.255   0.963  10.219 -0.4860  0.4040 -0.1874
  697MOL0     H94030   2.182   1.419  10.196 -0.3926  0.0180  0.5745
  697MOL0     H94031   2.218   1.317  10.050  1.1724 -0.2696  0.7415
  697MOL0     H94032   1.989   1.464  10.110  0.6209  0.0514  0.0641
  697MOL0     H94033   1.956   1.321  10.214  1.4584 -0.4975  0.1053
  697MOL0     H94034   1.971   1.172  10.009 -0.7657  0.5119 -0.8403
  697MOL0     H94035   2.033   1.306   9.918  2.4619 -0.0872  1.2444
  697MOL0     H94036   1.764   1.246  10.049 -0.0415 -0.3732  0.1606
  697MOL0     H94037   1.796   1.405   9.979 -1.0965 -0.7348  0.2836
  697MOL0     H94038   1.772   1.137   9.838 -0.9720  0.0493  4.1194
  697MOL0     H94039   1.669   1.286   9.815  0.2686  1.1573 -0.4926
  697MOL0     H94040   1.957   1.290   9.716  0.7544  0.1856 -0.0804
  697MOL0     H94041   1.816   1.273   9.611 -0.8011 -0.2006 -0.4731
  697MOL0     H94042   1.869   1.515   9.799  1.4860 -1.7297  0.8444
  697MOL0     H94043   1.729   1.486   9.697 -1.6159 -4.3243  2.4555
  697MOL0     H94044   1.874   1.476   9.504 -3.6917 -0.5438  0.8302
  697MOL0     H94045   1.877   1.629   9.585  0.5494  0.0434  2.4250
  697MOL0     H94046   2.148   1.479   9.805  0.7849 -0.4824 -0.0076
  697MOL0     H94047   2.468   1.417   9.645 -0.1508  0.5287 -0.8545
  697MOL0     H94048   2.421   1.503   9.793 -0.7212  1.8692 -1.8337
  697MOL0     H94049   2.276   1.285   9.834  0.7139  0.5136  1.5528
  697MOL0     H94050   2.326   1.232   9.676  1.2661  0.5965 -0.8980
  697MOL0     H94051   2.569   1.220   9.759  0.9718  0.4321  1.3330
  697MOL0     H94052   2.458   1.125   9.846  0.7814 -0.9995 -1.5139
  697MOL0     H94053   2.554   1.241  10.036 -0.0118  0.1877  0.4490
  697MOL0     H94054   2.450   1.378   9.996 -2.0478 -1.1288 -0.8454
  697MOL0     H94055   2.738   1.150   9.943  0.9882 -0.2731 -1.3810
  697MOL0     H94056   2.973   1.104   9.947 -0.2424 -0.3823  1.6032
  697MOL0     H94057   3.343   1.305   9.619  1.1425 -0.2886 -0.3523
  697MOL0     H94058   3.559   1.230   9.571  0.2471 -1.9778  0.7394
  697MOL0     H94059   3.883   1.332   9.860  1.2192  0.1137 -0.5950
  697MOL0     H94060   3.895   1.155   9.871  3.2514 -0.6318 -1.5809
  697MOL0     H94061   4.009   1.328   9.640  1.1235  0.9765  0.8839
  697MOL0     H94062   4.104   1.263   9.775 -0.7180  1.3797  0.6945
  697MOL0     H94063   4.064   1.037   9.709  1.5218  1.2828 -0.2480
  697MOL0     H94064   3.956   1.091   9.574  0.8462  0.9216 -0.4481
  697MOL0     H94065   4.239   1.196   9.609 -3.5345  2.7285  0.3743
  697MOL0     H94066   4.148   1.219   9.475  0.5196  1.8904  0.9750
  697MOL0     H94067   4.156   0.947   9.435  0.9777 -0.3474 -0.3964
  697MOL0     H94068   4.264   0.942   9.566 -0.3340  0.3050  0.5395
  697MOL0     H94069   4.377   0.943   9.377 -2.3351 -0.3740  0.4034
  697MOL0     H94070   4.331   1.105   9.324  0.2259  0.4980 -1.6739
  697MOL0     H94071   4.459   1.052   9.591  2.2561 -1.3677 -0.3308
  697MOL0     H94072   4.468   1.200   9.498  1.1930 -0.2521 -1.3292
  697MOL0     H94073   4.588   0.940   9.423 -2.1134  0.7780  1.6718
  697MOL0     H94074   4.611   1.088   9.329 -0.7045  0.9678 -0.0016
  697MOL0     H94075   3.676   1.295   9.989 -1.5306  0.5910  0.6280
  697MOL0     H94076   3.451   1.359  10.028 -0.4489 -1.1128  0.2195
  697MOL0     H94077   3.058   1.521   9.918  1.2622 -1.2288 -1.3264
  697MOL0     H94078   2.839   1.581   9.911  2.8593 -0.4937 -2.1925
  697MOL0     H94079   2.352   1.373  10.315 -1.8132  0.1102  0.0528
  697MOL0     H94080   2.587   1.307  10.365  0.2910  0.8558  0.9951
  697MOL0     H94081   2.906   1.034  10.189 -0.3841  4.6123  1.0700
  697MOL0     H94082   3.137   0.972  10.156 -0.0873 -2.2060  1.1486
  697MOL0     H94083   3.358   0.980  10.129 -1.4515 -0.5248 -0.0253
  697MOL0     H94084   3.311   0.831  10.203 -1.0293  1.2360 -0.0948
  697MOL0     H94085   3.550   0.790  10.199  0.9774 -0.8659  2.3807
  697MOL0     H94086   3.548   0.882  10.351 -0.4968 -1.0315  0.5089
  697MOL0     H94087   3.614   1.082  10.281 -0.7037  1.3402  0.3649
  697MOL0     H94088   3.560   1.071  10.120 -1.1956 -0.5432  1.9114
  697MOL0     H94089   3.729   0.887  10.080  0.8348 -1.1724  1.3669
  697MOL0     H94090   3.790   1.040  10.101  0.1172  0.5070  1.8310
  697MOL0     H94091   3.968   0.864  10.442 -1.4608 -0.1213  0.6846
  697MOL0     H94092   3.248   1.076  10.550  0.8327 -1.4583 -0.2239
  697MOL0     H94093   3.046   1.198  10.689 -2.5307  1.1056 -1.2903
  697MOL0     H94094   2.887   1.135  10.673 -0.6165 -1.3280  0.4867
  697MOL0     H94095   3.031   1.032  10.721 -0.3164  0.0157  0.0913
  698MOL0     O94096   0.076   0.427   2.646  0.3547 -0.5957 -1.0285
  698MOL0     C94097   0.032   0.448   2.533  0.5249 -0.3018 -1.0763
  698MOL0     O94098   0.110   0.473   2.417 -0.2371 -0.5617 -0.6300
  698MOL0     C94099   0.244   0.516   2.420  0.0971 -0.0963  0.5003
  698MOL0     C94100   0.322   0.500   2.308 -0.1718 -0.2331 -0.2866
  698MOL0     C94101   0.464   0.527   2.302  0.4540 -0.9304 -0.3298
  698MOL0     C94102   0.521   0.587   2.413  0.3532 -0.4930  0.0881
  698MOL0     O94103   0.651   0.630   2.413  0.9837  0.5179  0.6758
  698MOL0     C94104   0.741   0.592   2.518  0.0745  1.1190  0.0937
  698MOL0     C94105   0.878   0.613   2.450 -0.2165  0.0026 -0.7777
  698MOL0     C94106   1.006   0.589   2.529  0.1956  0.5386 -0.0061
  698MOL0     C94107   1.136   0.663   2.477  0.7906 -0.5864 -0.0839
  698MOL0     C94108   1.259   0.599   2.542 -0.5227 -0.1851 -0.0771
  698MOL0     C94109   1.379   0.695   2.528  0.0899 -0.5760  0.8237
  698MOL0     C94110   1.499   0.639   2.609 -0.5218  0.0670 -0.6186
  698MOL0     C94111   1.617   0.733   2.600  0.4885 -0.8416  0.0674
  698MOL0     N94112   1.727   0.678   2.675 -0.0950 -0.3362 -0.3174
  698MOL0     C94113   1.761   0.727   2.791  0.1593 -0.1846  0.0504
  698MOL0     C94114   1.824   0.621   2.853  0.1025  0.0765 -0.5496
  698MOL0     C94115   1.895   0.622   2.987  0.1155  0.1222  0.0951
  698MOL0     C94116   1.983   0.750   3.004  1.1530  0.3645  0.6662
  698MOL0     C94117   2.063   0.724   3.140 -0.0009  0.1658 -0.4297
  698MOL0     C94118   2.139   0.854   3.175  0.7444 -0.4611 -0.1097
  698MOL0     O94119   2.223   0.907   3.062  0.5620  0.3814 -0.5515
  698MOL0     C94120   2.362   0.912   3.069  0.6323  0.4033 -1.5222
  698MOL0     C94121   2.420   0.999   2.976 -0.9756 -0.7498 -0.1366
  698MOL0     C94122   2.553   1.008   2.962 -0.2909  0.5517 -0.6512
  698MOL0     C94123   2.632   0.917   3.037 -0.5281 -0.6803  0.4181
  698MOL0     C94124   2.783   0.914   3.013  0.3469 -0.4566  1.1937
  698MOL0     O94125   2.861   0.818   3.070 -1.0352  0.4024  0.2404
  698MOL0     C94126   2.988   0.794   3.019 -0.1667  0.5151  0.0162
  698MOL0     C94127   2.993   0.709   2.911  0.3067 -0.3225  0.3474
  698MOL0     C94128   3.113   0.667   2.863 -0.9654 -0.1936 -0.4689
  698MOL0     C94129   3.235   0.714   2.917 -1.0621  0.2732  0.1336
  698MOL0     O94130   3.363   0.684   2.891 -0.9608 -0.0741 -0.2050
  698MOL0     C94131   3.378   0.612   2.767  0.2422 -0.3914  0.5415
  698MOL0     C94132   3.524   0.622   2.711  0.4277  0.2850  0.4435
  698MOL0     C94133   3.597   0.492   2.744  0.0819  0.5644 -1.2518
  698MOL0     C94134   3.662   0.447   2.613 -0.1199  0.8515 -0.9098
  698MOL0     C94135   3.735   0.309   2.628  0.1874  0.1323 -0.5474
  698MOL0     C94136   3.821   0.278   2.515 -0.4256 -0.3921 -0.0526
  698MOL0     C94137   3.915   0.150   2.522 -0.4871  0.5976  1.3653
  698MOL0     C94138   3.979   0.143   2.380 -0.2602 -0.1676  0.0021
  698MOL0    Cl94139   4.084   0.003   2.377 -0.2428  0.1688  0.2756
  698MOL0     C94140   3.222   0.811   3.019 -0.5689  0.2579 -0.5944
  698MOL0     C94141   3.105   0.845   3.074  0.6035  0.6924 -0.8001
  698MOL0     O94142   2.823   0.997   2.931  0.3616  0.2443 -0.7142
  698MOL0     C94143   2.573   0.834   3.137  0.5215 -0.3961 -0.2845
  698MOL0     C94144   2.435   0.824   3.155 -0.1018 -0.7761  0.4640
  698MOL0     N94145   1.845   0.523   2.763 -0.1402  0.9441  1.4332
  698MOL0     N94146   1.770   0.552   2.666  1.0344 -0.5366  0.7283
  698MOL0     C94147   0.441   0.613   2.523  0.1808 -0.7801  0.4407
  698MOL0     C94148   0.309   0.581   2.535  0.1199 -0.1318 -0.5861
  698MOL0     C94149  -0.114   0.436   2.521 -0.3020  0.1302  0.5820
  698MOL0     C94150  -0.166   0.425   2.391  0.2352 -0.6921 -0.0975
  698MOL0     C94151  -0.298   0.417   2.367  0.2742  0.6466  0.4318
  698MOL0     C94152  -0.398   0.412   2.461 -0.6129  1.0056  0.3386
  698MOL0     O94153  -0.534   0.414   2.451  0.1445 -0.6384 -0.4530
  698MOL0     C94154  -0.595   0.462   2.336  0.4910  0.1985 -0.4418
  698MOL0     C94155  -0.627   0.350   2.238 -0.8455 -0.1870  0.0868
  698MOL0     C94156  -0.722   0.391   2.139  0.2257 -0.1912  1.2460
  698MOL0     C94157  -0.857   0.334   2.168 -0.4370 -0.3159 -0.8831
  698MOL0     C94158  -0.911   0.373   2.299 -0.3103  1.0931  0.1455
  698MOL0     C94159  -0.946   0.400   2.416  0.6963  0.1040  1.0271
  698MOL0     C94160  -0.356   0.415   2.591 -0.6149 -0.2509 -0.2248
  698MOL0     C94161  -0.210   0.430   2.627  0.7893  0.1008  0.9840
  698MOL0     C94162  -0.184   0.454   2.771  0.1808 -0.0793  0.1095
  698MOL0     H94163   0.272   0.451   2.225 -0.3358 -4.9762  2.2723
  698MOL0     H94164   0.517   0.528   2.207 -0.4788 -2.5844 -0.9134
  698MOL0     H94165   0.719   0.660   2.600  1.4515  2.6471 -0.7456
  698MOL0     H94166   0.728   0.487   2.547  0.5470  0.9842 -0.1750
  698MOL0     H94167   0.881   0.720   2.429 -2.7703  0.4964  0.9991
  698MOL0     H94168   0.871   0.556   2.356 -4.7403 -1.5400  0.2727
  698MOL0     H94169   1.023   0.482   2.539 -3.9667 -0.5878 -2.5910
  698MOL0     H94170   0.981   0.632   2.627 -1.5250  0.6768 -0.4801
  698MOL0     H94171   1.132   0.665   2.368  0.7576  1.7568 -0.1018
  698MOL0     H94172   1.133   0.771   2.494 -0.1739 -0.2960 -1.8367
  698MOL0     H94173   1.242   0.580   2.649 -1.0345  1.0457  0.0740
  698MOL0     H94174   1.288   0.505   2.494  0.2016 -0.3848  0.7266
  698MOL0     H94175   1.392   0.717   2.421 -0.4026  2.1103  1.2288
  698MOL0     H94176   1.354   0.795   2.565 -0.8666  0.1271 -1.5199
  698MOL0     H94177   1.534   0.539   2.581 -2.0219 -0.0946 -2.0363
  698MOL0     H94178   1.473   0.634   2.715  0.9640  0.3678 -0.2228
  698MOL0     H94179   1.639   0.756   2.495  1.0083  0.1853  0.3949
  698MOL0     H94180   1.587   0.831   2.636 -1.6093 -1.5105  0.2707
  698MOL0     H94181   1.721   0.808   2.851 -0.7439 -0.6057  0.0436
  698MOL0     H94182   1.829   0.597   3.071  0.2601  1.0985  0.5082
  698MOL0     H94183   1.964   0.537   2.989 -0.6197 -0.5143 -0.5229
  698MOL0     H94184   2.057   0.762   2.925  1.2321 -1.1166  0.5011
  698MOL0     H94185   1.915   0.836   3.007  1.6195  0.7617  0.0160
  698MOL0     H94186   2.134   0.642   3.124  1.2756  0.7497  1.8136
  698MOL0     H94187   1.998   0.692   3.223 -1.7851  0.4561 -1.6584
  698MOL0     H94188   2.205   0.856   3.262  0.3039  0.0812  0.2169
  698MOL0     H94189   2.057   0.924   3.193  0.9148 -0.8329  2.5501
  698MOL0     H94190   2.357   1.072   2.924  0.3218  1.6106  1.3997
  698MOL0     H94191   2.584   1.086   2.893 -2.1260  1.1134 -0.8760
  698MOL0     H94192   2.899   0.669   2.872 -1.9409  0.5881  4.3094
  698MOL0     H94193   3.105   0.591   2.786  1.9795  0.2498 -1.3585
  698MOL0     H94194   3.340   0.509   2.772 -0.8317  0.0391  2.1090
  698MOL0     H94195   3.307   0.655   2.696  0.5658 -1.1235 -0.2453
  698MOL0     H94196   3.512   0.623   2.602  0.6428  0.0369  0.4173
  698MOL0     H94197   3.572   0.712   2.750 -0.1918  0.0202  1.9058
  698MOL0     H94198   3.685   0.511   2.807  1.3404  1.2654 -3.1284
  698MOL0     H94199   3.528   0.420   2.789 -0.3972  1.0836 -1.1385
  698MOL0     H94200   3.734   0.526   2.588 -0.3415  1.0015 -1.0833
  698MOL0     H94201   3.589   0.443   2.532 -1.3523  0.6226  0.1702
  698MOL0     H94202   3.656   0.237   2.649 -0.7016  1.6756  1.8245
  698MOL0     H94203   3.792   0.321   2.721 -2.1528  1.8069  0.7718
  698MOL0     H94204   3.753   0.274   2.430 -0.5543 -2.8082  0.1122
  698MOL0     H94205   3.889   0.364   2.512 -0.1969 -0.6029 -1.6312
  698MOL0     H94206   3.882   0.048   2.542 -2.2708  0.9228  0.2807
  698MOL0     H94207   3.995   0.175   2.592  0.9272 -1.4087  0.5758
  698MOL0     H94208   3.910   0.137   2.295 -0.3204  1.6707 -0.1268
  698MOL0     H94209   4.039   0.233   2.364 -0.5677 -0.0017 -0.2480
  698MOL0     H94210   3.307   0.858   3.068  0.2905  1.9734 -3.4773
  698MOL0     H94211   3.080   0.903   3.163 -0.1759 -0.6092 -0.1361
  698MOL0     H94212   2.626   0.765   3.201  0.4496  1.1578  1.5633
  698MOL0     H94213   2.385   0.758   3.225 -0.2252 -0.4882  0.6484
  698MOL0     H94214   0.489   0.655   2.611  1.2507 -1.0069 -0.0176
  698MOL0     H94215   0.250   0.603   2.623  0.3417 -1.5433 -0.0575
  698MOL0     H94216  -0.085   0.425   2.319  1.8814  4.2632  1.3948
  698MOL0     H94217  -0.327   0.417   2.263 -0.5987  2.6018  0.6289
  698MOL0     H94218  -0.535   0.543   2.295  2.3830 -1.2619 -0.7115
  698MOL0     H94219  -0.691   0.510   2.356 -0.7528 -1.2232 -2.5292
  698MOL0     H94220  -0.650   0.259   2.295  1.2870 -1.0079 -0.2670
  698MOL0     H94221  -0.537   0.329   2.179 -1.6335  1.3687 -1.7723
  698MOL0     H94222  -0.702   0.352   2.039 -0.9634  4.4514 -1.0680
  698MOL0     H94223  -0.720   0.499   2.120 -1.1490 -0.3772 -0.1452
  698MOL0     H94224  -0.929   0.366   2.092 -0.4812 -2.5623 -1.8575
  698MOL0     H94225  -0.844   0.226   2.158  0.0189 -0.4531  0.8658
  698MOL0     H94226  -0.988   0.413   2.514 -4.1492 -0.0245 -0.7465
  698MOL0     H94227  -0.429   0.425   2.671  0.1344 -2.4953  0.8246
  698MOL0     H94228  -0.271   0.494   2.824 -0.4111 -0.3678 -0.6268
  698MOL0     H94229  -0.156   0.361   2.822  4.3482  1.7736  1.6662
  698MOL0     H94230  -0.102   0.525   2.786 -0.1526  0.0132  1.6410
  699MOL0     O94231   9.808   2.012  11.102 -0.3174  0.5693  0.3252
  699MOL0     C94232   9.731   2.035  11.007 -1.2036 -0.3696  0.8788
  699MOL0     O94233   9.766   2.032  10.874 -0.3675  0.2450 -0.2360
  699MOL0     C94234   9.887   1.970  10.848 -0.0037  0.2887 -0.0333
  699MOL0     C94235   9.881   1.826  10.815  0.9893  0.2242  0.0841
  699MOL0     C94236   9.998   1.761  10.786 -0.1672  0.2365 -0.3654
  699MOL0     C94237  10.124   1.830  10.787  0.1685 -0.7397 -0.3321
  699MOL0     O94238  10.249   1.776  10.761  0.0706 -0.3373  0.1913
  699MOL0     C94239  10.272   1.635  10.795  0.1565 -0.2986  1.2445
  699MOL0     C94240  10.408   1.582  10.749  0.2574  0.2309  0.2789
  699MOL0     C94241  10.446   1.438  10.801 -0.1937 -0.0462  0.0957
  699MOL0     C94242  10.597   1.414  10.773 -1.0124  0.7967  0.3235
  699MOL0     C94243  10.632   1.261  10.809  1.1192 -0.7954 -0.6628
  699MOL0     C94244  10.755   1.225  10.734 -0.5001 -0.6138 -0.0428
  699MOL0     C94245  10.885   1.298  10.780  0.3097  0.5387 -0.0993
  699MOL0     C94246  11.007   1.263  10.697 -0.1388 -0.4381  0.0774
  699MOL0     N94247  11.127   1.330  10.747 -0.0224  0.5123  0.2061
  699MOL0     C94248  11.193   1.438  10.690  0.0477  0.6003 -0.2254
  699MOL0     C94249  11.315   1.443  10.747 -0.5759 -0.0273 -0.1519
  699MOL0     C94250  11.420   1.545  10.733 -0.9281 -0.2472 -0.4769
  699MOL0     C94251  11.568   1.493  10.698 -0.1742 -0.2871 -0.3769
  699MOL0     C94252  11.675   1.565  10.792  0.2261  0.7677  0.6455
  699MOL0     C94253  11.809   1.491  10.789 -0.3334 -0.5252 -0.1550
  699MOL0     O94254  11.894   1.560  10.890 -0.0833 -0.5560  0.1716
  699MOL0     C94255  12.029   1.550  10.873  0.1968  0.6912  0.0723
  699MOL0     C94256  12.090   1.445  10.789  0.9644 -0.3941 -0.6190
  699MOL0     C94257  12.230   1.415  10.798  0.4976  0.2667  0.6270
  699MOL0     C94258  12.313   1.508  10.866 -0.4363  0.0691  0.2152
  699MOL0     C94259  12.457   1.488  10.861 -0.3340 -0.7946 -0.7073
  699MOL0     O94260  12.508   1.363  10.850  0.6286  0.7003  0.6288
  699MOL0     C94261  12.634   1.348  10.872  0.3643  0.2754  0.1296
  699MOL0     C94262  12.656   1.241  10.960 -0.0915  0.4469 -0.3470
  699MOL0     C94263  12.794   1.212  10.985 -0.3995 -0.4253 -0.3246
  699MOL0     C94264  12.897   1.279  10.921  0.0138  0.4263 -0.1058
  699MOL0     O94265  13.032   1.263  10.950 -0.0259  0.1138  0.3741
  699MOL0     C94266  13.052   1.269  11.091  0.2443  0.2903 -0.5325
  699MOL0     C94267  13.201   1.265  11.118  0.0519 -0.9262  0.9877
  699MOL0     C94268  13.290   1.378  11.061 -0.8212  0.0176 -0.4349
  699MOL0     C94269  13.448   1.345  11.089 -0.1479  0.3767  1.3071
  699MOL0     C94270  13.518   1.478  11.077  0.0474 -0.7877  0.1815
  699MOL0     C94271  13.659   1.473  11.148 -0.0114  0.3604  0.8844
  699MOL0     C94272  13.736   1.601  11.129 -0.1596 -0.1705  0.1119
  699MOL0     C94273  13.884   1.575  11.135 -0.0937 -0.0100  0.1426
  699MOL0    Cl94274  13.963   1.736  11.109 -0.2408  0.5594 -0.1175
  699MOL0     C94275  12.870   1.362  10.817  0.9016  0.4283  1.3309
  699MOL0     C94276  12.737   1.394  10.779 -0.6876 -0.0921  0.1949
  699MOL0     O94277  12.526   1.592  10.881 -0.4232  0.0752 -0.4969
  699MOL0     C94278  12.259   1.617  10.933  0.0078 -0.7277 -0.5263
  699MOL0     C94279  12.117   1.636  10.940 -1.0173  0.8538 -0.1273
  699MOL0     N94280  11.329   1.341  10.836  0.2733  0.2822  0.2759
  699MOL0     N94281  11.219   1.280  10.841  0.1365  0.5810 -0.1636
  699MOL0     C94282  10.122   1.968  10.815  0.0419 -0.2463 -0.2271
  699MOL0     C94283  10.006   2.034  10.846 -1.4206  0.0501  0.1286
  699MOL0     C94284   9.598   2.084  11.047  0.2578  0.0019  0.5575
  699MOL0     C94285   9.577   2.179  11.144  0.0906  0.2318 -0.3889
  699MOL0     C94286   9.453   2.231  11.177  1.3547  0.8843  0.1689
  699MOL0     C94287   9.340   2.179  11.113 -0.1686  0.9288 -0.3781
  699MOL0     O94288   9.215   2.238  11.135 -0.0015 -0.5374  0.4180
  699MOL0     C94289   9.104   2.163  11.156 -0.3012 -0.1946  0.1714
  699MOL0     C94290   8.968   2.238  11.162 -0.4685  0.0265  0.5906
  699MOL0     C94291   8.957   2.346  11.045 -0.1205 -0.3400 -0.4423
  699MOL0     C94292   8.961   2.269  10.915  0.2505  0.2586 -0.6077
  699MOL0     C94293   8.964   2.361  10.804  0.2704 -0.3921 -0.3260
  699MOL0     C94294   8.965   2.440  10.711  0.1359 -0.2523  0.1591
  699MOL0     C94295   9.354   2.073  11.022  0.2414 -0.8113 -0.5052
  699MOL0     C94296   9.481   2.028  10.987  0.0155  0.3084 -0.0111
  699MOL0     C94297   9.483   1.908  10.895  0.2520  0.1793 -0.5529
  699MOL0     H94298   9.780   1.787  10.809  1.4314 -0.7604 -1.6570
  699MOL0     H94299  10.001   1.660  10.748  0.8038  0.7485 -1.7309
  699MOL0     H94300  10.274   1.621  10.903  1.4235 -2.4840  1.0099
  699MOL0     H94301  10.203   1.582  10.729  1.5638  1.5054 -1.9142
  699MOL0     H94302  10.485   1.646  10.792 -1.4642  1.6760  1.3628
  699MOL0     H94303  10.416   1.586  10.640  2.3790 -0.1878  0.3780
  699MOL0     H94304  10.386   1.362  10.751  1.4983 -0.4154 -1.5031
  699MOL0     H94305  10.436   1.433  10.910 -0.5441  1.2122  0.1409
  699MOL0     H94306  10.623   1.426  10.668  1.8733  1.8627  1.0526
  699MOL0     H94307  10.652   1.488  10.832 -1.9241  1.8965 -0.1684
  699MOL0     H94308  10.632   1.249  10.918  2.5115  2.0455 -0.2548
  699MOL0     H94309  10.553   1.194  10.774  2.2944 -3.1691  0.9090
  699MOL0     H94310  10.782   1.120  10.751  0.3776 -0.1672  1.5039
  699MOL0     H94311  10.736   1.247  10.628 -1.9604  1.3320  0.5849
  699MOL0     H94312  10.903   1.276  10.886 -1.9618  1.6040  0.5663
  699MOL0     H94313  10.875   1.407  10.781  0.1982  0.5291 -0.1977
  699MOL0     H94314  11.013   1.154  10.704  0.2325 -0.4484 -0.3132
  699MOL0     H94315  11.007   1.282  10.589  0.7011 -2.0092 -0.2264
  699MOL0     H94316  11.156   1.491  10.602  0.7745  1.1219 -0.2314
  699MOL0     H94317  11.394   1.620  10.657  0.4722 -0.7647 -1.5018
  699MOL0     H94318  11.420   1.600  10.828 -1.1860 -1.5288  0.2914
  699MOL0     H94319  11.582   1.386  10.710  1.9546 -0.0965 -0.7553
  699MOL0     H94320  11.599   1.515  10.596  1.9258 -0.7152  0.1124
  699MOL0     H94321  11.632   1.560  10.893  0.8673 -0.9819  0.8700
  699MOL0     H94322  11.701   1.667  10.760  1.1644 -0.1065 -1.5320
  699MOL0     H94323  11.845   1.525  10.691 -0.2252 -3.9047 -1.4109
  699MOL0     H94324  11.808   1.382  10.784 -3.3260 -0.5676 -0.2182
  699MOL0     H94325  12.022   1.386  10.729 -2.5263 -0.1626  2.6781
  699MOL0     H94326  12.260   1.323  10.749  0.5172  0.1926  0.7764
  699MOL0     H94327  12.592   1.185  11.026  1.6967 -1.0465  0.2081
  699MOL0     H94328  12.809   1.140  11.064 -0.2014 -1.0645 -0.9363
  699MOL0     H94329  13.003   1.356  11.134  0.2923 -1.0291  2.3940
  699MOL0     H94330  13.016   1.181  11.144 -0.2928  1.0026  0.3019
  699MOL0     H94331  13.212   1.259  11.227 -0.1076 -0.5697  1.0247
  699MOL0     H94332  13.244   1.170  11.085  0.2047  0.4826 -3.6409
  699MOL0     H94333  13.277   1.404  10.955  0.4205 -0.7842 -0.8126
  699MOL0     H94334  13.276   1.464  11.126  2.6339  2.4975 -2.5862
  699MOL0     H94335  13.477   1.269  11.016 -2.1899 -1.1335  1.9586
  699MOL0     H94336  13.463   1.304  11.189  2.5862  0.9998  1.2298
  699MOL0     H94337  13.472   1.561  11.133  2.8068  1.4179 -0.5603
  699MOL0     H94338  13.534   1.497  10.971 -0.7734  1.5371  0.3921
  699MOL0     H94339  13.643   1.455  11.254  0.6798 -0.2461  0.8896
  699MOL0     H94340  13.730   1.396  11.118 -0.8696 -1.2380  2.7409
  699MOL0     H94341  13.703   1.686  11.190 -2.0467  0.0966 -1.1981
  699MOL0     H94342  13.719   1.640  11.028  0.5536  0.8364  0.3670
  699MOL0     H94343  13.908   1.540  11.236  1.1399 -1.7959 -0.7222
  699MOL0     H94344  13.915   1.509  11.055 -0.0666  1.2242 -0.8937
  699MOL0     H94345  12.960   1.400  10.770 -0.5174  2.0574 -0.2192
  699MOL0     H94346  12.719   1.469  10.702  1.6560 -0.4932 -0.8319
  699MOL0     H94347  12.325   1.693  10.973  0.3628 -0.4884 -1.5581
  699MOL0     H94348  12.069   1.707  11.006 -1.4695 -2.0374  2.9225
  699MOL0     H94349  10.209   2.033  10.814  1.5773 -1.7966 -5.6732
  699MOL0     H94350  10.017   2.142  10.852 -0.4230  0.0056 -0.6322
  699MOL0     H94351   9.656   2.219  11.207 -0.8551  0.7438  0.5004
  699MOL0     H94352   9.420   2.300  11.254 -0.4098 -0.7449  0.9587
  699MOL0     H94353   9.125   2.124  11.256 -0.4893 -0.4645  0.1088
  699MOL0     H94354   9.090   2.085  11.080 -2.5228  0.5997 -0.3337
  699MOL0     H94355   8.965   2.293  11.257  0.9166  5.0659 -1.9234
  699MOL0     H94356   8.881   2.173  11.156 -1.6322  1.4866  0.9641
  699MOL0     H94357   9.042   2.414  11.057  1.9247 -2.9882  1.4816
  699MOL0     H94358   8.862   2.399  11.048 -0.1402 -0.4233  0.7598
  699MOL0     H94359   9.043   2.196  10.920  0.3199  0.4073  0.9570
  699MOL0     H94360   8.871   2.206  10.911  1.9024 -2.5645  1.8140
  699MOL0     H94361   8.974   2.510  10.631 -3.0655  0.0273 -0.1029
  699MOL0     H94362   9.263   2.033  10.978  0.2775  2.2441 -3.8289
  699MOL0     H94363   9.458   1.928  10.790 -2.9696  1.1077  0.2724
  699MOL0     H94364   9.578   1.857  10.914 -1.2460 -1.8919  2.0968
  699MOL0     H94365   9.416   1.828  10.927 -1.3149  1.4955 -0.4061
  700MOL0     O94366   2.854   0.429   2.429  0.4316  0.2056 -0.3418
  700MOL0     C94367   2.769   0.463   2.511 -0.1851  1.1061  0.4324
  700MOL0     O94368   2.763   0.588   2.566  0.3946 -0.5252 -1.2650
  700MOL0     C94369   2.864   0.680   2.565 -0.2169 -0.8649 -0.2652
  700MOL0     C94370   2.848   0.796   2.643  0.2657  0.0599 -0.2887
  700MOL0     C94371   2.940   0.901   2.653  0.6552 -0.3111  0.2787
  700MOL0     C94372   3.063   0.882   2.590  0.4778  0.3752  0.7592
  700MOL0     O94373   3.157   0.971   2.585 -0.0286 -0.7383 -0.1879
  700MOL0     C94374   3.183   1.043   2.704 -1.1853  0.2568  0.0272
  700MOL0     C94375   3.328   1.109   2.693  0.7442 -0.4230  1.2995
  700MOL0     C94376   3.432   1.001   2.679 -0.0544  0.7715 -0.2011
  700MOL0     C94377   3.570   1.060   2.650 -0.0590 -0.9594 -0.6258
  700MOL0     C94378   3.675   0.944   2.648 -0.0687  0.6462  0.1880
  700MOL0     C94379   3.812   0.999   2.621 -0.5246 -0.5876 -0.5008
  700MOL0     C94380   3.916   0.891   2.591  0.1960  0.3362 -0.7173
  700MOL0     C94381   3.981   0.813   2.709  0.3007 -0.5195 -0.3475
  700MOL0     N94382   4.087   0.732   2.667 -0.5852 -0.2007 -0.2869
  700MOL0     C94383   4.079   0.595   2.663 -0.1401  0.0591 -0.3409
  700MOL0     C94384   4.189   0.566   2.582 -0.4394 -0.9784  0.5360
  700MOL0     C94385   4.242   0.423   2.564 -0.1510 -0.7202  0.0813
  700MOL0     C94386   4.266   0.345   2.697  0.1405 -0.1954 -0.3703
  700MOL0     C94387   4.302   0.197   2.669 -0.1129 -0.3433 -0.3002
  700MOL0     C94388   4.433   0.171   2.605  0.6869  0.3536 -0.5513
  700MOL0     O94389   4.446   0.033   2.599 -0.1165  0.0161  0.5795
  700MOL0     C94390   4.566  -0.014   2.555 -0.1091  0.8682 -0.3617
  700MOL0     C94391   4.568  -0.153   2.532 -0.1154  0.3132  0.2740
  700MOL0     C94392   4.681  -0.221   2.492 -0.0535  0.5674 -0.2709
  700MOL0     C94393   4.807  -0.158   2.486 -0.3635 -0.6297  0.1355
  700MOL0     C94394   4.933  -0.235   2.449  1.3711  0.5572 -0.7773
  700MOL0     O94395   5.045  -0.164   2.406 -0.2991  0.2178  0.8205
  700MOL0     C94396   5.174  -0.194   2.441 -0.7307  0.1647  0.5328
  700MOL0     C94397   5.218  -0.243   2.566  0.4600 -0.2455  1.0366
  700MOL0     C94398   5.349  -0.259   2.595 -0.6382  0.1938  0.2446
  700MOL0     C94399   5.443  -0.240   2.496  0.1303 -0.4459 -0.1399
  700MOL0     O94400   5.569  -0.277   2.531 -0.0895 -0.5160 -0.1308
  700MOL0     C94401   5.678  -0.230   2.456 -0.6427  0.6795 -0.3452
  700MOL0     C94402   5.812  -0.250   2.545  0.1984 -0.2849  0.4594
  700MOL0     C94403   5.932  -0.189   2.485 -0.3909  0.4353 -0.2701
  700MOL0     C94404   5.930  -0.047   2.459  0.7809  0.2691  0.5004
  700MOL0     C94405   6.069   0.005   2.411  1.2030  0.2925  0.1155
  700MOL0     C94406   6.179   0.004   2.515 -0.6510 -0.0681 -0.7177
  700MOL0     C94407   6.157   0.102   2.629 -0.4945  0.2168 -0.1581
  700MOL0     C94408   6.279   0.146   2.699 -0.8248  0.4277  0.1030
  700MOL0    Cl94409   6.382   0.235   2.586  0.1178 -0.1492 -0.1352
  700MOL0     C94410   5.403  -0.202   2.371 -0.0457 -0.0582  1.2890
  700MOL0     C94411   5.272  -0.170   2.343 -0.6444  1.1416  0.3491
  700MOL0     O94412   4.925  -0.358   2.461  0.0304 -0.0178 -0.4397
  700MOL0     C94413   4.809  -0.015   2.503  0.4235  0.5488  0.4365
  700MOL0     C94414   4.689   0.051   2.547 -0.9556 -0.6229 -0.7298
  700MOL0     N94415   4.265   0.680   2.557 -0.5671  0.0546  0.2333
  700MOL0     N94416   4.206   0.776   2.604 -0.2078 -0.7218 -0.2325
  700MOL0     C94417   3.090   0.765   2.528 -0.1970  0.5470  0.9661
  700MOL0     C94418   2.991   0.663   2.510 -0.4336  0.2779 -0.5810
  700MOL0     C94419   2.652   0.381   2.527 -1.1223 -0.1080  0.1751
  700MOL0     C94420   2.623   0.334   2.661  0.2024  0.3883 -0.3653
  700MOL0     C94421   2.516   0.250   2.686  0.3712  0.5113 -0.3438
  700MOL0     C94422   2.427   0.221   2.583  0.1708 -0.9294  0.1699
  700MOL0     O94423   2.305   0.159   2.603  0.8794 -0.9178  1.3148
  700MOL0     C94424   2.217   0.224   2.690 -0.5917 -0.3181  0.9211
  700MOL0     C94425   2.073   0.205   2.624 -0.2996 -0.8721 -0.6502
  700MOL0     C94426   2.022   0.067   2.616  0.0033 -0.4421  0.2298
  700MOL0     C94427   1.872   0.060   2.618 -0.8689 -0.3305 -0.0681
  700MOL0     C94428   1.802   0.175   2.551 -0.7155  0.3335 -0.0758
  700MOL0     C94429   1.743   0.263   2.497  1.0269  0.1571  0.3250
  700MOL0     C94430   2.469   0.260   2.450  1.1502 -0.0416 -0.5122
  700MOL0     C94431   2.577   0.334   2.419 -0.0783 -0.2107 -0.8576
  700MOL0     C94432   2.612   0.370   2.268  0.1051 -0.4181 -0.1983
  700MOL0     H94433   2.747   0.800   2.684 -0.9183 -1.9060 -2.7455
  700MOL0     H94434   2.924   0.991   2.712 -2.5981 -1.8232  2.0057
  700MOL0     H94435   3.113   1.125   2.723 -0.3171  0.6591  1.6247
  700MOL0     H94436   3.187   0.972   2.786  2.8146  0.3827  0.1512
  700MOL0     H94437   3.361   1.176   2.773 -0.8341  0.0156  1.6010
  700MOL0     H94438   3.321   1.162   2.597  0.0501 -1.1275  0.9525
  700MOL0     H94439   3.403   0.933   2.599  0.3643 -3.8518  3.1952
  700MOL0     H94440   3.432   0.935   2.767 -0.0547  0.2770 -0.5716
  700MOL0     H94441   3.569   1.113   2.554 -0.1690 -1.1748 -0.7456
  700MOL0     H94442   3.589   1.133   2.728 -1.2319 -0.7791 -0.4851
  700MOL0     H94443   3.676   0.900   2.748  4.1988  1.1153  0.5032
  700MOL0     H94444   3.634   0.876   2.573  0.7254  1.4283 -0.9926
  700MOL0     H94445   3.811   1.056   2.528  4.6664 -0.1948 -0.5890
  700MOL0     H94446   3.847   1.068   2.698  1.2446 -2.0581  0.1016
  700MOL0     H94447   3.996   0.937   2.533 -0.6789 -1.1554 -3.2674
  700MOL0     H94448   3.877   0.809   2.531  1.3702 -1.8005  1.2708
  700MOL0     H94449   4.007   0.894   2.779  0.4580 -0.4479 -0.4876
  700MOL0     H94450   3.905   0.750   2.756  0.1644 -0.9898 -1.1779
  700MOL0     H94451   4.012   0.525   2.712 -1.3996  0.8426 -0.8993
  700MOL0     H94452   4.164   0.368   2.510 -3.0647  2.5156  0.6324
  700MOL0     H94453   4.335   0.438   2.507  0.1518 -0.1679  0.7069
  700MOL0     H94454   4.351   0.396   2.744 -1.8560  2.5689  0.5051
  700MOL0     H94455   4.180   0.366   2.761  0.4052  0.9487 -0.3715
  700MOL0     H94456   4.224   0.156   2.604 -3.5238  2.5106  1.6881
  700MOL0     H94457   4.310   0.154   2.770 -2.1116  1.5632  0.7335
  700MOL0     H94458   4.516   0.206   2.668  1.8904 -1.2490 -1.1768
  700MOL0     H94459   4.443   0.208   2.502  1.3152  1.6101 -0.0600
  700MOL0     H94460   4.481  -0.217   2.526  0.5105 -0.4687 -0.7870
  700MOL0     H94461   4.670  -0.327   2.472 -1.2971  1.0615 -2.5955
  700MOL0     H94462   5.141  -0.264   2.639 -0.0657  0.4207  0.6840
  700MOL0     H94463   5.381  -0.303   2.688 -0.1650 -1.8144 -0.8141
  700MOL0     H94464   5.694  -0.289   2.365 -0.1607  1.5370 -0.8278
  700MOL0     H94465   5.656  -0.126   2.430  0.7431  1.2538  0.6865
  700MOL0     H94466   5.800  -0.202   2.643 -1.7305  3.1828 -1.2688
  700MOL0     H94467   5.823  -0.357   2.562 -2.2927 -0.1597  3.6363
  700MOL0     H94468   6.006  -0.201   2.564 -1.3983 -2.3880  0.3459
  700MOL0     H94469   5.956  -0.255   2.401 -0.5457  0.3856 -0.2759
  700MOL0     H94470   5.909   0.005   2.552 -0.7344  1.4220 -0.4351
  700MOL0     H94471   5.855  -0.034   2.380  1.8351  1.1580 -0.4022
  700MOL0     H94472   6.041   0.108   2.388 -0.4881  0.0223  0.8287
  700MOL0     H94473   6.113  -0.050   2.327  1.0918 -0.5320  0.5886
  700MOL0     H94474   6.198  -0.094   2.559 -0.6227 -0.0182 -0.6199
  700MOL0     H94475   6.271   0.039   2.465 -0.2096 -0.5657 -0.2612
  700MOL0     H94476   6.090   0.048   2.696 -0.5267 -0.9003 -1.0588
  700MOL0     H94477   6.110   0.192   2.588  1.6325  0.4670 -2.2843
  700MOL0     H94478   6.258   0.218   2.778 -2.3567 -0.5106  0.5898
  700MOL0     H94479   6.320   0.057   2.748 -0.9429 -0.3196 -1.0985
  700MOL0     H94480   5.479  -0.207   2.293  0.9280 -0.5903  2.2353
  700MOL0     H94481   5.251  -0.134   2.243 -2.6025 -0.2948  0.1653
  700MOL0     H94482   4.903   0.039   2.491  0.1769  0.5136 -2.2963
  700MOL0     H94483   4.707   0.157   2.555 -0.8124 -0.6450 -0.7516
  700MOL0     H94484   3.190   0.763   2.488 -1.2311  0.3948 -1.8402
  700MOL0     H94485   3.018   0.582   2.443 -3.0287 -0.8592 -0.3499
  700MOL0     H94486   2.684   0.375   2.741  0.3052 -0.1410 -0.1687
  700MOL0     H94487   2.502   0.216   2.788  3.3657 -1.2257 -0.4080
  700MOL0     H94488   2.228   0.331   2.708 -3.3674  0.1574  0.3289
  700MOL0     H94489   2.223   0.167   2.783  4.5082 -2.5159 -0.4271
  700MOL0     H94490   2.070   0.257   2.528 -0.6632  1.5490  0.5856
  700MOL0     H94491   2.004   0.253   2.693  0.3541 -3.8776  2.3730
  700MOL0     H94492   2.071   0.013   2.697  2.3506  2.1359  0.6965
  700MOL0     H94493   2.051   0.033   2.516 -0.7840  0.7544 -0.4324
  700MOL0     H94494   1.855  -0.027   2.554  0.3175 -0.5741 -0.0889
  700MOL0     H94495   1.820   0.042   2.712 -0.2726  0.1606  0.3670
  700MOL0     H94496   1.707   0.350   2.445 -1.8205 -1.1679 -0.1281
  700MOL0     H94497   2.395   0.233   2.376  0.1805 -0.1700  0.4776
  700MOL0     H94498   2.647   0.287   2.205  1.1778  0.2615 -0.5245
  700MOL0     H94499   2.529   0.425   2.224  0.5317 -2.0426 -3.3024
  700MOL0     H94500   2.692   0.444   2.260 -1.6736  1.5823 -0.2597
  701MOL0     O94501   3.794   7.431   1.196 -0.6495  0.2582  0.8853
  701MOL0     C94502   3.913   7.453   1.232  0.4589 -0.0547  0.6076
  701MOL0     O94503   4.026   7.419   1.163 -0.3379 -0.9085 -0.6803
  701MOL0     C94504   3.992   7.360   1.042  0.0482 -0.2069 -0.4072
  701MOL0     C94505   4.001   7.222   1.015 -0.1126 -0.2543  0.2811
  701MOL0     C94506   3.968   7.175   0.883 -0.2223 -0.5319  0.2524
  701MOL0     C94507   3.923   7.256   0.782  0.4226  0.3292  0.2643
  701MOL0     O94508   3.910   7.205   0.658 -0.3260  0.5146 -0.6238
  701MOL0     C94509   3.888   7.294   0.550  0.2022 -0.9036 -0.3152
  701MOL0     C94510   3.904   7.214   0.422  0.1864  0.2355 -0.4416
  701MOL0     C94511   4.037   7.223   0.356 -0.2993  0.4236  0.3635
  701MOL0     C94512   4.027   7.178   0.208 -0.2518  0.6522  0.1576
  701MOL0     C94513   4.166   7.158   0.133  0.5518  0.5733  0.9288
  701MOL0     C94514   4.150   7.118  -0.011  0.4252  0.6045 -0.1507
  701MOL0     C94515   4.071   7.212  -0.100  0.2262  0.4476  0.7037
  701MOL0     C94516   4.110   7.207  -0.249  0.3035 -0.3598  0.1170
  701MOL0     N94517   4.036   7.116  -0.336 -0.1363 -0.0160 -0.7960
  701MOL0     C94518   3.916   7.141  -0.391  0.2324 -0.7880 -0.5620
  701MOL0     C94519   3.883   7.020  -0.439 -0.3554  0.0852 -0.3197
  701MOL0     C94520   3.751   6.983  -0.502 -0.2510  0.5490  0.1084
  701MOL0     C94521   3.636   6.984  -0.404  0.4460 -0.5293 -0.3215
  701MOL0     C94522   3.519   7.069  -0.452  0.2912  0.3988  0.1405
  701MOL0     C94523   3.398   7.051  -0.361  0.5301  0.6708  0.0404
  701MOL0     O94524   3.370   6.914  -0.320 -0.0919 -0.5762  0.0831
  701MOL0     C94525   3.313   6.894  -0.191 -0.0988  0.3239 -0.1625
  701MOL0     C94526   3.225   6.989  -0.138 -0.4296 -0.1724 -0.3416
  701MOL0     C94527   3.154   6.958  -0.014 -0.1366  1.4166  0.0773
  701MOL0     C94528   3.182   6.842   0.052  0.7646 -0.1499 -0.8921
  701MOL0     C94529   3.128   6.811   0.186  0.0551  0.6337  0.5858
  701MOL0     O94530   3.144   6.688   0.236  0.3462 -0.1189 -0.0993
  701MOL0     C94531   3.155   6.671   0.375  0.3919  0.7465 -0.5632
  701MOL0     C94532   3.225   6.765   0.458  0.9029  0.4579 -0.5600
  701MOL0     C94533   3.234   6.742   0.603 -0.6231 -0.3429 -0.2915
  701MOL0     C94534   3.184   6.626   0.657  0.8448  0.0949  0.7326
  701MOL0     O94535   3.214   6.593   0.786 -0.6747 -0.3941  0.1640
  701MOL0     C94536   3.346   6.525   0.786 -0.3219  0.0022  0.5508
  701MOL0     C94537   3.404   6.519   0.925  0.5517 -1.2575 -0.2914
  701MOL0     C94538   3.518   6.421   0.932 -0.4182 -0.5476  0.4947
  701MOL0     C94539   3.593   6.417   1.072 -0.2164  0.6420 -0.4968
  701MOL0     C94540   3.749   6.378   1.069  0.7338  0.0152  0.1027
  701MOL0     C94541   3.800   6.365   1.211 -0.0794  0.5693 -0.0397
  701MOL0     C94542   3.923   6.280   1.237 -0.4344  0.4133 -0.6449
  701MOL0     C94543   3.946   6.240   1.384  0.7515  0.0352  1.1167
  701MOL0    Cl94544   3.838   6.109   1.426 -0.1209 -0.0973 -0.2928
  701MOL0     C94545   3.120   6.528   0.576 -0.8168 -0.1971  0.0368
  701MOL0     C94546   3.106   6.556   0.434 -0.3720  0.5480 -0.7474
  701MOL0     O94547   3.066   6.895   0.244  0.8960  0.2402 -0.0539
  701MOL0     C94548   3.265   6.743  -0.003  0.2971 -0.2614  0.3934
  701MOL0     C94549   3.327   6.771  -0.131 -0.5854 -0.6613  0.3125
  701MOL0     N94550   3.987   6.934  -0.429  0.7437 -0.1173  0.4049
  701MOL0     N94551   4.075   6.990  -0.361  0.3381  0.0550  0.5123
  701MOL0     C94552   3.890   7.390   0.819 -0.1505 -0.3803  0.7819
  701MOL0     C94553   3.940   7.441   0.938 -0.1258 -0.2322 -0.1534
  701MOL0     C94554   3.931   7.499   1.374  0.3740 -0.0281  0.0150
  701MOL0     C94555   4.047   7.458   1.437 -0.9605 -0.5273 -0.5662
  701MOL0     C94556   4.071   7.494   1.565 -0.5164  0.1663  0.0730
  701MOL0     C94557   3.982   7.578   1.637 -0.6500  0.2181  0.2980
  701MOL0     O94558   4.012   7.643   1.751  0.0606 -0.5014 -0.1293
  701MOL0     C94559   4.071   7.555   1.848  0.3662  0.0240 -0.4433
  701MOL0     C94560   4.217   7.590   1.845  0.0264  0.1924  0.3211
  701MOL0     C94561   4.310   7.518   1.947 -0.4873  0.2042 -0.4195
  701MOL0     C94562   4.288   7.364   1.944  0.3315  0.2531  0.1921
  701MOL0     C94563   4.389   7.290   2.015 -0.7190  0.4569 -0.5560
  701MOL0     C94564   4.469   7.226   2.083  0.1935  0.3775  0.6646
  701MOL0     C94565   3.871   7.623   1.576  0.4366  0.2222 -0.2345
  701MOL0     C94566   3.848   7.580   1.443  0.6514  0.0700  0.5948
  701MOL0     C94567   3.718   7.637   1.378 -0.1403 -0.1186  0.7232
  701MOL0     H94568   4.028   7.154   1.095  1.9681 -1.3136 -1.2408
  701MOL0     H94569   3.995   7.071   0.867  2.7842  0.3161 -0.8507
  701MOL0     H94570   3.785   7.327   0.569  1.1909  0.6652  3.1007
  701MOL0     H94571   3.950   7.383   0.546 -1.3224  0.2961  1.1040
  701MOL0     H94572   3.838   7.261   0.349 -1.2921 -1.8934 -0.5356
  701MOL0     H94573   3.883   7.107   0.431 -0.6507  0.3942 -0.4303
  701MOL0     H94574   4.118   7.164   0.400 -1.2425 -0.4184  1.0083
  701MOL0     H94575   4.072   7.327   0.350 -1.8942  1.0444  1.1203
  701MOL0     H94576   3.979   7.080   0.206  1.0818 -0.0281  0.5125
  701MOL0     H94577   3.967   7.258   0.163 -0.3417  1.3426  1.4697
  701MOL0     H94578   4.222   7.253   0.132  2.5183 -0.5312 -0.7147
  701MOL0     H94579   4.235   7.088   0.180  2.4434  1.9640  0.3591
  701MOL0     H94580   4.252   7.117  -0.050 -0.1933 -0.4748 -1.8924
  701MOL0     H94581   4.112   7.015  -0.016  1.9982 -0.0817  1.1583
  701MOL0     H94582   4.089   7.314  -0.066 -2.0449  1.4658 -0.9352
  701MOL0     H94583   3.964   7.192  -0.089  0.4408  0.0240  2.1986
  701MOL0     H94584   4.080   7.302  -0.294  1.2287 -1.0584 -2.1721
  701MOL0     H94585   4.218   7.196  -0.261  0.3117  0.8486 -1.1779
  701MOL0     H94586   3.848   7.226  -0.393 -1.1670 -1.8692 -0.5147
  701MOL0     H94587   3.730   7.055  -0.582  0.9410  3.4689  2.2388
  701MOL0     H94588   3.758   6.882  -0.544 -0.9160  0.6635 -0.3008
  701MOL0     H94589   3.597   6.883  -0.384 -3.3371  0.8576  0.0602
  701MOL0     H94590   3.675   7.032  -0.314 -0.2354  0.7335 -0.6895
  701MOL0     H94591   3.490   7.046  -0.555  2.3640  2.5451 -1.0060
  701MOL0     H94592   3.547   7.174  -0.453  0.3461  0.3832  0.0435
  701MOL0     H94593   3.310   7.076  -0.421  0.1621 -1.4770 -0.3625
  701MOL0     H94594   3.418   7.126  -0.283  3.9352 -0.4913  0.4554
  701MOL0     H94595   3.200   7.088  -0.175 -1.3286 -0.6661 -1.0914
  701MOL0     H94596   3.078   7.027   0.021 -1.4956  0.7099 -1.3579
  701MOL0     H94597   3.281   6.843   0.408  0.7935 -0.9899 -3.0810
  701MOL0     H94598   3.297   6.808   0.661 -1.3169  2.0464 -2.1056
  701MOL0     H94599   3.330   6.421   0.757  0.2509 -0.5379  2.0728
  701MOL0     H94600   3.420   6.565   0.717 -1.4611  0.1846 -0.6209
  701MOL0     H94601   3.437   6.620   0.953 -2.9146  0.4924 -1.8688
  701MOL0     H94602   3.325   6.483   0.992 -1.3320 -0.8470 -2.1650
  701MOL0     H94603   3.485   6.323   0.897 -0.9216 -0.7008  1.3604
  701MOL0     H94604   3.590   6.448   0.854 -3.1245  1.3415 -1.5415
  701MOL0     H94605   3.538   6.350   1.139  2.3433 -1.5017 -0.4112
  701MOL0     H94606   3.587   6.516   1.119  0.6053 -0.0095  1.0148
  701MOL0     H94607   3.808   6.445   1.008  0.7309  1.6080  1.7648
  701MOL0     H94608   3.758   6.274   1.035 -0.1944 -0.6337  1.7115
  701MOL0     H94609   3.819   6.463   1.255 -1.1069  0.7906 -0.0781
  701MOL0     H94610   3.715   6.319   1.262 -0.4634  1.3845  0.0719
  701MOL0     H94611   3.997   6.350   1.198 -0.5036  2.1726  2.1237
  701MOL0     H94612   3.930   6.187   1.179 -0.0110 -1.0344  1.6149
  701MOL0     H94613   4.048   6.205   1.404  0.9954 -1.6797 -2.4211
  701MOL0     H94614   3.923   6.321   1.454  1.6573  0.9071  0.4416
  701MOL0     H94615   3.096   6.434   0.625 -2.9573  0.0200 -0.4746
  701MOL0     H94616   3.049   6.495   0.364 -0.4295  0.4774 -0.6391
  701MOL0     H94617   3.287   6.648   0.045 -0.2018 -0.3299  0.4954
  701MOL0     H94618   3.395   6.701  -0.178 -1.9619 -1.3170 -0.7889
  701MOL0     H94619   3.846   7.457   0.745 -1.1130 -2.4285 -0.5855
  701MOL0     H94620   3.939   7.549   0.945  1.7850 -0.2300  0.9618
  701MOL0     H94621   4.116   7.381   1.404  2.7042  1.9924  0.6060
  701MOL0     H94622   4.152   7.441   1.614  0.3687  0.7545 -0.7177
  701MOL0     H94623   4.045   7.449   1.838 -0.5450  0.1450  0.4930
  701MOL0     H94624   4.030   7.582   1.946 -0.7016 -1.0172 -0.5799
  701MOL0     H94625   4.231   7.699   1.854 -2.1727  0.4170  1.6027
  701MOL0     H94626   4.245   7.562   1.743 -1.0859 -0.7865  0.2697
  701MOL0     H94627   4.296   7.559   2.047  3.3086 -2.9963  1.7331
  701MOL0     H94628   4.415   7.526   1.915 -1.0985 -1.1702 -3.0656
  701MOL0     H94629   4.188   7.339   1.980  0.6644 -0.4927  0.6126
  701MOL0     H94630   4.295   7.334   1.840  1.0265  0.6057  0.1339
  701MOL0     H94631   4.545   7.166   2.129  0.0030 -0.8352 -0.5713
  701MOL0     H94632   3.820   7.698   1.636 -1.2517  1.0978 -2.6295
  701MOL0     H94633   3.678   7.711   1.448 -1.2039  0.2059 -0.2017
  701MOL0     H94634   3.744   7.693   1.288 -0.6605 -0.7632  0.1641
  701MOL0     H94635   3.641   7.561   1.362 -2.5554  1.9526  1.7119
  702MOL0     O94636   8.681   2.815   1.676  0.6336 -0.3956  0.2086
  702MOL0     C94637   8.630   2.756   1.579 -0.6594  0.3886 -0.2252
  702MOL0     O94638   8.689   2.663   1.502  0.6310  0.3520 -0.1470
  702MOL0     C94639   8.812   2.620   1.517 -0.2414 -0.0854  0.5677
  702MOL0     C94640   8.892   2.635   1.631 -0.3672 -0.6350 -0.0074
  702MOL0     C94641   9.021   2.585   1.634 -0.5340  0.7615  0.5076
  702MOL0     C94642   9.077   2.512   1.532  0.7047  0.7520  1.0729
  702MOL0     O94643   9.200   2.458   1.550  0.4473 -0.2766  0.5461
  702MOL0     C94644   9.228   2.341   1.465  0.1824 -0.8189  0.2712
  702MOL0     C94645   9.354   2.262   1.520  0.1763 -0.3928  0.3414
  702MOL0     C94646   9.490   2.332   1.521  0.2772  0.2284  0.3090
  702MOL0     C94647   9.609   2.248   1.577  1.0351  0.2152 -0.3144
  702MOL0     C94648   9.742   2.309   1.538 -0.3610 -0.6290 -0.9372
  702MOL0     C94649   9.793   2.269   1.405  0.3093  0.3468 -0.2256
  702MOL0     C94650   9.932   2.336   1.378  0.4412  0.3484 -0.5467
  702MOL0     C94651   9.981   2.274   1.240  0.4694  0.4721 -0.2851
  702MOL0     N94652  10.124   2.302   1.221  0.5630 -1.1055  0.5873
  702MOL0     C94653  10.219   2.298   1.313  0.4243 -0.2206 -0.3793
  702MOL0     C94654  10.335   2.305   1.247 -1.5564 -1.4319 -0.2250
  702MOL0     C94655  10.478   2.304   1.303 -0.3075  0.8301 -0.1175
  702MOL0     C94656  10.569   2.409   1.243 -0.5985 -0.1718  0.4730
  702MOL0     C94657  10.714   2.396   1.295  0.8405  0.6249 -0.8334
  702MOL0     C94658  10.795   2.503   1.218 -1.0553  0.9253  0.7420
  702MOL0     O94659  10.926   2.508   1.279  0.0860  0.2442  0.0490
  702MOL0     C94660  11.032   2.573   1.229 -0.2042  0.4729  0.3974
  702MOL0     C94661  11.152   2.575   1.299  0.2797  0.2177 -0.4057
  702MOL0     C94662  11.264   2.644   1.250 -0.7202  0.1104 -0.4670
  702MOL0     C94663  11.267   2.712   1.122  0.3702  0.4487  0.1622
  702MOL0     C94664  11.392   2.769   1.066 -0.2543  0.0026 -0.0128
  702MOL0     O94665  11.475   2.837   1.162  0.3084  0.3114 -0.2909
  702MOL0     C94666  11.614   2.849   1.138  0.0447  0.2741  0.7466
  702MOL0     C94667  11.692   2.833   1.250  0.1164  0.1312  0.1893
  702MOL0     C94668  11.829   2.860   1.247  1.1030 -0.3037 -0.2277
  702MOL0     C94669  11.890   2.907   1.129 -0.7194 -0.3237  0.3146
  702MOL0     O94670  12.027   2.914   1.129 -0.1038 -0.0276  0.2047
  702MOL0     C94671  12.103   2.915   1.012 -0.4256 -0.6088 -0.2412
  702MOL0     C94672  12.158   2.779   0.982 -0.6492  0.1380 -0.4644
  702MOL0     C94673  12.279   2.784   0.893 -0.3908 -0.5952  0.2452
  702MOL0     C94674  12.296   2.656   0.818 -0.1390  0.5769 -0.6528
  702MOL0     C94675  12.393   2.688   0.704 -0.6407  0.4501 -0.2688
  702MOL0     C94676  12.520   2.756   0.751 -0.2504 -0.0313 -0.2669
  702MOL0     C94677  12.639   2.739   0.653  0.7842  0.9739 -0.0598
  702MOL0     C94678  12.769   2.803   0.694  0.4157  0.0241  0.0806
  702MOL0    Cl94679  12.734   2.958   0.776  0.0738  0.1782  0.4771
  702MOL0     C94680  11.807   2.936   1.016  0.3229  0.7277 -0.2490
  702MOL0     C94681  11.675   2.907   1.025 -0.3377 -0.0252 -0.1437
  702MOL0     O94682  11.427   2.742   0.952 -0.6562 -0.4018 -0.2851
  702MOL0     C94683  11.143   2.708   1.049 -0.1926  0.1814 -0.2211
  702MOL0     C94684  11.027   2.650   1.108  0.4820 -0.3491  0.0325
  702MOL0     N94685  10.306   2.298   1.117 -0.3699  0.7522  0.3925
  702MOL0     N94686  10.184   2.300   1.101  0.3254  0.7298  0.4872
  702MOL0     C94687   8.997   2.497   1.416  0.3817  0.7467  0.4711
  702MOL0     C94688   8.870   2.554   1.410  0.2007  0.5936 -0.3986
  702MOL0     C94689   8.489   2.783   1.558 -0.3770 -0.7908 -0.7871
  702MOL0     C94690   8.413   2.812   1.672  0.0832 -1.8465  0.4970
  702MOL0     C94691   8.283   2.864   1.657  0.4664 -0.6098  0.7592
  702MOL0     C94692   8.220   2.862   1.527  0.3269  0.3241  0.0902
  702MOL0     O94693   8.089   2.896   1.502  0.5936 -0.8985 -0.8657
  702MOL0     C94694   7.995   2.876   1.609  0.1799 -0.2052 -0.0147
  702MOL0     C94695   7.855   2.871   1.549  0.2023 -0.6138 -0.3044
  702MOL0     C94696   7.829   2.743   1.461 -0.2858 -1.0164  0.7189
  702MOL0     C94697   7.678   2.721   1.442  0.6299  0.1431 -0.1334
  702MOL0     C94698   7.635   2.588   1.397 -0.0794  0.6982  0.2813
  702MOL0     C94699   7.588   2.488   1.348 -0.1673  0.6057  0.5107
  702MOL0     C94700   8.299   2.824   1.420  0.2395 -0.0156  0.7251
  702MOL0     C94701   8.432   2.797   1.432 -0.4106  1.1034  1.1955
  702MOL0     C94702   8.514   2.803   1.303 -0.0548  0.0370 -0.3931
  702MOL0     H94703   8.849   2.669   1.724  1.4268  2.8851 -0.2642
  702MOL0     H94704   9.081   2.613   1.720  2.1434  2.9472 -1.8694
  702MOL0     H94705   9.144   2.272   1.457  0.9180 -2.0514  2.4777
  702MOL0     H94706   9.252   2.380   1.366  2.4263 -1.9823  0.2954
  702MOL0     H94707   9.366   2.178   1.451  0.0977 -0.1682  0.0498
  702MOL0     H94708   9.323   2.230   1.620  0.2585 -1.7922 -0.0592
  702MOL0     H94709   9.487   2.430   1.570  1.2983 -0.0270  0.9001
  702MOL0     H94710   9.516   2.349   1.416 -3.1935 -2.5829 -1.2250
  702MOL0     H94711   9.603   2.230   1.685 -3.2849 -0.4343 -0.4580
  702MOL0     H94712   9.580   2.150   1.537  0.1279 -1.5166  3.9915
  702MOL0     H94713   9.751   2.417   1.550  0.7074 -0.8291  0.3071
  702MOL0     H94714   9.821   2.267   1.602 -0.4864 -0.9330 -0.9817
  702MOL0     H94715   9.807   2.161   1.407 -1.3947  0.0947  2.0505
  702MOL0     H94716   9.725   2.297   1.325  2.4241 -1.3237 -2.7922
  702MOL0     H94717  10.007   2.304   1.451  1.5720 -0.1718 -1.8701
  702MOL0     H94718   9.923   2.445   1.367 -2.8500  0.2569  0.2813
  702MOL0     H94719   9.974   2.165   1.241  2.7561  0.2670  1.4966
  702MOL0     H94720   9.923   2.318   1.159  1.2899 -0.6102 -1.4917
  702MOL0     H94721  10.204   2.302   1.420  0.3075  1.9324 -0.4190
  702MOL0     H94722  10.470   2.310   1.412  0.2322 -0.1757 -0.0085
  702MOL0     H94723  10.514   2.203   1.278 -1.4033  0.6615 -1.0911
  702MOL0     H94724  10.575   2.396   1.135  1.2971 -3.2315  0.8248
  702MOL0     H94725  10.531   2.509   1.264  3.8956  2.3567 -1.9239
  702MOL0     H94726  10.757   2.296   1.283  0.5816  0.6051 -1.6083
  702MOL0     H94727  10.710   2.427   1.400 -2.9807  1.0698 -0.9890
  702MOL0     H94728  10.752   2.603   1.222 -0.8652  1.0663 -0.5175
  702MOL0     H94729  10.813   2.477   1.113 -1.5809  0.8863  0.6600
  702MOL0     H94730  11.151   2.525   1.395 -0.4635 -1.1917 -1.1156
  702MOL0     H94731  11.353   2.643   1.312 -1.3870 -1.2182  0.5088
  702MOL0     H94732  11.645   2.806   1.345  0.9380  0.4189  0.6833
  702MOL0     H94733  11.900   2.834   1.324  0.2051  1.0649  1.1146
  702MOL0     H94734  12.053   2.947   0.920  1.3286 -1.3027 -1.4886
  702MOL0     H94735  12.192   2.976   1.028 -0.4952 -0.4638 -0.4108
  702MOL0     H94736  12.195   2.724   1.069  0.4780  1.5358 -0.0192
  702MOL0     H94737  12.077   2.723   0.934 -1.3089  0.9829 -0.3758
  702MOL0     H94738  12.259   2.872   0.831 -0.7266 -1.5580 -1.0581
  702MOL0     H94739  12.364   2.807   0.957  0.4698  2.0724 -1.6556
  702MOL0     H94740  12.197   2.630   0.780 -2.5208  4.2480  2.2249
  702MOL0     H94741  12.336   2.583   0.889 -0.2097  0.7282 -0.4539
  702MOL0     H94742  12.345   2.756   0.634 -0.8874  0.5577  0.0042
  702MOL0     H94743  12.421   2.595   0.653  0.4133  0.4417  0.3009
  702MOL0     H94744  12.497   2.863   0.756  0.7054  0.2187 -0.9573
  702MOL0     H94745  12.539   2.714   0.851 -0.1634 -1.8343 -0.9994
  702MOL0     H94746  12.599   2.782   0.561 -1.3804  2.7359  1.5912
  702MOL0     H94747  12.654   2.631   0.643 -0.4679  0.7006  0.8815
  702MOL0     H94748  12.835   2.742   0.756 -0.7592 -0.6719  0.6778
  702MOL0     H94749  12.833   2.822   0.608  1.5773  2.0099  1.2949
  702MOL0     H94750  11.842   2.980   0.924 -1.5038  1.6293 -0.5682
  702MOL0     H94751  11.611   2.920   0.938 -1.2603 -1.5672  0.2598
  702MOL0     H94752  11.146   2.758   0.953  3.3951 -0.6322 -0.6848
  702MOL0     H94753  10.937   2.661   1.050  0.7770  0.8577 -0.2128
  702MOL0     H94754   9.032   2.454   1.322 -1.1854 -0.5822  0.4455
  702MOL0     H94755   8.809   2.549   1.320 -3.0636 -0.2257  1.6656
  702MOL0     H94756   8.451   2.810   1.773 -1.4084  0.9367  1.2245
  702MOL0     H94757   8.235   2.879   1.753  0.2650  2.8380  0.2385
  702MOL0     H94758   8.012   2.958   1.680  1.9058  2.0682 -2.8333
  702MOL0     H94759   8.023   2.781   1.655 -1.3718  1.0082  3.8608
  702MOL0     H94760   7.849   2.949   1.473 -1.6675 -0.9398 -0.5459
  702MOL0     H94761   7.776   2.884   1.624  1.9066 -1.2944  1.7241
  702MOL0     H94762   7.882   2.660   1.509  0.1205 -0.8980  0.4710
  702MOL0     H94763   7.882   2.762   1.368 -1.3321 -0.2257  0.2627
  702MOL0     H94764   7.636   2.724   1.543 -1.5700  2.3986 -1.0164
  702MOL0     H94765   7.623   2.796   1.384  1.0155  0.0043 -0.6879
  702MOL0     H94766   7.533   2.409   1.302 -0.9981  0.2184  2.0879
  702MOL0     H94767   8.263   2.832   1.318  0.3185  1.7077  0.7959
  702MOL0     H94768   8.593   2.877   1.318 -0.7609  0.9968 -1.1938
  702MOL0     H94769   8.577   2.715   1.288  0.9198  0.7427 -0.5011
  702MOL0     H94770   8.455   2.827   1.214  0.8265  1.3618 -0.6469
  703MOL0     O94771   7.951   7.257   5.445 -0.0715 -0.4019 -0.0083
  703MOL0     C94772   7.909   7.256   5.561  0.2495  0.1494 -0.5736
  703MOL0     O94773   7.978   7.228   5.672 -0.0238  0.4905 -0.5578
  703MOL0     C94774   8.114   7.241   5.680 -0.1985 -0.1284  1.1494
  703MOL0     C94775   8.179   7.359   5.636 -0.0585  0.0909 -0.0026
  703MOL0     C94776   8.323   7.364   5.632  0.8901 -0.1074  0.4902
  703MOL0     C94777   8.396   7.256   5.679 -0.0976  0.5755  0.6415
  703MOL0     O94778   8.530   7.286   5.701  0.1398 -0.2272 -0.1892
  703MOL0     C94779   8.596   7.232   5.812  0.5404  0.1078  0.0406
  703MOL0     C94780   8.704   7.129   5.779 -0.6728  1.2806 -0.4591
  703MOL0     C94781   8.845   7.183   5.746  0.5267 -0.4453  0.5238
  703MOL0     C94782   8.943   7.101   5.667  0.0270 -0.6421 -0.2702
  703MOL0     C94783   9.092   7.149   5.657  0.4640 -0.3614  0.5962
  703MOL0     C94784   9.153   7.159   5.793  1.0821 -0.7036 -0.3846
  703MOL0     C94785   9.299   7.191   5.793  0.1492  1.3215  0.4702
  703MOL0     C94786   9.373   7.068   5.764  1.1811  0.2802 -0.7778
  703MOL0     N94787   9.517   7.092   5.747  0.6452  0.1429 -0.4506
  703MOL0     C94788   9.579   7.181   5.666  0.4235  0.1696  0.8409
  703MOL0     C94789   9.709   7.134   5.657  0.1994  0.1661 -0.1478
  703MOL0     C94790   9.825   7.207   5.579 -0.0675 -0.1063 -0.1789
  703MOL0     C94791   9.950   7.125   5.611 -0.1366  1.3250 -0.4067
  703MOL0     C94792  10.072   7.188   5.544 -0.1304  0.2866  0.8277
  703MOL0     C94793  10.195   7.106   5.540 -0.2357  0.1132  0.0397
  703MOL0     O94794  10.283   7.159   5.451 -1.2208 -0.2878  0.2265
  703MOL0     C94795  10.417   7.107   5.455  0.0284 -0.9017 -0.0732
  703MOL0     C94796  10.463   7.007   5.547 -1.6822  0.4988  0.3657
  703MOL0     C94797  10.590   6.952   5.540  0.0194 -0.3287 -0.6351
  703MOL0     C94798  10.695   7.021   5.464 -0.2055  0.3783 -0.2092
  703MOL0     C94799  10.833   6.969   5.472  0.1022  0.2014 -0.4495
  703MOL0     O94800  10.928   7.050   5.419  0.6838  0.4250 -0.1437
  703MOL0     C94801  11.064   7.011   5.416  0.2906 -0.8123  0.2949
  703MOL0     C94802  11.151   7.071   5.316 -0.3223 -0.3356 -0.3968
  703MOL0     C94803  11.292   7.048   5.320 -0.4335 -0.2024  0.1925
  703MOL0     C94804  11.353   6.991   5.432  1.1714 -0.1975  0.0291
  703MOL0     O94805  11.486   6.981   5.435 -0.3295 -0.1904  0.3318
  703MOL0     C94806  11.530   6.883   5.342  0.1094 -0.0528 -0.0723
  703MOL0     C94807  11.687   6.867   5.349  0.9617 -0.3050  1.0868
  703MOL0     C94808  11.772   6.985   5.300 -0.6892  0.0058  0.5370
  703MOL0     C94809  11.923   6.961   5.313 -0.3369 -0.4273  0.7208
  703MOL0     C94810  12.004   7.073   5.258  0.4075  0.4516  0.1898
  703MOL0     C94811  12.153   7.035   5.247 -0.5282 -0.5113  0.2683
  703MOL0     C94812  12.227   7.017   5.379  0.1354  0.2471  0.8335
  703MOL0     C94813  12.362   6.961   5.366 -0.2166 -0.0867  1.0051
  703MOL0    Cl94814  12.346   6.785   5.318 -0.2722 -0.3370  0.0254
  703MOL0     C94815  11.273   6.930   5.529  0.6009 -0.5569  0.8412
  703MOL0     C94816  11.133   6.937   5.516 -0.0331 -0.6324  0.1358
  703MOL0     O94817  10.848   6.859   5.536 -0.2610  0.0941 -0.3642
  703MOL0     C94818  10.655   7.124   5.378  0.9743 -0.0747  0.3757
  703MOL0     C94819  10.516   7.155   5.366  0.9809 -0.5827 -0.3136
  703MOL0     N94820   9.716   7.024   5.739  1.0773  0.9991 -0.8568
  703MOL0     N94821   9.599   6.995   5.784 -0.4926 -0.6180 -0.1739
  703MOL0     C94822   8.334   7.142   5.719 -0.3629  0.9809 -0.2354
  703MOL0     C94823   8.193   7.129   5.719  0.3272 -0.0365  1.2172
  703MOL0     C94824   7.768   7.272   5.579  0.1030 -0.2540 -0.6060
  703MOL0     C94825   7.726   7.363   5.670  0.1913 -0.0221 -0.4996
  703MOL0     C94826   7.586   7.377   5.694 -0.0494 -0.8188 -0.1315
  703MOL0     C94827   7.490   7.303   5.629  0.0181 -0.2804  0.7896
  703MOL0     O94828   7.353   7.328   5.638 -0.0804  0.5501  0.3108
  703MOL0     C94829   7.292   7.418   5.736  0.2112  0.0862 -0.3763
  703MOL0     C94830   7.140   7.412   5.728 -0.3027  0.4932  0.1883
  703MOL0     C94831   7.073   7.494   5.841 -0.3340 -0.4230 -0.1770
  703MOL0     C94832   6.924   7.531   5.807 -0.5466 -0.3276  0.6788
  703MOL0     C94833   6.856   7.402   5.792 -0.8748  0.5790  0.2113
  703MOL0     C94834   6.803   7.294   5.754 -0.4550  0.1076  0.2159
  703MOL0     C94835   7.527   7.223   5.524 -0.0793 -0.5277 -0.6139
  703MOL0     C94836   7.669   7.208   5.496  0.3820  0.2754 -0.2969
  703MOL0     C94837   7.693   7.109   5.386 -0.9253 -0.3195 -0.5189
  703MOL0     H94838   8.126   7.447   5.602 -2.0072 -1.3573 -0.9158
  703MOL0     H94839   8.388   7.444   5.600  2.2646 -0.7644  1.5201
  703MOL0     H94840   8.652   7.316   5.853  0.4374 -0.1501  0.7246
  703MOL0     H94841   8.530   7.192   5.889 -2.1884 -0.0766 -2.2197
  703MOL0     H94842   8.664   7.056   5.707 -0.0904  0.7837 -0.2874
  703MOL0     H94843   8.704   7.067   5.869 -1.3914  1.3298 -0.4180
  703MOL0     H94844   8.892   7.189   5.845  2.3253 -0.8646 -0.2581
  703MOL0     H94845   8.838   7.279   5.695 -2.9920 -0.9685 -0.2134
  703MOL0     H94846   8.952   6.998   5.701  1.1341 -1.6033 -3.1967
  703MOL0     H94847   8.902   7.097   5.566  2.6745  1.2192 -1.5350
  703MOL0     H94848   9.137   7.067   5.600  3.6430  0.4598  1.6999
  703MOL0     H94849   9.115   7.239   5.599  2.3303  0.6106  2.6793
  703MOL0     H94850   9.093   7.234   5.845  0.4120 -0.4881 -1.4294
  703MOL0     H94851   9.141   7.067   5.851 -0.9473 -0.4125 -0.2495
  703MOL0     H94852   9.327   7.230   5.891  2.8292 -0.8396  0.6985
  703MOL0     H94853   9.313   7.273   5.722  1.6507  1.3558  0.7758
  703MOL0     H94854   9.367   7.005   5.854  2.8187  3.4169  1.7091
  703MOL0     H94855   9.326   7.010   5.684 -1.5683 -0.5332  1.2793
  703MOL0     H94856   9.534   7.264   5.611 -2.8122 -1.3044  1.0810
  703MOL0     H94857   9.798   7.222   5.474  0.4927  0.4030 -0.2562
  703MOL0     H94858   9.835   7.310   5.616 -0.5259 -0.4276  0.8735
  703MOL0     H94859   9.970   7.127   5.719  1.0846  4.0047 -0.6004
  703MOL0     H94860   9.936   7.024   5.572 -2.0283  2.1504 -2.0029
  703MOL0     H94861  10.108   7.285   5.581  1.6014 -0.1092  0.2611
  703MOL0     H94862  10.052   7.206   5.438  3.5286 -5.7565 -1.3722
  703MOL0     H94863  10.170   7.003   5.513  0.1879  0.2417 -0.8807
  703MOL0     H94864  10.240   7.111   5.640 -2.7590  0.3668  1.2369
  703MOL0     H94865  10.392   6.961   5.616 -1.6600  0.3242  0.2739
  703MOL0     H94866  10.613   6.876   5.613  1.8239  0.1488 -0.6486
  703MOL0     H94867  11.123   7.145   5.242  2.4947 -0.8768 -2.1879
  703MOL0     H94868  11.353   7.101   5.247  0.8710 -2.5290 -0.5096
  703MOL0     H94869  11.481   6.787   5.360  0.0295 -0.0920 -0.4806
  703MOL0     H94870  11.498   6.911   5.241 -1.8984  1.1021  0.8415
  703MOL0     H94871  11.716   6.862   5.454 -2.3700  0.0038  2.1379
  703MOL0     H94872  11.717   6.773   5.302 -0.3575  0.2266 -0.9509
  703MOL0     H94873  11.743   7.002   5.195 -1.4024  0.6906  0.8299
  703MOL0     H94874  11.745   7.075   5.356  1.8814  0.9504  0.3991
  703MOL0     H94875  11.956   6.872   5.258  0.6670  2.2366 -3.4385
  703MOL0     H94876  11.945   6.952   5.419 -0.7308  1.3519  0.9791
  703MOL0     H94877  11.986   7.171   5.304 -1.0170 -1.2230  3.5869
  703MOL0     H94878  11.975   7.094   5.155 -2.5604 -0.0254  0.8369
  703MOL0     H94879  12.162   6.944   5.188  0.6903 -0.3293  0.1410
  703MOL0     H94880  12.211   7.107   5.189  1.8435 -1.4780  1.3140
  703MOL0     H94881  12.173   6.966   5.459  1.6116  1.4492  2.6939
  703MOL0     H94882  12.242   7.119   5.416  0.1914  0.9079 -0.9211
  703MOL0     H94883  12.429   7.016   5.300 -2.1170  1.0155 -0.0888
  703MOL0     H94884  12.404   6.964   5.467 -1.4533  1.0961  1.5144
  703MOL0     H94885  11.316   6.863   5.603 -0.2031 -2.9440 -0.7169
  703MOL0     H94886  11.063   6.891   5.586 -0.3744 -2.7889 -1.5107
  703MOL0     H94887  10.726   7.176   5.315  1.1744 -1.2689 -0.4082
  703MOL0     H94888  10.491   7.225   5.287 -0.8363 -2.9032 -1.9393
  703MOL0     H94889   8.393   7.055   5.748  1.2342  1.5674 -1.5969
  703MOL0     H94890   8.150   7.033   5.746  0.1967 -1.6077 -3.6103
  703MOL0     H94891   7.800   7.410   5.733 -0.7173  3.9571 -2.1022
  703MOL0     H94892   7.556   7.446   5.772 -1.2662 -1.1632 -0.2726
  703MOL0     H94893   7.336   7.517   5.722  2.9891 -0.7758  1.4702
  703MOL0     H94894   7.315   7.387   5.838 -1.1803  0.0463 -0.0537
  703MOL0     H94895   7.102   7.310   5.736 -0.9033  0.6600 -0.4297
  703MOL0     H94896   7.109   7.441   5.627  1.3995  0.7345 -0.3081
  703MOL0     H94897   7.128   7.585   5.867 -0.7131 -0.6320  1.4438
  703MOL0     H94898   7.085   7.438   5.934  1.6987  0.9676  0.4630
  703MOL0     H94899   6.877   7.602   5.876 -0.7192  0.3122 -0.0862
  703MOL0     H94900   6.919   7.585   5.712 -0.5111 -1.5607 -0.0528
  703MOL0     H94901   6.747   7.204   5.734 -2.7171  1.2574  0.9768
  703MOL0     H94902   7.452   7.185   5.456 -2.6516  0.7607  1.3485
  703MOL0     H94903   7.778   7.051   5.424 -0.7874  1.5862  2.4348
  703MOL0     H94904   7.621   7.034   5.353  0.8367 -1.2836 -2.3723
  703MOL0     H94905   7.735   7.164   5.302  0.4400 -0.7477 -0.1576
  704MOL0     O94906   6.242   0.070  10.930 -0.2991  0.0722  0.1081
  704MOL0     C94907   6.137   0.067  10.991 -0.3929 -0.4624  0.3889
  704MOL0     O94908   6.122   0.115  11.114 -0.2258 -0.0236  0.1244
  704MOL0     C94909   6.215   0.209  11.168  0.4627  0.3895 -0.2512
  704MOL0     C94910   6.287   0.176  11.285  0.6840  0.0644 -0.1039
  704MOL0     C94911   6.363   0.270  11.353 -0.9454 -0.6040 -0.0094
  704MOL0     C94912   6.387   0.400  11.304  0.6910 -0.1826  0.3047
  704MOL0     O94913   6.463   0.491  11.364  0.2920  0.6099  0.1353
  704MOL0     C94914   6.568   0.453  11.465  0.5193 -0.4201 -0.3938
  704MOL0     C94915   6.688   0.503  11.399 -0.2076  0.1322 -0.0095
  704MOL0     C94916   6.821   0.469  11.464 -0.3556  0.3712 -0.0247
  704MOL0     C94917   6.943   0.543  11.400  0.3785 -0.0694  0.0668
  704MOL0     C94918   7.073   0.535  11.483  0.3678  0.4484 -0.4913
  704MOL0     C94919   7.142   0.400  11.470  0.0017 -0.1409 -0.5222
  704MOL0     C94920   7.288   0.408  11.512  0.5921  0.1280 -0.1277
  704MOL0     C94921   7.354   0.280  11.475 -0.2152  0.9716 -0.3668
  704MOL0     N94922   7.494   0.273  11.518  0.5204 -0.8592  1.2986
  704MOL0     C94923   7.543   0.262  11.644  0.4906  0.0554  0.0005
  704MOL0     C94924   7.679   0.253  11.626 -0.1981 -0.3579 -0.3027
  704MOL0     C94925   7.772   0.270  11.737 -0.2399 -0.8501  0.8390
  704MOL0     C94926   7.888   0.163  11.735 -0.4317 -0.8033  0.6467
  704MOL0     C94927   7.980   0.172  11.870  0.7258 -0.3602  0.3786
  704MOL0     C94928   8.103   0.089  11.859 -0.7047  0.2422 -0.5444
  704MOL0     O94929   8.069  -0.045  11.908 -0.3382  0.0542 -0.3983
  704MOL0     C94930   8.177  -0.101  11.973  0.7193  0.7655 -0.7387
  704MOL0     C94931   8.306  -0.101  11.925  0.4954 -0.0104  0.3770
  704MOL0     C94932   8.404  -0.178  11.995  0.2860 -0.1991  0.4847
  704MOL0     C94933   8.377  -0.240  12.115 -0.0002 -0.4036  0.4447
  704MOL0     C94934   8.492  -0.298  12.184 -0.2245 -0.3442 -0.7955
  704MOL0     O94935   8.464  -0.372  12.294  1.3019  0.7484  0.1903
  704MOL0     C94936   8.561  -0.445  12.364  0.0780 -0.3740  0.2091
  704MOL0     C94937   8.702  -0.402  12.373  0.5099 -0.3819 -0.2292
  704MOL0     C94938   8.792  -0.493  12.428 -0.2805  0.8159 -0.1898
  704MOL0     C94939   8.754  -0.613  12.484 -0.8584  0.1659 -0.6170
  704MOL0     O94940   8.845  -0.713  12.509  0.8288 -0.9594 -0.1441
  704MOL0     C94941   8.983  -0.689  12.508  0.2384 -0.4765  0.8359
  704MOL0     C94942   9.048  -0.827  12.540  0.3144  0.8164 -0.0191
  704MOL0     C94943   9.192  -0.823  12.481 -0.0108 -0.3733 -0.4815
  704MOL0     C94944   9.262  -0.943  12.537 -0.2731 -0.4582  0.1253
  704MOL0     C94945   9.397  -0.968  12.479  0.3255  0.4989  0.4037
  704MOL0     C94946   9.457  -1.087  12.543  0.5088 -0.0365  0.1816
  704MOL0     C94947   9.407  -1.221  12.483 -0.0514  0.1916 -0.5939
  704MOL0     C94948   9.470  -1.345  12.547  0.0256  0.7154 -0.0901
  704MOL0    Cl94949   9.328  -1.450  12.554  0.3281  0.1735 -0.1172
  704MOL0     C94950   8.617  -0.643  12.493 -1.0718 -0.7447  0.5216
  704MOL0     C94951   8.524  -0.559  12.438 -0.3754  0.1943  0.1148
  704MOL0     O94952   8.604  -0.271  12.136 -0.1201 -0.0865  0.6600
  704MOL0     C94953   8.249  -0.235  12.163 -0.2933 -0.3525  0.1600
  704MOL0     C94954   8.155  -0.158  12.096 -0.1655 -0.7227  0.3188
  704MOL0     N94955   7.707   0.262  11.499 -0.0757 -0.1878 -0.4929
  704MOL0     N94956   7.593   0.271  11.424 -0.2823  0.0098  0.1011
  704MOL0     C94957   6.329   0.426  11.177 -0.2181 -0.4753  0.6765
  704MOL0     C94958   6.250   0.334  11.106 -0.2692  0.1938  0.1241
  704MOL0     C94959   6.024  -0.006  10.925  0.3073 -0.4107  0.0825
  704MOL0     C94960   5.895  -0.012  10.993 -0.1450 -0.7963  0.2121
  704MOL0     C94961   5.779  -0.038  10.923 -0.1533  0.4371 -0.2757
  704MOL0     C94962   5.784  -0.087  10.796 -0.4834  0.9755  0.7182
  704MOL0     O94963   5.680  -0.147  10.729 -0.0838  0.3919  0.2973
  704MOL0     C94964   5.544  -0.134  10.789 -0.9559  0.8283  0.1541
  704MOL0     C94965   5.497   0.009  10.763  0.7506  0.1012  0.2897
  704MOL0     C94966   5.345   0.026  10.770  0.8308 -0.8095  0.3853
  704MOL0     C94967   5.280  -0.018  10.899 -0.8260  0.2916  0.8722
  704MOL0     C94968   5.142   0.026  10.888  0.4218  0.0023  0.0964
  704MOL0     C94969   5.025   0.055  10.907  0.3325 -0.0878  0.4374
  704MOL0     C94970   5.908  -0.104  10.730  0.7280  0.8315 -1.6693
  704MOL0     C94971   6.027  -0.062  10.792  0.2754  0.0567  0.4520
  704MOL0     C94972   6.146  -0.084  10.708  0.0396  0.0610  0.1128
  704MOL0     H94973   6.275   0.076  11.325  0.1083  0.9133  1.9487
  704MOL0     H94974   6.424   0.223  11.430  0.8235  3.0379  1.0062
  704MOL0     H94975   6.554   0.510  11.557  2.6904 -0.8057  0.2343
  704MOL0     H94976   6.570   0.345  11.482  3.1059 -0.5202 -0.8424
  704MOL0     H94977   6.680   0.611  11.407 -0.8732 -0.0351  2.6914
  704MOL0     H94978   6.687   0.467  11.295  4.5026 -3.1229  0.7571
  704MOL0     H94979   6.841   0.361  11.462 -0.4904  0.2759  1.7234
  704MOL0     H94980   6.811   0.483  11.572 -1.8721 -0.6657  0.0149
  704MOL0     H94981   6.946   0.505  11.298 -1.7900  0.3510 -0.2048
  704MOL0     H94982   6.925   0.651  11.401  3.5857  0.7133  4.4364
  704MOL0     H94983   7.137   0.612  11.440 -0.4341  0.8822 -0.9296
  704MOL0     H94984   7.059   0.570  11.586 -2.5943 -0.0340 -0.6303
  704MOL0     H94985   7.086   0.325  11.527 -1.5698 -0.9982 -3.0022
  704MOL0     H94986   7.143   0.372  11.364 -0.8646 -0.2462 -0.5164
  704MOL0     H94987   7.311   0.438  11.615  3.5016  2.6711 -1.3277
  704MOL0     H94988   7.333   0.490  11.455 -0.0501  0.9853  0.5676
  704MOL0     H94989   7.288   0.205  11.519 -1.4979  1.7446 -0.9153
  704MOL0     H94990   7.348   0.265  11.367  0.9588  0.4279 -0.3766
  704MOL0     H94991   7.494   0.266  11.741  2.0964 -0.2744  0.8497
  704MOL0     H94992   7.817   0.370  11.740  2.0434 -1.8281  1.7656
  704MOL0     H94993   7.723   0.261  11.834 -1.2749  2.1946  0.7007
  704MOL0     H94994   7.836   0.067  11.729  2.2679 -2.2853 -1.7769
  704MOL0     H94995   7.951   0.179  11.647 -1.6648 -3.3019 -0.7740
  704MOL0     H94996   7.915   0.149  11.955  0.5300 -1.4750 -0.0525
  704MOL0     H94997   7.997   0.280  11.875 -0.5923 -0.0670 -0.8216
  704MOL0     H94998   8.176   0.143  11.919  0.6549 -0.0362 -1.9003
  704MOL0     H94999   8.156   0.100  11.765  0.7380 -1.0670  0.0687
  704MOL0     H95000   8.325  -0.059  11.827  1.4251  0.2603  0.6648
  704MOL0     H95001   8.493  -0.175  11.932  0.2845  2.0346  0.5086
  704MOL0     H95002   8.740  -0.306  12.340  0.7995  0.0143  1.1856
  704MOL0     H95003   8.894  -0.465  12.407 -0.0919  0.9977  0.9146
  704MOL0     H95004   9.017  -0.653  12.411  2.7121 -1.1721  1.3682
  704MOL0     H95005   9.017  -0.613  12.578  2.8205 -0.6595 -0.1099
  704MOL0     H95006   9.032  -0.864  12.642  0.2708  0.6737 -0.0765
  704MOL0     H95007   9.001  -0.910  12.488 -0.5426  0.5403  1.1448
  704MOL0     H95008   9.185  -0.822  12.372 -0.3395 -0.4941 -0.4601
  704MOL0     H95009   9.258  -0.738  12.505  2.2011 -1.8722 -0.9218
  704MOL0     H95010   9.204  -1.030  12.505 -1.3201  1.2161 -2.9879
  704MOL0     H95011   9.273  -0.917  12.643  2.6931  1.0308 -0.4544
  704MOL0     H95012   9.453  -0.876  12.494 -2.8554  2.5093  1.0826
  704MOL0     H95013   9.376  -0.989  12.374 -0.3213 -1.8228  0.9200
  704MOL0     H95014   9.567  -1.086  12.540  0.6202  2.1845  2.0038
  704MOL0     H95015   9.429  -1.080  12.648  0.1784 -2.4236  0.2907
  704MOL0     H95016   9.415  -1.231  12.374  3.5746  2.1264 -0.6755
  704MOL0     H95017   9.303  -1.224  12.515  0.7093  0.7787  2.2532
  704MOL0     H95018   9.545  -1.388  12.480  0.9884  0.6396  0.9948
  704MOL0     H95019   9.521  -1.321  12.641  2.2161  1.1959 -1.3390
  704MOL0     H95020   8.597  -0.744  12.528 -1.8550 -0.6610  0.3337
  704MOL0     H95021   8.421  -0.594  12.436 -0.0264 -0.8675  0.5106
  704MOL0     H95022   8.215  -0.284  12.254 -0.5585 -1.2364 -0.4012
  704MOL0     H95023   8.053  -0.155  12.134 -0.0005  2.7640  0.7373
  704MOL0     H95024   6.335   0.529  11.142  0.1759 -0.4798  0.7295
  704MOL0     H95025   6.187   0.362  11.023 -1.8408 -0.4360  1.0499
  704MOL0     H95026   5.871   0.010  11.096  0.0740 -2.1920  0.5693
  704MOL0     H95027   5.681  -0.024  10.967 -2.1598 -2.7613 -3.1899
  704MOL0     H95028   5.556  -0.150  10.896  2.5402  1.3607 -0.0404
  704MOL0     H95029   5.497  -0.222  10.744  3.6233 -2.0076  0.2323
  704MOL0     H95030   5.528   0.031  10.660  2.4632 -1.3106  0.4565
  704MOL0     H95031   5.539   0.074  10.840 -1.9108  1.0722  1.0319
  704MOL0     H95032   5.302  -0.039  10.692  0.7481 -0.3778  0.0690
  704MOL0     H95033   5.325   0.130  10.744  3.2435 -0.7400 -1.6227
  704MOL0     H95034   5.290  -0.123  10.928 -0.9839  0.4136  1.3828
  704MOL0     H95035   5.325   0.047  10.975 -1.0669  0.5520  0.7946
  704MOL0     H95036   4.919   0.070  10.908 -0.3476 -3.4800 -1.9949
  704MOL0     H95037   5.900  -0.143  10.629  0.8794  0.7575 -1.6537
  704MOL0     H95038   6.130  -0.157  10.629  1.2752 -2.6578  2.2136
  704MOL0     H95039   6.184   0.010  10.667  1.0667 -0.6267 -0.5470
  704MOL0     H95040   6.212  -0.131  10.781  0.0611 -0.9221 -0.5274
  705MOL0     O95041   8.415   5.239   8.867 -0.2445 -0.5131 -0.3085
  705MOL0     C95042   8.369   5.128   8.829 -0.2183  0.4891  0.3484
  705MOL0     O95043   8.436   5.033   8.755 -0.2278  0.2679 -0.5859
  705MOL0     C95044   8.564   5.067   8.718  0.5404  0.2213  0.1412
  705MOL0     C95045   8.590   5.175   8.630 -0.8847  0.5947  0.8074
  705MOL0     C95046   8.713   5.195   8.584  0.4723 -0.0871  0.0345
  705MOL0     C95047   8.821   5.111   8.618  0.2114 -0.1392  0.2501
  705MOL0     O95048   8.946   5.134   8.578  0.5721 -1.1150 -0.4269
  705MOL0     C95049   9.066   5.076   8.648 -0.0875 -0.7054  0.7543
  705MOL0     C95050   9.183   5.150   8.591  0.1615  0.2122 -0.0212
  705MOL0     C95051   9.192   5.118   8.438  0.1047 -0.8171  0.4203
  705MOL0     C95052   9.307   5.202   8.382 -1.0299  0.6154  0.5773
  705MOL0     C95053   9.342   5.148   8.246 -0.2572  0.7027 -0.4697
  705MOL0     C95054   9.422   5.249   8.165  0.1149  0.0209  0.6565
  705MOL0     C95055   9.568   5.265   8.201 -0.4432  0.2874 -0.3802
  705MOL0     C95056   9.632   5.375   8.119  0.1817 -0.1678  0.1247
  705MOL0     N95057   9.763   5.414   8.172  0.8154  0.4618  0.2126
  705MOL0     C95058   9.785   5.495   8.281 -0.4579 -0.4184 -0.1780
  705MOL0     C95059   9.917   5.522   8.291  0.1586  0.5349  0.6315
  705MOL0     C95060   9.978   5.606   8.396  0.4659 -0.0394  0.7389
  705MOL0     C95061  10.089   5.699   8.342  0.2249  0.0981 -1.0669
  705MOL0     C95062  10.137   5.796   8.451 -0.0822  0.2380  0.4327
  705MOL0     C95063  10.238   5.741   8.549 -0.5178 -0.6130  0.6935
  705MOL0     O95064  10.268   5.846   8.647 -0.0141 -0.1976 -0.4339
  705MOL0     C95065  10.352   5.810   8.751 -0.5604  0.2124  0.5010
  705MOL0     C95066  10.332   5.851   8.886 -0.3685 -0.1650  0.1827
  705MOL0     C95067  10.413   5.810   8.988  0.1056 -0.1692  0.2757
  705MOL0     C95068  10.530   5.735   8.964 -0.0635 -0.2637  0.4999
  705MOL0     C95069  10.615   5.685   9.078 -0.7254  0.6294  0.6076
  705MOL0     O95070  10.735   5.627   9.047 -0.7897 -0.1886 -0.2642
  705MOL0     C95071  10.810   5.577   9.148 -0.2117 -0.1896 -0.3732
  705MOL0     C95072  10.921   5.653   9.184  0.0006  0.7116  0.2305
  705MOL0     C95073  11.004   5.608   9.290  0.0988  0.6024 -0.8262
  705MOL0     C95074  10.971   5.492   9.363  0.1126  0.2837  0.3286
  705MOL0     O95075  11.057   5.470   9.464  0.3776  0.0683  0.1494
  705MOL0     C95076  11.059   5.352   9.539 -0.2272  0.2667  0.4060
  705MOL0     C95077  11.134   5.240   9.477  0.5356 -0.2080  0.2094
  705MOL0     C95078  11.286   5.258   9.462  0.4600  0.1925 -0.2593
  705MOL0     C95079  11.370   5.256   9.592 -0.0714 -0.9163  0.6689
  705MOL0     C95080  11.515   5.261   9.549 -0.5299  0.0159 -0.6536
  705MOL0     C95081  11.614   5.280   9.676 -0.1209  0.0276 -0.2738
  705MOL0     C95082  11.761   5.258   9.658  0.0451 -0.5530  0.9950
  705MOL0     C95083  11.812   5.217   9.796  0.4272 -0.7241  0.3970
  705MOL0    Cl95084  11.985   5.174   9.785 -0.1398  0.1134  0.0313
  705MOL0     C95085  10.854   5.416   9.321 -0.5231  0.2468  1.1193
  705MOL0     C95086  10.776   5.463   9.215 -0.7493  0.6524 -0.5654
  705MOL0     O95087  10.583   5.708   9.188 -0.1433  1.2127 -0.3027
  705MOL0     C95088  10.556   5.689   8.835  0.8252  0.3799 -1.0880
  705MOL0     C95089  10.469   5.730   8.727  0.9093  0.5101  0.5839
  705MOL0     N95090   9.970   5.455   8.188 -0.2814 -1.0649  0.6253
  705MOL0     N95091   9.886   5.389   8.112  0.4471  0.3638  0.6122
  705MOL0     C95092   8.800   5.008   8.713 -0.0909  0.6682 -0.5068
  705MOL0     C95093   8.670   4.989   8.763 -0.2350  0.1413  0.5793
  705MOL0     C95094   8.232   5.081   8.875  0.2808  0.0510  0.4542
  705MOL0     C95095   8.186   4.948   8.842  1.1524  0.4926 -0.1731
  705MOL0     C95096   8.061   4.900   8.878  0.4954 -1.1804 -0.7220
  705MOL0     C95097   7.973   4.971   8.947 -0.3509 -0.4880  0.0456
  705MOL0     O95098   7.858   4.904   8.967  0.4584 -0.3932 -0.2456
  705MOL0     C95099   7.737   4.978   9.010  0.5550 -1.0513  0.7819
  705MOL0     C95100   7.717   4.996   9.157 -0.8254 -0.1173 -0.8236
  705MOL0     C95101   7.738   4.857   9.230  0.5234  0.1639 -0.1735
  705MOL0     C95102   7.708   4.862   9.378 -0.2765 -0.0719 -0.3571
  705MOL0     C95103   7.671   4.728   9.439  0.5066 -0.6814 -0.0452
  705MOL0     C95104   7.655   4.632   9.502 -0.2278  0.1323  0.0212
  705MOL0     C95105   8.006   5.104   8.978 -0.7489  0.6456 -0.3886
  705MOL0     C95106   8.135   5.158   8.944 -0.0210  0.1086  0.0741
  705MOL0     C95107   8.149   5.299   8.981 -0.6621 -0.6758 -0.6590
  705MOL0     H95108   8.520   5.252   8.600  0.9208  1.1212 -2.5204
  705MOL0     H95109   8.734   5.290   8.535 -0.0606  1.8110  3.1820
  705MOL0     H95110   9.060   5.101   8.755 -0.7844 -2.2159  1.0884
  705MOL0     H95111   9.076   4.969   8.630  1.3828 -0.2908 -1.2576
  705MOL0     H95112   9.279   5.122   8.637 -1.0555 -2.3510  1.1457
  705MOL0     H95113   9.167   5.257   8.605 -1.7134  0.2856 -2.1609
  705MOL0     H95114   9.096   5.121   8.386  0.8755  3.4848 -1.2021
  705MOL0     H95115   9.221   5.013   8.427  2.8492 -0.3573  2.3707
  705MOL0     H95116   9.276   5.306   8.366  0.5192  0.6701 -3.3873
  705MOL0     H95117   9.399   5.193   8.441  0.4650 -0.2306 -1.7262
  705MOL0     H95118   9.402   5.058   8.262  0.4024  1.4128  1.2662
  705MOL0     H95119   9.244   5.128   8.202  0.0095  0.1218 -0.8037
  705MOL0     H95120   9.429   5.208   8.063  0.0448  0.3389  0.5220
  705MOL0     H95121   9.375   5.347   8.171  1.2669  0.5444  1.4326
  705MOL0     H95122   9.617   5.169   8.183 -1.4593  0.1539 -2.8759
  705MOL0     H95123   9.575   5.308   8.302 -1.7559  1.7064 -0.8547
  705MOL0     H95124   9.644   5.341   8.015  0.4127 -1.7090  0.6350
  705MOL0     H95125   9.565   5.460   8.127 -3.4386 -2.6835 -0.9956
  705MOL0     H95126   9.703   5.533   8.341  1.3649  2.2233  0.8261
  705MOL0     H95127   9.893   5.658   8.441 -0.8869 -1.7154  0.2649
  705MOL0     H95128  10.025   5.541   8.471 -1.2979 -1.9485  0.2975
  705MOL0     H95129  10.170   5.635   8.306  0.2422 -0.9140  0.6399
  705MOL0     H95130  10.059   5.759   8.256  1.0786 -1.4761 -2.5030
  705MOL0     H95131  10.048   5.817   8.511  0.0023 -0.0476  0.6602
  705MOL0     H95132  10.179   5.881   8.397  0.2702 -0.6993 -0.8123
  705MOL0     H95133  10.322   5.717   8.484 -1.5740  1.1704 -1.4751
  705MOL0     H95134  10.206   5.656   8.609 -0.7168  1.3750  3.6178
  705MOL0     H95135  10.250   5.915   8.918  1.5587  2.4189  0.2737
  705MOL0     H95136  10.398   5.844   9.090  0.4775 -0.4520  0.4280
  705MOL0     H95137  10.958   5.724   9.110  1.2824  1.8360  1.8659
  705MOL0     H95138  11.100   5.647   9.322 -0.1293 -0.0253  0.7134
  705MOL0     H95139  11.095   5.381   9.638 -3.6763  2.6440  1.1237
  705MOL0     H95140  10.957   5.315   9.554 -1.0140  1.2936 -1.8794
  705MOL0     H95141  11.110   5.147   9.531 -1.4015  0.7840  1.1755
  705MOL0     H95142  11.097   5.227   9.374  0.3168 -0.5014  0.3216
  705MOL0     H95143  11.319   5.177   9.396  1.6132 -1.6159  2.4020
  705MOL0     H95144  11.313   5.348   9.407  2.5508 -0.4960 -0.4334
  705MOL0     H95145  11.362   5.163   9.649  1.6407 -1.6314 -0.1606
  705MOL0     H95146  11.340   5.332   9.664 -0.0447 -1.2690  1.0577
  705MOL0     H95147  11.530   5.353   9.491 -0.1809 -1.1796 -2.5520
  705MOL0     H95148  11.544   5.172   9.492  0.0162 -0.2928  0.0914
  705MOL0     H95149  11.593   5.378   9.719 -2.6010  0.2055 -1.7348
  705MOL0     H95150  11.580   5.204   9.748  2.1381 -2.2908 -1.4979
  705MOL0     H95151  11.807   5.354   9.634  2.2573 -1.1365  2.5067
  705MOL0     H95152  11.780   5.192   9.573  1.2066  0.8184  0.1534
  705MOL0     H95153  11.799   5.299   9.868 -0.2663  3.0832 -3.6177
  705MOL0     H95154  11.751   5.138   9.840 -2.5754  1.1531 -0.1238
  705MOL0     H95155  10.830   5.325   9.375  0.2369  0.3773  1.7015
  705MOL0     H95156  10.691   5.407   9.175  0.2765 -1.8276  0.5287
  705MOL0     H95157  10.641   5.623   8.819  0.9288  0.0109  0.7726
  705MOL0     H95158  10.499   5.692   8.630  2.3793  2.2992  0.2912
  705MOL0     H95159   8.871   4.932   8.744 -1.6658 -0.2753  0.9285
  705MOL0     H95160   8.653   4.911   8.837  0.4739  0.6445  1.2918
  705MOL0     H95161   8.251   4.878   8.790 -1.1712 -2.2742  0.4055
  705MOL0     H95162   8.026   4.801   8.849  2.0281 -1.8816 -0.3028
  705MOL0     H95163   7.649   4.919   8.981 -0.3745  1.2316 -1.4717
  705MOL0     H95164   7.727   5.073   8.958  1.5740  1.4306  4.6951
  705MOL0     H95165   7.618   5.032   9.186 -0.8872 -0.2734 -0.8413
  705MOL0     H95166   7.804   5.055   9.189  1.0461 -2.2123 -1.7542
  705MOL0     H95167   7.840   4.825   9.210  1.6536  1.6934  2.6534
  705MOL0     H95168   7.665   4.781   9.197  0.1571 -0.3190  1.6578
  705MOL0     H95169   7.801   4.894   9.426 -0.2177 -1.3048  0.4020
  705MOL0     H95170   7.633   4.939   9.400  2.0554  1.5119  3.0512
  705MOL0     H95171   7.651   4.544   9.564  2.0742  0.3009  0.5058
  705MOL0     H95172   7.928   5.153   9.035 -0.7288 -0.3470  0.5274
  705MOL0     H95173   8.055   5.340   9.019  0.5076  0.6941  0.8767
  705MOL0     H95174   8.224   5.316   9.058  0.2252  0.0881 -1.6506
  705MOL0     H95175   8.177   5.356   8.891  0.1270 -0.6363 -0.3919
  706MOL0     O95176   4.479   0.699   4.386  0.5043 -0.0295  0.0648
  706MOL0     C95177   4.502   0.796   4.453 -0.3946  0.2587 -0.0651
  706MOL0     O95178   4.613   0.826   4.516 -1.0335  0.2018 -0.1281
  706MOL0     C95179   4.736   0.769   4.475 -0.3791 -0.2151  0.7537
  706MOL0     C95180   4.798   0.783   4.352  0.6404  0.1464  0.7373
  706MOL0     C95181   4.917   0.717   4.322  0.0246  1.0650 -0.4862
  706MOL0     C95182   4.996   0.654   4.421  0.8784 -1.1612  0.5704
  706MOL0     O95183   5.102   0.582   4.378 -0.3203  0.4154 -0.4998
  706MOL0     C95184   5.226   0.609   4.445  0.1324 -0.1372 -0.3985
  706MOL0     C95185   5.309   0.478   4.437 -0.3949  0.5331  0.3069
  706MOL0     C95186   5.441   0.497   4.499 -0.2929 -0.7619 -0.0354
  706MOL0     C95187   5.509   0.365   4.526 -0.9930  0.1945  0.4806
  706MOL0     C95188   5.646   0.378   4.598  0.0285 -0.1018 -0.6952
  706MOL0     C95189   5.761   0.379   4.506  0.1578  0.0267  0.0167
  706MOL0     C95190   5.882   0.340   4.568  0.3144 -0.6978 -0.6973
  706MOL0     C95191   5.943   0.442   4.658  0.4441 -0.2007  0.4989
  706MOL0     N95192   6.085   0.393   4.674 -0.1930 -0.2987 -0.6079
  706MOL0     C95193   6.199   0.443   4.614  0.4596  0.4824  0.3264
  706MOL0     C95194   6.305   0.382   4.675 -0.7537 -0.7383 -0.7456
  706MOL0     C95195   6.453   0.422   4.649  0.7861  0.3768  0.3912
  706MOL0     C95196   6.534   0.326   4.735 -0.1866 -0.1076  0.9725
  706MOL0     C95197   6.685   0.354   4.719 -0.1566  0.0522 -0.3273
  706MOL0     C95198   6.767   0.298   4.838 -0.4583  0.5530 -0.6800
  706MOL0     O95199   6.899   0.356   4.814 -0.1320  0.2865 -0.4387
  706MOL0     C95200   6.996   0.332   4.905  0.7325  0.0978  0.2749
  706MOL0     C95201   7.116   0.364   4.852  0.6124 -0.6552 -0.8875
  706MOL0     C95202   7.236   0.345   4.924  0.7191 -0.6005  0.1911
  706MOL0     C95203   7.227   0.288   5.053 -0.2521  0.2440  0.7953
  706MOL0     C95204   7.357   0.267   5.133  1.0120 -0.1255  1.3019
  706MOL0     O95205   7.479   0.302   5.084  0.1367  0.2758 -0.2384
  706MOL0     C95206   7.586   0.300   5.169 -0.5097 -0.4730  0.6954
  706MOL0     C95207   7.594   0.352   5.304 -0.0836 -0.9228 -0.0339
  706MOL0     C95208   7.714   0.375   5.367  0.3618 -0.3062 -0.1632
  706MOL0     C95209   7.834   0.342   5.309  0.4130  0.4004 -0.0093
  706MOL0     O95210   7.959   0.367   5.368 -0.1323 -0.2591 -0.6295
  706MOL0     C95211   8.057   0.435   5.289  0.7938  0.0534 -0.1302
  706MOL0     C95212   8.175   0.439   5.379 -0.3282 -0.2253 -0.5444
  706MOL0     C95213   8.290   0.481   5.286  0.1530 -0.4681 -0.1955
  706MOL0     C95214   8.420   0.486   5.357 -0.7146 -0.3240 -0.2681
  706MOL0     C95215   8.536   0.544   5.274  0.0072 -0.3752  0.4648
  706MOL0     C95216   8.650   0.594   5.354  0.3519 -0.4230 -0.3151
  706MOL0     C95217   8.762   0.622   5.262 -0.6241 -0.1189 -0.0604
  706MOL0     C95218   8.895   0.662   5.341 -0.4712  0.4257  0.5513
  706MOL0    Cl95219   8.997   0.722   5.207  0.1164 -0.0750 -0.0533
  706MOL0     C95220   7.835   0.282   5.183  0.6106  0.5459  1.3198
  706MOL0     C95221   7.710   0.255   5.115  0.0939  0.1528 -0.2234
  706MOL0     O95222   7.337   0.217   5.247 -0.4921 -0.2323  0.4083
  706MOL0     C95223   7.102   0.246   5.108  0.0114  0.7547  0.0545
  706MOL0     C95224   6.984   0.269   5.032 -0.7208 -0.1311  0.3646
  706MOL0     N95225   6.251   0.302   4.776 -0.5063 -0.3619  0.2333
  706MOL0     N95226   6.127   0.298   4.768  0.2281 -0.7153 -0.8741
  706MOL0     C95227   4.944   0.654   4.542 -0.4130  0.1823 -0.2526
  706MOL0     C95228   4.817   0.703   4.574 -0.5277 -0.3227 -0.2828
  706MOL0     C95229   4.386   0.872   4.497  0.9902  0.3505  0.1664
  706MOL0     C95230   4.403   1.003   4.540  0.4882  0.0351 -0.4084
  706MOL0     C95231   4.299   1.096   4.570  0.1605 -0.6641  0.0657
  706MOL0     C95232   4.168   1.063   4.558 -0.0023  0.4001 -0.5650
  706MOL0     O95233   4.059   1.149   4.574 -0.6131 -0.3053 -0.3336
  706MOL0     C95234   4.093   1.285   4.599  0.6905  0.0758  0.0209
  706MOL0     C95235   3.960   1.345   4.615 -0.4992 -0.0604  0.0765
  706MOL0     C95236   3.859   1.320   4.503  0.1863  0.3628 -0.3370
  706MOL0     C95237   3.741   1.419   4.502 -0.9364 -0.3823  0.3736
  706MOL0     C95238   3.643   1.377   4.398 -0.2858 -0.0404 -0.1525
  706MOL0     C95239   3.588   1.343   4.296 -0.2766 -1.0013 -0.3943
  706MOL0     C95240   4.142   0.926   4.521 -0.5228 -0.8944 -1.0807
  706MOL0     C95241   4.249   0.835   4.490  0.1708 -0.6334  0.2769
  706MOL0     C95242   4.198   0.700   4.445  0.1473  0.1487 -0.4320
  706MOL0     H95243   4.748   0.841   4.275  1.4406  2.8864  2.1776
  706MOL0     H95244   4.962   0.727   4.224  3.8627 -1.3916  0.8159
  706MOL0     H95245   5.279   0.692   4.397 -0.4923  0.5137  0.0242
  706MOL0     H95246   5.212   0.636   4.550  3.8216  2.8394 -0.4364
  706MOL0     H95247   5.325   0.451   4.332  0.6747  1.8209  0.1015
  706MOL0     H95248   5.260   0.394   4.487  1.6425 -0.5256  0.6723
  706MOL0     H95249   5.425   0.543   4.597  0.8326 -0.6829  0.1280
  706MOL0     H95250   5.505   0.559   4.435 -1.0196  0.4285  0.3497
  706MOL0     H95251   5.440   0.302   4.583 -1.1498 -2.6047 -2.4882
  706MOL0     H95252   5.524   0.308   4.433  0.3414  0.4246  0.5329
  706MOL0     H95253   5.656   0.470   4.657  1.3768  1.1710 -2.7917
  706MOL0     H95254   5.655   0.299   4.673  0.6297 -0.6193 -1.3031
  706MOL0     H95255   5.748   0.309   4.422 -1.6127 -1.3190  1.3362
  706MOL0     H95256   5.763   0.481   4.466  3.5827  0.7297  1.5939
  706MOL0     H95257   5.957   0.325   4.490  0.2532  0.1694 -0.9324
  706MOL0     H95258   5.876   0.250   4.629  0.2613 -0.9151 -1.0198
  706MOL0     H95259   5.946   0.539   4.608 -1.0155 -1.3219 -1.9369
  706MOL0     H95260   5.886   0.449   4.752  2.2393 -3.0718  1.9598
  706MOL0     H95261   6.208   0.519   4.537  0.3154  2.0045  1.7745
  706MOL0     H95262   6.476   0.400   4.544 -3.1670  2.1237 -1.0347
  706MOL0     H95263   6.474   0.529   4.659  1.6178  0.1096  1.7377
  706MOL0     H95264   6.499   0.338   4.838 -1.3549 -0.2848  0.6051
  706MOL0     H95265   6.522   0.220   4.714 -0.2119  0.2303 -0.9334
  706MOL0     H95266   6.707   0.461   4.717 -1.1384  0.2737 -0.0485
  706MOL0     H95267   6.717   0.302   4.629 -0.3047  0.6637 -0.7371
  706MOL0     H95268   6.775   0.189   4.824  0.6474  0.3311  1.3169
  706MOL0     H95269   6.724   0.330   4.933 -0.1869 -1.8705  0.3325
  706MOL0     H95270   7.111   0.421   4.760 -1.1637 -0.9129 -0.9860
  706MOL0     H95271   7.331   0.376   4.881  1.1859 -1.1787  0.7967
  706MOL0     H95272   7.504   0.398   5.343  1.2493  0.0117  2.0941
  706MOL0     H95273   7.730   0.409   5.468  1.7281 -2.9251  0.5968
  706MOL0     H95274   8.086   0.380   5.199  1.7780 -1.3203  0.9635
  706MOL0     H95275   8.023   0.533   5.257 -1.3883 -0.2623  1.0519
  706MOL0     H95276   8.149   0.506   5.461 -4.1195  1.1529 -2.6135
  706MOL0     H95277   8.207   0.341   5.414  1.1087  0.8305  1.2844
  706MOL0     H95278   8.306   0.412   5.202 -1.4922  0.2059 -1.1086
  706MOL0     H95279   8.267   0.579   5.244 -0.2910  0.1524  1.4472
  706MOL0     H95280   8.447   0.391   5.403 -2.2126 -0.5031  0.2969
  706MOL0     H95281   8.414   0.552   5.444  0.4654 -0.1666 -0.2922
  706MOL0     H95282   8.500   0.634   5.223 -0.8080 -2.7141 -3.4482
  706MOL0     H95283   8.555   0.466   5.200  1.2061  1.1020 -0.8522
  706MOL0     H95284   8.617   0.687   5.401  0.1796 -0.5146 -0.2528
  706MOL0     H95285   8.675   0.526   5.436  1.7709  1.1313  0.6139
  706MOL0     H95286   8.726   0.704   5.201 -1.6749  0.6669  1.5329
  706MOL0     H95287   8.784   0.538   5.195  1.7338 -0.0753  0.5879
  706MOL0     H95288   8.884   0.745   5.411 -0.2250  1.5751 -0.7287
  706MOL0     H95289   8.936   0.570   5.384 -1.5122 -1.6801 -2.5607
  706MOL0     H95290   7.928   0.251   5.136  1.6779  1.8391  2.4526
  706MOL0     H95291   7.701   0.220   5.012  0.5923  0.9595 -0.5486
  706MOL0     H95292   7.091   0.216   5.211  1.1395 -1.9033 -0.5140
  706MOL0     H95293   6.886   0.250   5.073 -1.2171  3.1080  0.9181
  706MOL0     H95294   4.994   0.588   4.611  0.1943 -2.1287 -2.7462
  706MOL0     H95295   4.772   0.685   4.671 -0.3580 -2.2513 -0.5137
  706MOL0     H95296   4.503   1.044   4.549  1.5435 -2.1568 -1.4807
  706MOL0     H95297   4.336   1.194   4.596  1.6405 -0.5701 -2.1011
  706MOL0     H95298   4.141   1.320   4.507  0.4366 -2.7193 -1.2469
  706MOL0     H95299   4.153   1.298   4.690  1.1534 -1.9112  0.0417
  706MOL0     H95300   3.969   1.453   4.630 -1.0700  0.2227 -1.4841
  706MOL0     H95301   3.921   1.310   4.712  4.0648 -2.5477  1.2884
  706MOL0     H95302   3.823   1.219   4.524  1.2200  0.4083  1.9366
  706MOL0     H95303   3.915   1.329   4.410  4.0224 -2.9618  1.3218
  706MOL0     H95304   3.695   1.424   4.601 -2.8402 -2.5264 -0.3069
  706MOL0     H95305   3.783   1.516   4.474 -0.4615 -0.6146  0.2721
  706MOL0     H95306   3.559   1.298   4.204  1.0903 -1.0801 -0.8064
  706MOL0     H95307   4.044   0.880   4.525  0.9728 -4.3408 -1.0000
  706MOL0     H95308   4.107   0.668   4.498  0.4656 -1.5277 -0.8209
  706MOL0     H95309   4.194   0.689   4.337  1.1862 -2.9719 -0.2563
  706MOL0     H95310   4.272   0.625   4.476 -0.9156 -0.2444  1.3057
  707MOL0     O95311   3.402   2.496   3.883  0.1292  0.0615 -0.7927
  707MOL0     C95312   3.391   2.570   3.984  0.7947  0.4699  0.4426
  707MOL0     O95313   3.491   2.664   4.029 -0.1180  0.4990  0.4178
  707MOL0     C95314   3.615   2.644   3.985 -1.0159 -0.7355 -0.7217
  707MOL0     C95315   3.684   2.730   3.887 -0.4475 -0.3128 -1.2889
  707MOL0     C95316   3.814   2.703   3.834 -0.0280 -0.5451  0.6761
  707MOL0     C95317   3.876   2.582   3.870 -0.1187 -0.3149  0.4836
  707MOL0     O95318   4.003   2.543   3.822  0.4373  0.3140 -0.4022
  707MOL0     C95319   4.094   2.654   3.810  0.1233  1.4405 -0.0397
  707MOL0     C95320   4.236   2.595   3.788  0.8767 -0.9573 -0.0682
  707MOL0     C95321   4.343   2.708   3.788 -0.2223 -0.4469  0.5310
  707MOL0     C95322   4.493   2.654   3.789  0.2030  0.2333  0.1281
  707MOL0     C95323   4.605   2.765   3.799 -0.1191 -1.0998 -0.7400
  707MOL0     C95324   4.736   2.701   3.802  0.0864  0.7213  0.1903
  707MOL0     C95325   4.848   2.796   3.835  0.3886  0.8624 -0.0790
  707MOL0     C95326   4.880   2.922   3.746 -1.6636 -0.3549  0.4868
  707MOL0     N95327   5.013   2.982   3.787  0.6042 -0.2496  0.1219
  707MOL0     C95328   5.034   3.097   3.859  0.5949  0.3714 -0.2842
  707MOL0     C95329   5.165   3.106   3.896  0.2144  0.3623 -0.9351
  707MOL0     C95330   5.240   3.207   3.979 -0.3418 -0.1092  0.1466
  707MOL0     C95331   5.383   3.170   3.988  0.5410  0.1833 -0.4134
  707MOL0     C95332   5.461   3.269   4.077  0.8566  0.7776  0.5775
  707MOL0     C95333   5.615   3.268   4.056 -0.1481 -0.1351 -0.4298
  707MOL0     O95334   5.669   3.134   4.063 -0.4493  0.4989  0.2795
  707MOL0     C95335   5.809   3.124   4.042  0.2539 -0.2967 -0.1915
  707MOL0     C95336   5.895   3.238   4.026 -0.6319  0.1852 -0.4201
  707MOL0     C95337   6.028   3.227   3.998 -0.4184  0.1973 -0.4448
  707MOL0     C95338   6.080   3.091   3.977 -0.7424  0.0714  0.3700
  707MOL0     C95339   6.223   3.064   3.953 -0.2658 -0.0339  0.3198
  707MOL0     O95340   6.293   3.175   3.901  0.2355 -0.0175  0.3946
  707MOL0     C95341   6.412   3.150   3.842  0.8049  0.4216 -0.8439
  707MOL0     C95342   6.534   3.205   3.881 -0.6529 -0.5536 -0.4644
  707MOL0     C95343   6.656   3.182   3.811 -0.1659  0.1441  1.2185
  707MOL0     C95344   6.644   3.113   3.683  0.1624 -0.1086  0.0464
  707MOL0     O95345   6.753   3.091   3.603 -0.3506 -0.2578  0.5613
  707MOL0     C95346   6.880   3.109   3.656  0.0843  0.4715 -0.2425
  707MOL0     C95347   6.964   3.072   3.536 -0.5449 -0.1888  0.5842
  707MOL0     C95348   7.107   3.084   3.577 -0.5912 -0.4924 -0.4489
  707MOL0     C95349   7.190   3.023   3.457  0.3646  0.7319 -0.4363
  707MOL0     C95350   7.342   3.034   3.471  0.4209  0.4516 -0.7706
  707MOL0     C95351   7.420   3.001   3.342 -0.1577 -0.1227 -0.4032
  707MOL0     C95352   7.570   3.024   3.375 -0.6891 -0.1589  0.0895
  707MOL0     C95353   7.663   3.005   3.249 -0.7820  0.1355 -0.2048
  707MOL0    Cl95354   7.826   3.059   3.287 -0.3805 -0.2589 -0.4396
  707MOL0     C95355   6.520   3.065   3.636  0.1508 -0.1329 -0.0129
  707MOL0     C95356   6.410   3.071   3.724  0.7525 -0.9730 -1.1262
  707MOL0     O95357   6.269   2.950   3.963 -0.4516  0.9523 -0.1588
  707MOL0     C95358   5.991   2.975   3.985  0.1746 -0.9405  0.5071
  707MOL0     C95359   5.859   2.994   4.025  0.0581  0.3683 -0.0876
  707MOL0     N95360   5.223   2.992   3.836  0.9527  0.3848 -0.1564
  707MOL0     N95361   5.135   2.921   3.775  0.0538 -0.4452  0.4761
  707MOL0     C95362   3.811   2.497   3.963 -0.3855 -0.1814 -0.1170
  707MOL0     C95363   3.683   2.528   4.019 -0.4363  1.1855 -0.1316
  707MOL0     C95364   3.261   2.578   4.057  0.0852  0.4478  0.0575
  707MOL0     C95365   3.239   2.706   4.117  0.0562  0.4189 -0.1584
  707MOL0     C95366   3.124   2.727   4.185 -0.1967  0.1570 -0.5020
  707MOL0     C95367   3.020   2.632   4.191 -0.8944  0.0602 -0.4966
  707MOL0     O95368   2.910   2.679   4.252 -0.6051 -0.0458 -0.5349
  707MOL0     C95369   2.782   2.635   4.208  0.4967  0.2453 -0.0897
  707MOL0     C95370   2.668   2.732   4.247 -0.7012  0.3375  0.0088
  707MOL0     C95371   2.542   2.652   4.264  0.8441 -0.5887  0.7961
  707MOL0     C95372   2.412   2.738   4.284  0.2630 -0.2342 -0.9925
  707MOL0     C95373   2.390   2.801   4.415  0.8733 -0.4590 -0.3119
  707MOL0     C95374   2.383   2.837   4.536 -0.4699 -0.5230 -0.2927
  707MOL0     C95375   3.034   2.513   4.126  0.7136 -0.0283 -0.0554
  707MOL0     C95376   3.156   2.483   4.065  0.1579  0.3238 -0.0386
  707MOL0     C95377   3.163   2.336   4.028  0.2193 -0.3780 -0.6743
  707MOL0     H95378   3.640   2.828   3.872  0.0309 -0.2397 -2.3780
  707MOL0     H95379   3.855   2.775   3.763 -3.5579  0.5391 -0.4721
  707MOL0     H95380   4.055   2.723   3.734 -2.3914 -0.0166 -0.1622
  707MOL0     H95381   4.105   2.703   3.907 -2.9823 -0.2932  1.3035
  707MOL0     H95382   4.239   2.540   3.693 -2.4337  0.8251 -1.3932
  707MOL0     H95383   4.256   2.529   3.873  1.2027  0.7835  1.2568
  707MOL0     H95384   4.329   2.771   3.877 -0.9917  1.3790 -0.7963
  707MOL0     H95385   4.326   2.775   3.703 -0.5530  1.8909  2.3336
  707MOL0     H95386   4.520   2.604   3.883  3.1729  3.5561  1.2654
  707MOL0     H95387   4.511   2.591   3.702  4.2860  1.0290  0.2050
  707MOL0     H95388   4.603   2.830   3.711  1.0271 -2.0557 -1.5053
  707MOL0     H95389   4.575   2.822   3.887  0.5564 -0.3623 -0.9753
  707MOL0     H95390   4.740   2.625   3.882 -1.7078  0.2045 -0.1787
  707MOL0     H95391   4.760   2.655   3.705  4.3355 -1.1776  1.8458
  707MOL0     H95392   4.938   2.734   3.835 -1.7712 -2.6117  1.6960
  707MOL0     H95393   4.824   2.832   3.935 -0.5067  0.5400 -0.1697
  707MOL0     H95394   4.893   2.898   3.640  1.0157  0.5917  0.5209
  707MOL0     H95395   4.806   3.003   3.749 -0.4242  1.1170 -3.2155
  707MOL0     H95396   4.951   3.161   3.889  1.2196  1.0869 -0.0634
  707MOL0     H95397   5.222   3.308   3.942  2.7735  0.4889  0.0071
  707MOL0     H95398   5.201   3.194   4.080  1.5193  0.0335  0.9306
  707MOL0     H95399   5.392   3.073   4.036  0.6540  0.5898  0.3992
  707MOL0     H95400   5.428   3.172   3.888 -0.6888  1.6322 -0.9726
  707MOL0     H95401   5.442   3.243   4.182  1.7182 -1.4173  0.2356
  707MOL0     H95402   5.415   3.367   4.057  1.5925  0.7749 -1.2457
  707MOL0     H95403   5.664   3.325   4.136  0.9078 -2.6480  0.8583
  707MOL0     H95404   5.636   3.314   3.960  0.4014 -0.0144 -0.2564
  707MOL0     H95405   5.857   3.339   4.039  0.5285  0.3411  2.6078
  707MOL0     H95406   6.099   3.309   3.995  1.5446 -1.4026 -0.1985
  707MOL0     H95407   6.549   3.270   3.967  0.3849 -0.4909 -0.6727
  707MOL0     H95408   6.750   3.209   3.857  0.4967 -0.7873  0.4415
  707MOL0     H95409   6.904   3.213   3.680  3.3762 -0.1320 -0.4111
  707MOL0     H95410   6.891   3.042   3.742  0.1445 -1.0635 -1.3990
  707MOL0     H95411   6.940   2.969   3.508 -0.5403 -0.1404  0.4017
  707MOL0     H95412   6.941   3.137   3.452 -0.5299 -0.4189  0.4022
  707MOL0     H95413   7.146   3.186   3.580  2.4646 -1.5472 -1.0203
  707MOL0     H95414   7.137   3.036   3.671  1.7913 -0.8749 -1.3409
  707MOL0     H95415   7.153   3.068   3.365  0.1907  2.3279  0.3924
  707MOL0     H95416   7.165   2.916   3.453  1.1301  0.4938  0.6442
  707MOL0     H95417   7.381   2.961   3.543  0.7493  2.5127  1.2444
  707MOL0     H95418   7.375   3.132   3.507 -1.8267  0.5560  1.2238
  707MOL0     H95419   7.396   2.903   3.301  0.3605 -1.0451  1.3778
  707MOL0     H95420   7.394   3.076   3.268  0.7165  1.3975  0.7633
  707MOL0     H95421   7.605   2.953   3.451  2.2596  0.5961 -0.4158
  707MOL0     H95422   7.589   3.122   3.421  2.2884 -1.5114  2.0472
  707MOL0     H95423   7.674   2.898   3.225  2.4421  0.7026 -1.7899
  707MOL0     H95424   7.626   3.066   3.167 -1.0745  2.0132  1.2555
  707MOL0     H95425   6.507   3.023   3.537 -0.0451  2.4825 -1.1798
  707MOL0     H95426   6.317   3.015   3.709 -0.7262  0.9308  0.4081
  707MOL0     H95427   6.040   2.880   3.967  0.3280 -0.4352 -2.2339
  707MOL0     H95428   5.799   2.904   4.031  0.8080 -0.2562 -1.4054
  707MOL0     H95429   3.873   2.416   4.001  0.6447  0.7063  0.1391
  707MOL0     H95430   3.656   2.459   4.098 -0.3110 -0.5893 -1.5672
  707MOL0     H95431   3.310   2.788   4.113 -0.4674  0.8205 -2.4807
  707MOL0     H95432   3.107   2.824   4.230  0.6769  0.0284  0.1208
  707MOL0     H95433   2.748   2.540   4.250  3.0996 -1.1805 -1.0325
  707MOL0     H95434   2.799   2.624   4.100 -2.6507  2.2178 -0.9297
  707MOL0     H95435   2.657   2.805   4.166  0.1625  1.0400  0.4989
  707MOL0     H95436   2.697   2.787   4.337 -0.3484  1.8309 -0.9618
  707MOL0     H95437   2.555   2.587   4.351 -1.2048  0.5957  2.0488
  707MOL0     H95438   2.522   2.600   4.170  0.5580  1.7361 -0.5036
  707MOL0     H95439   2.398   2.812   4.204  0.5590 -0.0665 -0.8901
  707MOL0     H95440   2.331   2.666   4.269  1.0673 -1.0614 -1.4086
  707MOL0     H95441   2.377   2.857   4.641  0.5344 -1.8860  0.0443
  707MOL0     H95442   2.952   2.442   4.128  0.0773  0.6447 -1.2292
  707MOL0     H95443   3.100   2.279   4.096 -1.3283  1.1190 -0.7759
  707MOL0     H95444   3.130   2.331   3.924 -1.8613  0.0289 -0.0827
  707MOL0     H95445   3.263   2.293   4.036 -0.3624 -1.6544 -0.0118
  708MOL0     O95446   9.806   4.499   9.451  0.0176  0.6234 -0.4133
  708MOL0     C95447   9.715   4.528   9.378  0.0243 -0.3107 -0.1826
  708MOL0     O95448   9.676   4.457   9.265 -0.5415  0.3272  0.2339
  708MOL0     C95449   9.759   4.348   9.230  0.7060  0.0480 -0.8472
  708MOL0     C95450   9.721   4.217   9.259  0.2148 -0.5542 -0.4038
  708MOL0     C95451   9.815   4.110   9.245  0.5334 -1.2751 -0.3961
  708MOL0     C95452   9.942   4.145   9.193 -0.9258  0.9808 -0.6604
  708MOL0     O95453  10.022   4.039   9.159  0.6401 -0.4630  0.0372
  708MOL0     C95454  10.157   4.054   9.109  0.5636  0.4714 -0.1698
  708MOL0     C95455  10.224   3.916   9.095  0.2727 -0.0060 -0.4619
  708MOL0     C95456  10.377   3.937   9.115  0.2125 -0.2947 -0.4739
  708MOL0     C95457  10.458   3.808   9.091  1.4357 -0.0446  0.2945
  708MOL0     C95458  10.601   3.816   9.125 -0.1977 -0.5659  0.9206
  708MOL0     C95459  10.686   3.872   9.003  0.1699  0.5899 -0.1709
  708MOL0     C95460  10.823   3.916   9.042 -0.6878  0.9850 -0.2716
  708MOL0     C95461  10.907   3.791   9.082 -0.7633 -0.1356 -0.3463
  708MOL0     N95462  11.048   3.812   9.093  0.1986 -0.0146  0.5220
  708MOL0     C95463  11.100   3.922   9.139 -0.3178  0.2806 -0.0582
  708MOL0     C95464  11.231   3.903   9.131 -0.3623 -0.3721  0.5851
  708MOL0     C95465  11.344   3.987   9.157  0.4816  0.1877  0.7055
  708MOL0     C95466  11.359   4.092   9.043 -0.7415  0.2569 -0.0109
  708MOL0     C95467  11.461   4.195   9.085 -0.5742 -0.3742  0.2794
  708MOL0     C95468  11.468   4.299   8.968  0.2356  0.4960  0.7442
  708MOL0     O95469  11.565   4.397   8.991 -0.8967  0.3971  0.4826
  708MOL0     C95470  11.690   4.368   8.939  0.4973 -0.6773  0.0600
  708MOL0     C95471  11.772   4.479   8.954 -0.0755  0.1328 -1.3867
  708MOL0     C95472  11.909   4.460   8.933 -0.2703  0.1942  0.0281
  708MOL0     C95473  11.974   4.335   8.910  0.4345  0.6410 -0.6747
  708MOL0     C95474  12.119   4.313   8.879 -0.3071 -0.0943  0.1764
  708MOL0     O95475  12.206   4.397   8.950  0.1800  0.0973  0.0793
  708MOL0     C95476  12.343   4.376   8.952  0.2857 -0.3708 -0.7954
  708MOL0     C95477  12.416   4.263   8.959  0.0381 -0.0360  0.2778
  708MOL0     C95478  12.549   4.249   8.970 -0.4466 -0.3995  0.7575
  708MOL0     C95479  12.628   4.364   8.989 -0.7652 -1.0688  0.3528
  708MOL0     O95480  12.764   4.379   9.007  0.3302 -0.3826 -0.3860
  708MOL0     C95481  12.822   4.353   9.135 -0.2698  0.3458  0.4911
  708MOL0     C95482  12.972   4.396   9.119 -0.1961 -0.0444 -0.3540
  708MOL0     C95483  13.048   4.412   9.266  0.1734  0.3221  0.6600
  708MOL0     C95484  13.204   4.427   9.233  0.5846  0.2419  0.7532
  708MOL0     C95485  13.280   4.426   9.365 -0.0575  0.5529  0.5725
  708MOL0     C95486  13.435   4.450   9.355 -0.1801 -0.1841 -0.1562
  708MOL0     C95487  13.505   4.522   9.475 -0.4303  0.4092  1.1792
  708MOL0     C95488  13.577   4.429   9.565 -0.3402  0.6719 -0.7313
  708MOL0    Cl95489  13.727   4.508   9.637  0.6529  0.1083 -0.5275
  708MOL0     C95490  12.566   4.491   8.987  0.6545  0.8252 -1.3843
  708MOL0     C95491  12.425   4.494   8.967 -0.0482 -0.6062 -0.1114
  708MOL0     O95492  12.154   4.223   8.802 -0.2581  0.1078 -0.1786
  708MOL0     C95493  11.884   4.228   8.890 -0.1430 -0.0125  0.7285
  708MOL0     C95494  11.739   4.242   8.900 -0.1642 -0.4528 -0.5006
  708MOL0     N95495  11.256   3.772   9.076  0.5543  0.1302  0.3401
  708MOL0     N95496  11.144   3.728   9.038  0.5116  0.0446  0.0195
  708MOL0     C95497   9.975   4.274   9.161  0.1984  0.2433 -0.6720
  708MOL0     C95498   9.883   4.375   9.176  0.7296 -0.3342  0.1634
  708MOL0     C95499   9.623   4.645   9.415 -0.4808  0.9450  0.0086
  708MOL0     C95500   9.519   4.677   9.327 -1.0552 -0.4276 -0.1243
  708MOL0     C95501   9.445   4.797   9.342 -1.3656 -0.4279 -0.4186
  708MOL0     C95502   9.464   4.879   9.459 -0.0559 -0.7408  0.4462
  708MOL0     O95503   9.382   4.985   9.490  0.3277 -0.3058  0.0925
  708MOL0     C95504   9.240   4.959   9.488 -0.3643  0.1924 -1.1456
  708MOL0     C95505   9.165   5.089   9.532 -0.0984 -0.4986 -0.5847
  708MOL0     C95506   9.019   5.066   9.568  1.0181  1.1319  0.5291
  708MOL0     C95507   8.952   5.199   9.603 -0.8560  1.2679 -0.9816
  708MOL0     C95508   8.803   5.194   9.597 -0.2018  0.7011 -0.5865
  708MOL0     C95509   8.682   5.194   9.572  0.0557 -1.1162 -0.2510
  708MOL0     C95510   9.563   4.834   9.551  0.4133  0.0964 -0.0439
  708MOL0     C95511   9.660   4.737   9.524 -0.4993 -0.2948  0.1987
  708MOL0     C95512   9.770   4.717   9.625 -1.0182 -0.0278 -0.3172
  708MOL0     H95513   9.619   4.193   9.287 -0.4273  0.5549 -1.6666
  708MOL0     H95514   9.791   4.008   9.272  0.0056 -1.3141 -0.9955
  708MOL0     H95515  10.157   4.093   9.007  2.1861 -1.4019 -0.9674
  708MOL0     H95516  10.208   4.127   9.173 -3.6251  2.6612  1.0142
  708MOL0     H95517  10.209   3.880   8.992 -0.0223  1.6200 -1.0138
  708MOL0     H95518  10.172   3.848   9.164 -1.7404  1.4743 -0.4152
  708MOL0     H95519  10.388   3.985   9.213 -1.8376 -0.1181 -0.2914
  708MOL0     H95520  10.412   4.017   9.048 -0.3309 -1.4544 -2.2075
  708MOL0     H95521  10.407   3.734   9.153 -0.0742  0.4210 -0.3359
  708MOL0     H95522  10.435   3.784   8.987  1.4008 -1.7072  0.6585
  708MOL0     H95523  10.611   3.885   9.208 -0.3435  1.9092 -1.0004
  708MOL0     H95524  10.648   3.721   9.152  2.0365  0.6860  1.6805
  708MOL0     H95525  10.692   3.797   8.923  1.4844  0.4060  0.0869
  708MOL0     H95526  10.645   3.966   8.966  1.0617  1.2728  0.5269
  708MOL0     H95527  10.813   3.993   9.119 -0.6401  1.6975 -0.9629
  708MOL0     H95528  10.870   3.961   8.955  2.0383 -2.0787 -0.5405
  708MOL0     H95529  10.875   3.754   9.180 -2.9176  0.6571 -0.6811
  708MOL0     H95530  10.895   3.705   9.015 -1.7047  0.2112 -0.6511
  708MOL0     H95531  11.061   4.013   9.184  0.6729  1.3189 -1.2132
  708MOL0     H95532  11.324   4.046   9.247 -2.2328  1.4324 -0.6022
  708MOL0     H95533  11.440   3.935   9.153 -0.0168 -0.8453  1.7376
  708MOL0     H95534  11.376   4.053   8.942 -0.8561  1.6076 -0.5821
  708MOL0     H95535  11.260   4.138   9.028 -1.7645 -1.8210  0.0089
  708MOL0     H95536  11.555   4.143   9.103  0.7583  1.5699 -0.6852
  708MOL0     H95537  11.426   4.242   9.177  0.5967  2.9400 -0.8226
  708MOL0     H95538  11.372   4.351   8.961  1.9789  3.8791 -0.1290
  708MOL0     H95539  11.488   4.262   8.867  2.5300  0.4271  1.1611
  708MOL0     H95540  11.737   4.574   8.993  0.7822  0.1626 -0.6570
  708MOL0     H95541  11.971   4.549   8.941  0.2822 -0.0904 -0.9694
  708MOL0     H95542  12.370   4.167   8.941 -0.6206  0.5915 -1.6071
  708MOL0     H95543  12.601   4.157   8.950  2.1004  1.0573  0.2688
  708MOL0     H95544  12.769   4.404   9.216 -1.2931  1.9269 -1.0960
  708MOL0     H95545  12.815   4.247   9.163 -1.0291 -0.1403 -1.3713
  708MOL0     H95546  13.025   4.338   9.042  1.6802  1.6297 -0.3870
  708MOL0     H95547  12.960   4.494   9.073 -0.2066  0.3526  0.4655
  708MOL0     H95548  13.005   4.497   9.320 -0.6992 -0.8631  1.9297
  708MOL0     H95549  13.027   4.326   9.330 -0.1232 -0.0342  0.0968
  708MOL0     H95550  13.223   4.523   9.184  3.6414 -0.3623  0.5897
  708MOL0     H95551  13.236   4.348   9.163  0.1747  1.5152 -0.9505
  708MOL0     H95552  13.261   4.341   9.432  2.9654 -0.8330 -0.1354
  708MOL0     H95553  13.243   4.512   9.422  0.2922  0.4307  0.9954
  708MOL0     H95554  13.487   4.354   9.342  0.8525  0.0973  1.6117
  708MOL0     H95555  13.459   4.509   9.266 -0.2843 -2.4216 -1.7782
  708MOL0     H95556  13.450   4.597   9.532  0.4338  0.4572  1.9771
  708MOL0     H95557  13.586   4.572   9.421  0.1897 -3.0088 -1.3695
  708MOL0     H95558  13.507   4.389   9.640  0.3829  0.7436  0.0060
  708MOL0     H95559  13.613   4.343   9.508  0.5066  0.2421  0.4026
  708MOL0     H95560  12.632   4.578   8.990  2.4875 -0.5150  0.2596
  708MOL0     H95561  12.369   4.587   8.969 -2.1575 -1.8408  1.7980
  708MOL0     H95562  11.938   4.141   8.855 -0.7615  0.1341 -0.6398
  708MOL0     H95563  11.682   4.151   8.888  2.9390 -2.4571 -1.3124
  708MOL0     H95564  10.061   4.298   9.100 -0.0301  3.1437  0.0459
  708MOL0     H95565   9.908   4.475   9.142 -1.3068 -0.1718 -1.0330
  708MOL0     H95566   9.494   4.609   9.246 -1.6999 -1.9913  1.3223
  708MOL0     H95567   9.369   4.828   9.270 -1.4093  0.2213 -0.0952
  708MOL0     H95568   9.205   4.877   9.552 -1.6047  0.7879 -1.0386
  708MOL0     H95569   9.211   4.918   9.391  1.0084 -0.2355 -1.3943
  708MOL0     H95570   9.178   5.161   9.451  1.1135 -0.0115  0.0122
  708MOL0     H95571   9.206   5.129   9.625 -3.4435  2.2103 -0.0616
  708MOL0     H95572   9.001   4.995   9.649 -2.0332  1.3877  0.1651
  708MOL0     H95573   8.971   5.014   9.485 -0.8568  0.9986  1.6467
  708MOL0     H95574   8.995   5.232   9.698 -1.7727  1.5454 -0.6482
  708MOL0     H95575   8.989   5.273   9.532  2.0910 -0.2192 -1.1306
  708MOL0     H95576   8.584   5.202   9.529  0.3521 -0.5996 -0.8415
  708MOL0     H95577   9.553   4.888   9.645  2.4879  1.5341 -0.5762
  708MOL0     H95578   9.869   4.740   9.585 -1.6076  1.4897 -0.9930
  708MOL0     H95579   9.761   4.791   9.705  4.7775  0.3922  0.3407
  708MOL0     H95580   9.761   4.619   9.673 -0.2672  0.7682  1.5177
  709MOL0     O95581   2.973   9.147   3.582  0.9028 -0.0130  0.4066
  709MOL0     C95582   2.854   9.169   3.589  0.8130  0.1795  0.4292
  709MOL0     O95583   2.764   9.091   3.649 -0.1862  1.1627  0.4698
  709MOL0     C95584   2.812   9.012   3.761 -0.7252 -1.2206  0.6233
  709MOL0     C95585   2.907   9.059   3.852  0.2306  0.7742 -0.1946
  709MOL0     C95586   2.938   8.982   3.968 -1.1026 -0.4225  0.1546
  709MOL0     C95587   2.863   8.874   3.997 -0.0776  0.7752  0.6851
  709MOL0     O95588   2.895   8.809   4.110  0.9826 -0.4090  0.2823
  709MOL0     C95589   2.841   8.674   4.120 -0.0413  1.0731  0.7246
  709MOL0     C95590   2.882   8.622   4.253 -0.2556 -0.6719  0.4411
  709MOL0     C95591   3.038   8.615   4.265 -0.3463  0.0296 -0.4008
  709MOL0     C95592   3.078   8.588   4.414 -1.1326  0.2926 -0.6907
  709MOL0     C95593   3.225   8.534   4.427  0.7412 -0.1050  0.3236
  709MOL0     C95594   3.337   8.634   4.415  0.1752 -0.3713 -0.5723
  709MOL0     C95595   3.477   8.581   4.440 -0.8558  0.8317  0.4030
  709MOL0     C95596   3.572   8.699   4.433 -0.4556 -0.3645 -0.5430
  709MOL0     N95597   3.714   8.659   4.447 -1.2480 -0.4263  0.3080
  709MOL0     C95598   3.763   8.608   4.565 -0.5969 -0.0170 -0.6076
  709MOL0     C95599   3.892   8.575   4.529 -0.1821 -0.2219  0.5151
  709MOL0     C95600   3.988   8.512   4.623  0.1319  0.2431  0.4471
  709MOL0     C95601   4.120   8.593   4.638 -0.1237 -0.4515 -0.3520
  709MOL0     C95602   4.210   8.511   4.722  0.3624  0.7682 -0.1956
  709MOL0     C95603   4.338   8.578   4.771  0.4370  0.1084 -0.4736
  709MOL0     O95604   4.417   8.470   4.830  0.2101  0.3787  0.3745
  709MOL0     C95605   4.547   8.479   4.877  0.1390 -0.4259 -0.0669
  709MOL0     C95606   4.627   8.597   4.885 -1.0750  0.0675  0.8284
  709MOL0     C95607   4.761   8.593   4.935  0.0397  0.9839  0.0513
  709MOL0     C95608   4.815   8.465   4.974 -0.7570 -1.1515  0.7732
  709MOL0     C95609   4.963   8.460   5.014  0.2594  0.7543 -0.0017
  709MOL0     O95610   5.021   8.335   5.027  0.2487 -0.2810 -0.3166
  709MOL0     C95611   5.152   8.325   5.083  1.1686  0.2890  0.4700
  709MOL0     C95612   5.210   8.203   5.072  0.1275  0.1456  0.5384
  709MOL0     C95613   5.335   8.172   5.127  0.5786 -0.0355 -0.7871
  709MOL0     C95614   5.388   8.265   5.217  0.3076 -0.8742 -1.0841
  709MOL0     O95615   5.505   8.253   5.288  0.0120  0.0673  0.5808
  709MOL0     C95616   5.625   8.194   5.227 -0.3023  0.3721  0.4228
  709MOL0     C95617   5.687   8.272   5.114  0.4145 -0.5707 -0.5491
  709MOL0     C95618   5.719   8.423   5.147  0.5348 -0.3140 -0.1173
  709MOL0     C95619   5.804   8.492   5.031  0.0870  0.0278 -0.3010
  709MOL0     C95620   5.925   8.416   4.998  1.2603  0.1255  0.0809
  709MOL0     C95621   5.986   8.491   4.868  0.0948  0.8790 -0.5530
  709MOL0     C95622   6.135   8.429   4.858 -0.4038  0.1173  0.0541
  709MOL0     C95623   6.215   8.507   4.745  0.1587  0.0227  0.2282
  709MOL0    Cl95624   6.134   8.514   4.586 -0.1034  0.3684 -0.0746
  709MOL0     C95625   5.325   8.383   5.241  0.8405  0.1065 -0.3949
  709MOL0     C95626   5.206   8.420   5.175 -1.0155  0.4279 -0.0424
  709MOL0     O95627   5.018   8.568   5.023  0.2181  0.1561  0.4748
  709MOL0     C95628   4.745   8.357   4.950  0.3242  0.5428  0.6271
  709MOL0     C95629   4.612   8.363   4.903 -1.2570 -0.1495 -0.9144
  709MOL0     N95630   3.897   8.588   4.389  0.1444 -0.8045  0.0982
  709MOL0     N95631   3.793   8.646   4.348 -0.5763  0.4319  0.0931
  709MOL0     C95632   2.769   8.827   3.905  0.2786  0.0657 -0.5414
  709MOL0     C95633   2.737   8.894   3.789  0.0435 -0.6774 -0.5809
  709MOL0     C95634   2.805   9.297   3.528  0.4916 -0.0328  0.7252
  709MOL0     C95635   2.666   9.325   3.542  0.5085  0.3940  0.0010
  709MOL0     C95636   2.614   9.450   3.504  0.4185  0.2597  0.1121
  709MOL0     C95637   2.691   9.542   3.433 -0.0172  0.4304 -0.3307
  709MOL0     O95638   2.647   9.667   3.394  0.3789  0.0554 -0.2849
  709MOL0     C95639   2.503   9.694   3.404 -0.1555  0.6532 -0.2396
  709MOL0     C95640   2.471   9.826   3.342 -0.3379 -1.0401  0.1968
  709MOL0     C95641   2.532   9.939   3.426  0.3995  0.2415 -0.7641
  709MOL0     C95642   2.479  10.080   3.399 -0.2353  0.3287 -0.8905
  709MOL0     C95643   2.497  10.106   3.257 -0.0684  1.2817 -0.1467
  709MOL0     C95644   2.505  10.139   3.141  0.4142 -0.3529 -0.2141
  709MOL0     C95645   2.821   9.508   3.403 -0.3849  0.4374 -0.5867
  709MOL0     C95646   2.878   9.395   3.456  0.7642 -0.5804 -0.4814
  709MOL0     C95647   3.028   9.386   3.427 -0.1058 -0.5373  0.7951
  709MOL0     H95648   2.965   9.144   3.819 -0.5618  1.5912  0.4728
  709MOL0     H95649   3.028   9.005   4.024  0.2108  2.2821 -2.7390
  709MOL0     H95650   2.732   8.682   4.124 -0.2883 -0.2084 -1.6409
  709MOL0     H95651   2.874   8.595   4.052 -1.3894 -0.2543  1.5205
  709MOL0     H95652   2.837   8.523   4.270 -0.6873 -0.5272  0.1579
  709MOL0     H95653   2.844   8.688   4.331  2.7836 -0.1945  1.6218
  709MOL0     H95654   3.080   8.709   4.227 -2.3158  0.5788 -1.3312
  709MOL0     H95655   3.075   8.531   4.205  2.3347  0.9824 -0.2407
  709MOL0     H95656   3.081   8.674   4.481  3.9767 -0.2182  0.1774
  709MOL0     H95657   3.004   8.514   4.447 -0.5411 -1.8969 -3.7254
  709MOL0     H95658   3.239   8.483   4.522  0.1968 -1.4000 -0.2628
  709MOL0     H95659   3.242   8.457   4.351 -2.8345  0.6116 -1.4370
  709MOL0     H95660   3.331   8.681   4.316 -1.3751  0.7200 -0.0049
  709MOL0     H95661   3.322   8.705   4.496  1.9355  2.6597 -2.6649
  709MOL0     H95662   3.510   8.508   4.365  1.9279  2.2771  0.0996
  709MOL0     H95663   3.472   8.541   4.541 -0.8270  2.7181  1.1908
  709MOL0     H95664   3.560   8.743   4.333  1.8428  0.8855 -0.3378
  709MOL0     H95665   3.570   8.784   4.502  1.5341 -1.7790  1.4077
  709MOL0     H95666   3.715   8.584   4.659 -0.0313  0.6390 -0.1411
  709MOL0     H95667   3.935   8.510   4.718  0.5090  0.7574  0.6746
  709MOL0     H95668   3.999   8.406   4.598 -0.3110  0.6012 -1.5048
  709MOL0     H95669   4.164   8.617   4.541  0.4460 -0.5419 -0.1197
  709MOL0     H95670   4.109   8.691   4.685  0.5209 -0.8102  0.5819
  709MOL0     H95671   4.248   8.429   4.660  1.9200 -0.0034  1.6868
  709MOL0     H95672   4.152   8.479   4.809 -0.5255  0.7353 -0.7857
  709MOL0     H95673   4.309   8.659   4.838 -1.4068  0.1803 -1.3154
  709MOL0     H95674   4.399   8.614   4.688  1.9855 -2.1721 -0.4296
  709MOL0     H95675   4.585   8.690   4.847 -0.3198  0.1367  0.1454
  709MOL0     H95676   4.825   8.680   4.942  0.4687  0.5707  2.0946
  709MOL0     H95677   5.163   8.118   5.023 -0.2420 -0.3662  1.7353
  709MOL0     H95678   5.394   8.084   5.106  2.0507  0.3870  1.3258
  709MOL0     H95679   5.701   8.200   5.307  0.7829  2.2754 -0.6571
  709MOL0     H95680   5.613   8.090   5.198 -0.1337  0.5054 -0.1336
  709MOL0     H95681   5.788   8.232   5.099  0.2703 -0.4394 -2.0047
  709MOL0     H95682   5.633   8.262   5.019  1.5107 -0.6587 -1.1787
  709MOL0     H95683   5.621   8.472   5.152  0.1195 -1.0692 -0.7532
  709MOL0     H95684   5.782   8.434   5.236  1.1725  0.6073 -0.6561
  709MOL0     H95685   5.828   8.593   5.067 -1.4360  0.1850  0.3840
  709MOL0     H95686   5.741   8.500   4.942  0.5280 -0.3719 -0.6508
  709MOL0     H95687   5.909   8.317   4.954  0.4965  0.3840 -0.2439
  709MOL0     H95688   5.992   8.399   5.083  2.1346 -1.7045 -0.8982
  709MOL0     H95689   5.918   8.467   4.786  1.2856 -2.1798 -0.7720
  709MOL0     H95690   6.000   8.599   4.875 -0.8384  1.0180 -0.6655
  709MOL0     H95691   6.142   8.324   4.830  1.0638  0.0165  0.7154
  709MOL0     H95692   6.184   8.434   4.956  0.4822 -0.4094 -0.3482
  709MOL0     H95693   6.219   8.609   4.783 -2.8112  0.5782 -0.6950
  709MOL0     H95694   6.318   8.481   4.720 -0.7220 -3.0752 -0.6155
  709MOL0     H95695   5.376   8.453   5.306 -0.1024  0.6589 -0.2268
  709MOL0     H95696   5.165   8.517   5.200 -1.1974 -0.2133  2.4492
  709MOL0     H95697   4.793   8.261   4.967 -1.1473 -0.1930  0.7545
  709MOL0     H95698   4.562   8.267   4.891  1.1929 -1.4978 -1.0257
  709MOL0     H95699   2.702   8.742   3.917 -0.4154  0.3755 -1.9404
  709MOL0     H95700   2.651   8.863   3.730  0.4918  0.1862 -1.7287
  709MOL0     H95701   2.600   9.253   3.590 -1.4676  1.6363 -0.7165
  709MOL0     H95702   2.509   9.467   3.524 -0.1903 -0.3401 -2.2160
  709MOL0     H95703   2.467   9.692   3.508 -1.4920 -1.0085 -0.6899
  709MOL0     H95704   2.443   9.619   3.352  1.7510 -1.8719  0.9872
  709MOL0     H95705   2.363   9.845   3.344  0.1330  2.9216 -1.7597
  709MOL0     H95706   2.510   9.830   3.240  1.9997 -0.0211  1.0672
  709MOL0     H95707   2.639   9.937   3.406  0.2363 -2.1258 -1.7095
  709MOL0     H95708   2.528   9.926   3.535  2.8832  0.1504 -0.6219
  709MOL0     H95709   2.373  10.093   3.423 -0.9332 -0.3415 -3.2440
  709MOL0     H95710   2.544  10.147   3.455  0.4401 -0.4106 -0.7781
  709MOL0     H95711   2.506  10.176   3.041  0.0370  3.9286  1.1601
  709MOL0     H95712   2.877   9.578   3.343 -0.2776  0.4175 -0.5109
  709MOL0     H95713   3.058   9.301   3.367  0.5519 -1.3891  2.2757
  709MOL0     H95714   3.068   9.474   3.376 -0.3572 -1.7671 -1.6875
  709MOL0     H95715   3.079   9.387   3.524  2.9017  0.4803 -0.6805
  710MOL0     O95716   6.640   8.251   3.559  0.1136  0.2674 -0.3711
  710MOL0     C95717   6.546   8.330   3.543 -0.3133 -0.2377 -0.1404
  710MOL0     O95718   6.558   8.470   3.567 -0.4042  0.1520 -0.5460
  710MOL0     C95719   6.685   8.512   3.614  0.5686  0.3972  0.1566
  710MOL0     C95720   6.748   8.453   3.723  0.1099  0.0596  0.6322
  710MOL0     C95721   6.883   8.482   3.746  0.3740 -0.2804  0.3776
  710MOL0     C95722   6.949   8.589   3.694  0.3584 -0.6284  0.7244
  710MOL0     O95723   7.082   8.619   3.717 -0.2621 -0.4251 -0.0832
  710MOL0     C95724   7.173   8.512   3.708  0.1923 -0.1048  1.0435
  710MOL0     C95725   7.320   8.557   3.711 -0.2773  0.5543 -0.1091
  710MOL0     C95726   7.369   8.607   3.844 -0.3724  0.1929 -0.9086
  710MOL0     C95727   7.496   8.696   3.820 -0.1959  0.5727  0.3722
  710MOL0     C95728   7.624   8.615   3.792  0.6498 -0.2792 -1.1417
  710MOL0     C95729   7.754   8.686   3.809  0.5497 -0.1194 -0.0896
  710MOL0     C95730   7.871   8.587   3.799 -0.2786 -0.5888  0.6922
  710MOL0     C95731   8.014   8.648   3.780 -0.2099 -0.3638 -0.5043
  710MOL0     N95732   8.038   8.746   3.894 -0.3226  0.4473 -1.0091
  710MOL0     C95733   8.118   8.855   3.880 -0.4980  0.1508 -1.0737
  710MOL0     C95734   8.155   8.898   4.003  0.7542  0.0417 -0.1053
  710MOL0     C95735   8.240   9.009   4.050  0.1711  0.0472  0.0833
  710MOL0     C95736   8.381   9.038   3.996  0.2319 -0.7907 -0.1645
  710MOL0     C95737   8.462   8.914   3.974  0.6394  0.2891 -0.3701
  710MOL0     C95738   8.602   8.925   3.918  0.6928  0.4690 -0.1368
  710MOL0     O95739   8.674   9.003   4.016  0.0890  0.3877  0.4533
  710MOL0     C95740   8.774   9.087   3.977  0.2605 -0.6649  1.2513
  710MOL0     C95741   8.821   9.169   4.080 -0.3018  0.3943 -0.1294
  710MOL0     C95742   8.935   9.254   4.052 -0.1907  0.9988  0.1608
  710MOL0     C95743   9.009   9.247   3.927  0.9850  0.1569  0.9481
  710MOL0     C95744   9.123   9.337   3.896 -0.0229  0.6379  0.6842
  710MOL0     O95745   9.161   9.343   3.762 -0.7217 -0.4457 -0.5805
  710MOL0     C95746   9.272   9.423   3.737  0.3801 -0.5699  1.2860
  710MOL0     C95747   9.400   9.406   3.782 -0.2988 -0.7506 -0.0310
  710MOL0     C95748   9.512   9.490   3.750 -0.4243 -0.2452  0.4295
  710MOL0     C95749   9.492   9.581   3.651  0.0253  0.6312 -0.7271
  710MOL0     O95750   9.600   9.659   3.616  0.4752  0.3538 -0.4839
  710MOL0     C95751   9.627   9.673   3.477  0.6917 -0.9223 -0.6659
  710MOL0     C95752   9.750   9.755   3.472  0.2225 -0.5455  0.3819
  710MOL0     C95753   9.873   9.673   3.508  0.0643 -0.5604  0.1751
  710MOL0     C95754  10.008   9.736   3.474 -0.1296 -0.2419 -1.1605
  710MOL0     C95755  10.111   9.651   3.553 -0.2351  0.3970  0.3201
  710MOL0     C95756  10.258   9.691   3.539  0.0484 -0.3174 -0.3403
  710MOL0     C95757  10.281   9.832   3.605  0.6958 -0.2499 -0.1911
  710MOL0     C95758  10.329   9.942   3.510 -0.2267  0.0659  0.7173
  710MOL0    Cl95759  10.492   9.923   3.448 -0.4382  0.3237 -0.5790
  710MOL0     C95760   9.363   9.595   3.592 -1.1776 -0.5982 -0.3429
  710MOL0     C95761   9.249   9.515   3.633  0.8044  0.7861  0.0552
  710MOL0     O95762   9.151   9.416   3.983  0.1690  0.2035 -0.3765
  710MOL0     C95763   8.954   9.161   3.833 -0.8999 -0.0519  0.3089
  710MOL0     C95764   8.845   9.081   3.854 -0.3383 -0.3622  0.1610
  710MOL0     N95765   8.089   8.809   4.092 -0.4393 -0.1638 -0.4327
  710MOL0     N95766   8.023   8.716   4.026 -0.6693 -0.6993 -0.0022
  710MOL0     C95767   6.871   8.666   3.600  0.5858 -0.2252 -0.1321
  710MOL0     C95768   6.744   8.624   3.560  0.0844 -0.4115  0.8295
  710MOL0     C95769   6.416   8.272   3.503  0.3672  0.8172 -0.0637
  710MOL0     C95770   6.296   8.354   3.516 -0.6405  0.6395 -0.1098
  710MOL0     C95771   6.176   8.302   3.485  0.2416  0.7102 -0.3272
  710MOL0     C95772   6.157   8.168   3.440 -0.3204  0.1961 -0.1222
  710MOL0     O95773   6.034   8.140   3.403  0.8458 -0.5073  0.2548
  710MOL0     C95774   6.017   8.001   3.371 -0.8527 -0.3019  0.3462
  710MOL0     C95775   5.866   7.981   3.375  1.2284 -0.5714  0.0863
  710MOL0     C95776   5.820   7.855   3.304  0.6976  0.6911 -0.6390
  710MOL0     C95777   5.818   7.732   3.395 -0.6115 -0.0088 -0.3089
  710MOL0     C95778   5.816   7.609   3.313 -0.0978 -0.3318 -0.0407
  710MOL0     C95779   5.823   7.518   3.239 -0.4775 -0.1269  0.0898
  710MOL0     C95780   6.278   8.081   3.425  0.0851 -0.6942  0.0780
  710MOL0     C95781   6.408   8.137   3.457 -0.0524 -0.8265  0.0678
  710MOL0     C95782   6.519   8.037   3.433  0.3191  0.3546 -1.1702
  710MOL0     H95783   6.710   8.370   3.781  0.2012  0.2991  1.0428
  710MOL0     H95784   6.932   8.414   3.816 -2.4767 -2.7338  0.2179
  710MOL0     H95785   7.158   8.436   3.785 -2.3865 -1.3646 -0.5557
  710MOL0     H95786   7.161   8.461   3.612 -1.2672  1.3026  0.4376
  710MOL0     H95787   7.322   8.631   3.631  1.0237  0.2371 -0.3981
  710MOL0     H95788   7.391   8.481   3.676  0.8222  1.3727  0.3165
  710MOL0     H95789   7.401   8.529   3.913  0.7540  0.3836 -1.1976
  710MOL0     H95790   7.285   8.664   3.885 -2.5089 -4.4435  1.9048
  710MOL0     H95791   7.463   8.756   3.735 -2.0760 -0.8867  0.0110
  710MOL0     H95792   7.506   8.756   3.911  0.1731  1.0019  0.0550
  710MOL0     H95793   7.626   8.528   3.858 -1.4102  0.8680  0.5683
  710MOL0     H95794   7.620   8.566   3.694  3.7709 -0.0445 -1.5086
  710MOL0     H95795   7.770   8.763   3.733  3.6092  0.8635  1.3959
  710MOL0     H95796   7.755   8.738   3.905  1.5792  0.8679 -0.6077
  710MOL0     H95797   7.844   8.514   3.722 -1.7408 -0.5857  1.1697
  710MOL0     H95798   7.889   8.523   3.886  1.6656  1.0178  1.5579
  710MOL0     H95799   8.084   8.565   3.794  0.8784  0.7108  0.6499
  710MOL0     H95800   8.030   8.684   3.678  2.0403  2.5310  0.7339
  710MOL0     H95801   8.153   8.884   3.782  1.1087  1.3912 -0.1818
  710MOL0     H95802   8.179   9.097   4.029  0.2967  0.5200  1.5367
  710MOL0     H95803   8.243   8.999   4.159 -3.1949 -0.0840  0.2713
  710MOL0     H95804   8.367   9.104   3.911 -3.5781  0.4417  1.2138
  710MOL0     H95805   8.436   9.089   4.076  0.8050 -1.3723 -0.1756
  710MOL0     H95806   8.409   8.855   3.898  2.8766  0.9147 -2.5721
  710MOL0     H95807   8.465   8.858   4.068 -3.0079  1.1453  0.3868
  710MOL0     H95808   8.597   8.987   3.827  3.4986 -0.7288 -1.2243
  710MOL0     H95809   8.661   8.837   3.892 -0.8947 -0.9010  0.7163
  710MOL0     H95810   8.764   9.174   4.172 -1.8103 -1.0530 -0.9551
  710MOL0     H95811   8.964   9.328   4.126  0.7478 -0.6377  1.4780
  710MOL0     H95812   9.411   9.315   3.841 -0.7797 -0.8471 -0.0880
  710MOL0     H95813   9.611   9.480   3.794 -0.5440  0.8694  0.9810
  710MOL0     H95814   9.634   9.578   3.422  1.0152 -2.5118  1.9295
  710MOL0     H95815   9.551   9.740   3.436  0.8008  0.1967  0.8730
  710MOL0     H95816   9.747   9.788   3.367  0.8564  2.1615  1.1294
  710MOL0     H95817   9.749   9.846   3.533 -0.0137 -1.1379  1.2635
  710MOL0     H95818   9.868   9.645   3.614 -0.0897  1.0005  0.6037
  710MOL0     H95819   9.859   9.581   3.451  0.3868 -1.7043  1.8511
  710MOL0     H95820  10.027   9.839   3.508  0.9163 -1.2554  1.5880
  710MOL0     H95821  10.044   9.738   3.371  2.2861  0.4865 -0.3678
  710MOL0     H95822  10.104   9.550   3.510 -0.3659 -0.7190  2.7836
  710MOL0     H95823  10.092   9.632   3.659 -0.2565  1.7730  0.5754
  710MOL0     H95824  10.318   9.613   3.585 -0.1148 -0.4367 -0.3298
  710MOL0     H95825  10.282   9.697   3.433  0.3062  2.6967 -0.2143
  710MOL0     H95826  10.353   9.824   3.687 -0.8677  0.5024  1.2976
  710MOL0     H95827  10.188   9.869   3.647  0.5066 -1.3713  0.4179
  710MOL0     H95828  10.260   9.936   3.426 -0.4445  5.0178  0.2769
  710MOL0     H95829  10.317  10.042   3.551 -4.6764  0.5028 -1.1383
  710MOL0     H95830   9.353   9.663   3.507 -1.2264  1.6151  1.3501
  710MOL0     H95831   9.149   9.523   3.590  1.1158 -1.0907 -1.1527
  710MOL0     H95832   9.001   9.145   3.737 -0.9796 -0.7571  0.3813
  710MOL0     H95833   8.813   9.007   3.783 -1.1848 -0.2246  0.3904
  710MOL0     H95834   6.929   8.746   3.555  1.9607  0.3628  2.4631
  710MOL0     H95835   6.695   8.676   3.478  1.2350  2.4470  1.8388
  710MOL0     H95836   6.294   8.456   3.554  3.0869  0.2573  1.4983
  710MOL0     H95837   6.091   8.368   3.465  0.8914  1.4794 -0.5961
  710MOL0     H95838   6.057   7.930   3.443  1.3263 -0.3178 -0.8002
  710MOL0     H95839   6.063   7.965   3.278 -0.0780  0.4468  0.4227
  710MOL0     H95840   5.831   8.066   3.315  0.0127 -2.0566 -1.3915
  710MOL0     H95841   5.836   7.988   3.480  0.1887  3.0682 -0.3265
  710MOL0     H95842   5.879   7.834   3.214  0.8048  2.3681 -0.9883
  710MOL0     H95843   5.716   7.860   3.271 -0.1238 -1.5687  1.3597
  710MOL0     H95844   5.914   7.729   3.446 -0.6497 -0.5489 -0.2699
  710MOL0     H95845   5.734   7.733   3.466  1.2865 -2.0837  2.1592
  710MOL0     H95846   5.816   7.421   3.193  1.1317 -0.3327  0.2298
  710MOL0     H95847   6.278   7.976   3.399  0.1472 -0.6731 -0.0084
  710MOL0     H95848   6.484   7.952   3.374 -0.0607 -1.2957  1.2495
  710MOL0     H95849   6.596   8.086   3.373 -0.3905 -0.1709 -2.5506
  710MOL0     H95850   6.570   7.997   3.521  1.8849  2.0324 -1.2534
  711MOL0     O95851   6.168   2.927   6.750 -0.1617  0.0097 -0.2527
  711MOL0     C95852   6.097   2.951   6.843  0.7432  0.1131  0.9602
  711MOL0     O95853   6.100   3.061   6.920 -0.4246 -0.0825 -0.8719
  711MOL0     C95854   6.190   3.159   6.898 -0.4061  0.4366 -0.1014
  711MOL0     C95855   6.329   3.142   6.910 -0.1733 -0.3517  0.8266
  711MOL0     C95856   6.420   3.245   6.901  0.5174 -0.5992 -0.2905
  711MOL0     C95857   6.377   3.380   6.896  0.1512 -0.3506  0.1598
  711MOL0     O95858   6.451   3.501   6.905  0.7590 -0.3435 -0.2561
  711MOL0     C95859   6.578   3.494   6.959 -0.8134 -0.6662 -0.0159
  711MOL0     C95860   6.655   3.629   6.955 -0.0327  0.0939 -0.0914
  711MOL0     C95861   6.706   3.635   6.806 -0.1569  0.1172 -0.2538
  711MOL0     C95862   6.757   3.777   6.773 -0.6618 -0.2178  0.4444
  711MOL0     C95863   6.760   3.804   6.621  0.0032  0.3668  0.8745
  711MOL0     C95864   6.746   3.953   6.596  0.0156  0.1342  0.2307
  711MOL0     C95865   6.883   4.027   6.634  0.1783 -0.8960 -0.0744
  711MOL0     C95866   6.892   4.168   6.577  0.2857  0.0777  0.2354
  711MOL0     N95867   7.029   4.208   6.568  0.3384  0.3381 -1.1706
  711MOL0     C95868   7.092   4.244   6.452 -0.0429 -0.7133 -0.6470
  711MOL0     C95869   7.210   4.300   6.491 -0.5055 -0.1279  0.4694
  711MOL0     C95870   7.312   4.349   6.396 -0.1190 -0.4471  0.3970
  711MOL0     C95871   7.461   4.343   6.445 -0.0040 -0.2238  0.1833
  711MOL0     C95872   7.497   4.197   6.445  0.2645 -0.2915 -0.1639
  711MOL0     C95873   7.647   4.188   6.487  0.3815 -0.7626  0.7324
  711MOL0     O95874   7.736   4.251   6.395  0.8168  0.5731  0.4624
  711MOL0     C95875   7.869   4.261   6.423  0.4931 -0.1704 -1.2335
  711MOL0     C95876   7.940   4.330   6.323  0.1158  0.0383  0.1368
  711MOL0     C95877   8.072   4.344   6.335 -0.4199  0.0378  0.0988
  711MOL0     C95878   8.149   4.289   6.434 -0.6371 -0.2492 -0.0505
  711MOL0     C95879   8.295   4.306   6.429 -0.5587 -0.6568 -0.6568
  711MOL0     O95880   8.362   4.273   6.544 -0.8495 -0.0320 -0.7331
  711MOL0     C95881   8.495   4.303   6.562 -0.1560  0.2416 -0.1347
  711MOL0     C95882   8.581   4.205   6.607 -0.0126 -0.5654 -0.7849
  711MOL0     C95883   8.715   4.216   6.614 -0.3486  0.9091 -0.0494
  711MOL0     C95884   8.775   4.343   6.590  1.0228  0.1697 -0.0016
  711MOL0     O95885   8.909   4.351   6.575  0.5077 -0.2102  0.4140
  711MOL0     C95886   8.962   4.300   6.455 -0.7493 -0.0249  0.2827
  711MOL0     C95887   9.034   4.160   6.465  0.7207  0.5866 -0.3164
  711MOL0     C95888   9.156   4.149   6.372 -1.0807 -0.0490 -0.6729
  711MOL0     C95889   9.280   4.183   6.453 -0.4493  0.1153 -0.5554
  711MOL0     C95890   9.400   4.205   6.362  0.4452 -0.1005  0.4364
  711MOL0     C95891   9.540   4.208   6.432 -0.1447  0.2924  0.3298
  711MOL0     C95892   9.660   4.164   6.348 -0.5059 -0.2023  0.4154
  711MOL0     C95893   9.713   4.249   6.230  0.5842  0.5338 -0.4475
  711MOL0    Cl95894   9.840   4.166   6.141 -0.4175 -0.1710 -0.5981
  711MOL0     C95895   8.689   4.452   6.549  0.4937  0.5415 -0.3355
  711MOL0     C95896   8.550   4.430   6.537 -0.4254 -0.7700  0.3263
  711MOL0     O95897   8.344   4.359   6.330  0.1558 -0.2381  0.3631
  711MOL0     C95898   8.081   4.212   6.528 -0.2039 -0.3613 -0.9940
  711MOL0     C95899   7.941   4.195   6.525  0.4716 -0.0897  0.3657
  711MOL0     N95900   7.217   4.286   6.632 -0.7184  0.3588  0.1187
  711MOL0     N95901   7.105   4.245   6.674 -0.6432 -0.1621 -1.0798
  711MOL0     C95902   6.238   3.395   6.880 -0.5764 -0.6030  0.1466
  711MOL0     C95903   6.151   3.290   6.880  1.0557  0.8074  0.4654
  711MOL0     C95904   6.003   2.840   6.888  0.4070  0.1786  0.2880
  711MOL0     C95905   5.967   2.822   7.025 -0.3806  0.5852 -0.0459
  711MOL0     C95906   5.890   2.710   7.066  0.8372  0.3760  1.1015
  711MOL0     C95907   5.839   2.615   6.979  0.3959 -0.8410 -0.3533
  711MOL0     O95908   5.766   2.501   7.016  0.1517  0.1077  0.5312
  711MOL0     C95909   5.791   2.434   7.135 -0.5430 -0.2597 -0.2701
  711MOL0     C95910   5.688   2.460   7.249  0.2813 -0.5952  0.4716
  711MOL0     C95911   5.553   2.403   7.215  0.9729  0.8012 -0.3527
  711MOL0     C95912   5.546   2.256   7.257 -0.6882  0.3994  0.2455
  711MOL0     C95913   5.424   2.189   7.212  0.8338 -0.3482  0.8410
  711MOL0     C95914   5.320   2.149   7.155 -0.2470 -0.4243  0.5555
  711MOL0     C95915   5.864   2.646   6.845 -0.3626  0.7529 -0.9925
  711MOL0     C95916   5.939   2.752   6.796 -0.6210 -0.8584  0.1146
  711MOL0     C95917   5.958   2.759   6.646 -0.5437 -0.9628  0.2446
  711MOL0     H95918   6.355   3.038   6.930 -1.7584 -0.5068  2.2953
  711MOL0     H95919   6.520   3.218   6.934 -0.7105 -1.1839  3.5451
  711MOL0     H95920   6.573   3.450   7.059 -1.1387  0.8390  0.6623
  711MOL0     H95921   6.640   3.425   6.901 -0.0296  1.1177 -1.3932
  711MOL0     H95922   6.733   3.632   7.031 -0.9381 -2.1126  1.0160
  711MOL0     H95923   6.603   3.722   6.978  2.3876  1.5775 -0.2899
  711MOL0     H95924   6.620   3.607   6.745  0.6744 -0.1027 -1.3728
  711MOL0     H95925   6.784   3.559   6.796  2.4964  2.3568  1.6000
  711MOL0     H95926   6.693   3.850   6.823  0.1229  0.0738  1.0301
  711MOL0     H95927   6.862   3.790   6.799 -0.1089 -0.6699 -1.4173
  711MOL0     H95928   6.847   3.752   6.581 -1.8462 -2.5991  0.3956
  711MOL0     H95929   6.671   3.753   6.582  1.5623 -2.3525  0.6721
  711MOL0     H95930   6.729   3.957   6.488 -1.7555  2.4027  0.5047
  711MOL0     H95931   6.659   3.991   6.651  0.6926  2.2647 -0.0861
  711MOL0     H95932   6.960   3.960   6.597  0.4802 -0.6238  0.0591
  711MOL0     H95933   6.886   4.046   6.742 -0.3567  0.3311 -0.2612
  711MOL0     H95934   6.853   4.160   6.475  2.1363  1.0905 -0.6040
  711MOL0     H95935   6.823   4.233   6.631 -0.7133 -1.0913  0.4145
  711MOL0     H95936   7.066   4.228   6.348 -2.2134 -0.7151 -0.1661
  711MOL0     H95937   7.289   4.316   6.295 -1.1113 -0.3290  0.5768
  711MOL0     H95938   7.298   4.458   6.390 -0.2333 -0.5256 -1.0298
  711MOL0     H95939   7.528   4.405   6.385  0.8361 -0.1014  1.2266
  711MOL0     H95940   7.459   4.384   6.546 -4.1014 -1.5156  0.8325
  711MOL0     H95941   7.476   4.152   6.348 -1.3006  0.4819 -0.2256
  711MOL0     H95942   7.437   4.140   6.517  0.3489 -1.9633 -1.3470
  711MOL0     H95943   7.677   4.084   6.502  4.8785  0.1860 -0.2790
  711MOL0     H95944   7.661   4.242   6.582  1.1176  1.7586 -0.7012
  711MOL0     H95945   7.891   4.370   6.235 -1.0770 -0.3129  0.6330
  711MOL0     H95946   8.129   4.406   6.267  1.4915  0.3695  1.8835
  711MOL0     H95947   8.538   4.106   6.614  1.0575 -1.2941 -3.2459
  711MOL0     H95948   8.775   4.125   6.610 -0.4187  0.8827 -0.6296
  711MOL0     H95949   8.887   4.300   6.375 -0.6330 -3.6341  0.0075
  711MOL0     H95950   9.044   4.365   6.422  1.1942 -2.9639 -1.2389
  711MOL0     H95951   9.067   4.137   6.567  1.3931 -0.1157 -0.6805
  711MOL0     H95952   8.957   4.085   6.446  0.9617  0.3440 -0.3292
  711MOL0     H95953   9.167   4.046   6.337  0.0574  0.2749 -1.3201
  711MOL0     H95954   9.138   4.222   6.293  1.8499  2.0916  0.4461
  711MOL0     H95955   9.299   4.100   6.521 -2.5849  0.4205  0.4854
  711MOL0     H95956   9.263   4.277   6.506 -1.7759  0.6846 -1.9161
  711MOL0     H95957   9.381   4.301   6.313  0.0371 -0.4327 -0.0658
  711MOL0     H95958   9.399   4.132   6.281 -0.2701 -0.5687  0.8464
  711MOL0     H95959   9.560   4.306   6.478  0.5773 -0.1490  0.9886
  711MOL0     H95960   9.532   4.140   6.518 -0.7706 -0.3649 -0.2424
  711MOL0     H95961   9.647   4.062   6.310 -0.9051 -0.3158  0.8559
  711MOL0     H95962   9.744   4.151   6.416  0.3734 -0.5963 -0.7126
  711MOL0     H95963   9.626   4.257   6.166 -0.0181  0.3961  0.3367
  711MOL0     H95964   9.746   4.347   6.267  2.7183 -1.1589  2.6273
  711MOL0     H95965   8.728   4.551   6.527 -1.4852  1.4129 -0.0997
  711MOL0     H95966   8.479   4.504   6.501 -0.5847 -2.5868 -3.7000
  711MOL0     H95967   8.135   4.172   6.614 -1.4702 -0.5261 -0.2459
  711MOL0     H95968   7.891   4.158   6.614  0.2765  2.4162  1.3706
  711MOL0     H95969   6.195   3.494   6.864  0.7444 -0.0130  0.1126
  711MOL0     H95970   6.044   3.309   6.878  1.0105  0.5209 -0.2072
  711MOL0     H95971   5.997   2.895   7.099  2.7641 -0.2444 -0.3248
  711MOL0     H95972   5.853   2.702   7.167  0.3276 -1.1380  0.8339
  711MOL0     H95973   5.891   2.466   7.166 -0.9904 -1.1040  2.2534
  711MOL0     H95974   5.812   2.327   7.129  1.8475  0.0743  0.9999
  711MOL0     H95975   5.677   2.569   7.249  1.8992 -0.4079  1.1934
  711MOL0     H95976   5.727   2.429   7.347  0.8347 -0.5846  0.2538
  711MOL0     H95977   5.534   2.406   7.107 -2.1687 -3.0602 -0.1285
  711MOL0     H95978   5.478   2.461   7.269 -0.1448 -1.2658  0.4150
  711MOL0     H95979   5.632   2.200   7.220  0.4638  3.7048 -2.5399
  711MOL0     H95980   5.550   2.254   7.367 -2.3691 -0.4403  0.3359
  711MOL0     H95981   5.229   2.112   7.112  0.7521  1.4325 -3.6835
  711MOL0     H95982   5.830   2.575   6.770  0.0507  0.3865 -0.8369
  711MOL0     H95983   5.935   2.861   6.614 -1.3019 -0.2472  2.8420
  711MOL0     H95984   6.064   2.743   6.623 -0.9638 -1.2491 -1.6323
  711MOL0     H95985   5.903   2.683   6.591  0.3233 -1.2507 -0.2447
  712MOL0     O95986  10.295   2.906   7.635 -0.8843 -0.0898  0.0122
  712MOL0     C95987  10.235   2.897   7.743 -0.4903 -0.2873  0.9300
  712MOL0     O95988  10.258   2.977   7.854  0.3821 -0.3613 -0.0417
  712MOL0     C95989  10.357   3.072   7.829  0.1320 -0.5004  0.0973
  712MOL0     C95990  10.340   3.207   7.779 -0.2269  0.1349 -0.7949
  712MOL0     C95991  10.457   3.286   7.766  0.3622 -0.8100 -0.0749
  712MOL0     C95992  10.586   3.233   7.778  0.1410 -0.5187 -0.3980
  712MOL0     O95993  10.692   3.320   7.741  0.0267  0.0641 -0.3881
  712MOL0     C95994  10.805   3.263   7.690 -0.3793 -0.3678 -0.2584
  712MOL0     C95995  10.861   3.366   7.597 -1.0495  0.6832 -0.7123
  712MOL0     C95996  11.000   3.321   7.550 -0.0448  0.1558 -0.5275
  712MOL0     C95997  10.997   3.211   7.443 -0.6886 -0.1602 -0.0887
  712MOL0     C95998  11.112   3.221   7.339 -0.2168 -0.0161 -0.1307
  712MOL0     C95999  11.254   3.192   7.397 -0.7669 -0.6640  0.4499
  712MOL0     C96000  11.360   3.218   7.285  0.9448  0.6891 -0.8593
  712MOL0     C96001  11.494   3.178   7.339  0.3996  0.2573  0.0084
  712MOL0     N96002  11.561   3.289   7.412  0.0829  0.2161 -0.9384
  712MOL0     C96003  11.602   3.410   7.345  0.8481 -0.3011  0.1784
  712MOL0     C96004  11.652   3.484   7.454 -0.0847  0.5137  0.0389
  712MOL0     C96005  11.695   3.624   7.448 -0.2104 -0.4993 -0.3761
  712MOL0     C96006  11.848   3.641   7.486  0.2352 -0.4421  0.4604
  712MOL0     C96007  11.950   3.633   7.368  0.4006  0.7379  0.6933
  712MOL0     C96008  12.094   3.661   7.407  0.4212 -0.2804  1.0143
  712MOL0     O96009  12.177   3.631   7.292 -0.1821 -0.4799 -0.2564
  712MOL0     C96010  12.309   3.608   7.307  0.8452  0.8615 -0.3722
  712MOL0     C96011  12.378   3.584   7.190 -0.1017  0.6832 -0.1988
  712MOL0     C96012  12.516   3.560   7.201  0.4885  0.7947  0.0122
  712MOL0     C96013  12.588   3.535   7.325  0.0476 -0.0249  0.7952
  712MOL0     C96014  12.725   3.491   7.327 -0.2463 -0.3770  0.4713
  712MOL0     O96015  12.773   3.418   7.436 -0.2189  0.0748 -0.0498
  712MOL0     C96016  12.887   3.343   7.423 -0.8358 -1.0527 -0.2415
  712MOL0     C96017  12.888   3.207   7.407  0.7002  0.3995 -0.5668
  712MOL0     C96018  13.013   3.141   7.403  0.1628 -0.5581  0.8533
  712MOL0     C96019  13.131   3.209   7.413 -0.0840  0.6983 -0.4208
  712MOL0     O96020  13.235   3.130   7.430  0.0162  0.3655  0.3195
  712MOL0     C96021  13.358   3.174   7.498  0.4399 -0.2799 -0.2757
  712MOL0     C96022  13.475   3.077   7.523  0.6286  0.2038  0.3695
  712MOL0     C96023  13.581   3.143   7.604  0.4166 -0.0262  0.1020
  712MOL0     C96024  13.713   3.064   7.579  0.1387  0.4861 -0.1479
  712MOL0     C96025  13.846   3.136   7.610  0.5016 -0.6842  0.0245
  712MOL0     C96026  13.969   3.038   7.620  0.6755  0.2130  1.6964
  712MOL0     C96027  14.102   3.112   7.655 -0.2378 -0.2178  0.7243
  712MOL0     C96028  14.212   3.014   7.685  0.4834  0.3677  0.1978
  712MOL0    Cl96029  14.365   3.101   7.703  0.2619 -0.0595 -0.0039
  712MOL0     C96030  13.130   3.344   7.426 -0.4402 -0.3902  0.4018
  712MOL0     C96031  13.007   3.412   7.431  0.2354 -0.1770  0.7408
  712MOL0     O96032  12.795   3.525   7.235 -0.1295 -0.7021 -0.5501
  712MOL0     C96033  12.511   3.568   7.442  0.9738 -0.4148 -0.0919
  712MOL0     C96034  12.375   3.606   7.429 -0.1048 -0.3890  0.0697
  712MOL0     N96035  11.635   3.417   7.572  0.3788  0.2165 -0.4819
  712MOL0     N96036  11.587   3.303   7.544  0.1558 -1.0836  0.1233
  712MOL0     C96037  10.601   3.102   7.820 -0.0666  0.7090  0.0419
  712MOL0     C96038  10.491   3.027   7.859  0.1844 -0.2607  0.4110
  712MOL0     C96039  10.132   2.787   7.750  0.5706  0.1968 -0.3389
  712MOL0     C96040  10.062   2.778   7.869 -0.5866  0.4075 -0.6151
  712MOL0     C96041   9.971   2.671   7.893 -0.2082 -0.1335 -0.2568
  712MOL0     C96042   9.940   2.588   7.782  1.0619 -1.1468 -0.2096
  712MOL0     O96043   9.846   2.489   7.801 -0.1220 -1.1330  0.6010
  712MOL0     C96044   9.810   2.404   7.694 -0.5575  0.0958  0.6981
  712MOL0     C96045   9.691   2.321   7.734 -0.6399 -0.6113  0.6958
  712MOL0     C96046   9.572   2.414   7.762 -0.2874 -0.1378  0.7766
  712MOL0     C96047   9.448   2.339   7.799  0.4941 -0.4401 -0.0251
  712MOL0     C96048   9.330   2.421   7.836 -0.0342  0.6881  0.2732
  712MOL0     C96049   9.251   2.505   7.872 -0.2737 -0.5583 -0.1309
  712MOL0     C96050  10.000   2.603   7.654 -0.5263 -0.1094  0.7815
  712MOL0     C96051  10.099   2.699   7.640  0.3857  0.0977  0.3524
  712MOL0     C96052  10.170   2.705   7.498  0.3990  0.4372  0.1370
  712MOL0     H96053  10.237   3.234   7.759  0.0317  0.8144 -1.2595
  712MOL0     H96054  10.441   3.389   7.736  1.9777 -0.3660  0.4737
  712MOL0     H96055  10.873   3.252   7.775  2.0684  0.0141 -2.0430
  712MOL0     H96056  10.793   3.166   7.640  2.3884  0.9920 -4.0202
  712MOL0     H96057  10.871   3.458   7.656  1.0736 -0.7807  1.4229
  712MOL0     H96058  10.792   3.376   7.513 -1.4467  0.4420 -0.4162
  712MOL0     H96059  11.061   3.282   7.633 -0.0703  1.5042  0.1595
  712MOL0     H96060  11.045   3.410   7.506 -0.7544  0.6503 -0.2836
  712MOL0     H96061  10.989   3.111   7.486 -1.1392 -0.5830 -1.1053
  712MOL0     H96062  10.907   3.222   7.382 -0.4533  2.0529 -0.0970
  712MOL0     H96063  11.091   3.167   7.246  2.2204 -1.3093  0.0096
  712MOL0     H96064  11.113   3.325   7.304 -1.1657  0.4083  1.0290
  712MOL0     H96065  11.279   3.250   7.486  3.0068  0.4215 -1.1315
  712MOL0     H96066  11.264   3.086   7.423  1.9161 -0.9354 -1.2071
  712MOL0     H96067  11.357   3.324   7.260  1.5561  0.7842 -0.5261
  712MOL0     H96068  11.336   3.156   7.198 -1.0117  1.0415 -0.6225
  712MOL0     H96069  11.474   3.088   7.398 -2.6479  0.5047 -0.5122
  712MOL0     H96070  11.559   3.142   7.258  0.4015 -1.8519  0.8681
  712MOL0     H96071  11.580   3.445   7.245 -2.1135  2.6537  1.6813
  712MOL0     H96072  11.677   3.664   7.347  1.7450  1.1837 -0.1185
  712MOL0     H96073  11.633   3.682   7.516 -0.6269 -0.7880 -0.5021
  712MOL0     H96074  11.849   3.744   7.522  1.3182 -0.6471  1.0816
  712MOL0     H96075  11.868   3.574   7.571 -0.1505 -0.0901  0.8338
  712MOL0     H96076  11.915   3.704   7.293 -2.8207 -0.1765  1.2039
  712MOL0     H96077  11.957   3.535   7.320  0.3812  0.5204  1.1252
  712MOL0     H96078  12.110   3.605   7.499  0.3250 -1.0472  0.5733
  712MOL0     H96079  12.102   3.768   7.427 -1.6808  0.4098 -1.3984
  712MOL0     H96080  12.333   3.579   7.091 -0.0772 -0.7639 -0.1583
  712MOL0     H96081  12.560   3.529   7.106 -0.8334  2.8327 -1.3649
  712MOL0     H96082  12.795   3.151   7.416  2.0185 -1.7970  0.4126
  712MOL0     H96083  13.006   3.033   7.407  0.1787 -0.6595 -1.1374
  712MOL0     H96084  13.405   3.256   7.443 -0.6926  0.3551 -0.3428
  712MOL0     H96085  13.337   3.225   7.593  0.7655  0.3178 -0.5193
  712MOL0     H96086  13.441   2.981   7.564  0.7057 -0.4013 -0.9160
  712MOL0     H96087  13.518   3.062   7.423 -0.8253  1.2188 -0.4511
  712MOL0     H96088  13.592   3.246   7.568 -0.3407  0.0502  0.0815
  712MOL0     H96089  13.546   3.139   7.708  0.5258  0.2186  0.1496
  712MOL0     H96090  13.724   3.028   7.476  0.9569  2.2929 -0.7278
  712MOL0     H96091  13.697   2.976   7.642 -0.7326  0.6653 -0.1149
  712MOL0     H96092  13.841   3.192   7.703  1.3101  0.2758 -0.4844
  712MOL0     H96093  13.846   3.218   7.538  0.2790 -1.0322 -0.3813
  712MOL0     H96094  13.965   2.960   7.697  1.4545 -0.7932  0.7448
  712MOL0     H96095  13.975   2.982   7.527  0.2662  0.0331  1.7766
  712MOL0     H96096  14.104   3.172   7.747  0.4099  1.9711 -0.6211
  712MOL0     H96097  14.128   3.175   7.569  0.0543 -0.6730  0.4778
  712MOL0     H96098  14.178   2.964   7.776  0.1005 -0.6562 -0.4922
  712MOL0     H96099  14.212   2.946   7.599  0.6985  3.0842 -2.0922
  712MOL0     H96100  13.213   3.409   7.450 -1.5373  2.2670 -2.4120
  712MOL0     H96101  12.989   3.519   7.428  1.8487  0.1511  1.7344
  712MOL0     H96102  12.557   3.586   7.539 -2.4915 -0.1307  1.6550
  712MOL0     H96103  12.329   3.627   7.525  2.8900  1.0212  1.3391
  712MOL0     H96104  10.703   3.065   7.824  0.0075  1.0219  1.2360
  712MOL0     H96105  10.507   2.932   7.910 -1.2876 -0.3793  0.6828
  712MOL0     H96106  10.072   2.858   7.941 -0.1243  0.4747 -0.7536
  712MOL0     H96107   9.924   2.666   7.990  0.5219 -0.9666  0.0740
  712MOL0     H96108   9.889   2.330   7.680  0.7322  1.5317  0.0182
  712MOL0     H96109   9.791   2.453   7.598 -1.1541  1.0618  1.2896
  712MOL0     H96110   9.725   2.267   7.822 -0.9937  3.1996  3.3858
  712MOL0     H96111   9.664   2.259   7.647 -0.1368 -1.0626  0.8625
  712MOL0     H96112   9.561   2.474   7.671 -0.2882 -2.1057 -0.5781
  712MOL0     H96113   9.602   2.480   7.844  3.4543  0.9336 -1.2297
  712MOL0     H96114   9.413   2.280   7.714  1.7753  0.1502 -0.9869
  712MOL0     H96115   9.474   2.266   7.877  0.0714  1.3477  1.8889
  712MOL0     H96116   9.178   2.583   7.882  1.2427  0.9881 -0.7015
  712MOL0     H96117   9.980   2.539   7.568  1.5994 -0.3733  0.4201
  712MOL0     H96118  10.270   2.661   7.494  1.4752  2.7172 -0.1007
  712MOL0     H96119  10.114   2.644   7.427  2.7635 -1.0723 -0.5564
  712MOL0     H96120  10.182   2.808   7.464  1.2045  0.0448 -0.8137
  713MOL0     O96121   5.796  10.168   2.780  0.1834  0.0579  0.0334
  713MOL0     C96122   5.726  10.270   2.788  1.4184 -0.1057 -0.5485
  713MOL0     O96123   5.775  10.397   2.782 -0.5457  0.5765 -0.0138
  713MOL0     C96124   5.908  10.433   2.785  0.1721  0.3540  0.5497
  713MOL0     C96125   5.940  10.541   2.696 -0.0864 -0.7007  0.1564
  713MOL0     C96126   6.068  10.582   2.690 -0.5767  0.4287  0.1588
  713MOL0     C96127   6.163  10.515   2.769  0.3718  0.4976 -1.3468
  713MOL0     O96128   6.289  10.569   2.784 -0.5337  0.0867  0.4065
  713MOL0     C96129   6.353  10.599   2.659 -0.0061  0.5235 -0.6361
  713MOL0     C96130   6.499  10.561   2.692  0.5810 -0.3872  0.3063
  713MOL0     C96131   6.559  10.638   2.815 -0.4925  0.9675  0.8244
  713MOL0     C96132   6.711  10.619   2.840 -0.0450 -0.2428  0.2619
  713MOL0     C96133   6.752  10.490   2.915  0.3048  0.4352  1.2264
  713MOL0     C96134   6.686  10.462   3.050  0.6262 -0.1532 -0.1324
  713MOL0     C96135   6.744  10.341   3.131 -0.0979 -0.2334 -0.8871
  713MOL0     C96136   6.678  10.347   3.276 -0.3096 -0.5942 -0.5877
  713MOL0     N96137   6.536  10.352   3.250  0.2324  0.0001 -0.0086
  713MOL0     C96138   6.452  10.455   3.281 -0.1307  0.0375  0.1053
  713MOL0     C96139   6.329  10.405   3.236  0.2444 -0.8642 -0.1482
  713MOL0     C96140   6.197  10.479   3.240  0.3214  0.7602  0.0751
  713MOL0     C96141   6.092  10.420   3.323  0.0980 -0.4960  0.3779
  713MOL0     C96142   6.146  10.388   3.466 -0.3281 -0.6659  0.0950
  713MOL0     C96143   6.035  10.363   3.566  0.1842 -0.6817  0.1229
  713MOL0     O96144   5.952  10.480   3.576  0.1134 -0.5148  0.2053
  713MOL0     C96145   5.852  10.482   3.668 -0.3621 -1.1543 -0.6782
  713MOL0     C96146   5.809  10.375   3.743  0.4383 -0.1350  0.6270
  713MOL0     C96147   5.697  10.397   3.834  0.5914  0.4440  0.0869
  713MOL0     C96148   5.640  10.525   3.858 -0.2154  0.3469  0.3923
  713MOL0     C96149   5.533  10.552   3.958 -0.2905  0.2394  0.3625
  713MOL0     O96150   5.502  10.455   4.041  0.2254  0.4370 -0.4487
  713MOL0     C96151   5.394  10.475   4.122  0.1600 -0.1926 -0.4938
  713MOL0     C96152   5.269  10.448   4.063 -0.0863  0.5839  0.4234
  713MOL0     C96153   5.157  10.471   4.138 -0.2609 -1.0893 -0.2405
  713MOL0     C96154   5.170  10.503   4.277  0.7542  0.8019 -0.2280
  713MOL0     O96155   5.072  10.528   4.367  0.0604 -0.1579 -0.6721
  713MOL0     C96156   4.942  10.474   4.328  0.1003 -0.8683  0.5036
  713MOL0     C96157   4.829  10.517   4.418  0.3507 -1.0109  0.2523
  713MOL0     C96158   4.846  10.485   4.570  0.3826 -0.1342  0.0433
  713MOL0     C96159   4.737  10.559   4.639  0.2954  0.5571 -0.0569
  713MOL0     C96160   4.734  10.514   4.790 -0.5628 -0.7396  0.3350
  713MOL0     C96161   4.651  10.610   4.878 -0.0152  0.4405 -0.5271
  713MOL0     C96162   4.630  10.533   5.006 -0.1469 -0.0645 -0.6858
  713MOL0     C96163   4.516  10.608   5.083 -0.7127  0.7129 -0.0458
  713MOL0    Cl96164   4.526  10.568   5.256 -0.1625  0.1876  0.1679
  713MOL0     C96165   5.292  10.540   4.330  0.0974  0.7409 -0.0964
  713MOL0     C96166   5.408  10.518   4.255  0.4632  0.9849 -0.5004
  713MOL0     O96167   5.470  10.657   3.944 -0.6082  0.0870  0.2666
  713MOL0     C96168   5.691  10.630   3.774  0.0731 -0.1847  0.4266
  713MOL0     C96169   5.785  10.609   3.675  0.5200  0.3026  0.6165
  713MOL0     N96170   6.347  10.280   3.184  0.5993 -0.0115 -0.2585
  713MOL0     N96171   6.472  10.252   3.188  0.4756  0.3512 -0.1354
  713MOL0     C96172   6.130  10.407   2.855  0.1797 -0.4524 -0.4617
  713MOL0     C96173   5.998  10.365   2.860 -0.5106  0.6027 -0.6911
  713MOL0     C96174   5.585  10.253   2.815  0.8486 -0.3247 -0.5627
  713MOL0     C96175   5.536  10.119   2.834  0.1202 -0.6849  0.4459
  713MOL0     C96176   5.396  10.100   2.834  0.0244  0.2185 -0.3097
  713MOL0     C96177   5.303  10.208   2.827 -0.1703  0.1755 -0.8634
  713MOL0     O96178   5.177  10.182   2.848  0.1877  0.1801  0.4806
  713MOL0     C96179   5.082  10.282   2.890 -0.7135  0.5132 -0.5452
  713MOL0     C96180   4.935  10.231   2.906 -0.9310  0.8238  0.4860
  713MOL0     C96181   4.835  10.340   2.950 -0.3588 -0.1112 -0.1687
  713MOL0     C96182   4.696  10.287   2.955 -0.4089 -0.1847  0.0305
  713MOL0     C96183   4.655  10.251   3.087 -0.4690  0.2650 -0.0589
  713MOL0     C96184   4.616  10.211   3.196 -0.2808  0.6132  0.1628
  713MOL0     C96185   5.355  10.337   2.814 -0.3906  0.4595 -0.6061
  713MOL0     C96186   5.495  10.361   2.811  0.0273 -0.8211  0.0376
  713MOL0     C96187   5.541  10.505   2.819  0.3971 -0.7103  0.2958
  713MOL0     H96188   5.865  10.594   2.638  0.7349 -0.6544 -0.8964
  713MOL0     H96189   6.096  10.664   2.624  0.8078 -1.9252 -2.3794
  713MOL0     H96190   6.305  10.536   2.584  1.9910 -1.4122 -0.3891
  713MOL0     H96191   6.347  10.704   2.627  0.2988  1.2488  1.4701
  713MOL0     H96192   6.554  10.569   2.597  1.5316 -3.3507  0.5071
  713MOL0     H96193   6.495  10.452   2.703 -1.8903 -0.4402 -0.5455
  713MOL0     H96194   6.503  10.623   2.908 -1.1792 -1.2352  0.1184
  713MOL0     H96195   6.540  10.742   2.791  3.5830  1.5157 -0.9705
  713MOL0     H96196   6.772  10.626   2.749 -3.5545  3.4777 -2.2273
  713MOL0     H96197   6.747  10.708   2.893  1.2370  0.9129 -2.3476
  713MOL0     H96198   6.709  10.414   2.848 -1.0782  2.5937 -0.5048
  713MOL0     H96199   6.860  10.485   2.927  0.3700 -1.6819  0.2307
  713MOL0     H96200   6.683  10.554   3.108 -0.4590 -1.7136  2.4523
  713MOL0     H96201   6.579  10.453   3.032  0.7093 -0.2635 -0.5950
  713MOL0     H96202   6.853  10.343   3.135 -0.1041 -1.2627  1.0336
  713MOL0     H96203   6.715  10.242   3.095 -2.8786 -0.1360  0.8021
  713MOL0     H96204   6.707  10.254   3.325 -0.7762 -0.9714 -1.0206
  713MOL0     H96205   6.721  10.428   3.336 -1.2058 -2.0837  2.2830
  713MOL0     H96206   6.478  10.552   3.323 -0.5281  0.4724 -0.6382
  713MOL0     H96207   6.217  10.579   3.280  0.9408 -0.5137  3.2606
  713MOL0     H96208   6.154  10.495   3.141  1.1518 -0.2497 -0.4715
  713MOL0     H96209   6.006  10.488   3.330  0.9636  0.7164 -0.3072
  713MOL0     H96210   6.051  10.330   3.276 -3.3543  1.9402 -1.8359
  713MOL0     H96211   6.200  10.478   3.497 -0.8887  0.6964 -2.5777
  713MOL0     H96212   6.220  10.308   3.462 -0.1064 -0.4281 -2.8494
  713MOL0     H96213   6.077  10.334   3.663  0.3429 -0.6247  0.0706
  713MOL0     H96214   5.974  10.279   3.530  0.3977 -0.1552 -1.5329
  713MOL0     H96215   5.862  10.281   3.735  2.7254  1.2172 -1.3608
  713MOL0     H96216   5.654  10.311   3.886  0.6580  0.8712  0.8722
  713MOL0     H96217   5.263  10.410   3.962  0.0364  1.0015  0.2536
  713MOL0     H96218   5.060  10.463   4.089 -1.1356 -1.8607  1.5163
  713MOL0     H96219   4.907  10.505   4.229 -0.7883 -1.2619  0.6811
  713MOL0     H96220   4.941  10.365   4.336  2.2904 -1.1202 -1.5916
  713MOL0     H96221   4.810  10.625   4.423  2.4973 -0.5495 -0.4555
  713MOL0     H96222   4.742  10.468   4.375  1.7078 -0.7719 -3.0929
  713MOL0     H96223   4.823  10.379   4.582  1.4235 -0.0934  3.7698
  713MOL0     H96224   4.947  10.502   4.609  0.1219 -0.7617  1.0351
  713MOL0     H96225   4.643  10.548   4.585 -0.5567  2.4546  0.9340
  713MOL0     H96226   4.750  10.667   4.623  3.0962  0.6078  1.7172
  713MOL0     H96227   4.831  10.525   4.839 -0.9847  2.2687  0.6567
  713MOL0     H96228   4.697  10.411   4.796  0.7232 -1.3474 -1.2972
  713MOL0     H96229   4.692  10.710   4.896 -2.7862  1.1628  2.8522
  713MOL0     H96230   4.551  10.631   4.838 -0.5208  5.4602  2.4373
  713MOL0     H96231   4.718  10.532   5.070 -0.4858 -1.6898 -0.1861
  713MOL0     H96232   4.594  10.430   4.990 -1.2311 -0.0110  1.1789
  713MOL0     H96233   4.517  10.717   5.071  2.0850  0.7561  0.1014
  713MOL0     H96234   4.420  10.571   5.045 -0.3729 -0.4231  0.1741
  713MOL0     H96235   5.289  10.562   4.436 -2.9837  0.4405 -0.0496
  713MOL0     H96236   5.505  10.535   4.301  1.7018 -0.6296 -2.3153
  713MOL0     H96237   5.651  10.730   3.769  2.5591  0.8282 -1.5996
  713MOL0     H96238   5.800  10.691   3.606 -0.6849 -0.8259 -1.0452
  713MOL0     H96239   6.214  10.362   2.907 -0.5461 -1.2658  0.0322
  713MOL0     H96240   5.974  10.278   2.922 -0.6548  1.4368  0.4568
  713MOL0     H96241   5.599  10.031   2.836 -0.7846 -1.3674 -0.4086
  713MOL0     H96242   5.353  10.002   2.852 -1.1458  1.1605  2.6040
  713MOL0     H96243   5.089  10.360   2.813  2.4308  1.5448  0.6450
  713MOL0     H96244   5.108  10.325   2.987 -0.1221 -0.4980 -0.2507
  713MOL0     H96245   4.928  10.153   2.982 -1.5342  0.3779 -0.0251
  713MOL0     H96246   4.899  10.181   2.817  1.2213  0.3428 -0.1853
  713MOL0     H96247   4.839  10.413   2.869  0.2005  0.6216  0.5005
  713MOL0     H96248   4.868  10.388   3.042  1.9270 -2.4227  0.3378
  713MOL0     H96249   4.625  10.347   2.898 -0.6823  1.1837  1.7456
  713MOL0     H96250   4.682  10.200   2.890 -3.5735  0.4018 -0.2312
  713MOL0     H96251   4.578  10.174   3.289 -2.8563  1.6596 -0.3999
  713MOL0     H96252   5.289  10.423   2.809  0.1828  1.2450  2.8816
  713MOL0     H96253   5.572  10.550   2.724 -2.6827 -1.6019 -1.2486
  713MOL0     H96254   5.460  10.567   2.860  0.6048  0.7354 -1.3893
  713MOL0     H96255   5.616  10.514   2.898 -1.0110  0.7449  1.5457
  714MOL0     O96256   3.975   5.138   4.891 -0.4044 -0.4651 -0.6208
  714MOL0     C96257   3.930   5.238   4.829 -0.1071  0.8727  0.9150
  714MOL0     O96258   4.009   5.327   4.762  0.0049 -0.0817 -0.3925
  714MOL0     C96259   4.141   5.295   4.745  0.6301  0.0259 -0.3480
  714MOL0     C96260   4.239   5.387   4.771 -0.4977  0.5210 -0.3239
  714MOL0     C96261   4.375   5.361   4.747  0.3342 -0.5727  0.6153
  714MOL0     C96262   4.415   5.237   4.693  0.4981 -0.0150  1.0239
  714MOL0     O96263   4.542   5.190   4.654  0.2818 -0.0409 -0.1487
  714MOL0     C96264   4.635   5.296   4.665 -0.4184  0.5551  0.7573
  714MOL0     C96265   4.770   5.240   4.617 -0.1306  0.0858 -0.2170
  714MOL0     C96266   4.885   5.346   4.619  0.7300  0.2196  0.4417
  714MOL0     C96267   5.025   5.281   4.614 -0.8998  0.4514 -0.1145
  714MOL0     C96268   5.134   5.391   4.592 -0.4019 -1.2336 -0.0780
  714MOL0     C96269   5.275   5.329   4.626 -0.3971  0.4464  0.1389
  714MOL0     C96270   5.396   5.429   4.611  0.6584  0.1706  0.0735
  714MOL0     C96271   5.411   5.525   4.727  0.1207  0.2349 -0.0255
  714MOL0     N96272   5.532   5.608   4.710  0.7204 -0.4006 -0.0494
  714MOL0     C96273   5.536   5.735   4.675 -0.7431  0.3630 -0.4867
  714MOL0     C96274   5.661   5.776   4.718 -0.8576  0.3766  0.8388
  714MOL0     C96275   5.727   5.903   4.689  0.6792 -0.3987 -0.5537
  714MOL0     C96276   5.874   5.914   4.733 -0.8559  1.3314 -0.1317
  714MOL0     C96277   5.919   6.046   4.668 -0.0316  0.5956 -0.2862
  714MOL0     C96278   6.055   6.096   4.728  0.9050  0.6772  0.3715
  714MOL0     O96279   6.151   5.996   4.713  0.1071 -0.3163  0.1579
  714MOL0     C96280   6.251   5.972   4.801 -0.5531 -0.2096  0.7575
  714MOL0     C96281   6.356   6.057   4.823  0.2977  0.2962 -0.1611
  714MOL0     C96282   6.459   6.029   4.920 -0.5561  0.2108  0.6573
  714MOL0     C96283   6.464   5.900   4.982 -0.1211 -0.0843 -0.5577
  714MOL0     C96284   6.583   5.848   5.047 -0.1309 -0.2251  0.4428
  714MOL0     O96285   6.586   5.725   5.111  0.2987  0.4401  0.9245
  714MOL0     C96286   6.701   5.673   5.168  0.0203 -0.5416  0.2976
  714MOL0     C96287   6.795   5.602   5.095  0.1703 -0.5593  0.0854
  714MOL0     C96288   6.918   5.573   5.153 -0.5368 -0.1317 -0.4803
  714MOL0     C96289   6.947   5.612   5.285 -0.8187  0.2581 -0.7708
  714MOL0     O96290   7.072   5.594   5.352  0.5123  0.0033 -0.5483
  714MOL0     C96291   7.161   5.502   5.290 -0.5077  0.4591 -0.5914
  714MOL0     C96292   7.288   5.489   5.382  0.0599 -0.2453  0.2517
  714MOL0     C96293   7.364   5.617   5.385  0.4043  0.0710 -0.2057
  714MOL0     C96294   7.504   5.589   5.446 -0.0853  0.2396  0.6138
  714MOL0     C96295   7.571   5.716   5.489  0.3356 -0.4478 -0.0688
  714MOL0     C96296   7.619   5.790   5.358  0.6609  1.5709 -0.2011
  714MOL0     C96297   7.721   5.899   5.383 -0.5361  0.1264  0.0135
  714MOL0     C96298   7.674   6.009   5.469  0.2436 -0.3479 -0.5238
  714MOL0    Cl96299   7.538   6.090   5.386 -0.2903  0.2210 -0.3920
  714MOL0     C96300   6.844   5.672   5.358  0.9761  0.2299  0.6042
  714MOL0     C96301   6.715   5.685   5.306  0.0968 -0.2291  0.0659
  714MOL0     O96302   6.663   5.931   5.070  0.3021 -0.8613 -0.2069
  714MOL0     C96303   6.359   5.809   4.951  0.2876  0.3535  0.5644
  714MOL0     C96304   6.254   5.845   4.861  0.9805  0.8574 -0.5180
  714MOL0     N96305   5.727   5.667   4.779  0.6316  0.8038 -0.0443
  714MOL0     N96306   5.646   5.572   4.777 -0.1022  0.3950  1.0779
  714MOL0     C96307   4.314   5.139   4.676  0.7415  0.1807 -0.4890
  714MOL0     C96308   4.179   5.168   4.695 -0.6023  0.0164  0.1926
  714MOL0     C96309   3.780   5.271   4.816 -0.2335  0.1667 -0.1456
  714MOL0     C96310   3.738   5.389   4.744  0.2933  0.2400  0.0297
  714MOL0     C96311   3.602   5.407   4.713 -0.1177 -0.7777 -0.5740
  714MOL0     C96312   3.504   5.327   4.769  0.3411 -0.2285  0.1131
  714MOL0     O96313   3.371   5.329   4.741  0.7145  0.5907  0.1515
  714MOL0     C96314   3.311   5.422   4.646 -0.9850  0.2644  0.0128
  714MOL0     C96315   3.201   5.338   4.574  0.8592 -1.1015 -0.1379
  714MOL0     C96316   3.064   5.349   4.645  0.2679  0.6425 -0.5696
  714MOL0     C96317   2.995   5.482   4.686 -0.3087 -0.0307  0.9814
  714MOL0     C96318   2.972   5.578   4.575  0.5857 -0.5014 -0.1332
  714MOL0     C96319   2.954   5.672   4.495  0.0288  0.2509  0.1243
  714MOL0     C96320   3.546   5.224   4.846  0.6098  0.4934 -0.8900
  714MOL0     C96321   3.678   5.197   4.880 -0.1644  0.4649 -0.6280
  714MOL0     C96322   3.693   5.069   4.950  0.1171  0.1655 -0.3719
  714MOL0     H96323   4.226   5.477   4.830  2.3200  1.4857 -1.0228
  714MOL0     H96324   4.440   5.440   4.780  1.6175 -0.0145 -2.8456
  714MOL0     H96325   4.608   5.373   4.592  1.8607  2.7302  2.0417
  714MOL0     H96326   4.647   5.336   4.766 -1.5984  0.9147  0.7742
  714MOL0     H96327   4.761   5.210   4.513  1.3462 -0.2654 -0.2655
  714MOL0     H96328   4.793   5.154   4.680  0.2438  0.7474  0.5728
  714MOL0     H96329   4.866   5.409   4.706 -2.4654 -0.1587  0.1699
  714MOL0     H96330   4.868   5.410   4.532 -0.0839  1.1727  1.2741
  714MOL0     H96331   5.035   5.225   4.708 -2.1140  2.2540  1.1724
  714MOL0     H96332   5.032   5.207   4.534 -0.2513  0.5207 -0.1275
  714MOL0     H96333   5.136   5.430   4.490  1.2963 -0.0423  0.3707
  714MOL0     H96334   5.111   5.474   4.659  2.9686 -1.2380  1.2731
  714MOL0     H96335   5.276   5.265   4.715  1.9276 -0.2410 -0.3124
  714MOL0     H96336   5.297   5.254   4.550  0.5192 -0.6229  1.4221
  714MOL0     H96337   5.379   5.485   4.519  1.7468 -1.1543 -0.9665
  714MOL0     H96338   5.497   5.387   4.608  0.6268  0.0614  0.4463
  714MOL0     H96339   5.326   5.594   4.738 -0.1485 -0.3322  1.6498
  714MOL0     H96340   5.417   5.472   4.822 -0.2320  1.6758  0.8449
  714MOL0     H96341   5.456   5.791   4.627 -1.2890  0.2043  0.2284
  714MOL0     H96342   5.715   5.923   4.582 -1.2312 -3.7218 -1.1105
  714MOL0     H96343   5.663   5.977   4.738  0.0756 -1.5581  0.4722
  714MOL0     H96344   5.889   5.909   4.842 -1.2158  1.7111 -0.0619
  714MOL0     H96345   5.929   5.836   4.682 -0.4538  1.3738  0.2282
  714MOL0     H96346   5.849   6.129   4.680 -0.5859  0.4239 -2.1026
  714MOL0     H96347   5.935   6.040   4.560 -2.5909 -1.5614 -0.6534
  714MOL0     H96348   6.044   6.121   4.834  0.8351  2.0714  0.0560
  714MOL0     H96349   6.096   6.184   4.678  2.0953  0.0772  0.2504
  714MOL0     H96350   6.363   6.152   4.772 -0.0805  0.5653  0.2865
  714MOL0     H96351   6.544   6.096   4.932  1.5134 -2.0355 -0.6563
  714MOL0     H96352   6.772   5.594   4.989  0.1373 -1.5712  0.1575
  714MOL0     H96353   6.995   5.525   5.093  1.0787  0.6520  0.8602
  714MOL0     H96354   7.109   5.406   5.284 -2.1643  1.4101 -3.5067
  714MOL0     H96355   7.191   5.528   5.188 -1.0737 -0.1399 -0.9191
  714MOL0     H96356   7.265   5.462   5.486  2.6226  1.3098  1.3248
  714MOL0     H96357   7.339   5.409   5.328 -0.0285  0.3070 -0.6706
  714MOL0     H96358   7.374   5.657   5.284  1.9458 -0.0096 -0.1037
  714MOL0     H96359   7.304   5.687   5.444 -2.0470 -1.9429 -0.1170
  714MOL0     H96360   7.569   5.537   5.375 -1.0347  1.1538 -0.9759
  714MOL0     H96361   7.491   5.534   5.540  0.1079  0.2703  0.6593
  714MOL0     H96362   7.659   5.691   5.549 -0.0771 -0.2017  0.6526
  714MOL0     H96363   7.509   5.789   5.542  0.8276 -2.4348  3.6008
  714MOL0     H96364   7.659   5.711   5.294 -1.8896  0.0822 -0.1015
  714MOL0     H96365   7.532   5.830   5.305 -2.2476 -0.5752  2.5557
  714MOL0     H96366   7.740   5.934   5.281 -0.8892 -0.7489 -0.3649
  714MOL0     H96367   7.813   5.861   5.428 -0.5526 -0.4931 -0.4637
  714MOL0     H96368   7.647   5.966   5.566 -2.5264 -1.5598 -1.7328
  714MOL0     H96369   7.754   6.083   5.479  1.3022 -1.7020  1.8798
  714MOL0     H96370   6.839   5.698   5.464 -2.2278 -0.1477  0.6275
  714MOL0     H96371   6.641   5.737   5.366  1.1890 -1.5685  2.7357
  714MOL0     H96372   6.370   5.705   4.977  1.5168  0.6272  1.1818
  714MOL0     H96373   6.176   5.771   4.844 -0.5236  2.1934  0.3618
  714MOL0     H96374   4.337   5.040   4.638 -0.7135  0.2219 -1.5691
  714MOL0     H96375   4.114   5.083   4.679  1.0259 -1.3613  0.6202
  714MOL0     H96376   3.816   5.452   4.703 -1.4480  1.7116 -1.1515
  714MOL0     H96377   3.577   5.489   4.646 -2.5856 -0.4197  0.6612
  714MOL0     H96378   3.377   5.441   4.561  1.1697 -0.9656  1.2944
  714MOL0     H96379   3.271   5.511   4.695 -1.5021  1.2053 -2.0297
  714MOL0     H96380   3.222   5.234   4.551 -1.3542 -1.7600  0.5433
  714MOL0     H96381   3.187   5.383   4.476 -0.6595  1.9321  1.3234
  714MOL0     H96382   3.090   5.299   4.739  0.3463  3.8662  1.2531
  714MOL0     H96383   2.985   5.291   4.596  1.2870 -1.8681  0.5766
  714MOL0     H96384   2.896   5.458   4.727  0.3779 -1.4596  1.8473
  714MOL0     H96385   3.050   5.523   4.771 -0.1599  1.0908  0.3644
  714MOL0     H96386   2.941   5.755   4.429  0.5483 -0.2399 -0.6177
  714MOL0     H96387   3.469   5.160   4.888  2.1682 -0.6194  0.4195
  714MOL0     H96388   3.728   4.978   4.899  0.4448  1.2759 -2.1931
  714MOL0     H96389   3.754   5.078   5.041  2.8358  0.7129 -2.1519
  714MOL0     H96390   3.596   5.030   4.983 -0.1822 -1.1469 -2.6409
  715MOL0     O96391   8.965   9.782  10.407  0.0389 -0.5139  0.3230
  715MOL0     C96392   8.870   9.840  10.462 -0.1024  0.8636 -0.1622
  715MOL0     O96393   8.890   9.952  10.527 -0.4506 -0.1944  0.7732
  715MOL0     C96394   9.012  10.016  10.541  0.3421  0.5612  0.6960
  715MOL0     C96395   9.067  10.090  10.441 -0.0784  0.9343  0.6920
  715MOL0     C96396   9.175  10.169  10.472  0.4944 -0.0818  0.3219
  715MOL0     C96397   9.235  10.172  10.601  0.4841  0.5312  0.1827
  715MOL0     O96398   9.349  10.239  10.619  0.3151  0.2861  0.0759
  715MOL0     C96399   9.386  10.289  10.742 -0.0602 -0.3799  0.5695
  715MOL0     C96400   9.531  10.330  10.723  0.6104 -0.3588 -0.2132
  715MOL0     C96401   9.547  10.452  10.634  0.3583  0.5483 -0.7424
  715MOL0     C96402   9.694  10.503  10.618  0.1216 -0.1885  0.5029
  715MOL0     C96403   9.721  10.640  10.678  0.8920  0.3216 -0.2404
  715MOL0     C96404   9.869  10.674  10.655  0.9838 -0.1952 -0.2075
  715MOL0     C96405   9.897  10.804  10.742  0.5142 -0.4337  0.2134
  715MOL0     C96406  10.019  10.874  10.685  0.6440 -1.1147  0.4123
  715MOL0     N96407  10.136  10.792  10.676 -0.2710 -0.3334  0.3154
  715MOL0     C96408  10.170  10.706  10.576 -0.3811 -0.1587 -0.7319
  715MOL0     C96409  10.281  10.641  10.607 -1.1576 -0.2378 -0.5247
  715MOL0     C96410  10.325  10.510  10.534 -0.1921  0.0680 -1.1191
  715MOL0     C96411  10.259  10.391  10.607  0.0005  0.1328  0.4773
  715MOL0     C96412  10.307  10.359  10.745 -0.8247  0.3652  0.3944
  715MOL0     C96413  10.263  10.227  10.801 -0.1276  0.2308  1.1538
  715MOL0     O96414  10.117  10.223  10.796 -0.8326  0.7529  0.5057
  715MOL0     C96415  10.055  10.109  10.834 -0.5974  0.6129 -0.1753
  715MOL0     C96416  10.112   9.995  10.892 -0.1628 -0.2365 -0.5288
  715MOL0     C96417  10.025   9.897  10.950 -0.1542 -0.0374 -0.1496
  715MOL0     C96418   9.885   9.901  10.936 -0.6126  0.2441  0.1066
  715MOL0     C96419   9.798   9.796  10.990 -0.2118 -1.1144  0.4525
  715MOL0     O96420   9.672   9.825  11.015  0.1157 -0.1435  0.3121
  715MOL0     C96421   9.595   9.743  11.094  0.4139 -0.4564  0.0852
  715MOL0     C96422   9.637   9.659  11.198 -0.2738  0.4428 -1.0799
  715MOL0     C96423   9.545   9.591  11.276 -0.1402  0.4257  0.2000
  715MOL0     C96424   9.408   9.610  11.257  0.6804 -0.2092  0.4006
  715MOL0     O96425   9.328   9.520  11.325  0.0758  0.6898 -0.3240
  715MOL0     C96426   9.184   9.535  11.326 -0.5289 -0.6084 -0.0764
  715MOL0     C96427   9.105   9.449  11.223  0.6671 -1.2804 -1.7279
  715MOL0     C96428   8.951   9.440  11.247 -0.3338  0.2563  0.3095
  715MOL0     C96429   8.864   9.572  11.237  0.3033  0.4409 -0.4596
  715MOL0     C96430   8.719   9.529  11.212 -0.3870 -0.6135 -0.4861
  715MOL0     C96431   8.629   9.493  11.336 -0.7936 -0.2371  0.5090
  715MOL0     C96432   8.483   9.463  11.291  0.0445  0.0729  0.1012
  715MOL0     C96433   8.381   9.419  11.398 -0.3028  0.0961 -0.1517
  715MOL0    Cl96434   8.425   9.269  11.466 -0.3638  0.1617 -0.0993
  715MOL0     C96435   9.358   9.682  11.149  0.2824  0.3906  0.0670
  715MOL0     C96436   9.452   9.753  11.068  0.2450  0.1351  0.1805
  715MOL0     O96437   9.849   9.686  11.011 -0.5134 -1.1166  0.1238
  715MOL0     C96438   9.828  10.004  10.863 -0.1618 -0.3897 -0.3368
  715MOL0     C96439   9.915  10.110  10.829  0.1539 -0.8518 -0.1676
  715MOL0     N96440  10.330  10.708  10.720 -0.9936 -0.2039  0.2137
  715MOL0     N96441  10.247  10.799  10.758  0.4097 -0.2529 -0.4297
  715MOL0     C96442   9.177  10.093  10.701  0.0213 -0.0457 -0.1669
  715MOL0     C96443   9.068  10.012  10.668 -0.2029  0.1406 -0.2833
  715MOL0     C96444   8.728   9.788  10.448 -0.2301 -0.2721  0.4539
  715MOL0     C96445   8.624   9.860  10.505  0.1152 -0.3712  0.5824
  715MOL0     C96446   8.494   9.818  10.498  0.6738  1.0209  0.5655
  715MOL0     C96447   8.466   9.699  10.434 -0.5255 -0.4860 -0.5835
  715MOL0     O96448   8.337   9.657  10.426  0.1373  0.2227 -0.8269
  715MOL0     C96449   8.230   9.733  10.482 -0.3143  0.2121  0.7927
  715MOL0     C96450   8.091   9.661  10.486  0.0801  0.3836 -0.7030
  715MOL0     C96451   8.045   9.674  10.342 -0.5034  0.6533  0.4701
  715MOL0     C96452   7.900   9.644  10.318 -0.1733  1.0284 -0.1399
  715MOL0     C96453   7.829   9.731  10.225 -0.7087  0.3516  0.6176
  715MOL0     C96454   7.769   9.812  10.157  0.3318 -0.3306  0.5875
  715MOL0     C96455   8.567   9.621  10.384  0.1147 -0.5139  0.3006
  715MOL0     C96456   8.700   9.666  10.385  0.5875 -0.8043 -0.8777
  715MOL0     C96457   8.800   9.563  10.343 -0.7618  0.2545 -0.4575
  715MOL0     H96458   9.023  10.099  10.342  1.8726  1.0492 -0.2076
  715MOL0     H96459   9.222  10.217  10.386  1.2657 -1.9176 -0.3173
  715MOL0     H96460   9.335  10.378  10.779  1.8011  1.5273 -1.1888
  715MOL0     H96461   9.382  10.209  10.816  1.3119 -1.0503 -0.0422
  715MOL0     H96462   9.588  10.252  10.672  1.8757  1.6908 -2.0509
  715MOL0     H96463   9.578  10.353  10.819  0.0986 -0.0605 -0.0320
  715MOL0     H96464   9.478  10.532  10.665 -0.3193 -0.2979  0.0106
  715MOL0     H96465   9.521  10.435  10.529  1.7723 -1.6622 -0.7935
  715MOL0     H96466   9.754  10.420  10.655  0.3160 -1.9630 -3.3650
  715MOL0     H96467   9.720  10.502  10.511 -0.9031 -0.7304  0.2502
  715MOL0     H96468   9.661  10.714  10.624  0.5420  0.1584 -0.0735
  715MOL0     H96469   9.696  10.641  10.785  2.5389  0.2724  0.1708
  715MOL0     H96470   9.918  10.580  10.684 -1.5267 -1.9906 -1.3773
  715MOL0     H96471   9.889  10.688  10.548 -0.1988 -2.1252 -0.7450
  715MOL0     H96472   9.911  10.775  10.846 -2.5637 -2.2684  0.2162
  715MOL0     H96473   9.815  10.875  10.737 -1.0987 -2.2480 -0.4711
  715MOL0     H96474  10.000  10.918  10.587  2.2364  1.7199  1.2727
  715MOL0     H96475  10.045  10.949  10.761 -0.2575 -0.2191 -0.1478
  715MOL0     H96476  10.095  10.667  10.507 -1.0594  1.5461 -1.0000
  715MOL0     H96477  10.304  10.520  10.427  0.4028 -1.1470 -1.3673
  715MOL0     H96478  10.432  10.506  10.556 -0.6115  1.0269  1.5606
  715MOL0     H96479  10.151  10.408  10.613 -0.4706 -2.3915  0.1031
  715MOL0     H96480  10.271  10.299  10.549  3.7011 -0.3553  1.7375
  715MOL0     H96481  10.269  10.434  10.815 -0.4877  0.1758  0.7836
  715MOL0     H96482  10.416  10.352  10.744 -0.9545 -3.8251  0.0301
  715MOL0     H96483  10.292  10.221  10.906 -2.4536  1.3332  1.9180
  715MOL0     H96484  10.301  10.146  10.738  0.4316  0.2443  1.4687
  715MOL0     H96485  10.220   9.988  10.895 -0.2643 -5.2446  0.1311
  715MOL0     H96486  10.070   9.826  11.017 -1.0013  2.9461  3.9575
  715MOL0     H96487   9.742   9.664  11.226 -0.0298 -0.7624 -1.7009
  715MOL0     H96488   9.586   9.523  11.350  0.4113  2.1767  1.5783
  715MOL0     H96489   9.153   9.499  11.424 -2.6684  3.2224  0.8458
  715MOL0     H96490   9.149   9.638  11.316  0.8807  0.0515  1.3434
  715MOL0     H96491   9.110   9.485  11.120 -0.0225  0.1678 -1.2756
  715MOL0     H96492   9.163   9.356  11.230  2.7590  0.0682  2.5280
  715MOL0     H96493   8.916   9.382  11.161 -2.0195  0.9698  0.4729
  715MOL0     H96494   8.924   9.394  11.342 -0.0332 -1.9266 -0.6018
  715MOL0     H96495   8.888   9.619  11.141 -0.1635 -1.0023 -1.3226
  715MOL0     H96496   8.892   9.638  11.319  1.7587  1.8681 -2.0334
  715MOL0     H96497   8.712   9.437  11.155 -2.0237 -0.2243 -0.9810
  715MOL0     H96498   8.674   9.615  11.160 -1.1964 -0.3210  0.6362
  715MOL0     H96499   8.669   9.404  11.385 -1.1703 -0.1304  1.0218
  715MOL0     H96500   8.629   9.573  11.411  0.0125 -0.3440  0.6388
  715MOL0     H96501   8.487   9.377  11.223 -1.7208 -1.0690  1.3456
  715MOL0     H96502   8.445   9.551  11.238  2.6597  1.8030  0.9386
  715MOL0     H96503   8.360   9.491  11.478 -0.8530 -1.0992  0.8168
  715MOL0     H96504   8.285   9.403  11.348  1.5891 -4.8659 -2.8522
  715MOL0     H96505   9.254   9.680  11.116 -0.4217  1.3349  2.0642
  715MOL0     H96506   9.428   9.796  10.971  0.2972 -3.1727 -1.4398
  715MOL0     H96507   9.720  10.008  10.877  0.1005 -2.0274  3.2631
  715MOL0     H96508   9.884  10.205  10.787  2.7179  0.2326  0.1610
  715MOL0     H96509   9.217  10.086  10.802 -1.2196  4.9750  0.9778
  715MOL0     H96510   9.008   9.956  10.739  0.2360  0.3776  0.2857
  715MOL0     H96511   8.648   9.951  10.561 -0.8873 -0.0511  0.5169
  715MOL0     H96512   8.428   9.898  10.530 -0.6463  0.4526 -0.6156
  715MOL0     H96513   8.222   9.830  10.432 -3.2717 -1.1812 -1.8167
  715MOL0     H96514   8.248   9.765  10.585 -0.2616  3.9164 -0.2115
  715MOL0     H96515   8.022   9.719  10.548  0.3781  1.1782 -1.0883
  715MOL0     H96516   8.096   9.557  10.519  2.1231  1.7885  4.2948
  715MOL0     H96517   8.101   9.615  10.269 -3.1014  2.5782 -3.4453
  715MOL0     H96518   8.058   9.775  10.303 -4.4122  1.6011  1.1904
  715MOL0     H96519   7.894   9.540  10.287 -1.8442  1.1680 -0.3910
  715MOL0     H96520   7.845   9.641  10.413 -1.6804 -0.7621 -0.9975
  715MOL0     H96521   7.712   9.872  10.089  2.2954 -0.0541 -0.8986
  715MOL0     H96522   8.534   9.523  10.351  0.1555 -0.3982 -0.0947
  715MOL0     H96523   8.750   9.486  10.283  0.7737 -1.3668  0.2754
  715MOL0     H96524   8.878   9.607  10.280  1.6132  1.1657  2.8155
  715MOL0     H96525   8.853   9.512  10.424 -1.1979 -0.4373 -0.5981
  716MOL0     O96526   4.228   6.426   1.344 -0.5956  0.6286  0.6323
  716MOL0     C96527   4.284   6.529   1.376  0.4271  0.0159  0.8769
  716MOL0     O96528   4.411   6.539   1.416 -0.4673 -0.7801  0.8890
  716MOL0     C96529   4.510   6.444   1.405 -0.5189 -0.4223 -0.3309
  716MOL0     C96530   4.508   6.340   1.310  0.8515 -0.4322 -0.6776
  716MOL0     C96531   4.622   6.264   1.303 -0.8662 -0.3940 -0.3625
  716MOL0     C96532   4.739   6.282   1.382  0.2595 -1.0374  0.2415
  716MOL0     O96533   4.845   6.203   1.378 -0.6783  0.6620 -0.0216
  716MOL0     C96534   4.870   6.135   1.251  0.0330  0.6824 -0.1237
  716MOL0     C96535   4.995   6.040   1.261 -0.4088 -0.7414  0.1755
  716MOL0     C96536   5.024   5.953   1.126 -0.0314  0.6214 -0.8270
  716MOL0     C96537   5.135   5.853   1.162  0.1082  0.0113  0.3800
  716MOL0     C96538   5.175   5.779   1.035  0.0355  0.4803 -0.2041
  716MOL0     C96539   5.272   5.666   1.077 -0.7861 -0.9518  0.7518
  716MOL0     C96540   5.294   5.574   0.956  0.0116 -0.3145 -0.9961
  716MOL0     C96541   5.357   5.649   0.834  0.1337  1.0424  0.4868
  716MOL0     N96542   5.481   5.716   0.868 -0.9859 -0.1444 -0.0185
  716MOL0     C96543   5.596   5.658   0.920  0.0997  0.7608 -0.5707
  716MOL0     C96544   5.676   5.763   0.942  0.6011 -0.0324  0.4191
  716MOL0     C96545   5.822   5.769   0.981  0.0213 -0.4078  0.3260
  716MOL0     C96546   5.874   5.652   1.072  0.5181 -0.1224  0.2439
  716MOL0     C96547   5.946   5.550   0.993 -0.0494  0.7631  0.4302
  716MOL0     C96548   6.097   5.586   0.969  0.5648 -0.6723  0.1319
  716MOL0     O96549   6.151   5.491   0.879  0.7870 -0.0108 -1.0204
  716MOL0     C96550   6.235   5.396   0.944 -0.0649  0.5394 -0.2322
  716MOL0     C96551   6.317   5.322   0.864 -0.9702  0.6926 -0.7035
  716MOL0     C96552   6.395   5.219   0.920  0.0735  0.2540  0.9580
  716MOL0     C96553   6.390   5.192   1.062  0.3252 -0.4223 -0.7859
  716MOL0     C96554   6.472   5.086   1.113 -0.4674 -0.2714  0.8193
  716MOL0     O96555   6.550   5.020   1.027  0.3013 -1.1448 -0.6324
  716MOL0     C96556   6.648   4.941   1.091  0.1832 -0.2221 -0.8158
  716MOL0     C96557   6.622   4.803   1.098  0.4048 -0.5309  0.8265
  716MOL0     C96558   6.724   4.722   1.149 -0.1119  1.2147 -0.1662
  716MOL0     C96559   6.839   4.769   1.211 -0.3961 -0.5133 -0.5017
  716MOL0     O96560   6.917   4.675   1.273  0.4775 -0.6734 -0.3158
  716MOL0     C96561   7.037   4.728   1.321 -0.8892 -0.3125  0.1944
  716MOL0     C96562   7.119   4.625   1.397  0.2970 -0.1382  0.6833
  716MOL0     C96563   7.262   4.617   1.342  0.1621  0.5362  0.3915
  716MOL0     C96564   7.350   4.515   1.421  0.3245  0.5286  0.1272
  716MOL0     C96565   7.422   4.577   1.547 -0.0614 -1.4458 -0.0094
  716MOL0     C96566   7.505   4.469   1.609  0.9977  0.4794  0.2841
  716MOL0     C96567   7.584   4.526   1.725  0.3715 -0.5806  0.3301
  716MOL0     C96568   7.652   4.410   1.797  1.3327 -0.4612  0.7551
  716MOL0    Cl96569   7.796   4.342   1.719 -0.0663 -0.0418 -0.4308
  716MOL0     C96570   6.859   4.913   1.201 -0.8280  0.1981  0.6568
  716MOL0     C96571   6.766   5.000   1.139 -0.5586  0.4136  0.0155
  716MOL0     O96572   6.474   5.070   1.233 -0.3517 -0.1370 -0.0068
  716MOL0     C96573   6.308   5.270   1.146  0.5992 -0.1691  0.0806
  716MOL0     C96574   6.229   5.362   1.085 -0.3676 -0.6285  0.2470
  716MOL0     N96575   5.610   5.883   0.926  0.0045 -0.4230  0.4679
  716MOL0     N96576   5.490   5.852   0.883 -0.1719  0.7867 -0.1974
  716MOL0     C96577   4.740   6.396   1.464 -0.5440  0.1209 -0.5968
  716MOL0     C96578   4.627   6.480   1.461 -0.5387  0.2036 -0.1768
  716MOL0     C96579   4.209   6.659   1.353  1.1024  0.3134  0.0595
  716MOL0     C96580   4.070   6.649   1.364  0.1114  0.2220 -0.0614
  716MOL0     C96581   3.991   6.765   1.361  0.9988 -0.2642 -0.1267
  716MOL0     C96582   4.044   6.891   1.337 -0.3808 -0.3610  0.1908
  716MOL0     O96583   3.973   7.002   1.303  0.2683  0.3283  0.0244
  716MOL0     C96584   3.850   7.005   1.372  0.2896  0.1521 -0.5343
  716MOL0     C96585   3.791   7.149   1.360  0.1298 -1.2676 -0.3934
  716MOL0     C96586   3.647   7.146   1.405 -0.8748  0.0199  0.3683
  716MOL0     C96587   3.557   7.255   1.353  0.0189  0.4642  0.4887
  716MOL0     C96588   3.414   7.217   1.371  0.4265  0.7894 -0.5034
  716MOL0     C96589   3.297   7.174   1.377  0.3130  0.7808 -0.0085
  716MOL0     C96590   4.180   6.895   1.338  0.0088 -0.5514  0.3732
  716MOL0     C96591   4.269   6.785   1.344 -0.5384  0.0368  0.8166
  716MOL0     C96592   4.417   6.816   1.327  0.0438  1.1945  0.0533
  716MOL0     H96593   4.422   6.309   1.251  0.9036  0.6339 -1.3443
  716MOL0     H96594   4.615   6.184   1.229 -0.0554 -0.9811  0.1831
  716MOL0     H96595   4.795   6.059   1.230  2.0642 -1.9840  1.5661
  716MOL0     H96596   4.872   6.214   1.175  1.4904 -0.2788 -1.1526
  716MOL0     H96597   4.983   5.965   1.339 -0.8700 -1.8543 -0.9310
  716MOL0     H96598   5.085   6.099   1.280  1.9324 -3.0516 -2.6998
  716MOL0     H96599   5.054   6.025   1.050 -2.7731  2.3945 -0.3675
  716MOL0     H96600   4.936   5.904   1.084  0.8168 -0.8235 -0.9978
  716MOL0     H96601   5.220   5.912   1.199 -0.6477  0.7541  1.0034
  716MOL0     H96602   5.110   5.787   1.245  1.8603 -1.1494  0.0341
  716MOL0     H96603   5.086   5.745   0.982  1.1073 -1.4739 -0.8451
  716MOL0     H96604   5.226   5.847   0.966  0.7100  0.7758  0.5731
  716MOL0     H96605   5.370   5.709   1.101  1.8646 -4.7623 -1.9635
  716MOL0     H96606   5.240   5.608   1.164 -1.3540  0.7259  1.7037
  716MOL0     H96607   5.205   5.517   0.926  0.0825 -0.8107 -0.2937
  716MOL0     H96608   5.363   5.501   1.000  0.2098  0.3587 -0.1827
  716MOL0     H96609   5.367   5.583   0.748 -1.6280  1.0875  0.2219
  716MOL0     H96610   5.285   5.722   0.797 -2.4397 -1.9582 -0.9310
  716MOL0     H96611   5.627   5.555   0.903 -1.6537  0.3563 -1.5790
  716MOL0     H96612   5.888   5.779   0.895  2.6938 -0.6571  2.2085
  716MOL0     H96613   5.831   5.861   1.039 -0.2708 -1.3504  1.9261
  716MOL0     H96614   5.947   5.677   1.150 -1.4242 -2.2088  2.9260
  716MOL0     H96615   5.780   5.612   1.112  0.4052 -1.3268 -1.1480
  716MOL0     H96616   5.896   5.546   0.896  0.9893  1.3212 -0.1418
  716MOL0     H96617   5.937   5.456   1.048 -4.4323 -0.0717 -1.2359
  716MOL0     H96618   6.162   5.623   1.049  2.0205  2.9113 -2.4117
  716MOL0     H96619   6.077   5.668   0.899 -4.7885 -1.0329  0.7982
  716MOL0     H96620   6.315   5.355   0.761 -2.6406 -1.1359 -1.3266
  716MOL0     H96621   6.464   5.171   0.851  0.6173  1.3081  0.7570
  716MOL0     H96622   6.532   4.765   1.051 -0.0393 -1.2520  2.2033
  716MOL0     H96623   6.721   4.614   1.159 -1.1317  1.2381 -0.1298
  716MOL0     H96624   7.094   4.778   1.242 -1.0144  1.4905  1.2025
  716MOL0     H96625   7.023   4.813   1.387  1.6461  1.0313 -0.8441
  716MOL0     H96626   7.119   4.647   1.504 -0.7041 -0.2507  0.7230
  716MOL0     H96627   7.067   4.530   1.380 -0.3706  0.5275 -1.2125
  716MOL0     H96628   7.249   4.591   1.237 -0.6952  2.8911 -0.1419
  716MOL0     H96629   7.312   4.714   1.339 -2.1229  1.7469 -1.5694
  716MOL0     H96630   7.418   4.471   1.347 -3.4990 -2.1376 -2.1901
  716MOL0     H96631   7.295   4.428   1.457 -2.3004  2.1330  0.2868
  716MOL0     H96632   7.355   4.626   1.618  0.8455 -0.5831  0.2587
  716MOL0     H96633   7.496   4.650   1.512 -0.7146 -1.1314 -0.7752
  716MOL0     H96634   7.439   4.387   1.639  1.6398 -0.9306 -1.8892
  716MOL0     H96635   7.568   4.426   1.530 -1.1403 -0.6237 -0.9111
  716MOL0     H96636   7.515   4.580   1.791  2.6030  1.7340  0.9433
  716MOL0     H96637   7.658   4.596   1.684 -0.7460 -0.8386 -2.3453
  716MOL0     H96638   7.685   4.461   1.888  1.9188  0.1453  0.2105
  716MOL0     H96639   7.581   4.329   1.816  0.6808 -0.0354  0.2072
  716MOL0     H96640   6.947   4.959   1.244 -1.0845  1.2639  0.0590
  716MOL0     H96641   6.771   5.107   1.127  1.7104  0.1795 -1.5831
  716MOL0     H96642   6.297   5.243   1.251 -2.7251  0.3283 -0.0172
  716MOL0     H96643   6.155   5.417   1.143 -1.3799  0.2577 -1.7591
  716MOL0     H96644   4.823   6.421   1.529  0.5602 -3.7887 -0.2875
  716MOL0     H96645   4.642   6.572   1.516  1.3634  0.0538 -0.3679
  716MOL0     H96646   4.018   6.554   1.374 -1.4346  0.9921 -0.3473
  716MOL0     H96647   3.883   6.757   1.363  0.7802  2.1214  0.7526
  716MOL0     H96648   3.864   6.981   1.478 -0.6949  2.8248  0.2990
  716MOL0     H96649   3.775   6.938   1.330 -2.3796  1.0513  2.4108
  716MOL0     H96650   3.798   7.173   1.254  0.4751 -3.9962 -1.0658
  716MOL0     H96651   3.850   7.225   1.411  0.3098 -1.7152  0.0809
  716MOL0     H96652   3.643   7.134   1.514 -0.5564 -0.0509  0.3742
  716MOL0     H96653   3.591   7.059   1.369 -1.7909  0.5782  0.4079
  716MOL0     H96654   3.584   7.351   1.397 -0.3028  0.5499  0.5064
  716MOL0     H96655   3.560   7.274   1.246 -3.1024 -0.4563  0.1181
  716MOL0     H96656   3.200   7.130   1.366  1.4660 -2.0433  0.2162
  716MOL0     H96657   4.231   6.991   1.331 -2.7369  0.9039 -1.4894
  716MOL0     H96658   4.463   6.824   1.426 -2.0114 -0.0195  1.1676
  716MOL0     H96659   4.465   6.729   1.281 -0.2242 -1.2718  3.9653
  716MOL0     H96660   4.429   6.910   1.273 -3.3238  1.6062 -0.1682
  717MOL0     O96661   0.053   7.378   5.024 -0.0115  0.2856 -0.6431
  717MOL0     C96662   0.098   7.341   4.918 -0.5535  0.4670  0.7449
  717MOL0     O96663   0.023   7.314   4.805 -0.1865 -0.0528  0.1274
  717MOL0     C96664  -0.111   7.343   4.807  0.2654 -0.4955  0.3680
  717MOL0     C96665  -0.203   7.278   4.888 -0.7466  0.1024  0.0139
  717MOL0     C96666  -0.340   7.290   4.873  0.0560 -0.4423 -0.7489
  717MOL0     C96667  -0.392   7.387   4.786  0.3373  0.4439 -0.0303
  717MOL0     O96668  -0.521   7.414   4.762  0.3424  0.4141  0.2052
  717MOL0     C96669  -0.616   7.326   4.807  0.4767 -0.3500  0.0652
  717MOL0     C96670  -0.767   7.364   4.772  0.2495  0.5853  0.2160
  717MOL0     C96671  -0.804   7.360   4.620  0.2770 -0.2303  0.5097
  717MOL0     C96672  -0.959   7.356   4.593 -0.0367 -0.7507 -0.7283
  717MOL0     C96673  -0.992   7.347   4.444 -0.1148  1.1364 -0.7024
  717MOL0     C96674  -1.139   7.342   4.412 -0.2171  0.2231  0.5683
  717MOL0     C96675  -1.192   7.192   4.415 -0.5851 -0.3889  0.5786
  717MOL0     C96676  -1.248   7.144   4.549 -0.9150 -0.3133  0.6314
  717MOL0     N96677  -1.336   7.233   4.622  0.6146 -0.5211  0.0032
  717MOL0     C96678  -1.311   7.273   4.751  0.1384  0.2262  0.0483
  717MOL0     C96679  -1.419   7.342   4.787  0.1672  0.3751 -0.8516
  717MOL0     C96680  -1.421   7.417   4.916  0.0652  0.2182  0.3517
  717MOL0     C96681  -1.294   7.508   4.942 -0.4863 -0.7263  0.2042
  717MOL0     C96682  -1.309   7.578   5.073  0.0417 -0.2333  0.2616
  717MOL0     C96683  -1.183   7.632   5.145 -0.0703 -0.1264 -0.2410
  717MOL0     O96684  -1.106   7.517   5.143 -0.4971  0.1898  0.3662
  717MOL0     C96685  -0.966   7.531   5.170 -0.2455  0.5798  0.5621
  717MOL0     C96686  -0.908   7.648   5.223 -0.1453  0.1769 -0.3880
  717MOL0     C96687  -0.770   7.653   5.248  0.2061 -0.0005  0.7116
  717MOL0     C96688  -0.691   7.537   5.219 -0.1876  0.5555  0.3435
  717MOL0     C96689  -0.552   7.529   5.258  0.0470  0.4221  0.2254
  717MOL0     O96690  -0.485   7.408   5.265 -0.1238  0.4158  0.2197
  717MOL0     C96691  -0.359   7.412   5.314 -0.0420  0.1535  0.7608
  717MOL0     C96692  -0.329   7.364   5.444  0.1868  0.2522  0.8287
  717MOL0     C96693  -0.196   7.361   5.494  0.2216 -0.0560 -0.3294
  717MOL0     C96694  -0.092   7.413   5.414  0.2856 -0.1255 -0.7066
  717MOL0     O96695   0.042   7.427   5.442  1.1297 -0.6056 -0.1449
  717MOL0     C96696   0.090   7.377   5.573 -1.0301 -0.2250  0.1783
  717MOL0     C96697   0.239   7.365   5.577  0.0961 -0.3958 -0.8009
  717MOL0     C96698   0.299   7.502   5.552  0.8256 -0.3825  0.3727
  717MOL0     C96699   0.450   7.507   5.582  1.1878  0.1307 -0.0993
  717MOL0     C96700   0.545   7.424   5.494 -0.0953  0.4267 -0.2684
  717MOL0     C96701   0.689   7.442   5.547  0.5616 -0.0406  0.4153
  717MOL0     C96702   0.799   7.402   5.449 -0.2100  0.2770 -0.3195
  717MOL0     C96703   0.796   7.468   5.311 -0.1268 -0.1730 -0.8212
  717MOL0    Cl96704   0.943   7.427   5.225  0.0598  0.0024  0.0002
  717MOL0     C96705  -0.122   7.463   5.289  0.3897 -0.1220 -0.5002
  717MOL0     C96706  -0.252   7.473   5.242 -0.3597  0.5564  0.1096
  717MOL0     O96707  -0.508   7.637   5.290 -0.0588  0.2065 -0.8472
  717MOL0     C96708  -0.754   7.427   5.152 -0.1925  0.9482  0.2760
  717MOL0     C96709  -0.889   7.420   5.124 -1.0183  0.1696  0.1319
  717MOL0     N96710  -1.506   7.355   4.687 -0.1750 -0.4313  0.4810
  717MOL0     N96711  -1.462   7.281   4.586  0.2060  0.5749 -1.2687
  717MOL0     C96712  -0.302   7.467   4.701  0.2749  0.6298  0.8573
  717MOL0     C96713  -0.158   7.437   4.714 -0.7647  0.1292  0.1308
  717MOL0     C96714   0.238   7.328   4.896  0.1713  0.6435  0.2819
  717MOL0     C96715   0.291   7.342   4.761  0.3425  0.3522 -0.0772
  717MOL0     C96716   0.423   7.334   4.740 -0.2428  0.0185 -0.2056
  717MOL0     C96717   0.514   7.338   4.847 -0.7165 -0.1891  0.1581
  717MOL0     O96718   0.651   7.357   4.829 -0.2230  0.1368 -0.4610
  717MOL0     C96719   0.695   7.373   4.689  0.0347 -0.3841  0.4814
  717MOL0     C96720   0.833   7.431   4.681  0.5562  0.7543  0.4240
  717MOL0     C96721   0.893   7.420   4.539  0.6980 -0.6851  0.6936
  717MOL0     C96722   0.850   7.534   4.441 -0.3430  0.3089  0.1872
  717MOL0     C96723   0.922   7.659   4.471  0.9788 -0.0016 -0.5137
  717MOL0     C96724   0.964   7.776   4.490 -0.4205 -0.0273 -0.2083
  717MOL0     C96725   0.473   7.309   4.970 -0.4624 -0.5263  0.6200
  717MOL0     C96726   0.333   7.303   5.000  0.0336  0.3512  0.5462
  717MOL0     C96727   0.299   7.262   5.147  0.4419  0.2527 -0.9360
  717MOL0     H96728  -0.157   7.199   4.947  1.5965  0.6004 -1.0224
  717MOL0     H96729  -0.396   7.228   4.942 -0.1292  2.0819  1.5750
  717MOL0     H96730  -0.586   7.228   4.769 -0.8028 -0.6518 -0.2331
  717MOL0     H96731  -0.605   7.325   4.916  2.2074  2.2570 -0.0057
  717MOL0     H96732  -0.798   7.455   4.823 -0.4429  0.3409  0.2401
  717MOL0     H96733  -0.826   7.283   4.816 -0.3317  2.1064  2.4110
  717MOL0     H96734  -0.758   7.274   4.572  1.2685  1.3081 -1.4325
  717MOL0     H96735  -0.768   7.451   4.571  2.3190 -1.0430  0.3863
  717MOL0     H96736  -1.017   7.279   4.646 -0.1894 -2.9367 -3.7898
  717MOL0     H96737  -1.000   7.453   4.623 -0.1136 -0.1898 -2.5055
  717MOL0     H96738  -0.940   7.420   4.381  0.0557 -1.5743 -4.0008
  717MOL0     H96739  -0.946   7.256   4.404 -0.9010  1.4793 -2.5253
  717MOL0     H96740  -1.191   7.410   4.479 -2.9749  1.9173 -2.9297
  717MOL0     H96741  -1.156   7.389   4.314  0.6217  0.5610  0.5707
  717MOL0     H96742  -1.115   7.119   4.388  0.6894  0.0867  2.7383
  717MOL0     H96743  -1.266   7.183   4.335 -0.1307  4.9991 -0.8302
  717MOL0     H96744  -1.304   7.051   4.530  1.3808 -1.9411  1.3393
  717MOL0     H96745  -1.165   7.114   4.613  2.3922 -0.6280 -3.4170
  717MOL0     H96746  -1.215   7.269   4.802 -0.7787  1.2788  1.9627
  717MOL0     H96747  -1.502   7.488   4.896  0.4245  1.1982  2.1843
  717MOL0     H96748  -1.452   7.358   5.002  0.7353  2.1963  2.0318
  717MOL0     H96749  -1.204   7.444   4.943  0.8644  1.0879  2.1329
  717MOL0     H96750  -1.292   7.583   4.862 -2.7993 -0.0273  0.7508
  717MOL0     H96751  -1.367   7.508   5.135  1.9764 -1.8803  0.3074
  717MOL0     H96752  -1.377   7.664   5.067  0.0206 -0.3239 -1.0364
  717MOL0     H96753  -1.205   7.668   5.246  1.0808  2.1867 -0.7516
  717MOL0     H96754  -1.134   7.713   5.091 -0.4168 -0.5576 -1.2186
  717MOL0     H96755  -0.983   7.725   5.239 -2.8792 -2.1587 -1.1057
  717MOL0     H96756  -0.744   7.745   5.299 -1.3142  1.0600 -0.3497
  717MOL0     H96757  -0.404   7.316   5.505  1.5716 -0.1655  2.2769
  717MOL0     H96758  -0.182   7.308   5.588 -0.9998  2.0074  1.1042
  717MOL0     H96759   0.059   7.441   5.655 -0.1067 -1.2396  1.3582
  717MOL0     H96760   0.043   7.282   5.602 -2.6441  1.0444  1.9338
  717MOL0     H96761   0.271   7.333   5.676 -0.6662  3.3922  0.8279
  717MOL0     H96762   0.268   7.302   5.492  0.5455  0.2355 -1.1232
  717MOL0     H96763   0.281   7.524   5.446  1.4925 -0.8922  0.1430
  717MOL0     H96764   0.245   7.573   5.615  1.3393 -0.6014  1.0775
  717MOL0     H96765   0.460   7.477   5.687 -1.8755  0.7173  0.4320
  717MOL0     H96766   0.482   7.610   5.566 -0.5898  1.0692  1.9687
  717MOL0     H96767   0.536   7.448   5.388  0.5414 -3.1321 -1.2707
  717MOL0     H96768   0.526   7.318   5.512  0.2666  0.4692  0.4025
  717MOL0     H96769   0.696   7.550   5.561 -2.5511  0.8778 -3.1969
  717MOL0     H96770   0.703   7.391   5.642  1.5864  1.5131  1.1358
  717MOL0     H96771   0.798   7.292   5.445  2.6162  0.0129  2.7531
  717MOL0     H96772   0.890   7.432   5.501 -1.0494  0.4804  1.0941
  717MOL0     H96773   0.710   7.440   5.249  0.4650 -1.8158 -0.9547
  717MOL0     H96774   0.796   7.577   5.320  4.0472  0.0273 -1.0295
  717MOL0     H96775  -0.041   7.496   5.225  1.7869 -3.5220 -0.7155
  717MOL0     H96776  -0.262   7.507   5.140  1.5830 -2.9355 -1.4297
  717MOL0     H96777  -0.703   7.338   5.117 -1.2111  0.5856 -0.3244
  717MOL0     H96778  -0.931   7.332   5.076 -3.6234  1.4598 -0.1544
  717MOL0     H96779  -0.341   7.523   4.616  0.5987 -0.0050  0.2805
  717MOL0     H96780  -0.080   7.468   4.645  0.6521  1.9620  2.3709
  717MOL0     H96781   0.226   7.346   4.674  2.3271  1.0994 -1.6062
  717MOL0     H96782   0.454   7.357   4.638  0.2054  1.1174  0.1550
  717MOL0     H96783   0.633   7.440   4.629  0.5246 -2.2634 -2.2909
  717MOL0     H96784   0.691   7.275   4.641 -2.6715 -0.6347  1.0776
  717MOL0     H96785   0.898   7.387   4.758  1.4908  0.8628 -0.2824
  717MOL0     H96786   0.825   7.538   4.704 -0.1018  1.0286 -1.0239
  717MOL0     H96787   0.849   7.333   4.488 -0.2684  0.6235 -0.7725
  717MOL0     H96788   1.002   7.415   4.536  0.7162 -0.5704 -2.5373
  717MOL0     H96789   0.876   7.519   4.336  0.5796  1.6217  0.2026
  717MOL0     H96790   0.742   7.542   4.452 -0.2290  0.7922  1.0445
  717MOL0     H96791   0.992   7.880   4.492  3.7391 -0.4356 -6.3507
  717MOL0     H96792   0.547   7.290   5.047 -0.2092  0.6534  0.6886
  717MOL0     H96793   0.256   7.342   5.209  0.5872 -1.1498  1.0549
  717MOL0     H96794   0.228   7.180   5.134  1.0405 -0.3579 -0.4163
  717MOL0     H96795   0.388   7.230   5.201 -1.0831  1.8452  2.8522
  718MOL0     O96796   2.510   7.153   4.020 -0.3594 -0.1114  0.3109
  718MOL0     C96797   2.478   7.271   4.022  0.4853 -0.4652 -0.0249
  718MOL0     O96798   2.561   7.373   3.997 -0.4877 -0.2390  0.2235
  718MOL0     C96799   2.695   7.362   3.960  0.9966  0.4469  0.6052
  718MOL0     C96800   2.798   7.297   4.030 -0.0161 -0.6071  0.5547
  718MOL0     C96801   2.927   7.272   3.986 -0.2321  0.2258  0.1997
  718MOL0     C96802   2.960   7.301   3.854 -0.0091  1.0855 -0.2104
  718MOL0     O96803   3.078   7.273   3.788 -0.2919  0.2873 -0.1868
  718MOL0     C96804   3.157   7.163   3.853  0.2795 -0.2022  0.0448
  718MOL0     C96805   3.270   7.104   3.756 -0.4773 -0.5846 -0.0806
  718MOL0     C96806   3.377   7.205   3.712 -0.5563 -0.7610 -0.7433
  718MOL0     C96807   3.446   7.154   3.579  0.4213 -0.1443  0.1957
  718MOL0     C96808   3.508   7.016   3.608 -0.8064  0.5807 -0.6870
  718MOL0     C96809   3.594   6.977   3.489  0.2592  0.4241  0.1257
  718MOL0     C96810   3.697   6.875   3.542 -0.2463 -0.2410 -0.1259
  718MOL0     C96811   3.763   6.793   3.419  0.1750  0.5246 -1.0643
  718MOL0     N96812   3.903   6.751   3.430 -0.5766 -0.2821 -0.3052
  718MOL0     C96813   3.967   6.734   3.543 -0.8129  0.0378  0.1345
  718MOL0     C96814   4.097   6.746   3.498  0.3901 -0.4692 -0.9013
  718MOL0     C96815   4.211   6.729   3.585  0.5864  0.1540  0.0002
  718MOL0     C96816   4.338   6.804   3.551 -0.6786  0.6170  0.1460
  718MOL0     C96817   4.444   6.802   3.669 -0.2163  0.1671  0.1484
  718MOL0     C96818   4.574   6.878   3.644 -0.5050  0.5424  0.0596
  718MOL0     O96819   4.678   6.778   3.609  0.6060 -0.6761  0.5262
  718MOL0     C96820   4.791   6.819   3.544 -0.4424  0.0029  0.2068
  718MOL0     C96821   4.849   6.942   3.549 -0.1105 -0.4092  0.5381
  718MOL0     C96822   4.972   6.965   3.496  0.6922  0.0047 -0.1506
  718MOL0     C96823   5.053   6.860   3.448 -0.1608 -0.6967  0.7666
  718MOL0     C96824   5.190   6.890   3.403 -0.3452 -0.0040  0.2077
  718MOL0     O96825   5.247   6.777   3.357 -0.5217  0.6492  0.5843
  718MOL0     C96826   5.382   6.780   3.340 -1.2111 -0.2699  0.0367
  718MOL0     C96827   5.422   6.694   3.245  0.6976 -0.1907  0.7909
  718MOL0     C96828   5.554   6.660   3.208  0.5318 -0.2405  0.0410
  718MOL0     C96829   5.655   6.723   3.277  0.4021  0.4346  0.3246
  718MOL0     O96830   5.785   6.680   3.232  0.0492 -0.4507 -0.5720
  718MOL0     C96831   5.884   6.705   3.336 -0.6963  0.1593 -0.1039
  718MOL0     C96832   6.021   6.641   3.297 -0.6568  0.1125 -0.7508
  718MOL0     C96833   6.142   6.701   3.376 -0.7502  0.0107 -0.4214
  718MOL0     C96834   6.275   6.626   3.338 -0.9434 -0.0917 -0.0908
  718MOL0     C96835   6.389   6.676   3.421 -0.3248 -0.8326 -0.7123
  718MOL0     C96836   6.518   6.660   3.342 -0.1354 -0.7014 -0.8092
  718MOL0     C96837   6.636   6.694   3.430  1.2807 -0.6133 -0.4718
  718MOL0     C96838   6.654   6.842   3.449  0.7367  0.0864  0.5525
  718MOL0    Cl96839   6.798   6.864   3.545 -0.2682 -0.1445  0.0632
  718MOL0     C96840   5.623   6.813   3.377  1.2077 -0.3671  0.7556
  718MOL0     C96841   5.486   6.849   3.409 -0.2952 -0.3410 -0.1605
  718MOL0     O96842   5.245   6.997   3.421  0.4308 -0.2712 -0.3591
  718MOL0     C96843   5.007   6.731   3.476  0.3362 -0.7932 -0.4335
  718MOL0     C96844   4.874   6.710   3.512  0.2322 -0.0862 -0.1272
  718MOL0     N96845   4.093   6.776   3.366  0.1391 -0.2392 -0.1849
  718MOL0     N96846   3.976   6.765   3.318 -0.9829  0.0838 -0.2790
  718MOL0     C96847   2.865   7.373   3.782 -0.4931 -0.2535 -0.4779
  718MOL0     C96848   2.740   7.406   3.832 -0.5698 -0.1600 -0.4937
  718MOL0     C96849   2.327   7.309   4.027  0.0210 -0.3052 -0.7778
  718MOL0     C96850   2.287   7.441   3.987 -0.3645 -0.0347 -0.5581
  718MOL0     C96851   2.155   7.472   3.975  1.0194 -0.9948  0.3949
  718MOL0     C96852   2.053   7.382   4.005 -0.9277  0.5653 -0.3289
  718MOL0     O96853   1.921   7.405   4.017 -0.0093  0.2414 -0.0232
  718MOL0     C96854   1.869   7.515   3.939  0.6530  0.1518 -0.1270
  718MOL0     C96855   1.715   7.507   3.948  0.5281 -0.6317  0.1965
  718MOL0     C96856   1.654   7.520   4.087  0.0177 -0.0221  0.2981
  718MOL0     C96857   1.690   7.641   4.159  0.2913 -0.1198 -0.0678
  718MOL0     C96858   1.640   7.775   4.105  0.0239 -0.0762  0.1014
  718MOL0     C96859   1.595   7.878   4.056  0.5357 -0.9576 -0.2380
  718MOL0     C96860   2.091   7.259   4.051  0.3042  0.5085 -0.6044
  718MOL0     C96861   2.224   7.213   4.056 -0.0957  0.3812 -0.7773
  718MOL0     C96862   2.246   7.074   4.102 -0.8994 -0.1270 -0.0308
  718MOL0     H96863   2.788   7.242   4.123  1.9855 -1.4832  0.3056
  718MOL0     H96864   3.000   7.228   4.053  0.0973 -0.0063 -0.3034
  718MOL0     H96865   3.221   7.195   3.936 -0.3099  0.0132  0.4174
  718MOL0     H96866   3.090   7.089   3.898  1.3641 -0.5365  1.1849
  718MOL0     H96867   3.225   7.060   3.666 -1.2574 -0.7311  0.3672
  718MOL0     H96868   3.315   7.030   3.822  1.7315  0.4896 -0.2938
  718MOL0     H96869   3.457   7.218   3.785 -0.2436  0.2996 -1.2609
  718MOL0     H96870   3.329   7.303   3.697 -0.8776 -1.1343 -2.2656
  718MOL0     H96871   3.380   7.141   3.493  2.1195  0.1454 -1.1893
  718MOL0     H96872   3.518   7.225   3.537  0.4356 -0.0514  0.3758
  718MOL0     H96873   3.571   7.016   3.699 -2.4760  0.3550  0.5138
  718MOL0     H96874   3.437   6.933   3.609  1.6178 -1.6468 -1.9365
  718MOL0     H96875   3.538   6.920   3.415  1.0314 -0.8347  0.4738
  718MOL0     H96876   3.649   7.056   3.436  1.5408 -0.6534 -0.2422
  718MOL0     H96877   3.645   6.795   3.594 -2.0458 -0.7311 -2.4914
  718MOL0     H96878   3.776   6.925   3.599 -0.3906  1.4414 -1.3169
  718MOL0     H96879   3.700   6.704   3.407 -0.4902 -0.1093  4.5430
  718MOL0     H96880   3.755   6.853   3.327  0.3939  0.8456 -0.8762
  718MOL0     H96881   3.923   6.711   3.639  2.1147 -1.8272  1.1776
  718MOL0     H96882   4.178   6.767   3.682  0.6888 -2.8635  1.3142
  718MOL0     H96883   4.226   6.622   3.597 -1.3606 -0.4781 -2.3535
  718MOL0     H96884   4.398   6.772   3.465  3.1463  1.5560  2.2334
  718MOL0     H96885   4.302   6.907   3.540  0.6720  0.9359 -1.8244
  718MOL0     H96886   4.464   6.704   3.715 -0.1092  0.6501  1.1693
  718MOL0     H96887   4.396   6.858   3.750 -1.4068  0.7276 -0.9222
  718MOL0     H96888   4.603   6.937   3.732 -0.5050  2.0040 -0.8906
  718MOL0     H96889   4.568   6.946   3.559  1.5494 -2.8285 -3.0733
  718MOL0     H96890   4.796   7.028   3.589 -0.4498 -0.6206  0.5397
  718MOL0     H96891   4.996   7.071   3.485 -0.1078 -0.0712 -3.8604
  718MOL0     H96892   5.340   6.639   3.200 -1.1043  2.1948  0.9742
  718MOL0     H96893   5.579   6.581   3.138 -1.3211 -0.9063  0.0783
  718MOL0     H96894   5.899   6.811   3.358 -2.1612  0.5583 -0.9184
  718MOL0     H96895   5.862   6.659   3.433  2.4410 -1.1059  0.1411
  718MOL0     H96896   6.003   6.536   3.321 -1.5815  0.8903  2.4674
  718MOL0     H96897   6.046   6.647   3.191 -3.1684 -1.3034 -1.5160
  718MOL0     H96898   6.157   6.809   3.363  1.3952  0.0020  1.4451
  718MOL0     H96899   6.129   6.679   3.482  1.3847 -0.1630 -0.1618
  718MOL0     H96900   6.289   6.645   3.232  0.0711 -4.5413 -0.9631
  718MOL0     H96901   6.263   6.519   3.358  0.3453  0.4372  5.1455
  718MOL0     H96902   6.397   6.625   3.517  0.0836 -1.9692 -1.3259
  718MOL0     H96903   6.376   6.784   3.431 -0.5759 -0.8208 -1.1309
  718MOL0     H96904   6.524   6.558   3.305  0.0527 -0.8141 -0.4735
  718MOL0     H96905   6.519   6.712   3.246 -0.9024  0.1430 -0.3811
  718MOL0     H96906   6.728   6.655   3.386  0.9673 -0.9136 -0.8690
  718MOL0     H96907   6.628   6.638   3.524 -0.7388 -0.0913 -0.2912
  718MOL0     H96908   6.664   6.882   3.348  0.5542 -3.3509 -0.9554
  718MOL0     H96909   6.577   6.888   3.511 -2.0548  0.1539 -2.6786
  718MOL0     H96910   5.697   6.874   3.428  0.6689  0.4694  0.5388
  718MOL0     H96911   5.474   6.921   3.489 -0.7320  0.5333 -0.9960
  718MOL0     H96912   5.076   6.648   3.473  2.0489  0.5660 -0.0932
  718MOL0     H96913   4.837   6.609   3.525  1.5522 -0.9159 -2.2414
  718MOL0     H96914   2.899   7.400   3.682  0.3880  1.8483  0.3320
  718MOL0     H96915   2.667   7.459   3.771 -1.8128 -0.3364  0.7973
  718MOL0     H96916   2.365   7.515   3.967 -1.9475  1.2700 -2.2059
  718MOL0     H96917   2.132   7.572   3.938 -1.7319 -2.2235 -1.5353
  718MOL0     H96918   1.887   7.523   3.832 -3.6471  0.6747 -0.9919
  718MOL0     H96919   1.901   7.605   3.991  1.5694 -0.8866  1.1624
  718MOL0     H96920   1.680   7.416   3.899  1.9411 -1.6512  1.0328
  718MOL0     H96921   1.668   7.586   3.888  0.7068 -0.5457  0.1682
  718MOL0     H96922   1.687   7.433   4.143 -0.2231 -0.5919 -0.4277
  718MOL0     H96923   1.546   7.522   4.067  0.0796 -2.1300 -0.5211
  718MOL0     H96924   1.640   7.637   4.257 -1.5940 -2.4083 -1.0343
  718MOL0     H96925   1.797   7.648   4.177 -0.0811  0.6497  2.2219
  718MOL0     H96926   1.542   7.955   4.003 -1.4061 -0.2896  2.4221
  718MOL0     H96927   2.000   7.204   4.074 -0.3838  0.1566 -3.6534
  718MOL0     H96928   2.303   7.073   4.195  1.0751  0.8972 -1.1733
  718MOL0     H96929   2.150   7.025   4.121  0.0130 -2.2616 -0.6192
  718MOL0     H96930   2.297   7.013   4.027  1.9754  1.0994  0.8124
  719MOL0     O96931   7.448   4.942   1.435  1.1189  0.2713 -0.5823
  719MOL0     C96932   7.437   5.057   1.394 -0.4527  1.3689 -0.0776
  719MOL0     O96933   7.543   5.135   1.359 -0.1480  0.2677 -0.0080
  719MOL0     C96934   7.671   5.094   1.348  0.1465 -0.7954  0.1202
  719MOL0     C96935   7.750   5.196   1.299 -0.2385 -0.0583  0.1000
  719MOL0     C96936   7.884   5.178   1.268  0.1181  0.0781 -0.4780
  719MOL0     C96937   7.938   5.048   1.280 -0.1022 -0.1653 -0.1909
  719MOL0     O96938   8.073   5.041   1.270 -0.0882 -0.4756  0.7185
  719MOL0     C96939   8.133   4.947   1.361 -0.1366  0.4203 -0.1766
  719MOL0     C96940   8.288   4.957   1.393 -0.0436 -0.0891  0.8953
  719MOL0     C96941   8.368   4.904   1.267 -0.7208  0.2424  0.6826
  719MOL0     C96942   8.514   4.956   1.276  0.0131 -1.2457 -0.1632
  719MOL0     C96943   8.586   4.952   1.132  0.5457 -0.1205  0.0788
  719MOL0     C96944   8.686   5.056   1.135 -0.2831  0.3618  0.1726
  719MOL0     C96945   8.806   5.036   1.232 -0.2666  0.0336  0.1803
  719MOL0     C96946   8.871   4.894   1.219 -0.5915 -0.1727 -0.1007
  719MOL0     N96947   9.015   4.903   1.243 -0.6991  1.1581 -0.1077
  719MOL0     C96948   9.075   4.982   1.336  0.2294 -0.2152 -0.6563
  719MOL0     C96949   9.199   4.941   1.331 -0.3950 -0.1040 -0.4557
  719MOL0     C96950   9.321   4.974   1.415 -0.2526 -0.4608 -1.0129
  719MOL0     C96951   9.408   5.072   1.341 -0.3531  0.6155  0.6110
  719MOL0     C96952   9.493   4.999   1.230  1.2846  0.3553 -0.9934
  719MOL0     C96953   9.603   5.101   1.181  0.5497 -0.5718  0.2192
  719MOL0     O96954   9.682   5.118   1.294  0.1436 -0.3214  0.9325
  719MOL0     C96955   9.797   5.198   1.281  0.6975  0.4897 -0.4990
  719MOL0     C96956   9.834   5.257   1.158  0.7920 -1.1273  0.5766
  719MOL0     C96957   9.949   5.342   1.152 -0.0726 -0.2174 -0.5648
  719MOL0     C96958  10.015   5.378   1.272 -0.1695  0.1741  0.4252
  719MOL0     C96959  10.138   5.454   1.273 -1.1552  0.8811 -0.5256
  719MOL0     O96960  10.161   5.540   1.165 -0.5044 -0.3787  0.1111
  719MOL0     C96961  10.292   5.561   1.114  0.9334 -0.4447 -0.8250
  719MOL0     C96962  10.356   5.465   1.058  0.2024  0.2161  0.4843
  719MOL0     C96963  10.491   5.488   1.031 -0.1651  0.0357 -0.6677
  719MOL0     C96964  10.563   5.606   1.053  0.7847  0.1154  0.2828
  719MOL0     O96965  10.693   5.592   1.015 -0.0953  0.3643 -0.4452
  719MOL0     C96966  10.783   5.696   1.058  0.4980 -0.2985 -0.1308
  719MOL0     C96967  10.828   5.796   0.953 -0.4982  0.6122 -0.1396
  719MOL0     C96968  10.910   5.732   0.840  0.2435 -0.0701 -1.1636
  719MOL0     C96969  10.956   5.843   0.739 -0.0535 -0.7933 -0.1692
  719MOL0     C96970  11.101   5.847   0.731 -0.4828 -0.1323 -0.3049
  719MOL0     C96971  11.152   5.899   0.589 -0.0106  0.0804  0.0250
  719MOL0     C96972  11.147   6.052   0.573  0.3876 -0.5121 -0.5103
  719MOL0     C96973  11.183   6.079   0.424  0.3773  0.2590  0.1948
  719MOL0    Cl96974  11.349   6.012   0.374  0.4031 -0.0774  0.3059
  719MOL0     C96975  10.484   5.712   1.104 -0.1078 -0.3614 -0.7223
  719MOL0     C96976  10.347   5.683   1.140  0.3181 -0.2682 -0.8290
  719MOL0     O96977  10.229   5.429   1.356  0.3402  0.4789 -0.3518
  719MOL0     C96978   9.966   5.327   1.394 -1.0062 -0.3650  0.3645
  719MOL0     C96979   9.860   5.241   1.399  0.7518  0.2809  0.2954
  719MOL0     N96980   9.213   4.840   1.237 -0.4231 -0.2456 -0.1325
  719MOL0     N96981   9.104   4.821   1.184  0.2575 -0.4376 -0.7903
  719MOL0     C96982   7.854   4.942   1.325 -0.1812 -0.2847 -0.4219
  719MOL0     C96983   7.724   4.972   1.376 -0.7265  0.6969 -0.0821
  719MOL0     C96984   7.302   5.122   1.415 -0.4078 -0.1884  0.6431
  719MOL0     C96985   7.190   5.056   1.480  0.4538 -0.3009  0.6008
  719MOL0     C96986   7.066   5.120   1.502 -0.0665  0.2450  0.2113
  719MOL0     C96987   7.047   5.241   1.436 -0.1492 -0.1544 -0.5169
  719MOL0     O96988   6.917   5.300   1.431  0.8019 -0.0077 -0.1558
  719MOL0     C96989   6.803   5.211   1.433 -0.2111 -0.5483  0.2695
  719MOL0     C96990   6.749   5.199   1.578 -0.1164 -0.1800 -0.8516
  719MOL0     C96991   6.606   5.135   1.579  0.6400 -0.1122  0.1280
  719MOL0     C96992   6.577   5.060   1.711  0.0938 -0.0225 -0.2691
  719MOL0     C96993   6.434   5.021   1.722  0.5575 -0.4028 -0.1058
  719MOL0     C96994   6.316   5.003   1.742  0.4790 -0.2825 -0.0401
  719MOL0     C96995   7.150   5.312   1.379 -0.4251  0.2416  0.0347
  719MOL0     C96996   7.273   5.253   1.356  0.2306  1.0285  0.3150
  719MOL0     C96997   7.367   5.332   1.274  0.4503  0.6273  0.3187
  719MOL0     H96998   7.701   5.289   1.275 -1.2696 -0.8056 -0.8407
  719MOL0     H96999   7.950   5.256   1.229 -2.1699  3.3252  1.6394
  719MOL0     H97000   8.079   4.949   1.457 -0.3622 -0.1531 -0.2900
  719MOL0     H97001   8.120   4.844   1.327  0.8740 -0.8856  3.0420
  719MOL0     H97002   8.304   4.893   1.480 -1.6277 -1.2659  0.3753
  719MOL0     H97003   8.319   5.059   1.420  1.7386  0.3150 -2.2274
  719MOL0     H97004   8.320   4.926   1.172 -0.0166 -0.4571  0.1452
  719MOL0     H97005   8.373   4.794   1.271  3.0117  0.1849 -0.8063
  719MOL0     H97006   8.507   5.061   1.305  0.4883 -1.0762 -0.6515
  719MOL0     H97007   8.562   4.891   1.349 -0.9994 -0.4881  1.2079
  719MOL0     H97008   8.626   4.851   1.126 -1.8481 -1.5842  4.5408
  719MOL0     H97009   8.520   4.973   1.047  1.0460  1.5008  0.0503
  719MOL0     H97010   8.725   5.067   1.033 -1.0224  2.0938  0.0510
  719MOL0     H97011   8.642   5.154   1.153 -0.5617  0.8498 -2.6634
  719MOL0     H97012   8.786   5.055   1.338  1.6784 -0.2582  0.6309
  719MOL0     H97013   8.873   5.122   1.223 -2.2098  1.7768  1.2826
  719MOL0     H97014   8.813   4.832   1.289  1.0933 -0.8824  0.7114
  719MOL0     H97015   8.856   4.861   1.116  1.4499 -0.3133 -0.3769
  719MOL0     H97016   9.032   5.062   1.395  1.7463  1.5575 -1.8466
  719MOL0     H97017   9.291   5.022   1.509  0.6090 -0.6111 -0.6572
  719MOL0     H97018   9.382   4.885   1.433 -1.6126 -1.2444 -0.1197
  719MOL0     H97019   9.338   5.143   1.294 -0.5086  0.0726 -0.0027
  719MOL0     H97020   9.467   5.123   1.417  1.2628 -0.8604  0.3995
  719MOL0     H97021   9.425   4.972   1.149 -1.4436  0.8045  1.0144
  719MOL0     H97022   9.542   4.910   1.270  0.6952  1.5086  2.6714
  719MOL0     H97023   9.557   5.197   1.156  0.5524 -0.8608 -0.9446
  719MOL0     H97024   9.661   5.071   1.094  0.7664  1.2590 -0.3165
  719MOL0     H97025   9.778   5.233   1.068  0.0193 -0.4172  0.8633
  719MOL0     H97026   9.994   5.375   1.059 -1.4987  1.3220 -0.7508
  719MOL0     H97027  10.307   5.372   1.030 -1.2072  1.8665 -3.2835
  719MOL0     H97028  10.546   5.409   0.981 -0.0181 -0.8529  0.8468
  719MOL0     H97029  10.740   5.740   1.149 -3.3946  0.3420 -2.0661
  719MOL0     H97030  10.873   5.642   1.087 -1.3390 -3.5751 -0.0197
  719MOL0     H97031  10.735   5.839   0.915 -1.8746 -1.1998  0.9965
  719MOL0     H97032  10.888   5.876   0.997  1.8538 -1.4990  0.6993
  719MOL0     H97033  10.993   5.679   0.888 -0.7739  1.4628  2.6510
  719MOL0     H97034  10.842   5.667   0.783 -2.4651  2.8638 -1.5340
  719MOL0     H97035  10.909   5.942   0.743  0.8708 -0.3904  1.8152
  719MOL0     H97036  10.925   5.793   0.647  1.9625  0.6859 -1.7828
  719MOL0     H97037  11.144   5.747   0.742  0.2146  0.1654 -0.2696
  719MOL0     H97038  11.138   5.921   0.803  2.4773  1.1746 -2.9209
  719MOL0     H97039  11.259   5.878   0.578  0.6707  2.7194  0.7202
  719MOL0     H97040  11.096   5.850   0.509  3.3382  0.6871 -2.9535
  719MOL0     H97041  11.211   6.098   0.648 -1.9880 -1.9264  2.5859
  719MOL0     H97042  11.047   6.094   0.592 -0.3283 -0.9895 -2.8407
  719MOL0     H97043  11.112   6.041   0.352  1.8688  1.8707 -2.2795
  719MOL0     H97044  11.182   6.187   0.405  2.4334  0.2561 -0.1439
  719MOL0     H97045  10.530   5.809   1.116 -2.1979  0.6886 -0.7262
  719MOL0     H97046  10.288   5.762   1.185 -0.3380 -0.6479 -0.9942
  719MOL0     H97047  10.029   5.353   1.478 -1.6847 -0.3701  0.8842
  719MOL0     H97048   9.815   5.200   1.490 -1.6566  2.8981  0.4111
  719MOL0     H97049   7.898   4.842   1.331  1.5858  0.4456 -0.5468
  719MOL0     H97050   7.669   4.892   1.424  1.9143 -2.9470 -2.5747
  719MOL0     H97051   7.193   4.960   1.531  2.8980 -0.3484  0.5257
  719MOL0     H97052   6.995   5.061   1.559  1.0346  0.9565  2.4560
  719MOL0     H97053   6.832   5.108   1.411  1.2173  0.0137 -0.6219
  719MOL0     H97054   6.725   5.237   1.361 -2.8305 -2.0313  2.4014
  719MOL0     H97055   6.741   5.300   1.620  2.1116 -0.8890  1.5705
  719MOL0     H97056   6.812   5.144   1.649 -0.3581  1.8551  1.0831
  719MOL0     H97057   6.612   5.065   1.495  6.0537 -0.0795  0.0840
  719MOL0     H97058   6.521   5.201   1.562  0.6173 -0.6558 -2.2925
  719MOL0     H97059   6.626   4.962   1.704 -1.8389 -1.1757  1.3784
  719MOL0     H97060   6.608   5.119   1.797 -2.4806 -0.2917  0.9446
  719MOL0     H97061   6.209   4.992   1.749  0.1115  0.6548 -3.0818
  719MOL0     H97062   7.134   5.414   1.344  2.2140  1.7982  2.9316
  719MOL0     H97063   7.309   5.412   1.228  0.2729  0.8438  0.8995
  719MOL0     H97064   7.446   5.377   1.337  0.7064 -0.5269  0.8482
  719MOL0     H97065   7.408   5.273   1.192  0.4744  2.9118 -1.4183
  720MOL0     O97066  10.149   1.217   3.304  0.2562 -0.1795  0.5486
  720MOL0     C97067  10.127   1.097   3.286 -0.4186 -0.1162  0.3345
  720MOL0     O97068  10.177   1.029   3.178  0.5923 -0.2232  1.4689
  720MOL0     C97069  10.287   1.086   3.111 -0.1932 -0.0294  0.0150
  720MOL0     C97070  10.277   1.204   3.038  0.2369 -1.0280  0.2006
  720MOL0     C97071  10.396   1.266   2.987  0.5992  0.6981  0.9669
  720MOL0     C97072  10.520   1.196   2.992 -0.4300  0.2534 -0.7639
  720MOL0     O97073  10.618   1.238   2.918  0.5879  0.1826 -0.7297
  720MOL0     C97074  10.742   1.228   2.979 -0.2335  0.9054 -0.1386
  720MOL0     C97075  10.824   1.139   2.895  0.1694  1.1482 -0.1053
  720MOL0     C97076  10.967   1.121   2.943  0.9730 -0.2149 -0.7337
  720MOL0     C97077  11.054   1.061   2.837 -0.4441 -0.3626  0.3905
  720MOL0     C97078  11.186   1.018   2.901 -0.4094 -0.6613 -0.4393
  720MOL0     C97079  11.267   1.137   2.953 -0.6146  0.0689 -0.8000
  720MOL0     C97080  11.413   1.092   2.984  0.2027 -1.3417 -0.1905
  720MOL0     C97081  11.486   1.194   3.073 -0.3363  0.0714  0.2835
  720MOL0     N97082  11.628   1.183   3.044  0.1980 -0.0466 -0.1447
  720MOL0     C97083  11.709   1.264   2.971  1.4607  0.1844  0.2455
  720MOL0     C97084  11.833   1.207   2.966 -0.1880  0.9613 -0.2138
  720MOL0     C97085  11.952   1.249   2.883  1.1674 -0.4530  0.6956
  720MOL0     C97086  12.088   1.239   2.951 -0.5358 -0.1226 -0.5711
  720MOL0     C97087  12.101   1.310   3.095  0.1353 -0.2251  0.7005
  720MOL0     C97088  12.236   1.303   3.157  0.0286  0.2358  0.3758
  720MOL0     O97089  12.309   1.404   3.090 -0.6060 -0.1740  0.0758
  720MOL0     C97090  12.438   1.421   3.149 -0.9387  0.4055  1.1547
  720MOL0     C97091  12.495   1.546   3.147  0.1688 -0.7424  0.2788
  720MOL0     C97092  12.620   1.575   3.202 -0.3792 -0.7376  0.4821
  720MOL0     C97093  12.697   1.471   3.265  0.2810 -0.6002  1.1280
  720MOL0     C97094  12.834   1.498   3.317 -0.0486  0.4578 -1.2454
  720MOL0     O97095  12.918   1.388   3.320  0.9277  0.0142  0.3143
  720MOL0     C97096  13.051   1.402   3.324 -0.2417  1.3001 -0.0437
  720MOL0     C97097  13.123   1.518   3.295 -0.4071  0.2056 -0.0499
  720MOL0     C97098  13.265   1.511   3.288 -0.4646  0.1085  0.2494
  720MOL0     C97099  13.338   1.400   3.331 -0.3977  0.0870 -0.7114
  720MOL0     O97100  13.475   1.410   3.345 -0.4693  0.4866  0.3405
  720MOL0     C97101  13.535   1.308   3.256  0.2600  0.1976 -1.2908
  720MOL0     C97102  13.686   1.346   3.260 -0.8262 -0.8971  0.8792
  720MOL0     C97103  13.778   1.270   3.168 -0.0899 -1.4344 -0.0404
  720MOL0     C97104  13.914   1.345   3.140  1.0739 -0.1224 -0.3280
  720MOL0     C97105  14.035   1.261   3.144  0.7809  0.7794  0.1682
  720MOL0     C97106  14.168   1.326   3.164 -0.0526 -0.2061 -0.1388
  720MOL0     C97107  14.281   1.233   3.125  0.2986  1.1790  0.5602
  720MOL0     C97108  14.416   1.304   3.124  0.0462  0.2583 -0.7945
  720MOL0    Cl97109  14.537   1.189   3.056  0.5343 -0.2278  0.2030
  720MOL0     C97110  13.266   1.287   3.370  0.5330 -0.9382 -0.2123
  720MOL0     C97111  13.124   1.285   3.362  0.4764 -0.1983 -0.2785
  720MOL0     O97112  12.859   1.613   3.358 -0.1741  0.5846 -0.0602
  720MOL0     C97113  12.640   1.340   3.258 -1.0510  0.3066 -0.3330
  720MOL0     C97114  12.516   1.311   3.206  0.1344 -0.0404 -0.1829
  720MOL0     N97115  11.821   1.092   3.042  0.0961  0.6262  0.6378
  720MOL0     N97116  11.706   1.079   3.096 -0.3966 -0.8241 -0.0441
  720MOL0     C97117  10.520   1.070   3.050  0.4826  0.3631  0.1228
  720MOL0     C97118  10.406   1.010   3.104 -0.3547 -0.0026  0.4587
  720MOL0     C97119  10.036   1.013   3.379  0.2599  0.9604  0.3153
  720MOL0     C97120   9.964   0.898   3.324  0.0767  0.0250  0.4500
  720MOL0     C97121   9.866   0.829   3.395  0.1666  0.0316 -0.8631
  720MOL0     C97122   9.840   0.864   3.527  0.5720 -0.3012  0.2079
  720MOL0     O97123   9.753   0.801   3.614 -0.3528 -0.0080  0.5226
  720MOL0     C97124   9.641   0.740   3.548  0.5085 -0.5331 -0.1304
  720MOL0     C97125   9.534   0.703   3.652 -0.4508 -0.2440  0.8997
  720MOL0     C97126   9.474   0.821   3.718 -0.8757 -0.1873 -1.2344
  720MOL0     C97127   9.392   0.922   3.631  0.0605  0.7170  0.7918
  720MOL0     C97128   9.326   1.024   3.719 -0.1180  0.0927 -0.0920
  720MOL0     C97129   9.272   1.113   3.781 -0.7904  0.1172 -0.3604
  720MOL0     C97130   9.913   0.970   3.581 -0.3616  0.9178  0.5482
  720MOL0     C97131  10.007   1.040   3.506  0.0352  0.1628  0.2690
  720MOL0     C97132  10.083   1.146   3.591 -0.0359  0.5047 -0.2216
  720MOL0     H97133  10.182   1.253   3.023  0.4706 -1.3903 -3.2357
  720MOL0     H97134  10.391   1.362   2.937  1.2849 -0.4013 -1.3839
  720MOL0     H97135  10.790   1.326   2.975  2.7368 -0.4800 -2.1303
  720MOL0     H97136  10.739   1.187   3.081 -1.3569 -2.8102 -1.5286
  720MOL0     H97137  10.830   1.170   2.790  0.2179 -2.0325 -1.1607
  720MOL0     H97138  10.771   1.044   2.890 -0.7806  1.6626  0.0719
  720MOL0     H97139  10.971   1.057   3.032  0.8655 -1.0464 -1.3069
  720MOL0     H97140  11.008   1.215   2.980 -0.4399  0.2139 -0.1982
  720MOL0     H97141  11.011   0.977   2.783 -2.2176  0.2322  0.8199
  720MOL0     H97142  11.075   1.142   2.766 -1.0065  0.1135  0.7597
  720MOL0     H97143  11.168   0.949   2.984 -0.0048  0.9532  1.0573
  720MOL0     H97144  11.253   0.969   2.831  1.2190  0.7676  0.0604
  720MOL0     H97145  11.263   1.215   2.878 -2.4200  1.6334  0.8099
  720MOL0     H97146  11.217   1.178   3.041 -1.3649  1.3570 -1.7981
  720MOL0     H97147  11.464   1.096   2.887 -0.4096  0.8185 -0.4637
  720MOL0     H97148  11.436   0.991   3.020  2.5121 -0.7297  0.2386
  720MOL0     H97149  11.451   1.297   3.062 -0.8888 -0.2751 -1.3488
  720MOL0     H97150  11.474   1.177   3.181 -3.5240 -0.7546 -0.1169
  720MOL0     H97151  11.671   1.347   2.912 -0.2660 -1.1237 -0.5906
  720MOL0     H97152  11.946   1.190   2.791  0.4165 -3.0019  2.2726
  720MOL0     H97153  11.942   1.353   2.852 -1.1175 -0.8301 -0.0750
  720MOL0     H97154  12.095   1.131   2.962  0.7010 -0.1824 -1.7186
  720MOL0     H97155  12.171   1.278   2.892 -0.6240 -0.3287 -0.8349
  720MOL0     H97156  12.020   1.273   3.158 -0.6063  1.0318  0.5148
  720MOL0     H97157  12.081   1.416   3.078  1.6873  0.4179  2.5408
  720MOL0     H97158  12.280   1.204   3.141 -0.9997 -0.4917  1.7698
  720MOL0     H97159  12.234   1.321   3.265 -0.8592 -0.0093  0.4059
  720MOL0     H97160  12.439   1.636   3.123 -2.0182 -0.9568  3.8893
  720MOL0     H97161  12.664   1.674   3.195  0.4209 -1.2015 -1.8663
  720MOL0     H97162  13.079   1.615   3.271  1.7539  1.5829  1.1769
  720MOL0     H97163  13.311   1.607   3.267 -0.4422 -0.6772 -4.1298
  720MOL0     H97164  13.533   1.203   3.288  2.8814  1.0176  2.0412
  720MOL0     H97165  13.489   1.316   3.157 -4.4672 -0.0973  0.5986
  720MOL0     H97166  13.691   1.447   3.218 -2.5606 -0.7692  0.8782
  720MOL0     H97167  13.723   1.339   3.363 -2.4271  1.2606  1.6727
  720MOL0     H97168  13.788   1.165   3.197  1.0167 -1.2568  0.2635
  720MOL0     H97169  13.724   1.253   3.074  1.0131  1.3653 -1.2661
  720MOL0     H97170  13.932   1.435   3.199  3.0291 -1.0462  0.5971
  720MOL0     H97171  13.918   1.381   3.037  1.1714 -2.5929 -1.2488
  720MOL0     H97172  14.039   1.199   3.055 -0.9425 -1.0975  1.3230
  720MOL0     H97173  14.027   1.193   3.229  3.2848  0.6936  0.4167
  720MOL0     H97174  14.154   1.416   3.103 -2.1832  1.5854  2.7028
  720MOL0     H97175  14.173   1.350   3.270  1.9292 -0.9274 -0.0361
  720MOL0     H97176  14.262   1.191   3.025 -0.5490  0.5661  0.9662
  720MOL0     H97177  14.285   1.140   3.183 -2.4777 -0.3918 -1.5039
  720MOL0     H97178  14.416   1.389   3.056 -0.8642  0.4445 -0.5664
  720MOL0     H97179  14.435   1.325   3.230 -2.7173 -2.6517  0.4611
  720MOL0     H97180  13.312   1.197   3.410 -0.6900 -2.3948 -1.9250
  720MOL0     H97181  13.071   1.195   3.390  2.7684 -0.9383  1.9769
  720MOL0     H97182  12.705   1.263   3.298  0.0154  1.3639  0.0445
  720MOL0     H97183  12.484   1.208   3.219  3.4060 -1.1627 -0.0012
  720MOL0     H97184  10.606   1.003   3.056  1.1513  1.1580 -0.3466
  720MOL0     H97185  10.413   0.906   3.134 -1.0676  0.0709  0.9030
  720MOL0     H97186   9.969   0.872   3.219  0.7627 -0.3216  0.5586
  720MOL0     H97187   9.828   0.740   3.346 -0.4609 -0.0409 -0.2649
  720MOL0     H97188   9.670   0.653   3.488  0.6861 -0.4633 -0.1470
  720MOL0     H97189   9.595   0.807   3.475 -1.1840 -2.5402 -0.9945
  720MOL0     H97190   9.571   0.629   3.723  1.3678 -0.8341 -0.5963
  720MOL0     H97191   9.460   0.661   3.583  1.8056  0.7108 -2.3072
  720MOL0     H97192   9.539   0.870   3.792 -1.2531 -2.2196  0.5391
  720MOL0     H97193   9.403   0.775   3.788 -0.0335  0.6444  0.2364
  720MOL0     H97194   9.464   0.972   3.566 -1.0216  0.5087 -0.6300
  720MOL0     H97195   9.313   0.870   3.576 -0.1375 -0.7547  2.3864
  720MOL0     H97196   9.226   1.170   3.858  0.3110 -0.3113  0.6419
  720MOL0     H97197   9.886   0.986   3.685 -1.3844  0.8929  0.3059
  720MOL0     H97198  10.190   1.130   3.603  0.5530  4.6074  1.9583
  720MOL0     H97199  10.063   1.248   3.555  1.5868  0.6391 -0.8107
  720MOL0     H97200  10.049   1.144   3.695  0.9013 -2.9211  0.1381
  721MOL0     O97201   3.893   0.047   8.789 -0.8638 -0.2073 -0.0223
  721MOL0     C97202   3.876   0.151   8.731  0.1916 -0.5033 -0.1494
  721MOL0     O97203   3.957   0.214   8.642  0.1131 -0.7151  0.4386
  721MOL0     C97204   4.083   0.171   8.624 -0.2980 -0.0372 -0.1530
  721MOL0     C97205   4.185   0.243   8.687 -0.0278  0.5323 -0.2633
  721MOL0     C97206   4.321   0.204   8.676  0.1300 -0.1164  0.0038
  721MOL0     C97207   4.347   0.086   8.609 -0.1419 -0.4302  0.6765
  721MOL0     O97208   4.478   0.043   8.614  0.6732 -0.5405  0.6627
  721MOL0     C97209   4.520  -0.038   8.504 -0.3297  0.2700 -0.1387
  721MOL0     C97210   4.679  -0.039   8.515  1.1298  0.6939 -0.0240
  721MOL0     C97211   4.721  -0.136   8.617  0.1570 -0.3666  0.8827
  721MOL0     C97212   4.872  -0.154   8.606 -0.0493 -0.7746  0.0561
  721MOL0     C97213   4.922  -0.277   8.676 -0.5150  0.2247 -0.2582
  721MOL0     C97214   4.910  -0.278   8.826 -0.5065 -1.5224  1.3060
  721MOL0     C97215   5.002  -0.171   8.898  0.2071 -0.1516  0.0263
  721MOL0     C97216   5.154  -0.173   8.855  0.7568  0.5636 -0.0265
  721MOL0     N97217   5.214  -0.304   8.827  0.5984  0.1596  0.4160
  721MOL0     C97218   5.291  -0.331   8.718  0.0120  0.2770 -0.1458
  721MOL0     C97219   5.365  -0.438   8.754 -0.3166 -0.9147  0.4302
  721MOL0     C97220   5.471  -0.499   8.664  0.3782  0.6625  0.3050
  721MOL0     C97221   5.470  -0.657   8.670 -0.5130 -1.0492 -0.0793
  721MOL0     C97222   5.580  -0.717   8.574  1.2687  0.0194 -0.6166
  721MOL0     C97223   5.570  -0.868   8.588  0.0470  0.5436 -0.2913
  721MOL0     O97224   5.664  -0.928   8.501 -1.6011 -0.5288 -0.3998
  721MOL0     C97225   5.797  -0.952   8.551 -0.4857  0.5506 -0.4660
  721MOL0     C97226   5.848  -0.946   8.686  0.3957 -0.5710 -0.1859
  721MOL0     C97227   5.977  -0.981   8.714 -0.1018  0.0208  0.5109
  721MOL0     C97228   6.071  -1.007   8.607  0.2170  0.7799 -0.5857
  721MOL0     C97229   6.209  -1.051   8.649 -0.7853  0.2379  0.1644
  721MOL0     O97230   6.307  -1.083   8.555  0.3451 -0.1243 -0.9671
  721MOL0     C97231   6.429  -1.127   8.603  0.5658  0.5596  0.4975
  721MOL0     C97232   6.534  -1.037   8.612 -1.2318 -0.4107 -1.3070
  721MOL0     C97233   6.664  -1.079   8.666 -0.0468 -0.6918  0.1166
  721MOL0     C97234   6.683  -1.210   8.715  0.6503 -1.2105  0.4071
  721MOL0     O97235   6.803  -1.242   8.764 -0.6926 -0.5974 -0.5796
  721MOL0     C97236   6.846  -1.375   8.788  0.1600  0.1624 -0.1319
  721MOL0     C97237   6.984  -1.381   8.861 -1.0684 -0.6801  0.2153
  721MOL0     C97238   7.106  -1.375   8.752  0.5800  0.5092 -0.0917
  721MOL0     C97239   7.247  -1.378   8.822  0.2067 -0.3746  1.0085
  721MOL0     C97240   7.350  -1.376   8.710  0.1805  0.3699  0.3875
  721MOL0     C97241   7.491  -1.360   8.762 -0.5604 -0.1638 -0.8294
  721MOL0     C97242   7.534  -1.217   8.801  0.8324 -0.6773  0.5202
  721MOL0     C97243   7.671  -1.223   8.868 -0.2200  0.4537  0.3898
  721MOL0    Cl97244   7.780  -1.280   8.751  0.0257 -0.0622  0.2434
  721MOL0     C97245   6.575  -1.287   8.707  0.3619  0.2760  1.2325
  721MOL0     C97246   6.450  -1.260   8.645 -0.2962 -1.2658  0.3481
  721MOL0     O97247   6.224  -1.068   8.772 -0.3890  0.1916  0.3134
  721MOL0     C97248   6.024  -1.022   8.476 -0.4036 -0.1191 -0.2848
  721MOL0     C97249   5.889  -0.991   8.454  0.6537 -0.2389  0.0884
  721MOL0     N97250   5.330  -0.473   8.882 -0.2766  0.7817  0.4578
  721MOL0     N97251   5.238  -0.393   8.927 -0.6095  0.0550  0.2474
  721MOL0     C97252   4.248   0.026   8.523 -0.6183  0.1802  0.3098
  721MOL0     C97253   4.118   0.067   8.536  0.7010  0.3735  0.1678
  721MOL0     C97254   3.727   0.195   8.737  0.1010 -0.2059 -0.0417
  721MOL0     C97255   3.639   0.141   8.828 -0.0950  0.7891 -0.2391
  721MOL0     C97256   3.506   0.182   8.842 -0.0697  0.8586  0.4225
  721MOL0     C97257   3.458   0.286   8.763 -0.3122  0.2818 -0.3608
  721MOL0     O97258   3.324   0.321   8.778  0.2727 -0.5833 -0.0123
  721MOL0     C97259   3.259   0.424   8.704  0.8948 -0.0708  0.2472
  721MOL0     C97260   3.230   0.389   8.563  0.3944 -0.1050 -0.2527
  721MOL0     C97261   3.187   0.242   8.538  0.0287  0.0866  0.5822
  721MOL0     C97262   3.066   0.175   8.605 -0.7754 -0.1868  0.4526
  721MOL0     C97263   2.948   0.253   8.586  0.2738  0.2611 -0.3258
  721MOL0     C97264   2.849   0.316   8.589 -1.1739 -0.0227  1.0749
  721MOL0     C97265   3.547   0.346   8.673 -0.1399 -0.5905 -0.8164
  721MOL0     C97266   3.674   0.302   8.648 -0.0600  0.2020 -0.2300
  721MOL0     C97267   3.748   0.370   8.536  0.1378 -0.0523  0.0802
  721MOL0     H97268   4.171   0.329   8.753 -2.1319  0.0803 -0.0393
  721MOL0     H97269   4.396   0.263   8.726  0.5890 -1.5655  1.0860
  721MOL0     H97270   4.482  -0.140   8.499 -3.1758  1.1915  0.6031
  721MOL0     H97271   4.483   0.016   8.416 -0.2713  2.3341  1.0364
  721MOL0     H97272   4.711   0.061   8.542 -0.5233  1.6103 -1.2361
  721MOL0     H97273   4.723  -0.052   8.415 -2.1324 -2.9024 -1.2798
  721MOL0     H97274   4.669  -0.231   8.601 -0.4350  0.1191 -0.2396
  721MOL0     H97275   4.695  -0.101   8.717  1.0583  0.6207  0.7932
  721MOL0     H97276   4.893  -0.158   8.499  0.5776  2.3310 -0.0297
  721MOL0     H97277   4.918  -0.064   8.648  1.7727 -0.2780 -2.7026
  721MOL0     H97278   4.852  -0.352   8.639 -0.7608  0.7098 -0.7940
  721MOL0     H97279   5.023  -0.301   8.643  0.1624 -1.9086  2.8934
  721MOL0     H97280   4.812  -0.241   8.857  0.5243  1.7453  1.0361
  721MOL0     H97281   4.935  -0.377   8.867  2.9412 -0.8051  1.2316
  721MOL0     H97282   5.001  -0.201   9.003  0.0876 -2.5398 -0.6166
  721MOL0     H97283   4.953  -0.074   8.885  0.9512  0.0944 -1.0300
  721MOL0     H97284   5.150  -0.109   8.767 -0.5952  1.6810  0.8077
  721MOL0     H97285   5.211  -0.121   8.933  0.9153  0.2328  0.0779
  721MOL0     H97286   5.297  -0.270   8.629  3.0390 -0.9498 -0.9141
  721MOL0     H97287   5.451  -0.464   8.563 -1.2515  2.9758  1.3186
  721MOL0     H97288   5.574  -0.463   8.671  1.5677 -1.7406 -2.6462
  721MOL0     H97289   5.495  -0.685   8.773 -1.0458 -0.5394  0.1863
  721MOL0     H97290   5.375  -0.687   8.626  0.1654 -2.7218 -0.5146
  721MOL0     H97291   5.681  -0.685   8.600  1.0251 -0.1813  0.6463
  721MOL0     H97292   5.560  -0.692   8.470  1.4837  0.6524 -0.5124
  721MOL0     H97293   5.466  -0.892   8.564  0.4169  0.4662 -1.9506
  721MOL0     H97294   5.581  -0.904   8.691 -1.8535 -2.3367 -0.9726
  721MOL0     H97295   5.783  -0.907   8.764  3.3420  1.2082  1.5552
  721MOL0     H97296   6.015  -0.969   8.815  0.4927  1.3340  0.1575
  721MOL0     H97297   6.516  -0.937   8.574 -1.6195 -0.2337 -0.6572
  721MOL0     H97298   6.752  -1.016   8.678 -1.3286  1.0400  0.7026
  721MOL0     H97299   6.790  -1.417   8.872 -1.9727 -2.4564 -2.6545
  721MOL0     H97300   6.838  -1.437   8.698  1.0888 -1.8621  1.1058
  721MOL0     H97301   7.000  -1.287   8.915  1.4633  0.3891 -2.1702
  721MOL0     H97302   6.998  -1.468   8.926  2.6184  0.0772  0.6711
  721MOL0     H97303   7.097  -1.458   8.682 -0.3889  1.6261 -1.3603
  721MOL0     H97304   7.094  -1.292   8.682 -1.5150 -1.6333 -2.4750
  721MOL0     H97305   7.246  -1.470   8.881 -1.1021 -0.3927  0.9830
  721MOL0     H97306   7.259  -1.291   8.886 -2.5914  2.1987 -1.6776
  721MOL0     H97307   7.340  -1.290   8.642  0.1589  1.2063  1.4296
  721MOL0     H97308   7.339  -1.471   8.658 -2.0973  0.7512  0.0932
  721MOL0     H97309   7.492  -1.434   8.843 -2.7030 -0.7368 -1.2620
  721MOL0     H97310   7.559  -1.399   8.686  1.4808 -1.5306  1.5469
  721MOL0     H97311   7.467  -1.164   8.870 -1.1683 -2.1376 -0.2283
  721MOL0     H97312   7.530  -1.152   8.712 -2.9587 -2.2323 -0.6297
  721MOL0     H97313   7.707  -1.126   8.904 -0.5599  0.8452 -0.2933
  721MOL0     H97314   7.662  -1.284   8.958 -4.6834  0.0141 -0.1085
  721MOL0     H97315   6.580  -1.383   8.756  0.6818  0.3736  1.3940
  721MOL0     H97316   6.371  -1.334   8.637 -1.9033  0.4375 -0.2161
  721MOL0     H97317   6.098  -1.045   8.400  0.2811 -0.4722  0.4762
  721MOL0     H97318   5.862  -0.990   8.349 -0.6547  0.5519  0.4215
  721MOL0     H97319   4.258  -0.057   8.454  1.5445  0.2201  0.4888
  721MOL0     H97320   4.029   0.019   8.495 -1.2448  3.9250 -0.2013
  721MOL0     H97321   3.676   0.060   8.890  2.0270  0.6972 -1.5099
  721MOL0     H97322   3.437   0.147   8.919 -2.3153  1.7527 -1.0894
  721MOL0     H97323   3.320   0.515   8.705  1.7454 -0.6330  0.2044
  721MOL0     H97324   3.159   0.439   8.746  0.3296  0.3676 -1.1894
  721MOL0     H97325   3.326   0.407   8.512 -0.0616  2.1871 -0.4101
  721MOL0     H97326   3.157   0.460   8.522  1.3788  0.4714 -1.0759
  721MOL0     H97327   3.270   0.175   8.562 -0.1151  0.2177  1.4823
  721MOL0     H97328   3.173   0.232   8.430  0.8837 -2.2838  0.6317
  721MOL0     H97329   3.058   0.078   8.556 -2.7290  0.3172 -0.3129
  721MOL0     H97330   3.081   0.168   8.713 -3.7689 -0.0328  0.9768
  721MOL0     H97331   2.755   0.366   8.573 -0.2104  1.1636 -1.5334
  721MOL0     H97332   3.516   0.427   8.607  1.4414  0.8369  0.1151
  721MOL0     H97333   3.679   0.425   8.471  1.6820 -0.2097 -1.7784
  721MOL0     H97334   3.819   0.443   8.576 -0.0853  0.1855  0.0484
  721MOL0     H97335   3.794   0.286   8.485 -0.0327  0.3866 -0.8070
  722MOL0     O97336   3.423   3.447   4.730  0.1518  0.4288  0.3336
  722MOL0     C97337   3.382   3.399   4.836  0.6482  0.3757  0.6329
  722MOL0     O97338   3.459   3.402   4.948 -0.1229  0.2403 -0.4237
  722MOL0     C97339   3.601   3.434   4.931  0.9173  0.1354 -0.0302
  722MOL0     C97340   3.654   3.541   5.008 -0.8311  0.2348 -0.0896
  722MOL0     C97341   3.797   3.566   5.002  0.2324 -0.1848 -1.2475
  722MOL0     C97342   3.882   3.483   4.920  0.0271  0.0470  0.5111
  722MOL0     O97343   4.015   3.512   4.926 -0.0927 -0.4962 -0.3513
  722MOL0     C97344   4.108   3.403   4.914 -0.4311  0.3954  0.1144
  722MOL0     C97345   4.253   3.443   4.910  0.5927 -0.6259 -0.3030
  722MOL0     C97346   4.360   3.322   4.906  1.2267 -0.3877 -1.2077
  722MOL0     C97347   4.476   3.365   4.830  0.4831 -0.2522 -0.3106
  722MOL0     C97348   4.580   3.258   4.823 -0.3526  0.1505 -0.3405
  722MOL0     C97349   4.659   3.265   4.688 -0.0241 -0.1054  0.0550
  722MOL0     C97350   4.797   3.200   4.691  0.8438 -0.4160 -0.6181
  722MOL0     C97351   4.889   3.254   4.577 -0.1350 -0.1144 -0.0284
  722MOL0     N97352   5.022   3.203   4.586 -0.3452  0.1630 -0.1371
  722MOL0     C97353   5.130   3.255   4.522 -0.6672  0.8998 -0.1999
  722MOL0     C97354   5.234   3.169   4.539  0.1250  0.2762 -0.0126
  722MOL0     C97355   5.370   3.196   4.490 -0.8417  0.0699 -0.4051
  722MOL0     C97356   5.468   3.079   4.523  0.2553  0.1267  0.5170
  722MOL0     C97357   5.609   3.102   4.469  0.7535  0.2321 -0.5168
  722MOL0     C97358   5.716   3.000   4.510  0.4099 -0.3271 -0.1955
  722MOL0     O97359   5.845   3.044   4.461 -0.1497 -0.0386  0.0625
  722MOL0     C97360   5.947   2.956   4.448 -0.1016  0.3211 -0.0167
  722MOL0     C97361   5.964   2.848   4.535 -1.1812  0.3121  0.5523
  722MOL0     C97362   6.063   2.760   4.519 -0.0682 -0.9116  0.4997
  722MOL0     C97363   6.150   2.760   4.407  1.0186 -0.2508  0.5069
  722MOL0     C97364   6.259   2.658   4.385 -0.5690  0.3059  0.7335
  722MOL0     O97365   6.369   2.690   4.313 -0.3802 -0.6868 -0.9176
  722MOL0     C97366   6.464   2.597   4.281  0.3413  0.3464  0.3415
  722MOL0     C97367   6.509   2.598   4.140  0.2346  0.8710 -0.8474
  722MOL0     C97368   6.596   2.490   4.102 -0.2803  0.2534 -0.7198
  722MOL0     C97369   6.649   2.400   4.193 -0.1812  0.9385 -0.4280
  722MOL0     O97370   6.740   2.311   4.142 -0.1979  1.4152 -0.5357
  722MOL0     C97371   6.815   2.228   4.237 -0.0547 -0.7184  0.3196
  722MOL0     C97372   6.955   2.219   4.164  0.0406 -0.6396  0.2211
  722MOL0     C97373   7.027   2.360   4.157  0.1189  0.3291  0.0892
  722MOL0     C97374   7.167   2.335   4.178  0.1722  0.4146  0.2600
  722MOL0     C97375   7.246   2.461   4.196 -0.1739 -0.1456 -0.2602
  722MOL0     C97376   7.394   2.449   4.224  0.4611  0.3000 -0.1250
  722MOL0     C97377   7.479   2.408   4.111  0.5804 -0.4498  0.1914
  722MOL0     C97378   7.504   2.515   4.011 -0.7883 -0.0918 -0.8981
  722MOL0    Cl97379   7.577   2.460   3.864 -0.1403 -0.2816 -0.0528
  722MOL0     C97380   6.593   2.396   4.324  0.5472  0.2569 -0.0867
  722MOL0     C97381   6.505   2.490   4.365  0.1054 -0.0580  0.4907
  722MOL0     O97382   6.236   2.542   4.426  0.7434  0.1757 -0.2056
  722MOL0     C97383   6.120   2.860   4.311  0.1685 -0.0026 -0.5999
  722MOL0     C97384   6.025   2.960   4.329  0.1400  0.4818 -0.1044
  722MOL0     N97385   5.179   3.058   4.610  0.0876 -0.1043 -0.5626
  722MOL0     N97386   5.059   3.076   4.635 -0.1732 -0.7149  0.6956
  722MOL0     C97387   3.825   3.381   4.847  0.7438  0.3783  0.8153
  722MOL0     C97388   3.685   3.360   4.843 -0.2182  0.1489 -0.6207
  722MOL0     C97389   3.240   3.358   4.866  0.2453  0.7123  0.1520
  722MOL0     C97390   3.202   3.318   4.996 -0.1061 -0.0417 -0.1595
  722MOL0     C97391   3.068   3.287   5.031  0.2230  0.6490  0.8903
  722MOL0     C97392   2.982   3.287   4.919  1.0284  0.0472 -0.2194
  722MOL0     O97393   2.844   3.259   4.928  0.4622  0.5178 -0.3122
  722MOL0     C97394   2.780   3.230   5.047  0.3384 -0.1464  0.2475
  722MOL0     C97395   2.626   3.242   5.036 -0.5084  0.2026 -0.1154
  722MOL0     C97396   2.579   3.120   4.941 -0.6589 -0.7353  0.7156
  722MOL0     C97397   2.425   3.119   4.907 -0.2046  0.7036 -0.0353
  722MOL0     C97398   2.370   3.238   4.848  0.3094 -0.2853 -0.4164
  722MOL0     C97399   2.318   3.334   4.793 -0.3594  0.4502 -0.8348
  722MOL0     C97400   3.021   3.311   4.793  0.7751  0.9618 -0.2951
  722MOL0     C97401   3.141   3.363   4.762 -0.3469  0.5966  0.8262
  722MOL0     C97402   3.155   3.398   4.612 -1.0367 -0.3925  0.8911
  722MOL0     H97403   3.587   3.605   5.064 -1.3604 -0.9235  0.6323
  722MOL0     H97404   3.832   3.644   5.068 -2.7555 -0.0670  0.3628
  722MOL0     H97405   4.099   3.336   5.001  0.1169 -0.5738 -0.5502
  722MOL0     H97406   4.089   3.341   4.826  1.4974 -0.4509  0.2230
  722MOL0     H97407   4.269   3.513   4.993 -0.2806 -0.6185 -0.1275
  722MOL0     H97408   4.269   3.499   4.818 -5.3858  0.1579 -1.2911
  722MOL0     H97409   4.317   3.230   4.866  0.2231 -0.4895  0.0288
  722MOL0     H97410   4.387   3.300   5.010  0.7589 -1.3949 -1.2859
  722MOL0     H97411   4.443   3.394   4.730 -3.1453 -1.1673  0.4703
  722MOL0     H97412   4.519   3.456   4.872  0.2013  0.0718 -0.7297
  722MOL0     H97413   4.649   3.257   4.908  2.4755  3.5583 -2.3226
  722MOL0     H97414   4.521   3.167   4.815 -0.3559  0.2868 -2.5444
  722MOL0     H97415   4.595   3.217   4.613 -0.5165 -1.3427  1.2191
  722MOL0     H97416   4.671   3.367   4.651 -0.0836 -0.7652 -1.9164
  722MOL0     H97417   4.780   3.092   4.688  2.3789 -0.8037  1.7598
  722MOL0     H97418   4.845   3.234   4.783 -2.9701  3.2364  0.3617
  722MOL0     H97419   4.843   3.225   4.482 -0.1443  0.4790 -0.2062
  722MOL0     H97420   4.896   3.363   4.577  2.8594 -0.2296 -0.9787
  722MOL0     H97421   5.135   3.354   4.480  1.0096  0.0677 -2.0817
  722MOL0     H97422   5.366   3.202   4.381  1.2700 -1.8899 -0.6651
  722MOL0     H97423   5.407   3.292   4.526  0.0857 -0.5790  0.4534
  722MOL0     H97424   5.472   3.066   4.631 -0.6122  0.4738  0.5980
  722MOL0     H97425   5.429   2.984   4.483 -0.6883 -1.1705  4.1468
  722MOL0     H97426   5.647   3.201   4.495 -0.3599  0.4215  0.4918
  722MOL0     H97427   5.607   3.102   4.360  0.5536 -1.0417 -0.5250
  722MOL0     H97428   5.686   2.898   4.482  1.9760 -1.2095  1.1237
  722MOL0     H97429   5.724   2.995   4.619 -0.6365 -1.6514 -0.1467
  722MOL0     H97430   5.908   2.832   4.627  0.2828 -2.9756  1.0333
  722MOL0     H97431   6.084   2.683   4.592  0.0366 -0.4081  1.0157
  722MOL0     H97432   6.467   2.659   4.060 -0.2447  1.2453 -0.3105
  722MOL0     H97433   6.613   2.487   3.994 -0.7111 -0.1943 -0.7811
  722MOL0     H97434   6.832   2.287   4.328 -2.0771  1.9912 -0.8983
  722MOL0     H97435   6.769   2.131   4.253 -0.3604 -1.2335 -2.9705
  722MOL0     H97436   7.017   2.147   4.218 -0.6570 -2.1757 -0.9628
  722MOL0     H97437   6.931   2.174   4.068 -0.1854  0.5928 -0.3222
  722MOL0     H97438   7.007   2.403   4.059  0.7605  0.2045 -0.1020
  722MOL0     H97439   6.979   2.425   4.231 -3.1870  2.3329 -3.4373
  722MOL0     H97440   7.209   2.276   4.096  0.4653  1.3338 -0.2631
  722MOL0     H97441   7.173   2.284   4.275  1.4559  2.0585  1.0896
  722MOL0     H97442   7.197   2.514   4.277 -3.7136 -3.3625  0.0201
  722MOL0     H97443   7.226   2.520   4.106  1.9482 -0.7157 -1.1886
  722MOL0     H97444   7.442   2.541   4.259  1.5096 -0.2472 -0.0957
  722MOL0     H97445   7.402   2.376   4.305  1.6145  2.1513  1.5274
  722MOL0     H97446   7.435   2.332   4.046  1.4522 -1.0532  0.2901
  722MOL0     H97447   7.576   2.365   4.138  0.0474 -1.9356 -0.1422
  722MOL0     H97448   7.424   2.586   3.987 -1.3469  0.5654  2.3959
  722MOL0     H97449   7.573   2.586   4.057  0.2956  1.1008 -4.1116
  722MOL0     H97450   6.624   2.316   4.391  0.1823  0.9458  0.9279
  722MOL0     H97451   6.464   2.472   4.465 -2.9946  2.5172 -0.1565
  722MOL0     H97452   6.179   2.870   4.220 -1.5544 -2.7111 -2.1750
  722MOL0     H97453   6.014   3.035   4.251 -0.5028 -1.0731 -1.5750
  722MOL0     H97454   3.891   3.311   4.797 -1.8823 -1.4631 -0.2893
  722MOL0     H97455   3.643   3.284   4.777 -0.7725  0.3526 -0.5101
  722MOL0     H97456   3.270   3.295   5.077 -2.2221 -4.2170  0.7060
  722MOL0     H97457   3.033   3.255   5.128  0.7694 -0.3144  0.7932
  722MOL0     H97458   2.806   3.309   5.118  2.2759 -0.7305  0.2466
  722MOL0     H97459   2.807   3.131   5.084 -0.2769  0.1512  1.5875
  722MOL0     H97460   2.592   3.340   4.999 -0.3812  0.5838  0.7542
  722MOL0     H97461   2.589   3.227   5.138  1.2945 -0.1127  0.5321
  722MOL0     H97462   2.602   3.021   4.983 -0.1179 -1.2433 -0.7227
  722MOL0     H97463   2.635   3.114   4.847 -1.6399  0.8941 -0.0072
  722MOL0     H97464   2.409   3.032   4.842 -1.4438 -1.2585  2.6970
  722MOL0     H97465   2.376   3.079   4.996 -1.4464 -1.6564 -1.6474
  722MOL0     H97466   2.276   3.413   4.735 -0.5231  0.0193 -1.3058
  722MOL0     H97467   2.944   3.306   4.716  1.1946  1.9690 -0.8005
  722MOL0     H97468   3.158   3.506   4.597  0.2087 -0.3223  1.4941
  722MOL0     H97469   3.251   3.361   4.574 -0.1053  0.4637  2.3143
  722MOL0     H97470   3.074   3.361   4.548 -1.7065  0.5627  1.1544
  723MOL0     O97471   4.129   9.353   5.586  0.5498  0.5566 -0.2846
  723MOL0     C97472   4.043   9.444   5.564 -0.2799  0.1222  0.2106
  723MOL0     O97473   4.072   9.552   5.491  0.0079 -0.8205 -0.4266
  723MOL0     C97474   4.200   9.607   5.474  0.4927  0.3095 -0.4134
  723MOL0     C97475   4.201   9.712   5.381  0.6852  0.5004  0.5166
  723MOL0     C97476   4.308   9.798   5.372 -0.5941  0.1957  0.6238
  723MOL0     C97477   4.434   9.768   5.426 -0.0990 -0.3586  0.0705
  723MOL0     O97478   4.535   9.862   5.398  0.0796 -0.1860  0.0097
  723MOL0     C97479   4.654   9.864   5.476  0.6525  0.8609 -0.9237
  723MOL0     C97480   4.732   9.968   5.410 -0.3184  0.6379 -1.1235
  723MOL0     C97481   4.870   9.976   5.483 -0.6903  1.0658  0.1370
  723MOL0     C97482   4.965  10.064   5.398 -0.4469 -0.2101  0.0268
  723MOL0     C97483   5.105  10.030   5.450  0.1755 -0.1459 -0.4157
  723MOL0     C97484   5.211  10.122   5.373  0.6566 -0.3609 -0.2148
  723MOL0     C97485   5.349  10.079   5.402  0.3361  0.4168 -0.5264
  723MOL0     C97486   5.444  10.201   5.426  0.5309 -0.8996  0.1091
  723MOL0     N97487   5.578  10.150   5.409 -0.0387 -0.2335 -1.4128
  723MOL0     C97488   5.673  10.141   5.511 -0.0970  0.3053  1.1922
  723MOL0     C97489   5.779  10.081   5.445 -0.1021  0.1276 -0.0951
  723MOL0     C97490   5.904  10.053   5.524 -0.2539  0.4188  0.7734
  723MOL0     C97491   5.922  10.106   5.665  0.1159  0.2094  1.1180
  723MOL0     C97492   6.062  10.098   5.711 -0.8306  0.0759  0.0178
  723MOL0     C97493   6.140   9.968   5.667 -0.6210 -0.0876 -0.3583
  723MOL0     O97494   6.272   9.954   5.734  0.3486  0.0656 -0.3765
  723MOL0     C97495   6.373  10.018   5.671  0.4973 -0.7439 -0.2067
  723MOL0     C97496   6.498   9.968   5.703 -0.7499 -1.1221 -0.3826
  723MOL0     C97497   6.613  10.021   5.654 -0.5008 -0.6810  0.9281
  723MOL0     C97498   6.603  10.116   5.553  0.3796  0.1652  0.5012
  723MOL0     C97499   6.727  10.183   5.498  0.0816 -0.6135 -0.1264
  723MOL0     O97500   6.721  10.315   5.473  0.4403 -0.5541  0.5086
  723MOL0     C97501   6.825  10.362   5.396  0.3072 -0.3061  0.0177
  723MOL0     C97502   6.943  10.413   5.452  0.7143 -0.0565  0.1641
  723MOL0     C97503   7.055  10.429   5.367 -0.5929  0.0338  0.5356
  723MOL0     C97504   7.046  10.408   5.230 -0.2242 -0.8180 -0.1917
  723MOL0     O97505   7.151  10.422   5.143 -0.3397 -0.0661 -0.2736
  723MOL0     C97506   7.280  10.386   5.193  0.0191 -0.8646  0.4459
  723MOL0     C97507   7.360  10.512   5.226 -0.1894 -0.1287  0.4050
  723MOL0     C97508   7.495  10.475   5.297 -0.2547  0.1208  0.0985
  723MOL0     C97509   7.548  10.603   5.363 -1.3459 -0.3949  0.4089
  723MOL0     C97510   7.689  10.588   5.412 -0.0268 -0.3874 -0.4766
  723MOL0     C97511   7.750  10.713   5.478 -0.3470  0.1457  0.0960
  723MOL0     C97512   7.757  10.833   5.384 -1.0104  0.0955 -0.8240
  723MOL0     C97513   7.834  10.822   5.244 -0.4491  0.2542  0.4264
  723MOL0    Cl97514   8.011  10.809   5.282 -0.1925 -0.0277 -0.0402
  723MOL0     C97515   6.921  10.378   5.178 -0.5245  0.0176 -0.2146
  723MOL0     C97516   6.813  10.348   5.259 -0.4376 -0.3013 -0.9167
  723MOL0     O97517   6.820  10.107   5.487 -0.4129  0.1102 -0.4071
  723MOL0     C97518   6.476  10.165   5.516  0.6145 -0.6675 -0.3099
  723MOL0     C97519   6.359  10.116   5.573 -0.1267  0.4200  0.0768
  723MOL0     N97520   5.750  10.076   5.311 -0.4693  0.0553  0.3579
  723MOL0     N97521   5.630  10.114   5.287 -0.9895 -0.5996 -0.5558
  723MOL0     C97522   4.446   9.652   5.509  0.3965  1.0701  0.0761
  723MOL0     C97523   4.327   9.580   5.533  0.0136  0.1314 -0.3391
  723MOL0     C97524   3.899   9.415   5.586  0.5934  0.9139  0.6528
  723MOL0     C97525   3.807   9.508   5.529 -1.0932  0.1606  0.2882
  723MOL0     C97526   3.664   9.489   5.536  0.0638 -0.2427  0.7053
  723MOL0     C97527   3.610   9.370   5.602 -0.2387  0.0363 -0.1872
  723MOL0     O97528   3.477   9.345   5.610  0.0193 -0.1907 -0.2972
  723MOL0     C97529   3.390   9.462   5.593  0.8354  0.3940  0.0942
  723MOL0     C97530   3.257   9.433   5.661  0.7566  0.1338  0.8998
  723MOL0     C97531   3.172   9.567   5.675 -1.5139  0.8951  0.3271
  723MOL0     C97532   3.047   9.536   5.755 -0.4150  0.4236  0.1075
  723MOL0     C97533   2.986   9.661   5.795 -0.1172  0.9306  0.3211
  723MOL0     C97534   2.944   9.751   5.844  0.2198  0.3981 -0.6757
  723MOL0     C97535   3.705   9.283   5.662 -0.3145 -0.7320 -0.1346
  723MOL0     C97536   3.841   9.305   5.653  0.2246  0.3326 -0.1164
  723MOL0     C97537   3.930   9.188   5.696  0.2800 -1.1678 -0.5394
  723MOL0     H97538   4.113   9.751   5.332  0.8095  0.1661  0.0130
  723MOL0     H97539   4.301   9.892   5.319  0.5060  0.5791  1.1169
  723MOL0     H97540   4.626   9.888   5.579 -3.8288 -1.6919 -1.2673
  723MOL0     H97541   4.692   9.761   5.471 -0.6886  0.2728  0.3641
  723MOL0     H97542   4.678  10.060   5.435  1.3708  0.5562  4.1139
  723MOL0     H97543   4.740   9.952   5.302 -3.6217  0.8238 -1.5021
  723MOL0     H97544   4.912   9.876   5.495  2.3877  2.3662  1.2985
  723MOL0     H97545   4.853  10.025   5.580  0.7398  2.5561 -0.3350
  723MOL0     H97546   4.955  10.046   5.291  1.1421 -2.0228  0.1267
  723MOL0     H97547   4.942  10.169   5.420 -1.3173  0.6873 -4.2905
  723MOL0     H97548   5.112  10.047   5.558  0.1574 -0.9546 -0.2809
  723MOL0     H97549   5.132   9.925   5.434 -2.1967 -0.8577 -0.1471
  723MOL0     H97550   5.202  10.128   5.265  0.1784  1.8691 -0.0942
  723MOL0     H97551   5.194  10.225   5.407  1.0854 -0.8693  1.6759
  723MOL0     H97552   5.394  10.021   5.322  0.6330 -1.3221  0.8555
  723MOL0     H97553   5.356  10.024   5.496 -0.5074  0.6304 -0.3262
  723MOL0     H97554   5.419  10.272   5.347  0.3543  2.0532  2.6230
  723MOL0     H97555   5.441  10.254   5.522  2.6072 -0.1716 -0.1813
  723MOL0     H97556   5.656  10.162   5.615 -1.6130  2.3413  0.5816
  723MOL0     H97557   5.925   9.945   5.520 -1.0699  0.1408  2.8298
  723MOL0     H97558   5.973  10.098   5.452  0.0869 -3.1247 -1.3480
  723MOL0     H97559   5.887  10.210   5.662  3.4496  1.4145 -0.2811
  723MOL0     H97560   5.866  10.048   5.739  1.9042 -1.5153  1.2019
  723MOL0     H97561   6.068  10.095   5.820 -1.4033  0.1383  0.0553
  723MOL0     H97562   6.120  10.185   5.680  0.9036 -0.4852  1.5095
  723MOL0     H97563   6.144   9.945   5.560 -0.0925 -0.0919 -0.3413
  723MOL0     H97564   6.078   9.893   5.717  1.6470  0.0198  2.9361
  723MOL0     H97565   6.498   9.882   5.769 -1.3045  0.7332  2.1887
  723MOL0     H97566   6.707   9.987   5.694  0.6123  1.6702  0.4383
  723MOL0     H97567   6.953  10.417   5.560  1.4988 -4.2411  0.4277
  723MOL0     H97568   7.145  10.448   5.424 -0.4685 -0.5598  0.5450
  723MOL0     H97569   7.280  10.316   5.277  0.7861  1.1462  2.2183
  723MOL0     H97570   7.346  10.347   5.115  2.8598  1.3135  1.5692
  723MOL0     H97571   7.375  10.580   5.141 -3.8645 -0.1171 -0.4029
  723MOL0     H97572   7.298  10.559   5.303 -0.8684 -0.1475 -0.1190
  723MOL0     H97573   7.491  10.400   5.377  0.5074 -0.0650 -0.0245
  723MOL0     H97574   7.569  10.440   5.224 -0.8807 -1.1991  0.0742
  723MOL0     H97575   7.479  10.623   5.446 -4.5928 -1.9360 -1.7355
  723MOL0     H97576   7.540  10.691   5.298 -1.0309 -0.9066 -0.3368
  723MOL0     H97577   7.744  10.552   5.325 -2.0543  0.5367 -2.2209
  723MOL0     H97578   7.694  10.509   5.489  1.4486  2.4480  2.5940
  723MOL0     H97579   7.697  10.742   5.569 -0.7985 -0.7158  0.1193
  723MOL0     H97580   7.848  10.680   5.513 -1.5582  0.5253  4.4437
  723MOL0     H97581   7.804  10.921   5.431  1.7906 -1.6334 -0.1258
  723MOL0     H97582   7.655  10.865   5.363 -1.7998 -1.2140  0.8181
  723MOL0     H97583   7.801  10.739   5.180  3.6155 -1.9410  0.8028
  723MOL0     H97584   7.817  10.912   5.186 -3.9571 -0.1101  0.6677
  723MOL0     H97585   6.923  10.361   5.070 -4.1705 -1.5820 -0.1785
  723MOL0     H97586   6.715  10.323   5.221 -0.3140 -0.3427 -1.2078
  723MOL0     H97587   6.466  10.251   5.450  0.2704 -0.9544 -0.6340
  723MOL0     H97588   6.270  10.166   5.536 -0.6827  0.4061  1.3737
  723MOL0     H97589   4.536   9.627   5.564  0.1566 -2.1237 -0.8143
  723MOL0     H97590   4.325   9.501   5.607 -0.4166 -1.7679 -2.2975
  723MOL0     H97591   3.833   9.596   5.472 -2.3345 -0.2426 -0.9519
  723MOL0     H97592   3.602   9.565   5.491 -0.4359 -0.2854  1.3062
  723MOL0     H97593   3.368   9.470   5.486 -1.4362  1.4426  0.5860
  723MOL0     H97594   3.433   9.552   5.638  3.3893 -1.7097  2.1361
  723MOL0     H97595   3.272   9.385   5.759 -0.6489 -0.3289  0.9150
  723MOL0     H97596   3.194   9.365   5.602  0.1912 -0.3710  2.0388
  723MOL0     H97597   3.139   9.609   5.580  0.0778  0.3494 -0.5040
  723MOL0     H97598   3.243   9.634   5.724  0.8781  0.6981 -2.5871
  723MOL0     H97599   2.975   9.469   5.706 -1.4376  1.7441 -0.2632
  723MOL0     H97600   3.085   9.485   5.844  0.4580 -0.9346 -0.9955
  723MOL0     H97601   2.910   9.840   5.894  0.8558  0.3456 -0.1401
  723MOL0     H97602   3.675   9.190   5.710  2.4133 -0.9984  1.2554
  723MOL0     H97603   3.985   9.145   5.612  2.3621 -1.3162  0.8271
  723MOL0     H97604   3.996   9.227   5.773  1.4229  0.6084 -2.3328
  723MOL0     H97605   3.864   9.111   5.737 -1.2363  0.9487  1.2555
  724MOL0     O97606   5.563   5.691   4.362 -0.0357  0.3147 -0.2059
  724MOL0     C97607   5.543   5.659   4.247  0.6593 -0.0769 -0.0563
  724MOL0     O97608   5.630   5.681   4.141 -0.4389  0.9368  0.1177
  724MOL0     C97609   5.756   5.721   4.164 -0.0202  0.2427 -0.1420
  724MOL0     C97610   5.777   5.845   4.231 -0.0662 -0.3434  0.3947
  724MOL0     C97611   5.914   5.888   4.248 -0.3069  0.0890  0.6621
  724MOL0     C97612   6.018   5.815   4.197  0.3184  0.8966 -0.4565
  724MOL0     O97613   6.151   5.846   4.204  0.1382 -0.2963  0.2464
  724MOL0     C97614   6.200   5.912   4.320 -0.3808  0.0288  0.0344
  724MOL0     C97615   6.349   5.940   4.306  0.7510  0.3689 -0.1829
  724MOL0     C97616   6.403   6.037   4.421 -0.0484  0.9483  0.0580
  724MOL0     C97617   6.559   6.028   4.430 -0.7595 -0.3737 -0.7592
  724MOL0     C97618   6.628   6.122   4.330 -0.1751  0.0899 -0.1059
  724MOL0     C97619   6.775   6.076   4.310  0.5934 -0.6373 -0.7601
  724MOL0     C97620   6.851   6.185   4.239 -0.7761 -0.7657 -0.2290
  724MOL0     C97621   6.999   6.144   4.221 -0.1562 -0.6191  0.8267
  724MOL0     N97622   7.094   6.257   4.198  0.2291 -0.1509  0.2875
  724MOL0     C97623   7.121   6.369   4.284  0.7855  0.5352 -1.0283
  724MOL0     C97624   7.223   6.442   4.226  0.2784  0.1816  0.9805
  724MOL0     C97625   7.283   6.577   4.267  0.2285  0.0318  0.0719
  724MOL0     C97626   7.427   6.597   4.213 -0.0293  0.2697 -0.6196
  724MOL0     C97627   7.496   6.717   4.282  0.7226 -0.0094 -0.0853
  724MOL0     C97628   7.643   6.740   4.249 -0.5308 -0.2911 -0.1054
  724MOL0     O97629   7.691   6.860   4.309 -0.4044 -0.7961 -0.1961
  724MOL0     C97630   7.820   6.900   4.283  0.0654 -0.4814 -0.2073
  724MOL0     C97631   7.908   6.841   4.194  0.4544  0.2834  0.3115
  724MOL0     C97632   8.019   6.918   4.152  0.1299  0.1307  0.3312
  724MOL0     C97633   8.060   7.039   4.210 -0.6257 -0.6949 -0.0503
  724MOL0     C97634   8.192   7.099   4.181 -0.4092  0.4592  0.0485
  724MOL0     O97635   8.212   7.227   4.232  0.4111 -0.5882  0.2665
  724MOL0     C97636   8.302   7.311   4.180 -1.4577  0.4449  1.0155
  724MOL0     C97637   8.431   7.272   4.122  0.0055  0.3218 -0.1064
  724MOL0     C97638   8.509   7.373   4.077  0.4929  0.6892  0.2753
  724MOL0     C97639   8.473   7.505   4.052 -0.2506 -0.0879 -0.4704
  724MOL0     O97640   8.569   7.593   3.992  0.4869  0.6614  0.7344
  724MOL0     C97641   8.525   7.729   3.972  0.1809  0.8418  0.0497
  724MOL0     C97642   8.628   7.789   3.880  0.2785  0.1891 -0.2505
  724MOL0     C97643   8.760   7.811   3.956  1.0533 -0.4468  0.4107
  724MOL0     C97644   8.859   7.875   3.863 -0.5541 -0.7974 -0.3295
  724MOL0     C97645   9.000   7.901   3.914  0.3438 -0.7874  1.0764
  724MOL0     C97646   9.086   7.970   3.807 -0.2453 -0.2655  0.6395
  724MOL0     C97647   9.230   7.987   3.841 -0.6055 -0.2640  0.0422
  724MOL0     C97648   9.327   8.031   3.724  0.5227  0.4972  0.1510
  724MOL0    Cl97649   9.473   8.087   3.802  0.2935  0.2906 -0.0837
  724MOL0     C97650   8.344   7.543   4.096  0.1902  0.3852  0.2993
  724MOL0     C97651   8.265   7.442   4.156 -0.0336 -0.4594  0.7299
  724MOL0     O97652   8.260   7.043   4.099 -0.3642 -0.1287 -0.6198
  724MOL0     C97653   7.979   7.090   4.309  0.2366 -0.0692  0.1915
  724MOL0     C97654   7.852   7.028   4.335 -0.7513  0.6312  0.8185
  724MOL0     N97655   7.248   6.370   4.108  0.8676  0.0197  0.1610
  724MOL0     N97656   7.170   6.264   4.087  0.1587 -0.3120  0.6579
  724MOL0     C97657   5.989   5.698   4.122 -0.4565  0.1262  0.3056
  724MOL0     C97658   5.865   5.647   4.110  1.0665  0.7283  0.0880
  724MOL0     C97659   5.406   5.600   4.223  0.2760 -0.0084  0.0739
  724MOL0     C97660   5.300   5.622   4.314  0.5566  0.4954 -0.0396
  724MOL0     C97661   5.173   5.570   4.296 -0.6379 -0.2319 -0.4918
  724MOL0     C97662   5.144   5.486   4.184 -0.4364  0.2240  0.2150
  724MOL0     O97663   5.013   5.447   4.169  0.0566 -0.6831  0.0403
  724MOL0     C97664   4.973   5.360   4.060  0.5413  0.1785  0.4271
  724MOL0     C97665   4.828   5.331   4.089  0.3622  0.3222  0.0557
  724MOL0     C97666   4.810   5.254   4.226 -0.3065  0.0284  0.0377
  724MOL0     C97667   4.663   5.234   4.248  0.4949 -0.2161  0.1738
  724MOL0     C97668   4.590   5.360   4.276  0.4111 -0.1868 -0.2817
  724MOL0     C97669   4.519   5.460   4.299  0.5448  0.4372 -0.1914
  724MOL0     C97670   5.248   5.461   4.091 -0.0330  0.3296 -0.1435
  724MOL0     C97671   5.376   5.514   4.109 -0.1295  0.9386 -0.2509
  724MOL0     C97672   5.480   5.472   4.009 -0.4983 -0.1250 -0.2292
  724MOL0     H97673   5.704   5.908   4.280  0.8828 -0.0621  1.4724
  724MOL0     H97674   5.942   5.984   4.290 -2.1767  0.0482  2.1164
  724MOL0     H97675   6.162   6.013   4.336  2.8611  1.2439  0.8579
  724MOL0     H97676   6.181   5.851   4.409  1.8779 -2.0349 -0.7769
  724MOL0     H97677   6.364   5.992   4.212 -0.7527 -1.6902 -1.6420
  724MOL0     H97678   6.398   5.842   4.314  0.5350  0.0543 -2.2263
  724MOL0     H97679   6.344   5.992   4.502 -0.4566 -2.5434 -1.9526
  724MOL0     H97680   6.372   6.142   4.413 -1.7721  0.4352 -0.6481
  724MOL0     H97681   6.574   6.068   4.530  2.3923  5.4691 -3.0735
  724MOL0     H97682   6.594   5.925   4.433 -0.8302 -0.3897 -0.4697
  724MOL0     H97683   6.583   6.110   4.231 -1.1616  1.2939  0.1744
  724MOL0     H97684   6.619   6.225   4.366  1.4056 -0.3924  1.8685
  724MOL0     H97685   6.817   6.060   4.410  1.1733  3.5846 -0.1460
  724MOL0     H97686   6.781   5.982   4.254  0.3846 -2.3748  1.9632
  724MOL0     H97687   6.845   6.271   4.306 -1.1769  0.4663 -1.7718
  724MOL0     H97688   6.803   6.215   4.145 -1.2574 -0.0449  0.2392
  724MOL0     H97689   7.034   6.101   4.316 -1.3174  1.2544  2.1879
  724MOL0     H97690   6.998   6.070   4.141  0.1328  1.9559 -1.7324
  724MOL0     H97691   7.072   6.400   4.376  2.1839 -1.6101  0.5419
  724MOL0     H97692   7.214   6.654   4.234 -2.7122 -3.4825 -2.8651
  724MOL0     H97693   7.291   6.568   4.376  2.2637 -3.8302 -0.1863
  724MOL0     H97694   7.486   6.505   4.215  2.1376  1.6300  0.0090
  724MOL0     H97695   7.419   6.610   4.104 -4.0091  0.5754 -0.4626
  724MOL0     H97696   7.495   6.703   4.390 -3.1238 -0.9965 -0.1044
  724MOL0     H97697   7.444   6.812   4.269 -1.8504 -0.6061  3.9278
  724MOL0     H97698   7.659   6.757   4.142 -0.4496  0.9249  0.0859
  724MOL0     H97699   7.689   6.644   4.274  0.4913  0.2142  0.0171
  724MOL0     H97700   7.878   6.748   4.148  0.6642  0.1280  0.4872
  724MOL0     H97701   8.084   6.888   4.071  3.2933  1.2162  2.2827
  724MOL0     H97702   8.465   7.169   4.131 -0.0130  0.1251 -1.8470
  724MOL0     H97703   8.611   7.337   4.060  0.4438 -0.1694  1.6735
  724MOL0     H97704   8.426   7.733   3.925  0.5785 -1.7318 -1.2194
  724MOL0     H97705   8.526   7.775   4.071  0.8778  0.4881  0.2159
  724MOL0     H97706   8.649   7.712   3.806 -2.7144 -2.2759  1.2723
  724MOL0     H97707   8.587   7.880   3.835 -0.8379  0.7561  1.7832
  724MOL0     H97708   8.746   7.862   4.052 -2.3562 -0.8907  0.2731
  724MOL0     H97709   8.797   7.711   3.982  0.2417 -1.5690 -2.3926
  724MOL0     H97710   8.822   7.976   3.841  0.4869  0.1829  2.0989
  724MOL0     H97711   8.873   7.825   3.766  0.5971  0.0260 -0.6092
  724MOL0     H97712   9.035   7.804   3.950  3.2184  0.3881  1.7505
  724MOL0     H97713   8.995   7.968   4.001  0.0203 -0.1335  0.5599
  724MOL0     H97714   9.087   7.917   3.711  2.1994  0.6493  0.0904
  724MOL0     H97715   9.033   8.063   3.786 -0.7950 -1.0216 -1.6828
  724MOL0     H97716   9.267   7.891   3.879  0.1753 -0.3864 -0.9834
  724MOL0     H97717   9.227   8.050   3.929 -3.6494  0.8777 -0.7555
  724MOL0     H97718   9.340   7.960   3.642  0.2988  0.5827  0.0412
  724MOL0     H97719   9.285   8.127   3.693 -2.0393  0.3048  2.6511
  724MOL0     H97720   8.313   7.646   4.079  1.6000  0.5310 -1.7287
  724MOL0     H97721   8.175   7.483   4.200 -0.0967 -0.2830  0.4406
  724MOL0     H97722   8.003   7.189   4.346  1.4436 -0.3102  0.0945
  724MOL0     H97723   7.783   7.071   4.407  0.8797  2.7641  1.2157
  724MOL0     H97724   6.074   5.651   4.075 -1.2941 -1.4409  0.2988
  724MOL0     H97725   5.856   5.551   4.061  0.0282  0.5244  0.6632
  724MOL0     H97726   5.312   5.670   4.411  1.1029  0.3041 -0.0108
  724MOL0     H97727   5.098   5.609   4.365  0.2264  1.4963 -0.4610
  724MOL0     H97728   5.039   5.273   4.056 -0.5852 -0.6554 -2.5257
  724MOL0     H97729   4.983   5.418   3.968  2.6340 -0.7361  0.0264
  724MOL0     H97730   4.797   5.268   4.005  0.7254 -0.1423  0.2664
  724MOL0     H97731   4.770   5.424   4.087  0.8811  0.6391 -0.4264
  724MOL0     H97732   4.852   5.295   4.318 -0.0554 -1.0155  0.4047
  724MOL0     H97733   4.841   5.150   4.207  0.9569  0.3104  0.4297
  724MOL0     H97734   4.632   5.185   4.155  4.4300 -0.4152 -1.2309
  724MOL0     H97735   4.636   5.161   4.324 -2.8146 -0.7200 -1.3530
  724MOL0     H97736   4.456   5.547   4.300 -0.0267  0.0315  1.0085
  724MOL0     H97737   5.230   5.401   4.002  0.3384  1.5259 -1.0551
  724MOL0     H97738   5.576   5.454   4.057 -0.7050 -0.9296 -0.1035
  724MOL0     H97739   5.461   5.384   3.948  0.4154 -0.1865 -0.4328
  724MOL0     H97740   5.480   5.556   3.939  0.8774  1.2738  1.3464
  725MOL0     O97741   3.729   2.824   9.593  0.4339 -0.6413  0.0557
  725MOL0     C97742   3.664   2.773   9.683 -0.3553  0.6780 -1.6517
  725MOL0     O97743   3.705   2.658   9.748  0.0227 -0.0344  0.6087
  725MOL0     C97744   3.832   2.606   9.739 -1.1398 -0.6709  0.1612
  725MOL0     C97745   3.943   2.689   9.712 -0.1272  0.1150 -0.6647
  725MOL0     C97746   4.069   2.629   9.735 -0.8520 -0.7317 -0.2700
  725MOL0     C97747   4.094   2.498   9.782  0.2024 -0.0685 -0.1837
  725MOL0     O97748   4.216   2.433   9.785  0.3637  0.2768 -0.3891
  725MOL0     C97749   4.332   2.512   9.779 -0.0202 -0.1231 -0.1736
  725MOL0     C97750   4.443   2.438   9.850 -0.2839 -0.5776 -0.6302
  725MOL0     C97751   4.573   2.532   9.865  0.7047  0.0257  0.2784
  725MOL0     C97752   4.542   2.684   9.905  0.0309 -0.3040  0.4743
  725MOL0     C97753   4.675   2.746   9.931 -1.3414  0.2065  0.4090
  725MOL0     C97754   4.737   2.794   9.796  0.0656  0.1485 -0.2046
  725MOL0     C97755   4.879   2.837   9.813 -0.9015  0.5470  0.0269
  725MOL0     C97756   4.894   2.979   9.881 -0.5434 -0.7092 -0.2635
  725MOL0     N97757   5.026   3.042   9.850  0.0897 -0.5199  0.3605
  725MOL0     C97758   5.151   2.999   9.871  0.7516  0.3889  0.5699
  725MOL0     C97759   5.235   3.099   9.824 -0.7211  0.2092  0.0306
  725MOL0     C97760   5.389   3.099   9.815 -0.1038  0.5656  0.6016
  725MOL0     C97761   5.431   3.211   9.897 -0.9470  0.0731  0.4458
  725MOL0     C97762   5.583   3.222   9.911 -0.4838 -0.1069  0.2828
  725MOL0     C97763   5.656   3.255   9.777 -1.1088 -0.1935 -0.5225
  725MOL0     O97764   5.785   3.290   9.815 -0.2881  0.2507  0.4674
  725MOL0     C97765   5.880   3.303   9.722  0.3622 -0.9023  0.2426
  725MOL0     C97766   5.853   3.364   9.599 -1.1116 -0.3774 -0.4008
  725MOL0     C97767   5.966   3.396   9.518  0.6615 -0.2313  0.2496
  725MOL0     C97768   6.098   3.370   9.551  1.1563 -0.7709 -0.1591
  725MOL0     C97769   6.209   3.411   9.467  0.4849  0.2426 -1.7796
  725MOL0     O97770   6.332   3.366   9.505  0.5272  0.0907 -0.4358
  725MOL0     C97771   6.434   3.411   9.432  0.1777  0.3040  0.0097
  725MOL0     C97772   6.455   3.387   9.287  0.8963 -0.6112 -0.7288
  725MOL0     C97773   6.568   3.419   9.213 -0.1180 -0.2669 -1.2481
  725MOL0     C97774   6.676   3.479   9.287  0.4898 -0.1798  0.6061
  725MOL0     O97775   6.805   3.488   9.240 -0.5512  0.2685  0.6791
  725MOL0     C97776   6.823   3.532   9.101 -0.5485 -0.0143  0.4869
  725MOL0     C97777   6.944   3.632   9.089 -0.1140 -0.5126 -0.2225
  725MOL0     C97778   7.071   3.575   9.015 -1.0319  0.4543  0.1406
  725MOL0     C97779   7.200   3.650   9.060 -0.0471 -1.0295 -0.0874
  725MOL0     C97780   7.329   3.589   9.000 -0.6097  0.3391 -0.3920
  725MOL0     C97781   7.368   3.463   9.085  0.0142  0.2395  0.2809
  725MOL0     C97782   7.503   3.413   9.037 -0.0276  0.0565  0.6731
  725MOL0     C97783   7.509   3.347   8.900  0.1794  0.1509 -0.4318
  725MOL0    Cl97784   7.682   3.351   8.867  0.0832  0.1749 -0.1150
  725MOL0     C97785   6.657   3.510   9.421 -0.8920 -0.2844  0.7808
  725MOL0     C97786   6.544   3.478   9.488  0.3064  0.1820  0.1495
  725MOL0     O97787   6.178   3.471   9.359 -0.3894  0.0465 -0.1183
  725MOL0     C97788   6.122   3.313   9.669 -0.5522  0.4873 -0.3583
  725MOL0     C97789   6.012   3.291   9.759  0.7269 -0.4784 -0.5363
  725MOL0     N97790   5.155   3.197   9.772 -0.0671  0.5880  0.1937
  725MOL0     N97791   5.035   3.168   9.790 -0.1091  0.0526  0.7790
  725MOL0     C97792   3.984   2.424   9.810 -0.1985 -0.2338  0.8371
  725MOL0     C97793   3.858   2.476   9.790 -0.3374  0.3629 -0.0062
  725MOL0     C97794   3.543   2.834   9.737  0.6211  0.6457  0.0520
  725MOL0     C97795   3.454   2.744   9.797  0.4845 -0.3034  0.5368
  725MOL0     C97796   3.329   2.785   9.845 -0.1906 -0.0326 -0.0352
  725MOL0     C97797   3.302   2.920   9.839  0.4531  0.0942 -0.4830
  725MOL0     O97798   3.188   2.981   9.875  0.5792  0.1560 -0.2768
  725MOL0     C97799   3.081   2.902   9.924 -0.9437  0.1983  0.1136
  725MOL0     C97800   2.961   2.983   9.934  0.2755  0.6079 -0.2077
  725MOL0     C97801   2.975   3.105  10.039 -0.1929  0.8827  0.0289
  725MOL0     C97802   2.858   3.150  10.124  0.5092 -0.3052  0.2270
  725MOL0     C97803   2.736   3.169  10.040  0.0288 -0.1996  1.0079
  725MOL0     C97804   2.632   3.181   9.979  0.3515  0.4347 -0.1585
  725MOL0     C97805   3.388   3.000   9.765 -0.9640 -0.4505 -0.6680
  725MOL0     C97806   3.503   2.961   9.707 -0.4416 -0.5263  0.1119
  725MOL0     C97807   3.576   3.068   9.627 -0.3548 -0.4224  0.0098
  725MOL0     H97808   3.944   2.787   9.665 -1.8710 -0.2794 -1.6091
  725MOL0     H97809   4.150   2.699   9.712  0.4083 -1.3414  1.9424
  725MOL0     H97810   4.353   2.532   9.674  1.7083 -0.1261  0.1411
  725MOL0     H97811   4.308   2.609   9.824  0.1144  0.4978 -1.4169
  725MOL0     H97812   4.474   2.342   9.807  4.1430  0.6140 -0.6066
  725MOL0     H97813   4.408   2.418   9.951  0.6927  2.0759  0.3327
  725MOL0     H97814   4.614   2.530   9.764 -0.2402 -1.1605 -0.1021
  725MOL0     H97815   4.641   2.488   9.938  0.5233 -0.4885  0.1364
  725MOL0     H97816   4.502   2.732   9.815 -0.3071  0.1089  0.8392
  725MOL0     H97817   4.474   2.695   9.991 -2.0886 -0.7481 -1.0538
  725MOL0     H97818   4.655   2.834   9.992 -2.2289  0.2319  0.1011
  725MOL0     H97819   4.740   2.680   9.989 -1.2069  0.4684  0.5589
  725MOL0     H97820   4.732   2.714   9.721 -0.6708  0.5207 -0.5663
  725MOL0     H97821   4.675   2.879   9.766 -3.1858 -1.8266  0.4990
  725MOL0     H97822   4.925   2.834   9.714  0.3644  1.3075  0.5578
  725MOL0     H97823   4.948   2.768   9.864  1.8291  3.6287  0.8966
  725MOL0     H97824   4.820   3.045   9.835  1.0580  2.0334  0.8495
  725MOL0     H97825   4.888   2.990   9.989  1.3219  1.8717 -0.3240
  725MOL0     H97826   5.181   2.905   9.916 -2.5476 -1.0261  0.1182
  725MOL0     H97827   5.420   3.004   9.858 -0.5857  0.0310 -0.1911
  725MOL0     H97828   5.427   3.098   9.712 -1.2610 -2.0951  0.1106
  725MOL0     H97829   5.407   3.311   9.859  0.7265  0.1981 -0.4257
  725MOL0     H97830   5.395   3.203  10.000  0.4702 -0.0704  0.9509
  725MOL0     H97831   5.617   3.122   9.938  0.4724 -0.0637 -0.6923
  725MOL0     H97832   5.609   3.295   9.988 -1.0569 -0.6863  1.0341
  725MOL0     H97833   5.605   3.338   9.728  0.7014  1.6944  0.6320
  725MOL0     H97834   5.654   3.164   9.716  1.2221 -0.3967 -0.3667
  725MOL0     H97835   5.753   3.399   9.577 -0.8959  1.6390  1.4177
  725MOL0     H97836   5.944   3.455   9.430  0.4651  3.5133  2.5981
  725MOL0     H97837   6.387   3.333   9.222  2.8416  0.0655 -3.5272
  725MOL0     H97838   6.579   3.376   9.114 -1.2538 -0.1199 -1.4497
  725MOL0     H97839   6.841   3.447   9.035 -2.0311  0.6064 -0.7817
  725MOL0     H97840   6.738   3.577   9.050 -0.0934  0.3926  0.0712
  725MOL0     H97841   6.911   3.728   9.047  3.8056  0.6976 -0.9442
  725MOL0     H97842   6.989   3.647   9.187  2.3383 -0.6602 -1.2675
  725MOL0     H97843   7.088   3.474   9.056  0.6085  1.8909  3.4710
  725MOL0     H97844   7.059   3.566   8.907 -0.0505 -0.3840  0.0799
  725MOL0     H97845   7.212   3.669   9.168  1.4223  2.3867 -0.7060
  725MOL0     H97846   7.180   3.747   9.014 -0.2736 -1.0524 -0.0401
  725MOL0     H97847   7.414   3.658   8.997 -0.7923  0.5320 -1.8552
  725MOL0     H97848   7.306   3.564   8.896  0.2935 -1.2194 -0.2314
  725MOL0     H97849   7.366   3.487   9.192 -2.5988 -1.4459  0.7037
  725MOL0     H97850   7.301   3.377   9.082  0.7644 -0.3299 -0.7312
  725MOL0     H97851   7.535   3.350   9.120 -1.9526  0.4619  1.7943
  725MOL0     H97852   7.574   3.496   9.032  0.6557 -0.5949 -1.6609
  725MOL0     H97853   7.470   3.245   8.897 -2.3976  1.0680 -1.2680
  725MOL0     H97854   7.453   3.398   8.821 -2.2970 -1.5523  0.1036
  725MOL0     H97855   6.744   3.537   9.480 -0.1096 -4.5855  1.9123
  725MOL0     H97856   6.532   3.502   9.593 -3.1629 -0.7265  0.0745
  725MOL0     H97857   6.217   3.275   9.704 -0.8231  0.3971  0.2941
  725MOL0     H97858   6.033   3.251   9.857  1.4977  1.2282  0.0385
  725MOL0     H97859   3.995   2.322   9.847 -0.8966  0.3086  2.6234
  725MOL0     H97860   3.778   2.410   9.823 -0.4265  0.3610 -0.2202
  725MOL0     H97861   3.475   2.638   9.808 -1.2195 -0.5727  1.4850
  725MOL0     H97862   3.273   2.709   9.898 -1.7320 -0.4377 -2.1259
  725MOL0     H97863   3.111   2.865  10.023  0.9146  0.4551 -0.3046
  725MOL0     H97864   3.066   2.812   9.864  2.5781 -0.9912  0.7568
  725MOL0     H97865   2.876   2.918   9.957  1.2872 -0.4262  0.7255
  725MOL0     H97866   2.939   3.034   9.840 -0.0857  2.7444  0.9694
  725MOL0     H97867   3.018   3.186   9.980  4.3591 -1.5481 -0.4528
  725MOL0     H97868   3.047   3.074  10.116 -2.2681 -0.8456  1.4121
  725MOL0     H97869   2.835   3.084  10.208  2.9768  0.4624  1.5976
  725MOL0     H97870   2.866   3.251  10.164  0.6373  1.1413 -3.1451
  725MOL0     H97871   2.536   3.188   9.932  0.4429 -3.0893 -1.1908
  725MOL0     H97872   3.355   3.103   9.755  1.2440  0.1387 -2.8391
  725MOL0     H97873   3.507   3.151   9.606 -2.2774 -1.9589 -0.0187
  725MOL0     H97874   3.668   3.107   9.672 -2.2413  3.1132  1.1599
  725MOL0     H97875   3.602   3.022   9.531 -0.9907 -1.6803  0.4143
  726MOL0     O97876   8.397   6.043   1.818  0.1836  0.2172  0.1921
  726MOL0     C97877   8.448   5.933   1.822 -0.4886 -0.1320 -0.2566
  726MOL0     O97878   8.387   5.819   1.853 -0.5993 -0.2978 -0.8856
  726MOL0     C97879   8.255   5.815   1.886 -0.3172  0.3892 -0.5231
  726MOL0     C97880   8.189   5.697   1.845  0.1629 -0.2709  0.3190
  726MOL0     C97881   8.054   5.682   1.871 -0.0274 -0.4743  0.2236
  726MOL0     C97882   7.985   5.785   1.935  0.6483 -0.2555 -0.5676
  726MOL0     O97883   7.847   5.781   1.946  0.8288 -0.2296  0.1944
  726MOL0     C97884   7.788   5.688   2.033  0.5071 -0.1800 -0.4533
  726MOL0     C97885   7.642   5.710   2.050 -0.1090 -0.1721  0.5807
  726MOL0     C97886   7.563   5.611   2.138 -0.3527 -0.5681  0.9787
  726MOL0     C97887   7.415   5.625   2.132 -0.9938  0.3114  1.1609
  726MOL0     C97888   7.335   5.521   2.206  0.5959 -0.1463  0.1824
  726MOL0     C97889   7.346   5.379   2.155  0.2237 -0.0202 -0.0798
  726MOL0     C97890   7.292   5.270   2.233 -0.2365  1.5338 -0.6105
  726MOL0     C97891   7.367   5.231   2.373  0.7677  0.2593  0.2110
  726MOL0     N97892   7.511   5.234   2.350  0.4014 -0.1441 -0.1513
  726MOL0     C97893   7.592   5.334   2.396 -0.3303  1.0466 -1.3352
  726MOL0     C97894   7.717   5.293   2.369  0.8173  0.5244  0.5180
  726MOL0     C97895   7.838   5.365   2.412  0.0145  0.0477  0.7563
  726MOL0     C97896   7.930   5.395   2.288 -0.2671  0.6274 -0.4941
  726MOL0     C97897   7.998   5.265   2.239  0.6544  0.0604  0.1303
  726MOL0     C97898   8.073   5.185   2.344 -0.4808  0.2008 -1.0478
  726MOL0     O97899   8.147   5.271   2.435  0.2482  0.4682 -0.4970
  726MOL0     C97900   8.274   5.319   2.396  0.3455  0.2301 -0.0171
  726MOL0     C97901   8.285   5.417   2.302 -0.9212  0.7915  0.1679
  726MOL0     C97902   8.408   5.443   2.241 -0.7309 -0.3952 -0.1641
  726MOL0     C97903   8.531   5.395   2.284 -0.0846  0.1263 -0.8692
  726MOL0     C97904   8.662   5.424   2.234  0.6080  0.3104  0.2322
  726MOL0     O97905   8.666   5.521   2.145 -0.7125  0.3656  0.2878
  726MOL0     C97906   8.790   5.556   2.102  0.0489  0.3156  0.4902
  726MOL0     C97907   8.860   5.471   2.020  0.1208 -0.4205  0.8961
  726MOL0     C97908   8.983   5.516   1.971  0.3758 -0.1674  0.2958
  726MOL0     C97909   9.037   5.642   2.007 -0.5078 -1.0242  0.7446
  726MOL0     O97910   9.164   5.690   1.974 -0.5518  0.2650 -0.1496
  726MOL0     C97911   9.224   5.662   1.848  0.3635 -0.1305  0.2972
  726MOL0     C97912   9.373   5.712   1.843  0.4894 -0.3816  0.0739
  726MOL0     C97913   9.444   5.672   1.971  0.9062 -0.9249 -0.3567
  726MOL0     C97914   9.597   5.680   1.950 -0.4506 -0.5081 -0.7567
  726MOL0     C97915   9.655   5.643   2.091 -0.4519  0.0664 -0.4550
  726MOL0     C97916   9.802   5.688   2.093  0.4964 -0.5096 -0.0362
  726MOL0     C97917   9.865   5.674   2.229 -0.4607  0.6764 -0.0519
  726MOL0     C97918  10.027   5.694   2.232  0.2433 -0.7574 -0.4377
  726MOL0    Cl97919  10.077   5.852   2.219 -0.1472 -0.0625 -0.2061
  726MOL0     C97920   8.966   5.722   2.095  0.8811  0.3168 -0.0410
  726MOL0     C97921   8.845   5.682   2.149  0.4411  0.6510 -0.2445
  726MOL0     O97922   8.757   5.386   2.296  0.4574  0.3697  0.3576
  726MOL0     C97923   8.519   5.300   2.391  0.7436  0.6964 -0.0751
  726MOL0     C97924   8.394   5.256   2.442 -0.4791 -0.1644  1.0771
  726MOL0     N97925   7.710   5.171   2.295 -0.7946 -0.0644 -0.1467
  726MOL0     N97926   7.587   5.137   2.287 -0.7347 -0.1366  0.0087
  726MOL0     C97927   8.052   5.902   1.976  0.3351 -0.3825  0.3561
  726MOL0     C97928   8.186   5.917   1.960 -0.0641  0.5707 -0.1634
  726MOL0     C97929   8.594   5.921   1.780 -0.5532  0.0812 -0.0602
  726MOL0     C97930   8.668   6.043   1.749  0.1059  0.6819 -0.3118
  726MOL0     C97931   8.810   6.039   1.736  0.0461  0.1172  0.5641
  726MOL0     C97932   8.889   5.923   1.742  1.0343 -0.6836  0.6594
  726MOL0     O97933   9.026   5.921   1.740  0.3546  0.3372 -0.2153
  726MOL0     C97934   9.097   6.026   1.659 -0.1420  0.0743 -1.0553
  726MOL0     C97935   9.219   5.966   1.582 -0.2496  0.2543 -0.5235
  726MOL0     C97936   9.326   6.069   1.537 -0.8610 -0.2815 -0.1047
  726MOL0     C97937   9.451   5.990   1.480  0.1988 -1.2535 -0.5437
  726MOL0     C97938   9.555   6.085   1.444 -1.0339 -0.0966 -0.4151
  726MOL0     C97939   9.639   6.174   1.404  0.0294  0.5405  0.0582
  726MOL0     C97940   8.822   5.811   1.769 -0.0868 -0.2570 -0.5586
  726MOL0     C97941   8.680   5.806   1.781 -0.5205  0.1906  0.4348
  726MOL0     C97942   8.630   5.663   1.814  0.4128  0.2214 -0.0663
  726MOL0     H97943   8.229   5.614   1.788  1.0608  0.3058  0.0825
  726MOL0     H97944   8.003   5.596   1.830  1.6485 -1.2183 -0.3896
  726MOL0     H97945   7.813   5.584   2.011  1.0538 -0.9613  3.1508
  726MOL0     H97946   7.836   5.714   2.128  0.0911  0.1880 -0.3425
  726MOL0     H97947   7.610   5.699   1.946  1.9465 -1.6451  0.0320
  726MOL0     H97948   7.616   5.812   2.079 -3.4877 -1.2379  1.7793
  726MOL0     H97949   7.592   5.626   2.243  0.9111 -3.8197  1.2191
  726MOL0     H97950   7.589   5.511   2.103 -1.5994 -0.7428  0.5144
  726MOL0     H97951   7.398   5.725   2.172  2.4846  1.5663 -0.1447
  726MOL0     H97952   7.376   5.636   2.031  0.7059  0.5510  0.4984
  726MOL0     H97953   7.369   5.518   2.310  0.3397  0.7872  0.2987
  726MOL0     H97954   7.226   5.532   2.208  0.3482 -2.0860  0.0111
  726MOL0     H97955   7.295   5.372   2.059 -2.3006 -0.9412  1.2519
  726MOL0     H97956   7.454   5.362   2.147  0.7318  3.4477 -3.4424
  726MOL0     H97957   7.294   5.184   2.165  3.5841  0.4051  0.6534
  726MOL0     H97958   7.185   5.282   2.251 -0.7203 -0.1730 -2.1415
  726MOL0     H97959   7.340   5.295   2.457 -2.3788 -1.4208  0.6603
  726MOL0     H97960   7.333   5.134   2.412 -0.4482  1.7473  3.1586
  726MOL0     H97961   7.558   5.421   2.451 -3.2483 -0.3178 -0.7364
  726MOL0     H97962   7.810   5.456   2.466 -0.7868 -0.6539  1.5480
  726MOL0     H97963   7.897   5.304   2.481  0.3575 -1.2005 -0.5703
  726MOL0     H97964   7.883   5.449   2.205  0.8130  2.5522  0.0832
  726MOL0     H97965   8.002   5.467   2.328 -1.7217  0.9330  1.7502
  726MOL0     H97966   8.067   5.287   2.157  1.8492 -3.6070 -0.0504
  726MOL0     H97967   7.928   5.200   2.186  0.2333  0.2755  0.4214
  726MOL0     H97968   8.135   5.109   2.295  0.6144  0.2908  0.1599
  726MOL0     H97969   7.999   5.134   2.406  1.6728  0.0380  1.5498
  726MOL0     H97970   8.202   5.465   2.250 -0.8514 -0.2140 -0.9214
  726MOL0     H97971   8.397   5.519   2.163  1.6915  1.6176  1.2907
  726MOL0     H97972   8.823   5.374   1.988  1.4288 -2.6597  5.3848
  726MOL0     H97973   9.043   5.458   1.901  1.5469  0.2990  0.8745
  726MOL0     H97974   9.214   5.555   1.829 -0.1427  0.0864 -0.7540
  726MOL0     H97975   9.182   5.718   1.764 -0.0931  2.9796  2.4092
  726MOL0     H97976   9.419   5.671   1.753 -2.5897  0.9340 -2.3003
  726MOL0     H97977   9.375   5.821   1.838  1.1457 -0.4394 -1.7666
  726MOL0     H97978   9.421   5.737   2.056  3.6140 -0.1948 -0.1132
  726MOL0     H97979   9.415   5.578   2.017  0.4521 -0.4681  0.3010
  726MOL0     H97980   9.641   5.769   1.905  1.9449 -1.1604  0.1611
  726MOL0     H97981   9.628   5.597   1.885  0.3557 -2.0634  1.5053
  726MOL0     H97982   9.668   5.536   2.106 -1.3906  0.0872  0.6395
  726MOL0     H97983   9.604   5.686   2.178 -0.3051 -0.7507  0.0469
  726MOL0     H97984   9.852   5.640   2.009 -0.2387 -1.6738  0.1635
  726MOL0     H97985   9.810   5.795   2.073 -0.1067 -0.1590  1.4093
  726MOL0     H97986   9.841   5.571   2.256 -0.3044  0.1633 -1.7428
  726MOL0     H97987   9.818   5.741   2.302 -4.2467 -2.6828  0.9488
  726MOL0     H97988  10.068   5.661   2.328  1.3868  0.5202 -0.4382
  726MOL0     H97989  10.076   5.637   2.153  2.1043 -0.1469  0.2050
  726MOL0     H97990   9.002   5.817   2.134  1.1794  0.2202 -0.0749
  726MOL0     H97991   8.783   5.738   2.218  2.0412 -0.1540  1.9453
  726MOL0     H97992   8.608   5.249   2.426  0.2840 -1.4376 -1.7831
  726MOL0     H97993   8.403   5.176   2.515 -1.2162 -2.2770 -0.9881
  726MOL0     H97994   7.989   5.984   2.011  2.1416  0.7175  1.1871
  726MOL0     H97995   8.237   6.003   2.001  1.7366 -0.1012 -0.8540
  726MOL0     H97996   8.623   6.140   1.732 -0.7214  0.4218  0.3339
  726MOL0     H97997   8.855   6.138   1.726 -1.3039  0.6081 -1.4526
  726MOL0     H97998   9.142   6.102   1.723  0.2600 -3.0849  2.7737
  726MOL0     H97999   9.030   6.073   1.586 -0.7931  1.1813  0.2069
  726MOL0     H98000   9.181   5.913   1.494  3.0065 -1.6027 -0.9804
  726MOL0     H98001   9.256   5.886   1.647 -1.4965  1.3333  1.6110
  726MOL0     H98002   9.344   6.136   1.621  0.8869  0.3332 -0.9113
  726MOL0     H98003   9.288   6.128   1.452  0.8535 -0.5584 -1.1035
  726MOL0     H98004   9.486   5.919   1.556  0.2991  0.2383  0.8497
  726MOL0     H98005   9.419   5.946   1.385 -0.3243  1.1975 -1.5696
  726MOL0     H98006   9.703   6.254   1.373 -1.2703  1.6274  0.0933
  726MOL0     H98007   8.884   5.722   1.779 -0.9826 -0.7444  1.2323
  726MOL0     H98008   8.578   5.622   1.727  1.1547 -0.4756 -0.1967
  726MOL0     H98009   8.720   5.604   1.836 -0.6396 -1.1206  0.8072
  726MOL0     H98010   8.571   5.652   1.906 -1.4959  0.1885 -1.2391
  727MOL0     O98011   8.438   5.393   4.925 -0.4182 -0.1561  0.2157
  727MOL0     C98012   8.411   5.309   4.836 -0.2140 -0.3035  0.4144
  727MOL0     O98013   8.500   5.279   4.737 -0.3187 -0.3127  0.2639
  727MOL0     C98014   8.614   5.361   4.727 -0.4354  0.0530 -0.1660
  727MOL0     C98015   8.620   5.497   4.681 -0.3883  0.0160  0.3417
  727MOL0     C98016   8.740   5.572   4.699 -0.9238 -0.3323 -0.3580
  727MOL0     C98017   8.861   5.503   4.736 -1.0486  0.3014 -0.2521
  727MOL0     O98018   8.961   5.595   4.751 -0.0924  0.6234  0.2771
  727MOL0     C98019   9.060   5.575   4.849 -0.2764  0.6864 -0.8551
  727MOL0     C98020   9.178   5.491   4.788  0.0884 -0.2111  0.8003
  727MOL0     C98021   9.298   5.456   4.882 -0.4569 -1.3297  0.1322
  727MOL0     C98022   9.426   5.531   4.845  0.8169 -0.0602  0.4861
  727MOL0     C98023   9.535   5.505   4.932 -0.2742 -0.2920 -0.3841
  727MOL0     C98024   9.644   5.614   4.940 -0.1278 -0.0111 -0.9976
  727MOL0     C98025   9.766   5.547   5.000  0.2255 -0.1486 -0.6773
  727MOL0     C98026   9.876   5.655   5.023 -0.4571 -0.9109  0.5935
  727MOL0     N98027   9.929   5.711   4.896 -0.3364  0.7807  0.6411
  727MOL0     C98028  10.042   5.669   4.824 -0.1076  1.0505  0.1963
  727MOL0     C98029  10.059   5.772   4.733 -1.1495  0.8191 -0.4749
  727MOL0     C98030  10.151   5.773   4.619  0.1339 -0.2710 -0.2723
  727MOL0     C98031  10.268   5.678   4.635  0.1919 -0.0879  0.2916
  727MOL0     C98032  10.353   5.685   4.501  0.1639 -0.2125  0.6149
  727MOL0     C98033  10.493   5.620   4.523  0.7422  0.2221  0.7151
  727MOL0     O98034  10.575   5.717   4.583  0.8495 -1.0514 -0.7957
  727MOL0     C98035  10.706   5.700   4.595  0.5151 -0.1135  0.0662
  727MOL0     C98036  10.792   5.798   4.641 -0.4868 -0.6184  0.1411
  727MOL0     C98037  10.931   5.777   4.660  0.7254  0.1495  0.9620
  727MOL0     C98038  10.987   5.652   4.625 -0.1409  0.1101 -0.9439
  727MOL0     C98039  11.133   5.632   4.643  0.3363  0.0996  0.8125
  727MOL0     O98040  11.186   5.512   4.592 -0.7439  0.1831 -0.3332
  727MOL0     C98041  11.320   5.495   4.604  0.4004  0.0546  1.0236
  727MOL0     C98042  11.420   5.589   4.568  0.2436 -0.9314  1.1232
  727MOL0     C98043  11.555   5.564   4.583 -0.0338 -0.1598  0.1203
  727MOL0     C98044  11.589   5.438   4.624 -0.1227  0.0708  0.7030
  727MOL0     O98045  11.719   5.424   4.668  0.0606 -0.1822 -0.1308
  727MOL0     C98046  11.798   5.306   4.647 -0.4886 -0.0042 -0.8595
  727MOL0     C98047  11.942   5.335   4.607 -0.6716 -0.2369 -0.7353
  727MOL0     C98048  12.050   5.356   4.716  0.1636 -0.3042  0.3089
  727MOL0     C98049  12.179   5.347   4.627 -1.2236  0.7086  0.0374
  727MOL0     C98050  12.310   5.355   4.712 -0.0651  0.1546 -0.2060
  727MOL0     C98051  12.437   5.326   4.630 -0.1036 -0.2683 -0.0894
  727MOL0     C98052  12.567   5.387   4.694  0.3460 -0.4828  0.3253
  727MOL0     C98053  12.690   5.387   4.600 -0.0906  0.0251  0.0154
  727MOL0    Cl98054  12.722   5.209   4.545  0.2800 -0.0597 -0.0522
  727MOL0     C98055  11.494   5.338   4.651 -0.1900 -0.0448 -0.6428
  727MOL0     C98056  11.355   5.370   4.642 -0.0672  0.0374  0.1338
  727MOL0     O98057  11.195   5.721   4.706 -0.0395 -0.3710 -0.9824
  727MOL0     C98058  10.905   5.557   4.564 -0.0834  1.2191  1.0817
  727MOL0     C98059  10.767   5.584   4.546 -0.6876  0.2475  0.2841
  727MOL0     N98060   9.956   5.861   4.746 -0.2638  0.9491  0.4320
  727MOL0     N98061   9.877   5.821   4.837  0.1201 -0.3121  0.3943
  727MOL0     C98062   8.857   5.366   4.774 -0.5564  0.3747 -0.8128
  727MOL0     C98063   8.733   5.300   4.778  0.5445  0.0550 -0.3878
  727MOL0     C98064   8.294   5.223   4.843  0.5508  0.3656  1.0371
  727MOL0     C98065   8.203   5.247   4.951  0.0600 -0.3639 -0.3990
  727MOL0     C98066   8.084   5.180   4.965  0.0792  0.0617 -0.0455
  727MOL0     C98067   8.049   5.079   4.877 -0.2264 -0.3600 -0.5225
  727MOL0     O98068   7.934   5.011   4.906 -1.1308 -0.4493 -0.2083
  727MOL0     C98069   7.889   4.893   4.837 -0.8630  0.8376  0.0745
  727MOL0     C98070   7.754   4.868   4.899 -0.4298  0.8900  0.9643
  727MOL0     C98071   7.667   4.993   4.914  0.0175 -0.4909 -0.0877
  727MOL0     C98072   7.519   4.953   4.948  0.2464  0.0678  0.8443
  727MOL0     C98073   7.509   4.904   5.084 -0.4850  0.2230 -0.1279
  727MOL0     C98074   7.497   4.845   5.193 -0.2148 -0.6271  0.1849
  727MOL0     C98075   8.134   5.047   4.766  0.1558 -0.4862 -0.1751
  727MOL0     C98076   8.253   5.122   4.754 -0.2657 -0.1662  1.4763
  727MOL0     C98077   8.339   5.075   4.636  0.2513  0.1185  0.1188
  727MOL0     H98078   8.531   5.549   4.647 -0.2181 -0.5901 -1.1075
  727MOL0     H98079   8.739   5.673   4.659 -1.5619 -0.3621 -0.4273
  727MOL0     H98080   9.103   5.671   4.877 -0.8019  0.9712 -1.0157
  727MOL0     H98081   9.013   5.527   4.935 -1.3622 -0.0739 -1.8400
  727MOL0     H98082   9.220   5.547   4.704  1.1774 -1.4916  0.4659
  727MOL0     H98083   9.143   5.394   4.751  1.7233 -0.8713  0.9356
  727MOL0     H98084   9.340   5.356   4.862  1.1888 -0.4970 -0.8469
  727MOL0     H98085   9.273   5.478   4.986 -1.0079  0.2550 -0.3096
  727MOL0     H98086   9.448   5.515   4.739  3.4101 -0.3893  1.0136
  727MOL0     H98087   9.397   5.636   4.858 -0.9538 -0.5820  0.9487
  727MOL0     H98088   9.501   5.490   5.035 -0.8519 -2.5994 -0.8451
  727MOL0     H98089   9.578   5.411   4.896  0.6061  0.0314 -0.1977
  727MOL0     H98090   9.671   5.640   4.837  2.1908 -1.7420 -0.9057
  727MOL0     H98091   9.605   5.694   5.003  0.4720 -1.8269  1.9107
  727MOL0     H98092   9.799   5.466   4.934 -0.6351  0.4758 -1.9232
  727MOL0     H98093   9.744   5.501   5.096  0.9634 -0.4968 -0.6713
  727MOL0     H98094   9.818   5.734   5.072  1.7902  0.3512  1.3884
  727MOL0     H98095   9.951   5.619   5.095 -0.7246  0.3256  1.5380
  727MOL0     H98096  10.106   5.582   4.831  2.0744  2.4542 -1.0958
  727MOL0     H98097  10.095   5.753   4.527  2.1522 -2.9330 -1.0705
  727MOL0     H98098  10.182   5.877   4.615 -0.8509  0.0957  0.9984
  727MOL0     H98099  10.326   5.693   4.726 -0.0427  1.7208  0.1791
  727MOL0     H98100  10.211   5.584   4.634  1.5101 -0.9178 -0.7860
  727MOL0     H98101  10.366   5.792   4.484  0.7441 -0.1114  1.6253
  727MOL0     H98102  10.299   5.637   4.419  3.1940  1.1443 -2.3795
  727MOL0     H98103  10.538   5.597   4.426  1.5451 -1.0679  1.3752
  727MOL0     H98104  10.483   5.526   4.579  1.7452  1.0275  2.3180
  727MOL0     H98105  10.759   5.895   4.678 -1.8308 -0.4108 -1.4749
  727MOL0     H98106  10.983   5.843   4.728  0.8483 -1.0813  2.1050
  727MOL0     H98107  11.395   5.686   4.526 -1.6599 -0.1046  3.8875
  727MOL0     H98108  11.632   5.638   4.565 -0.4597 -0.2950 -2.6279
  727MOL0     H98109  11.798   5.257   4.745 -0.5355  3.3988  0.9959
  727MOL0     H98110  11.744   5.247   4.573 -0.4439  1.1217 -1.8164
  727MOL0     H98111  11.979   5.246   4.556 -0.2653 -0.0697 -0.7373
  727MOL0     H98112  11.938   5.416   4.533  0.8240 -1.6027 -2.4005
  727MOL0     H98113  12.051   5.447   4.777 -0.3033 -0.1148  0.0417
  727MOL0     H98114  12.050   5.274   4.788  0.5740  0.9617  1.8122
  727MOL0     H98115  12.178   5.425   4.550 -3.8310  1.2191  0.4946
  727MOL0     H98116  12.189   5.250   4.576  2.6860  0.9745 -0.0467
  727MOL0     H98117  12.296   5.290   4.799  4.0190  0.4904  0.9298
  727MOL0     H98118  12.308   5.458   4.748 -0.3905 -0.2624  1.0155
  727MOL0     H98119  12.445   5.217   4.630  2.0248 -0.1610  0.9696
  727MOL0     H98120  12.435   5.381   4.535  4.2274  2.5823  1.1600
  727MOL0     H98121  12.571   5.324   4.783 -2.2820 -1.7038 -0.3301
  727MOL0     H98122  12.545   5.484   4.739 -3.1147 -2.8410  4.5188
  727MOL0     H98123  12.685   5.447   4.509  0.2836  1.2779  0.7933
  727MOL0     H98124  12.778   5.422   4.655  0.6937  0.5950 -1.5352
  727MOL0     H98125  11.536   5.242   4.682 -2.9002 -2.6947 -4.2274
  727MOL0     H98126  11.273   5.302   4.665 -2.5193  2.0798 -1.8880
  727MOL0     H98127  10.941   5.461   4.527  0.7384  2.1857 -0.8067
  727MOL0     H98128  10.711   5.505   4.497 -1.8955  0.9885  0.4467
  727MOL0     H98129   8.949   5.315   4.802 -0.1840  1.0290 -0.8259
  727MOL0     H98130   8.732   5.199   4.819  0.0211  0.1954 -0.0451
  727MOL0     H98131   8.223   5.334   5.013 -1.5867 -2.0155  2.6632
  727MOL0     H98132   8.014   5.194   5.046 -0.9393 -4.8619  0.2552
  727MOL0     H98133   7.957   4.810   4.858 -0.3617  1.0382 -0.7014
  727MOL0     H98134   7.881   4.910   4.729  1.7843  1.2143 -0.1339
  727MOL0     H98135   7.773   4.822   4.997  0.9353 -2.3642 -0.6412
  727MOL0     H98136   7.700   4.805   4.828  1.0046  1.6478 -0.8937
  727MOL0     H98137   7.659   5.060   4.828 -4.6392  1.8151  1.7606
  727MOL0     H98138   7.701   5.048   5.002 -1.0376  1.0211 -0.5790
  727MOL0     H98139   7.463   5.043   4.922  1.0206  0.5521  0.8141
  727MOL0     H98140   7.495   4.876   4.874  0.4351  1.4168 -0.6795
  727MOL0     H98141   7.474   4.811   5.292 -1.5534  2.2923  0.9883
  727MOL0     H98142   8.124   4.960   4.701  1.9120  0.3257 -1.6497
  727MOL0     H98143   8.441   5.049   4.666  0.9324 -0.1515 -2.2669
  727MOL0     H98144   8.295   4.987   4.589 -3.5489  2.5211 -1.2696
  727MOL0     H98145   8.347   5.158   4.565 -1.6097  0.4362  0.2350
  728MOL0     O98146   5.939   7.435   5.282  0.6718  0.2127  0.1088
  728MOL0     C98147   6.020   7.470   5.196  0.4020 -0.2871 -0.3318
  728MOL0     O98148   6.014   7.436   5.067  0.0748 -0.4225  0.3012
  728MOL0     C98149   5.890   7.389   5.022 -0.1375  0.2098 -0.5940
  728MOL0     C98150   5.837   7.267   5.067 -0.0206  0.0339 -0.0527
  728MOL0     C98151   5.714   7.225   5.023  0.1669  0.1330 -0.6606
  728MOL0     C98152   5.636   7.312   4.939 -0.4768  0.5330 -0.8576
  728MOL0     O98153   5.514   7.281   4.898 -0.0189 -0.7287 -0.0362
  728MOL0     C98154   5.418   7.259   5.012 -0.4541 -0.4434 -0.7728
  728MOL0     C98155   5.283   7.226   4.949  0.3324 -0.1219  0.5611
  728MOL0     C98156   5.226   7.092   5.005  0.0554  0.6652 -0.4947
  728MOL0     C98157   5.088   7.062   4.945 -0.3531 -0.4906  0.2902
  728MOL0     C98158   4.997   6.965   5.027 -1.0674  0.0133 -0.7186
  728MOL0     C98159   4.871   6.923   4.957 -0.7018 -0.3701 -0.1800
  728MOL0     C98160   4.916   6.824   4.843  0.0384 -0.0538  0.0749
  728MOL0     C98161   4.813   6.731   4.775 -0.5551 -0.1467  0.3296
  728MOL0     N98162   4.716   6.681   4.875  0.1608  0.3618  0.4008
  728MOL0     C98163   4.579   6.718   4.881 -0.5605 -0.2272  0.0955
  728MOL0     C98164   4.536   6.632   4.979  0.4490  0.4426 -0.3757
  728MOL0     C98165   4.402   6.595   5.033 -0.1042 -0.0958 -0.6196
  728MOL0     C98166   4.317   6.721   5.070  1.3351 -0.5077 -0.2279
  728MOL0     C98167   4.386   6.824   5.169  0.1964 -0.3627 -0.4117
  728MOL0     C98168   4.411   6.760   5.305  0.2707 -0.2414 -0.7356
  728MOL0     O98169   4.483   6.859   5.380  0.4131 -0.4729  0.8034
  728MOL0     C98170   4.627   6.843   5.388  0.5916 -0.1675 -0.9450
  728MOL0     C98171   4.706   6.783   5.292  0.9101 -0.7956  0.1803
  728MOL0     C98172   4.841   6.789   5.299 -0.6346 -0.2530  0.6499
  728MOL0     C98173   4.914   6.862   5.400 -0.3700  0.6027  0.4092
  728MOL0     C98174   5.064   6.875   5.398  0.0049 -0.0860 -0.3970
  728MOL0     O98175   5.127   6.935   5.500 -0.3958 -0.0814 -0.3657
  728MOL0     C98176   5.259   6.940   5.515  0.1568  0.0391 -0.6150
  728MOL0     C98177   5.318   7.072   5.528 -0.8314  0.0048 -0.1535
  728MOL0     C98178   5.461   7.091   5.552  0.0771  0.3245 -0.4439
  728MOL0     C98179   5.541   6.978   5.571  0.2502 -1.1496  0.5347
  728MOL0     O98180   5.672   7.013   5.588  0.2689 -0.2785  0.4095
  728MOL0     C98181   5.778   6.919   5.596 -0.9647  0.2137  1.5332
  728MOL0     C98182   5.832   6.897   5.448  0.0507 -0.5368 -1.0239
  728MOL0     C98183   5.911   7.016   5.405 -0.5680 -0.6679  0.0838
  728MOL0     C98184   6.054   7.010   5.462 -0.1689  0.7925 -0.5261
  728MOL0     C98185   6.136   7.140   5.440 -0.1997  0.3361 -0.1693
  728MOL0     C98186   6.274   7.120   5.492 -0.5095  0.2500 -0.5748
  728MOL0     C98187   6.346   7.249   5.533 -0.1325 -0.5094 -0.1609
  728MOL0     C98188   6.468   7.220   5.617 -0.3179  0.8544  0.5841
  728MOL0    Cl98189   6.436   7.138   5.773  0.0604 -0.1595 -0.0619
  728MOL0     C98190   5.482   6.848   5.556 -0.9551  0.7928 -1.8187
  728MOL0     C98191   5.347   6.826   5.529  0.7172 -0.3367 -0.0773
  728MOL0     O98192   5.118   6.814   5.311  0.0275  0.4946  0.1968
  728MOL0     C98193   4.835   6.927   5.499 -0.3482  0.0931 -0.2160
  728MOL0     C98194   4.689   6.924   5.486  0.5902 -0.7538  0.0368
  728MOL0     N98195   4.640   6.547   5.024 -0.6127 -0.2777 -0.4529
  728MOL0     N98196   4.749   6.590   4.967  0.5753  0.5560  0.4608
  728MOL0     C98197   5.693   7.431   4.887 -0.5288 -0.2259 -0.2873
  728MOL0     C98198   5.819   7.466   4.936  0.0227 -0.2367 -0.1950
  728MOL0     C98199   6.137   7.554   5.235 -0.4155 -1.0430  0.2955
  728MOL0     C98200   6.235   7.597   5.136 -0.8780  0.4728  0.5428
  728MOL0     C98201   6.331   7.697   5.166 -0.7662  0.3654 -0.3441
  728MOL0     C98202   6.344   7.744   5.294  0.0719 -0.1193 -0.5861
  728MOL0     O98203   6.452   7.823   5.331  0.3559  0.5325 -0.4166
  728MOL0     C98204   6.492   7.922   5.233 -0.5836 -0.8577 -0.5686
  728MOL0     C98205   6.629   7.902   5.174 -0.4916 -0.4452  0.2996
  728MOL0     C98206   6.727   7.927   5.286  0.6718  0.0478 -0.6504
  728MOL0     C98207   6.866   7.939   5.226  0.1556 -0.2472 -0.1096
  728MOL0     C98208   6.970   7.969   5.319 -0.4240  0.2641  0.0690
  728MOL0     C98209   7.060   7.999   5.392 -0.4435  0.2603 -0.4385
  728MOL0     C98210   6.254   7.694   5.396 -0.2703  0.6072  0.4617
  728MOL0     C98211   6.154   7.604   5.368  0.5275  0.9188  0.2785
  728MOL0     C98212   6.068   7.565   5.491 -0.0213 -0.1579  1.3555
  728MOL0     H98213   5.887   7.207   5.142  2.3624  2.9290  0.8693
  728MOL0     H98214   5.679   7.129   5.059  1.7317  0.3787  1.7465
  728MOL0     H98215   5.437   7.173   5.077 -3.1405 -0.6800 -0.1487
  728MOL0     H98216   5.407   7.346   5.077 -1.3301  0.7782 -2.4753
  728MOL0     H98217   5.287   7.225   4.839 -0.9855 -2.2489  0.4688
  728MOL0     H98218   5.209   7.302   4.977  0.0634  0.3409 -1.2370
  728MOL0     H98219   5.212   7.104   5.113 -4.5579 -2.1495 -0.5355
  728MOL0     H98220   5.303   7.016   4.984  1.7694  1.8653  1.0751
  728MOL0     H98221   5.033   7.154   4.926 -1.4129 -0.8232  1.5444
  728MOL0     H98222   5.101   7.030   4.842 -0.8750  4.4897 -1.5910
  728MOL0     H98223   5.056   6.877   5.052 -1.3627 -0.0414 -0.2085
  728MOL0     H98224   4.975   7.020   5.119  0.7685  1.1421 -0.9013
  728MOL0     H98225   4.806   6.879   5.033  0.5849  1.1825  1.8996
  728MOL0     H98226   4.821   7.009   4.912 -1.4216 -0.5913  0.1813
  728MOL0     H98227   4.981   6.752   4.894 -0.5952  0.8097  2.1941
  728MOL0     H98228   4.979   6.881   4.774  2.5534  0.4359  2.5918
  728MOL0     H98229   4.766   6.788   4.695  0.7510  0.1224 -0.2670
  728MOL0     H98230   4.868   6.641   4.744  2.3756 -0.0980  4.5112
  728MOL0     H98231   4.524   6.789   4.821 -1.8237 -2.9817 -2.2639
  728MOL0     H98232   4.350   6.530   4.961  0.1323 -2.8986  1.5437
  728MOL0     H98233   4.420   6.525   5.116  0.1006 -0.5923 -1.0732
  728MOL0     H98234   4.295   6.777   4.979 -2.4220 -0.3153  0.6509
  728MOL0     H98235   4.221   6.684   5.108  0.2921 -1.1621 -3.2314
  728MOL0     H98236   4.304   6.894   5.182 -1.2604 -2.1652  0.5295
  728MOL0     H98237   4.478   6.876   5.141  0.2259  0.2295  0.7262
  728MOL0     H98238   4.450   6.658   5.300 -1.2718 -0.8290 -1.7978
  728MOL0     H98239   4.311   6.749   5.350 -0.2340  4.2652 -0.2611
  728MOL0     H98240   4.660   6.728   5.211 -3.1341 -0.5870  2.1243
  728MOL0     H98241   4.893   6.758   5.209  1.5575  1.1918  1.3396
  728MOL0     H98242   5.249   7.155   5.515  0.1293  0.5912 -1.7929
  728MOL0     H98243   5.505   7.189   5.565 -1.9881  1.7813 -3.2702
  728MOL0     H98244   5.864   6.952   5.654  0.6137 -0.9373 -0.0526
  728MOL0     H98245   5.752   6.826   5.648  1.5525 -0.6475  1.3804
  728MOL0     H98246   5.900   6.813   5.467  1.3602  0.3907 -1.4330
  728MOL0     H98247   5.746   6.879   5.383 -0.2172 -0.3684 -0.7162
  728MOL0     H98248   5.920   7.002   5.297  1.2477  0.9834 -0.0489
  728MOL0     H98249   5.857   7.108   5.431  1.3465  0.9737 -1.3616
  728MOL0     H98250   6.111   6.925   5.424  0.2105  0.4807  0.7099
  728MOL0     H98251   6.056   6.986   5.569  0.4409  1.8802 -0.2815
  728MOL0     H98252   6.072   7.208   5.497 -3.1356 -0.6056 -2.0511
  728MOL0     H98253   6.142   7.172   5.335 -1.3441  1.3802  0.0608
  728MOL0     H98254   6.259   7.063   5.584 -1.5762 -0.4493 -1.1698
  728MOL0     H98255   6.329   7.061   5.419  0.0184  0.5473 -0.4297
  728MOL0     H98256   6.288   7.331   5.576  1.3163  0.6590 -0.3562
  728MOL0     H98257   6.385   7.294   5.441 -0.5872  1.3745  0.5301
  728MOL0     H98258   6.528   7.158   5.551 -0.6624  0.0611  1.0046
  728MOL0     H98259   6.522   7.312   5.642 -1.1368  2.3481 -2.6438
  728MOL0     H98260   5.551   6.766   5.558 -0.2371  1.3597 -2.6531
  728MOL0     H98261   5.308   6.726   5.513  2.6102 -0.5632 -5.0383
  728MOL0     H98262   4.883   6.972   5.585 -0.8966  0.1369  0.0724
  728MOL0     H98263   4.631   6.985   5.554  2.5186 -1.3690  2.3472
  728MOL0     H98264   5.635   7.491   4.818 -1.3900 -0.6978  0.0126
  728MOL0     H98265   5.862   7.560   4.905  1.1869  0.1186  2.2828
  728MOL0     H98266   6.237   7.553   5.037  0.0757  2.5050 -0.3941
  728MOL0     H98267   6.399   7.723   5.085 -1.0133 -0.8393 -0.9764
  728MOL0     H98268   6.496   8.016   5.290 -0.4086 -1.1968 -0.0140
  728MOL0     H98269   6.416   7.942   5.156 -0.0223  1.0035 -0.6903
  728MOL0     H98270   6.631   7.979   5.097 -1.2074  0.4162  1.1192
  728MOL0     H98271   6.630   7.798   5.139 -2.8549 -0.0192 -1.2503
  728MOL0     H98272   6.719   7.843   5.355 -1.0505 -0.3714 -1.3180
  728MOL0     H98273   6.707   8.019   5.341  1.0003  0.5064 -1.2791
  728MOL0     H98274   6.880   7.846   5.170  0.1924 -0.3000 -0.0124
  728MOL0     H98275   6.871   8.013   5.145  1.8298  0.4817  0.5953
  728MOL0     H98276   7.124   8.034   5.471 -3.1432  1.0242  1.5235
  728MOL0     H98277   6.244   7.740   5.494  0.5817 -1.6164  1.6904
  728MOL0     H98278   6.108   7.613   5.581  0.9174  0.2972  0.7079
  728MOL0     H98279   5.962   7.581   5.471  0.1199 -0.1282  0.6003
  728MOL0     H98280   6.076   7.458   5.512  0.5523 -0.8496 -1.8908
  729MOL0     O98281   5.178   7.629   5.728  0.0076  0.8709 -0.8163
  729MOL0     C98282   5.116   7.623   5.832  0.1490 -0.4397  0.2025
  729MOL0     O98283   5.166   7.631   5.957 -0.6434 -0.0004 -0.1674
  729MOL0     C98284   5.303   7.660   5.957  0.4938  0.2081 -0.4585
  729MOL0     C98285   5.383   7.572   6.020 -0.1670  0.6293 -0.2179
  729MOL0     C98286   5.520   7.594   6.011  0.3755 -0.4012 -0.2628
  729MOL0     C98287   5.581   7.696   5.941  0.0372  0.0885  0.3569
  729MOL0     O98288   5.715   7.703   5.945  0.2760  0.3474 -0.4003
  729MOL0     C98289   5.790   7.706   5.819 -0.1623  0.2348 -0.4708
  729MOL0     C98290   5.852   7.846   5.783  0.3231  0.6556 -0.2737
  729MOL0     C98291   5.875   7.845   5.636 -0.5266  0.7081 -0.8878
  729MOL0     C98292   5.937   7.985   5.598 -0.2275  0.1277 -0.3767
  729MOL0     C98293   6.004   7.964   5.468  1.3271  0.5480  0.4913
  729MOL0     C98294   6.068   8.084   5.403 -0.5459  0.2286 -0.2635
  729MOL0     C98295   6.197   8.135   5.475  0.5834  0.0090  0.4349
  729MOL0     C98296   6.273   8.245   5.395  0.5567 -0.5125 -0.3088
  729MOL0     N98297   6.410   8.275   5.444 -0.5206  0.9708  1.3101
  729MOL0     C98298   6.464   8.231   5.567 -0.4555 -0.7031 -0.2805
  729MOL0     C98299   6.577   8.296   5.576 -0.3679  0.3945 -0.8839
  729MOL0     C98300   6.667   8.298   5.696 -1.2876  0.5414  0.5375
  729MOL0     C98301   6.816   8.302   5.652  0.2505 -1.2290  0.1606
  729MOL0     C98302   6.912   8.294   5.776  0.0815  0.5489  0.4844
  729MOL0     C98303   7.059   8.286   5.734 -0.0784 -0.0910 -0.0201
  729MOL0     O98304   7.115   8.413   5.702 -0.1684  0.3287  0.3500
  729MOL0     C98305   7.233   8.406   5.631  0.6578 -0.4070  0.1846
  729MOL0     C98306   7.305   8.294   5.585  0.7254 -0.3544 -0.4288
  729MOL0     C98307   7.411   8.305   5.494  0.7657 -0.3016 -0.4467
  729MOL0     C98308   7.460   8.426   5.466 -0.2356  0.3446 -0.3254
  729MOL0     C98309   7.584   8.448   5.391 -0.5153 -0.4124 -0.2720
  729MOL0     O98310   7.648   8.570   5.390  0.2257 -0.0477 -0.4157
  729MOL0     C98311   7.763   8.586   5.313  0.2372  0.4422 -0.3182
  729MOL0     C98312   7.778   8.669   5.194  0.3587  0.0895 -0.8613
  729MOL0     C98313   7.910   8.687   5.148  0.2233 -0.6040 -0.0183
  729MOL0     C98314   8.025   8.642   5.207 -0.1098 -0.6231  0.4275
  729MOL0     O98315   8.152   8.675   5.154 -0.1147 -0.2087 -0.0304
  729MOL0     C98316   8.265   8.646   5.232 -0.4529  0.0939 -0.5741
  729MOL0     C98317   8.394   8.739   5.194  0.3022  0.3593  0.1706
  729MOL0     C98318   8.450   8.700   5.056 -0.2117 -0.0781  0.5932
  729MOL0     C98319   8.584   8.770   5.034  0.1893 -0.0199  0.2120
  729MOL0     C98320   8.710   8.733   5.119 -1.0924 -0.3553  0.6890
  729MOL0     C98321   8.836   8.793   5.068 -0.9156 -0.2051 -0.1145
  729MOL0     C98322   8.971   8.752   5.133 -0.0375 -0.7875  0.1470
  729MOL0     C98323   9.091   8.835   5.098  0.0828 -0.1306 -0.4530
  729MOL0    Cl98324   9.154   8.791   4.936 -0.0231  0.1248  0.2229
  729MOL0     C98325   8.013   8.552   5.311 -0.2329 -0.0149  0.5238
  729MOL0     C98326   7.884   8.532   5.365  0.0012 -0.5625  0.6056
  729MOL0     O98327   7.626   8.345   5.337  0.7016 -0.9224  0.9392
  729MOL0     C98328   7.387   8.540   5.509 -0.5247 -0.1843 -0.3670
  729MOL0     C98329   7.275   8.532   5.602 -0.1329  0.7787 -0.1811
  729MOL0     N98330   6.592   8.372   5.463  0.2541 -0.2269  0.9804
  729MOL0     N98331   6.495   8.364   5.377 -0.5099  0.0021 -0.1499
  729MOL0     C98332   5.500   7.789   5.885  0.0873 -0.6262 -0.5819
  729MOL0     C98333   5.361   7.774   5.896  0.8061  0.0866  0.2235
  729MOL0     C98334   4.969   7.606   5.826  0.5132  0.5062 -0.1889
  729MOL0     C98335   4.910   7.514   5.909  0.5576 -0.1840  0.6806
  729MOL0     C98336   4.769   7.488   5.911 -0.4150  0.5007 -0.1481
  729MOL0     C98337   4.690   7.560   5.828 -0.7966  0.6234 -0.0329
  729MOL0     O98338   4.551   7.531   5.823  0.5056  0.3864  0.8005
  729MOL0     C98339   4.504   7.544   5.689  0.3264 -1.0776  0.1855
  729MOL0     C98340   4.360   7.502   5.670 -0.4819 -0.4465  0.2708
  729MOL0     C98341   4.269   7.539   5.787 -0.6536 -0.1795  0.1591
  729MOL0     C98342   4.132   7.474   5.767 -0.7067 -0.2380 -0.1324
  729MOL0     C98343   4.036   7.564   5.830  0.1172 -0.0754 -0.7667
  729MOL0     C98344   3.943   7.638   5.868 -0.3300 -0.1984 -0.0453
  729MOL0     C98345   4.744   7.669   5.751 -0.4729 -0.2539  0.4064
  729MOL0     C98346   4.882   7.688   5.742 -0.2810  0.7583 -0.9065
  729MOL0     C98347   4.936   7.791   5.641 -0.0662 -0.8436 -0.1084
  729MOL0     H98348   5.352   7.487   6.081 -0.4768  1.6783  1.1529
  729MOL0     H98349   5.583   7.531   6.072  1.2134 -3.1801 -3.6746
  729MOL0     H98350   5.861   7.622   5.824 -2.5902 -1.9145  0.3140
  729MOL0     H98351   5.722   7.681   5.736 -0.7598 -2.6428  0.7618
  729MOL0     H98352   5.938   7.851   5.852  0.5611 -2.8197 -0.1808
  729MOL0     H98353   5.785   7.927   5.814  0.3219  0.0245  1.4889
  729MOL0     H98354   5.784   7.817   5.581 -1.5072 -0.4552  1.2023
  729MOL0     H98355   5.953   7.774   5.608  1.8752  3.0362 -0.4971
  729MOL0     H98356   5.868   8.069   5.583 -1.7365 -1.1233 -0.7097
  729MOL0     H98357   6.012   8.012   5.673  0.4660 -3.5223  0.4042
  729MOL0     H98358   6.080   7.885   5.466  0.5018 -0.2656 -0.9646
  729MOL0     H98359   5.927   7.925   5.401  0.7453  0.7023  1.0574
  729MOL0     H98360   6.099   8.051   5.304  1.5763  4.7747 -1.3549
  729MOL0     H98361   5.993   8.163   5.393 -3.7673 -2.7109 -1.1351
  729MOL0     H98362   6.260   8.047   5.489 -1.5265 -1.8145 -0.8670
  729MOL0     H98363   6.174   8.188   5.568  0.1739 -1.7230  1.3733
  729MOL0     H98364   6.274   8.204   5.293 -1.1465  0.0831 -0.5901
  729MOL0     H98365   6.216   8.338   5.389  0.5136 -0.5510 -0.5229
  729MOL0     H98366   6.429   8.176   5.654  0.3963 -0.7770  0.0303
  729MOL0     H98367   6.637   8.385   5.756  1.7214  0.1476  2.8435
  729MOL0     H98368   6.667   8.209   5.759 -0.8366  2.0990  2.8720
  729MOL0     H98369   6.821   8.218   5.582  1.2824  0.5876 -2.0710
  729MOL0     H98370   6.830   8.392   5.591  0.3799 -1.9439 -0.8994
  729MOL0     H98371   6.874   8.206   5.827 -1.4101  1.1251  0.4255
  729MOL0     H98372   6.907   8.384   5.838 -0.3854  1.2583 -0.5436
  729MOL0     H98373   7.069   8.203   5.664  1.0311 -1.2115  1.4119
  729MOL0     H98374   7.120   8.246   5.816  0.5675 -0.2499 -0.5711
  729MOL0     H98375   7.274   8.192   5.605 -0.1903 -0.0227 -0.0961
  729MOL0     H98376   7.441   8.212   5.446 -1.1630 -1.2048 -0.0046
  729MOL0     H98377   7.693   8.702   5.137  0.3444  0.2502 -0.7464
  729MOL0     H98378   7.915   8.749   5.059  0.6239  0.3851  0.6828
  729MOL0     H98379   8.242   8.658   5.338 -1.0030 -4.4140  0.0101
  729MOL0     H98380   8.298   8.542   5.221 -0.3409 -0.5130  3.8062
  729MOL0     H98381   8.369   8.846   5.196  1.5744  0.6606  1.2805
  729MOL0     H98382   8.459   8.726   5.281 -0.5229  0.8319  0.8785
  729MOL0     H98383   8.466   8.592   5.052 -1.0228 -0.1755 -1.4816
  729MOL0     H98384   8.373   8.727   4.982 -1.1807  0.9738  1.9197
  729MOL0     H98385   8.575   8.879   5.037  0.7456  0.1283 -1.8818
  729MOL0     H98386   8.607   8.749   4.929  2.1726  0.7488  0.4348
  729MOL0     H98387   8.721   8.627   5.144  3.5457 -0.4882 -1.0630
  729MOL0     H98388   8.695   8.789   5.212  1.3848  2.9703 -0.7288
  729MOL0     H98389   8.842   8.775   4.960  2.3087 -0.4440  0.0107
  729MOL0     H98390   8.823   8.902   5.069  1.2821  0.1306 -1.3352
  729MOL0     H98391   8.994   8.650   5.102 -1.4714 -1.4284  1.1105
  729MOL0     H98392   8.958   8.751   5.241  0.5954  0.8031  0.2627
  729MOL0     H98393   9.061   8.940   5.100 -2.8596 -0.8103 -2.2059
  729MOL0     H98394   9.160   8.820   5.181  1.2979  0.9047 -1.2573
  729MOL0     H98395   8.101   8.495   5.340 -1.8749 -3.3015 -0.4386
  729MOL0     H98396   7.886   8.472   5.456  0.9624 -0.5140  0.6313
  729MOL0     H98397   7.431   8.638   5.495  1.3868 -1.1696 -1.7218
  729MOL0     H98398   7.229   8.615   5.654 -1.0464 -0.9950  1.9843
  729MOL0     H98399   5.542   7.881   5.846 -1.3228  0.2853 -0.0226
  729MOL0     H98400   5.292   7.845   5.850  1.7240  0.3993 -0.7176
  729MOL0     H98401   4.962   7.455   5.983  1.7441 -1.6371 -1.2076
  729MOL0     H98402   4.735   7.406   5.973  1.6329 -0.1059  0.2509
  729MOL0     H98403   4.565   7.476   5.630 -1.2316 -1.2794 -1.2649
  729MOL0     H98404   4.518   7.644   5.646 -0.8091 -0.0283  2.0567
  729MOL0     H98405   4.365   7.392   5.665 -0.3592 -0.4077 -0.7230
  729MOL0     H98406   4.322   7.533   5.573 -0.5569  0.1823  0.5019
  729MOL0     H98407   4.260   7.648   5.787  0.0608 -0.1104 -0.8323
  729MOL0     H98408   4.311   7.501   5.881 -4.6120  1.9189  3.0689
  729MOL0     H98409   4.120   7.456   5.660  1.7794 -1.4974 -0.2768
  729MOL0     H98410   4.125   7.376   5.814  1.2035 -0.3785 -0.0631
  729MOL0     H98411   3.856   7.695   5.892  0.3251  1.5215 -1.5329
  729MOL0     H98412   4.682   7.735   5.692  0.9704  0.5156 -0.3208
  729MOL0     H98413   4.963   7.885   5.691  0.0242  0.5565 -2.6061
  729MOL0     H98414   5.017   7.742   5.588  0.4592  1.1043 -1.2119
  729MOL0     H98415   4.859   7.812   5.566  0.1239 -1.6210 -0.5265
  730MOL0     O98416   9.264   4.717   8.402 -0.6500 -0.2590  0.2123
  730MOL0     C98417   9.246   4.602   8.354 -0.2410 -0.3872 -0.2592
  730MOL0     O98418   9.341   4.513   8.323  0.4199 -0.8705 -0.3771
  730MOL0     C98419   9.475   4.551   8.311  0.0442  0.6576  0.9991
  730MOL0     C98420   9.544   4.641   8.390  0.5093  0.9509 -0.3538
  730MOL0     C98421   9.668   4.688   8.359  0.2843 -0.1341  0.5367
  730MOL0     C98422   9.735   4.651   8.233  0.5168 -1.1870 -0.6602
  730MOL0     O98423   9.861   4.687   8.194 -0.4255 -0.1571 -0.7199
  730MOL0     C98424   9.925   4.792   8.270 -0.2905 -0.7337  0.7948
  730MOL0     C98425  10.050   4.841   8.191  0.4813  0.1107 -0.5122
  730MOL0     C98426  10.001   4.947   8.083 -0.9696 -0.0737  0.0843
  730MOL0     C98427  10.130   5.009   8.022  0.1136 -0.2471  0.6659
  730MOL0     C98428  10.110   5.160   7.988  1.0282  0.3944  0.4254
  730MOL0     C98429  10.232   5.230   7.933  1.0794  0.3736  0.5540
  730MOL0     C98430  10.212   5.381   7.919  0.2556 -0.2647  0.2587
  730MOL0     C98431  10.117   5.405   7.790 -0.2498  0.2869  0.5662
  730MOL0     N98432  10.060   5.541   7.798 -0.4299  0.5635  0.1050
  730MOL0     C98433   9.928   5.558   7.837 -0.4020  0.2319  0.0248
  730MOL0     C98434   9.901   5.692   7.831 -0.7611 -0.4445  0.8483
  730MOL0     C98435   9.783   5.783   7.865 -0.9645 -0.2090 -0.5143
  730MOL0     C98436   9.681   5.701   7.941  0.1333  0.1282 -0.0691
  730MOL0     C98437   9.555   5.781   7.946  0.4944  0.4130  0.9533
  730MOL0     C98438   9.426   5.700   7.970 -0.5790 -1.2085 -0.3933
  730MOL0     O98439   9.401   5.703   8.115 -1.0126  0.2493 -0.0819
  730MOL0     C98440   9.281   5.672   8.166  1.3088 -0.6942 -0.1749
  730MOL0     C98441   9.162   5.696   8.093  0.4442  0.2690 -0.1537
  730MOL0     C98442   9.031   5.665   8.146 -0.3882  0.2856  0.4926
  730MOL0     C98443   9.025   5.604   8.280  1.2735 -0.6537  1.1624
  730MOL0     C98444   8.893   5.576   8.347 -0.0931  0.1931 -0.2417
  730MOL0     O98445   8.786   5.598   8.265 -0.0431 -0.5698 -0.2831
  730MOL0     C98446   8.658   5.560   8.295  0.1571  0.1730  0.0637
  730MOL0     C98447   8.598   5.612   8.407 -1.0435  0.9095 -0.2885
  730MOL0     C98448   8.463   5.585   8.432  0.2196  0.4469 -0.2796
  730MOL0     C98449   8.388   5.499   8.353  0.0741  0.3678 -0.3248
  730MOL0     O98450   8.267   5.452   8.398  0.4643 -0.1501 -0.2138
  730MOL0     C98451   8.160   5.553   8.410 -0.4251  0.4071 -0.0476
  730MOL0     C98452   8.033   5.503   8.487 -0.4999  0.7312  0.4738
  730MOL0     C98453   7.953   5.616   8.553  0.2081  0.1141 -0.4831
  730MOL0     C98454   7.812   5.562   8.599 -0.3133 -0.4395  0.2354
  730MOL0     C98455   7.722   5.671   8.675 -1.0298  0.1385  1.0937
  730MOL0     C98456   7.576   5.626   8.702  0.8646  0.3474  0.6151
  730MOL0     C98457   7.504   5.723   8.795  0.3276  0.5608 -0.5712
  730MOL0     C98458   7.360   5.695   8.804  0.4352 -0.2938 -0.6999
  730MOL0    Cl98459   7.276   5.817   8.914 -0.0441 -0.3584  0.1440
  730MOL0     C98460   8.452   5.441   8.240  0.3089 -0.0503  0.0236
  730MOL0     C98461   8.587   5.477   8.209  0.1463  0.2427 -0.5569
  730MOL0     O98462   8.890   5.523   8.456 -0.4646  0.0545  0.2947
  730MOL0     C98463   9.151   5.589   8.347  0.4145  0.4986 -0.1772
  730MOL0     C98464   9.278   5.622   8.293  0.7991 -0.0382 -0.2980
  730MOL0     N98465  10.016   5.756   7.789  0.2008  0.1457 -0.2205
  730MOL0     N98466  10.100   5.666   7.757 -0.9664 -0.1999  0.1884
  730MOL0     C98467   9.662   4.567   8.155  1.5172  0.1455 -0.3025
  730MOL0     C98468   9.534   4.515   8.189 -0.1404 -0.0540  0.6027
  730MOL0     C98469   9.107   4.569   8.312 -0.5470  0.8228  0.9701
  730MOL0     C98470   9.087   4.453   8.225 -0.3282 -0.1917  0.9588
  730MOL0     C98471   8.964   4.410   8.198  0.6523 -0.3546  0.6499
  730MOL0     C98472   8.849   4.467   8.248 -0.0345 -0.3347 -0.1578
  730MOL0     O98473   8.732   4.399   8.208  0.2288  0.3078  0.4729
  730MOL0     C98474   8.604   4.423   8.274  0.6581 -0.4756  0.3101
  730MOL0     C98475   8.499   4.312   8.244  0.7413 -0.9124  0.1161
  730MOL0     C98476   8.356   4.368   8.243  0.4189  1.1341 -0.1261
  730MOL0     C98477   8.263   4.256   8.270  0.2828  0.0529 -0.4307
  730MOL0     C98478   8.127   4.296   8.283  0.3080 -0.7310  0.3839
  730MOL0     C98479   8.024   4.361   8.268  0.8875  0.3653 -0.2484
  730MOL0     C98480   8.862   4.586   8.323  0.7509 -0.4157  0.2098
  730MOL0     C98481   8.987   4.639   8.352  0.4446  0.2411  0.3970
  730MOL0     C98482   8.995   4.774   8.428 -0.2414 -0.1714 -0.8207
  730MOL0     H98483   9.492   4.672   8.481 -2.6855 -4.1088 -0.0470
  730MOL0     H98484   9.716   4.763   8.422  3.2197 -1.6278  0.2816
  730MOL0     H98485   9.857   4.877   8.280  0.2043 -0.1360 -0.6500
  730MOL0     H98486   9.963   4.755   8.366 -0.3447  0.2432  1.2106
  730MOL0     H98487  10.100   4.761   8.137 -0.0985  0.4559 -1.5985
  730MOL0     H98488  10.119   4.890   8.260  0.4629 -2.7591  1.7188
  730MOL0     H98489   9.942   5.028   8.127  0.3424  0.8031  0.3211
  730MOL0     H98490   9.947   4.895   8.004  0.3926 -1.6991  0.1629
  730MOL0     H98491  10.220   4.995   8.083  1.3044  0.8016 -0.7624
  730MOL0     H98492  10.151   4.957   7.928 -2.4428 -1.2048  0.5478
  730MOL0     H98493  10.027   5.176   7.919  3.5578  0.1814 -2.9343
  730MOL0     H98494  10.093   5.209   8.084 -1.4241  0.9268 -0.2053
  730MOL0     H98495  10.312   5.207   8.004 -0.9598 -1.6107  2.3337
  730MOL0     H98496  10.256   5.180   7.838 -1.2504 -1.6189  0.9092
  730MOL0     H98497  10.309   5.428   7.906  0.1707  0.3143  1.5464
  730MOL0     H98498  10.155   5.428   8.000 -0.9921  1.1365 -1.3744
  730MOL0     H98499  10.180   5.393   7.702  0.5947 -0.9174  1.3200
  730MOL0     H98500  10.032   5.337   7.781 -1.8962  2.4025 -1.0818
  730MOL0     H98501   9.858   5.485   7.877 -0.9176  0.2226 -0.8893
  730MOL0     H98502   9.808   5.869   7.928  1.3549 -0.6214 -0.7928
  730MOL0     H98503   9.743   5.827   7.773  0.9839  2.8061 -0.0572
  730MOL0     H98504   9.654   5.608   7.890  0.9728  0.1779 -0.6247
  730MOL0     H98505   9.718   5.675   8.040 -0.2222 -0.9548 -0.2094
  730MOL0     H98506   9.538   5.813   7.842  2.2351  0.3166  0.6190
  730MOL0     H98507   9.564   5.857   8.024  0.4726 -0.6948  2.0658
  730MOL0     H98508   9.435   5.598   7.933  0.4763 -0.7907 -1.3225
  730MOL0     H98509   9.343   5.746   7.916 -1.0930 -1.5735  0.0750
  730MOL0     H98510   9.170   5.739   7.994 -0.2203 -3.3479 -1.9363
  730MOL0     H98511   8.939   5.686   8.093 -1.9344 -2.2149  1.9793
  730MOL0     H98512   8.663   5.661   8.479  0.6988 -2.3767  0.5824
  730MOL0     H98513   8.427   5.632   8.523  2.9021  1.6865  0.2408
  730MOL0     H98514   8.198   5.648   8.448  0.2158  0.6508 -1.2372
  730MOL0     H98515   8.138   5.582   8.306 -1.4467 -0.5280 -0.1042
  730MOL0     H98516   7.963   5.445   8.426 -2.4288  0.1206  3.1106
  730MOL0     H98517   8.069   5.440   8.569 -2.7853  0.8613  1.6633
  730MOL0     H98518   8.013   5.655   8.636  2.2628  0.5217 -2.0582
  730MOL0     H98519   7.938   5.705   8.491 -0.8973 -0.2918 -0.8249
  730MOL0     H98520   7.816   5.471   8.659  1.2596 -1.8384 -1.8306
  730MOL0     H98521   7.761   5.515   8.514 -1.7378 -0.1089  0.8866
  730MOL0     H98522   7.717   5.759   8.610 -0.9901 -0.0696  0.8079
  730MOL0     H98523   7.773   5.705   8.766  1.0556  2.6240 -0.8390
  730MOL0     H98524   7.532   5.631   8.602  1.5637 -2.3697  0.0899
  730MOL0     H98525   7.557   5.524   8.737 -0.7056 -0.0916 -1.3270
  730MOL0     H98526   7.520   5.828   8.768 -2.9721  1.1846 -0.5675
  730MOL0     H98527   7.542   5.711   8.897  0.5764 -1.1404 -0.8391
  730MOL0     H98528   7.327   5.709   8.701 -1.4280  3.4940  0.2204
  730MOL0     H98529   7.344   5.593   8.839 -0.2359  1.1607  3.9492
  730MOL0     H98530   8.411   5.362   8.176 -2.0912  1.2336 -0.1475
  730MOL0     H98531   8.634   5.444   8.117  2.3822  1.7936 -0.0595
  730MOL0     H98532   9.152   5.559   8.451  0.8934  0.7757 -0.0978
  730MOL0     H98533   9.366   5.614   8.355 -0.8895 -3.7529  1.9981
  730MOL0     H98534   9.703   4.526   8.063 -2.0493  1.8076 -2.8840
  730MOL0     H98535   9.482   4.451   8.117 -1.4765 -0.8130  2.1827
  730MOL0     H98536   9.168   4.396   8.182 -1.6804 -1.1675 -0.3911
  730MOL0     H98537   8.961   4.310   8.156 -1.9576 -1.3015  2.7775
  730MOL0     H98538   8.570   4.516   8.228 -2.7013 -1.0510  1.3149
  730MOL0     H98539   8.601   4.457   8.378  0.9353  3.4966 -0.8402
  730MOL0     H98540   8.502   4.251   8.335  0.5718  0.1500  0.8610
  730MOL0     H98541   8.515   4.262   8.148 -3.1531  0.5483 -1.5194
  730MOL0     H98542   8.342   4.430   8.154 -0.9521  3.2226  1.4365
  730MOL0     H98543   8.346   4.429   8.334 -1.1103 -0.9331  1.2027
  730MOL0     H98544   8.253   4.190   8.184 -4.1268 -0.1850  0.0144
  730MOL0     H98545   8.290   4.206   8.364 -1.1824 -0.1838 -0.1196
  730MOL0     H98546   7.932   4.413   8.250  1.0255  0.4029 -0.8693
  730MOL0     H98547   8.775   4.646   8.345  1.0904 -0.3694  1.5000
  730MOL0     H98548   9.034   4.768   8.530 -2.6129 -1.2640  0.0872
  730MOL0     H98549   9.055   4.845   8.369 -1.3296 -1.3396 -3.4808
  730MOL0     H98550   8.900   4.827   8.440 -1.7522 -2.8491 -0.2027
  731MOL0     O98551   8.110  10.496   5.940  0.6107 -0.7696  0.4145
  731MOL0     C98552   8.008  10.530   5.874 -0.2643 -0.0414  0.2918
  731MOL0     O98553   7.991  10.662   5.828  0.0491  0.7267 -0.4414
  731MOL0     C98554   8.109  10.726   5.805 -0.6102  0.4013 -0.9700
  731MOL0     C98555   8.155  10.764   5.680  0.7566 -0.3652  0.3172
  731MOL0     C98556   8.251  10.862   5.659  0.4080 -0.6329 -0.4502
  731MOL0     C98557   8.320  10.913   5.771  0.3974 -0.2231  0.0328
  731MOL0     O98558   8.411  11.013   5.761  0.7153  0.0840  0.2673
  731MOL0     C98559   8.469  11.034   5.631 -0.5953  0.5964 -0.0239
  731MOL0     C98560   8.613  11.059   5.668  0.9323  0.3223 -0.5781
  731MOL0     C98561   8.702  11.101   5.552  0.2325 -0.0824  0.3451
  731MOL0     C98562   8.831  11.162   5.594 -0.8364 -0.1047 -0.0011
  731MOL0     C98563   8.931  11.166   5.478  0.9449 -0.4182  0.5425
  731MOL0     C98564   9.063  11.232   5.518 -0.9194  0.5214  0.2580
  731MOL0     C98565   9.162  11.269   5.406 -0.2775  0.5640 -0.2396
  731MOL0     C98566   9.301  11.296   5.462 -0.0494  0.0624 -0.1739
  731MOL0     N98567   9.368  11.173   5.503 -0.3464  0.9187 -0.0932
  731MOL0     C98568   9.420  11.082   5.419 -0.9267 -0.3169 -0.1181
  731MOL0     C98569   9.469  10.980   5.490 -0.0365  0.2953 -0.6869
  731MOL0     C98570   9.544  10.854   5.457 -0.4504  0.8243 -0.0264
  731MOL0     C98571   9.690  10.866   5.417  0.6478  0.6005  0.2677
  731MOL0     C98572   9.797  10.882   5.536  0.2032 -0.3456 -0.1673
  731MOL0     C98573   9.943  10.891   5.486  0.1248 -0.1655 -0.5401
  731MOL0     O98574   9.949  10.989   5.387 -0.2478 -0.3054 -0.9008
  731MOL0     C98575   9.988  11.119   5.408  0.1585  0.1951 -0.5004
  731MOL0     C98576  10.033  11.173   5.534 -0.4630 -0.6925 -0.2309
  731MOL0     C98577  10.078  11.302   5.532  0.5550 -0.0803 -0.1068
  731MOL0     C98578  10.087  11.383   5.415 -1.2807 -0.3121  0.2230
  731MOL0     C98579  10.157  11.512   5.414 -0.5323  0.6454  0.7190
  731MOL0     O98580  10.237  11.539   5.516  0.4005  0.6909  0.3089
  731MOL0     C98581  10.290  11.662   5.516 -0.8671 -0.7695 -0.1303
  731MOL0     C98582  10.426  11.681   5.483 -0.3053 -0.2955  0.5999
  731MOL0     C98583  10.493  11.803   5.472  0.1743 -0.2374  0.0096
  731MOL0     C98584  10.423  11.923   5.503 -0.5477  0.1826  0.2909
  731MOL0     O98585  10.474  12.049   5.485  0.3161 -0.4038 -0.2385
  731MOL0     C98586  10.613  12.072   5.472 -0.1897 -0.2245 -0.3554
  731MOL0     C98587  10.632  12.069   5.324 -0.1338  0.3008  0.3334
  731MOL0     C98588  10.762  12.141   5.297 -0.6811  0.0134  0.5189
  731MOL0     C98589  10.787  12.146   5.143  0.4130  0.4525 -0.1877
  731MOL0     C98590  10.936  12.133   5.100  0.1051 -0.5314  0.0011
  731MOL0     C98591  10.949  12.161   4.947  0.1297  0.2830  0.1218
  731MOL0     C98592  11.093  12.147   4.902  0.0987  0.1212 -0.5574
  731MOL0     C98593  11.113  12.095   4.757  0.1821 -0.4119 -0.2065
  731MOL0    Cl98594  11.284  12.103   4.713 -0.2118  0.2177 -0.0261
  731MOL0     C98595  10.287  11.914   5.536  0.6739 -0.1904  0.0794
  731MOL0     C98596  10.224  11.789   5.537  0.0775  0.4685 -0.3356
  731MOL0     O98597  10.144  11.587   5.319  0.2877  0.1295 -1.1268
  731MOL0     C98598  10.047  11.323   5.289 -0.2477  0.3568  0.1317
  731MOL0     C98599   9.996  11.195   5.296  0.9546 -0.5757  1.3538
  731MOL0     N98600   9.432  11.003   5.622  0.2077 -0.3607 -0.7086
  731MOL0     N98601   9.378  11.127   5.631 -0.5069  0.6375 -0.0425
  731MOL0     C98602   8.292  10.864   5.902  0.7581 -0.6783  0.9700
  731MOL0     C98603   8.181  10.780   5.918  0.6404  0.3533 -0.6253
  731MOL0     C98604   7.897  10.435   5.866  0.5989 -0.6616  0.9278
  731MOL0     C98605   7.817  10.452   5.754  0.6407 -0.6032  0.2647
  731MOL0     C98606   7.693  10.380   5.736 -0.1839 -1.3387  0.0508
  731MOL0     C98607   7.675  10.269   5.814  0.0765  0.2431 -0.1390
  731MOL0     O98608   7.598  10.166   5.776  0.1349 -0.1087  0.3075
  731MOL0     C98609   7.472  10.157   5.842  0.1827 -0.1437  0.7595
  731MOL0     C98610   7.353  10.203   5.754 -0.1031  1.0336  0.6213
  731MOL0     C98611   7.228  10.242   5.826  0.1007 -0.7825  0.5249
  731MOL0     C98612   7.130  10.302   5.723  0.5589 -0.5602 -0.1411
  731MOL0     C98613   7.013  10.362   5.782  0.0357 -0.7991 -1.1583
  731MOL0     C98614   6.907  10.392   5.841 -0.3632  0.2051 -0.3358
  731MOL0     C98615   7.761  10.241   5.925  0.0173  0.3187 -0.7393
  731MOL0     C98616   7.865  10.334   5.960  0.4931  0.4925 -0.2769
  731MOL0     C98617   7.947  10.300   6.081 -0.3144 -0.2957  0.8467
  731MOL0     H98618   8.099  10.714   5.601 -1.2731  1.7756  0.2936
  731MOL0     H98619   8.259  10.889   5.554 -0.4563 -0.1309 -0.3959
  731MOL0     H98620   8.477  10.939   5.579  1.8365 -1.3455  3.4912
  731MOL0     H98621   8.426  11.122   5.582 -2.1065  0.1944  0.5185
  731MOL0     H98622   8.644  10.963   5.712 -2.6564 -0.2716  1.0053
  731MOL0     H98623   8.613  11.145   5.735 -1.6945  2.3905 -3.0100
  731MOL0     H98624   8.656  11.164   5.475 -2.1644 -2.5513 -0.3946
  731MOL0     H98625   8.725  11.001   5.513 -1.2034 -0.5869  0.7419
  731MOL0     H98626   8.816  11.264   5.630  0.0771  0.7626 -1.9313
  731MOL0     H98627   8.887  11.106   5.670  0.3526  0.3164 -0.5563
  731MOL0     H98628   8.944  11.064   5.442  0.4488 -0.7234  1.2193
  731MOL0     H98629   8.879  11.224   5.401 -1.9373 -1.7585  1.3435
  731MOL0     H98630   9.043  11.321   5.579  1.6385  0.9298  0.6128
  731MOL0     H98631   9.110  11.160   5.585 -2.1092  0.1907  0.7657
  731MOL0     H98632   9.126  11.358   5.354 -3.0659  0.7704  1.7938
  731MOL0     H98633   9.168  11.191   5.330 -2.6141 -1.6376  1.6455
  731MOL0     H98634   9.352  11.346   5.379 -0.3152  1.3041  0.3903
  731MOL0     H98635   9.302  11.367   5.545  0.3633 -0.5030  0.3134
  731MOL0     H98636   9.430  11.105   5.313  0.0678  2.3453  0.4589
  731MOL0     H98637   9.536  10.780   5.537  0.4884  0.9270  0.1657
  731MOL0     H98638   9.488  10.803   5.378  3.1963 -1.7484 -1.2074
  731MOL0     H98639   9.710  10.782   5.351  0.2772  0.2507  0.5969
  731MOL0     H98640   9.699  10.960   5.361  1.3276 -0.7049 -1.8928
  731MOL0     H98641   9.792  10.804   5.612 -4.2302  0.2860  0.4441
  731MOL0     H98642   9.777  10.977   5.585  0.5324  0.2108 -1.0704
  731MOL0     H98643   9.966  10.799   5.431 -1.5336 -0.1025 -1.3905
  731MOL0     H98644  10.017  10.907   5.565 -0.6384  3.7125 -0.4117
  731MOL0     H98645  10.043  11.112   5.623 -2.4785 -3.3659 -1.6891
  731MOL0     H98646  10.118  11.342   5.625 -0.6821 -0.2535  0.5312
  731MOL0     H98647  10.484  11.589   5.471  1.1339  0.5976  0.4599
  731MOL0     H98648  10.597  11.803   5.439 -0.3819  0.3736 -1.8772
  731MOL0     H98649  10.646  12.170   5.508 -1.0145 -0.3737  0.8705
  731MOL0     H98650  10.678  12.004   5.528  1.6991  1.6585 -0.1107
  731MOL0     H98651  10.641  11.964   5.293  0.1314 -0.5414  2.9892
  731MOL0     H98652  10.553  12.115   5.264 -0.0771  0.2003  0.1811
  731MOL0     H98653  10.752  12.236   5.349 -1.8731  0.2641 -0.1367
  731MOL0     H98654  10.842  12.081   5.340 -1.0393 -0.1989  0.8987
  731MOL0     H98655  10.739  12.237   5.105  0.1478  0.8008  0.9623
  731MOL0     H98656  10.736  12.058   5.103 -1.0323  0.6851  1.0718
  731MOL0     H98657  10.971  12.034   5.128 -0.1191 -0.3890  0.8000
  731MOL0     H98658  10.998  12.203   5.157 -1.4791  0.3520  0.6763
  731MOL0     H98659  10.886  12.102   4.879 -0.6234 -0.2258  1.2265
  731MOL0     H98660  10.911  12.264   4.941 -0.8812  0.0238  1.5354
  731MOL0     H98661  11.143  12.089   4.980 -1.6660 -1.2328 -0.3684
  731MOL0     H98662  11.137  12.246   4.912  0.1415  0.0597 -0.1128
  731MOL0     H98663  11.078  11.992   4.740 -0.0543 -0.0750 -1.8876
  731MOL0     H98664  11.056  12.151   4.683  0.5076  0.3681  0.1244
  731MOL0     H98665  10.228  12.003   5.553 -1.6863 -1.5013 -0.7799
  731MOL0     H98666  10.117  11.785   5.558 -0.0199 -1.9571 -0.9511
  731MOL0     H98667  10.043  11.386   5.200 -1.1346 -0.3822 -0.3643
  731MOL0     H98668   9.964  11.153   5.201 -0.5834  1.2443  1.0042
  731MOL0     H98669   8.352  10.909   5.981  1.4113  0.0146  0.1002
  731MOL0     H98670   8.155  10.770   6.023  0.7014 -0.9292 -0.7284
  731MOL0     H98671   7.847  10.533   5.689  1.2522 -1.2530 -0.2789
  731MOL0     H98672   7.632  10.372   5.646  0.0907  1.4226 -0.4702
  731MOL0     H98673   7.463  10.220   5.931 -1.6149 -0.9100  1.1668
  731MOL0     H98674   7.467  10.053   5.876  2.9100 -0.6643 -0.1631
  731MOL0     H98675   7.330  10.127   5.679 -0.7642  0.2859  1.5540
  731MOL0     H98676   7.391  10.283   5.690  3.0863  0.4864  1.6275
  731MOL0     H98677   7.246  10.317   5.903 -2.0326  2.0138 -1.4632
  731MOL0     H98678   7.177  10.156   5.870 -3.6521  0.3989 -1.0403
  731MOL0     H98679   7.187  10.378   5.669 -0.9685  0.4149 -0.4483
  731MOL0     H98680   7.103  10.223   5.652  2.1037 -0.8105 -0.4819
  731MOL0     H98681   6.808  10.410   5.878  0.1128  0.5809  0.7900
  731MOL0     H98682   7.757  10.155   5.993  0.3679  1.5700  0.9346
  731MOL0     H98683   7.999  10.390   6.115 -2.3643  0.0779  3.2373
  731MOL0     H98684   7.882  10.275   6.165  1.0473 -1.6805  1.5389
  731MOL0     H98685   8.014  10.218   6.051  1.6926  2.1827 -2.0678
  732MOL0     O98686   8.921   0.818   4.231  0.1695 -0.5430  0.2734
  732MOL0     C98687   8.818   0.823   4.301  0.4093  0.5680  0.2741
  732MOL0     O98688   8.731   0.724   4.308 -0.1712  1.3853  0.5427
  732MOL0     C98689   8.781   0.595   4.278  0.1525  0.4356  0.4417
  732MOL0     C98690   8.848   0.517   4.377 -0.7041 -0.2874  0.1374
  732MOL0     C98691   8.899   0.386   4.350  0.1819  0.4787  0.6267
  732MOL0     C98692   8.868   0.324   4.228  1.2192 -1.2499 -0.1366
  732MOL0     O98693   8.912   0.198   4.214  0.1316 -0.6711 -0.4292
  732MOL0     C98694   8.953   0.176   4.078 -0.3970  0.5609  0.9955
  732MOL0     C98695   9.087   0.095   4.081  0.3903 -0.0544  0.0654
  732MOL0     C98696   9.066  -0.053   4.121  0.0398  0.0846 -1.0370
  732MOL0     C98697   9.075  -0.148   4.004 -0.3313  0.3079 -0.5438
  732MOL0     C98698   9.096  -0.296   4.038  0.0383 -0.0179 -0.0793
  732MOL0     C98699   9.251  -0.337   4.054  0.6677 -0.3541 -0.0473
  732MOL0     C98700   9.277  -0.454   4.150 -0.3716 -0.3655  0.1539
  732MOL0     C98701   9.224  -0.582   4.095 -0.4242 -0.1610  0.3685
  732MOL0     N98702   9.274  -0.621   3.962 -0.4142  0.3022  0.2479
  732MOL0     C98703   9.403  -0.662   3.932  0.1010 -0.1565  0.5213
  732MOL0     C98704   9.403  -0.676   3.793 -0.3698  0.1895  0.7543
  732MOL0     C98705   9.519  -0.711   3.715 -0.3622  0.0257  0.1898
  732MOL0     C98706   9.480  -0.746   3.567  0.5605 -0.2049 -0.5791
  732MOL0     C98707   9.596  -0.805   3.483  0.0358  0.6840  0.6233
  732MOL0     C98708   9.690  -0.695   3.426  0.2969 -0.0601 -0.7442
  732MOL0     O98709   9.785  -0.746   3.333  0.6894  1.1801 -0.4744
  732MOL0     C98710   9.914  -0.695   3.324 -0.1345 -0.1877 -0.6451
  732MOL0     C98711  10.005  -0.759   3.250 -0.2457  0.0244  0.0107
  732MOL0     C98712  10.138  -0.705   3.247 -0.3694 -0.3649  1.0312
  732MOL0     C98713  10.175  -0.575   3.303 -0.2666  0.4946 -0.2293
  732MOL0     C98714  10.308  -0.523   3.281 -0.2481  0.7347  0.1489
  732MOL0     O98715  10.380  -0.581   3.175  0.9061  0.3254 -0.3003
  732MOL0     C98716  10.519  -0.553   3.177  0.8367  0.3797  0.8920
  732MOL0     C98717  10.576  -0.426   3.176 -0.5892 -0.3433 -0.2061
  732MOL0     C98718  10.715  -0.414   3.164 -0.1597 -0.1162 -0.1651
  732MOL0     C98719  10.803  -0.524   3.160 -0.7628  0.4510 -0.2028
  732MOL0     O98720  10.942  -0.508   3.160  0.3723 -0.2474  0.3072
  732MOL0     C98721  11.023  -0.624   3.172  0.5211  0.2121 -0.7063
  732MOL0     C98722  11.170  -0.577   3.130  0.2407 -0.2778 -0.0379
  732MOL0     C98723  11.180  -0.490   3.004 -0.4460  0.5484 -0.4599
  732MOL0     C98724  11.329  -0.492   2.950  0.1840 -0.0274  0.7979
  732MOL0     C98725  11.341  -0.372   2.846 -0.9451  0.0052  0.0020
  732MOL0     C98726  11.485  -0.365   2.771 -0.3027  0.0680 -0.0453
  732MOL0     C98727  11.593  -0.308   2.866 -0.7394  0.4009 -0.1394
  732MOL0     C98728  11.724  -0.293   2.789 -1.5062 -1.0050  0.3469
  732MOL0    Cl98729  11.767  -0.433   2.697 -0.0815  0.1981  0.1121
  732MOL0     C98730  10.742  -0.652   3.178  0.6324 -0.3506 -0.2723
  732MOL0     C98731  10.596  -0.670   3.188 -0.3421 -0.0445  0.6015
  732MOL0     O98732  10.355  -0.441   3.356  0.0778  0.8913  0.0895
  732MOL0     C98733  10.081  -0.514   3.379 -0.3706 -0.1367 -0.0145
  732MOL0     C98734   9.950  -0.566   3.379  0.0231 -0.4265 -0.2204
  732MOL0     N98735   9.275  -0.636   3.747 -0.1404  0.3593 -0.3620
  732MOL0     N98736   9.203  -0.595   3.849  0.1906  0.8110 -0.5394
  732MOL0     C98737   8.784   0.399   4.135 -0.4782  0.2776 -0.1426
  732MOL0     C98738   8.731   0.532   4.161  0.5754  0.0060 -0.5372
  732MOL0     C98739   8.794   0.957   4.371  1.1139 -1.0019  0.3022
  732MOL0     C98740   8.891   1.054   4.348 -1.1122 -0.8508 -0.2643
  732MOL0     C98741   8.882   1.185   4.405 -0.6525 -0.2638  0.2209
  732MOL0     C98742   8.776   1.215   4.483 -0.3156 -1.7969  0.1335
  732MOL0     O98743   8.752   1.338   4.539 -0.0377  0.4457  0.0165
  732MOL0     C98744   8.867   1.427   4.567  0.5981 -0.5164 -0.5440
  732MOL0     C98745   8.813   1.544   4.658  0.4666 -0.0915  0.4716
  732MOL0     C98746   8.727   1.644   4.577 -0.1418  1.0205  0.4229
  732MOL0     C98747   8.691   1.771   4.649  0.4738 -0.0470 -1.0308
  732MOL0     C98748   8.814   1.845   4.687  0.5979 -0.5632  0.2423
  732MOL0     C98749   8.899   1.918   4.726  0.2004 -0.8749  0.6063
  732MOL0     C98750   8.673   1.124   4.502 -0.6854  0.2062 -0.2506
  732MOL0     C98751   8.684   0.990   4.446 -0.4474  0.4721 -0.2137
  732MOL0     C98752   8.575   0.896   4.475  0.1941  0.6975  0.2221
  732MOL0     H98753   8.867   0.564   4.473 -2.7968  0.3900  0.2654
  732MOL0     H98754   8.953   0.322   4.419  1.4337  1.8661  0.9842
  732MOL0     H98755   8.881   0.114   4.025  1.8829 -0.9918 -0.5131
  732MOL0     H98756   8.962   0.273   4.029 -0.0765 -0.0102 -0.1285
  732MOL0     H98757   9.151   0.143   4.155  0.3732  0.1281 -0.0367
  732MOL0     H98758   9.147   0.106   3.990  1.2401 -0.2004  0.6051
  732MOL0     H98759   8.967  -0.066   4.165 -0.4879  0.4198 -2.1158
  732MOL0     H98760   9.135  -0.067   4.205 -0.2089  1.5558 -0.5602
  732MOL0     H98761   8.982  -0.138   3.947 -0.1628 -3.1345 -1.6666
  732MOL0     H98762   9.148  -0.122   3.927 -2.9821 -0.1408 -3.3894
  732MOL0     H98763   9.041  -0.327   4.127 -2.6619 -2.5915 -2.4458
  732MOL0     H98764   9.058  -0.357   3.956 -0.8063 -1.6663  1.4601
  732MOL0     H98765   9.295  -0.354   3.956  2.5588  0.5969  0.5822
  732MOL0     H98766   9.306  -0.256   4.104 -0.8280 -0.4272  1.8498
  732MOL0     H98767   9.221  -0.439   4.243 -2.3447 -2.7290 -0.5522
  732MOL0     H98768   9.386  -0.465   4.159 -0.2627 -0.0585 -0.6862
  732MOL0     H98769   9.253  -0.655   4.171  0.0471  1.4112  1.7519
  732MOL0     H98770   9.114  -0.578   4.097 -0.5462 -2.3795  0.3585
  732MOL0     H98771   9.489  -0.689   3.992  1.9234 -0.4054 -2.0270
  732MOL0     H98772   9.588  -0.626   3.703 -0.6977  0.0085 -2.4602
  732MOL0     H98773   9.582  -0.789   3.757  2.3178  1.2810 -1.1971
  732MOL0     H98774   9.397  -0.818   3.567  1.6009 -1.5003  1.5660
  732MOL0     H98775   9.447  -0.649   3.528 -1.3951  0.0088  1.4267
  732MOL0     H98776   9.551  -0.874   3.410 -0.1898  0.5133  0.9231
  732MOL0     H98777   9.660  -0.869   3.545  0.1662  2.4000  2.3396
  732MOL0     H98778   9.741  -0.651   3.513 -0.5693 -1.4820  0.5128
  732MOL0     H98779   9.630  -0.615   3.381  0.0298  1.0760  1.5032
  732MOL0     H98780   9.976  -0.852   3.200 -0.4795  0.1738 -0.1354
  732MOL0     H98781  10.206  -0.773   3.197 -1.1840  0.0196 -0.6567
  732MOL0     H98782  10.508  -0.342   3.167 -1.1274 -0.7847 -0.3214
  732MOL0     H98783  10.761  -0.317   3.179  2.4449 -1.1088 -1.2091
  732MOL0     H98784  11.018  -0.656   3.277 -2.2887  1.0419 -0.4969
  732MOL0     H98785  11.001  -0.703   3.100 -0.1334  0.9924 -1.3907
  732MOL0     H98786  11.219  -0.526   3.214 -0.6471 -0.8277  0.8315
  732MOL0     H98787  11.230  -0.668   3.119 -1.0249 -1.2646  0.9352
  732MOL0     H98788  11.118  -0.527   2.922 -0.7367 -0.9226  0.3979
  732MOL0     H98789  11.140  -0.392   3.034  0.3753  0.6082  0.4919
  732MOL0     H98790  11.358  -0.587   2.904  1.7258  1.1221 -0.7197
  732MOL0     H98791  11.400  -0.485   3.033  1.0855 -2.7138  0.3719
  732MOL0     H98792  11.326  -0.277   2.899 -0.8368 -0.5704  1.1085
  732MOL0     H98793  11.258  -0.394   2.779 -1.9541 -0.5046  1.3551
  732MOL0     H98794  11.513  -0.469   2.752  1.0833  0.1315  1.3881
  732MOL0     H98795  11.486  -0.309   2.677 -2.3355 -0.8740 -0.6712
  732MOL0     H98796  11.608  -0.374   2.953  0.3030  0.5684 -0.1855
  732MOL0     H98797  11.568  -0.214   2.915  0.4904 -0.7502  2.9863
  732MOL0     H98798  11.715  -0.217   2.711  1.9319  2.0137  2.5856
  732MOL0     H98799  11.807  -0.261   2.852 -0.6790  1.9552 -2.0296
  732MOL0     H98800  10.806  -0.739   3.185  3.6340  1.7428  0.5494
  732MOL0     H98801  10.555  -0.771   3.191 -0.8488  0.1703  1.3228
  732MOL0     H98802  10.093  -0.420   3.431 -3.5996 -1.0703  2.8536
  732MOL0     H98803   9.888  -0.498   3.436  0.7222 -0.2645  0.3522
  732MOL0     H98804   8.753   0.349   4.044  0.0809 -0.9315  0.3132
  732MOL0     H98805   8.662   0.580   4.093  2.1780  3.5820  0.1049
  732MOL0     H98806   8.969   1.035   4.275 -0.0920 -3.1377  1.3042
  732MOL0     H98807   8.966   1.249   4.377 -1.1956  0.1470 -0.5042
  732MOL0     H98808   8.910   1.472   4.477  1.0828 -0.3234 -0.2240
  732MOL0     H98809   8.947   1.384   4.628  2.1329  0.4907 -1.7730
  732MOL0     H98810   8.894   1.593   4.713  1.1370 -1.1974  0.4926
  732MOL0     H98811   8.745   1.504   4.734 -0.1555  1.4404  0.7722
  732MOL0     H98812   8.639   1.591   4.541  0.5613 -0.1288  0.3479
  732MOL0     H98813   8.774   1.675   4.484  1.8046  0.0886  1.0394
  732MOL0     H98814   8.627   1.832   4.584 -0.8555  0.0828  0.3344
  732MOL0     H98815   8.644   1.748   4.745 -1.5622 -1.7809 -2.3244
  732MOL0     H98816   8.976   1.980   4.767 -0.6346  0.8196 -0.2816
  732MOL0     H98817   8.580   1.140   4.556  1.5144  3.2117  3.1168
  732MOL0     H98818   8.493   0.938   4.533 -0.1606 -0.2422  0.4198
  732MOL0     H98819   8.536   0.867   4.377  0.1972  3.2100 -0.5851
  732MOL0     H98820   8.596   0.806   4.534 -1.2390 -0.9743 -1.6822
  733MOL0     O98821   6.182   7.678   4.356 -0.0983 -0.4912 -0.2766
  733MOL0     C98822   6.114   7.738   4.269  0.1655 -0.6677 -0.4596
  733MOL0     O98823   6.141   7.751   4.135  0.1199  0.5299 -0.0304
  733MOL0     C98824   6.270   7.710   4.111  0.5949 -0.5831  0.1780
  733MOL0     C98825   6.296   7.596   4.036  0.3664 -0.3498 -0.9558
  733MOL0     C98826   6.428   7.549   4.008  0.2828 -0.3344 -0.9603
  733MOL0     C98827   6.540   7.619   4.045 -0.5370 -0.4676 -0.2972
  733MOL0     O98828   6.668   7.582   4.036 -0.3051  0.0515  0.1771
  733MOL0     C98829   6.696   7.443   4.003 -0.3483 -0.9763  0.5386
  733MOL0     C98830   6.838   7.411   4.052  0.2069 -0.4288  0.0001
  733MOL0     C98831   6.953   7.510   4.015  0.6347  0.4004  0.4128
  733MOL0     C98832   7.074   7.456   4.084 -0.2202  0.0947 -0.2435
  733MOL0     C98833   7.190   7.560   4.070 -0.1179 -0.5493 -0.4163
  733MOL0     C98834   7.265   7.556   3.937 -0.2388  0.8515  0.6087
  733MOL0     C98835   7.401   7.635   3.938  0.4683 -0.8466  0.4460
  733MOL0     C98836   7.473   7.648   3.806  1.3132  0.9273  0.4176
  733MOL0     N98837   7.605   7.710   3.830  0.0183 -0.1404  0.0861
  733MOL0     C98838   7.715   7.643   3.874  0.4362 -0.1818  0.1998
  733MOL0     C98839   7.821   7.720   3.830 -0.3636 -0.2534 -0.1109
  733MOL0     C98840   7.972   7.687   3.852 -0.6818  0.2580  0.3882
  733MOL0     C98841   8.064   7.714   3.736  0.0735  0.5010  0.2250
  733MOL0     C98842   8.207   7.683   3.781  0.3276 -0.1519 -0.8888
  733MOL0     C98843   8.305   7.719   3.665 -0.6620 -0.3719 -0.5770
  733MOL0     O98844   8.339   7.857   3.655 -0.0184  0.2701  0.0360
  733MOL0     C98845   8.462   7.884   3.598  0.0228 -0.0634 -0.3145
  733MOL0     C98846   8.549   7.796   3.533 -0.0572 -0.4011 -0.0484
  733MOL0     C98847   8.684   7.838   3.502 -0.3807 -0.2777 -0.8057
  733MOL0     C98848   8.729   7.967   3.539 -0.2889 -0.5494 -0.1519
  733MOL0     C98849   8.868   8.018   3.500  1.3847 -0.4165 -0.0553
  733MOL0     O98850   8.897   8.156   3.517  0.6594  0.1553 -0.4184
  733MOL0     C98851   9.024   8.210   3.499  0.3701 -0.0835 -0.3149
  733MOL0     C98852   9.139   8.152   3.427  0.7105 -0.4026 -0.4541
  733MOL0     C98853   9.248   8.233   3.415  0.4835 -0.1944  0.4766
  733MOL0     C98854   9.261   8.353   3.477 -0.1217  0.7201  0.1276
  733MOL0     O98855   9.380   8.417   3.456  1.0550  0.1021 -0.3241
  733MOL0     C98856   9.373   8.556   3.480 -0.3465 -0.3661 -1.0126
  733MOL0     C98857   9.513   8.607   3.430 -0.3230 -0.7533  0.0060
  733MOL0     C98858   9.535   8.746   3.483  0.1300 -0.4676 -0.3513
  733MOL0     C98859   9.648   8.818   3.414 -0.3375  0.6357 -0.1226
  733MOL0     C98860   9.596   8.874   3.281  0.3546  0.3012  0.3766
  733MOL0     C98861   9.707   8.942   3.200 -0.6542  0.2012  0.6131
  733MOL0     C98862   9.686   8.958   3.052 -0.0195  0.3492 -0.0104
  733MOL0     C98863   9.784   9.068   2.991 -0.2968 -0.3732 -0.5595
  733MOL0    Cl98864   9.730   9.133   2.824 -0.0688 -0.4467 -0.0835
  733MOL0     C98865   9.152   8.409   3.547 -0.6818  0.1787  0.8002
  733MOL0     C98866   9.035   8.335   3.559  0.1383  0.3234  0.4146
  733MOL0     O98867   8.950   7.929   3.466  0.0050  0.0240 -0.1183
  733MOL0     C98868   8.638   8.060   3.583  0.6018 -0.7439 -0.1964
  733MOL0     C98869   8.512   8.016   3.621  1.1318  0.4660  0.8089
  733MOL0     N98870   7.767   7.831   3.765  0.2911  0.6711 -0.6933
  733MOL0     N98871   7.641   7.818   3.765  0.1754  0.8940  0.0052
  733MOL0     C98872   6.513   7.736   4.119  0.0961  0.5630 -0.0448
  733MOL0     C98873   6.381   7.777   4.161 -0.4578 -0.1515 -0.3363
  733MOL0     C98874   5.986   7.806   4.305 -0.4365 -0.1543  0.3443
  733MOL0     C98875   5.878   7.819   4.213 -0.2013  0.4298 -0.3884
  733MOL0     C98876   5.758   7.880   4.249  0.0979 -0.7747  0.9143
  733MOL0     C98877   5.745   7.941   4.368  0.3509 -0.1477  0.4819
  733MOL0     O98878   5.646   8.030   4.388  0.0541  0.3589 -0.0384
  733MOL0     C98879   5.677   8.163   4.339  0.4638 -0.0749  0.5287
  733MOL0     C98880   5.726   8.254   4.453  1.2625  0.8674 -0.0470
  733MOL0     C98881   5.610   8.275   4.559 -0.3361  0.3470  0.5769
  733MOL0     C98882   5.655   8.366   4.668 -0.1658  0.2552 -0.6003
  733MOL0     C98883   5.552   8.391   4.771 -0.1258  0.4025 -0.2084
  733MOL0     C98884   5.462   8.391   4.854  0.3559  0.3329 -0.1205
  733MOL0     C98885   5.849   7.943   4.454 -0.6196  0.7388  0.3912
  733MOL0     C98886   5.972   7.875   4.429 -0.8344 -0.0078 -0.7858
  733MOL0     C98887   6.080   7.900   4.539 -0.5250 -0.3706  0.3471
  733MOL0     H98888   6.212   7.530   4.019 -1.0489  1.5045 -1.5017
  733MOL0     H98889   6.430   7.464   3.940 -2.8961 -1.1574 -0.1773
  733MOL0     H98890   6.632   7.381   4.067  0.3051  0.2870  2.5156
  733MOL0     H98891   6.688   7.423   3.896 -0.5689 -3.0938  0.9065
  733MOL0     H98892   6.864   7.314   4.009 -0.0821  0.1710 -1.5565
  733MOL0     H98893   6.834   7.412   4.162  0.3602  1.8504  0.0261
  733MOL0     H98894   6.931   7.614   4.038  1.7652  0.4552  1.3699
  733MOL0     H98895   6.983   7.502   3.910  1.7233 -1.8284  0.8179
  733MOL0     H98896   7.058   7.444   4.191 -0.5050  0.8781 -0.1899
  733MOL0     H98897   7.097   7.357   4.045 -1.4867 -1.6030  2.9996
  733MOL0     H98898   7.151   7.662   4.075  3.0395  0.7674 -0.7098
  733MOL0     H98899   7.252   7.539   4.157 -1.0995  1.2052  0.7561
  733MOL0     H98900   7.290   7.454   3.907 -3.2548  0.9318 -2.8726
  733MOL0     H98901   7.209   7.597   3.852 -0.5541  2.4587  1.5488
  733MOL0     H98902   7.458   7.581   4.013 -2.1246 -1.9577  1.7240
  733MOL0     H98903   7.381   7.738   3.970  1.2940  0.3617 -2.5598
  733MOL0     H98904   7.493   7.549   3.763  0.2322  0.3838  1.1122
  733MOL0     H98905   7.411   7.712   3.743 -0.6005 -1.0181  0.2126
  733MOL0     H98906   7.711   7.550   3.929 -0.7550 -0.8911 -1.0390
  733MOL0     H98907   8.007   7.756   3.930  3.9651  1.0031 -1.9616
  733MOL0     H98908   7.974   7.582   3.881  2.6479 -0.3007 -1.3183
  733MOL0     H98909   8.040   7.642   3.657 -0.5774 -1.6204  2.2468
  733MOL0     H98910   8.065   7.820   3.710  1.8136  0.5999  0.5305
  733MOL0     H98911   8.218   7.574   3.787 -2.2584 -0.5145 -1.4036
  733MOL0     H98912   8.229   7.740   3.871 -0.0907 -2.3073  0.6536
  733MOL0     H98913   8.274   7.681   3.567  2.3766  1.4920 -2.4218
  733MOL0     H98914   8.395   7.664   3.692  0.0425  0.6758 -0.7508
  733MOL0     H98915   8.516   7.694   3.522  1.3349 -0.6651 -2.5135
  733MOL0     H98916   8.754   7.767   3.460  0.4477  1.7283 -3.0044
  733MOL0     H98917   9.135   8.064   3.364  0.2478  1.4387 -3.1356
  733MOL0     H98918   9.336   8.209   3.357  0.4190  0.3709  0.1375
  733MOL0     H98919   9.288   8.611   3.439 -1.6043  0.4306  2.3858
  733MOL0     H98920   9.356   8.570   3.587 -2.5364  0.7162 -1.4557
  733MOL0     H98921   9.597   8.549   3.469  1.2350  0.1112 -1.8605
  733MOL0     H98922   9.526   8.599   3.322 -2.0548 -2.4351 -0.1095
  733MOL0     H98923   9.445   8.807   3.473  0.2367 -0.1395  0.6075
  733MOL0     H98924   9.561   8.730   3.588 -4.7614 -0.3812  1.1290
  733MOL0     H98925   9.730   8.745   3.411  0.2132  1.2543 -0.2354
  733MOL0     H98926   9.691   8.898   3.475  0.1475  0.8656 -0.7596
  733MOL0     H98927   9.514   8.944   3.303 -0.1201 -0.0384 -0.2956
  733MOL0     H98928   9.546   8.791   3.230 -0.0315 -0.0736  1.3207
  733MOL0     H98929   9.720   9.040   3.247  1.8341 -0.1207  0.7582
  733MOL0     H98930   9.797   8.882   3.216 -0.8511 -0.6949 -1.3817
  733MOL0     H98931   9.582   8.988   3.035 -0.2253 -0.8503 -1.0103
  733MOL0     H98932   9.697   8.862   3.000  2.0304  0.1520  0.6725
  733MOL0     H98933   9.792   9.142   3.071  1.7677 -1.1817  0.0631
  733MOL0     H98934   9.884   9.025   2.977  0.8048  1.3787  1.3599
  733MOL0     H98935   9.153   8.505   3.597  2.4564  1.2477 -1.0551
  733MOL0     H98936   8.952   8.381   3.612 -2.8196 -1.1517 -2.5553
  733MOL0     H98937   8.658   8.167   3.589  0.4512 -0.7141 -0.2025
  733MOL0     H98938   8.452   8.091   3.673 -3.4771 -1.4190 -1.1976
  733MOL0     H98939   6.595   7.791   4.164  0.1966 -0.9220  1.6958
  733MOL0     H98940   6.373   7.867   4.221 -4.3117 -1.1376  0.9264
  733MOL0     H98941   5.885   7.775   4.114  0.6149 -3.0896  1.0694
  733MOL0     H98942   5.671   7.885   4.183 -0.0432  1.6381  1.2042
  733MOL0     H98943   5.583   8.210   4.310  0.1455 -0.2855  1.1927
  733MOL0     H98944   5.751   8.154   4.259 -0.1113 -2.3962  0.1854
  733MOL0     H98945   5.755   8.350   4.408 -0.7780  2.1451  1.1665
  733MOL0     H98946   5.826   8.228   4.488  2.3327  1.8062 -2.1974
  733MOL0     H98947   5.599   8.177   4.607 -0.4456 -0.3265 -0.7784
  733MOL0     H98948   5.521   8.303   4.502  0.1688  1.2461  0.2227
  733MOL0     H98949   5.746   8.328   4.716  1.1544  1.2229 -2.2057
  733MOL0     H98950   5.681   8.463   4.625  1.3325 -0.0523 -0.4269
  733MOL0     H98951   5.378   8.397   4.920  1.3084  1.6815  1.0124
  733MOL0     H98952   5.821   8.002   4.541 -1.1291 -0.1061  0.8134
  733MOL0     H98953   6.180   7.880   4.500 -0.9551 -1.8498 -0.0621
  733MOL0     H98954   6.085   8.001   4.579  1.4878 -0.3367  0.0928
  733MOL0     H98955   6.072   7.832   4.625  2.3810  0.4877  1.3990
  734MOL0     O98956  10.777   7.965   3.437 -0.0228 -0.2879 -0.1351
  734MOL0     C98957  10.798   7.846   3.414 -0.1134  0.3407 -0.0814
  734MOL0     O98958  10.913   7.780   3.459 -0.3452  0.5626  0.0655
  734MOL0     C98959  11.025   7.848   3.485 -1.0712 -0.1003 -1.1514
  734MOL0     C98960  11.075   7.944   3.398 -0.6823 -0.4320 -0.0666
  734MOL0     C98961  11.191   8.023   3.431  0.3489  0.5161  0.5533
  734MOL0     C98962  11.260   7.997   3.555 -0.0103  0.4987  0.6070
  734MOL0     O98963  11.368   8.075   3.588  0.3850 -1.3057  1.1620
  734MOL0     C98964  11.431   8.053   3.714  0.4548 -0.5116  0.2031
  734MOL0     C98965  11.537   7.935   3.697 -0.1431 -1.1085 -0.7921
  734MOL0     C98966  11.632   7.981   3.580  0.7538  0.2543 -0.2209
  734MOL0     C98967  11.755   7.896   3.574 -0.2641  0.4687  0.0343
  734MOL0     C98968  11.749   7.765   3.495 -0.7805 -0.2025 -0.6825
  734MOL0     C98969  11.750   7.787   3.342  0.4074  0.5875 -0.8924
  734MOL0     C98970  11.651   7.690   3.281 -0.3918 -0.2615 -0.1443
  734MOL0     C98971  11.698   7.543   3.270 -0.0268  0.1799  0.3163
  734MOL0     N98972  11.671   7.463   3.391  0.4762  0.8913 -0.4279
  734MOL0     C98973  11.558   7.393   3.421 -0.0937 -0.6574  0.2531
  734MOL0     C98974  11.595   7.291   3.497  0.0301 -0.3475 -0.8427
  734MOL0     C98975  11.502   7.190   3.557  0.2663 -0.0556  0.2192
  734MOL0     C98976  11.507   7.194   3.708  0.1888  0.1988 -0.2605
  734MOL0     C98977  11.464   7.336   3.762 -0.6489  0.4801  0.0422
  734MOL0     C98978  11.443   7.355   3.914 -0.3532 -0.7079  0.8130
  734MOL0     O98979  11.354   7.462   3.957  0.2042 -0.0621  0.3890
  734MOL0     C98980  11.217   7.449   3.926  0.5599  0.5537  0.0459
  734MOL0     C98981  11.159   7.580   3.925  0.3757  0.2359  1.0774
  734MOL0     C98982  11.023   7.593   3.900 -0.4677 -0.3031 -0.5940
  734MOL0     C98983  10.944   7.479   3.876  0.2573 -0.6520  0.7234
  734MOL0     C98984  10.796   7.502   3.833  0.2958  0.3981 -1.1234
  734MOL0     O98985  10.741   7.625   3.829  0.2300 -0.2193  0.5283
  734MOL0     C98986  10.610   7.635   3.791  0.5106  0.5018  0.3187
  734MOL0     C98987  10.580   7.663   3.662 -1.2276  1.1318  1.3034
  734MOL0     C98988  10.446   7.651   3.621 -0.6631 -0.1666 -0.1874
  734MOL0     C98989  10.351   7.618   3.721 -0.3614  0.0121  0.6152
  734MOL0     O98990  10.223   7.577   3.682 -0.4059 -0.3591  0.5410
  734MOL0     C98991  10.112   7.606   3.767  0.0951 -0.2985 -0.0086
  734MOL0     C98992   9.993   7.571   3.672 -0.2324 -0.4685  0.8271
  734MOL0     C98993   9.983   7.679   3.557 -0.1812  0.4915 -0.0082
  734MOL0     C98994   9.884   7.625   3.458 -0.1132  0.0839 -0.0300
  734MOL0     C98995   9.871   7.725   3.346 -0.5107 -0.4290 -0.5194
  734MOL0     C98996   9.817   7.663   3.217  0.7239  0.1453  0.2018
  734MOL0     C98997   9.795   7.762   3.102 -0.5309  0.3103  0.0918
  734MOL0     C98998   9.747   7.703   2.972 -0.1035  0.3617  0.5287
  734MOL0    Cl98999   9.588   7.640   2.980 -0.1212  0.0717 -0.5247
  734MOL0     C99000  10.384   7.614   3.856 -0.9305 -0.5045 -0.2842
  734MOL0     C99001  10.514   7.627   3.896 -0.4863  0.4023  0.2455
  734MOL0     O99002  10.736   7.399   3.800  0.0038  0.7338  0.2955
  734MOL0     C99003  11.002   7.349   3.872 -0.1000 -0.8069 -0.3841
  734MOL0     C99004  11.141   7.336   3.893  0.0222  0.1212  0.0827
  734MOL0     N99005  11.732   7.298   3.504  0.6769 -0.1211  0.4234
  734MOL0     N99006  11.776   7.398   3.454  0.3355  0.2751  0.3561
  734MOL0     C99007  11.210   7.889   3.634 -0.5292 -0.2486 -0.1117
  734MOL0     C99008  11.097   7.815   3.598 -0.1113 -0.4540  0.2264
  734MOL0     C99009  10.693   7.767   3.347 -0.0604 -0.8184  0.5230
  734MOL0     C99010  10.735   7.642   3.301 -0.0109  0.5134  0.7330
  734MOL0     C99011  10.647   7.573   3.223  0.1181 -0.0195  0.0419
  734MOL0     C99012  10.513   7.610   3.213  0.2639 -0.5375 -0.1878
  734MOL0     O99013  10.415   7.549   3.138  0.4699  0.2693 -0.0802
  734MOL0     C99014  10.439   7.413   3.097  0.9424  0.0460 -0.6113
  734MOL0     C99015  10.448   7.418   2.947  0.2363  0.0223  0.6671
  734MOL0     C99016  10.314   7.416   2.861 -0.3148  0.2615  0.3102
  734MOL0     C99017  10.267   7.543   2.791  0.0733  0.5908  0.0754
  734MOL0     C99018  10.226   7.642   2.891 -0.1177  0.1021  0.0786
  734MOL0     C99019  10.208   7.728   2.975  0.5131  0.3172 -0.6643
  734MOL0     C99020  10.472   7.728   3.265 -0.5440  0.0018 -0.8043
  734MOL0     C99021  10.562   7.810   3.335  0.1886  0.1694  0.0148
  734MOL0     C99022  10.507   7.930   3.409  0.0142 -0.0943  0.6102
  734MOL0     H99023  11.013   7.971   3.313 -1.6098 -2.1522  0.0088
  734MOL0     H99024  11.229   8.096   3.361 -1.1984 -0.8602 -1.8573
  734MOL0     H99025  11.482   8.143   3.747 -1.7336  1.7065 -2.0410
  734MOL0     H99026  11.358   8.034   3.793 -1.4446 -0.1980 -1.3992
  734MOL0     H99027  11.494   7.837   3.672  1.5314 -1.7667 -1.2014
  734MOL0     H99028  11.583   7.917   3.794 -4.9645 -1.9349  1.6762
  734MOL0     H99029  11.662   8.086   3.580  1.2322  0.1444  1.3831
  734MOL0     H99030  11.578   7.977   3.485 -3.5699 -0.2215  1.9939
  734MOL0     H99031  11.830   7.959   3.525 -0.3288  1.6488  1.3896
  734MOL0     H99032  11.798   7.872   3.672  0.0805 -0.3926 -0.3106
  734MOL0     H99033  11.830   7.700   3.530  0.1087  1.5750  0.6911
  734MOL0     H99034  11.656   7.720   3.531 -1.5376  2.7861  1.4620
  734MOL0     H99035  11.717   7.890   3.322 -1.3662 -0.1457 -2.0076
  734MOL0     H99036  11.852   7.775   3.304  1.6088  1.8401  1.6143
  734MOL0     H99037  11.639   7.730   3.179  1.0428 -1.0211 -0.6275
  734MOL0     H99038  11.561   7.694   3.344  0.2394 -0.2570  0.7654
  734MOL0     H99039  11.676   7.496   3.174  1.0143 -1.3481  0.8000
  734MOL0     H99040  11.807   7.554   3.266 -0.2009  1.8465 -1.6865
  734MOL0     H99041  11.459   7.415   3.381  0.3135 -0.4891 -0.6758
  734MOL0     H99042  11.404   7.219   3.519  0.1726 -2.7486 -1.9006
  734MOL0     H99043  11.532   7.092   3.519 -1.5342 -1.5559  2.3711
  734MOL0     H99044  11.425   7.129   3.740  2.0567 -1.1281  2.2008
  734MOL0     H99045  11.601   7.156   3.749  1.2657  0.0454 -2.7269
  734MOL0     H99046  11.370   7.352   3.707  0.4144  1.5457 -1.5682
  734MOL0     H99047  11.525   7.423   3.734 -0.3743  1.1595  2.5476
  734MOL0     H99048  11.540   7.367   3.962  0.2338 -2.6959  0.2294
  734MOL0     H99049  11.401   7.265   3.961 -1.8251 -1.3349 -1.5021
  734MOL0     H99050  11.217   7.672   3.933  0.1763  0.3136  1.6532
  734MOL0     H99051  10.973   7.689   3.902  1.7822  0.9489 -0.5896
  734MOL0     H99052  10.664   7.678   3.594 -1.6322 -1.3153  0.1627
  734MOL0     H99053  10.429   7.662   3.514  0.5848 -0.6992 -0.4576
  734MOL0     H99054  10.119   7.544   3.857 -2.7649 -0.7593 -0.0126
  734MOL0     H99055  10.097   7.713   3.786 -1.9541 -0.5658  0.1267
  734MOL0     H99056   9.995   7.468   3.633 -4.2388  0.0642 -1.4058
  734MOL0     H99057   9.905   7.573   3.737 -1.3677 -0.8794 -0.6116
  734MOL0     H99058   9.956   7.778   3.593  0.4967  1.7074 -2.6285
  734MOL0     H99059  10.079   7.689   3.506 -0.8041 -0.6439 -1.4551
  734MOL0     H99060   9.795   7.599   3.517  1.4470 -0.5560  2.1927
  734MOL0     H99061   9.924   7.534   3.412 -0.4743 -0.5605  0.8924
  734MOL0     H99062   9.969   7.772   3.329 -0.5321 -1.2760 -3.5105
  734MOL0     H99063   9.806   7.803   3.387  0.9325  0.8066 -0.4934
  734MOL0     H99064   9.883   7.584   3.180  1.4277  0.7105  0.2442
  734MOL0     H99065   9.719   7.632   3.256  0.4032  2.2958  1.2558
  734MOL0     H99066   9.892   7.803   3.072  0.2320 -0.1261  1.8290
  734MOL0     H99067   9.724   7.843   3.123 -0.4297 -0.0360  1.9663
  734MOL0     H99068   9.744   7.781   2.895  0.1160  0.1134  0.2670
  734MOL0     H99069   9.811   7.620   2.939 -1.3908 -1.5531  2.5839
  734MOL0     H99070  10.305   7.612   3.930 -1.1169  0.1315 -0.4523
  734MOL0     H99071  10.542   7.617   4.000  1.4025 -0.9086 -0.3133
  734MOL0     H99072  10.951   7.262   3.832 -1.1406  0.7277 -2.6203
  734MOL0     H99073  11.178   7.238   3.867 -0.9937 -0.2167 -0.1486
  734MOL0     H99074  11.268   7.856   3.720 -0.8482  1.2491  0.7251
  734MOL0     H99075  11.048   7.745   3.665  0.3649 -0.3509  0.6937
  734MOL0     H99076  10.837   7.606   3.310 -0.1750  0.1022  0.9648
  734MOL0     H99077  10.689   7.490   3.167  0.5282  0.0685  0.2113
  734MOL0     H99078  10.360   7.344   3.129  1.2366 -0.2147 -0.4347
  734MOL0     H99079  10.526   7.363   3.141  0.8339 -0.4963 -1.0049
  734MOL0     H99080  10.508   7.330   2.924 -2.4328 -1.2518 -2.2133
  734MOL0     H99081  10.516   7.497   2.915  1.0709 -1.3050 -0.9868
  734MOL0     H99082  10.241   7.375   2.932 -0.0124  1.9182  1.6595
  734MOL0     H99083  10.332   7.349   2.777  0.8509  1.8694 -0.7902
  734MOL0     H99084  10.351   7.583   2.734  0.8076  0.5637  1.1135
  734MOL0     H99085  10.183   7.526   2.723  1.2334 -0.5743 -1.1066
  734MOL0     H99086  10.188   7.815   3.035  0.0110  0.1118 -0.5345
  734MOL0     H99087  10.368   7.756   3.251 -0.5321  0.8425  0.5538
  734MOL0     H99088  10.555   8.022   3.375  3.4725 -1.2915  1.8233
  734MOL0     H99089  10.398   7.939   3.399 -0.0813 -0.8468  0.8867
  734MOL0     H99090  10.535   7.929   3.515  0.1087  1.0728  0.6133
  735MOL0     O99091  10.068   2.297   5.967  0.6160  0.3098 -0.6362
  735MOL0     C99092  10.035   2.244   6.079 -0.5021 -0.4876 -0.0021
  735MOL0     O99093  10.099   2.128   6.136  0.6282 -0.2204  0.3216
  735MOL0     C99094  10.216   2.087   6.089 -0.2254 -0.5003  0.3378
  735MOL0     C99095  10.328   2.161   6.132 -0.5865  0.3094  0.0668
  735MOL0     C99096  10.454   2.131   6.076  0.6312 -0.2789  0.3553
  735MOL0     C99097  10.457   2.029   5.979  0.0950  0.2233  0.4543
  735MOL0     O99098  10.573   1.983   5.918  0.3311  0.4692  0.4137
  735MOL0     C99099  10.689   2.067   5.935  0.6433  0.1390  0.1949
  735MOL0     C99100  10.790   2.024   5.838 -0.1760 -0.8677 -0.5727
  735MOL0     C99101  10.920   2.110   5.840  0.3160  0.2568 -0.2426
  735MOL0     C99102  11.029   2.046   5.762 -0.4438  0.4637 -0.0440
  735MOL0     C99103  11.171   2.112   5.781  0.1168 -0.0340  0.3421
  735MOL0     C99104  11.284   2.039   5.707  0.9555 -0.1278 -0.0311
  735MOL0     C99105  11.420   2.112   5.720  0.2468 -1.0515 -0.8100
  735MOL0     C99106  11.514   2.034   5.639 -0.1769 -0.3090  0.6384
  735MOL0     N99107  11.658   2.075   5.662 -0.9832  0.9334 -0.1586
  735MOL0     C99108  11.701   2.196   5.639 -0.4195 -0.2420  0.2314
  735MOL0     C99109  11.829   2.199   5.682 -0.2445  0.3902  0.1021
  735MOL0     C99110  11.919   2.317   5.682 -1.1387  0.0994  0.7725
  735MOL0     C99111  11.843   2.449   5.671 -0.7610  0.5376  0.1143
  735MOL0     C99112  11.931   2.576   5.660 -0.2597  0.2105  0.2788
  735MOL0     C99113  12.045   2.593   5.760 -0.4484  0.9208 -0.7813
  735MOL0     O99114  12.001   2.584   5.894  0.4098 -0.5105 -0.0327
  735MOL0     C99115  12.086   2.624   5.998 -0.6854  0.2346  0.1758
  735MOL0     C99116  12.026   2.664   6.114 -0.4566  0.0595  0.3961
  735MOL0     C99117  12.100   2.725   6.212 -0.6640  0.1509  0.4121
  735MOL0     C99118  12.237   2.755   6.201 -0.1846 -0.0164 -0.6438
  735MOL0     C99119  12.308   2.830   6.311  0.4471 -0.3055 -0.3856
  735MOL0     O99120  12.243   2.874   6.418 -0.2684  0.0387 -0.5723
  735MOL0     C99121  12.291   2.863   6.544 -1.0820  0.2154  0.4398
  735MOL0     C99122  12.411   2.919   6.576 -0.1123  0.6136 -0.8358
  735MOL0     C99123  12.466   2.892   6.707 -0.1377 -0.7135 -0.5824
  735MOL0     C99124  12.389   2.832   6.806  0.4492 -0.0698 -0.1001
  735MOL0     O99125  12.444   2.811   6.932  0.0718 -0.1090 -0.0936
  735MOL0     C99126  12.574   2.862   6.978 -0.1687 -0.7192 -0.0988
  735MOL0     C99127  12.612   2.766   7.084  0.2883  0.1821 -0.0516
  735MOL0     C99128  12.724   2.823   7.177 -0.2307 -0.4000 -0.1243
  735MOL0     C99129  12.782   2.713   7.267 -0.2494 -0.0449 -0.5511
  735MOL0     C99130  12.923   2.746   7.317 -0.3209 -0.2568 -0.0801
  735MOL0     C99131  13.043   2.716   7.224  0.0392  0.4022  0.3272
  735MOL0     C99132  13.169   2.797   7.253  0.6034 -0.6476  0.0043
  735MOL0     C99133  13.242   2.772   7.393 -0.4232  0.3559 -0.3619
  735MOL0    Cl99134  13.257   2.595   7.412  0.0787  0.1457 -0.4794
  735MOL0     C99135  12.264   2.784   6.775 -0.0870  0.3159 -0.3391
  735MOL0     C99136  12.210   2.797   6.643 -0.7295  0.3805 -0.7773
  735MOL0     O99137  12.427   2.844   6.290 -0.0566  0.5957  0.1029
  735MOL0     C99138  12.299   2.706   6.086  0.3601 -0.7711 -0.0620
  735MOL0     C99139  12.230   2.641   5.978 -0.7007 -0.8264  0.3755
  735MOL0     N99140  11.856   2.073   5.735  0.3071  0.1344  0.7536
  735MOL0     N99141  11.751   2.001   5.726 -0.3847 -0.0259 -0.2019
  735MOL0     C99142  10.347   1.946   5.950  0.2621  0.7363  0.5087
  735MOL0     C99143  10.220   1.977   6.001  0.4241 -0.2527  0.1094
  735MOL0     C99144   9.949   2.316   6.175  0.5825 -0.4338  0.0023
  735MOL0     C99145   9.915   2.452   6.139 -0.9776  0.1826 -0.4442
  735MOL0     C99146   9.827   2.522   6.217  0.3876  0.0211 -0.4218
  735MOL0     C99147   9.772   2.468   6.330 -1.0371 -0.4993 -0.3519
  735MOL0     O99148   9.692   2.542   6.405 -0.1947  0.0268  0.4717
  735MOL0     C99149   9.592   2.632   6.345  0.4921  0.4380  0.1607
  735MOL0     C99150   9.484   2.547   6.266 -0.8547  0.5921  0.0580
  735MOL0     C99151   9.398   2.637   6.183  0.1066  0.6387  0.3658
  735MOL0     C99152   9.268   2.582   6.144 -0.6725  0.2757  0.2939
  735MOL0     C99153   9.184   2.515   6.249 -0.3774 -0.3251 -0.3544
  735MOL0     C99154   9.104   2.443   6.311  0.2724 -0.2448  0.4869
  735MOL0     C99155   9.807   2.341   6.370 -0.4567 -0.7119  0.0307
  735MOL0     C99156   9.888   2.256   6.295 -1.2618  1.1531 -0.2306
  735MOL0     C99157   9.907   2.111   6.339  0.6015 -0.6519  0.0901
  735MOL0     H99158  10.322   2.241   6.205 -1.0516 -0.0842  0.4678
  735MOL0     H99159  10.548   2.166   6.119  1.5651 -3.6780  1.4051
  735MOL0     H99160  10.665   2.174   5.939 -0.5933 -0.1510  1.1992
  735MOL0     H99161  10.737   2.044   6.030  1.2278 -0.2605 -0.1892
  735MOL0     H99162  10.744   2.026   5.739 -2.5955  1.9078  0.4494
  735MOL0     H99163  10.805   1.918   5.861 -1.0824 -0.3481  3.0354
  735MOL0     H99164  10.955   2.128   5.942  1.6448  3.4580 -1.1518
  735MOL0     H99165  10.897   2.209   5.802 -0.5864  1.0305  2.1542
  735MOL0     H99166  11.038   1.945   5.803 -1.9657  0.9862  1.7153
  735MOL0     H99167  10.982   2.035   5.664 -1.2092 -1.2064  0.4858
  735MOL0     H99168  11.168   2.213   5.737 -0.7006  0.3840  1.3276
  735MOL0     H99169  11.195   2.113   5.887 -1.2282 -0.3678  0.6627
  735MOL0     H99170  11.279   1.936   5.744 -1.9790 -0.6585 -1.5961
  735MOL0     H99171  11.260   2.040   5.600 -0.1206 -0.7542  0.1889
  735MOL0     H99172  11.437   2.129   5.827 -2.6612  3.7196 -0.7856
  735MOL0     H99173  11.418   2.215   5.683 -2.4072 -0.2497  1.2107
  735MOL0     H99174  11.506   1.928   5.661 -3.1723 -0.1409  0.7879
  735MOL0     H99175  11.485   2.053   5.536  0.3776 -0.3108  0.4799
  735MOL0     H99176  11.643   2.277   5.595 -0.7223 -0.1727  0.7460
  735MOL0     H99177  11.979   2.312   5.774 -0.6978 -2.2431  0.4230
  735MOL0     H99178  11.991   2.318   5.599 -1.5714 -0.7853  0.3704
  735MOL0     H99179  11.771   2.447   5.589 -0.0645 -2.9989 -0.5985
  735MOL0     H99180  11.778   2.458   5.758 -1.5281 -1.7342 -0.1402
  735MOL0     H99181  11.873   2.668   5.671  2.4155  2.3661 -1.9583
  735MOL0     H99182  11.966   2.582   5.557 -0.5212  0.2675  0.1944
  735MOL0     H99183  12.092   2.691   5.747  2.7742 -0.5292 -0.8839
  735MOL0     H99184  12.117   2.514   5.738 -0.8293  0.1819  0.5272
  735MOL0     H99185  11.918   2.656   6.119 -0.5611  1.8515  2.8476
  735MOL0     H99186  12.045   2.773   6.293 -2.5722 -0.5991 -0.3664
  735MOL0     H99187  12.475   2.971   6.506  0.3664  2.7999  1.1144
  735MOL0     H99188  12.566   2.930   6.724 -0.7595  0.9706 -0.4732
  735MOL0     H99189  12.650   2.882   6.902  1.6771  0.0328  1.8358
  735MOL0     H99190  12.567   2.959   7.029  0.1655 -1.1711  0.8191
  735MOL0     H99191  12.531   2.740   7.153 -0.1154  1.7965  0.1253
  735MOL0     H99192  12.659   2.684   7.028 -2.0881 -0.9741 -0.4853
  735MOL0     H99193  12.805   2.865   7.117  0.5366  2.7331  2.7644
  735MOL0     H99194  12.683   2.909   7.231  0.7490  0.9221 -1.4334
  735MOL0     H99195  12.800   2.624   7.206  3.5716  0.9553 -1.1277
  735MOL0     H99196  12.715   2.694   7.351  0.1431 -0.8576 -0.4188
  735MOL0     H99197  12.936   2.691   7.411  1.4853 -1.2374 -0.8509
  735MOL0     H99198  12.909   2.852   7.336 -0.6808 -0.7560  2.9870
  735MOL0     H99199  13.068   2.609   7.233 -3.0255 -0.5508 -1.3464
  735MOL0     H99200  12.999   2.729   7.125  0.2117 -0.5478  0.1139
  735MOL0     H99201  13.143   2.903   7.244  0.5743 -0.7236 -0.9743
  735MOL0     H99202  13.242   2.777   7.174 -1.4025 -1.2253 -1.8194
  735MOL0     H99203  13.343   2.813   7.397  0.2193 -0.8736 -2.4303
  735MOL0     H99204  13.183   2.809   7.477  0.7675  1.4322  0.0304
  735MOL0     H99205  12.211   2.736   6.857  0.2286 -0.2908 -0.4797
  735MOL0     H99206  12.111   2.755   6.626  0.1788 -2.3640  0.2282
  735MOL0     H99207  12.405   2.726   6.075  0.5403 -2.0537 -0.6951
  735MOL0     H99208  12.289   2.623   5.888  1.2529  1.2110  1.1193
  735MOL0     H99209  10.359   1.861   5.884  1.8766  0.0362  1.6411
  735MOL0     H99210  10.126   1.939   5.962  0.2918  0.2616 -0.0816
  735MOL0     H99211   9.953   2.501   6.050  0.6110  0.8989  0.5893
  735MOL0     H99212   9.802   2.622   6.184 -2.3518 -1.1438 -2.1711
  735MOL0     H99213   9.646   2.699   6.276  1.8498 -1.2197 -0.4553
  735MOL0     H99214   9.546   2.692   6.425 -2.0929 -1.8111  0.4958
  735MOL0     H99215   9.433   2.485   6.340 -1.5756  0.3773 -0.6044
  735MOL0     H99216   9.536   2.477   6.199 -0.1670  0.2507  0.9259
  735MOL0     H99217   9.453   2.665   6.092  0.1621 -2.2191 -0.5838
  735MOL0     H99218   9.382   2.725   6.247 -0.5188 -1.1200  2.7483
  735MOL0     H99219   9.202   2.660   6.105  0.6668  1.5103  0.4011
  735MOL0     H99220   9.287   2.514   6.061 -1.1859  1.2621 -0.6621
  735MOL0     H99221   9.055   2.369   6.371 -0.4024 -1.0192 -0.9564
  735MOL0     H99222   9.750   2.301   6.454 -1.6393 -1.5539 -1.1266
  735MOL0     H99223   9.858   2.098   6.436  0.3373  2.4884  0.4658
  735MOL0     H99224   9.851   2.045   6.272  1.5554 -1.3948  0.0015
  735MOL0     H99225  10.006   2.066   6.337  0.0969 -1.8978  1.6222
  736MOL0     O99226   3.546   5.231   2.688  0.4156  0.4045  0.6587
  736MOL0     C99227   3.557   5.351   2.694  1.0332 -0.1044  0.1335
  736MOL0     O99228   3.671   5.418   2.719 -0.8311  0.1004  0.2877
  736MOL0     C99229   3.789   5.349   2.716  0.1133  0.0395  0.0915
  736MOL0     C99230   3.876   5.356   2.825  0.0982  0.9629  0.3867
  736MOL0     C99231   4.005   5.303   2.809 -0.3007  0.0750 -0.0405
  736MOL0     C99232   4.043   5.229   2.702  0.3903 -1.2240  0.4931
  736MOL0     O99233   4.167   5.167   2.712 -0.2584 -0.0911  0.1306
  736MOL0     C99234   4.224   5.117   2.591  0.0135  0.0247  0.4856
  736MOL0     C99235   4.367   5.068   2.608  0.2029  0.8221  0.3084
  736MOL0     C99236   4.466   5.178   2.664 -0.1589  1.4232  0.2746
  736MOL0     C99237   4.576   5.111   2.740 -0.2769 -0.2027  0.1197
  736MOL0     C99238   4.691   5.211   2.771  0.3737  0.4714  0.4204
  736MOL0     C99239   4.790   5.153   2.879 -0.1104 -0.4354  0.3653
  736MOL0     C99240   4.882   5.262   2.930  0.4655 -0.3803 -0.4233
  736MOL0     C99241   5.011   5.211   2.990  0.4064  0.4291  0.0888
  736MOL0     N99242   5.107   5.319   3.010 -0.1820  0.3672  0.2698
  736MOL0     C99243   5.198   5.360   2.915  0.4491  0.5814 -0.5253
  736MOL0     C99244   5.267   5.456   2.968  0.6097 -0.1759 -1.1815
  736MOL0     C99245   5.377   5.521   2.901 -0.0937 -0.0241  0.2260
  736MOL0     C99246   5.502   5.550   2.986 -0.2331 -0.0612  0.1312
  736MOL0     C99247   5.625   5.589   2.899  0.7206  0.2899  0.3677
  736MOL0     C99248   5.756   5.607   2.976 -0.0691 -0.6236 -0.6142
  736MOL0     O99249   5.845   5.694   2.910  0.3869  0.6566  0.2091
  736MOL0     C99250   5.979   5.684   2.930 -0.4280  0.9110  0.4535
  736MOL0     C99251   6.035   5.655   3.056  0.7155 -0.7609 -0.8115
  736MOL0     C99252   6.171   5.659   3.077  0.4540  1.0116  0.6622
  736MOL0     C99253   6.265   5.682   2.971  0.4844  0.5184  0.0668
  736MOL0     C99254   6.410   5.674   2.992  0.3247 -0.2304  0.0014
  736MOL0     O99255   6.493   5.711   2.892 -0.4791 -0.0272 -0.0868
  736MOL0     C99256   6.631   5.706   2.920  0.0182 -0.4709  0.6998
  736MOL0     C99257   6.710   5.797   2.846 -0.7250  0.1045 -0.3843
  736MOL0     C99258   6.847   5.810   2.869  0.1806 -0.6284 -0.6541
  736MOL0     C99259   6.910   5.728   2.966 -0.1258 -0.7511 -0.4201
  736MOL0     O99260   7.049   5.725   2.990  1.2360  0.2795  0.3979
  736MOL0     C99261   7.121   5.842   2.948 -0.3265 -0.5132 -0.0496
  736MOL0     C99262   7.268   5.837   3.005 -0.4484 -0.1376  0.7121
  736MOL0     C99263   7.341   5.972   3.009 -0.6206  0.2680  0.2674
  736MOL0     C99264   7.471   5.959   3.092 -0.1297 -0.5598  0.1527
  736MOL0     C99265   7.444   5.985   3.239 -0.9609  0.6038 -0.1998
  736MOL0     C99266   7.572   5.971   3.331  0.9942  0.2660 -0.2189
  736MOL0     C99267   7.623   5.830   3.346  0.6597  1.3969 -0.1080
  736MOL0     C99268   7.763   5.823   3.392 -0.3312 -1.0055 -0.7257
  736MOL0    Cl99269   7.772   5.899   3.556  0.2368 -0.2938 -0.1213
  736MOL0     C99270   6.837   5.644   3.044  1.7835  0.2609 -0.3436
  736MOL0     C99271   6.697   5.634   3.020  0.4399 -0.1763  0.1477
  736MOL0     O99272   6.444   5.656   3.110  0.0877  0.3417 -0.4143
  736MOL0     C99273   6.214   5.714   2.854 -0.2720  0.8166  0.3466
  736MOL0     C99274   6.072   5.725   2.837 -0.2407 -0.1509  0.3319
  736MOL0     N99275   5.214   5.479   3.100  0.0947  0.3661  0.6058
  736MOL0     N99276   5.125   5.395   3.121  0.8352 -0.1918 -0.2271
  736MOL0     C99277   3.951   5.214   2.596  0.0168  0.3118  0.4626
  736MOL0     C99278   3.827   5.279   2.607  1.1607  0.4807  0.7292
  736MOL0     C99279   3.427   5.437   2.694 -0.3960 -0.5782  0.7387
  736MOL0     C99280   3.301   5.381   2.681  0.4972 -0.3992  0.2432
  736MOL0     C99281   3.191   5.457   2.701 -0.8237 -1.2044  0.5451
  736MOL0     C99282   3.191   5.598   2.725  0.9800  0.7760 -0.0948
  736MOL0     O99283   3.088   5.688   2.743  0.1319  0.0750 -0.1710
  736MOL0     C99284   2.960   5.622   2.762  0.1285  0.2064  0.1895
  736MOL0     C99285   2.873   5.727   2.829 -0.0647  0.1167 -0.4231
  736MOL0     C99286   2.734   5.680   2.875  0.1587  0.0992 -0.2189
  736MOL0     C99287   2.646   5.790   2.914  0.1030  0.4400  0.4851
  736MOL0     C99288   2.681   5.845   3.047  0.1950  0.6253  0.9792
  736MOL0     C99289   2.704   5.902   3.151 -1.0070  0.1103 -0.8594
  736MOL0     C99290   3.312   5.657   2.726  0.1479 -0.2293 -0.2112
  736MOL0     C99291   3.433   5.581   2.702  0.3504 -0.4378  0.5774
  736MOL0     C99292   3.557   5.666   2.689 -0.1018 -0.5385  0.6647
  736MOL0     H99293   3.843   5.409   2.914 -0.5882  2.9088 -0.9576
  736MOL0     H99294   4.081   5.313   2.886  2.4136  1.0149 -2.6544
  736MOL0     H99295   4.157   5.039   2.554 -1.8813  2.6096 -2.0078
  736MOL0     H99296   4.231   5.202   2.523 -1.8904  0.8673  1.2735
  736MOL0     H99297   4.398   5.045   2.505  4.5742 -0.5505  1.6890
  736MOL0     H99298   4.377   4.976   2.667  1.4819 -0.3356 -1.5808
  736MOL0     H99299   4.411   5.232   2.742  1.1203  1.0716  1.4723
  736MOL0     H99300   4.505   5.241   2.584  1.9932 -1.4960 -1.1603
  736MOL0     H99301   4.538   5.059   2.829  2.6772 -0.9952  1.0441
  736MOL0     H99302   4.619   5.033   2.678 -0.9714 -0.2256 -0.3462
  736MOL0     H99303   4.747   5.244   2.683 -0.2615  0.1209 -0.1236
  736MOL0     H99304   4.644   5.308   2.792 -0.7333  0.5173 -1.9780
  736MOL0     H99305   4.730   5.114   2.962 -0.3318 -0.6443  0.1076
  736MOL0     H99306   4.851   5.085   2.819 -1.6053  0.4383 -2.3193
  736MOL0     H99307   4.830   5.317   3.009 -1.7014 -1.4899 -1.0048
  736MOL0     H99308   4.899   5.327   2.843  1.7882 -1.0472 -0.6916
  736MOL0     H99309   5.001   5.160   3.086  0.8955 -3.3208 -1.6538
  736MOL0     H99310   5.054   5.139   2.920  3.3135  0.8956  1.2395
  736MOL0     H99311   5.220   5.327   2.814  3.0411 -0.2965  0.2493
  736MOL0     H99312   5.417   5.464   2.817  1.4435  0.6648  0.4564
  736MOL0     H99313   5.339   5.610   2.850 -1.6380 -0.3241  0.8159
  736MOL0     H99314   5.477   5.632   3.055  1.0877  0.2308  0.2830
  736MOL0     H99315   5.527   5.469   3.055  0.1300 -1.5241 -1.6464
  736MOL0     H99316   5.596   5.678   2.841  1.1390  0.0869 -0.1637
  736MOL0     H99317   5.639   5.502   2.834 -1.5798 -0.3596  0.6592
  736MOL0     H99318   5.792   5.506   3.002 -1.0771 -0.2557  2.6977
  736MOL0     H99319   5.737   5.659   3.071  0.4762  0.5155 -1.1156
  736MOL0     H99320   5.969   5.608   3.128  0.3576 -1.1054 -1.3496
  736MOL0     H99321   6.204   5.630   3.176 -2.0382  1.7409  1.7755
  736MOL0     H99322   6.658   5.849   2.766  0.5725 -1.7209 -2.5486
  736MOL0     H99323   6.903   5.884   2.813 -0.9767  2.3012  1.7992
  736MOL0     H99324   7.134   5.850   2.840  0.5155  1.9790  0.1693
  736MOL0     H99325   7.061   5.926   2.985 -2.5167 -1.4610 -1.2680
  736MOL0     H99326   7.265   5.794   3.106  0.1293  2.6687  2.0474
  736MOL0     H99327   7.325   5.776   2.934 -3.1915 -0.2685 -1.5475
  736MOL0     H99328   7.376   5.990   2.907 -0.4208  1.0069  0.4642
  736MOL0     H99329   7.285   6.055   3.053  2.5073  2.4317  0.4865
  736MOL0     H99330   7.540   6.038   3.061 -0.5841  0.0321  0.6174
  736MOL0     H99331   7.515   5.860   3.078 -0.7599 -0.7739 -0.3534
  736MOL0     H99332   7.361   5.926   3.278 -0.0373 -1.5403 -1.2853
  736MOL0     H99333   7.420   6.092   3.239  0.3948  0.9773  2.4443
  736MOL0     H99334   7.654   6.032   3.292 -0.4512  1.8539 -0.8675
  736MOL0     H99335   7.547   6.017   3.427  1.2600 -1.5114  0.7519
  736MOL0     H99336   7.612   5.777   3.251  4.4688  1.3183 -0.6521
  736MOL0     H99337   7.561   5.776   3.418  1.6773  0.1213 -0.1464
  736MOL0     H99338   7.802   5.721   3.392  0.1437 -0.8841 -3.0738
  736MOL0     H99339   7.832   5.874   3.324  0.0724 -0.7623 -0.1504
  736MOL0     H99340   6.887   5.576   3.114  1.6107 -0.1399 -0.6077
  736MOL0     H99341   6.645   5.562   3.082  1.9597 -1.4148  0.0589
  736MOL0     H99342   6.269   5.742   2.764 -0.4643  1.1153  0.3202
  736MOL0     H99343   6.042   5.758   2.739 -0.3116  0.3109  0.5075
  736MOL0     H99344   3.989   5.165   2.507  0.0055  2.0177 -0.5202
  736MOL0     H99345   3.750   5.268   2.532  0.7564 -1.1700  1.3426
  736MOL0     H99346   3.278   5.276   2.668 -0.1818  0.1073 -4.1309
  736MOL0     H99347   3.101   5.397   2.704 -1.3711 -0.5418 -1.3106
  736MOL0     H99348   2.964   5.535   2.828 -0.9049 -0.4266 -0.5594
  736MOL0     H99349   2.924   5.583   2.666  1.7587  0.8332 -0.6996
  736MOL0     H99350   2.867   5.823   2.777  1.2766  3.0886  4.2959
  736MOL0     H99351   2.925   5.753   2.921  0.4819 -1.6876 -0.1834
  736MOL0     H99352   2.752   5.606   2.954  3.7147  1.2957  0.2762
  736MOL0     H99353   2.685   5.633   2.790 -1.9855  2.8044 -0.6276
  736MOL0     H99354   2.650   5.878   2.851  0.7497  1.7742  2.2942
  736MOL0     H99355   2.541   5.758   2.909  0.1705 -0.0121  1.5588
  736MOL0     H99356   2.719   5.945   3.248 -2.7122 -3.3770  1.1473
  736MOL0     H99357   3.308   5.765   2.734  0.7448 -0.2901  1.3899
  736MOL0     H99358   3.538   5.773   2.684 -1.6341 -0.8057  0.3199
  736MOL0     H99359   3.629   5.651   2.770 -0.2274  1.1343  1.1202
  736MOL0     H99360   3.605   5.645   2.593  0.5195 -1.2270  1.1057
  737MOL0     O99361   9.861   5.732   7.015 -0.8606 -0.4228 -0.2083
  737MOL0     C99362   9.816   5.745   7.133 -0.3441 -0.1004  0.1077
  737MOL0     O99363   9.873   5.839   7.221  0.1730 -0.3716  0.0531
  737MOL0     C99364   9.983   5.924   7.186  0.1620 -0.2448  0.2693
  737MOL0     C99365  10.096   5.927   7.256 -0.2813  0.2228  0.0271
  737MOL0     C99366  10.214   6.000   7.226 -0.0440  0.2768  0.4681
  737MOL0     C99367  10.206   6.082   7.112 -0.8174  1.6736 -0.4347
  737MOL0     O99368  10.302   6.155   7.053  0.0026 -0.7610 -0.2281
  737MOL0     C99369  10.423   6.178   7.133 -0.8749 -0.7516 -0.0461
  737MOL0     C99370  10.544   6.127   7.042 -0.7052 -0.9824 -0.0819
  737MOL0     C99371  10.682   6.126   7.108 -0.4113 -0.5201  1.2843
  737MOL0     C99372  10.799   6.092   7.004 -0.4996 -0.5153  0.3519
  737MOL0     C99373  10.934   6.064   7.089  0.5627  0.6289 -0.3863
  737MOL0     C99374  11.060   6.032   6.997  0.2730  0.3191  0.2684
  737MOL0     C99375  11.189   6.010   7.089  0.4252  0.4796  0.3711
  737MOL0     C99376  11.314   5.983   7.005  0.9145 -0.5078  0.6506
  737MOL0     N99377  11.433   5.982   7.087  0.1533  0.3603 -0.8445
  737MOL0     C99378  11.481   5.878   7.169  0.2313 -0.5844 -0.4359
  737MOL0     C99379  11.602   5.922   7.208 -0.0192  0.6545  0.2459
  737MOL0     C99380  11.691   5.832   7.304 -0.2364  0.5710 -0.0478
  737MOL0     C99381  11.838   5.822   7.272  0.4696  0.1848 -0.2314
  737MOL0     C99382  11.921   5.937   7.320 -0.8341 -0.3872 -0.4019
  737MOL0     C99383  12.044   5.960   7.234  1.0098  1.0411  0.1816
  737MOL0     O99384  12.119   5.832   7.248  0.5887 -0.2341 -0.9140
  737MOL0     C99385  12.251   5.851   7.238 -0.5425  0.5524  0.4735
  737MOL0     C99386  12.305   5.968   7.180  0.4118 -0.7377 -0.0254
  737MOL0     C99387  12.440   5.991   7.183  0.1331  0.0815 -0.0912
  737MOL0     C99388  12.529   5.894   7.234 -0.2014  0.2527  0.6139
  737MOL0     C99389  12.670   5.904   7.216 -0.4863 -0.4771 -0.5877
  737MOL0     O99390  12.719   5.993   7.116 -0.7069  0.1434  0.8523
  737MOL0     C99391  12.858   5.995   7.088 -0.9782  0.2217  0.4966
  737MOL0     C99392  12.902   6.027   6.955 -0.1442  0.0090  0.2309
  737MOL0     C99393  13.031   6.059   6.918  0.7627  0.2778 -0.7272
  737MOL0     C99394  13.138   6.059   7.006 -0.2768 -0.1548  0.9298
  737MOL0     O99395  13.259   6.075   6.955 -0.5323 -0.5528  0.1853
  737MOL0     C99396  13.376   6.048   7.041 -0.8911  0.2905 -0.2619
  737MOL0     C99397  13.516   6.066   6.975  0.5124 -0.4425 -0.4401
  737MOL0     C99398  13.622   6.044   7.077  0.3477  0.4560 -0.0816
  737MOL0     C99399  13.767   6.071   7.017  0.4918  1.1150 -1.3239
  737MOL0     C99400  13.873   6.078   7.126 -0.2848 -0.5031 -0.4154
  737MOL0     C99401  14.004   6.129   7.077 -0.1666  0.1863  0.7873
  737MOL0     C99402  14.102   6.153   7.193 -0.3441  0.0887 -0.2909
  737MOL0     C99403  14.246   6.157   7.159 -0.2488  0.0972  0.6781
  737MOL0    Cl99404  14.260   6.268   7.022  0.3045  0.2133  0.1609
  737MOL0     C99405  13.102   6.027   7.139  0.5253  0.1295 -0.4303
  737MOL0     C99406  12.963   6.000   7.180 -0.6052 -0.3846 -1.1177
  737MOL0     O99407  12.738   5.830   7.292  0.0407 -0.6085 -0.5595
  737MOL0     C99408  12.471   5.783   7.299  0.3693 -0.0526  0.3970
  737MOL0     C99409  12.333   5.755   7.293  0.1944  0.0536  0.7675
  737MOL0     N99410  11.632   6.042   7.152  0.1451 -0.2586 -0.0758
  737MOL0     N99411  11.530   6.070   7.074  0.6393 -0.3194 -0.7260
  737MOL0     C99412  10.088   6.084   7.043 -0.7405  0.0579  0.5344
  737MOL0     C99413   9.976   6.012   7.078  0.5950 -0.8487  0.5815
  737MOL0     C99414   9.701   5.657   7.172 -0.4503  0.0759  0.3257
  737MOL0     C99415   9.650   5.567   7.076 -0.5258  1.1109 -0.1962
  737MOL0     C99416   9.537   5.486   7.108 -0.2342 -0.2071 -0.1923
  737MOL0     C99417   9.475   5.491   7.237  0.2804 -0.7405 -0.3706
  737MOL0     O99418   9.358   5.425   7.268  0.3951  0.4090  0.2662
  737MOL0     C99419   9.368   5.317   7.361  0.3135 -0.7370 -0.2851
  737MOL0     C99420   9.504   5.245   7.373  0.5242  1.0431 -0.7186
  737MOL0     C99421   9.529   5.144   7.256  0.1866 -0.7983 -0.3180
  737MOL0     C99422   9.668   5.074   7.276 -0.0549  1.0465  0.0077
  737MOL0     C99423   9.667   4.958   7.186 -0.0267  0.2551 -0.2618
  737MOL0     C99424   9.673   4.860   7.118 -0.4774 -1.1497 -0.2769
  737MOL0     C99425   9.543   5.562   7.333 -0.1075 -1.2765  0.0410
  737MOL0     C99426   9.644   5.652   7.299 -0.4662 -1.0883  0.2806
  737MOL0     C99427   9.693   5.728   7.417 -0.4259 -0.3239  0.2782
  737MOL0     H99428  10.093   5.876   7.352 -3.3262 -1.3136 -0.7597
  737MOL0     H99429  10.303   6.004   7.288  1.6650  2.5783 -1.9168
  737MOL0     H99430  10.436   6.285   7.154  0.2904 -1.4253  3.3511
  737MOL0     H99431  10.435   6.122   7.226  0.2740 -0.8586 -0.2378
  737MOL0     H99432  10.540   6.195   6.956  1.3647 -1.0717 -0.2951
  737MOL0     H99433  10.525   6.025   7.007 -0.3848 -1.1241  0.1533
  737MOL0     H99434  10.679   6.039   7.174 -0.8341 -1.4699  0.0568
  737MOL0     H99435  10.701   6.216   7.167 -2.5712  1.5084 -0.8644
  737MOL0     H99436  10.783   6.002   6.945  2.0192 -0.8760  0.1271
  737MOL0     H99437  10.824   6.178   6.940  0.9764  0.3250  1.9633
  737MOL0     H99438  10.961   6.159   7.136  0.8360  0.4555 -0.1855
  737MOL0     H99439  10.930   5.982   7.161 -1.0922  0.9085 -0.1234
  737MOL0     H99440  11.037   5.942   6.938 -0.1656 -0.7471  1.9800
  737MOL0     H99441  11.075   6.123   6.939  1.5700 -0.6371 -0.9736
  737MOL0     H99442  11.173   5.916   7.143  0.0637 -0.0726 -0.6835
  737MOL0     H99443  11.216   6.091   7.157  0.2338 -0.1782  1.2581
  737MOL0     H99444  11.299   5.883   6.962 -1.2847 -0.4222  1.0891
  737MOL0     H99445  11.316   6.055   6.923  1.1183 -1.9887 -0.6920
  737MOL0     H99446  11.428   5.789   7.201 -0.3525 -0.1097 -0.0728
  737MOL0     H99447  11.666   5.878   7.400  1.6706 -0.2064  0.8585
  737MOL0     H99448  11.649   5.731   7.304  0.0861  0.3960  2.0690
  737MOL0     H99449  11.882   5.731   7.316  2.5236 -0.2903 -2.9609
  737MOL0     H99450  11.863   5.814   7.166 -1.3691  2.0705 -0.8675
  737MOL0     H99451  11.940   5.907   7.424 -1.1468 -0.4084 -0.3496
  737MOL0     H99452  11.862   6.029   7.319 -1.7082 -0.9377 -0.6890
  737MOL0     H99453  12.092   6.047   7.279 -0.4072  1.0037  1.8583
  737MOL0     H99454  12.011   5.981   7.132  0.5019 -1.9021 -0.3456
  737MOL0     H99455  12.250   6.051   7.136  1.8909 -0.8952 -2.3688
  737MOL0     H99456  12.483   6.076   7.131  0.7957  0.5417  1.1778
  737MOL0     H99457  12.819   6.032   6.885 -0.6656  0.4056  0.8572
  737MOL0     H99458  13.039   6.089   6.814 -0.3810 -1.1548 -1.2640
  737MOL0     H99459  13.362   6.118   7.123 -0.8624  4.1359 -3.2203
  737MOL0     H99460  13.377   5.944   7.073  3.5174  0.5958  1.1202
  737MOL0     H99461  13.536   5.999   6.891 -0.0436 -2.2319  0.8056
  737MOL0     H99462  13.536   6.165   6.934  2.6312  0.1389  1.8297
  737MOL0     H99463  13.600   6.104   7.166  1.2276 -0.8596  1.0832
  737MOL0     H99464  13.619   5.938   7.106  1.6818  0.7985  1.5144
  737MOL0     H99465  13.771   6.169   6.968  1.5449  2.3960  1.1243
  737MOL0     H99466  13.779   5.992   6.942 -1.5645 -1.0104  0.4545
  737MOL0     H99467  13.890   5.981   7.173  1.9198 -2.1192 -4.1769
  737MOL0     H99468  13.829   6.152   7.194  0.8249  3.6177 -3.7299
  737MOL0     H99469  14.041   6.052   7.008  0.6377  0.8696  0.4382
  737MOL0     H99470  13.991   6.216   7.012 -1.4234 -2.0307 -2.2077
  737MOL0     H99471  14.080   6.067   7.256 -2.3952 -1.5627 -3.0168
  737MOL0     H99472  14.069   6.240   7.251 -4.9248 -1.1139 -0.6977
  737MOL0     H99473  14.310   6.202   7.235 -1.6614  3.0660  0.2541
  737MOL0     H99474  14.282   6.060   7.124  2.7716  1.1828  0.4340
  737MOL0     H99475  13.175   6.024   7.219  0.0236  0.7010  0.0656
  737MOL0     H99476  12.938   5.980   7.284 -3.5506 -1.1184 -1.8862
  737MOL0     H99477  12.527   5.697   7.334 -0.3558  0.5370  3.2578
  737MOL0     H99478  12.291   5.656   7.311 -1.1300 -0.2957 -3.3240
  737MOL0     H99479  10.093   6.150   6.957 -2.2414 -0.7902 -0.2460
  737MOL0     H99480   9.887   6.009   7.016  2.9246 -1.9337 -3.0110
  737MOL0     H99481   9.698   5.569   6.979  1.4504 -1.9060  0.6039
  737MOL0     H99482   9.494   5.427   7.028 -0.3700  1.9299 -1.8058
  737MOL0     H99483   9.287   5.251   7.328 -0.0685 -1.7321  2.3933
  737MOL0     H99484   9.355   5.358   7.462  2.6426 -0.0462 -0.2022
  737MOL0     H99485   9.489   5.176   7.457  1.2745  2.3554  0.5443
  737MOL0     H99486   9.587   5.311   7.400  0.3550  1.5591 -1.4324
  737MOL0     H99487   9.516   5.199   7.162 -0.7417  0.3588  0.4576
  737MOL0     H99488   9.448   5.072   7.270  0.3762 -0.7223  1.2795
  737MOL0     H99489   9.748   5.143   7.249 -0.8002  0.5483 -4.0863
  737MOL0     H99490   9.679   5.036   7.378  4.1904  0.9163 -0.3194
  737MOL0     H99491   9.668   4.782   7.045  2.0235 -1.3061 -0.3733
  737MOL0     H99492   9.502   5.565   7.433  1.3613 -0.5492  0.6437
  737MOL0     H99493   9.699   5.837   7.402  0.1922  0.1731  3.5360
  737MOL0     H99494   9.621   5.722   7.498 -1.9269  0.5626 -0.9249
  737MOL0     H99495   9.794   5.698   7.447  0.8936  1.6129 -1.8107
  738MOL0     O99496   5.301   4.946   9.916  0.4380 -0.1034  0.3726
  738MOL0     C99497   5.239   4.878   9.992 -0.3629  0.1109 -0.3297
  738MOL0     O99498   5.295   4.804  10.102  0.5511  0.0022 -0.0363
  738MOL0     C99499   5.434   4.790  10.118 -0.0073  0.3370 -0.9290
  738MOL0     C99500   5.530   4.772  10.013  0.9786  0.1906  0.2522
  738MOL0     C99501   5.661   4.769  10.051  0.3842  0.4613  0.3610
  738MOL0     C99502   5.705   4.795  10.185 -0.4443 -0.1254 -0.2618
  738MOL0     O99503   5.837   4.771  10.220 -0.0853  0.1117  0.6373
  738MOL0     C99504   5.905   4.839  10.325  0.3617  0.4426  0.9192
  738MOL0     C99505   6.062   4.832  10.307 -0.7052  0.6916  0.0779
  738MOL0     C99506   6.129   4.916  10.413 -0.5274 -0.4969  0.1620
  738MOL0     C99507   6.285   4.899  10.408 -0.1335 -0.2659  0.1827
  738MOL0     C99508   6.342   4.760  10.457 -0.3796  0.0543 -0.2530
  738MOL0     C99509   6.471   4.768  10.535 -0.5382  0.7218  0.5063
  738MOL0     C99510   6.588   4.832  10.457  0.0383 -0.4158 -0.1264
  738MOL0     C99511   6.715   4.841  10.548 -1.2195 -0.3280  0.3114
  738MOL0     N99512   6.837   4.878  10.469  0.2260 -0.2389 -0.0711
  738MOL0     C99513   6.867   5.000  10.407 -0.6161 -0.5369  0.0634
  738MOL0     C99514   6.966   4.966  10.317 -0.6426  0.3108  0.2331
  738MOL0     C99515   7.024   5.064  10.225  0.0678  1.1219  0.1468
  738MOL0     C99516   7.175   5.054  10.220  0.5915 -0.1048  1.1877
  738MOL0     C99517   7.243   5.111  10.339  0.1207 -0.7603  0.4535
  738MOL0     C99518   7.398   5.109  10.333 -0.0438 -0.2549 -0.4702
  738MOL0     O99519   7.455   5.228  10.266 -0.2821  0.5173  0.3370
  738MOL0     C99520   7.589   5.240  10.238  0.6614 -0.0035  0.0076
  738MOL0     C99521   7.682   5.136  10.233 -0.1801 -0.1168  1.2643
  738MOL0     C99522   7.816   5.157  10.185 -0.0387  0.4274  0.0422
  738MOL0     C99523   7.853   5.280  10.129 -0.3465 -0.1255 -0.6562
  738MOL0     C99524   7.983   5.288  10.068  0.0186  0.4306 -0.2387
  738MOL0     O99525   8.065   5.196  10.097  0.2911 -0.3044 -0.1427
  738MOL0     C99526   8.191   5.165  10.042 -0.1305 -0.5804  0.4825
  738MOL0     C99527   8.246   5.054  10.098 -0.1158 -0.3039 -0.2278
  738MOL0     C99528   8.363   4.988  10.046  0.8544 -0.0558 -0.6530
  738MOL0     C99529   8.438   5.055   9.945  0.1971 -0.3114  0.2891
  738MOL0     O99530   8.549   4.999   9.885 -0.3550 -0.2990 -0.1532
  738MOL0     C99531   8.660   4.972   9.971  0.1626  0.6255  0.5921
  738MOL0     C99532   8.748   4.879   9.885  0.6780 -0.1492 -0.1328
  738MOL0     C99533   8.893   4.861   9.941 -0.0105 -0.3769 -0.0324
  738MOL0     C99534   8.967   4.753   9.860 -1.0540  0.2502 -0.2574
  738MOL0     C99535   9.116   4.752   9.907  0.2317  0.2997  0.2035
  738MOL0     C99536   9.204   4.642   9.825 -0.7634  0.8169 -0.4361
  738MOL0     C99537   9.336   4.609   9.895  0.0397  0.0067  0.7188
  738MOL0     C99538   9.432   4.516   9.822 -0.2346  0.0642 -0.0680
  738MOL0    Cl99539   9.562   4.471   9.940  0.2241 -0.1812  0.1562
  738MOL0     C99540   8.387   5.179   9.899 -0.3540  0.3189 -1.8419
  738MOL0     C99541   8.261   5.236   9.946  0.2795 -0.0984 -0.5958
  738MOL0     O99542   8.005   5.396  10.017 -0.7300  0.2406  0.5125
  738MOL0     C99543   7.759   5.389  10.132  0.2916  0.7078 -0.2963
  738MOL0     C99544   7.631   5.365  10.188  0.8322 -0.2929 -0.4984
  738MOL0     N99545   6.982   4.828  10.320 -0.1094  0.8770 -0.4617
  738MOL0     N99546   6.905   4.779  10.418  0.2984  0.3271  0.9852
  738MOL0     C99547   5.608   4.817  10.284  0.4305 -0.0439 -0.6847
  738MOL0     C99548   5.468   4.810  10.250 -0.3493  0.6106  0.6981
  738MOL0     C99549   5.092   4.890   9.992 -0.7899 -1.0701 -0.5446
  738MOL0     C99550   5.015   4.773  10.018 -0.1592 -0.5474  0.6883
  738MOL0     C99551   4.874   4.772  10.001 -0.4472  0.3073  0.2270
  738MOL0     C99552   4.810   4.900   9.996  0.3483 -0.1873 -0.7468
  738MOL0     O99553   4.668   4.902  10.000 -0.3062 -0.1932  0.1217
  738MOL0     C99554   4.614   5.015  10.054  0.3403  0.4426 -0.6708
  738MOL0     C99555   4.459   5.008  10.027  0.5444 -0.4888  0.3217
  738MOL0     C99556   4.385   5.129  10.099 -0.1085 -0.1233  0.3222
  738MOL0     C99557   4.235   5.123  10.074  0.0498  0.3237 -0.1463
  738MOL0     C99558   4.198   5.116   9.930  0.2416 -0.2343  0.1160
  738MOL0     C99559   4.188   5.129   9.804  0.1205 -0.1904 -0.8449
  738MOL0     C99560   4.892   5.019   9.984  0.8214  0.4593 -0.2715
  738MOL0     C99561   5.031   5.016   9.979 -0.4514  0.2090 -0.2788
  738MOL0     C99562   5.095   5.147   9.947  0.3097  0.7044 -0.5378
  738MOL0     H99563   5.491   4.761   9.912  2.5266  0.0284 -0.3515
  738MOL0     H99564   5.732   4.755   9.970  0.6095  0.0023  0.6362
  738MOL0     H99565   5.868   4.942  10.338  3.0619  1.2696  2.9610
  738MOL0     H99566   5.879   4.781  10.414 -0.2555 -3.9882 -1.8691
  738MOL0     H99567   6.093   4.870  10.209  1.0258  0.3243  0.4589
  738MOL0     H99568   6.087   4.727  10.321 -0.3663  0.7515 -0.0785
  738MOL0     H99569   6.094   4.903  10.516  2.9862  3.6424  2.2032
  738MOL0     H99570   6.108   5.022  10.401 -0.5226 -0.2858  1.8096
  738MOL0     H99571   6.328   4.931  10.312 -2.1655 -1.2431 -1.1122
  738MOL0     H99572   6.328   4.964  10.485 -1.0281 -0.3979  0.8080
  738MOL0     H99573   6.269   4.703  10.516  0.1474  0.4011  0.7665
  738MOL0     H99574   6.361   4.702  10.366  2.1569  1.2237 -0.5629
  738MOL0     H99575   6.453   4.837  10.618 -2.5766  1.8447 -0.7748
  738MOL0     H99576   6.502   4.669  10.568 -0.0942  1.7421  3.4714
  738MOL0     H99577   6.573   4.934  10.419  1.5637  0.5638  1.6979
  738MOL0     H99578   6.605   4.774  10.365  0.1972 -0.3444 -0.1432
  738MOL0     H99579   6.693   4.909  10.630  1.8131  2.4190 -0.9044
  738MOL0     H99580   6.737   4.737  10.575 -1.8783 -1.5621 -3.2137
  738MOL0     H99581   6.831   5.100  10.423  3.0677  0.9714 -0.0703
  738MOL0     H99582   6.974   5.039  10.132 -3.1065 -2.1735  2.4914
  738MOL0     H99583   6.996   5.165  10.258 -1.4333  0.0860  2.3069
  738MOL0     H99584   7.200   4.950  10.199 -2.7239 -1.3465  2.6191
  738MOL0     H99585   7.192   5.119  10.133 -1.0736 -0.0563  0.8562
  738MOL0     H99586   7.208   5.050  10.423  0.3925  0.9664  1.8690
  738MOL0     H99587   7.208   5.214  10.352 -4.6463 -2.0153 -0.4511
  738MOL0     H99588   7.443   5.026  10.278  2.8234 -0.2681  1.6419
  738MOL0     H99589   7.441   5.103  10.434 -1.5763  3.9454  0.6313
  738MOL0     H99590   7.669   5.040  10.282  2.7559 -1.2535  0.0609
  738MOL0     H99591   7.884   5.073  10.197  0.6613  0.7825 -1.2208
  738MOL0     H99592   8.189   5.005  10.176 -0.4771 -3.1250 -2.1161
  738MOL0     H99593   8.388   4.887  10.079 -1.5652 -0.7942 -0.8625
  738MOL0     H99594   8.705   5.066  10.002  2.5556  0.2416 -1.4470
  738MOL0     H99595   8.622   4.915  10.057  0.9116 -1.1218 -0.1821
  738MOL0     H99596   8.694   4.784   9.873 -0.9088  0.7322 -0.3277
  738MOL0     H99597   8.765   4.932   9.791 -2.1892  1.1810 -0.0029
  738MOL0     H99598   8.940   4.959   9.927  0.1641 -0.4755 -0.1339
  738MOL0     H99599   8.880   4.831  10.045 -3.8354  3.3128  0.8592
  738MOL0     H99600   8.955   4.767   9.752 -0.6681  1.0193 -0.2111
  738MOL0     H99601   8.921   4.657   9.884 -5.6902  1.8534 -1.6508
  738MOL0     H99602   9.115   4.715  10.010  1.1805  0.6408  0.3403
  738MOL0     H99603   9.154   4.854   9.908  0.0273  0.3738  1.1815
  738MOL0     H99604   9.139   4.555   9.827 -2.5990  2.1138  2.1513
  738MOL0     H99605   9.225   4.681   9.725  2.5805  0.1015 -0.1347
  738MOL0     H99606   9.317   4.566   9.994 -0.6411 -2.5894 -0.4530
  738MOL0     H99607   9.387   4.706   9.903  0.1087  0.1911 -1.4517
  738MOL0     H99608   9.377   4.431   9.781  1.0182 -1.1996  0.7627
  738MOL0     H99609   9.474   4.568   9.735 -1.5001  4.6983  1.7686
  738MOL0     H99610   8.434   5.227   9.814  0.5070  1.0276 -0.9963
  738MOL0     H99611   8.209   5.322   9.905  2.8570  2.0749  0.4172
  738MOL0     H99612   7.781   5.486  10.090 -2.6829  0.9637 -1.5313
  738MOL0     H99613   7.559   5.446  10.178 -0.4082 -0.8802  2.6313
  738MOL0     H99614   5.624   4.846  10.387 -1.5441 -0.7486 -0.1227
  738MOL0     H99615   5.379   4.833  10.308 -3.2809 -3.0123 -1.8843
  738MOL0     H99616   5.067   4.679  10.032 -1.2882 -1.0969  1.3356
  738MOL0     H99617   4.804   4.689   9.999 -0.3655  0.2417 -0.8165
  738MOL0     H99618   4.658   5.105  10.010  1.1940  0.9457  1.0738
  738MOL0     H99619   4.638   5.019  10.161  1.4774  0.5351 -0.9085
  738MOL0     H99620   4.430   4.915  10.076  0.3829  0.9904  3.2435
  738MOL0     H99621   4.421   5.007   9.924 -2.3963  1.7430  1.2427
  738MOL0     H99622   4.419   5.224  10.057 -0.9081  0.2435  0.5016
  738MOL0     H99623   4.406   5.133  10.206  1.9180  1.0588 -0.0621
  738MOL0     H99624   4.173   5.050  10.126  1.1304 -0.0416  0.6675
  738MOL0     H99625   4.194   5.218  10.111 -0.9832 -0.9176  2.0918
  738MOL0     H99626   4.176   5.143   9.699  2.0306 -0.9127 -1.2050
  738MOL0     H99627   4.851   5.119   9.973 -2.1862 -0.7728 -1.5448
  738MOL0     H99628   5.034   5.232   9.976  1.0518  0.3371  2.4142
  738MOL0     H99629   5.183   5.149  10.013  0.4626 -0.9661 -0.6447
  738MOL0     H99630   5.135   5.152   9.845  1.4244  1.4096 -0.0852
  739MOL0     O99631   3.930   2.344   9.015  0.2761 -0.6493  0.2416
  739MOL0     C99632   3.826   2.298   9.061  0.4908 -0.4800 -0.1606
  739MOL0     O99633   3.811   2.167   9.105  0.3804 -0.5305  0.3589
  739MOL0     C99634   3.922   2.083   9.103  2.0812  0.6082  0.1641
  739MOL0     C99635   3.946   2.001   8.996  0.1069 -0.4674  0.3734
  739MOL0     C99636   4.050   1.917   8.991 -0.0261  0.5845 -0.2940
  739MOL0     C99637   4.144   1.910   9.094 -0.4496  0.7721 -0.1898
  739MOL0     O99638   4.243   1.816   9.072  0.4631  0.1060 -0.0731
  739MOL0     C99639   4.370   1.844   9.120  0.1282 -1.0564  0.3977
  739MOL0     C99640   4.458   1.723   9.072  0.4417  0.4633 -0.8841
  739MOL0     C99641   4.604   1.732   9.123  0.4417 -0.7652 -0.0829
  739MOL0     C99642   4.696   1.631   9.066  0.7314 -0.2209 -0.1838
  739MOL0     C99643   4.837   1.637   9.123 -0.6977 -1.3806  0.8487
  739MOL0     C99644   4.945   1.544   9.048  0.6648  0.2287 -0.4489
  739MOL0     C99645   5.087   1.540   9.117 -0.0827 -0.9621 -0.3162
  739MOL0     C99646   5.190   1.454   9.030  0.0968  0.5875  0.2855
  739MOL0     N99647   5.319   1.440   9.098  0.2826  0.2825 -0.2337
  739MOL0     C99648   5.402   1.546   9.113  0.5974  0.0575  0.0452
  739MOL0     C99649   5.515   1.493   9.169 -0.2936  0.5881 -0.0918
  739MOL0     C99650   5.632   1.566   9.217 -0.2762 -0.5273  0.8131
  739MOL0     C99651   5.748   1.545   9.117 -0.5332  0.0276  0.4387
  739MOL0     C99652   5.770   1.672   9.020  0.0317  0.6090 -0.5250
  739MOL0     C99653   5.851   1.645   8.889  0.2019 -0.0165 -0.4170
  739MOL0     O99654   5.807   1.524   8.822 -0.3360  0.1254  0.0083
  739MOL0     C99655   5.687   1.530   8.757 -1.4351 -0.4172  0.4839
  739MOL0     C99656   5.641   1.411   8.702 -0.7033 -0.0119 -0.6445
  739MOL0     C99657   5.522   1.394   8.636  0.7530 -0.1643 -0.1953
  739MOL0     C99658   5.429   1.507   8.636 -0.2759 -0.0854 -0.2447
  739MOL0     C99659   5.297   1.486   8.576 -0.3351  0.5030 -0.1993
  739MOL0     O99660   5.199   1.585   8.588 -0.5918  0.9972 -0.2378
  739MOL0     C99661   5.064   1.548   8.584 -0.2090 -0.2510  0.7650
  739MOL0     C99662   5.011   1.451   8.673  0.6572 -0.1479 -0.2531
  739MOL0     C99663   4.876   1.430   8.675 -0.7036 -0.1894 -0.1516
  739MOL0     C99664   4.791   1.481   8.576 -0.4675 -0.0733  0.2467
  739MOL0     O99665   4.656   1.454   8.601  0.1532  0.5142 -0.7337
  739MOL0     C99666   4.555   1.515   8.523  0.1966  0.5471 -0.3135
  739MOL0     C99667   4.405   1.500   8.571 -0.5505  0.3905 -0.0967
  739MOL0     C99668   4.373   1.569   8.707  0.0515  0.2028 -0.1922
  739MOL0     C99669   4.229   1.528   8.747  0.0568 -1.1270  0.3993
  739MOL0     C99670   4.126   1.624   8.701 -0.0582  0.3498 -0.1364
  739MOL0     C99671   3.984   1.574   8.715 -0.0908  0.7177 -0.9879
  739MOL0     C99672   3.875   1.673   8.683  0.0860  0.0188  0.1532
  739MOL0     C99673   3.728   1.620   8.675  0.7004  0.4550  0.9365
  739MOL0    Cl99674   3.621   1.763   8.660 -0.1550 -0.2447 -0.5226
  739MOL0     C99675   4.835   1.576   8.490 -0.1819 -1.0826  0.0326
  739MOL0     C99676   4.978   1.611   8.492  1.0627 -0.2275  0.6566
  739MOL0     O99677   5.281   1.374   8.532  0.6319  0.3249 -0.1087
  739MOL0     C99678   5.475   1.625   8.697 -0.4536  0.1802  0.5248
  739MOL0     C99679   5.602   1.640   8.752 -0.2466 -0.1965  0.1644
  739MOL0     N99680   5.499   1.355   9.177  0.1400 -0.2231 -1.3233
  739MOL0     N99681   5.378   1.325   9.131 -0.1477  0.2929  0.5423
  739MOL0     C99682   4.134   2.006   9.198  1.1605 -0.1015 -0.5507
  739MOL0     C99683   4.017   2.084   9.208 -0.6516 -0.4141 -1.3370
  739MOL0     C99684   3.700   2.380   9.070 -1.0115  0.0236  0.3385
  739MOL0     C99685   3.583   2.308   9.100 -0.3654 -0.3032 -0.3102
  739MOL0     C99686   3.465   2.376   9.105 -0.1568  0.2787  0.2645
  739MOL0     C99687   3.460   2.514   9.090  0.5488 -0.2102 -0.6475
  739MOL0     O99688   3.349   2.595   9.096  0.3961  0.4701  0.5516
  739MOL0     C99689   3.218   2.552   9.148  0.9308  0.6068  0.0294
  739MOL0     C99690   3.220   2.578   9.300 -0.1212  0.4128 -0.2688
  739MOL0     C99691   3.316   2.498   9.388  0.3751 -0.1221 -0.0460
  739MOL0     C99692   3.306   2.554   9.529  0.5338  1.4100 -0.2389
  739MOL0     C99693   3.174   2.521   9.584 -0.6750 -0.3077 -0.2671
  739MOL0     C99694   3.061   2.485   9.625  0.6518 -0.4145  0.3404
  739MOL0     C99695   3.581   2.584   9.063 -0.4349 -0.3074 -0.8601
  739MOL0     C99696   3.699   2.521   9.043 -0.9462  0.2585 -0.7969
  739MOL0     C99697   3.817   2.609   9.016  0.8190 -0.3682 -0.1408
  739MOL0     H99698   3.888   2.003   8.904  0.1986 -1.7473  0.2645
  739MOL0     H99699   4.061   1.851   8.905  0.1620 -0.0433  0.2001
  739MOL0     H99700   4.411   1.938   9.081  1.3485 -1.5371  0.4637
  739MOL0     H99701   4.376   1.846   9.229  1.3556 -0.0418  0.3396
  739MOL0     H99702   4.445   1.721   8.964 -4.0810  1.3679 -0.5781
  739MOL0     H99703   4.417   1.634   9.121  1.2949  0.7659  0.4404
  739MOL0     H99704   4.617   1.726   9.231  1.1922  2.4700  0.1271
  739MOL0     H99705   4.641   1.832   9.095  1.0995 -1.1302 -0.5531
  739MOL0     H99706   4.655   1.531   9.082 -0.3400  0.1765 -0.4003
  739MOL0     H99707   4.713   1.646   8.959  3.2188 -2.6695 -0.2601
  739MOL0     H99708   4.865   1.742   9.117 -0.9358 -1.2142  2.2889
  739MOL0     H99709   4.833   1.625   9.232 -0.2036  3.2948  1.5599
  739MOL0     H99710   4.916   1.439   9.036  1.1423  0.2660 -2.2612
  739MOL0     H99711   4.966   1.581   8.947  1.5398  1.4476  0.1555
  739MOL0     H99712   5.063   1.511   9.220 -0.7433  1.6424  0.3315
  739MOL0     H99713   5.113   1.645   9.125  1.0715 -1.2643  0.1023
  739MOL0     H99714   5.143   1.356   9.019 -0.0113  0.6023  0.5880
  739MOL0     H99715   5.201   1.509   8.936  0.4154  0.6601  0.3655
  739MOL0     H99716   5.395   1.653   9.098  5.0744  0.5460  0.0556
  739MOL0     H99717   5.600   1.671   9.225 -3.1563 -1.3373  1.1722
  739MOL0     H99718   5.674   1.525   9.309  0.8227 -2.7744 -0.6213
  739MOL0     H99719   5.844   1.510   9.156 -0.3568 -1.0940 -0.9190
  739MOL0     H99720   5.726   1.463   9.048 -1.1035 -0.4000  1.1146
  739MOL0     H99721   5.813   1.757   9.074 -0.1343  1.1924 -1.3033
  739MOL0     H99722   5.671   1.703   8.984 -0.2289 -1.7180 -2.0856
  739MOL0     H99723   5.954   1.644   8.926  0.7966  3.8021 -1.5208
  739MOL0     H99724   5.850   1.734   8.825  1.4230 -1.5635 -2.7106
  739MOL0     H99725   5.704   1.323   8.695 -0.2139  0.3735 -1.1692
  739MOL0     H99726   5.486   1.304   8.587 -0.6511 -0.0070  0.4945
  739MOL0     H99727   5.082   1.391   8.729  0.4446  0.0363  0.2093
  739MOL0     H99728   4.841   1.355   8.746  0.9668 -1.4086 -0.5290
  739MOL0     H99729   4.577   1.622   8.516  0.0748  0.6171  0.2947
  739MOL0     H99730   4.563   1.481   8.420 -0.0476 -0.6970  0.0528
  739MOL0     H99731   4.349   1.551   8.492 -1.8411  1.6405  1.5275
  739MOL0     H99732   4.378   1.394   8.575  1.3756 -0.1095  0.4551
  739MOL0     H99733   4.445   1.527   8.778  0.4527 -0.6395 -1.0823
  739MOL0     H99734   4.394   1.676   8.722 -1.3472  0.0706  4.1494
  739MOL0     H99735   4.223   1.517   8.856  0.1776 -1.1454  0.4052
  739MOL0     H99736   4.209   1.429   8.706  1.6454 -0.7793 -1.3789
  739MOL0     H99737   4.146   1.646   8.595  0.4146 -1.1115 -0.3704
  739MOL0     H99738   4.142   1.717   8.756  1.6977 -0.4347  0.7771
  739MOL0     H99739   3.981   1.481   8.656  4.9377  1.5269 -3.0527
  739MOL0     H99740   3.969   1.557   8.822 -0.1020  1.7418 -0.8191
  739MOL0     H99741   3.892   1.724   8.588 -0.7230 -2.0087 -1.1457
  739MOL0     H99742   3.885   1.749   8.761  4.4290  0.8498 -0.9546
  739MOL0     H99743   3.715   1.550   8.592  1.5678  0.5510  0.7139
  739MOL0     H99744   3.706   1.561   8.765  0.6594 -2.6515 -0.9783
  739MOL0     H99745   4.773   1.637   8.426 -1.1640 -1.2394  0.8156
  739MOL0     H99746   5.021   1.680   8.421 -0.8352 -0.0867 -0.4315
  739MOL0     H99747   5.410   1.711   8.699  1.3980  1.6501  0.5842
  739MOL0     H99748   5.629   1.738   8.791 -1.1038 -0.4605  1.4954
  739MOL0     H99749   4.205   2.007   9.280 -0.8483  3.7229  1.4164
  739MOL0     H99750   3.997   2.158   9.285  0.5207 -2.3899  0.9937
  739MOL0     H99751   3.585   2.203   9.126 -0.3785 -0.4562 -0.9056
  739MOL0     H99752   3.379   2.315   9.131  0.4253  0.2220  2.2651
  739MOL0     H99753   3.191   2.450   9.123  0.5114  0.0135  2.5902
  739MOL0     H99754   3.144   2.614   9.098 -0.2290 -0.3962  0.4695
  739MOL0     H99755   3.114   2.573   9.328 -0.8893 -1.4148 -3.0329
  739MOL0     H99756   3.246   2.684   9.305 -1.7832  0.9540 -1.9028
  739MOL0     H99757   3.420   2.504   9.357  0.4397  0.9031  0.3347
  739MOL0     H99758   3.282   2.394   9.382 -1.6068  0.5292 -1.1546
  739MOL0     H99759   3.384   2.508   9.591  0.8225 -0.0168 -1.6121
  739MOL0     H99760   3.323   2.662   9.533 -1.5745  1.7640  1.6390
  739MOL0     H99761   2.972   2.453   9.675  0.4734  1.7631  1.4979
  739MOL0     H99762   3.585   2.692   9.050 -2.0227  0.0214  0.8453
  739MOL0     H99763   3.895   2.571   9.082  0.1681 -2.7560 -0.6425
  739MOL0     H99764   3.850   2.588   8.914  2.3664 -1.3062  0.5211
  739MOL0     H99765   3.797   2.716   9.030 -1.7861 -0.4076 -2.6668
  740MOL0     O99766   7.758   5.750   8.271 -0.0085  0.1323 -0.0989
  740MOL0     C99767   7.668   5.670   8.228 -0.1799  0.5359 -0.2588
  740MOL0     O99768   7.690   5.561   8.157 -0.1461 -0.4062 -0.1740
  740MOL0     C99769   7.814   5.544   8.106 -0.8808 -0.0476  0.8542
  740MOL0     C99770   7.875   5.626   8.016 -0.2470  0.0720  0.2185
  740MOL0     C99771   8.009   5.596   7.978 -1.2660  0.1703 -0.0703
  740MOL0     C99772   8.079   5.486   8.021 -0.4771 -0.4579  0.0784
  740MOL0     O99773   8.208   5.448   7.985  0.4112 -0.7593  0.3430
  740MOL0     C99774   8.288   5.547   7.913 -0.9359  1.2589  0.2794
  740MOL0     C99775   8.422   5.471   7.869 -0.0543 -0.2172  0.8289
  740MOL0     C99776   8.534   5.570   7.847 -0.2233 -0.4180  0.0376
  740MOL0     C99777   8.670   5.510   7.789  0.6040  0.1078 -0.3761
  740MOL0     C99778   8.774   5.614   7.791 -0.8318  0.0539 -0.0640
  740MOL0     C99779   8.916   5.584   7.742 -0.5626  0.1434 -0.4249
  740MOL0     C99780   8.921   5.577   7.584  0.2102  0.3682  0.0706
  740MOL0     C99781   9.058   5.548   7.520 -0.8086  0.1782  0.1350
  740MOL0     N99782   9.172   5.642   7.552  0.1860 -0.1303 -0.0271
  740MOL0     C99783   9.165   5.782   7.570 -0.0950 -0.6351 -0.2074
  740MOL0     C99784   9.288   5.826   7.607  0.5249  1.3867 -0.6238
  740MOL0     C99785   9.301   5.966   7.624  0.2593 -0.5853  0.3473
  740MOL0     C99786   9.447   6.007   7.627  0.1781  0.7545  0.0673
  740MOL0     C99787   9.473   6.160   7.610  0.2901 -0.8320 -0.4504
  740MOL0     C99788   9.616   6.203   7.626 -0.1335  0.5256  0.6308
  740MOL0     O99789   9.697   6.118   7.536 -0.5411  0.1029 -0.0271
  740MOL0     C99790   9.826   6.151   7.537 -0.2292 -0.1194 -1.2993
  740MOL0     C99791   9.906   6.082   7.626 -0.1907 -0.5117  0.0456
  740MOL0     C99792  10.047   6.090   7.617  0.3303  0.2269  0.6373
  740MOL0     C99793  10.096   6.174   7.515 -0.4305  0.9548 -0.6048
  740MOL0     C99794  10.247   6.168   7.499  0.6852 -0.3567 -0.2363
  740MOL0     O99795  10.313   6.070   7.562 -0.8170  0.0934  0.3436
  740MOL0     C99796  10.454   6.077   7.542  0.1500  0.0757 -0.1629
  740MOL0     C99797  10.519   5.975   7.464 -0.0191 -0.7246 -0.5652
  740MOL0     C99798  10.662   5.974   7.455  0.2737  1.2715  0.0458
  740MOL0     C99799  10.741   6.069   7.533 -0.4145 -0.7018  0.3070
  740MOL0     O99800  10.879   6.065   7.536 -0.0438  0.1192  0.2126
  740MOL0     C99801  10.943   6.169   7.458  0.0566 -0.7063 -0.2544
  740MOL0     C99802  11.100   6.158   7.434 -0.1034 -0.1675  0.0487
  740MOL0     C99803  11.161   6.073   7.539 -0.6557 -0.6463 -0.0449
  740MOL0     C99804  11.307   6.091   7.557  0.4336  0.0338 -0.2717
  740MOL0     C99805  11.338   6.008   7.685 -0.3692  0.9802 -0.2463
  740MOL0     C99806  11.482   5.996   7.728 -1.2449 -0.7032 -0.0506
  740MOL0     C99807  11.575   5.954   7.619 -0.3596 -1.2062  0.1361
  740MOL0     C99808  11.716   5.936   7.672 -0.2926  0.2195  0.0975
  740MOL0    Cl99809  11.765   6.058   7.802 -0.0307 -0.3771  0.1704
  740MOL0     C99810  10.673   6.175   7.604  0.0815 -0.7167 -0.3609
  740MOL0     C99811  10.530   6.178   7.604  0.6057 -0.2303  0.3171
  740MOL0     O99812  10.296   6.254   7.423  0.4126  0.3415 -0.3005
  740MOL0     C99813  10.007   6.241   7.432 -0.1811 -0.6208  0.5338
  740MOL0     C99814   9.873   6.232   7.435  0.4001  0.1448 -1.0349
  740MOL0     N99815   9.371   5.709   7.626 -0.2805 -0.2415  0.2866
  740MOL0     N99816   9.296   5.608   7.607  0.2713 -0.4422 -0.2679
  740MOL0     C99817   8.014   5.399   8.107  0.4989 -0.8144  0.0844
  740MOL0     C99818   7.884   5.432   8.151  0.4071  0.0411  0.1130
  740MOL0     C99819   7.539   5.682   8.304  0.5689  0.4923  0.0266
  740MOL0     C99820   7.480   5.564   8.348  0.4638 -0.6857 -0.0907
  740MOL0     C99821   7.356   5.565   8.408  0.4659  0.4708 -0.4942
  740MOL0     C99822   7.280   5.682   8.424 -0.5739  0.0922 -0.3708
  740MOL0     O99823   7.155   5.687   8.471 -0.1456 -0.2120 -0.2081
  740MOL0     C99824   7.100   5.561   8.528 -0.4983 -0.0126 -0.8539
  740MOL0     C99825   6.972   5.606   8.604  0.0831 -0.5126 -0.1960
  740MOL0     C99826   6.884   5.492   8.657 -0.1774 -0.4279  0.3069
  740MOL0     C99827   6.761   5.546   8.734 -0.7704  0.3657  0.1793
  740MOL0     C99828   6.653   5.458   8.723  1.2215 -0.3760  0.0588
  740MOL0     C99829   6.552   5.388   8.703  0.1486  0.5028 -0.3978
  740MOL0     C99830   7.338   5.799   8.376  0.5546  0.5063 -0.4436
  740MOL0     C99831   7.461   5.797   8.306 -0.0754 -0.5041  0.0681
  740MOL0     C99832   7.510   5.919   8.228 -0.4790 -0.1782 -0.4094
  740MOL0     H99833   7.822   5.715   7.984  1.5252  1.0238 -0.1939
  740MOL0     H99834   8.058   5.656   7.902  1.1290  0.9134  1.9342
  740MOL0     H99835   8.229   5.581   7.828 -2.0720  0.0749  0.5558
  740MOL0     H99836   8.307   5.635   7.975 -1.5223  1.2306  0.4973
  740MOL0     H99837   8.394   5.418   7.777  0.6120 -1.5869  1.3979
  740MOL0     H99838   8.450   5.399   7.946 -2.4432 -2.5410 -0.3273
  740MOL0     H99839   8.554   5.611   7.947  2.3325 -0.7571 -0.2778
  740MOL0     H99840   8.506   5.657   7.786  2.2831  1.3089  1.1639
  740MOL0     H99841   8.708   5.431   7.853 -0.4473  0.3627  0.5867
  740MOL0     H99842   8.652   5.476   7.687  1.2450 -0.1054 -0.4261
  740MOL0     H99843   8.740   5.698   7.729  0.7918 -2.1938 -4.5105
  740MOL0     H99844   8.784   5.659   7.890 -0.6857  0.5099 -0.2793
  740MOL0     H99845   8.985   5.658   7.783  0.6629 -1.0976 -0.1929
  740MOL0     H99846   8.960   5.491   7.779  1.1231 -1.6146 -5.8347
  740MOL0     H99847   8.890   5.670   7.536  2.1260  0.8848 -0.2479
  740MOL0     H99848   8.845   5.504   7.555  0.8942  0.2979 -1.6126
  740MOL0     H99849   9.103   5.453   7.551 -0.4655 -0.5490 -2.4129
  740MOL0     H99850   9.045   5.536   7.412  3.2789 -3.2286 -0.2452
  740MOL0     H99851   9.075   5.840   7.551  0.2529 -0.4630 -1.4140
  740MOL0     H99852   9.253   6.013   7.539 -0.7238 -0.6516  0.8500
  740MOL0     H99853   9.248   5.995   7.715 -1.9810 -2.2895 -0.3216
  740MOL0     H99854   9.491   5.966   7.718  0.7349 -0.7038 -0.8265
  740MOL0     H99855   9.493   5.960   7.540  1.1976  1.4359  0.2266
  740MOL0     H99856   9.424   6.206   7.697 -3.1170 -6.3401  1.0122
  740MOL0     H99857   9.424   6.189   7.517  2.0603 -1.0552 -1.4961
  740MOL0     H99858   9.633   6.180   7.731 -2.6335 -0.8654  0.8237
  740MOL0     H99859   9.619   6.312   7.614  0.4441  0.5055  0.5932
  740MOL0     H99860   9.861   6.021   7.704 -2.0119 -1.1994 -1.4720
  740MOL0     H99861  10.111   6.045   7.692  2.1168  2.5092  0.5823
  740MOL0     H99862  10.459   5.905   7.407 -0.5607  0.2746 -1.2628
  740MOL0     H99863  10.712   5.908   7.385  0.6118 -1.8923  3.0185
  740MOL0     H99864  10.898   6.165   7.358  0.4224  1.0608 -0.5240
  740MOL0     H99865  10.910   6.269   7.487 -2.1485 -1.1999 -0.8454
  740MOL0     H99866  11.098   6.108   7.337 -2.9319 -1.6220  0.7506
  740MOL0     H99867  11.151   6.255   7.439  0.9056 -0.7559  2.3929
  740MOL0     H99868  11.110   6.088   7.634  2.3186 -1.3402  1.8145
  740MOL0     H99869  11.144   5.966   7.521  0.1219 -1.0188  1.2574
  740MOL0     H99870  11.311   6.198   7.576 -2.7585 -0.0286  1.5507
  740MOL0     H99871  11.363   6.063   7.468 -0.7362  0.7258 -1.2638
  740MOL0     H99872  11.305   5.905   7.676  0.9224  0.3822  1.4431
  740MOL0     H99873  11.292   6.049   7.776  1.4002  1.7749  0.3235
  740MOL0     H99874  11.522   6.093   7.760 -0.0749 -0.6117 -1.6874
  740MOL0     H99875  11.484   5.921   7.808  1.3774 -0.5517  0.1245
  740MOL0     H99876  11.567   6.024   7.536  0.8553 -0.9179  0.2484
  740MOL0     H99877  11.528   5.862   7.583 -2.4298 -0.6691  1.2799
  740MOL0     H99878  11.730   5.844   7.729  0.4085 -1.8947 -3.1943
  740MOL0     H99879  11.791   5.938   7.592  0.6867  3.7744  0.9235
  740MOL0     H99880  10.745   6.238   7.656 -0.1930 -0.8923  0.2468
  740MOL0     H99881  10.467   6.254   7.648 -1.8078 -2.9980  2.0114
  740MOL0     H99882  10.050   6.301   7.353 -0.0829 -0.5609  0.6322
  740MOL0     H99883   9.810   6.293   7.372 -0.6695  0.6050  0.4405
  740MOL0     H99884   8.066   5.309   8.139 -0.5395 -2.0340 -1.4609
  740MOL0     H99885   7.844   5.364   8.225 -0.6976 -1.8826 -2.1218
  740MOL0     H99886   7.526   5.469   8.325 -1.7517 -1.6477 -0.8140
  740MOL0     H99887   7.308   5.469   8.423 -0.7052  1.0073 -0.6842
  740MOL0     H99888   7.163   5.497   8.591 -1.4814  0.6229  0.8484
  740MOL0     H99889   7.074   5.494   8.445 -0.0075 -2.4306  0.8144
  740MOL0     H99890   6.910   5.667   8.538 -0.9141  0.1573  1.3141
  740MOL0     H99891   7.005   5.677   8.681 -2.1713 -0.2392  0.5955
  740MOL0     H99892   6.935   5.425   8.727 -0.3932  0.2366  1.1125
  740MOL0     H99893   6.849   5.434   8.571  0.4493 -3.2892  1.8198
  740MOL0     H99894   6.787   5.556   8.840 -0.7843  3.3682 -0.0166
  740MOL0     H99895   6.743   5.649   8.702 -2.1809  0.1026  0.0996
  740MOL0     H99896   6.480   5.312   8.679 -0.0680  0.4852  0.2963
  740MOL0     H99897   7.270   5.883   8.387 -1.7157 -1.2502 -0.3087
  740MOL0     H99898   7.595   5.897   8.162 -0.4178  1.6695 -0.9853
  740MOL0     H99899   7.434   5.971   8.170  2.0551  1.7697 -2.2108
  740MOL0     H99900   7.556   5.987   8.300  1.6056 -0.6413 -1.2247
  741MOL0     O99901   3.390   2.792   7.132 -0.3891 -0.7595 -0.0676
  741MOL0     C99902   3.430   2.747   7.026 -0.2265 -0.6094 -0.1865
  741MOL0     O99903   3.356   2.754   6.908  0.0936  0.5212 -0.3397
  741MOL0     C99904   3.242   2.823   6.903  0.3414 -1.0025  0.2028
  741MOL0     C99905   3.212   2.946   6.974  0.5739  0.5026  1.5035
  741MOL0     C99906   3.086   3.004   6.957  0.3878 -0.1358 -0.2170
  741MOL0     C99907   2.989   2.953   6.866 -0.4122 -0.0448  0.2741
  741MOL0     O99908   2.868   3.009   6.847  0.0440 -0.3638 -0.6085
  741MOL0     C99909   2.782   2.963   6.749  0.2346 -0.5133  0.2386
  741MOL0     C99910   2.662   3.064   6.740 -0.3336 -0.4157  0.5528
  741MOL0     C99911   2.565   3.028   6.629  0.3424  0.4250 -0.5566
  741MOL0     C99912   2.457   3.132   6.609 -0.3016 -0.5089  0.3495
  741MOL0     C99913   2.337   3.082   6.541  0.5555 -0.8807  0.0003
  741MOL0     C99914   2.235   3.192   6.547  0.0788 -1.1333 -0.4194
  741MOL0     C99915   2.092   3.157   6.497 -0.2489  0.4810  0.6616
  741MOL0     C99916   2.019   3.291   6.481 -0.4399  0.2880  0.3357
  741MOL0     N99917   1.878   3.265   6.447  0.1831  0.5276  0.7095
  741MOL0     C99918   1.772   3.219   6.524 -0.7429 -0.3788  0.2127
  741MOL0     C99919   1.667   3.209   6.445  0.3295  0.7819 -0.0657
  741MOL0     C99920   1.525   3.158   6.493 -0.6396  0.1636 -0.2213
  741MOL0     C99921   1.466   3.051   6.400 -0.0952 -0.0615 -0.0335
  741MOL0     C99922   1.566   2.931   6.395  0.5446 -0.1808  0.4334
  741MOL0     C99923   1.552   2.818   6.509  0.0705  0.3516  0.3610
  741MOL0     O99924   1.556   2.858   6.644 -0.3573 -1.3952 -0.4942
  741MOL0     C99925   1.679   2.886   6.707  0.0617 -0.0113  0.2382
  741MOL0     C99926   1.677   2.937   6.825  0.4714 -0.7424 -0.3758
  741MOL0     C99927   1.787   2.960   6.904 -0.1765  0.1182  0.8601
  741MOL0     C99928   1.915   2.919   6.858 -0.0127 -0.2971  0.6763
  741MOL0     C99929   2.030   2.951   6.938  0.2885 -0.2857 -0.2287
  741MOL0     O99930   2.148   2.896   6.896  0.0207  0.6639  0.7113
  741MOL0     C99931   2.255   2.908   6.979  0.2684 -0.6415 -0.0854
  741MOL0     C99932   2.381   2.910   6.917 -0.0946  0.2189  0.1497
  741MOL0     C99933   2.505   2.897   6.991 -0.2439  0.0407 -0.2405
  741MOL0     C99934   2.500   2.874   7.126 -0.0739  0.3068 -0.7012
  741MOL0     O99935   2.611   2.859   7.204 -0.4278 -0.8062  0.6752
  741MOL0     C99936   2.705   2.967   7.211 -0.8287  0.2812 -0.0075
  741MOL0     C99937   2.838   2.926   7.259 -0.6733  0.2059 -0.2496
  741MOL0     C99938   2.893   2.798   7.188  0.4429  0.2230  0.1945
  741MOL0     C99939   3.021   2.766   7.266  0.1356  0.0049  0.0011
  741MOL0     C99940   3.079   2.628   7.243  0.3017 -0.1339 -0.6007
  741MOL0     C99941   3.191   2.581   7.337  0.2566 -0.2733 -0.3157
  741MOL0     C99942   3.229   2.431   7.315  0.2453  0.1280 -0.0755
  741MOL0     C99943   3.127   2.344   7.382 -0.0616  0.0114  0.0775
  741MOL0    Cl99944   3.194   2.300   7.541 -0.1692 -0.0246  0.1534
  741MOL0     C99945   2.365   2.857   7.181 -0.9749  0.5887  0.0215
  741MOL0     C99946   2.251   2.880   7.114  0.5047  0.2380 -0.0848
  741MOL0     O99947   2.015   3.021   7.037 -0.4630  0.6452 -0.4636
  741MOL0     C99948   1.921   2.873   6.722  0.6273  0.4928  0.0071
  741MOL0     C99949   1.805   2.845   6.652  0.3333  0.3797  0.3837
  741MOL0     N99950   1.700   3.247   6.318 -0.0150  0.1126 -0.6596
  741MOL0     N99951   1.826   3.274   6.319  0.6121  0.4782  0.5163
  741MOL0     C99952   3.023   2.829   6.796 -0.6396 -0.4539 -1.6806
  741MOL0     C99953   3.143   2.764   6.825  0.2665 -0.4029  0.6834
  741MOL0     C99954   3.575   2.695   7.013 -0.0328  0.2422 -0.6699
  741MOL0     C99955   3.635   2.711   6.889  0.9767 -0.0374  0.5727
  741MOL0     C99956   3.775   2.696   6.871 -0.3387  0.1289 -0.1614
  741MOL0     C99957   3.857   2.653   6.976 -0.5802  0.2599 -0.4485
  741MOL0     O99958   3.994   2.640   6.959  0.0671 -0.0920  0.3238
  741MOL0     C99959   4.089   2.724   7.030  0.0425 -0.0995  0.3325
  741MOL0     C99960   4.230   2.677   7.011  0.8290  0.4467 -0.6945
  741MOL0     C99961   4.307   2.766   6.918  0.6403 -0.4047 -0.0216
  741MOL0     C99962   4.446   2.716   6.902  0.3817 -1.2290  0.0993
  741MOL0     C99963   4.500   2.811   6.802  0.9468 -0.6558 -0.0805
  741MOL0     C99964   4.539   2.896   6.718  0.6015 -0.9469  0.4783
  741MOL0     C99965   3.795   2.628   7.098 -1.1939 -0.7866 -0.6384
  741MOL0     C99966   3.660   2.643   7.121 -0.2310  0.0053 -0.7015
  741MOL0     C99967   3.593   2.618   7.259  0.6226  0.2601  0.7867
  741MOL0     H99968   3.286   3.000   7.031 -0.6663 -0.8489  4.6507
  741MOL0     H99969   3.060   3.101   6.998 -1.2123 -0.4447 -0.4345
  741MOL0     H99970   2.842   2.965   6.658  0.0878 -0.2595  0.1478
  741MOL0     H99971   2.759   2.856   6.762  0.5664 -0.8937 -1.9758
  741MOL0     H99972   2.700   3.163   6.713  1.5245 -0.7331  1.7452
  741MOL0     H99973   2.621   3.072   6.842  2.2772  2.1248  1.5423
  741MOL0     H99974   2.511   2.936   6.651  3.3454 -1.6242 -1.2073
  741MOL0     H99975   2.620   3.010   6.536  0.7317 -0.4072 -0.1694
  741MOL0     H99976   2.433   3.169   6.710 -2.2756 -0.1533 -0.2045
  741MOL0     H99977   2.499   3.221   6.562 -2.3209  1.0721  1.3466
  741MOL0     H99978   2.362   3.057   6.437  0.7417  1.7604 -0.6405
  741MOL0     H99979   2.295   3.000   6.600 -1.5380  0.1446 -0.0010
  741MOL0     H99980   2.233   3.234   6.648 -0.0269 -1.1053 -0.4323
  741MOL0     H99981   2.286   3.270   6.491  1.3296 -1.5899  0.0590
  741MOL0     H99982   2.039   3.088   6.563  0.2139  0.2426  0.7906
  741MOL0     H99983   2.103   3.107   6.401 -2.5186 -1.1963  1.1828
  741MOL0     H99984   2.026   3.359   6.567 -0.9117  0.0982  0.5276
  741MOL0     H99985   2.068   3.346   6.400  1.5386  1.3258  2.1241
  741MOL0     H99986   1.785   3.183   6.625  3.3115 -2.1118 -0.7432
  741MOL0     H99987   1.522   3.116   6.594 -1.3317  2.2902  0.7080
  741MOL0     H99988   1.452   3.238   6.482 -1.8068 -0.7665  0.5211
  741MOL0     H99989   1.367   3.022   6.437 -0.6657  0.2390 -1.2924
  741MOL0     H99990   1.452   3.088   6.298 -0.3026  2.3586  0.7993
  741MOL0     H99991   1.670   2.964   6.404  0.4671 -0.1112  1.1918
  741MOL0     H99992   1.547   2.891   6.295  1.3478 -0.1152  0.2535
  741MOL0     H99993   1.610   2.727   6.491 -1.2801 -1.6094  4.5915
  741MOL0     H99994   1.455   2.768   6.499  1.4569 -2.7721  1.2832
  741MOL0     H99995   1.585   2.975   6.869 -0.1732 -2.5768 -0.0277
  741MOL0     H99996   1.786   3.010   7.001  0.9087 -2.5051  2.3152
  741MOL0     H99997   2.390   2.905   6.809  0.5652 -0.3766  0.2198
  741MOL0     H99998   2.606   2.880   6.956 -0.2980 -2.2559  0.5187
  741MOL0     H99999   2.716   3.012   7.112  0.7679  2.2406  0.9636
  741MOL0     H    0   2.663   3.041   7.280  0.3781  1.5699 -0.6038
  741MOL0     H    1   2.904   3.011   7.241 -0.4070  0.2758  0.9834
  741MOL0     H    2   2.826   2.907   7.367  0.9060 -0.7815 -0.2160
  741MOL0     H    3   2.817   2.722   7.210  1.3223  0.0088  2.9674
  741MOL0     H    4   2.920   2.804   7.082  2.6668 -1.8108  0.5440
  741MOL0     H    5   2.995   2.772   7.372 -1.5912 -3.0070 -0.1157
  741MOL0     H    6   3.099   2.835   7.234 -0.6602  0.8304 -0.1838
  741MOL0     H    7   3.119   2.619   7.141  1.5151 -0.0799 -0.1512
  741MOL0     H    8   2.997   2.558   7.259  1.2727 -0.8633  1.4306
  741MOL0     H    9   3.282   2.639   7.317  1.2176 -1.7470 -0.3120
  741MOL0     H   10   3.149   2.603   7.436 -1.5777  0.8446 -1.2685
  741MOL0     H   11   3.332   2.404   7.339 -1.1572 -2.0789  4.6373
  741MOL0     H   12   3.219   2.409   7.208 -0.0106 -1.2191  0.2065
  741MOL0     H   13   3.031   2.395   7.384  1.0025  2.2232 -1.6184
  741MOL0     H   14   3.119   2.254   7.319 -1.4760 -0.0066  0.2477
  741MOL0     H   15   2.369   2.828   7.286  2.3067 -0.4538 -0.2754
  741MOL0     H   16   2.154   2.860   7.160  1.4776 -4.0350  0.4889
  741MOL0     H   17   2.021   2.847   6.689 -0.2742 -2.4311 -0.7112
  741MOL0     H   18   1.791   2.808   6.551 -1.7563  0.9399  0.4223
  741MOL0     H   19   2.954   2.777   6.731  0.4994 -0.6718 -2.7600
  741MOL0     H   20   3.166   2.671   6.773  0.2012 -0.3011  0.4713
  741MOL0     H   21   3.573   2.751   6.809 -0.7102  1.4044  2.4771
  741MOL0     H   22   3.824   2.715   6.776 -0.3771  1.0619 -0.0041
  741MOL0     H   23   4.090   2.697   7.136  2.6197  2.9998  1.2300
  741MOL0     H   24   4.074   2.832   7.033 -1.9032 -0.3481  2.5070
  741MOL0     H   25   4.227   2.572   6.982 -0.2703  0.4460 -0.6182
  741MOL0     H   26   4.286   2.684   7.105  0.9213  0.2208 -0.7323
  741MOL0     H   27   4.301   2.865   6.964  0.0939 -1.0209  1.2977
  741MOL0     H   28   4.258   2.772   6.820 -0.3907  1.0171  0.5551
  741MOL0     H   29   4.516   2.711   6.985 -0.1200 -0.9216  0.5460
  741MOL0     H   30   4.437   2.614   6.861 -0.4424 -0.4996 -1.6657
  741MOL0     H   31   4.555   2.953   6.629 -0.2008 -1.0609  0.2497
  741MOL0     H   32   3.844   2.586   7.185 -1.4589  0.5329  0.1956
  741MOL0     H   33   3.568   2.715   7.302 -0.2664  0.6768 -0.6203
  741MOL0     H   34   3.507   2.549   7.254  1.4014 -0.8719  2.2054
  741MOL0     H   35   3.663   2.564   7.324  1.1718 -2.5525 -1.9137
  742MOL0     O   36   0.293   8.222   8.215 -0.1032  0.4509  0.3460
  742MOL0     C   37   0.180   8.261   8.261 -0.3575  0.1480  0.1617
  742MOL0     O   38   0.155   8.362   8.349 -0.7248  0.8286  0.1510
  742MOL0     C   39   0.253   8.421   8.424 -0.6529  0.3660  0.1726
  742MOL0     C   40   0.205   8.530   8.488 -0.6370  1.1130 -0.4914
  742MOL0     C   41   0.296   8.613   8.553 -0.3628 -0.2758 -0.2106
  742MOL0     C   42   0.431   8.585   8.565 -0.1299  0.7454  0.4440
  742MOL0     O   43   0.509   8.683   8.608 -0.0794  1.0286  0.3465
  742MOL0     C   44   0.652   8.657   8.604  0.7619  0.2258  0.2871
  742MOL0     C   45   0.715   8.758   8.694 -0.3253  0.8417  0.7097
  742MOL0     C   46   0.862   8.731   8.721  0.3849 -0.0242  0.3424
  742MOL0     C   47   0.909   8.799   8.846 -0.6090  0.5296 -0.4794
  742MOL0     C   48   1.065   8.780   8.864  0.3088  0.4895 -0.8557
  742MOL0     C   49   1.115   8.804   9.006 -0.6443 -0.2631  0.8434
  742MOL0     C   50   1.262   8.772   9.026 -0.8401  0.4096 -0.1032
  742MOL0     C   51   1.302   8.781   9.170 -0.0380  0.6510 -0.1051
  742MOL0     N   52   1.448   8.785   9.191  0.3457 -0.5107  0.4685
  742MOL0     C   53   1.530   8.674   9.166 -0.4645 -1.0130  0.3473
  742MOL0     C   54   1.654   8.730   9.192 -0.6514 -0.1304  0.5907
  742MOL0     C   55   1.788   8.655   9.195 -0.1339 -0.0837 -0.1181
  742MOL0     C   56   1.903   8.735   9.137  0.6611  0.3650  0.4989
  742MOL0     C   57   2.028   8.655   9.148 -0.1339 -0.0236 -0.3315
  742MOL0     C   58   2.143   8.743   9.107 -0.3508 -0.4660  0.7073
  742MOL0     O   59   2.179   8.826   9.218  0.1592  0.1083  1.1625
  742MOL0     C   60   2.307   8.862   9.223 -0.4186  0.4975 -0.0295
  742MOL0     C   61   2.406   8.864   9.120 -0.5388  0.9906 -0.1499
  742MOL0     C   62   2.537   8.889   9.151  0.3106 -0.6261  0.3420
  742MOL0     C   63   2.579   8.929   9.272  0.6141  0.0654 -0.5895
  742MOL0     C   64   2.718   8.952   9.301  0.4988 -1.3041 -0.3431
  742MOL0     O   65   2.808   8.934   9.208 -0.5881  1.1624 -0.0960
  742MOL0     C   66   2.940   8.966   9.233  0.0204 -0.9072 -0.0717
  742MOL0     C   67   3.028   8.859   9.230 -1.2100 -0.2553  0.1554
  742MOL0     C   68   3.169   8.876   9.246 -0.3414  0.3269  0.0413
  742MOL0     C   69   3.220   9.006   9.259  0.1536  0.3055  0.1185
  742MOL0     O   70   3.361   9.013   9.256  0.9063  0.8212 -0.8714
  742MOL0     C   71   3.432   8.920   9.339 -0.1941 -0.9287  0.7086
  742MOL0     C   72   3.582   8.960   9.372  0.5855 -0.0081 -0.4952
  742MOL0     C   73   3.650   9.005   9.238 -0.0071  0.1238 -0.0222
  742MOL0     C   74   3.794   9.035   9.260 -0.8623 -0.7931 -0.1463
  742MOL0     C   75   3.879   9.089   9.145  0.8610 -0.2986  0.2242
  742MOL0     C   76   4.015   9.139   9.183 -0.3269  0.7129 -0.6430
  742MOL0     C   77   4.096   9.168   9.060 -0.6783  0.1712  0.7879
  742MOL0     C   78   4.214   9.266   9.067  0.1395  0.1874  0.1431
  742MOL0    Cl   79   4.273   9.294   8.901  0.4471 -0.4850  0.0999
  742MOL0     C   80   3.133   9.117   9.251  0.3375  0.9422 -0.7974
  742MOL0     C   81   2.995   9.096   9.238 -0.5519  0.1159  0.3946
  742MOL0     O   82   2.733   9.008   9.411  0.1814  0.0822 -0.3680
  742MOL0     C   83   2.479   8.944   9.373 -0.7820 -0.1434  0.2712
  742MOL0     C   84   2.349   8.903   9.346 -0.2651 -0.2976 -0.5814
  742MOL0     N   85   1.643   8.874   9.210  0.7208  0.1514 -0.1336
  742MOL0     N   86   1.515   8.900   9.215  0.1619 -0.6197  0.6107
  742MOL0     C   87   0.474   8.464   8.511 -0.6957  0.3770  0.0240
  742MOL0     C   88   0.387   8.379   8.440  0.5252  0.2789 -0.2150
  742MOL0     C   89   0.069   8.174   8.219  0.7076  0.5005 -0.0835
  742MOL0     C   90  -0.043   8.163   8.308 -0.1684  0.4302 -0.3711
  742MOL0     C   91  -0.145   8.074   8.285  0.0494 -0.2860 -0.1453
  742MOL0     C   92  -0.153   8.008   8.157 -0.0318  0.3564 -0.7211
  742MOL0     O   93  -0.256   7.923   8.113  0.3886  0.4113  0.3087
  742MOL0     C   94  -0.359   7.872   8.207  0.2426 -0.2076  0.2980
  742MOL0     C   95  -0.461   7.978   8.229 -0.7144 -0.2879 -0.0143
  742MOL0     C   96  -0.559   7.941   8.340  0.7954 -0.7635  0.7952
  742MOL0     C   97  -0.680   8.037   8.331  0.4942 -0.3298 -0.1198
  742MOL0     C   98  -0.787   7.997   8.424 -0.0140  0.2620 -0.5704
  742MOL0     C   99  -0.881   7.975   8.501 -0.8133  0.7874 -0.2986
  742MOL0     C  100  -0.061   8.033   8.063  0.6583 -0.5218 -0.0682
  742MOL0     C  101   0.055   8.110   8.092 -0.7278 -0.3614 -0.9500
  742MOL0     C  102   0.147   8.137   7.971 -0.8158  0.3354 -0.9363
  742MOL0     H  103   0.102   8.564   8.487 -0.6720  1.1460  1.3112
  742MOL0     H  104   0.250   8.708   8.578 -0.1576  1.3979 -5.0334
  742MOL0     H  105   0.674   8.558   8.647 -1.0492 -1.1561 -1.7600
  742MOL0     H  106   0.693   8.661   8.503  2.2816  2.5032  0.9243
  742MOL0     H  107   0.663   8.754   8.790 -0.2388  2.1075  0.8183
  742MOL0     H  108   0.703   8.863   8.668 -1.0846  0.3753 -0.9601
  742MOL0     H  109   0.919   8.763   8.633  1.7047 -0.1091  1.1390
  742MOL0     H  110   0.868   8.622   8.730  0.6019 -0.3324 -2.6543
  742MOL0     H  111   0.884   8.905   8.840  0.1519  0.9233  2.0105
  742MOL0     H  112   0.857   8.749   8.928 -0.8112 -2.9156 -2.5376
  742MOL0     H  113   1.095   8.679   8.832  2.4839  0.8826 -0.1705
  742MOL0     H  114   1.119   8.847   8.797  0.2074 -0.5267 -1.9998
  742MOL0     H  115   1.105   8.910   9.033  0.9216  0.2952 -0.6053
  742MOL0     H  116   1.051   8.747   9.074 -0.5828 -2.2147 -0.6663
  742MOL0     H  117   1.311   8.851   8.970 -4.2012  0.7774 -2.8299
  742MOL0     H  118   1.285   8.674   8.984 -1.4699  0.6991 -1.1671
  742MOL0     H  119   1.260   8.878   9.201 -1.2451 -0.0116  0.3952
  742MOL0     H  120   1.266   8.693   9.224 -0.7415 -0.3269 -2.0721
  742MOL0     H  121   1.507   8.569   9.153  1.0983 -1.2155 -1.1103
  742MOL0     H  122   1.802   8.646   9.304 -1.7006 -0.2403  0.0962
  742MOL0     H  123   1.788   8.556   9.149 -1.2882 -0.0904 -0.1388
  742MOL0     H  124   1.880   8.753   9.032 -0.0781  3.4814  1.1000
  742MOL0     H  125   1.918   8.831   9.187  3.7813  1.0110 -1.4397
  742MOL0     H  126   2.028   8.570   9.080  0.3004  1.5548 -2.4105
  742MOL0     H  127   2.046   8.629   9.252  1.1459  3.1036  0.3357
  742MOL0     H  128   2.116   8.799   9.017  0.7645 -1.8539 -0.5394
  742MOL0     H  129   2.224   8.676   9.078 -0.6682 -0.4741 -0.1999
  742MOL0     H  130   2.372   8.826   9.025 -1.2692 -1.2519  0.9246
  742MOL0     H  131   2.609   8.905   9.071 -0.6806  1.0463 -0.2722
  742MOL0     H  132   2.992   8.757   9.218 -0.5399 -0.9016  2.8651
  742MOL0     H  133   3.238   8.792   9.248  0.0957  0.6785 -0.0041
  742MOL0     H  134   3.377   8.915   9.434 -1.2556  3.2112  0.4750
  742MOL0     H  135   3.430   8.825   9.284 -0.4968  0.4071 -1.7220
  742MOL0     H  136   3.575   9.046   9.439 -0.6733 -0.1855 -0.3757
  742MOL0     H  137   3.637   8.879   9.420 -0.2543 -0.8443 -0.9266
  742MOL0     H  138   3.641   8.910   9.184  1.3429  0.3724 -0.7298
  742MOL0     H  139   3.593   9.075   9.177  0.2411  0.2423 -0.1186
  742MOL0     H  140   3.844   8.943   9.292  3.1692  1.6022  1.2375
  742MOL0     H  141   3.811   9.092   9.352  0.9268 -1.7178  0.1399
  742MOL0     H  142   3.828   9.160   9.080  1.9126 -1.8205 -2.4339
  742MOL0     H  143   3.881   9.007   9.072 -2.6278  2.2887 -3.1811
  742MOL0     H  144   4.005   9.233   9.237  3.4933 -0.2354  2.0886
  742MOL0     H  145   4.073   9.066   9.240  1.8462  0.3717 -3.0874
  742MOL0     H  146   4.022   9.199   8.986  0.7697 -0.1616 -0.8768
  742MOL0     H  147   4.140   9.078   9.014  2.4227  2.3866 -0.9688
  742MOL0     H  148   4.173   9.364   9.093 -0.3030  0.0843 -0.1530
  742MOL0     H  149   4.294   9.243   9.138  0.7912 -2.2344 -1.2496
  742MOL0     H  150   3.159   9.221   9.266 -2.1136  1.6040 -0.6165
  742MOL0     H  151   2.930   9.183   9.242  1.9474  2.1204 -0.1498
  742MOL0     H  152   2.509   8.987   9.468 -1.5304  2.0729 -0.4222
  742MOL0     H  153   2.275   8.898   9.425  0.3618  0.4480  0.0611
  742MOL0     H  154   0.579   8.435   8.513 -1.0119 -0.8363  2.4498
  742MOL0     H  155   0.429   8.304   8.374 -3.1484 -2.0775 -0.1484
  742MOL0     H  156  -0.043   8.213   8.404 -0.4447  2.0635 -1.1957
  742MOL0     H  157  -0.225   8.066   8.358 -0.6024 -0.0479 -0.8160
  742MOL0     H  158  -0.299   7.847   8.295 -0.1536  0.3578  0.7361
  742MOL0     H  159  -0.402   7.784   8.159  2.5097 -1.6993  0.8228
  742MOL0     H  160  -0.520   7.988   8.137  0.5726  0.2968 -0.8075
  742MOL0     H  161  -0.417   8.076   8.248 -3.1507  0.8454  0.2880
  742MOL0     H  162  -0.519   7.962   8.439  1.7539  0.8490  0.1100
  742MOL0     H  163  -0.586   7.835   8.332  3.3842 -1.6063  2.2194
  742MOL0     H  164  -0.650   8.139   8.355 -3.4569  0.5672  1.7508
  742MOL0     H  165  -0.729   8.029   8.234 -1.0665 -0.3016  0.6327
  742MOL0     H  166  -0.949   7.917   8.560 -0.7935 -1.2859 -2.1816
  742MOL0     H  167  -0.084   7.995   7.964  2.1928  3.9239 -2.3818
  742MOL0     H  168   0.124   8.082   7.880  0.1091 -0.7563 -0.5296
  742MOL0     H  169   0.137   8.242   7.939  0.4205  1.0086  0.7345
  742MOL0     H  170   0.248   8.110   8.005 -1.0759  1.3168  0.7281
  743MOL0     O  171   6.048   6.153   2.061  1.3195 -0.3865 -0.4410
  743MOL0     C  172   5.989   6.117   2.169 -0.0265  0.1021  0.2941
  743MOL0     O  173   6.040   6.066   2.274 -1.1810  0.3234 -0.6562
  743MOL0     C  174   6.180   6.051   2.288 -0.5413 -0.0801 -0.4353
  743MOL0     C  175   6.288   6.120   2.236  0.2373  0.4097 -0.5192
  743MOL0     C  176   6.422   6.091   2.267 -0.3428 -0.3153 -0.9603
  743MOL0     C  177   6.455   5.980   2.344 -0.3635 -0.1046 -0.1338
  743MOL0     O  178   6.590   5.960   2.384 -0.5446 -0.2922 -0.3041
  743MOL0     C  179   6.637   5.824   2.390  0.0221  0.6550 -0.4113
  743MOL0     C  180   6.618   5.760   2.255 -0.2090  0.5359  0.1554
  743MOL0     C  181   6.682   5.840   2.139 -0.2291 -0.8836 -0.3076
  743MOL0     C  182   6.667   5.767   2.012 -1.3676 -0.2829  0.8661
  743MOL0     C  183   6.771   5.808   1.910 -0.0450  0.0682 -0.3089
  743MOL0     C  184   6.753   5.716   1.788  0.3404 -0.0760 -0.7849
  743MOL0     C  185   6.844   5.751   1.664  0.2298  0.1015 -0.0356
  743MOL0     C  186   6.832   5.660   1.542 -0.0861  0.2365 -0.0702
  743MOL0     N  187   6.691   5.651   1.497  0.4046 -0.0213  0.1321
  743MOL0     C  188   6.633   5.743   1.414  0.9927 -0.1195 -0.1692
  743MOL0     C  189   6.502   5.711   1.422 -0.8889  0.0313 -0.2939
  743MOL0     C  190   6.404   5.800   1.362  0.2614 -0.4521  0.7039
  743MOL0     C  191   6.258   5.773   1.391  0.0013 -0.2797 -0.4196
  743MOL0     C  192   6.164   5.870   1.315 -0.3967  0.3384 -0.1074
  743MOL0     C  193   6.160   6.013   1.383  0.0052 -0.2193  0.3396
  743MOL0     O  194   6.112   6.009   1.524 -0.3312  0.3347 -0.4556
  743MOL0     C  195   5.980   6.025   1.552 -0.4349  0.5942 -0.1453
  743MOL0     C  196   5.943   6.060   1.684  0.2911 -0.4676  0.6925
  743MOL0     C  197   5.813   6.084   1.719 -0.6091  0.8711  0.0997
  743MOL0     C  198   5.709   6.063   1.620  0.5042  0.0159 -0.4541
  743MOL0     C  199   5.565   6.091   1.653 -0.0937 -0.3454  0.6772
  743MOL0     O  200   5.487   6.029   1.566 -0.2880 -0.4628  0.1695
  743MOL0     C  201   5.356   6.042   1.588  0.1795 -0.3310 -0.5849
  743MOL0     C  202   5.288   5.936   1.655 -0.0645  0.5362  1.0555
  743MOL0     C  203   5.147   5.926   1.657 -0.4590 -0.4979  0.3324
  743MOL0     C  204   5.080   6.030   1.597  0.1089 -0.0794 -1.4907
  743MOL0     O  205   4.943   6.021   1.592 -0.0426  0.3838  0.3770
  743MOL0     C  206   4.867   5.929   1.677  1.2402 -0.1438  0.3006
  743MOL0     C  207   4.714   5.953   1.666  0.0817  0.1910 -0.0553
  743MOL0     C  208   4.661   5.906   1.523 -0.4851 -0.1526  0.2043
  743MOL0     C  209   4.511   5.930   1.518  1.1022  0.4093 -0.8686
  743MOL0     C  210   4.424   5.851   1.417  0.6214 -0.3274  0.7319
  743MOL0     C  211   4.454   5.905   1.279  0.5262  0.4183 -0.8665
  743MOL0     C  212   4.366   5.833   1.181 -0.0546  0.6675 -0.4269
  743MOL0     C  213   4.378   5.877   1.035 -1.0136 -0.4852  0.1034
  743MOL0    Cl  214   4.542   5.838   0.964 -0.6421  0.2091  0.0531
  743MOL0     C  215   5.145   6.137   1.535 -0.6317 -0.4244 -0.0303
  743MOL0     C  216   5.282   6.139   1.525  0.2572  0.5461 -0.2157
  743MOL0     O  217   5.530   6.148   1.756  0.0532 -0.0905 -0.4167
  743MOL0     C  218   5.742   6.015   1.499  0.8870 -0.3116  1.2012
  743MOL0     C  219   5.874   5.992   1.459  0.0902  0.6294 -0.3140
  743MOL0     N  220   6.483   5.593   1.491  0.0718  0.0783  0.1778
  743MOL0     N  221   6.600   5.554   1.529 -0.6347  0.6454 -0.0916
  743MOL0     C  222   6.347   5.899   2.388 -1.2522  0.0521 -0.3876
  743MOL0     C  223   6.213   5.935   2.361 -0.0070 -0.7303 -0.4161
  743MOL0     C  224   5.843   6.133   2.180  0.4773  0.5902  0.3653
  743MOL0     C  225   5.766   6.014   2.224 -0.0678  0.1047 -0.6103
  743MOL0     C  226   5.632   5.999   2.210 -0.6668 -0.5967  0.6827
  743MOL0     C  227   5.557   6.106   2.175  0.5990  0.3874  0.2057
  743MOL0     O  228   5.420   6.085   2.169 -1.1231  1.3605  0.3700
  743MOL0     C  229   5.325   6.196   2.185 -0.6678  0.2702 -0.3937
  743MOL0     C  230   5.193   6.131   2.195 -0.3512 -0.0228  1.3382
  743MOL0     C  231   5.089   6.242   2.189  0.1930 -0.3080  0.0737
  743MOL0     C  232   4.946   6.198   2.190 -0.4214 -1.0630 -0.1158
  743MOL0     C  233   4.915   6.118   2.309 -0.2841 -0.1111 -1.0031
  743MOL0     C  234   4.885   6.051   2.405  0.3121 -0.4540 -0.0255
  743MOL0     C  235   5.616   6.228   2.143 -0.8922  0.5773 -0.3148
  743MOL0     C  236   5.760   6.240   2.146  0.3084 -0.5527 -0.1557
  743MOL0     C  237   5.817   6.383   2.115 -0.3181  0.0484 -0.2133
  743MOL0     H  238   6.281   6.210   2.175  1.0839  1.9624  1.5607
  743MOL0     H  239   6.505   6.152   2.233 -0.9862  0.6609 -0.8408
  743MOL0     H  240   6.740   5.817   2.427 -0.2802 -1.7103  0.1452
  743MOL0     H  241   6.582   5.763   2.463  0.9331  0.7627  0.3938
  743MOL0     H  242   6.513   5.742   2.232 -0.1619 -0.8853  0.9233
  743MOL0     H  243   6.671   5.664   2.258  0.2144  0.7670  2.8204
  743MOL0     H  244   6.787   5.862   2.160  0.0005 -1.5678 -0.7074
  743MOL0     H  245   6.641   5.937   2.112  0.9893 -0.8169 -2.0634
  743MOL0     H  246   6.678   5.660   2.027 -2.3198 -0.4249  0.6380
  743MOL0     H  247   6.566   5.776   1.969 -2.8125  2.0880  4.3119
  743MOL0     H  248   6.759   5.913   1.881  0.4171  0.3499  0.4924
  743MOL0     H  249   6.871   5.796   1.952  1.1034  3.1712 -1.8299
  743MOL0     H  250   6.773   5.614   1.821 -0.9512  0.3346  1.4953
  743MOL0     H  251   6.650   5.718   1.750 -0.2720  0.1180  0.8115
  743MOL0     H  252   6.947   5.740   1.699  0.5380 -0.4912 -1.1063
  743MOL0     H  253   6.812   5.853   1.642 -1.9676 -0.3280  0.8922
  743MOL0     H  254   6.889   5.690   1.453 -0.4464 -2.7655 -1.4447
  743MOL0     H  255   6.871   5.561   1.566 -1.4246 -0.5093 -0.8882
  743MOL0     H  256   6.685   5.829   1.373 -0.4678 -0.4626 -2.9890
  743MOL0     H  257   6.422   5.903   1.392  1.7596 -0.1434 -1.0162
  743MOL0     H  258   6.426   5.802   1.255  3.3387 -0.0553  1.2311
  743MOL0     H  259   6.234   5.669   1.366  1.1256 -0.8630  0.8127
  743MOL0     H  260   6.228   5.781   1.496 -0.2505 -0.8334 -0.4426
  743MOL0     H  261   6.061   5.832   1.323 -0.0813 -0.9764 -1.8440
  743MOL0     H  262   6.192   5.865   1.210  1.4146  0.3805  0.3505
  743MOL0     H  263   6.100   6.083   1.324 -0.7748 -0.1473  1.1973
  743MOL0     H  264   6.260   6.057   1.382  0.7819 -1.8855 -0.4733
  743MOL0     H  265   6.022   6.091   1.752 -0.4399 -1.0179  1.8345
  743MOL0     H  266   5.792   6.113   1.821  0.3591 -1.8233  1.1312
  743MOL0     H  267   5.349   5.850   1.683  2.6040  2.3428  1.1686
  743MOL0     H  268   5.095   5.840   1.698 -2.1128 -1.0566 -2.6470
  743MOL0     H  269   4.883   5.826   1.643  1.6726 -0.6225  1.8468
  743MOL0     H  270   4.900   5.941   1.781 -0.8765  0.7587  0.9270
  743MOL0     H  271   4.662   5.895   1.743  1.8112  0.8738  1.7045
  743MOL0     H  272   4.697   6.060   1.682  1.9889  0.4455  0.4581
  743MOL0     H  273   4.712   5.967   1.448 -1.5734  1.9882  1.1176
  743MOL0     H  274   4.691   5.803   1.503  0.5205  0.5003 -1.9258
  743MOL0     H  275   4.491   6.036   1.502 -1.1256 -0.2773 -3.5228
  743MOL0     H  276   4.469   5.913   1.617  1.7705  1.5313 -0.3767
  743MOL0     H  277   4.317   5.857   1.435  0.6128  1.2102  0.2653
  743MOL0     H  278   4.463   5.748   1.417 -0.6147 -0.8900 -1.8132
  743MOL0     H  279   4.435   6.012   1.273  0.5217  0.4858  0.2200
  743MOL0     H  280   4.562   5.888   1.266  0.6960  0.5657  0.2590
  743MOL0     H  281   4.263   5.851   1.213 -0.3294  0.9489 -1.4296
  743MOL0     H  282   4.375   5.724   1.191  1.0065  0.8635  1.0851
  743MOL0     H  283   4.301   5.827   0.975 -2.1706 -0.8488  1.7991
  743MOL0     H  284   4.364   5.985   1.029 -3.2845 -0.4573  3.0940
  743MOL0     H  285   5.092   6.216   1.482  1.2800  1.3360  0.5782
  743MOL0     H  286   5.328   6.222   1.472 -0.2324  0.1451 -1.3069
  743MOL0     H  287   5.676   5.999   1.414  3.0420 -0.3305 -0.5575
  743MOL0     H  288   5.890   5.957   1.357  0.5793  0.5569 -0.2139
  743MOL0     H  289   6.365   5.815   2.454 -3.0840  1.8353  2.6228
  743MOL0     H  290   6.128   5.889   2.410  0.6511 -3.3575 -1.6237
  743MOL0     H  291   5.803   5.916   2.253 -0.5238  0.5003  1.4539
  743MOL0     H  292   5.578   5.908   2.235 -0.1814 -2.0026 -2.8169
  743MOL0     H  293   5.341   6.267   2.103 -0.3567  0.3490 -0.2638
  743MOL0     H  294   5.336   6.256   2.276 -0.6728  1.3803 -1.1095
  743MOL0     H  295   5.192   6.070   2.286  0.0870 -0.8414  0.8018
  743MOL0     H  296   5.174   6.074   2.104  0.5865  2.5520 -0.5860
  743MOL0     H  297   5.094   6.290   2.091 -1.3077 -1.6344 -0.7067
  743MOL0     H  298   5.101   6.316   2.269  3.1829  2.5308 -2.7023
  743MOL0     H  299   4.878   6.284   2.180 -0.4447 -0.7061  2.4421
  743MOL0     H  300   4.936   6.135   2.102  1.0945  0.1496 -1.2021
  743MOL0     H  301   4.851   5.992   2.488  0.5446  0.5559  0.8006
  743MOL0     H  302   5.546   6.310   2.130 -2.2568 -0.6685 -1.1326
  743MOL0     H  303   5.876   6.374   2.024  0.3932  1.6277  0.0573
  743MOL0     H  304   5.739   6.460   2.104 -0.8804 -0.8751 -4.2539
  743MOL0     H  305   5.884   6.411   2.197 -1.6045 -0.9426  1.2298
  744MOL0     O  306   8.355   1.242   9.532 -0.1481 -0.2443 -0.0848
  744MOL0     C  307   8.326   1.150   9.457 -0.3175  1.1531 -0.3155
  744MOL0     O  308   8.364   1.129   9.329 -0.1875 -0.1957 -0.0201
  744MOL0     C  309   8.456   1.213   9.284 -0.5786  0.0882 -0.9898
  744MOL0     C  310   8.424   1.334   9.226 -0.2556  0.3853  0.6043
  744MOL0     C  311   8.520   1.432   9.189  0.5424 -1.0941 -1.0081
  744MOL0     C  312   8.652   1.406   9.208  0.3061  0.4678 -0.4115
  744MOL0     O  313   8.762   1.491   9.189  0.3912 -0.1568  0.1380
  744MOL0     C  314   8.750   1.628   9.177 -0.1958 -0.0166  0.8328
  744MOL0     C  315   8.886   1.683   9.127  1.0604  0.1959  1.2012
  744MOL0     C  316   8.892   1.652   8.975  0.1202  0.8705  0.5146
  744MOL0     C  317   8.832   1.762   8.893  0.3880 -0.9178 -0.0876
  744MOL0     C  318   8.840   1.735   8.746 -0.3192 -0.7459 -0.0712
  744MOL0     C  319   8.982   1.726   8.693 -0.9010 -0.5327  0.0752
  744MOL0     C  320   8.989   1.715   8.536 -0.2595 -0.3766 -0.1608
  744MOL0     C  321   9.137   1.721   8.493  0.0056  0.0420 -0.4236
  744MOL0     N  322   9.197   1.849   8.537  0.5677 -0.3174  0.0231
  744MOL0     C  323   9.158   1.980   8.523  0.5979 -0.0237 -0.6539
  744MOL0     C  324   9.250   2.064   8.582 -0.1058  1.2588 -0.1329
  744MOL0     C  325   9.237   2.205   8.605  0.1864 -1.3223  0.9826
  744MOL0     C  326   9.295   2.278   8.482  0.4672  0.4147 -0.4758
  744MOL0     C  327   9.444   2.300   8.489  0.5658  0.1018 -0.0524
  744MOL0     C  328   9.504   2.357   8.617  0.6067  0.5820 -0.2501
  744MOL0     O  329   9.625   2.429   8.586  0.2955 -0.1247  0.3568
  744MOL0     C  330   9.674   2.514   8.685 -0.0402  0.2097 -0.1482
  744MOL0     C  331   9.648   2.500   8.817  0.3382  0.4056 -0.4358
  744MOL0     C  332   9.715   2.580   8.908  1.0955 -0.7900 -0.2232
  744MOL0     C  333   9.802   2.681   8.870 -0.3375  0.0887 -0.3647
  744MOL0     C  334   9.890   2.753   8.966  0.7621  0.9492  0.0695
  744MOL0     O  335   9.906   2.699   9.091  0.5559 -0.0446  0.0102
  744MOL0     C  336  10.012   2.733   9.173 -0.0167  0.4336  0.2803
  744MOL0     C  337  10.137   2.774   9.134 -0.8112 -0.1269 -0.7557
  744MOL0     C  338  10.234   2.797   9.234  0.3352  0.0533 -0.3062
  744MOL0     C  339  10.208   2.787   9.375 -0.4232 -0.0505 -0.0083
  744MOL0     O  340  10.298   2.815   9.479  0.1534 -0.7290  0.0903
  744MOL0     C  341  10.413   2.896   9.451 -1.2467 -0.2668  0.6274
  744MOL0     C  342  10.526   2.812   9.400 -0.2169  0.2991 -0.4532
  744MOL0     C  343  10.648   2.898   9.346  0.0671 -0.4276  0.7601
  744MOL0     C  344  10.615   2.994   9.229 -0.3445  0.7174  0.1354
  744MOL0     C  345  10.746   3.067   9.181  0.4313 -0.1814 -0.1863
  744MOL0     C  346  10.851   2.983   9.098  0.3903 -0.0829 -0.5083
  744MOL0     C  347  10.961   3.070   9.057 -0.7390  0.3816 -0.2980
  744MOL0     C  348  11.023   2.986   8.941  0.1138  1.3805  0.4968
  744MOL0    Cl  349  11.196   3.031   8.918  0.2910  0.1075  0.3323
  744MOL0     C  350  10.085   2.741   9.416  0.9019  0.0400  0.0214
  744MOL0     C  351   9.991   2.708   9.316 -0.1664 -0.1667  0.4706
  744MOL0     O  352   9.950   2.859   8.928 -0.1860 -1.0195 -0.2427
  744MOL0     C  353   9.817   2.700   8.734 -0.3986 -0.1244  0.6510
  744MOL0     C  354   9.758   2.616   8.639 -0.3127 -0.5721 -0.2293
  744MOL0     N  355   9.338   1.976   8.638 -0.5185 -0.1611 -0.2376
  744MOL0     N  356   9.306   1.853   8.615  0.3567 -0.1791  0.1379
  744MOL0     C  357   8.685   1.287   9.264 -0.2004 -0.9138 -0.1917
  744MOL0     C  358   8.598   1.185   9.301  0.9518 -0.2045  0.4100
  744MOL0     C  359   8.211   1.060   9.505  0.5504 -0.9347  1.1608
  744MOL0     C  360   8.101   1.064   9.414 -0.2476 -0.4471 -1.2191
  744MOL0     C  361   7.975   1.018   9.461 -0.1803  0.6805 -0.3998
  744MOL0     C  362   7.968   0.942   9.580  0.2871 -0.2310  0.2752
  744MOL0     O  363   7.842   0.888   9.626 -0.2020 -0.4858  1.0867
  744MOL0     C  364   7.715   0.942   9.582 -0.5954  0.3260  0.1838
  744MOL0     C  365   7.700   1.072   9.661  0.0574 -0.2141 -0.3149
  744MOL0     C  366   7.561   1.129   9.635  0.1299  0.0742 -0.6848
  744MOL0     C  367   7.550   1.257   9.716  0.8853  0.0321 -0.0451
  744MOL0     C  368   7.412   1.311   9.705  0.5699 -0.3911  0.2125
  744MOL0     C  369   7.298   1.359   9.689 -0.3663 -0.3864 -0.5325
  744MOL0     C  370   8.080   0.922   9.656  0.2954  0.0366  0.5575
  744MOL0     C  371   8.197   0.990   9.623 -0.5406 -1.6973 -0.1617
  744MOL0     C  372   8.319   0.975   9.712  0.3642  0.0964 -0.6085
  744MOL0     H  373   8.319   1.349   9.202 -0.1103 -0.1049 -0.3885
  744MOL0     H  374   8.496   1.529   9.147 -0.0713  0.9986  3.5014
  744MOL0     H  375   8.666   1.665   9.119 -1.0230  0.5656  2.3406
  744MOL0     H  376   8.744   1.672   9.277 -2.5342 -1.4735  1.4214
  744MOL0     H  377   8.964   1.625   9.178 -0.6621 -2.8554  0.6351
  744MOL0     H  378   8.898   1.788   9.156  2.9390  0.0060  1.2424
  744MOL0     H  379   8.834   1.560   8.966 -1.1099  1.4727  1.9236
  744MOL0     H  380   8.995   1.626   8.949 -0.5464 -0.3092 -1.0448
  744MOL0     H  381   8.727   1.767   8.921 -0.1103 -0.9673 -1.8231
  744MOL0     H  382   8.877   1.859   8.915 -2.0352 -0.1425  1.8455
  744MOL0     H  383   8.786   1.647   8.709  0.7565 -0.9112 -1.3385
  744MOL0     H  384   8.794   1.816   8.689  2.6369  1.4713  0.4114
  744MOL0     H  385   9.036   1.813   8.731 -2.9223 -0.2425  2.5412
  744MOL0     H  386   9.026   1.632   8.726  0.0902 -0.7098 -1.6282
  744MOL0     H  387   8.949   1.806   8.491  2.6774  0.9388 -0.3003
  744MOL0     H  388   8.940   1.624   8.498 -2.7886 -0.7625  3.5192
  744MOL0     H  389   9.186   1.629   8.528 -2.1296 -1.7453 -1.8580
  744MOL0     H  390   9.145   1.705   8.385 -0.8662  0.1363 -0.5057
  744MOL0     H  391   9.059   2.013   8.494 -0.5544 -0.0664  2.7931
  744MOL0     H  392   9.134   2.240   8.617  1.3641  2.7092  0.8026
  744MOL0     H  393   9.292   2.234   8.695  1.8388  0.3398 -0.4834
  744MOL0     H  394   9.270   2.225   8.390 -1.2143 -0.6203  0.5238
  744MOL0     H  395   9.241   2.373   8.480  0.8558  0.6728  0.7209
  744MOL0     H  396   9.467   2.377   8.414  1.5658 -0.0883  0.0380
  744MOL0     H  397   9.488   2.208   8.450 -1.5109 -0.6602 -0.7100
  744MOL0     H  398   9.511   2.277   8.691  0.9104  0.7726 -0.0698
  744MOL0     H  399   9.425   2.422   8.654 -0.0770  1.1166 -2.4521
  744MOL0     H  400   9.582   2.421   8.851 -2.7363  2.4707 -1.0754
  744MOL0     H  401   9.697   2.553   9.011 -1.0931 -0.3933 -0.4384
  744MOL0     H  402  10.153   2.785   9.028 -1.9520 -0.6046 -1.0010
  744MOL0     H  403  10.329   2.829   9.194 -0.0306  0.0001 -1.2333
  744MOL0     H  404  10.393   2.974   9.378 -1.3672  0.1759  1.1296
  744MOL0     H  405  10.450   2.946   9.541 -0.2283  0.2637 -0.0705
  744MOL0     H  406  10.558   2.743   9.479  1.2036  1.5715  0.1452
  744MOL0     H  407  10.497   2.751   9.314  2.2211  0.3688 -1.4009
  744MOL0     H  408  10.685   2.960   9.429  2.3308 -0.5192 -0.1103
  744MOL0     H  409  10.735   2.841   9.312  1.4314 -0.6933  4.3070
  744MOL0     H  410  10.536   3.067   9.249 -1.5785  0.0988 -2.1950
  744MOL0     H  411  10.587   2.934   9.142 -0.8186 -0.3576  1.0098
  744MOL0     H  412  10.800   3.112   9.264 -0.2184 -0.5704  0.4577
  744MOL0     H  413  10.710   3.148   9.117  0.7289  1.9164  2.1482
  744MOL0     H  414  10.881   2.896   9.157 -4.2688 -0.6661  1.4375
  744MOL0     H  415  10.804   2.943   9.008  1.7766 -0.7946 -0.9412
  744MOL0     H  416  11.038   3.084   9.133  0.8153 -1.6869 -1.3779
  744MOL0     H  417  10.919   3.167   9.030  0.9599  0.7835 -1.7228
  744MOL0     H  418  11.027   2.879   8.962  2.8055  1.3799  0.4038
  744MOL0     H  419  10.966   3.005   8.850  0.0150 -0.5241  0.1114
  744MOL0     H  420  10.068   2.744   9.523  1.4516  0.9873  0.0988
  744MOL0     H  421   9.892   2.678   9.350  0.3655 -1.2843  1.0868
  744MOL0     H  422   9.888   2.772   8.694  0.9037 -1.8747 -0.3102
  744MOL0     H  423   9.775   2.625   8.532  2.3059 -3.6590 -0.2249
  744MOL0     H  424   8.791   1.277   9.284 -0.2731  1.9343  2.3775
  744MOL0     H  425   8.622   1.084   9.333 -1.0604 -1.0791 -0.6305
  744MOL0     H  426   8.097   1.127   9.325  2.4405  0.3304 -0.8976
  744MOL0     H  427   7.887   1.032   9.400 -1.0635  1.8210  1.0809
  744MOL0     H  428   7.640   0.874   9.624 -2.8583  3.3292  1.3730
  744MOL0     H  429   7.698   0.945   9.474 -1.2155 -3.5693  0.0495
  744MOL0     H  430   7.772   1.144   9.620  1.3313 -0.4216  1.4549
  744MOL0     H  431   7.719   1.059   9.768 -1.2462 -2.4169 -0.3033
  744MOL0     H  432   7.493   1.052   9.673  2.5998 -1.7790  0.2655
  744MOL0     H  433   7.555   1.144   9.527  3.2062  0.5611 -0.8598
  744MOL0     H  434   7.552   1.231   9.822 -1.7541  2.9398  0.8824
  744MOL0     H  435   7.623   1.334   9.688  1.5310  0.1520  1.8187
  744MOL0     H  436   7.202   1.406   9.673 -0.2738  0.2755  0.6814
  744MOL0     H  437   8.083   0.863   9.747 -4.0995  0.9723  1.5535
  744MOL0     H  438   8.362   1.070   9.744 -1.2725  0.4592  0.6142
  744MOL0     H  439   8.282   0.913   9.794 -0.4297  0.2555 -0.8440
  744MOL0     H  440   8.390   0.913   9.656  2.3519 -0.3048  2.1663
  745MOL0     O  441   4.091  10.999   4.415 -0.0975  0.5633  0.4233
  745MOL0     C  442   4.136  11.007   4.532 -0.0526  0.6342  0.2243
  745MOL0     O  443   4.260  10.962   4.578  0.3751 -0.0196  0.5682
  745MOL0     C  444   4.327  10.901   4.480 -0.9067 -0.0301 -1.3729
  745MOL0     C  445   4.370  10.975   4.368 -0.2258  0.0482  0.3833
  745MOL0     C  446   4.440  10.910   4.263  0.1607  0.0772  0.7633
  745MOL0     C  447   4.470  10.770   4.275 -0.2738 -0.4271  0.9085
  745MOL0     O  448   4.535  10.701   4.178 -0.3915  0.4644 -0.7204
  745MOL0     C  449   4.473  10.684   4.047 -0.1329  0.4052  0.2354
  745MOL0     C  450   4.580  10.626   3.954 -0.1216 -0.2593 -0.8497
  745MOL0     C  451   4.710  10.698   3.968 -0.4902 -0.0501  0.0265
  745MOL0     C  452   4.813  10.638   3.868 -0.4148 -0.5382 -0.1708
  745MOL0     C  453   4.941  10.723   3.861 -0.5085  0.4729  0.3452
  745MOL0     C  454   4.984  10.770   3.997 -0.4543 -0.2369  0.4895
  745MOL0     C  455   5.114  10.864   3.992  0.3699 -0.1905 -0.5464
  745MOL0     C  456   5.163  10.885   4.133 -0.5849 -0.1888 -0.8496
  745MOL0     N  457   5.301  10.940   4.126 -0.0626 -0.7708  0.2588
  745MOL0     C  458   5.422  10.884   4.138 -0.6093  0.2873  0.2225
  745MOL0     C  459   5.513  10.975   4.128  0.5625 -0.1479  0.1136
  745MOL0     C  460   5.657  10.958   4.124 -0.2508  0.5343  0.9723
  745MOL0     C  461   5.707  10.912   3.990  0.1973 -0.7203 -0.3412
  745MOL0     C  462   5.846  10.972   3.965  0.6676  0.6855  0.4139
  745MOL0     C  463   5.953  10.875   4.020  0.3175  0.3845  0.0979
  745MOL0     O  464   6.085  10.935   4.010  0.2420  0.2152  1.1515
  745MOL0     C  465   6.161  10.908   3.897  0.2797  0.1695  0.4221
  745MOL0     C  466   6.123  10.831   3.781  0.3883 -0.1733 -0.2966
  745MOL0     C  467   6.208  10.813   3.675 -0.7479  0.0919  0.3761
  745MOL0     C  468   6.346  10.845   3.676  0.2686  0.7373 -0.6096
  745MOL0     C  469   6.437  10.799   3.570  0.3897  0.1625  0.1770
  745MOL0     O  470   6.569  10.818   3.587  0.0131 -0.0518 -0.0207
  745MOL0     C  471   6.651  10.763   3.493  0.5261  0.1098  1.1226
  745MOL0     C  472   6.672  10.825   3.366  0.5535 -0.6124  0.6943
  745MOL0     C  473   6.783  10.794   3.284  0.0168  0.4032 -0.2382
  745MOL0     C  474   6.862  10.686   3.321 -0.2590  0.0365  0.1831
  745MOL0     O  475   6.958  10.646   3.234 -0.6429  0.0638  1.0149
  745MOL0     C  476   7.099  10.633   3.285  0.2940 -0.5509 -0.4347
  745MOL0     C  477   7.201  10.683   3.180  0.8645  0.7896 -0.1099
  745MOL0     C  478   7.199  10.631   3.035  0.3219 -0.0181  0.0716
  745MOL0     C  479   7.232  10.480   3.023  0.2694 -0.1368  0.8126
  745MOL0     C  480   7.326  10.446   2.901  0.4204 -0.4993 -0.0073
  745MOL0     C  481   7.476  10.487   2.932  0.3319  0.1726 -0.1448
  745MOL0     C  482   7.543  10.413   3.056 -0.1851 -0.0209  0.3482
  745MOL0     C  483   7.689  10.430   3.058 -0.2000 -1.1022  0.1576
  745MOL0    Cl  484   7.749  10.337   2.912 -0.4798  0.0823  0.8303
  745MOL0     C  485   6.842  10.629   3.444  0.1668 -0.7874 -0.3664
  745MOL0     C  486   6.744  10.675   3.536 -1.2635 -0.7191  0.1461
  745MOL0     O  487   6.385  10.739   3.480  0.3036  0.1426 -0.1265
  745MOL0     C  488   6.385  10.925   3.786  0.0989 -0.0719 -0.0045
  745MOL0     C  489   6.293  10.959   3.896  0.2390  0.1916  1.1057
  745MOL0     N  490   5.454  11.100   4.128  0.0823  0.1745  0.2460
  745MOL0     N  491   5.327  11.077   4.116  0.1826  0.2653 -0.1086
  745MOL0     C  492   4.433  10.707   4.387  0.7965 -0.3934 -0.3414
  745MOL0     C  493   4.356  10.767   4.491 -0.2683  0.6161 -0.7202
  745MOL0     C  494   4.053  11.063   4.627  0.4632 -0.3600 -0.6358
  745MOL0     C  495   3.921  11.025   4.642 -0.3441  0.1122 -0.5562
  745MOL0     C  496   3.853  11.059   4.760 -0.3338  0.7282  0.1936
  745MOL0     C  497   3.893  11.153   4.848  0.1013  0.7166  0.8957
  745MOL0     O  498   3.800  11.185   4.942  0.6509  0.6306  0.5149
  745MOL0     C  499   3.862  11.235   5.063  0.3648  0.4629 -0.2846
  745MOL0     C  500   3.759  11.274   5.167 -0.2636  0.1449 -0.4177
  745MOL0     C  501   3.657  11.162   5.196 -0.1676  0.3071  0.4004
  745MOL0     C  502   3.538  11.224   5.273 -0.4520 -0.9076 -0.4499
  745MOL0     C  503   3.443  11.121   5.316  0.1735  0.0512 -0.5953
  745MOL0     C  504   3.371  11.039   5.360  0.1838 -0.2127 -0.4165
  745MOL0     C  505   4.018  11.203   4.825 -0.2605 -0.9576  0.1026
  745MOL0     C  506   4.102  11.163   4.722 -1.1855  0.3301 -0.4842
  745MOL0     C  507   4.244  11.217   4.707 -0.5891  0.4573  0.3651
  745MOL0     H  508   4.351  11.080   4.352  0.8089  0.3256  0.9265
  745MOL0     H  509   4.467  10.975   4.180  1.3863  0.3052  1.3166
  745MOL0     H  510   4.397  10.605   4.049 -0.6179  0.8590 -0.0326
  745MOL0     H  511   4.439  10.780   4.006  1.4226  1.3659  1.1051
  745MOL0     H  512   4.549  10.634   3.849  0.6189 -2.0260 -1.2221
  745MOL0     H  513   4.588  10.522   3.984 -0.8231  0.4863  2.2060
  745MOL0     H  514   4.754  10.688   4.068  0.6543  0.3766 -0.4172
  745MOL0     H  515   4.682  10.802   3.946 -0.0965 -0.0824 -0.6458
  745MOL0     H  516   4.839  10.537   3.900 -1.3774 -0.9152 -0.5477
  745MOL0     H  517   4.776  10.627   3.766  2.8749  0.5171 -1.6028
  745MOL0     H  518   5.014  10.647   3.831  0.2230  1.9328 -1.8102
  745MOL0     H  519   4.932  10.801   3.785 -2.8203 -0.3753 -0.3582
  745MOL0     H  520   4.909  10.819   4.059 -0.8734 -2.3889  1.7712
  745MOL0     H  521   5.006  10.685   4.062  1.5073  0.9499  1.4768
  745MOL0     H  522   5.083  10.965   3.966  1.0818  0.0108 -0.6362
  745MOL0     H  523   5.183  10.845   3.909  1.0652  2.1460 -0.5708
  745MOL0     H  524   5.100  10.950   4.194  0.3611  0.2486 -0.3077
  745MOL0     H  525   5.171  10.791   4.187  0.6844 -0.0617 -0.7676
  745MOL0     H  526   5.453  10.781   4.151  2.1523  1.2767  2.4787
  745MOL0     H  527   5.699  11.054   4.154 -0.2809  0.4471  1.2945
  745MOL0     H  528   5.684  10.892   4.207  0.0708 -2.6239 -1.4235
  745MOL0     H  529   5.706  10.803   3.982 -2.4402 -0.9413  1.6033
  745MOL0     H  530   5.644  10.937   3.904 -0.3813  0.5423  0.4290
  745MOL0     H  531   5.862  11.074   4.002 -1.7310  0.4817  2.2995
  745MOL0     H  532   5.859  10.972   3.856  1.0374  1.8608  0.4415
  745MOL0     H  533   5.935  10.777   3.975 -0.8353  0.4300  0.4248
  745MOL0     H  534   5.929  10.860   4.126 -0.7568 -0.4909 -0.2479
  745MOL0     H  535   6.025  10.784   3.776 -1.7615  3.8607 -0.5027
  745MOL0     H  536   6.177  10.745   3.596  2.6065 -1.1675 -0.0320
  745MOL0     H  537   6.607  10.908   3.341  1.5388  0.2656  0.9646
  745MOL0     H  538   6.792  10.831   3.182 -4.5078  0.1743 -0.9485
  745MOL0     H  539   7.107  10.698   3.372  1.6545 -2.6538  1.0987
  745MOL0     H  540   7.118  10.528   3.307  0.0377 -0.3782  0.6808
  745MOL0     H  541   7.200  10.791   3.167  3.2657  0.6847 -1.7570
  745MOL0     H  542   7.297  10.652   3.222  0.5121 -1.7794 -0.9979
  745MOL0     H  543   7.103  10.646   2.985 -0.0417 -1.2282  0.3541
  745MOL0     H  544   7.277  10.688   2.985  0.2005 -0.0362 -0.1362
  745MOL0     H  545   7.133  10.436   3.011  0.0003  0.2949  1.4067
  745MOL0     H  546   7.286  10.449   3.113  2.3468  1.8887  0.3732
  745MOL0     H  547   7.297  10.502   2.811  0.2900  0.5178  0.6533
  745MOL0     H  548   7.313  10.339   2.883 -1.6192  0.0451 -2.2544
  745MOL0     H  549   7.527  10.460   2.839  1.9674  0.7259  0.5681
  745MOL0     H  550   7.476  10.594   2.954  0.2973 -0.4238  3.2289
  745MOL0     H  551   7.518  10.307   3.059  2.3904 -0.6708  2.0784
  745MOL0     H  552   7.503  10.458   3.147  1.5986 -0.4945  1.4046
  745MOL0     H  553   7.706  10.537   3.045 -1.1797 -0.5110  3.1062
  745MOL0     H  554   7.725  10.391   3.153  1.3238 -0.2961 -0.0648
  745MOL0     H  555   6.904  10.545   3.477 -1.4728 -1.1152  2.1395
  745MOL0     H  556   6.737  10.636   3.637  0.9920  1.1766  1.1367
  745MOL0     H  557   6.484  10.969   3.799  0.1812 -0.7040  1.7180
  745MOL0     H  558   6.314  11.005   3.992 -1.1936  0.1738  1.4437
  745MOL0     H  559   4.443  10.599   4.392 -1.8273 -0.8246 -2.1874
  745MOL0     H  560   4.326  10.710   4.579  0.1871 -0.2549 -1.1189
  745MOL0     H  561   3.878  10.945   4.583 -0.0162  0.1872 -0.9031
  745MOL0     H  562   3.764  11.004   4.787 -0.1399  0.0957 -0.4587
  745MOL0     H  563   3.916  11.321   5.024  0.5297  0.8222  0.6996
  745MOL0     H  564   3.926  11.154   5.100 -1.8433 -0.9859  0.6266
  745MOL0     H  565   3.715  11.370   5.142 -1.2974 -0.1440  0.2365
  745MOL0     H  566   3.817  11.297   5.257  0.7212 -1.7411 -0.4970
  745MOL0     H  567   3.697  11.077   5.253 -0.4645 -1.5372 -1.9870
  745MOL0     H  568   3.621  11.121   5.102  1.9820  2.1085 -1.3178
  745MOL0     H  569   3.561  11.279   5.364 -2.1710  0.3565 -0.7335
  745MOL0     H  570   3.480  11.288   5.206 -0.1268  0.8221  0.8664
  745MOL0     H  571   3.307  10.965   5.404  2.7697 -1.4524  1.5474
  745MOL0     H  572   4.075  11.257   4.901  1.4560  0.2334 -1.9407
  745MOL0     H  573   4.310  11.134   4.732  0.6022  0.9468 -1.0770
  745MOL0     H  574   4.259  11.245   4.603 -1.4846 -1.0456 -0.2058
  745MOL0     H  575   4.267  11.299   4.776 -1.1559 -0.8487  2.2067
  746MOL0     O  576   4.947  11.251   0.793 -0.6347 -0.4732  0.0455
  746MOL0     C  577   4.896  11.140   0.806  0.2338 -0.1782 -0.2316
  746MOL0     O  578   4.941  11.023   0.750 -0.0219 -0.3130 -0.5550
  746MOL0     C  579   5.073  10.994   0.750  1.0297  0.4704 -0.6709
  746MOL0     C  580   5.118  10.934   0.634  0.1870  0.4514  0.0336
  746MOL0     C  581   5.255  10.896   0.623 -0.6138  0.3039 -0.6299
  746MOL0     C  582   5.349  10.920   0.727 -0.0297  0.6555 -0.5531
  746MOL0     O  583   5.478  10.883   0.694  0.3949  0.2313 -0.6010
  746MOL0     C  584   5.575  10.946   0.774 -0.0530 -0.3188 -0.7149
  746MOL0     C  585   5.718  10.907   0.733 -0.5735 -0.0289 -1.0018
  746MOL0     C  586   5.753  10.893   0.585  0.7713 -0.1026 -0.0339
  746MOL0     C  587   5.736  11.027   0.511  0.3670 -0.5977  1.0332
  746MOL0     C  588   5.770  11.016   0.360  1.4656  0.5025 -0.3367
  746MOL0     C  589   5.685  10.918   0.275 -0.7506 -0.1814 -0.4021
  746MOL0     C  590   5.535  10.941   0.280  0.3971  0.0711  1.0908
  746MOL0     C  591   5.464  10.862   0.178 -0.8568  0.4209 -0.1035
  746MOL0     N  592   5.327  10.844   0.210 -0.0061  0.0497  0.1138
  746MOL0     C  593   5.238  10.939   0.259 -0.5999 -0.3648 -1.3243
  746MOL0     C  594   5.121  10.880   0.260 -0.5488  0.0302 -0.5490
  746MOL0     C  595   4.996  10.958   0.302 -0.5897 -0.3977  0.7612
  746MOL0     C  596   4.947  11.030   0.173 -0.1863  0.1749  0.1762
  746MOL0     C  597   4.890  10.925   0.072  0.4804 -0.8565  0.1787
  746MOL0     C  598   4.741  10.906   0.084  0.3046 -0.5336 -0.6150
  746MOL0     O  599   4.671  11.028   0.045  0.7215  0.3620  0.4191
  746MOL0     C  600   4.547  11.057   0.072  0.7620  0.0666 -1.3295
  746MOL0     C  601   4.452  10.965   0.136 -0.4946  0.2277 -0.3837
  746MOL0     C  602   4.322  11.003   0.154  0.2977  0.2885 -0.3226
  746MOL0     C  603   4.276  11.132   0.117  0.7306  0.0424  0.3490
  746MOL0     C  604   4.129  11.168   0.124  0.3255 -0.8272 -0.1401
  746MOL0     O  605   4.028  11.069   0.137  1.0237  0.3188  0.0187
  746MOL0     C  606   3.894  11.117   0.152 -0.4242  0.2614 -0.5676
  746MOL0     C  607   3.818  11.140   0.033  0.3121  0.4328  0.5284
  746MOL0     C  608   3.688  11.186   0.041 -0.0988 -0.0874  0.3138
  746MOL0     C  609   3.632  11.228   0.164 -0.5316  0.6314  0.8115
  746MOL0     O  610   3.519  11.285   0.196  0.0473  0.4051 -0.4206
  746MOL0     C  611   3.412  11.284   0.098  0.7125  0.8772  0.9179
  746MOL0     C  612   3.296  11.382   0.138 -0.8000  0.0209  0.0050
  746MOL0     C  613   3.204  11.424   0.024 -0.0180 -0.1560 -0.7914
  746MOL0     C  614   3.092  11.324  -0.006  0.6017  0.3247  0.5589
  746MOL0     C  615   3.032  11.362  -0.139  0.2637 -0.0725  0.3243
  746MOL0     C  616   2.906  11.300  -0.169  0.5152  0.3516  0.8041
  746MOL0     C  617   2.784  11.341  -0.085 -0.6635 -0.2274  0.2242
  746MOL0     C  618   2.747  11.489  -0.086  0.3373  0.3845 -0.3818
  746MOL0    Cl  619   2.680  11.525  -0.248 -0.3284 -0.4790 -0.1012
  746MOL0     C  620   3.709  11.193   0.278  0.9463 -0.4477  0.1805
  746MOL0     C  621   3.839  11.148   0.274  0.5621 -0.4764  0.2886
  746MOL0     O  622   4.106  11.288   0.109  0.2668  0.1531 -0.2066
  746MOL0     C  623   4.366  11.220   0.063 -0.0396  0.0712  0.2714
  746MOL0     C  624   4.497  11.182   0.038 -0.6505 -0.6221 -0.1250
  746MOL0     N  625   5.133  10.754   0.212 -0.5518  0.1049 -0.6920
  746MOL0     N  626   5.256  10.730   0.182 -0.1550 -1.1448  0.0857
  746MOL0     C  627   5.297  10.971   0.847 -0.2279 -0.5629 -0.8845
  746MOL0     C  628   5.166  11.010   0.857  0.2890  0.7670  0.6054
  746MOL0     C  629   4.768  11.138   0.861  0.7551  1.3407 -1.0647
  746MOL0     C  630   4.679  11.246   0.850 -0.5359  0.6123  0.7475
  746MOL0     C  631   4.552  11.228   0.907  0.0545 -0.3124  0.3946
  746MOL0     C  632   4.507  11.113   0.967 -0.4749  0.1098 -0.0174
  746MOL0     O  633   4.377  11.113   1.012 -0.3169 -0.2635  0.0241
  746MOL0     C  634   4.292  11.024   0.940  0.5037 -0.1627 -0.2916
  746MOL0     C  635   4.234  11.092   0.815  0.7293 -0.2249  0.3073
  746MOL0     C  636   4.147  11.214   0.842  0.0511 -0.3022 -0.7503
  746MOL0     C  637   4.023  11.220   0.748 -0.2758 -0.3612 -0.5128
  746MOL0     C  638   4.066  11.247   0.611  0.8728  0.7197  0.9987
  746MOL0     C  639   4.077  11.274   0.489 -0.6701 -0.2854 -0.2295
  746MOL0     C  640   4.596  11.011   0.981 -0.3983 -0.5723  0.1527
  746MOL0     C  641   4.731  11.015   0.932  0.2955 -0.2224 -0.3174
  746MOL0     C  642   4.809  10.892   0.952 -0.1011  0.8571 -0.1393
  746MOL0     H  643   5.056  10.901   0.552 -1.0869  0.2813  1.0405
  746MOL0     H  644   5.298  10.848   0.535  2.1274  0.3831  0.5604
  746MOL0     H  645   5.561  11.055   0.775 -0.7284 -0.4062 -0.4940
  746MOL0     H  646   5.573  10.909   0.876  0.5075 -0.7170 -0.8441
  746MOL0     H  647   5.738  10.807   0.773  1.1119 -0.5773 -2.9976
  746MOL0     H  648   5.785  10.984   0.774 -1.9044 -0.6925  2.8010
  746MOL0     H  649   5.680  10.824   0.542  0.5699 -0.2338  0.5156
  746MOL0     H  650   5.859  10.872   0.566  1.8179  2.2770  2.4591
  746MOL0     H  651   5.635  11.067   0.516  0.9769  1.3834 -0.8959
  746MOL0     H  652   5.798  11.103   0.560 -1.3428  0.4071  1.6939
  746MOL0     H  653   5.769  11.119   0.323  2.0586  0.5635 -0.1947
  746MOL0     H  654   5.872  10.980   0.344  1.2107 -1.2904  1.6411
  746MOL0     H  655   5.725  10.923   0.173 -0.6172 -1.4684 -0.4280
  746MOL0     H  656   5.706  10.815   0.305  0.3685  0.1581  0.0385
  746MOL0     H  657   5.502  11.044   0.264  1.1927  0.1693 -0.0970
  746MOL0     H  658   5.496  10.911   0.377  0.4541 -1.5608  0.6341
  746MOL0     H  659   5.483  10.902   0.078 -0.4746  1.5493  0.4052
  746MOL0     H  660   5.509  10.762   0.182 -1.2194  0.2785  0.5153
  746MOL0     H  661   5.258  11.039   0.295  2.6510 -0.0933 -3.4384
  746MOL0     H  662   4.913  10.906   0.351 -0.9155  0.1724  0.8172
  746MOL0     H  663   5.031  11.038   0.367  0.6602  1.3032 -1.8476
  746MOL0     H  664   4.873  11.107   0.194 -0.8727 -0.1823 -0.8690
  746MOL0     H  665   5.032  11.078   0.123 -2.2576  3.6568 -0.2625
  746MOL0     H  666   4.928  10.823   0.084 -1.0789 -1.6133 -0.9382
  746MOL0     H  667   4.917  10.957  -0.029 -1.0766 -2.6999 -0.8961
  746MOL0     H  668   4.715  10.878   0.187  0.2775  1.7514  0.0643
  746MOL0     H  669   4.717  10.822   0.018 -0.7187  1.3335 -2.7732
  746MOL0     H  670   4.491  10.873   0.178  0.8691  0.9416 -0.0142
  746MOL0     H  671   4.249  10.934   0.195  0.5586 -1.1180 -2.0670
  746MOL0     H  672   3.869  11.127  -0.061  0.1189 -1.4158  0.6485
  746MOL0     H  673   3.641  11.181  -0.056  2.9251 -0.6399 -1.2585
  746MOL0     H  674   3.450  11.321   0.003  1.3519 -0.1511  0.7590
  746MOL0     H  675   3.368  11.185   0.080 -0.1499  1.4801 -0.4845
  746MOL0     H  676   3.231  11.337   0.213 -0.0748  0.8317  1.1411
  746MOL0     H  677   3.340  11.470   0.184 -0.8492 -0.2798  0.6336
  746MOL0     H  678   3.162  11.521   0.051 -1.4549 -0.2425 -2.5331
  746MOL0     H  679   3.263  11.438  -0.067 -0.8871  1.5405 -1.1389
  746MOL0     H  680   3.019  11.335   0.075 -1.3359  0.7384 -1.1519
  746MOL0     H  681   3.127  11.221  -0.017 -0.9914 -0.1605 -0.3301
  746MOL0     H  682   3.104  11.329  -0.215  1.7733  1.6123  0.9634
  746MOL0     H  683   3.018  11.470  -0.143 -0.2180 -0.1015  1.1138
  746MOL0     H  684   2.886  11.319  -0.275 -2.5247  2.2052  1.5759
  746MOL0     H  685   2.922  11.193  -0.152 -0.2216  0.0288 -0.4621
  746MOL0     H  686   2.807  11.331   0.021  3.0026 -0.8885 -0.4830
  746MOL0     H  687   2.694  11.283  -0.106 -1.6413  1.3423 -0.0701
  746MOL0     H  688   2.678  11.523  -0.009  1.2385 -0.1434  0.6884
  746MOL0     H  689   2.835  11.554  -0.075 -0.4537  2.1430 -3.4363
  746MOL0     H  690   3.655  11.203   0.371 -0.4674 -1.2276 -0.5168
  746MOL0     H  691   3.907  11.127   0.356  1.7346  1.4917 -0.1014
  746MOL0     H  692   4.337  11.315   0.019 -0.3281 -0.1906 -0.1057
  746MOL0     H  693   4.578  11.243   0.000  1.9869 -4.0461 -0.4782
  746MOL0     H  694   5.354  11.003   0.933 -2.5960  0.0797  0.5065
  746MOL0     H  695   5.139  11.052   0.954 -1.2205  1.2541  0.0123
  746MOL0     H  696   4.718  11.338   0.808 -1.5574  0.1853 -1.3040
  746MOL0     H  697   4.479  11.309   0.904 -0.4676 -0.4860  3.9699
  746MOL0     H  698   4.204  10.998   0.999 -1.4792 -1.4516 -3.5245
  746MOL0     H  699   4.355  10.938   0.916 -0.9067 -0.1084 -5.2486
  746MOL0     H  700   4.176  11.016   0.762 -3.5314  2.9428 -0.0893
  746MOL0     H  701   4.306  11.127   0.739  0.0570  1.6110  0.4509
  746MOL0     H  702   4.210  11.303   0.831  0.2884 -0.4394 -0.5209
  746MOL0     H  703   4.122  11.220   0.949 -2.7084  0.3630 -1.3548
  746MOL0     H  704   3.964  11.128   0.750  0.5232 -1.0463 -3.4060
  746MOL0     H  705   3.953  11.297   0.781  2.0904  1.4463  0.6768
  746MOL0     H  706   4.088  11.310   0.389  0.6175  3.6504  1.1320
  746MOL0     H  707   4.576  10.923   1.042  0.1960 -0.0444  1.1509
  746MOL0     H  708   4.786  10.849   1.050  1.6431  1.6446  0.6623
  746MOL0     H  709   4.771  10.818   0.882 -0.0853 -0.3503  1.0852
  746MOL0     H  710   4.918  10.902   0.952  0.4366 -3.1368 -1.7192
  747MOL0     O  711   1.620   7.544   5.161 -0.6970 -0.5781  0.0811
  747MOL0     C  712   1.613   7.564   5.044  0.3622  0.3613  0.0578
  747MOL0     O  713   1.712   7.535   4.949  0.4311  0.5226  0.1605
  747MOL0     C  714   1.841   7.499   4.988 -0.4950 -0.1325  0.4201
  747MOL0     C  715   1.933   7.491   4.883 -0.1010  0.0488 -0.0770
  747MOL0     C  716   2.067   7.460   4.898 -0.4747  0.2628  0.3583
  747MOL0     C  717   2.120   7.432   5.024 -0.2246  0.8552 -0.5324
  747MOL0     O  718   2.247   7.393   5.032 -0.0173 -0.8779  0.2530
  747MOL0     C  719   2.326   7.433   5.146  0.9614 -0.2039  0.0199
  747MOL0     C  720   2.343   7.312   5.235  0.0130 -0.5558  0.1670
  747MOL0     C  721   2.476   7.308   5.306  0.4899  0.2925 -0.6833
  747MOL0     C  722   2.595   7.274   5.221 -0.2948 -0.5635  1.5165
  747MOL0     C  723   2.731   7.265   5.296  1.0003  0.2001  0.0413
  747MOL0     C  724   2.843   7.273   5.202  0.3315  0.1776  0.4381
  747MOL0     C  725   2.979   7.260   5.270 -0.4657  0.3923  0.5489
  747MOL0     C  726   3.013   7.131   5.340 -0.8185  0.2113  1.1621
  747MOL0     N  727   3.157   7.098   5.354 -0.1498  0.6719 -0.9204
  747MOL0     C  728   3.253   7.070   5.264  0.2549  0.3963 -0.1371
  747MOL0     C  729   3.348   7.026   5.351  0.0371  0.2400 -0.8616
  747MOL0     C  730   3.485   6.966   5.312  0.2257 -0.6669 -0.6888
  747MOL0     C  731   3.463   6.834   5.238  0.1136 -0.5345 -0.3678
  747MOL0     C  732   3.411   6.723   5.346 -0.0270 -0.3864 -0.0167
  747MOL0     C  733   3.403   6.583   5.295 -0.5837  0.3190  0.5811
  747MOL0     O  734   3.314   6.578   5.174  0.0227 -0.7034 -0.0068
  747MOL0     C  735   3.186   6.632   5.187 -0.0200 -0.0306 -0.7806
  747MOL0     C  736   3.133   6.731   5.107  0.8148 -0.5189  0.4054
  747MOL0     C  737   2.997   6.772   5.117  0.9132 -0.2816  0.0268
  747MOL0     C  738   2.922   6.712   5.219 -0.4828 -0.4992  0.6749
  747MOL0     C  739   2.774   6.733   5.214 -0.5845  0.0555 -0.7442
  747MOL0     O  740   2.717   6.830   5.145 -0.2041 -0.1723  0.7612
  747MOL0     C  741   2.581   6.843   5.139 -0.1483  0.5219 -0.3124
  747MOL0     C  742   2.506   6.921   5.226 -0.0038  0.1051 -0.4177
  747MOL0     C  743   2.368   6.931   5.214  0.1568 -0.7278 -0.4351
  747MOL0     C  744   2.299   6.864   5.120  1.0460  0.0884  0.0079
  747MOL0     O  745   2.162   6.874   5.107 -0.2272 -0.7142 -0.0970
  747MOL0     C  746   2.101   6.975   5.192  1.3516  0.0933  0.9930
  747MOL0     C  747   1.945   6.982   5.172 -0.3678 -0.1159  0.0985
  747MOL0     C  748   1.864   7.078   5.265  0.4121  0.1835 -0.0829
  747MOL0     C  749   1.716   7.064   5.292 -0.0568  0.2093 -0.1045
  747MOL0     C  750   1.664   7.182   5.360 -0.4742 -0.0007 -0.2825
  747MOL0     C  751   1.519   7.149   5.395  0.5307 -0.3689 -0.3794
  747MOL0     C  752   1.441   7.278   5.446 -0.0364 -0.6099  0.3140
  747MOL0     C  753   1.290   7.234   5.461 -0.1186 -0.5052  0.4011
  747MOL0    Cl  754   1.194   7.383   5.513 -0.1291 -0.2057  0.1099
  747MOL0     C  755   2.368   6.792   5.023  0.5172 -0.4005  0.4572
  747MOL0     C  756   2.510   6.785   5.030 -0.1593 -0.5293 -0.5558
  747MOL0     O  757   2.711   6.654   5.288 -0.1949 -1.1339  0.6851
  747MOL0     C  758   2.982   6.622   5.307 -0.7676 -0.4478 -1.0702
  747MOL0     C  759   3.113   6.580   5.288 -0.3213  0.0342 -0.3762
  747MOL0     N  760   3.305   7.040   5.482  0.0615  0.6917  0.0053
  747MOL0     N  761   3.192   7.091   5.485  0.6519  1.0755 -0.0728
  747MOL0     C  762   2.033   7.425   5.134  0.8571  0.6002  0.2856
  747MOL0     C  763   1.897   7.459   5.116  0.3247 -0.1279 -0.8666
  747MOL0     C  764   1.492   7.615   4.982  0.2653 -0.1265  0.6868
  747MOL0     C  765   1.491   7.756   4.935 -0.4560  0.3345 -0.4206
  747MOL0     C  766   1.375   7.802   4.879  1.2927 -0.4952  0.8617
  747MOL0     C  767   1.255   7.730   4.892  0.5503  0.1687  0.5386
  747MOL0     O  768   1.129   7.780   4.859  0.2197 -0.9583 -0.8070
  747MOL0     C  769   1.125   7.919   4.817 -0.3739  0.0212  0.3452
  747MOL0     C  770   0.972   7.958   4.817  0.3089 -0.2898  0.6622
  747MOL0     C  771   0.876   7.843   4.803  0.4318 -0.9972  0.1994
  747MOL0     C  772   0.740   7.881   4.756  0.3943  0.5648  0.2225
  747MOL0     C  773   0.652   7.767   4.765  0.6530  0.2738  0.6007
  747MOL0     C  774   0.567   7.688   4.791  0.2271  0.6822  0.4913
  747MOL0     C  775   1.255   7.601   4.943 -0.4074  0.1501  0.2045
  747MOL0     C  776   1.374   7.537   4.988 -0.3785  0.3019  0.3344
  747MOL0     C  777   1.374   7.390   5.035 -0.3528  0.0713  0.0899
  747MOL0     H  778   1.891   7.510   4.785  0.2433  0.1680 -0.2011
  747MOL0     H  779   2.120   7.450   4.804 -1.8920 -1.1584 -0.3311
  747MOL0     H  780   2.420   7.482   5.118  0.4960  3.0800  3.4099
  747MOL0     H  781   2.267   7.507   5.200  0.1145 -1.4730  0.8875
  747MOL0     H  782   2.329   7.223   5.172 -0.7686  1.1477 -2.2143
  747MOL0     H  783   2.268   7.306   5.315  0.1325 -1.0701  0.2475
  747MOL0     H  784   2.477   7.232   5.385 -3.0177 -0.8305 -1.5388
  747MOL0     H  785   2.503   7.407   5.342 -0.2663 -0.3276  1.7409
  747MOL0     H  786   2.574   7.179   5.170 -1.7576  0.4723  0.0781
  747MOL0     H  787   2.610   7.334   5.131 -1.8314 -1.3332  0.7030
  747MOL0     H  788   2.740   7.344   5.372  1.3161 -0.2788  0.5116
  747MOL0     H  789   2.735   7.170   5.349  2.4035  0.8040  1.0860
  747MOL0     H  790   2.845   7.195   5.126  0.8142  2.2196 -1.7668
  747MOL0     H  791   2.836   7.372   5.155 -2.9714  0.6158  1.5995
  747MOL0     H  792   3.000   7.334   5.347  0.4355  1.5427 -0.7710
  747MOL0     H  793   3.057   7.266   5.193 -0.2072  1.3114  0.8728
  747MOL0     H  794   2.967   7.132   5.439 -1.5433 -0.4207  0.8415
  747MOL0     H  795   2.971   7.044   5.289 -0.6304  0.1078  1.1814
  747MOL0     H  796   3.257   7.058   5.156  0.7177 -2.8727  0.1162
  747MOL0     H  797   3.543   7.049   5.271 -2.0912  1.1011 -0.6371
  747MOL0     H  798   3.535   6.937   5.404 -1.6727  1.1161  1.0203
  747MOL0     H  799   3.391   6.843   5.156 -0.6843  0.7341  0.4314
  747MOL0     H  800   3.560   6.804   5.195 -0.3970 -0.8108 -1.3606
  747MOL0     H  801   3.316   6.764   5.382  0.7896 -1.0921  3.2594
  747MOL0     H  802   3.477   6.720   5.433 -0.3888 -1.8919  0.2344
  747MOL0     H  803   3.370   6.522   5.380 -2.6973 -0.5104 -0.7495
  747MOL0     H  804   3.501   6.556   5.256 -0.7685  0.0376  0.3098
  747MOL0     H  805   3.190   6.770   5.023  0.0100 -0.8845 -0.3403
  747MOL0     H  806   2.945   6.838   5.048  2.9174  0.9880 -0.3527
  747MOL0     H  807   2.538   6.967   5.319  1.2282  0.9110 -1.2228
  747MOL0     H  808   2.322   6.995   5.290  1.4971  1.1216 -1.1100
  747MOL0     H  809   2.117   6.962   5.299  0.2548 -0.1333  1.1346
  747MOL0     H  810   2.133   7.075   5.160 -0.7768  0.0390 -1.6783
  747MOL0     H  811   1.918   7.004   5.069 -0.5189 -1.5579 -0.1891
  747MOL0     H  812   1.914   6.879   5.190  1.5515 -0.4243  2.1462
  747MOL0     H  813   1.904   7.067   5.366 -0.0482 -2.9562 -0.1230
  747MOL0     H  814   1.887   7.180   5.234 -0.8598  0.4698 -0.1477
  747MOL0     H  815   1.696   6.976   5.353  0.7763  0.4808  0.5723
  747MOL0     H  816   1.658   7.049   5.200 -0.6270  1.4083  0.0459
  747MOL0     H  817   1.658   7.263   5.287  0.5866 -0.0502 -0.4424
  747MOL0     H  818   1.720   7.207   5.451 -1.4498 -0.5016  0.4716
  747MOL0     H  819   1.461   7.111   5.311 -0.9448 -3.3224  1.7950
  747MOL0     H  820   1.528   7.069   5.469  0.1125 -1.1188 -1.1242
  747MOL0     H  821   1.461   7.362   5.378 -3.5621 -0.6568 -1.0236
  747MOL0     H  822   1.474   7.307   5.546  0.3642 -0.0147  0.0190
  747MOL0     H  823   1.249   7.197   5.366 -2.0267 -0.0884  1.0092
  747MOL0     H  824   1.284   7.155   5.536  0.1658  0.0790  1.0475
  747MOL0     H  825   2.326   6.724   4.950 -0.8679  3.2475 -2.4517
  747MOL0     H  826   2.548   6.723   4.950 -2.4850 -3.0525  0.1449
  747MOL0     H  827   2.922   6.569   5.380 -0.3491  0.2187 -0.2410
  747MOL0     H  828   3.160   6.505   5.351  0.3901 -0.0437 -0.9831
  747MOL0     H  829   2.072   7.418   5.235 -1.2373  0.0818  1.0992
  747MOL0     H  830   1.836   7.458   5.206 -0.7336  1.0823 -1.5327
  747MOL0     H  831   1.584   7.809   4.923  0.5750 -1.6156 -1.5119
  747MOL0     H  832   1.375   7.901   4.833  1.1556 -1.4972 -1.4575
  747MOL0     H  833   1.165   7.919   4.715  1.4096  3.7173  0.8799
  747MOL0     H  834   1.170   7.990   4.886 -0.0999  0.4074 -0.2198
  747MOL0     H  835   0.957   8.027   4.734 -0.4408 -0.8303  0.3398
  747MOL0     H  836   0.962   8.000   4.918 -1.5414 -2.8838  1.6525
  747MOL0     H  837   0.862   7.780   4.891  0.3903  0.0424  0.9496
  747MOL0     H  838   0.918   7.784   4.720  2.3562 -0.3941  0.6932
  747MOL0     H  839   0.706   7.962   4.821  1.9198 -1.0619  3.3014
  747MOL0     H  840   0.747   7.915   4.652  0.0949 -0.8097 -0.2721
  747MOL0     H  841   0.489   7.625   4.827  2.0363 -2.2011 -0.2681
  747MOL0     H  842   1.167   7.539   4.944  0.6608 -1.4291  1.5786
  747MOL0     H  843   1.453   7.336   4.984 -1.5872  0.3290 -2.2278
  747MOL0     H  844   1.393   7.387   5.143  0.2280  1.0615  0.0327
  747MOL0     H  845   1.282   7.331   5.027  0.2531 -1.2867  2.1848
  748MOL0     O  846   1.058   1.274   6.607  0.4224 -0.3361  0.0719
  748MOL0     C  847   1.044   1.340   6.705 -0.6857  0.0920 -0.3651
  748MOL0     O  848   1.127   1.445   6.749 -0.3854 -0.7888 -0.0980
  748MOL0     C  849   1.226   1.488   6.663  0.3015 -0.3324  1.0943
  748MOL0     C  850   1.207   1.587   6.567  0.2539 -0.2015  0.2649
  748MOL0     C  851   1.302   1.633   6.482 -0.3005 -0.5759  0.3323
  748MOL0     C  852   1.430   1.583   6.493 -0.2415  0.0841  0.2491
  748MOL0     O  853   1.532   1.616   6.406 -0.6686 -0.1099 -0.1168
  748MOL0     C  854   1.526   1.741   6.341  0.5038  0.3901  0.1696
  748MOL0     C  855   1.666   1.769   6.286  0.4534  0.5895 -0.5844
  748MOL0     C  856   1.679   1.677   6.167  0.0628  1.1650 -0.2647
  748MOL0     C  857   1.750   1.746   6.050  1.0348 -0.1197  0.2898
  748MOL0     C  858   1.809   1.652   5.946  0.3693  0.2756  0.0818
  748MOL0     C  859   1.930   1.582   6.004 -0.1118  0.4472 -0.1317
  748MOL0     C  860   2.022   1.673   6.085  0.2500 -0.0214  0.2251
  748MOL0     C  861   2.084   1.788   6.011 -0.3114  0.2118  0.4677
  748MOL0     N  862   2.206   1.758   5.944  0.7946  0.0861  0.1437
  748MOL0     C  863   2.330   1.787   5.990 -0.0393  0.4054 -0.2946
  748MOL0     C  864   2.393   1.783   5.871  0.2433 -0.4578 -0.9114
  748MOL0     C  865   2.529   1.829   5.859 -0.4818  0.3540 -0.7634
  748MOL0     C  866   2.625   1.716   5.831 -0.2581  0.2838  0.2940
  748MOL0     C  867   2.773   1.772   5.803 -0.5229  0.6083  0.0627
  748MOL0     C  868   2.880   1.675   5.834 -0.2073 -0.2516  0.3658
  748MOL0     O  869   3.003   1.726   5.785 -0.6474 -0.7623 -0.1911
  748MOL0     C  870   3.122   1.653   5.808 -0.0827  0.2089 -0.1272
  748MOL0     C  871   3.123   1.512   5.843  0.1618  0.0613 -0.0817
  748MOL0     C  872   3.244   1.448   5.867 -0.5090  0.5123  1.0703
  748MOL0     C  873   3.366   1.528   5.869 -0.1473 -0.0001 -0.4545
  748MOL0     C  874   3.496   1.468   5.903  0.2071 -1.0296  0.0169
  748MOL0     O  875   3.497   1.338   5.939 -0.0562  0.7151 -0.1625
  748MOL0     C  876   3.616   1.284   5.971 -0.5176  0.3990 -0.1854
  748MOL0     C  877   3.694   1.230   5.876 -0.1070 -0.2633  0.7014
  748MOL0     C  878   3.810   1.155   5.915  0.0833  0.0014  0.0969
  748MOL0     C  879   3.853   1.151   6.051 -0.2525  0.1310 -1.0732
  748MOL0     O  880   3.975   1.087   6.067 -0.1410 -0.7313  0.7633
  748MOL0     C  881   4.030   1.059   6.208 -0.4041 -0.0850 -0.4040
  748MOL0     C  882   4.155   0.968   6.185  0.1113 -0.4086  0.0294
  748MOL0     C  883   4.121   0.820   6.163  0.5305  0.3625  0.1163
  748MOL0     C  884   4.166   0.772   6.030 -0.0734 -0.6700  0.8159
  748MOL0     C  885   4.116   0.630   6.003 -0.3326  0.4759 -0.4906
  748MOL0     C  886   4.208   0.568   5.891 -0.3511 -0.2866  0.2617
  748MOL0     C  887   4.143   0.430   5.846  0.0477 -0.4305 -1.0877
  748MOL0     C  888   4.177   0.393   5.705  1.0353  1.1656  0.7428
  748MOL0    Cl  889   4.346   0.371   5.679  0.2418  0.6819 -0.3624
  748MOL0     C  890   3.780   1.214   6.146 -0.5001  0.5839 -0.4924
  748MOL0     C  891   3.656   1.276   6.107 -0.4035 -0.1699  0.2575
  748MOL0     O  892   3.589   1.544   5.907 -0.4882 -0.1029  0.1683
  748MOL0     C  893   3.358   1.666   5.825  0.8569 -0.4490  0.7781
  748MOL0     C  894   3.237   1.728   5.796  0.8534 -0.9551 -0.2529
  748MOL0     N  895   2.318   1.733   5.777  0.7000  0.0875  0.2800
  748MOL0     N  896   2.196   1.720   5.817 -0.0387  0.1611 -0.2199
  748MOL0     C  897   1.462   1.492   6.589  0.0937  0.5336 -0.1749
  748MOL0     C  898   1.364   1.443   6.684 -0.5182 -0.3559  0.5686
  748MOL0     C  899   0.930   1.315   6.798  0.3258 -0.3875  0.0506
  748MOL0     C  900   0.896   1.414   6.895  0.2784 -0.3140 -0.7119
  748MOL0     C  901   0.799   1.391   6.992 -1.2060 -0.3071  0.2408
  748MOL0     C  902   0.713   1.277   6.993 -0.4444 -0.3094  0.2043
  748MOL0     O  903   0.619   1.258   7.090 -0.2217 -0.2560  0.1329
  748MOL0     C  904   0.489   1.205   7.039 -0.4836 -0.0061 -0.3837
  748MOL0     C  905   0.404   1.319   6.994  0.4421 -0.2667  0.2363
  748MOL0     C  906   0.271   1.246   6.950  0.1767 -0.4818  0.4487
  748MOL0     C  907   0.175   1.350   6.886 -0.4545  0.0780  0.1686
  748MOL0     C  908   0.034   1.303   6.859  0.0040  0.1952  0.4193
  748MOL0     C  909  -0.074   1.252   6.840  0.0129  0.4716  0.6454
  748MOL0     C  910   0.734   1.191   6.884 -0.3117  0.6218 -0.6939
  748MOL0     C  911   0.844   1.198   6.802  0.5441 -0.0528 -0.0251
  748MOL0     C  912   0.871   1.084   6.714  0.2056 -0.4692  0.0521
  748MOL0     H  913   1.107   1.629   6.564  1.3487  2.5892 -0.2470
  748MOL0     H  914   1.286   1.717   6.416 -0.0229  0.2650  1.3026
  748MOL0     H  915   1.457   1.743   6.255 -0.5757  1.0079  1.0244
  748MOL0     H  916   1.489   1.817   6.410 -2.4575  0.3623 -1.2106
  748MOL0     H  917   1.744   1.753   6.361  0.5989  1.9929 -0.3983
  748MOL0     H  918   1.668   1.876   6.260  1.2446  0.5991 -0.5216
  748MOL0     H  919   1.594   1.626   6.121  1.0319  0.4969 -1.3724
  748MOL0     H  920   1.742   1.591   6.190 -1.6016 -1.2589 -3.8454
  748MOL0     H  921   1.683   1.806   5.987  1.7708 -0.5223 -0.9218
  748MOL0     H  922   1.821   1.819   6.088  0.0798  1.5983 -1.0223
  748MOL0     H  923   1.738   1.574   5.915  0.4949  0.5171 -0.8246
  748MOL0     H  924   1.854   1.708   5.864  2.5616  3.3454  3.1048
  748MOL0     H  925   1.907   1.499   6.072  1.2563  0.5238  0.4658
  748MOL0     H  926   1.996   1.541   5.928 -0.1057 -1.9592  1.0659
  748MOL0     H  927   2.111   1.618   6.119  0.3498  1.3416  2.3138
  748MOL0     H  928   1.974   1.705   6.177  0.6188  0.2686  0.3165
  748MOL0     H  929   2.009   1.822   5.939 -0.2090 -1.1593 -0.3158
  748MOL0     H  930   2.090   1.866   6.088 -0.2768  1.2223 -0.5450
  748MOL0     H  931   2.369   1.838   6.078  3.9748  0.3902 -1.8920
  748MOL0     H  932   2.533   1.908   5.783  2.4967 -0.4116 -1.5432
  748MOL0     H  933   2.554   1.885   5.950 -4.6623 -1.5599  1.8587
  748MOL0     H  934   2.629   1.644   5.913 -2.4014 -0.9736 -0.6348
  748MOL0     H  935   2.591   1.664   5.741  1.3384  0.0309 -0.2007
  748MOL0     H  936   2.795   1.860   5.864  2.6400  0.7903 -1.1729
  748MOL0     H  937   2.789   1.810   5.702  2.2110 -0.1395  0.1261
  748MOL0     H  938   2.854   1.582   5.782 -2.9011  1.4283 -1.5439
  748MOL0     H  939   2.887   1.667   5.943 -0.7958  1.2751  0.5361
  748MOL0     H  940   3.026   1.463   5.851 -0.4747  0.7791 -2.4181
  748MOL0     H  941   3.252   1.342   5.887  2.2715  0.2748 -0.7700
  748MOL0     H  942   3.665   1.243   5.773 -0.9554  0.4058  1.0121
  748MOL0     H  943   3.870   1.116   5.834  0.6731 -0.4524  0.7302
  748MOL0     H  944   4.055   1.159   6.246 -1.5322  0.8416 -1.9647
  748MOL0     H  945   3.966   1.005   6.279 -0.9622  1.9691  0.7590
  748MOL0     H  946   4.194   1.012   6.092 -0.5364  3.0231  1.2230
  748MOL0     H  947   4.230   0.983   6.263 -0.2756 -1.5653  0.6454
  748MOL0     H  948   4.191   0.777   6.235  2.0871  1.6033 -0.5683
  748MOL0     H  949   4.016   0.804   6.189  0.5005  1.0158  0.4225
  748MOL0     H  950   4.274   0.786   6.019 -0.1838 -0.2521  0.2334
  748MOL0     H  951   4.111   0.830   5.956  0.0906  0.2049  1.3697
  748MOL0     H  952   4.009   0.637   5.981 -0.2964  1.0200 -0.4869
  748MOL0     H  953   4.132   0.566   6.090  0.9772  2.1488  0.5693
  748MOL0     H  954   4.198   0.638   5.807 -3.3167 -0.6452  0.1976
  748MOL0     H  955   4.315   0.568   5.913 -0.2408  1.7756 -0.0863
  748MOL0     H  956   4.034   0.427   5.858  0.0236 -2.7635 -1.2623
  748MOL0     H  957   4.178   0.356   5.919 -1.9316 -1.1122 -0.7620
  748MOL0     H  958   4.140   0.293   5.681  1.8086  0.6606  1.5633
  748MOL0     H  959   4.134   0.466   5.635  0.6702 -0.8038 -1.1890
  748MOL0     H  960   3.799   1.199   6.252  2.1613 -0.5182 -1.0560
  748MOL0     H  961   3.609   1.327   6.191 -0.1408  1.7655 -0.7298
  748MOL0     H  962   3.443   1.733   5.811  0.3750  0.1961  0.8843
  748MOL0     H  963   3.223   1.830   5.762 -2.3802 -0.6868  1.5108
  748MOL0     H  964   1.560   1.444   6.589  0.6153  1.4683  1.9298
  748MOL0     H  965   1.400   1.370   6.756  0.2990  0.5123  1.0564
  748MOL0     H  966   0.944   1.511   6.903 -0.3913  0.3543 -3.5314
  748MOL0     H  967   0.777   1.464   7.069 -1.2747 -0.9425  0.8268
  748MOL0     H  968   0.444   1.148   7.121 -1.7780 -0.5671 -1.4332
  748MOL0     H  969   0.506   1.127   6.964 -0.8492 -0.0863 -0.3855
  748MOL0     H  970   0.440   1.380   6.911  0.5396 -1.0039 -0.2675
  748MOL0     H  971   0.373   1.374   7.084  2.2972 -1.6900  1.8323
  748MOL0     H  972   0.223   1.205   7.039 -0.9311  1.7557  0.9347
  748MOL0     H  973   0.290   1.171   6.873 -0.4556  2.4212 -2.7884
  748MOL0     H  974   0.170   1.442   6.945 -3.0316  0.7751 -0.9872
  748MOL0     H  975   0.215   1.383   6.790 -1.4295  0.1205 -0.2376
  748MOL0     H  976  -0.166   1.206   6.812 -1.4763  2.4300  2.0095
  748MOL0     H  977   0.673   1.103   6.871 -1.8222  1.9630 -3.5712
  748MOL0     H  978   0.979   1.064   6.712  0.6831  1.4412 -4.3793
  748MOL0     H  979   0.834   0.991   6.758  2.8293 -2.4188 -1.5252
  748MOL0     H  980   0.836   1.107   6.613  0.6649  0.2884  0.0640
  749MOL0     O  981  11.261   5.429   6.676  0.0740 -0.4500  0.6900
  749MOL0     C  982  11.187   5.505   6.743 -0.2536  0.0947  0.5534
  749MOL0     O  983  11.233   5.594   6.841 -0.4085  0.5588  0.1567
  749MOL0     C  984  11.371   5.601   6.854 -0.7439  0.2501 -0.3130
  749MOL0     C  985  11.462   5.641   6.754  0.3703 -0.8481  0.2065
  749MOL0     C  986  11.599   5.636   6.768  0.2836 -0.2901  0.4308
  749MOL0     C  987  11.653   5.606   6.901  0.0195  0.7027 -0.0169
  749MOL0     O  988  11.783   5.615   6.942  0.6187  0.1254  0.5156
  749MOL0     C  989  11.890   5.641   6.851  0.2618  0.9275 -0.9396
  749MOL0     C  990  12.020   5.629   6.933  1.0836  0.4423 -0.4190
  749MOL0     C  991  12.141   5.654   6.841  0.0184 -0.1792  0.0885
  749MOL0     C  992  12.278   5.649   6.910  0.3055 -0.3558 -0.0995
  749MOL0     C  993  12.400   5.698   6.828  0.0423 -0.3221  0.3312
  749MOL0     C  994  12.405   5.852   6.816  0.0541  0.3675 -1.0562
  749MOL0     C  995  12.544   5.907   6.779  0.4553  0.1080 -0.1954
  749MOL0     C  996  12.559   5.900   6.629  0.1632  0.5282  0.5120
  749MOL0     N  997  12.675   5.974   6.591  0.2759  0.6745  0.1643
  749MOL0     C  998  12.790   5.915   6.578  0.5837 -0.0861 -0.1414
  749MOL0     C  999  12.877   6.016   6.539  0.0947 -0.0309  0.2480
  749MOL0     C 1000  13.021   6.000   6.521 -1.9189  0.2899 -0.2520
  749MOL0     C 1001  13.083   6.120   6.442 -0.5688 -0.2873 -0.1560
  749MOL0     C 1002  13.044   6.144   6.303  0.5462 -0.0522 -0.2031
  749MOL0     C 1003  13.118   6.070   6.188 -0.1914 -0.0280  0.0249
  749MOL0     O 1004  13.260   6.088   6.198 -0.0648  0.0167 -0.2257
  749MOL0     C 1005  13.344   6.067   6.094 -0.2823  0.8814  0.0878
  749MOL0     C 1006  13.465   5.987   6.111  0.4420  0.4684  0.2766
  749MOL0     C 1007  13.548   5.951   6.004 -0.4692  0.2431 -0.5552
  749MOL0     C 1008  13.515   5.994   5.871  0.3648 -0.4191 -0.7119
  749MOL0     C 1009  13.601   5.959   5.754 -0.2812  0.1228  0.1598
  749MOL0     O 1010  13.586   6.042   5.645 -0.4741  0.4520  0.0342
  749MOL0     C 1011  13.665   6.043   5.534 -0.4890  0.1156 -0.5692
  749MOL0     C 1012  13.605   6.089   5.416  0.5301  0.2107  0.0496
  749MOL0     C 1013  13.682   6.079   5.297 -0.1216  0.5515  0.2462
  749MOL0     C 1014  13.808   6.017   5.288  0.1643  0.0957 -0.7838
  749MOL0     O 1015  13.883   6.001   5.176  0.1986 -0.5657  0.0563
  749MOL0     C 1016  13.857   6.103   5.073 -1.0685  1.1876  0.2811
  749MOL0     C 1017  13.966   6.093   4.959 -0.9166  0.4229  0.8986
  749MOL0     C 1018  13.978   5.966   4.880  0.0507  0.4446 -0.1162
  749MOL0     C 1019  13.851   5.928   4.806 -0.4676  0.3532  0.1352
  749MOL0     C 1020  13.865   5.791   4.736 -0.3593  0.2807  0.1707
  749MOL0     C 1021  13.728   5.755   4.683  0.4803  1.0076 -0.1950
  749MOL0     C 1022  13.728   5.607   4.667  0.4018  0.4193 -0.4387
  749MOL0     C 1023  13.580   5.567   4.618  0.8920 -0.2670 -1.0256
  749MOL0    Cl 1024  13.448   5.587   4.736  0.3748  0.6996 -0.4387
  749MOL0     C 1025  13.855   5.969   5.406  0.1130 -0.1746 -0.2647
  749MOL0     C 1026  13.790   5.990   5.528  0.1586  0.9555 -0.2422
  749MOL0     O 1027  13.679   5.863   5.762  0.3151 -0.7293 -0.8385
  749MOL0     C 1028  13.395   6.075   5.862  0.8804 -0.2419  0.3806
  749MOL0     C 1029  13.307   6.107   5.966  0.0215  0.3522 -0.5500
  749MOL0     N 1030  12.802   6.129   6.541  0.0440 -0.6495  0.7569
  749MOL0     N 1031  12.681   6.109   6.564 -0.0689 -1.0387  0.2974
  749MOL0     C 1032  11.566   5.571   7.003 -0.3061 -0.7759  0.0401
  749MOL0     C 1033  11.428   5.566   6.974 -1.0521  0.0290 -1.0561
  749MOL0     C 1034  11.041   5.492   6.718  0.2102  0.1187 -0.1833
  749MOL0     C 1035  10.999   5.383   6.650  0.1694  0.5846  0.4303
  749MOL0     C 1036  10.858   5.367   6.605 -0.0506 -0.3677  0.4030
  749MOL0     C 1037  10.772   5.471   6.620 -0.1453  0.0795 -0.2185
  749MOL0     O 1038  10.639   5.469   6.582  0.0552  0.8717 -0.3133
  749MOL0     C 1039  10.612   5.401   6.463 -0.2175  0.7628  1.3494
  749MOL0     C 1040  10.455   5.395   6.442  0.6179  0.4878  0.0712
  749MOL0     C 1041  10.421   5.316   6.321  0.1036  0.3951 -0.6898
  749MOL0     C 1042  10.435   5.385   6.184  0.0976  0.1975  0.1917
  749MOL0     C 1043  10.564   5.392   6.130 -0.5009  0.4744 -0.4777
  749MOL0     C 1044  10.677   5.396   6.087 -0.5044  0.7524 -0.3344
  749MOL0     C 1045  10.817   5.581   6.684 -0.3152  0.4368 -0.8557
  749MOL0     C 1046  10.950   5.598   6.732 -0.2430 -0.4235  0.2947
  749MOL0     C 1047  10.983   5.718   6.803 -0.2099 -1.2092 -0.4979
  749MOL0     H 1048  11.421   5.671   6.658  1.3551  4.2801  1.1145
  749MOL0     H 1049  11.659   5.651   6.680 -1.8433 -0.4769 -1.1364
  749MOL0     H 1050  11.896   5.566   6.772  2.5438 -0.8475  0.7547
  749MOL0     H 1051  11.884   5.743   6.811 -0.9242  1.1383 -0.2503
  749MOL0     H 1052  12.016   5.524   6.963 -0.7429 -0.2109 -2.6284
  749MOL0     H 1053  12.023   5.689   7.024  2.2213 -0.3273  0.0748
  749MOL0     H 1054  12.133   5.753   6.795  1.0835 -0.3264 -0.4309
  749MOL0     H 1055  12.129   5.588   6.755 -0.9224  0.8093 -0.5726
  749MOL0     H 1056  12.263   5.715   6.997  0.1873  1.0014 -1.1169
  749MOL0     H 1057  12.317   5.552   6.942  5.1820  2.0003  2.0424
  749MOL0     H 1058  12.485   5.668   6.890 -0.9829  1.1063  2.5461
  749MOL0     H 1059  12.402   5.651   6.729  1.5816  1.0518 -0.3343
  749MOL0     H 1060  12.323   5.875   6.747 -0.6069  1.2128 -0.0184
  749MOL0     H 1061  12.379   5.897   6.912  1.1013  0.4720 -0.8014
  749MOL0     H 1062  12.620   5.841   6.822 -1.0970 -0.8218  1.2733
  749MOL0     H 1063  12.560   6.010   6.813 -0.9386  0.3782 -0.3113
  749MOL0     H 1064  12.577   5.796   6.599  2.2271  0.5050  1.6612
  749MOL0     H 1065  12.468   5.936   6.579 -0.6936 -0.6549  1.1621
  749MOL0     H 1066  12.809   5.809   6.594 -0.0159 -0.3319 -1.0070
  749MOL0     H 1067  13.069   5.998   6.620  1.1972  0.3894 -1.6389
  749MOL0     H 1068  13.052   5.905   6.475 -0.8377 -0.1530  1.2741
  749MOL0     H 1069  13.066   6.216   6.492  0.9270  0.5123 -1.1119
  749MOL0     H 1070  13.191   6.110   6.444 -0.6726 -1.9314 -1.0805
  749MOL0     H 1071  13.067   6.250   6.290  3.9038 -0.8556 -2.1854
  749MOL0     H 1072  12.938   6.133   6.280  0.8905  1.0218 -2.6487
  749MOL0     H 1073  13.068   6.111   6.100 -2.6776  0.9969  1.8044
  749MOL0     H 1074  13.088   5.967   6.209 -1.7996  0.8602  2.5089
  749MOL0     H 1075  13.487   5.952   6.211 -2.0711  0.0693  0.7661
  749MOL0     H 1076  13.640   5.898   6.025 -2.3069 -2.9314  0.1674
  749MOL0     H 1077  13.501   6.120   5.416  1.1823  2.6702 -0.5009
  749MOL0     H 1078  13.644   6.111   5.201  3.0384  3.5005 -0.2249
  749MOL0     H 1079  13.762   6.085   5.022 -1.2558 -0.0621  1.0367
  749MOL0     H 1080  13.869   6.200   5.122  1.1065 -0.5226  3.5447
  749MOL0     H 1081  13.947   6.174   4.888 -0.0069  1.0221  1.3321
  749MOL0     H 1082  14.059   6.119   5.009 -2.4583  3.4205  2.5190
  749MOL0     H 1083  14.053   5.979   4.801 -0.9218  1.4848 -0.8975
  749MOL0     H 1084  14.006   5.888   4.951  0.2647  0.4098 -0.2376
  749MOL0     H 1085  13.832   6.015   4.743 -1.9125  1.2527  1.7230
  749MOL0     H 1086  13.766   5.914   4.873 -1.5502  0.8888 -1.0842
  749MOL0     H 1087  13.897   5.716   4.809  2.2115  1.3172  0.2012
  749MOL0     H 1088  13.926   5.785   4.646 -0.5714  1.6936 -0.0897
  749MOL0     H 1089  13.649   5.767   4.758  0.0412  1.7380 -0.7546
  749MOL0     H 1090  13.705   5.821   4.598 -2.1627 -0.7536 -0.9972
  749MOL0     H 1091  13.738   5.563   4.766  1.8549 -0.5038 -0.9666
  749MOL0     H 1092  13.808   5.574   4.601 -1.5588 -1.4111 -2.0640
  749MOL0     H 1093  13.557   5.626   4.529 -1.2820  0.4596 -0.0494
  749MOL0     H 1094  13.578   5.463   4.586 -1.4463 -0.9756  1.1273
  749MOL0     H 1095  13.956   5.930   5.402  0.3979  0.1757  2.1372
  749MOL0     H 1096  13.842   5.956   5.617 -0.0188  0.2703 -0.3954
  749MOL0     H 1097  13.372   6.124   5.768 -2.0917  1.7390  1.9740
  749MOL0     H 1098  13.225   6.178   5.953 -0.1145  0.4627  0.7274
  749MOL0     H 1099  11.609   5.559   7.102  1.1322  0.2451 -0.4299
  749MOL0     H 1100  11.355   5.537   7.050 -1.3286 -0.9376 -1.6765
  749MOL0     H 1101  11.064   5.298   6.634  0.8225  0.7991  1.8455
  749MOL0     H 1102  10.826   5.273   6.559  0.9791 -0.2725 -0.5497
  749MOL0     H 1103  10.647   5.298   6.456 -0.8077  0.6941 -2.3846
  749MOL0     H 1104  10.660   5.453   6.380  0.2281 -0.0487  1.0870
  749MOL0     H 1105  10.415   5.497   6.442  0.5238  0.5781  3.3760
  749MOL0     H 1106  10.405   5.355   6.530 -1.5334  1.7932 -0.4697
  749MOL0     H 1107  10.316   5.286   6.324  0.7760 -2.1543  0.4581
  749MOL0     H 1108  10.471   5.218   6.325  2.1688  1.3751 -1.2474
  749MOL0     H 1109  10.365   5.331   6.119 -1.0525  2.0769 -0.1858
  749MOL0     H 1110  10.400   5.488   6.195 -1.1589 -0.1257 -0.5453
  749MOL0     H 1111  10.770   5.392   6.035  0.9258 -0.2687  2.0998
  749MOL0     H 1112  10.743   5.659   6.694  0.4412  1.0720  0.0064
  749MOL0     H 1113  10.903   5.792   6.795  1.5225  0.5814 -3.1143
  749MOL0     H 1114  11.008   5.700   6.908  1.1930  0.4425 -0.4941
  749MOL0     H 1115  11.067   5.771   6.757  0.2953 -1.6015 -0.0484
  750MOL0     O 1116   7.838   4.082   3.401 -0.5571 -0.0347  0.5739
  750MOL0     C 1117   7.773   4.181   3.393  0.2966 -0.7495  0.1587
  750MOL0     O 1118   7.821   4.290   3.332 -0.3703  0.6996  0.4707
  750MOL0     C 1119   7.946   4.296   3.278 -0.6970 -0.1656 -0.3544
  750MOL0     C 1120   7.958   4.386   3.169 -0.5980 -0.9299 -0.9382
  750MOL0     C 1121   8.079   4.401   3.108  0.2559  0.2918 -0.1155
  750MOL0     C 1122   8.194   4.342   3.164 -0.5127 -0.5877  0.8168
  750MOL0     O 1123   8.316   4.383   3.110  0.2770  0.1307 -0.5191
  750MOL0     C 1124   8.429   4.424   3.187 -0.5065  0.9895 -0.7872
  750MOL0     C 1125   8.398   4.563   3.232  0.2312  0.8476 -0.0214
  750MOL0     C 1126   8.524   4.619   3.303 -0.6646  0.5001  0.0364
  750MOL0     C 1127   8.490   4.748   3.375 -0.4816 -0.2612  0.4394
  750MOL0     C 1128   8.608   4.814   3.438 -0.5658 -0.0365 -0.0332
  750MOL0     C 1129   8.654   4.734   3.561 -0.0483  0.3273  0.7728
  750MOL0     C 1130   8.542   4.705   3.663 -0.1835  1.6756  0.7569
  750MOL0     C 1131   8.570   4.676   3.811  0.6054 -0.1372  0.6770
  750MOL0     N 1132   8.619   4.796   3.871  0.3181  0.0029  0.4099
  750MOL0     C 1133   8.745   4.839   3.895 -0.5607  0.3924 -0.3519
  750MOL0     C 1134   8.745   4.950   3.966 -0.0305 -0.3198 -0.7279
  750MOL0     C 1135   8.867   5.011   4.017 -0.7467 -0.4746  0.3137
  750MOL0     C 1136   8.962   4.912   4.094 -0.0727  0.5147  0.1956
  750MOL0     C 1137   9.087   4.979   4.155  0.3266  0.0035 -0.2006
  750MOL0     C 1138   9.155   4.892   4.257  0.4607 -0.0372 -0.0837
  750MOL0     O 1139   9.226   4.783   4.187 -0.0451 -0.4072  0.4307
  750MOL0     C 1140   9.329   4.729   4.247 -0.3244  0.5740  0.9157
  750MOL0     C 1141   9.458   4.748   4.196 -0.7492  0.0474  0.2176
  750MOL0     C 1142   9.567   4.665   4.232 -0.1928 -0.2657 -0.8423
  750MOL0     C 1143   9.552   4.579   4.336 -0.0304  0.2172 -0.4880
  750MOL0     C 1144   9.649   4.489   4.394 -0.4807  0.4448 -0.1284
  750MOL0     O 1145   9.631   4.439   4.522  0.0444 -0.4822 -0.3644
  750MOL0     C 1146   9.735   4.372   4.584 -0.4720  0.7091 -0.0898
  750MOL0     C 1147   9.732   4.234   4.625 -0.5380 -0.6622 -0.6082
  750MOL0     C 1148   9.830   4.164   4.697 -1.2452  0.7620  0.5943
  750MOL0     C 1149   9.952   4.229   4.725 -0.0918 -0.3203  0.9420
  750MOL0     O 1150  10.044   4.161   4.798  0.0321 -0.5508  0.9006
  750MOL0     C 1151  10.182   4.179   4.754  0.1811  0.1927 -0.7699
  750MOL0     C 1152  10.212   4.107   4.623 -0.6035 -0.5098 -0.8192
  750MOL0     C 1153  10.353   4.147   4.569 -0.1696 -0.3912 -0.1394
  750MOL0     C 1154  10.358   4.296   4.516 -0.2348  0.3168 -0.1580
  750MOL0     C 1155  10.278   4.333   4.394 -0.0874  0.3695  0.1894
  750MOL0     C 1156  10.297   4.474   4.362 -0.9750  0.1323  0.4438
  750MOL0     C 1157  10.192   4.519   4.252 -0.6832  0.0622 -0.5395
  750MOL0     C 1158  10.222   4.655   4.192  0.6512  0.2633 -0.7797
  750MOL0    Cl 1159  10.063   4.733   4.170 -0.2437  0.5168  0.1487
  750MOL0     C 1160   9.960   4.368   4.674  0.0240 -0.1572  0.2435
  750MOL0     C 1161   9.852   4.429   4.611 -0.5961  0.0353 -0.9806
  750MOL0     O 1162   9.742   4.456   4.318  0.3086 -0.2742 -0.7587
  750MOL0     C 1163   9.419   4.574   4.407  0.7748  0.3876 -0.9096
  750MOL0     C 1164   9.304   4.641   4.353  0.5048  0.8932  0.2149
  750MOL0     N 1165   8.616   4.981   3.991  0.4344  0.4994  0.2062
  750MOL0     N 1166   8.540   4.892   3.933 -0.6246  0.5288 -0.1069
  750MOL0     C 1167   8.194   4.255   3.274  0.9471  0.4968  0.3866
  750MOL0     C 1168   8.064   4.233   3.328 -0.7152 -0.0831 -0.3491
  750MOL0     C 1169   7.634   4.171   3.437  0.4610 -0.3519  0.5493
  750MOL0     C 1170   7.576   4.045   3.480  0.0700 -0.7500 -0.7750
  750MOL0     C 1171   7.443   4.032   3.515  0.1236  0.1635 -0.2791
  750MOL0     C 1172   7.356   4.138   3.509 -0.5980 -0.4178 -0.0202
  750MOL0     O 1173   7.220   4.138   3.535 -0.3589  0.0993  0.1627
  750MOL0     C 1174   7.146   4.020   3.565  0.2501 -0.8483  0.6740
  750MOL0     C 1175   7.001   4.041   3.572  0.3397  0.1465  0.3669
  750MOL0     C 1176   6.927   3.956   3.674 -0.1387 -0.1542  1.7158
  750MOL0     C 1177   6.770   3.976   3.659 -0.2843 -0.3220  0.6472
  750MOL0     C 1178   6.728   3.926   3.528  0.5633  0.2268  0.2243
  750MOL0     C 1179   6.668   3.913   3.419 -0.4318  0.0702  0.8129
  750MOL0     C 1180   7.412   4.261   3.468  0.3595 -0.1350 -0.3512
  750MOL0     C 1181   7.547   4.282   3.434  0.3398  0.4216 -0.0357
  750MOL0     C 1182   7.589   4.430   3.409 -0.0737  0.2692 -0.0293
  750MOL0     H 1183   7.876   4.442   3.124 -0.9902  1.1066  2.0410
  750MOL0     H 1184   8.081   4.468   3.022 -0.6322  0.8596  0.2970
  750MOL0     H 1185   8.460   4.355   3.266  1.0124  2.2697 -0.2093
  750MOL0     H 1186   8.516   4.424   3.120  0.7074  0.6299  0.7169
  750MOL0     H 1187   8.311   4.561   3.298  0.5263 -0.0277  0.3635
  750MOL0     H 1188   8.374   4.616   3.140  3.2022 -1.1042 -2.1216
  750MOL0     H 1189   8.609   4.625   3.236 -1.4800 -3.9167 -1.7574
  750MOL0     H 1190   8.557   4.550   3.381 -0.1864  1.8580  1.0820
  750MOL0     H 1191   8.437   4.818   3.310 -1.5358  0.3651  1.9112
  750MOL0     H 1192   8.414   4.732   3.452 -2.8359  0.2794 -1.6415
  750MOL0     H 1193   8.690   4.814   3.366  0.0738  1.5362  0.6506
  750MOL0     H 1194   8.572   4.915   3.460 -3.8599 -0.9636 -0.6297
  750MOL0     H 1195   8.700   4.640   3.528  0.1882  1.2816 -1.8006
  750MOL0     H 1196   8.734   4.786   3.615  0.8596  0.3298 -0.5434
  750MOL0     H 1197   8.489   4.615   3.630  0.2476  2.2478 -1.6926
  750MOL0     H 1198   8.479   4.794   3.664 -0.2656  1.6633 -1.1184
  750MOL0     H 1199   8.473   4.647   3.851  0.1618 -1.8179 -1.4037
  750MOL0     H 1200   8.637   4.592   3.830 -1.6446 -2.3266 -0.4163
  750MOL0     H 1201   8.835   4.785   3.867 -0.1839  0.2415  1.0928
  750MOL0     H 1202   8.921   5.075   3.946  2.7422 -1.6639  1.6687
  750MOL0     H 1203   8.843   5.080   4.099  1.6741  0.3657  0.4104
  750MOL0     H 1204   8.900   4.862   4.169  0.8284 -0.9531  0.0074
  750MOL0     H 1205   9.009   4.845   4.021  1.4366  0.8626  0.8054
  750MOL0     H 1206   9.049   5.068   4.206  1.1526 -1.3959  3.1083
  750MOL0     H 1207   9.152   5.024   4.079 -1.8320  0.9636 -1.5819
  750MOL0     H 1208   9.083   4.848   4.327  0.2570 -0.8298 -0.7703
  750MOL0     H 1209   9.233   4.950   4.308  1.0461 -1.2767  0.4594
  750MOL0     H 1210   9.462   4.822   4.117 -0.1882 -0.4607 -0.2398
  750MOL0     H 1211   9.662   4.669   4.180 -0.2678 -2.8433 -1.3166
  750MOL0     H 1212   9.639   4.178   4.621  0.0529 -1.6439 -0.9198
  750MOL0     H 1213   9.821   4.066   4.743 -0.8673  1.1470  1.5262
  750MOL0     H 1214  10.214   4.283   4.757 -2.3314  0.9863  1.4629
  750MOL0     H 1215  10.245   4.120   4.822  1.2755 -2.1297 -3.5746
  750MOL0     H 1216  10.210   3.999   4.638  0.2961 -0.1774  2.4553
  750MOL0     H 1217  10.137   4.142   4.551 -1.5632  1.6127  1.1055
  750MOL0     H 1218  10.432   4.139   4.644  0.0098  0.0035 -0.2832
  750MOL0     H 1219  10.368   4.085   4.480  0.1097  0.2062 -0.5182
  750MOL0     H 1220  10.464   4.314   4.495 -0.3864 -0.9193 -2.2180
  750MOL0     H 1221  10.325   4.364   4.594 -2.6577 -0.2524 -0.6170
  750MOL0     H 1222  10.174   4.317   4.422  0.0470  0.1007  0.5594
  750MOL0     H 1223  10.316   4.264   4.318  2.2234  1.4674  0.2391
  750MOL0     H 1224  10.286   4.534   4.452 -1.0881 -0.8273  1.0898
  750MOL0     H 1225  10.400   4.492   4.332 -0.7093  0.6297  1.6031
  750MOL0     H 1226  10.088   4.505   4.283 -1.0721  3.2336 -0.0818
  750MOL0     H 1227  10.194   4.450   4.167  0.2232  0.0108 -0.4841
  750MOL0     H 1228  10.294   4.711   4.253  1.2138 -2.3132  1.1006
  750MOL0     H 1229  10.259   4.650   4.089 -0.7269  2.3704 -1.4270
  750MOL0     H 1230  10.053   4.423   4.677 -0.2090  0.2485  0.2148
  750MOL0     H 1231   9.862   4.530   4.573 -1.3336 -0.2305 -1.9078
  750MOL0     H 1232   9.401   4.513   4.495  5.2420 -0.4002 -0.2877
  750MOL0     H 1233   9.208   4.617   4.396  0.2312 -1.9853 -1.7421
  750MOL0     H 1234   8.280   4.194   3.298 -2.2667 -2.9604  4.6577
  750MOL0     H 1235   8.049   4.170   3.416  1.6006 -0.8600 -0.4446
  750MOL0     H 1236   7.645   3.962   3.478  1.8555  0.6544 -3.3608
  750MOL0     H 1237   7.405   3.938   3.552  0.0361 -0.1031 -1.0299
  750MOL0     H 1238   7.182   3.992   3.665  2.2008  2.2596  1.0049
  750MOL0     H 1239   7.184   3.945   3.495 -0.0735  1.4877 -2.2283
  750MOL0     H 1240   6.958   4.042   3.471 -0.0269 -0.2351  0.5186
  750MOL0     H 1241   6.990   4.140   3.617  0.9510  0.1579  0.5043
  750MOL0     H 1242   6.972   3.980   3.771  2.5438  0.3471  0.4403
  750MOL0     H 1243   6.956   3.855   3.645 -0.7782  0.6650 -2.4826
  750MOL0     H 1244   6.717   3.922   3.738 -1.8184 -1.8302 -1.3116
  750MOL0     H 1245   6.744   4.082   3.669 -1.1052 -0.5267  0.8000
  750MOL0     H 1246   6.636   3.885   3.321  2.2781 -1.1372  0.1745
  750MOL0     H 1247   7.345   4.345   3.456  1.2168  0.7136  0.6736
  750MOL0     H 1248   7.692   4.449   3.440 -0.3362 -0.8454  1.6751
  750MOL0     H 1249   7.582   4.451   3.302 -1.9750  1.7617  0.3471
  750MOL0     H 1250   7.519   4.486   3.471 -1.4683  1.0893 -2.2408
  751MOL0     O 1251  11.293   8.857   5.336 -0.1744  0.2074 -0.1290
  751MOL0     C 1252  11.290   8.921   5.232  0.8693 -0.1494  0.0407
  751MOL0     O 1253  11.385   9.007   5.188  0.1596  0.1058  0.7323
  751MOL0     C 1254  11.500   9.029   5.257  0.6470  0.3431 -0.6451
  751MOL0     C 1255  11.512   9.021   5.400  0.3743 -0.0475 -0.4419
  751MOL0     C 1256  11.632   9.035   5.475  0.6635  0.4968  0.1626
  751MOL0     C 1257  11.745   9.075   5.403 -0.4309 -0.2118 -0.0312
  751MOL0     O 1258  11.860   9.117   5.466 -0.4135 -0.8192  0.1722
  751MOL0     C 1259  11.898   9.053   5.585  0.5068  0.8055  0.4850
  751MOL0     C 1260  12.032   9.094   5.631 -0.9984 -0.1607 -0.5286
  751MOL0     C 1261  12.128   9.112   5.507  0.9414  0.9943  0.1797
  751MOL0     C 1262  12.266   9.123   5.561 -0.4898  0.1194  1.0572
  751MOL0     C 1263  12.363   9.140   5.441 -0.4754  1.0827 -0.2973
  751MOL0     C 1264  12.461   9.256   5.469  0.5197 -0.3450  0.6851
  751MOL0     C 1265  12.574   9.210   5.567  0.8074  0.5745 -0.3257
  751MOL0     C 1266  12.677   9.311   5.605  0.2169 -1.4944 -0.1431
  751MOL0     N 1267  12.777   9.264   5.701  0.8166 -0.2687 -0.2973
  751MOL0     C 1268  12.871   9.165   5.675  0.7844  0.4144  0.1828
  751MOL0     C 1269  12.954   9.176   5.771 -0.8291  0.4420 -0.5872
  751MOL0     C 1270  13.071   9.091   5.789  0.4950 -0.2819  0.4856
  751MOL0     C 1271  13.145   9.127   5.916  0.3186  0.1880  0.3213
  751MOL0     C 1272  13.272   9.043   5.912 -0.0219 -0.2044 -0.7340
  751MOL0     C 1273  13.375   9.063   6.028  1.1209  0.1717  0.3262
  751MOL0     O 1274  13.491   9.021   5.965 -0.5334 -0.0712 -0.2191
  751MOL0     C 1275  13.611   9.019   6.024 -0.4493 -0.0290  0.0956
  751MOL0     C 1276  13.714   8.951   5.960  0.1734  0.9468  0.9159
  751MOL0     C 1277  13.847   8.946   6.009 -0.0412 -0.7895 -0.3653
  751MOL0     C 1278  13.877   9.019   6.124  0.2863 -0.2136  0.4026
  751MOL0     C 1279  14.019   9.018   6.179 -0.1008  0.1169  0.3971
  751MOL0     O 1280  14.056   9.107   6.272  0.4255 -0.0980  0.3955
  751MOL0     C 1281  14.176   9.093   6.340 -0.2838 -0.7888  0.2010
  751MOL0     C 1282  14.297   9.087   6.276  0.4768  0.4404 -1.4237
  751MOL0     C 1283  14.412   9.061   6.347 -0.1047 -0.0009  0.8091
  751MOL0     C 1284  14.407   9.042   6.481 -0.3014 -0.4842  0.0058
  751MOL0     O 1285  14.529   9.018   6.540 -0.5591 -0.3443  0.1032
  751MOL0     C 1286  14.556   9.109   6.643 -0.9524 -0.8518  0.2610
  751MOL0     C 1287  14.702   9.089   6.677 -0.4123  0.2081  0.1060
  751MOL0     C 1288  14.741   9.171   6.800 -0.5076  0.2463 -0.3189
  751MOL0     C 1289  14.864   9.103   6.858 -0.1559 -0.1271  0.0438
  751MOL0     C 1290  15.002   9.151   6.810 -0.7500 -0.0405  0.6191
  751MOL0     C 1291  15.121   9.099   6.902  0.3197 -1.1578 -0.2644
  751MOL0     C 1292  15.134   8.948   6.888 -0.3078  0.5711  0.0878
  751MOL0     C 1293  15.253   8.888   6.954 -0.2484 -0.2001  0.1038
  751MOL0    Cl 1294  15.246   8.903   7.138 -0.3011  0.4896  0.1431
  751MOL0     C 1295  14.287   9.053   6.545 -0.8738  0.4651  0.0811
  751MOL0     C 1296  14.174   9.070   6.473 -0.0680  0.0719  0.0070
  751MOL0     O 1297  14.084   8.920   6.140  0.2804 -0.5648  0.0201
  751MOL0     C 1298  13.767   9.082   6.192 -1.4393  0.0291 -0.6661
  751MOL0     C 1299  13.631   9.074   6.153 -0.2511  0.0300  0.2657
  751MOL0     N 1300  12.923   9.278   5.857 -0.3930  0.0992 -0.1670
  751MOL0     N 1301  12.814   9.327   5.816 -0.1786  0.1639  0.3228
  751MOL0     C 1302  11.737   9.089   5.264  0.2979 -0.5191  0.9484
  751MOL0     C 1303  11.617   9.063   5.188 -0.2024 -0.0076 -0.3695
  751MOL0     C 1304  11.175   8.918   5.152  0.2864 -0.5333 -0.1352
  751MOL0     C 1305  11.047   8.924   5.212  0.4437 -0.4154  0.7205
  751MOL0     C 1306  10.943   8.960   5.123  0.1788 -1.1704 -0.6779
  751MOL0     C 1307  10.945   8.975   4.992 -0.1288 -1.6988  0.4524
  751MOL0     O 1308  10.835   9.000   4.924 -0.1384  0.5931  0.0690
  751MOL0     C 1309  10.857   8.998   4.780 -0.5115  0.6543  0.6551
  751MOL0     C 1310  10.737   9.077   4.722 -0.0572 -1.0601  0.4454
  751MOL0     C 1311  10.623   8.985   4.683  0.1415 -0.2237 -0.0598
  751MOL0     C 1312  10.491   9.058   4.684 -0.7705 -0.0245 -0.3209
  751MOL0     C 1313  10.387   8.958   4.657  0.9684  0.2598 -0.7269
  751MOL0     C 1314  10.292   8.874   4.644 -0.9733 -0.5184  0.6112
  751MOL0     C 1315  11.067   8.937   4.937  0.7633  0.8192  0.0594
  751MOL0     C 1316  11.186   8.908   5.012  0.1918 -0.2361 -0.0190
  751MOL0     C 1317  11.307   8.867   4.933  0.5030  0.3282  0.4897
  751MOL0     H 1318  11.420   8.994   5.451 -1.7462  2.5098 -2.5964
  751MOL0     H 1319  11.627   9.024   5.583 -0.0881 -1.0573 -0.0079
  751MOL0     H 1320  11.837   9.078   5.672  1.5644  0.3868  1.3526
  751MOL0     H 1321  11.900   8.944   5.575 -0.1096  0.7334  1.0637
  751MOL0     H 1322  12.060   9.019   5.706  0.6866 -2.7429 -3.4717
  751MOL0     H 1323  12.019   9.191   5.680 -2.5615 -0.2699 -0.6509
  751MOL0     H 1324  12.096   9.198   5.448  1.0979 -1.0715 -3.1916
  751MOL0     H 1325  12.120   9.025   5.441  0.3255  1.1189  0.0783
  751MOL0     H 1326  12.265   9.214   5.623 -2.7243  1.5144 -0.8525
  751MOL0     H 1327  12.293   9.029   5.609 -2.3704 -0.7517  0.4804
  751MOL0     H 1328  12.426   9.051   5.430  1.3280  1.9714  2.0414
  751MOL0     H 1329  12.314   9.163   5.346 -0.0373  1.4295 -0.4445
  751MOL0     H 1330  12.509   9.299   5.380 -0.7674 -0.6987 -0.2197
  751MOL0     H 1331  12.403   9.336   5.517  0.2197  0.2236 -0.5848
  751MOL0     H 1332  12.625   9.127   5.517 -0.9194 -0.8131  0.1050
  751MOL0     H 1333  12.529   9.168   5.657 -1.4373  0.7789 -1.2833
  751MOL0     H 1334  12.746   9.333   5.523  1.4551  0.9089  1.4207
  751MOL0     H 1335  12.629   9.401   5.644  0.4522 -1.4125 -0.0373
  751MOL0     H 1336  12.878   9.089   5.598  1.2154 -0.0777  0.6947
  751MOL0     H 1337  13.049   8.984   5.794  1.2722 -0.3869  3.2046
  751MOL0     H 1338  13.145   9.116   5.712 -1.7790 -0.7791 -2.0068
  751MOL0     H 1339  13.170   9.233   5.904 -4.2954  1.2985 -1.4479
  751MOL0     H 1340  13.086   9.117   6.008 -1.5881  0.8650 -0.7899
  751MOL0     H 1341  13.324   9.064   5.818  3.1812 -0.1034  0.9243
  751MOL0     H 1342  13.239   8.938   5.909 -0.9409  0.0805 -2.9926
  751MOL0     H 1343  13.360   9.006   6.120  2.8025 -0.7013  0.0903
  751MOL0     H 1344  13.389   9.171   6.040  3.8210 -0.0110 -0.3921
  751MOL0     H 1345  13.675   8.904   5.870 -0.6413 -1.6569  2.5292
  751MOL0     H 1346  13.922   8.907   5.942 -0.8997 -1.2279 -1.0859
  751MOL0     H 1347  14.305   9.105   6.169  0.0170  1.6385 -1.2708
  751MOL0     H 1348  14.509   9.059   6.298 -1.0804  1.1425 -1.2980
  751MOL0     H 1349  14.541   9.214   6.615  3.1632  0.0216  0.6405
  751MOL0     H 1350  14.496   9.093   6.733 -1.6010  1.1626  0.2370
  751MOL0     H 1351  14.720   8.981   6.676  0.8069  0.3827 -1.7223
  751MOL0     H 1352  14.762   9.129   6.594 -0.2566 -1.3840 -0.5979
  751MOL0     H 1353  14.762   9.276   6.775  0.6775 -0.0134 -0.4671
  751MOL0     H 1354  14.662   9.161   6.874 -2.7067 -1.4606 -2.7267
  751MOL0     H 1355  14.861   8.996   6.834 -2.4708  0.1354 -1.1148
  751MOL0     H 1356  14.857   9.109   6.967  0.6171  0.0123  0.0895
  751MOL0     H 1357  15.005   9.261   6.810  1.4901 -0.0167 -1.6227
  751MOL0     H 1358  15.010   9.109   6.710 -1.9111  2.6296 -0.7078
  751MOL0     H 1359  15.212   9.158   6.887 -0.4564 -0.0175 -0.6380
  751MOL0     H 1360  15.098   9.131   7.004 -1.1196  3.1684 -1.7183
  751MOL0     H 1361  15.152   8.929   6.782 -1.2481  2.4134 -0.4445
  751MOL0     H 1362  15.041   8.901   6.921  1.1402 -1.6415  1.2522
  751MOL0     H 1363  15.268   8.784   6.924  2.4041 -1.5845  5.1179
  751MOL0     H 1364  15.340   8.941   6.914 -1.5700  1.6714 -0.4416
  751MOL0     H 1365  14.253   9.047   6.648 -1.6417  1.5406 -0.0915
  751MOL0     H 1366  14.083   9.084   6.530 -0.1058  1.7023 -0.4067
  751MOL0     H 1367  13.798   9.120   6.289  0.9024 -3.6306  0.2453
  751MOL0     H 1368  13.547   9.113   6.212  1.0897  2.4682  0.6951
  751MOL0     H 1369  11.821   9.127   5.208 -3.3562  2.4397 -3.2198
  751MOL0     H 1370  11.621   9.062   5.079  0.4777 -5.4831 -0.5555
  751MOL0     H 1371  11.032   8.916   5.319 -2.5328 -1.3478  0.3288
  751MOL0     H 1372  10.854   8.994   5.174 -1.0697 -0.4084 -3.1920
  751MOL0     H 1373  10.862   8.897   4.739 -0.7206  0.6257  0.6968
  751MOL0     H 1374  10.945   9.055   4.749 -0.5989 -0.5587 -2.1721
  751MOL0     H 1375  10.770   9.126   4.629 -0.0862 -1.1128  0.4075
  751MOL0     H 1376  10.709   9.158   4.790  0.7448 -1.2550  1.0175
  751MOL0     H 1377  10.610   8.911   4.763 -0.8052 -1.6731 -1.4885
  751MOL0     H 1378  10.639   8.943   4.584  2.1945 -1.5619  0.7654
  751MOL0     H 1379  10.476   9.102   4.783  3.4840  0.5193  0.2539
  751MOL0     H 1380  10.487   9.144   4.616  0.3366  1.8652  1.8732
  751MOL0     H 1381  10.210   8.809   4.622 -0.1130 -1.5659  0.4685
  751MOL0     H 1382  11.088   8.925   4.831  0.9158  2.2254 -0.0889
  751MOL0     H 1383  11.390   8.939   4.944  1.1242 -0.1404 -0.9953
  751MOL0     H 1384  11.337   8.767   4.966  0.4138  0.4000  0.7940
  751MOL0     H 1385  11.287   8.872   4.826 -2.1123  0.6653  0.9168
  752MOL0     O 1386   3.060  10.207   2.651 -0.0674  0.1999  0.1270
  752MOL0     C 1387   3.020  10.152   2.757  0.2321 -0.1725  0.7079
  752MOL0     O 1388   3.082  10.132   2.873  0.0045 -0.4381  0.4370
  752MOL0     C 1389   3.219  10.154   2.874  0.1169  0.5158 -0.5772
  752MOL0     C 1390   3.294  10.037   2.897 -0.1123  0.3392  0.6201
  752MOL0     C 1391   3.432  10.041   2.921  0.6344  0.6074 -0.1576
  752MOL0     C 1392   3.494  10.170   2.920  0.1588  0.6417  0.4728
  752MOL0     O 1393   3.629  10.168   2.952 -0.0448 -0.1980  0.4206
  752MOL0     C 1394   3.692  10.284   3.008  0.0230 -0.1803  0.0723
  752MOL0     C 1395   3.647  10.306   3.150 -0.3515 -0.9249  0.1596
  752MOL0     C 1396   3.717  10.219   3.250 -0.6267  0.2016  0.3820
  752MOL0     C 1397   3.637  10.195   3.379  1.1810  0.2924  0.9492
  752MOL0     C 1398   3.699  10.071   3.448  1.6029  0.0178  0.2785
  752MOL0     C 1399   3.833  10.089   3.510 -0.7285  0.1462  0.0606
  752MOL0     C 1400   3.889   9.973   3.596  0.2741 -0.0007  0.3027
  752MOL0     C 1401   3.954  10.035   3.721 -0.7820 -0.4980  0.2130
  752MOL0     N 1402   4.021   9.930   3.807 -0.4602  0.3642 -0.1480
  752MOL0     C 1403   4.154   9.893   3.807  0.0510  0.2579 -0.0936
  752MOL0     C 1404   4.179   9.831   3.927  0.3343  0.2317  0.6452
  752MOL0     C 1405   4.306   9.794   3.984 -0.2594 -0.2396 -0.6604
  752MOL0     C 1406   4.408   9.745   3.879  0.0649  0.4978 -0.4667
  752MOL0     C 1407   4.544   9.703   3.938  0.1624 -0.4266  0.2059
  752MOL0     C 1408   4.637   9.825   3.946 -0.3518 -0.2173  0.0986
  752MOL0     O 1409   4.688   9.867   3.814 -0.1510 -0.1851 -0.0101
  752MOL0     C 1410   4.812   9.826   3.772 -0.0495 -0.0831  0.3454
  752MOL0     C 1411   4.853   9.883   3.649  0.4130 -0.1689  0.0358
  752MOL0     C 1412   4.976   9.840   3.599  0.1544 -0.1567 -0.2979
  752MOL0     C 1413   5.045   9.736   3.659  0.5350 -0.7472  0.1382
  752MOL0     C 1414   5.173   9.686   3.598  0.1933  0.1713  0.7190
  752MOL0     O 1415   5.226   9.571   3.646  0.0325  0.3071  0.5654
  752MOL0     C 1416   5.308   9.494   3.573 -0.3318 -0.4062  0.2779
  752MOL0     C 1417   5.308   9.488   3.435  0.0829  0.7929 -0.7926
  752MOL0     C 1418   5.418   9.421   3.379  0.3850  1.3194 -1.2594
  752MOL0     C 1419   5.522   9.358   3.447 -0.2758 -0.0186 -0.0129
  752MOL0     O 1420   5.627   9.299   3.373  0.0769  0.4835 -0.6225
  752MOL0     C 1421   5.742   9.262   3.450 -0.2335 -0.1093 -0.2899
  752MOL0     C 1422   5.837   9.200   3.338 -0.7176 -0.3355 -0.2493
  752MOL0     C 1423   5.929   9.105   3.401 -0.6598  0.4257  0.3837
  752MOL0     C 1424   5.992   9.005   3.292 -0.3150 -0.5264  0.7072
  752MOL0     C 1425   6.068   8.887   3.365  0.1579  0.1843  0.2996
  752MOL0     C 1426   6.191   8.933   3.444  0.2355  0.7984 -0.8214
  752MOL0     C 1427   6.268   8.811   3.500  0.1076  0.1812 -0.1118
  752MOL0     C 1428   6.417   8.835   3.534  0.8809 -0.3290 -0.4094
  752MOL0    Cl 1429   6.506   8.836   3.379  0.1044  0.1098  0.3937
  752MOL0     C 1430   5.513   9.363   3.587  0.9060 -0.2776 -0.4508
  752MOL0     C 1431   5.405   9.435   3.646 -0.7317  0.7631 -1.8374
  752MOL0     O 1432   5.222   9.752   3.503 -0.4762 -0.2527  0.4917
  752MOL0     C 1433   5.001   9.676   3.782 -0.0131  0.0023  0.7182
  752MOL0     C 1434   4.890   9.732   3.841  0.1918  0.4544 -0.6400
  752MOL0     N 1435   4.061   9.829   3.995  0.3391  0.4105  0.3889
  752MOL0     N 1436   3.975   9.885   3.923  0.4762  0.8059  0.2765
  752MOL0     C 1437   3.413  10.289   2.886 -1.1406  0.1637 -0.4160
  752MOL0     C 1438   3.281  10.277   2.875  1.0033  0.5941  0.0314
  752MOL0     C 1439   2.877  10.115   2.758 -0.9855  0.0468  0.3931
  752MOL0     C 1440   2.838  10.039   2.878 -0.0354 -0.4089 -0.2843
  752MOL0     C 1441   2.706  10.011   2.901 -0.9388 -0.0562 -0.0753
  752MOL0     C 1442   2.609  10.052   2.815 -0.1321 -0.3997  0.0759
  752MOL0     O 1443   2.483  10.003   2.836  0.1778  0.0743 -0.9367
  752MOL0     C 1444   2.401   9.997   2.719 -0.0503  0.2189 -0.1573
  752MOL0     C 1445   2.296  10.112   2.734  0.4951 -0.1149 -0.4108
  752MOL0     C 1446   2.181  10.097   2.631  0.6747 -0.5634  0.0448
  752MOL0     C 1447   2.204  10.062   2.487 -0.2984 -0.5812 -0.1300
  752MOL0     C 1448   2.293  10.160   2.418 -0.4276 -0.1657  1.0231
  752MOL0     C 1449   2.371  10.228   2.361 -0.1521  0.2038  0.0113
  752MOL0     C 1450   2.645  10.138   2.703 -0.0443  0.2660 -0.6273
  752MOL0     C 1451   2.780  10.164   2.666 -0.3630 -0.0161  0.2846
  752MOL0     C 1452   2.802  10.250   2.544  0.2192  0.2289  0.3336
  752MOL0     H 1453   3.242   9.942   2.902 -0.6497  0.6059  0.0926
  752MOL0     H 1454   3.492   9.951   2.928 -2.8230 -1.8507  0.4505
  752MOL0     H 1455   3.800  10.284   2.993  0.0356 -2.4540 -0.2839
  752MOL0     H 1456   3.662  10.369   2.947  1.1121 -0.7620 -1.3306
  752MOL0     H 1457   3.538  10.291   3.155 -0.9217  0.7041 -3.4888
  752MOL0     H 1458   3.684  10.404   3.179 -0.5592 -1.1919  1.3916
  752MOL0     H 1459   3.815  10.266   3.262  0.3939 -1.1842 -1.8160
  752MOL0     H 1460   3.743  10.124   3.202  0.0820  0.8164 -0.5095
  752MOL0     H 1461   3.656  10.280   3.445 -1.0746  2.9515 -1.5510
  752MOL0     H 1462   3.531  10.170   3.367  1.5046 -0.2653 -1.2732
  752MOL0     H 1463   3.635  10.045   3.532  1.6185  1.0542  0.6208
  752MOL0     H 1464   3.697   9.986   3.379 -1.5959 -0.1527  0.4403
  752MOL0     H 1465   3.911  10.115   3.438 -1.0289  1.3804  0.1512
  752MOL0     H 1466   3.824  10.180   3.571 -3.0365 -0.1306  0.1965
  752MOL0     H 1467   3.970   9.931   3.536 -1.1694  1.5892 -3.0198
  752MOL0     H 1468   3.814   9.896   3.614  0.2534 -0.5329 -1.7766
  752MOL0     H 1469   4.024  10.112   3.691  0.2215 -0.7407  1.7914
  752MOL0     H 1470   3.877  10.090   3.776  2.8553  3.0505  2.2199
  752MOL0     H 1471   4.222   9.909   3.725  2.6561 -3.0490  1.1810
  752MOL0     H 1472   4.345   9.880   4.039  0.1503 -1.2138  0.6041
  752MOL0     H 1473   4.301   9.717   4.062  3.0279  1.5735  1.6073
  752MOL0     H 1474   4.364   9.658   3.831 -0.5021  1.8998 -2.6045
  752MOL0     H 1475   4.419   9.819   3.799 -0.4042  0.7051 -0.3429
  752MOL0     H 1476   4.583   9.634   3.863  0.8279  2.9327 -2.8530
  752MOL0     H 1477   4.535   9.641   4.027  0.4314  1.5490  1.6841
  752MOL0     H 1478   4.716   9.817   4.021  0.9791  0.2624 -1.2160
  752MOL0     H 1479   4.590   9.915   3.988 -1.1067 -0.5967  0.0944
  752MOL0     H 1480   4.800   9.960   3.594  2.3016  2.1887  1.3010
  752MOL0     H 1481   5.013   9.871   3.502 -0.7818  1.0844 -0.2859
  752MOL0     H 1482   5.230   9.514   3.364 -0.9764 -3.1869 -1.3407
  752MOL0     H 1483   5.426   9.414   3.271  1.3867 -0.8559 -1.0938
  752MOL0     H 1484   5.794   9.347   3.494 -0.2804 -0.3798  0.2904
  752MOL0     H 1485   5.709   9.195   3.530  1.3436 -3.1799 -1.9795
  752MOL0     H 1486   5.776   9.146   3.264 -0.2612  2.4633 -2.8644
  752MOL0     H 1487   5.878   9.280   3.276 -3.6690  1.2280 -0.3298
  752MOL0     H 1488   6.010   9.152   3.456 -0.3398  0.3089  0.0148
  752MOL0     H 1489   5.874   9.045   3.475  0.6556 -1.1966  0.1154
  752MOL0     H 1490   6.058   9.067   3.232 -0.0867 -0.0172  1.4741
  752MOL0     H 1491   5.916   8.954   3.231  1.5839 -2.3904 -0.2200
  752MOL0     H 1492   6.084   8.793   3.311  0.6953  0.8413 -0.7176
  752MOL0     H 1493   6.001   8.849   3.442  0.2516 -1.6823 -0.4928
  752MOL0     H 1494   6.264   8.989   3.386  2.5765 -2.9922 -1.9426
  752MOL0     H 1495   6.166   8.983   3.538  0.1243  0.5145 -0.6984
  752MOL0     H 1496   6.259   8.727   3.431 -2.1095 -0.8099  1.2664
  752MOL0     H 1497   6.228   8.780   3.597 -3.0773  0.7949 -1.1191
  752MOL0     H 1498   6.424   8.926   3.594 -0.2901 -0.7149  0.3393
  752MOL0     H 1499   6.460   8.758   3.598 -1.8604 -0.7782  1.0260
  752MOL0     H 1500   5.581   9.315   3.656  0.8788 -0.6927 -0.7088
  752MOL0     H 1501   5.395   9.450   3.753  2.7545 -2.2150 -0.8939
  752MOL0     H 1502   5.058   9.601   3.835  1.3758 -0.0678 -0.7854
  752MOL0     H 1503   4.853   9.688   3.933 -0.5603  2.0716 -0.1313
  752MOL0     H 1504   3.458  10.387   2.874 -2.8317  1.0587  0.2666
  752MOL0     H 1505   3.204  10.352   2.858  0.0861 -0.3516 -0.1073
  752MOL0     H 1506   2.912   9.991   2.941  1.2807  1.2189 -0.5201
  752MOL0     H 1507   2.681   9.938   2.977  0.9008  0.2308  0.8702
  752MOL0     H 1508   2.352   9.899   2.716  1.5702 -0.6155 -1.6269
  752MOL0     H 1509   2.464  10.000   2.629 -0.0051 -3.5435 -0.4233
  752MOL0     H 1510   2.340  10.212   2.735 -2.5819  1.3501 -0.2518
  752MOL0     H 1511   2.265  10.096   2.838  1.5425 -0.7777 -0.1866
  752MOL0     H 1512   2.125  10.190   2.620 -2.0924 -1.9174  1.6854
  752MOL0     H 1513   2.110  10.028   2.678  1.4139 -1.8755 -0.7061
  752MOL0     H 1514   2.256   9.966   2.482 -0.6131 -0.8038  0.6823
  752MOL0     H 1515   2.111  10.058   2.428  1.1206 -0.7986 -2.4842
  752MOL0     H 1516   2.440  10.301   2.325  3.9660 -3.8942 -1.3337
  752MOL0     H 1517   2.575  10.173   2.629  0.1525 -0.8828 -1.3862
  752MOL0     H 1518   2.830  10.348   2.584  0.6145  1.5450 -2.8258
  752MOL0     H 1519   2.884  10.206   2.485  1.0366  1.8441  0.2239
  752MOL0     H 1520   2.709  10.252   2.486 -0.1900 -1.4691  0.8701
  753MOL0     O 1521   0.027   1.686   2.322  0.1203 -0.0858 -0.1310
  753MOL0     C 1522   0.016   1.771   2.241  0.7477 -0.4236 -0.4314
  753MOL0     O 1523   0.121   1.854   2.210  0.3613 -0.7859 -0.0788
  753MOL0     C 1524   0.247   1.811   2.237  0.4935 -0.0543  0.4653
  753MOL0     C 1525   0.299   1.791   2.365 -0.4644  0.1951  0.2766
  753MOL0     C 1526   0.435   1.760   2.379 -0.5010  0.0542  0.5119
  753MOL0     C 1527   0.519   1.728   2.265 -0.4459  0.3507  0.0405
  753MOL0     O 1528   0.646   1.686   2.297  0.3177 -0.4178  0.1704
  753MOL0     C 1529   0.762   1.719   2.225  0.3832  0.2953 -0.2335
  753MOL0     C 1530   0.865   1.794   2.314  0.1355  0.6823 -0.4051
  753MOL0     C 1531   1.007   1.797   2.243  0.1455  0.2068 -0.0484
  753MOL0     C 1532   1.116   1.852   2.333  0.6538  0.6732  0.2469
  753MOL0     C 1533   1.256   1.836   2.279 -0.3944  0.0090  0.1992
  753MOL0     C 1534   1.293   1.951   2.187 -0.1049 -0.4048  0.3960
  753MOL0     C 1535   1.434   1.936   2.143 -0.6431 -0.0340  0.0600
  753MOL0     C 1536   1.471   2.054   2.050  0.3158 -0.0661  0.1650
  753MOL0     N 1537   1.612   2.057   2.015 -0.4487  0.2606  0.7679
  753MOL0     C 1538   1.713   2.001   2.086 -0.3244 -0.3477 -0.4033
  753MOL0     C 1539   1.826   2.041   2.016 -0.5968  0.3156  0.2941
  753MOL0     C 1540   1.955   2.065   2.089  0.3681  0.4680  0.3458
  753MOL0     C 1541   2.069   2.105   1.997 -1.0285  0.4892 -0.6788
  753MOL0     C 1542   2.207   2.137   2.056  0.3541 -0.4773 -0.7211
  753MOL0     C 1543   2.315   2.097   1.961 -0.7627 -0.5531 -0.5878
  753MOL0     O 1544   2.441   2.116   2.037 -0.1729 -0.2920  0.8988
  753MOL0     C 1545   2.553   2.121   1.957 -0.3757  0.5421  0.1333
  753MOL0     C 1546   2.672   2.153   2.023  0.3194 -0.0387  0.1659
  753MOL0     C 1547   2.790   2.172   1.949  1.3469  0.5131 -0.5560
  753MOL0     C 1548   2.793   2.138   1.813  0.3763  0.2476 -0.8041
  753MOL0     C 1549   2.918   2.160   1.744  0.0474  0.1758 -1.0114
  753MOL0     O 1550   3.028   2.214   1.816  0.0263 -0.2301  0.6969
  753MOL0     C 1551   3.144   2.216   1.749 -0.7693 -0.0740  0.8014
  753MOL0     C 1552   3.199   2.334   1.690 -0.0262 -0.4610  0.4208
  753MOL0     C 1553   3.334   2.334   1.632  0.2552  0.3483  0.7006
  753MOL0     C 1554   3.402   2.212   1.635 -1.1930 -0.4594  0.1380
  753MOL0     O 1555   3.529   2.197   1.590 -0.7683  0.1503  0.4633
  753MOL0     C 1556   3.601   2.319   1.549  0.3204  1.0307 -0.1599
  753MOL0     C 1557   3.757   2.287   1.520  0.4374  0.0678  0.4183
  753MOL0     C 1558   3.821   2.413   1.463 -0.1355 -0.1877 -0.5746
  753MOL0     C 1559   3.885   2.503   1.574  0.0571  0.3789 -0.0187
  753MOL0     C 1560   4.008   2.446   1.651  0.1658  0.5352  0.4910
  753MOL0     C 1561   4.125   2.395   1.557  0.7972  0.3225 -0.1283
  753MOL0     C 1562   4.250   2.370   1.638  0.0627 -0.5833  0.3373
  753MOL0     C 1563   4.245   2.242   1.714 -0.3727 -0.3259  0.1602
  753MOL0    Cl 1564   4.295   2.111   1.596 -0.1722  0.0590  0.2826
  753MOL0     C 1565   3.346   2.100   1.697  0.8326  0.6344 -0.4582
  753MOL0     C 1566   3.221   2.098   1.757 -0.2313  0.0544  0.3529
  753MOL0     O 1567   2.914   2.132   1.626  0.8474  0.6161  0.3982
  753MOL0     C 1568   2.681   2.081   1.754 -0.5518 -0.2110 -0.0350
  753MOL0     C 1569   2.560   2.073   1.822  0.6088  0.6289 -0.5452
  753MOL0     N 1570   1.794   2.102   1.898 -0.0338 -0.7238 -0.3371
  753MOL0     N 1571   1.661   2.115   1.903 -0.2241  0.8468  0.2975
  753MOL0     C 1572   0.467   1.736   2.137  0.4113 -0.1224  0.3203
  753MOL0     C 1573   0.336   1.776   2.124  0.6835 -0.2190 -0.3238
  753MOL0     C 1574  -0.116   1.794   2.189 -0.3131  0.2429 -0.3924
  753MOL0     C 1575  -0.142   1.929   2.153 -0.1770 -0.4047 -0.5890
  753MOL0     C 1576  -0.265   1.970   2.098 -0.4592 -0.5391  0.0320
  753MOL0     C 1577  -0.369   1.879   2.080 -0.5400  0.4373  0.1588
  753MOL0     O 1578  -0.494   1.893   2.037  0.2124 -0.0591 -0.0155
  753MOL0     C 1579  -0.534   2.007   1.966 -0.3797 -0.0091  0.5864
  753MOL0     C 1580  -0.578   1.952   1.835  0.6388 -0.1477 -0.2712
  753MOL0     C 1581  -0.670   2.054   1.777  0.2804 -0.8966  0.0549
  753MOL0     C 1582  -0.749   2.017   1.650  0.0678 -0.1898 -0.0355
  753MOL0     C 1583  -0.667   2.023   1.532 -1.1866  0.9733 -0.1295
  753MOL0     C 1584  -0.591   2.010   1.436 -0.2923 -0.0385  0.3861
  753MOL0     C 1585  -0.342   1.740   2.118 -0.2636 -0.2065  0.7355
  753MOL0     C 1586  -0.218   1.694   2.164 -0.9589 -0.2611 -0.1026
  753MOL0     C 1587  -0.205   1.547   2.196  0.3711 -0.7543  0.3897
  753MOL0     H 1588   0.242   1.820   2.452  0.3588 -1.5310  1.4458
  753MOL0     H 1589   0.486   1.741   2.473 -0.8149  2.0375  1.1309
  753MOL0     H 1590   0.806   1.627   2.186  1.3286 -0.0090  1.4670
  753MOL0     H 1591   0.730   1.786   2.145 -2.8433 -1.2019 -0.3756
  753MOL0     H 1592   0.864   1.763   2.419 -1.4518  2.2855  0.1198
  753MOL0     H 1593   0.825   1.896   2.326 -2.9265 -0.5064  0.5136
  753MOL0     H 1594   1.005   1.867   2.158 -1.4659  4.5522  3.1986
  753MOL0     H 1595   1.033   1.702   2.194  2.8532  1.3449 -1.0494
  753MOL0     H 1596   1.107   1.960   2.346 -1.4936  0.6239 -0.3911
  753MOL0     H 1597   1.093   1.797   2.425 -2.3429  1.8101  0.2912
  753MOL0     H 1598   1.322   1.837   2.366  0.4274  0.6423 -0.4113
  753MOL0     H 1599   1.259   1.747   2.215 -0.1060  1.8751 -2.5788
  753MOL0     H 1600   1.224   1.963   2.103 -0.1811 -1.4442  0.3032
  753MOL0     H 1601   1.299   2.041   2.250  0.4143 -1.2713  1.6258
  753MOL0     H 1602   1.432   1.842   2.086 -2.1017  0.9469 -1.6141
  753MOL0     H 1603   1.499   1.927   2.230  0.1803 -0.3508 -0.5720
  753MOL0     H 1604   1.412   2.037   1.960  0.8401 -1.6361  0.0739
  753MOL0     H 1605   1.448   2.149   2.098 -0.2001  0.3504 -0.8850
  753MOL0     H 1606   1.696   1.968   2.188  0.0816  0.2627 -0.1327
  753MOL0     H 1607   1.942   2.146   2.162 -1.3801 -0.8107  1.5216
  753MOL0     H 1608   1.994   1.983   2.150 -0.7857 -1.1229 -0.9780
  753MOL0     H 1609   2.082   2.036   1.914  0.1568  0.2503 -0.3094
  753MOL0     H 1610   2.041   2.196   1.944 -4.4609 -1.4190 -2.4388
  753MOL0     H 1611   2.217   2.084   2.151 -3.0142  0.2176  0.1786
  753MOL0     H 1612   2.209   2.246   2.068 -2.2098 -0.4715  0.1984
  753MOL0     H 1613   2.320   2.166   1.877  0.8358  1.2747  0.9098
  753MOL0     H 1614   2.293   1.992   1.936 -0.4047 -1.2640  1.8257
  753MOL0     H 1615   2.676   2.157   2.132  0.5610 -3.0856  0.3612
  753MOL0     H 1616   2.878   2.203   2.005  3.0450 -2.4698 -1.3340
  753MOL0     H 1617   3.156   2.433   1.706  0.5297 -0.0808 -0.3626
  753MOL0     H 1618   3.373   2.428   1.595 -0.7058 -0.1496 -1.7082
  753MOL0     H 1619   3.558   2.355   1.455 -1.6330  2.0850  1.0571
  753MOL0     H 1620   3.600   2.393   1.629 -2.2558 -1.2853  2.1734
  753MOL0     H 1621   3.816   2.237   1.597 -0.3325 -1.5088  0.0326
  753MOL0     H 1622   3.771   2.207   1.447 -1.7871 -0.4161  0.4351
  753MOL0     H 1623   3.893   2.390   1.384  0.0678 -1.7668  0.0420
  753MOL0     H 1624   3.741   2.466   1.411  1.1682  0.3070 -2.1397
  753MOL0     H 1625   3.806   2.538   1.641 -0.7369  1.0280 -1.2620
  753MOL0     H 1626   3.925   2.597   1.536 -0.2693  0.7322  0.4905
  753MOL0     H 1627   3.971   2.360   1.706 -0.3405 -1.8993 -3.3029
  753MOL0     H 1628   4.052   2.520   1.719  0.4730  1.5155 -0.7144
  753MOL0     H 1629   4.084   2.306   1.508  0.8142 -0.0257  0.4861
  753MOL0     H 1630   4.151   2.474   1.486  1.5580  2.5649  2.4669
  753MOL0     H 1631   4.263   2.442   1.720 -0.0737  0.3801 -0.4648
  753MOL0     H 1632   4.333   2.370   1.567 -2.4293 -1.8203 -2.8780
  753MOL0     H 1633   4.315   2.253   1.797  1.1106 -1.0887 -0.9464
  753MOL0     H 1634   4.148   2.223   1.761 -0.5374 -0.8351 -0.3615
  753MOL0     H 1635   3.406   2.010   1.704  0.3405  0.0798 -2.5651
  753MOL0     H 1636   3.178   2.009   1.802 -2.2495  0.7525 -0.0815
  753MOL0     H 1637   2.677   2.049   1.651  0.0570  2.2468 -0.8874
  753MOL0     H 1638   2.474   2.025   1.776  0.6524 -0.7138  0.7132
  753MOL0     H 1639   0.515   1.699   2.047 -0.3024 -0.9724  0.2731
  753MOL0     H 1640   0.292   1.784   2.026  2.9930  1.2374 -1.3391
  753MOL0     H 1641  -0.069   2.005   2.178 -0.6687 -0.7804  2.4879
  753MOL0     H 1642  -0.278   2.076   2.083  1.4065 -0.0091  1.6854
  753MOL0     H 1643  -0.452   2.080   1.962 -0.9063  0.6171  1.1030
  753MOL0     H 1644  -0.618   2.056   2.014 -2.8032 -2.4065 -0.9107
  753MOL0     H 1645  -0.644   1.866   1.843 -0.9680  0.9299 -1.3222
  753MOL0     H 1646  -0.493   1.915   1.776  0.4562  1.7576 -1.8729
  753MOL0     H 1647  -0.614   2.140   1.739  1.1821 -1.8196 -0.7515
  753MOL0     H 1648  -0.730   2.107   1.851 -0.2522 -0.9299 -0.3526
  753MOL0     H 1649  -0.798   1.919   1.653  1.4173 -0.8749  1.0297
  753MOL0     H 1650  -0.823   2.097   1.645  0.3509  0.2664  2.0692
  753MOL0     H 1651  -0.511   2.020   1.365 -1.9694  2.5655 -1.3171
  753MOL0     H 1652  -0.419   1.671   2.086  1.0789 -0.6353 -1.8213
  753MOL0     H 1653  -0.255   1.481   2.124 -1.0333 -1.1364  1.6559
  753MOL0     H 1654  -0.100   1.518   2.185  0.2577 -0.2504 -3.3903
  753MOL0     H 1655  -0.228   1.523   2.300 -0.8954 -0.7933  0.1220
  754MOL0     O 1656   6.552   4.291   2.087  0.7744  0.2242  0.3093
  754MOL0     C 1657   6.505   4.245   1.982 -0.1317 -0.5010 -0.5366
  754MOL0     O 1658   6.553   4.133   1.919 -0.8016  0.0076 -0.4829
  754MOL0     C 1659   6.653   4.055   1.979 -0.2002 -0.1196 -0.5347
  754MOL0     C 1660   6.781   4.042   1.915  0.6483 -0.3930 -0.1717
  754MOL0     C 1661   6.887   3.972   1.977 -0.2124 -0.4231  0.6173
  754MOL0     C 1662   6.868   3.924   2.109 -0.4081  0.5236  0.3491
  754MOL0     O 1663   6.974   3.875   2.189  0.1352 -0.0411 -0.5939
  754MOL0     C 1664   7.102   3.916   2.149 -0.1543  0.2527  0.4948
  754MOL0     C 1665   7.202   3.893   2.262  0.4715 -1.0597  0.3690
  754MOL0     C 1666   7.345   3.932   2.225  0.5049  0.6632  0.0917
  754MOL0     C 1667   7.430   3.812   2.183  0.3381  0.1074  0.4042
  754MOL0     C 1668   7.579   3.846   2.176  0.1795 -0.6850 -0.5899
  754MOL0     C 1669   7.655   3.727   2.114  0.0304 -0.2473 -0.2031
  754MOL0     C 1670   7.812   3.759   2.151 -0.5672  0.4775 -0.2616
  754MOL0     C 1671   7.919   3.655   2.096  0.4181 -0.0008  0.6374
  754MOL0     N 1672   7.891   3.523   2.141 -0.0282 -0.5525  0.1829
  754MOL0     C 1673   7.813   3.434   2.067 -0.2682 -1.1213 -0.0959
  754MOL0     C 1674   7.774   3.337   2.154  0.7069 -0.3779 -0.3543
  754MOL0     C 1675   7.703   3.207   2.120 -0.1777 -0.1437 -0.1945
  754MOL0     C 1676   7.610   3.144   2.222  0.0460  0.5019 -0.3416
  754MOL0     C 1677   7.556   3.018   2.148 -0.1437 -0.3092 -0.6191
  754MOL0     C 1678   7.458   2.929   2.239  0.0910  0.7710  0.0438
  754MOL0     O 1679   7.372   3.003   2.319  0.4779 -0.3764  0.2068
  754MOL0     C 1680   7.274   2.934   2.393 -0.5934 -0.1413 -0.1148
  754MOL0     C 1681   7.269   2.796   2.408 -0.1217  0.9863  0.2825
  754MOL0     C 1682   7.166   2.742   2.486  0.0337  0.1995 -0.1681
  754MOL0     C 1683   7.066   2.817   2.548  0.3440 -0.6972 -0.1110
  754MOL0     C 1684   6.956   2.758   2.623 -0.3297  0.2906 -0.0479
  754MOL0     O 1685   6.962   2.629   2.658 -0.1595 -1.1110 -0.3060
  754MOL0     C 1686   6.867   2.578   2.736  0.0452  0.9180  0.3605
  754MOL0     C 1687   6.763   2.510   2.674 -0.4777  0.0114 -0.1671
  754MOL0     C 1688   6.660   2.456   2.756 -0.1110 -0.1472 -0.0749
  754MOL0     C 1689   6.654   2.475   2.891 -0.3275  0.0483 -1.3730
  754MOL0     O 1690   6.540   2.425   2.953  0.1270  0.0061 -0.3694
  754MOL0     C 1691   6.539   2.413   3.095 -0.1183 -0.8415  0.1307
  754MOL0     C 1692   6.419   2.332   3.143  0.9361  0.3663 -0.4241
  754MOL0     C 1693   6.287   2.415   3.125 -0.4806 -0.2399 -0.3044
  754MOL0     C 1694   6.161   2.327   3.154 -0.2192 -0.9353  0.5133
  754MOL0     C 1695   6.146   2.338   3.302  0.2070  0.1920 -0.0408
  754MOL0     C 1696   6.027   2.273   3.355  0.1823  0.3631  0.2022
  754MOL0     C 1697   5.898   2.364   3.340 -0.1155 -0.0437 -0.4605
  754MOL0     C 1698   5.765   2.291   3.352 -0.0902  1.0329 -0.2682
  754MOL0    Cl 1699   5.727   2.216   3.184  0.5425 -0.1314  0.2642
  754MOL0     C 1700   6.756   2.539   2.954  0.1420  0.3519  0.4771
  754MOL0     C 1701   6.864   2.590   2.877  0.3642  0.2244 -0.0160
  754MOL0     O 1702   6.860   2.834   2.638 -0.0440  0.4625 -0.8562
  754MOL0     C 1703   7.062   2.961   2.524  0.1563  0.8589  0.2057
  754MOL0     C 1704   7.173   3.016   2.449  0.3811  0.2582  0.0943
  754MOL0     N 1705   7.831   3.365   2.280  0.4026 -0.2940  0.7037
  754MOL0     N 1706   7.896   3.475   2.271 -0.3287  0.6014 -0.7692
  754MOL0     C 1707   6.752   3.946   2.173  0.4298 -0.0434 -0.5907
  754MOL0     C 1708   6.636   4.004   2.102  0.2006  0.5527 -0.5193
  754MOL0     C 1709   6.390   4.318   1.917  0.3578  0.1899 -0.5433
  754MOL0     C 1710   6.324   4.426   1.986 -0.3542  0.3433  0.1013
  754MOL0     C 1711   6.222   4.507   1.928 -0.9153 -0.3719  0.7997
  754MOL0     C 1712   6.179   4.487   1.796 -1.9790 -0.1670  0.2164
  754MOL0     O 1713   6.082   4.553   1.731 -0.5694 -0.4465 -0.0277
  754MOL0     C 1714   6.046   4.681   1.784  0.1542 -0.0224  0.0236
  754MOL0     C 1715   5.929   4.757   1.711  0.3540  0.2948 -0.4283
  754MOL0     C 1716   5.797   4.682   1.751  0.1583 -0.0002 -0.3228
  754MOL0     C 1717   5.676   4.758   1.699 -0.6359 -1.1008 -0.1567
  754MOL0     C 1718   5.560   4.679   1.726  0.6446 -0.0585  1.1230
  754MOL0     C 1719   5.443   4.641   1.744  0.7649  0.7302 -0.0338
  754MOL0     C 1720   6.243   4.389   1.724 -0.4041  0.2279  0.3082
  754MOL0     C 1721   6.337   4.300   1.784 -0.3975 -0.5031 -0.6393
  754MOL0     C 1722   6.391   4.192   1.697  0.5631 -0.0325 -0.3475
  754MOL0     H 1723   6.803   4.096   1.823 -0.1149  0.7368  0.2876
  754MOL0     H 1724   6.976   3.940   1.923 -0.0035  1.3410 -0.1507
  754MOL0     H 1725   7.144   3.863   2.063 -1.0469  0.7940 -0.2935
  754MOL0     H 1726   7.114   4.023   2.129 -0.5977  0.1534 -0.3520
  754MOL0     H 1727   7.202   3.790   2.299 -0.2705 -2.2530 -2.7015
  754MOL0     H 1728   7.177   3.951   2.352 -1.3053 -3.6142  1.6264
  754MOL0     H 1729   7.393   3.967   2.317  3.7253  2.5742 -2.1037
  754MOL0     H 1730   7.353   4.014   2.154 -1.0569  0.6165 -0.1636
  754MOL0     H 1731   7.419   3.738   2.263 -0.5283 -1.1396 -0.8191
  754MOL0     H 1732   7.386   3.772   2.091  1.1008  1.3558 -0.5406
  754MOL0     H 1733   7.582   3.930   2.106 -0.5803 -1.0698 -1.0876
  754MOL0     H 1734   7.623   3.885   2.269  0.2076  1.0340 -1.2875
  754MOL0     H 1735   7.619   3.635   2.159  2.0797 -0.9552  0.0689
  754MOL0     H 1736   7.661   3.721   2.005  0.0764  4.6817 -0.7145
  754MOL0     H 1737   7.827   3.762   2.260  1.0918 -0.2181 -0.4273
  754MOL0     H 1738   7.852   3.849   2.106  1.7966 -0.7711 -0.8327
  754MOL0     H 1739   7.923   3.655   1.987  2.1326 -1.2788  0.6562
  754MOL0     H 1740   8.014   3.692   2.135  0.0950 -0.1821  1.6426
  754MOL0     H 1741   7.780   3.451   1.965  2.2933 -1.1325 -1.0160
  754MOL0     H 1742   7.654   3.228   2.024  0.3086 -2.0408 -0.8930
  754MOL0     H 1743   7.778   3.132   2.093  0.3992  0.3405  0.0455
  754MOL0     H 1744   7.660   3.105   2.311 -1.3640 -1.9950 -0.5530
  754MOL0     H 1745   7.533   3.217   2.246  0.2576 -0.0463  2.3434
  754MOL0     H 1746   7.637   2.956   2.109 -0.1706 -1.4304  1.0353
  754MOL0     H 1747   7.496   3.045   2.060 -3.0971  0.5205  1.5090
  754MOL0     H 1748   7.525   2.873   2.305  0.6650  1.3265 -0.0590
  754MOL0     H 1749   7.401   2.861   2.176  2.5306  0.3038 -1.8114
  754MOL0     H 1750   7.349   2.730   2.375 -0.1627  1.6861 -1.3388
  754MOL0     H 1751   7.161   2.634   2.491  0.5628  0.2080  0.6821
  754MOL0     H 1752   6.753   2.503   2.566 -0.7136  2.7217 -0.3822
  754MOL0     H 1753   6.573   2.402   2.718  0.4279 -0.3287 -1.0801
  754MOL0     H 1754   6.629   2.359   3.126  1.4015  1.4396  0.0152
  754MOL0     H 1755   6.532   2.507   3.151  0.4650 -3.0654  4.3081
  754MOL0     H 1756   6.420   2.236   3.091 -0.0691 -0.6194  1.2986
  754MOL0     H 1757   6.438   2.309   3.248  1.2177  0.5377 -0.4344
  754MOL0     H 1758   6.299   2.503   3.189  1.0980 -1.0447  0.5775
  754MOL0     H 1759   6.286   2.447   3.021  0.2485 -1.2224 -0.6318
  754MOL0     H 1760   6.166   2.224   3.119 -2.3279 -0.6555 -0.8009
  754MOL0     H 1761   6.074   2.367   3.102  1.9662  1.0635 -1.9387
  754MOL0     H 1762   6.151   2.439   3.344  0.7826 -0.5792  1.8766
  754MOL0     H 1763   6.232   2.288   3.349 -0.0230 -0.9509 -0.7868
  754MOL0     H 1764   6.005   2.186   3.293  0.4586  1.2067 -1.1217
  754MOL0     H 1765   6.038   2.253   3.462  2.4453  0.7841  0.0952
  754MOL0     H 1766   5.889   2.415   3.243 -0.8369  0.1929 -0.2739
  754MOL0     H 1767   5.889   2.434   3.424  0.1775 -2.3226  1.5639
  754MOL0     H 1768   5.761   2.211   3.426 -0.8123  0.0632 -1.3384
  754MOL0     H 1769   5.695   2.369   3.384  0.5948  1.6059 -0.1358
  754MOL0     H 1770   6.738   2.558   3.059 -0.0617  2.7846  0.0521
  754MOL0     H 1771   6.943   2.641   2.932  0.6322 -0.8446  0.6204
  754MOL0     H 1772   6.981   3.027   2.553 -0.6594  0.9492 -2.0474
  754MOL0     H 1773   7.192   3.123   2.440 -0.1979  0.2067 -2.5308
  754MOL0     H 1774   6.741   3.898   2.270 -4.1522  0.2078 -0.7661
  754MOL0     H 1775   6.535   4.016   2.140 -1.8352 -1.1931 -4.6622
  754MOL0     H 1776   6.346   4.448   2.090 -1.0512  1.5480  0.0109
  754MOL0     H 1777   6.170   4.573   1.996  2.2612  1.0108  2.0654
  754MOL0     H 1778   6.130   4.750   1.785  1.0348 -1.0624 -0.4834
  754MOL0     H 1779   6.020   4.666   1.889  1.1693 -0.4839  0.2159
  754MOL0     H 1780   5.935   4.763   1.602  5.1383  2.0849 -0.2993
  754MOL0     H 1781   5.922   4.861   1.746  0.2719  0.2579 -0.3324
  754MOL0     H 1782   5.790   4.658   1.857  1.8902 -2.0083 -0.5991
  754MOL0     H 1783   5.803   4.581   1.710  2.2527 -1.0397  2.3267
  754MOL0     H 1784   5.676   4.855   1.750  1.2173 -0.8516 -0.5523
  754MOL0     H 1785   5.686   4.768   1.591 -0.6256  1.4622  0.0187
  754MOL0     H 1786   5.337   4.633   1.754  0.7391  1.8864  0.8300
  754MOL0     H 1787   6.219   4.387   1.619  2.4952  2.0644 -0.4952
  754MOL0     H 1788   6.378   4.089   1.730  1.1445 -1.0987 -3.1165
  754MOL0     H 1789   6.344   4.191   1.598  2.4056 -2.3472 -1.3047
  754MOL0     H 1790   6.497   4.210   1.674  0.0571  1.3486 -1.7496
  755MOL0     O 1791   9.441   5.657   5.494  0.6164  0.0728 -0.5308
  755MOL0     C 1792   9.418   5.645   5.372  0.1542  1.1048  0.4882
  755MOL0     O 1793   9.514   5.644   5.267 -0.0496  0.0121  0.4029
  755MOL0     C 1794   9.644   5.699   5.297  0.2994 -0.2013 -0.4566
  755MOL0     C 1795   9.660   5.839   5.303 -0.5538 -0.4205  0.7286
  755MOL0     C 1796   9.791   5.885   5.326  1.1645 -0.3669  0.4754
  755MOL0     C 1797   9.901   5.803   5.354  0.9119 -0.3111  0.0878
  755MOL0     O 1798  10.022   5.860   5.371  0.1694  1.0573  0.3589
  755MOL0     C 1799  10.128   5.807   5.291 -0.1883 -0.0504 -0.0474
  755MOL0     C 1800  10.231   5.922   5.266  0.5047 -0.2824 -0.0426
  755MOL0     C 1801  10.368   5.857   5.232 -0.0700  0.8716  0.0277
  755MOL0     C 1802  10.365   5.753   5.121  0.5108 -0.5673 -0.5497
  755MOL0     C 1803  10.514   5.702   5.105  0.1833  0.3526 -0.0319
  755MOL0     C 1804  10.525   5.580   5.003  0.8184  0.7467  0.4544
  755MOL0     C 1805  10.651   5.504   5.003 -0.5022 -1.1979 -0.3565
  755MOL0     C 1806  10.759   5.594   4.933 -1.4445 -0.0387  0.0757
  755MOL0     N 1807  10.894   5.531   4.930  0.0849  0.2261 -0.5325
  755MOL0     C 1808  10.984   5.543   5.025  1.0717  0.4770 -0.4638
  755MOL0     C 1809  11.092   5.461   4.996  0.4786  0.0355  0.9774
  755MOL0     C 1810  11.237   5.463   5.056  0.7091 -0.1615  0.7562
  755MOL0     C 1811  11.324   5.550   4.970  0.3298 -0.3467 -0.4765
  755MOL0     C 1812  11.455   5.572   5.047  0.9542 -0.8778  0.9465
  755MOL0     C 1813  11.543   5.647   4.939 -0.0420  0.1670 -0.2379
  755MOL0     O 1814  11.658   5.711   5.006  0.4645  0.2065 -0.4684
  755MOL0     C 1815  11.770   5.647   5.018 -0.2484  0.2590 -0.4878
  755MOL0     C 1816  11.783   5.506   4.998 -0.3885  0.1032  0.6127
  755MOL0     C 1817  11.907   5.445   5.008  0.2359 -0.5757 -0.4912
  755MOL0     C 1818  12.017   5.517   5.053 -0.1326 -0.1751 -0.2770
  755MOL0     C 1819  12.149   5.451   5.074 -0.1917 -0.7292  0.6061
  755MOL0     O 1820  12.263   5.528   5.025 -0.1543 -0.2956 -0.1540
  755MOL0     C 1821  12.396   5.488   5.047  0.3391  0.5447  0.2021
  755MOL0     C 1822  12.443   5.367   5.103 -0.2034 -0.1877 -0.6895
  755MOL0     C 1823  12.579   5.343   5.113  0.1280  0.3863  0.5348
  755MOL0     C 1824  12.674   5.436   5.062  0.0886  0.7817 -0.8142
  755MOL0     O 1825  12.811   5.418   5.070 -0.3670  1.0438  0.1888
  755MOL0     C 1826  12.874   5.461   5.187  0.4578  0.1545  0.4656
  755MOL0     C 1827  13.026   5.443   5.177  0.0579  0.9777 -0.1621
  755MOL0     C 1828  13.111   5.528   5.086  0.2612 -0.7961 -0.5452
  755MOL0     C 1829  13.101   5.674   5.105 -0.1558 -0.3104 -0.1028
  755MOL0     C 1830  13.220   5.748   5.028  0.1664 -0.1277 -0.0410
  755MOL0     C 1831  13.239   5.890   5.075  0.0467 -0.7418 -0.0973
  755MOL0     C 1832  13.290   5.986   4.977 -0.7927  0.3652  0.2227
  755MOL0     C 1833  13.419   5.945   4.910  0.6128 -0.0967 -0.3910
  755MOL0    Cl 1834  13.535   5.884   5.035 -0.0978  0.3245 -0.5900
  755MOL0     C 1835  12.633   5.554   5.009  0.5694 -0.4747  0.1299
  755MOL0     C 1836  12.492   5.579   5.004  0.7116 -0.5322  0.3674
  755MOL0     O 1837  12.147   5.337   5.122 -0.2594  0.0968  0.6963
  755MOL0     C 1838  12.007   5.659   5.068 -0.7624 -1.2259  0.2072
  755MOL0     C 1839  11.880   5.720   5.059 -0.2923 -0.8929 -0.4089
  755MOL0     N 1840  11.054   5.388   4.879  0.3967  0.0506  0.5038
  755MOL0     N 1841  10.935   5.430   4.842 -0.4240  0.3678  0.2049
  755MOL0     C 1842   9.871   5.667   5.361 -0.4497 -0.3539  0.7094
  755MOL0     C 1843   9.746   5.615   5.343  0.3736  0.6005  0.8897
  755MOL0     C 1844   9.271   5.622   5.333 -0.4608 -0.2893 -0.4577
  755MOL0     C 1845   9.220   5.704   5.232  0.2844 -0.5644  0.1186
  755MOL0     C 1846   9.082   5.696   5.211 -0.4062 -0.2215  0.2149
  755MOL0     C 1847   9.003   5.623   5.282 -0.3385 -0.3044 -0.9276
  755MOL0     O 1848   8.861   5.628   5.272  0.0400  0.0532  0.0537
  755MOL0     C 1849   8.807   5.537   5.178 -0.3602 -0.1761 -0.8359
  755MOL0     C 1850   8.659   5.571   5.161  0.4273  0.8686  0.2797
  755MOL0     C 1851   8.568   5.554   5.291  0.4409 -0.0555 -0.0987
  755MOL0     C 1852   8.422   5.583   5.266  0.2216 -0.4135  1.1084
  755MOL0     C 1853   8.394   5.722   5.225 -0.2805 -0.0062  0.0102
  755MOL0     C 1854   8.370   5.830   5.175  0.3017 -0.3231  0.8760
  755MOL0     C 1855   9.047   5.539   5.378  0.2516  0.0496  0.7009
  755MOL0     C 1856   9.187   5.531   5.392  0.2396 -0.2423  0.1400
  755MOL0     C 1857   9.234   5.433   5.503  0.2911  0.5313  0.2555
  755MOL0     H 1858   9.587   5.916   5.282 -0.3428  0.1420  1.9866
  755MOL0     H 1859   9.801   5.993   5.318 -2.7171  0.3661  2.5768
  755MOL0     H 1860  10.170   5.722   5.346 -0.2989 -1.0507 -1.4429
  755MOL0     H 1861  10.102   5.758   5.197  3.6875 -0.5638 -1.0221
  755MOL0     H 1862  10.239   5.985   5.354 -1.6476  0.9989 -0.7105
  755MOL0     H 1863  10.184   5.983   5.188 -1.6358  1.7084  2.6430
  755MOL0     H 1864  10.405   5.809   5.323 -1.5997 -0.0777  0.1887
  755MOL0     H 1865  10.439   5.932   5.195 -1.1422  1.6046 -0.6096
  755MOL0     H 1866  10.297   5.669   5.131 -1.2916  1.0350  2.0471
  755MOL0     H 1867  10.333   5.806   5.032 -0.8813 -1.6132 -0.6961
  755MOL0     H 1868  10.573   5.787   5.073 -0.0680  0.7875  0.6378
  755MOL0     H 1869  10.553   5.667   5.201 -1.1313  0.6728  0.6442
  755MOL0     H 1870  10.445   5.511   5.032  1.8404 -1.2067 -1.0993
  755MOL0     H 1871  10.508   5.617   4.901 -0.5245 -0.8574  0.0537
  755MOL0     H 1872  10.646   5.408   4.951  2.7957 -1.0304 -1.1991
  755MOL0     H 1873  10.687   5.481   5.103 -2.2120 -1.5828  0.2129
  755MOL0     H 1874  10.730   5.602   4.828 -1.2903 -1.6199 -0.1108
  755MOL0     H 1875  10.760   5.693   4.980 -1.6225  0.9105 -1.8419
  755MOL0     H 1876  10.968   5.616   5.104  0.5611  0.6466 -0.7201
  755MOL0     H 1877  11.229   5.507   5.157  1.0145  0.7580  0.3908
  755MOL0     H 1878  11.278   5.362   5.065  0.8819 -0.0023  1.9360
  755MOL0     H 1879  11.336   5.484   4.883 -1.9496 -1.7371  0.1736
  755MOL0     H 1880  11.262   5.637   4.943 -0.1851 -0.3499  0.6545
  755MOL0     H 1881  11.497   5.475   5.075  2.2273 -0.9924 -1.1496
  755MOL0     H 1882  11.437   5.630   5.138  2.0246  0.4567  0.3564
  755MOL0     H 1883  11.482   5.726   4.893  0.8919  1.0956  0.0946
  755MOL0     H 1884  11.576   5.575   4.864  1.1086 -1.8513  2.0863
  755MOL0     H 1885  11.699   5.447   4.963 -0.8686  2.2813 -2.3480
  755MOL0     H 1886  11.913   5.338   4.989 -0.4970 -0.7577  0.2150
  755MOL0     H 1887  12.371   5.297   5.145  0.2093  0.3020  0.9084
  755MOL0     H 1888  12.619   5.255   5.162 -1.0732 -0.3042  0.3282
  755MOL0     H 1889  12.852   5.567   5.201 -2.6342 -0.2370 -0.7125
  755MOL0     H 1890  12.834   5.408   5.274  0.0985  0.6054  0.5789
  755MOL0     H 1891  13.068   5.455   5.277  0.7194 -2.9966  0.1598
  755MOL0     H 1892  13.051   5.339   5.159  0.2610  0.5033  2.4124
  755MOL0     H 1893  13.218   5.505   5.089  0.7392  1.2698 -0.2653
  755MOL0     H 1894  13.073   5.499   4.988 -2.2847 -0.2108  0.1996
  755MOL0     H 1895  13.119   5.688   5.212 -0.6371  3.7528 -0.3879
  755MOL0     H 1896  12.999   5.707   5.086 -0.6331 -0.8185  1.4163
  755MOL0     H 1897  13.205   5.745   4.920  0.6823  0.7343 -0.1499
  755MOL0     H 1898  13.315   5.697   5.047  0.4713  0.3104 -0.3685
  755MOL0     H 1899  13.144   5.940   5.100 -0.1987 -1.6926  0.9311
  755MOL0     H 1900  13.289   5.896   5.172 -1.8416 -1.0774  0.9509
  755MOL0     H 1901  13.310   6.083   5.023  0.4181 -0.2328  1.0177
  755MOL0     H 1902  13.214   5.990   4.899 -0.1874 -1.3598 -0.5011
  755MOL0     H 1903  13.405   5.861   4.842  1.5253 -1.3016  0.8500
  755MOL0     H 1904  13.456   6.032   4.854 -1.6267  2.2892  1.6044
  755MOL0     H 1905  12.704   5.630   4.976 -1.6292  1.2443 -0.9007
  755MOL0     H 1906  12.468   5.672   4.955  0.8473 -1.2530 -1.1110
  755MOL0     H 1907  12.096   5.719   5.077 -1.2856 -0.3273 -0.4391
  755MOL0     H 1908  11.871   5.828   5.069  2.5031 -0.2852 -2.9729
  755MOL0     H 1909   9.959   5.606   5.381 -0.7938 -1.1034 -0.0147
  755MOL0     H 1910   9.730   5.508   5.353 -2.4391  0.8439 -0.1882
  755MOL0     H 1911   9.291   5.768   5.181  0.6210 -2.7370 -2.3396
  755MOL0     H 1912   9.050   5.764   5.133  1.3364  5.0550  3.5431
  755MOL0     H 1913   8.829   5.433   5.204  1.7239  0.6986  1.3164
  755MOL0     H 1914   8.863   5.562   5.088 -0.2854  1.9955 -0.2439
  755MOL0     H 1915   8.623   5.508   5.078 -0.8034  1.5552  0.2626
  755MOL0     H 1916   8.656   5.673   5.123  0.5751  0.1342 -1.8445
  755MOL0     H 1917   8.608   5.618   5.370  0.3559 -0.2509  0.1019
  755MOL0     H 1918   8.587   5.450   5.319  1.6470 -0.8672 -3.3830
  755MOL0     H 1919   8.391   5.517   5.184  0.8161  2.3090 -1.4972
  755MOL0     H 1920   8.363   5.561   5.355 -1.7198 -2.4853 -0.5555
  755MOL0     H 1921   8.330   5.924   5.141  1.1421  0.1920  1.2856
  755MOL0     H 1922   8.976   5.475   5.430 -0.9552  0.8548  0.1060
  755MOL0     H 1923   9.309   5.364   5.463 -0.7989 -0.7678  0.3872
  755MOL0     H 1924   9.278   5.485   5.589 -1.3437  0.7705  0.9919
  755MOL0     H 1925   9.154   5.375   5.550  1.7483  0.1700  2.4222
  756MOL0     O 1926   6.697   7.606  10.394  0.1732  0.0904 -0.8636
  756MOL0     C 1927   6.625   7.686  10.453 -0.1839 -0.2820 -0.7904
  756MOL0     O 1928   6.659   7.757  10.570  0.7201  0.7913 -0.4752
  756MOL0     C 1929   6.781   7.720  10.622  0.2401 -0.5829 -0.2381
  756MOL0     C 1930   6.886   7.809  10.599 -0.6209 -0.0468 -0.6071
  756MOL0     C 1931   7.019   7.775  10.652  0.1373 -0.3584  0.0473
  756MOL0     C 1932   7.044   7.670  10.740 -0.5355  0.2483 -0.0653
  756MOL0     O 1933   7.167   7.645  10.792  0.1073 -0.2214  0.5140
  756MOL0     C 1934   7.281   7.671  10.707 -1.0494 -0.3132 -0.2159
  756MOL0     C 1935   7.391   7.571  10.749 -0.6746 -0.1888 -0.0453
  756MOL0     C 1936   7.519   7.623  10.690 -0.0887  0.2220 -0.1906
  756MOL0     C 1937   7.635   7.535  10.742 -0.5179  0.2215  0.2801
  756MOL0     C 1938   7.755   7.562  10.661  0.3749  0.4182  0.0478
  756MOL0     C 1939   7.871   7.469  10.706 -0.2328  0.4750  0.6765
  756MOL0     C 1940   7.997   7.497  10.632 -0.1451  0.3187 -0.4508
  756MOL0     C 1941   8.107   7.383  10.661 -0.0693 -0.0876 -0.0966
  756MOL0     N 1942   8.232   7.425  10.584  0.0154  0.5198  0.9129
  756MOL0     C 1943   8.244   7.458  10.458  1.0683  1.0039  0.0838
  756MOL0     C 1944   8.380   7.474  10.443  0.3696 -1.0204  0.2707
  756MOL0     C 1945   8.449   7.495  10.316  0.1573  0.6243 -0.1663
  756MOL0     C 1946   8.411   7.404  10.208 -0.4792 -0.8224 -0.8555
  756MOL0     C 1947   8.469   7.453  10.078  0.2645 -0.5717  0.6395
  756MOL0     C 1948   8.621   7.467  10.065  0.5380  0.1449  0.4054
  756MOL0     O 1949   8.683   7.342  10.098 -0.3821  0.4187 -0.4230
  756MOL0     C 1950   8.823   7.337  10.121 -0.1054 -0.2730 -0.9058
  756MOL0     C 1951   8.903   7.455  10.112  0.1118  0.3827 -0.5897
  756MOL0     C 1952   9.049   7.452  10.123  0.5300 -0.1181  0.5557
  756MOL0     C 1953   9.108   7.325  10.144 -0.0241 -0.6917 -0.3484
  756MOL0     C 1954   9.259   7.324  10.131  0.1273 -0.9381 -0.3442
  756MOL0     O 1955   9.320   7.212  10.166  0.1242 -0.1081  0.2768
  756MOL0     C 1956   9.451   7.221  10.177 -1.0266 -0.1131  0.1829
  756MOL0     C 1957   9.520   7.304  10.270 -0.2388  0.0631 -0.1909
  756MOL0     C 1958   9.660   7.283  10.272 -1.1582 -0.5122 -0.1981
  756MOL0     C 1959   9.728   7.183  10.193  0.5529 -0.8091  0.5079
  756MOL0     O 1960   9.861   7.164  10.206 -0.2837  0.0657  0.6883
  756MOL0     C 1961   9.938   7.260  10.283  0.4104 -0.3022 -0.3335
  756MOL0     C 1962  10.084   7.206  10.251  0.1473  0.0000  0.4648
  756MOL0     C 1963  10.173   7.325  10.291 -0.6338  0.2510  0.0166
  756MOL0     C 1964  10.321   7.306  10.256  0.4183 -0.3222 -0.3562
  756MOL0     C 1965  10.406   7.435  10.236  0.4034 -0.3390 -0.0474
  756MOL0     C 1966  10.555   7.415  10.229 -0.0867 -0.4709  0.3858
  756MOL0     C 1967  10.636   7.544  10.195 -0.5997 -0.5615 -0.1529
  756MOL0     C 1968  10.777   7.518  10.157  0.6790  0.9354  0.1534
  756MOL0    Cl 1969  10.786   7.444   9.999  0.1162  0.2337  0.3145
  756MOL0     C 1970   9.653   7.112  10.103 -0.4709  0.6207  0.1114
  756MOL0     C 1971   9.520   7.130  10.097 -0.1852  0.2376 -0.0499
  756MOL0     O 1972   9.312   7.430  10.095  0.3946  0.3269 -0.4366
  756MOL0     C 1973   9.028   7.209  10.154  0.0367 -0.0165  0.4847
  756MOL0     C 1974   8.890   7.218  10.147  0.2982 -0.1063  1.2632
  756MOL0     N 1975   8.432   7.478  10.568 -0.8768 -0.6507  1.0388
  756MOL0     N 1976   8.350   7.419  10.644  0.3679 -0.4723  0.7533
  756MOL0     C 1977   6.935   7.591  10.774  0.2277  0.6099 -0.3262
  756MOL0     C 1978   6.809   7.609  10.706  0.0730 -0.5039  1.1284
  756MOL0     C 1979   6.488   7.723  10.388 -0.6208 -0.4252  0.6293
  756MOL0     C 1980   6.410   7.816  10.460  0.0826  0.1010  0.3436
  756MOL0     C 1981   6.291   7.869  10.406  0.1567  0.6004 -0.5755
  756MOL0     C 1982   6.248   7.822  10.282  0.1968  0.8396 -0.6562
  756MOL0     O 1983   6.140   7.889  10.230 -0.1428  0.2648 -0.9010
  756MOL0     C 1984   6.042   7.831  10.141 -0.1010  0.7764  0.6206
  756MOL0     C 1985   5.897   7.874  10.179  0.2014 -1.1578 -0.3444
  756MOL0     C 1986   5.876   8.019  10.135 -0.5646  1.2914 -0.4517
  756MOL0     C 1987   5.732   8.050  10.150  0.1409 -0.3793  0.7545
  756MOL0     C 1988   5.699   8.074  10.282 -0.3362 -0.0097 -0.2325
  756MOL0     C 1989   5.668   8.080  10.398 -0.7891 -0.0771  1.3553
  756MOL0     C 1990   6.324   7.719  10.213  0.2923 -1.0213 -0.3814
  756MOL0     C 1991   6.443   7.678  10.263 -0.5435 -0.3060 -0.8337
  756MOL0     C 1992   6.521   7.565  10.180 -0.3571 -0.7141  0.2046
  756MOL0     H 1993   6.867   7.902  10.546  1.1917 -0.8636 -2.8547
  756MOL0     H 1994   7.103   7.840  10.631  0.1413 -0.1195  0.7493
  756MOL0     H 1995   7.258   7.673  10.600  1.4963  1.4327 -0.8279
  756MOL0     H 1996   7.318   7.771  10.729  0.4683 -0.9726  0.3917
  756MOL0     H 1997   7.369   7.468  10.717 -0.7967 -0.3793  0.6367
  756MOL0     H 1998   7.393   7.559  10.858  4.3787  0.0971  0.1422
  756MOL0     H 1999   7.538   7.728  10.713  1.3054  0.1411 -0.8956
  756MOL0     H 2000   7.507   7.620  10.582 -0.7381  1.2224 -0.1653
  756MOL0     H 2001   7.667   7.555  10.845 -0.7988 -2.4444  0.9630
  756MOL0     H 2002   7.618   7.427  10.740  1.2448 -0.0842  0.4028
  756MOL0     H 2003   7.726   7.536  10.559  3.9421 -1.7750 -0.5628
  756MOL0     H 2004   7.776   7.669  10.670 -0.7556  0.5174  2.1792
  756MOL0     H 2005   7.884   7.467  10.814  1.3444  0.7051  0.5049
  756MOL0     H 2006   7.839   7.366  10.685 -0.6544  0.4385  1.4827
  756MOL0     H 2007   8.031   7.586  10.685 -0.8033  0.7082 -0.6745
  756MOL0     H 2008   7.981   7.494  10.524 -0.0271 -3.3564 -0.5072
  756MOL0     H 2009   8.137   7.378  10.767 -2.2671  1.2796  0.6583
  756MOL0     H 2010   8.075   7.283  10.631  0.6648 -1.3532  2.9140
  756MOL0     H 2011   8.173   7.458  10.376  1.7155 -1.6658 -0.5449
  756MOL0     H 2012   8.430   7.599  10.288 -1.4609  0.1897 -0.8056
  756MOL0     H 2013   8.552   7.463  10.329 -0.5354 -1.2137  1.2541
  756MOL0     H 2014   8.438   7.301  10.233  2.0865 -0.0513 -0.1208
  756MOL0     H 2015   8.304   7.394  10.189  0.0087 -1.0751 -3.9741
  756MOL0     H 2016   8.425   7.549  10.050  2.6723  1.5122  3.3745
  756MOL0     H 2017   8.441   7.380  10.001  2.2108 -0.8215  0.1249
  756MOL0     H 2018   8.653   7.545  10.134  0.4915  2.4879 -2.0451
  756MOL0     H 2019   8.650   7.496   9.963 -0.0026  0.0607  0.2228
  756MOL0     H 2020   8.857   7.554  10.112 -0.9534  0.1511  4.3443
  756MOL0     H 2021   9.100   7.546  10.108 -0.1882 -0.1551 -2.6798
  756MOL0     H 2022   9.469   7.378  10.330  1.1775  1.3524 -0.5119
  756MOL0     H 2023   9.714   7.341  10.346 -1.9367 -1.1610  0.9096
  756MOL0     H 2024   9.931   7.360  10.239  2.0601  1.0215  2.1377
  756MOL0     H 2025   9.916   7.258  10.390 -0.3712 -3.7902 -0.4208
  756MOL0     H 2026  10.115   7.121  10.312  1.7509  0.6013  0.5152
  756MOL0     H 2027  10.098   7.179  10.146  0.1660  0.5510  0.3226
  756MOL0     H 2028  10.141   7.407  10.225 -2.7818 -1.7614 -1.6352
  756MOL0     H 2029  10.171   7.339  10.400  1.6703 -1.4943  0.3462
  756MOL0     H 2030  10.319   7.259  10.157  1.7410  0.4006 -0.7481
  756MOL0     H 2031  10.363   7.239  10.332 -0.0189 -1.5456 -1.1651
  756MOL0     H 2032  10.387   7.513  10.310  2.0549  0.0884 -0.0548
  756MOL0     H 2033  10.382   7.475  10.137  3.0463 -0.1371 -0.6732
  756MOL0     H 2034  10.573   7.374  10.328 -0.8518 -0.8840  0.3628
  756MOL0     H 2035  10.584   7.340  10.156  1.0128 -1.3690  1.7122
  756MOL0     H 2036  10.638   7.608  10.283 -1.8022  2.2518 -2.0496
  756MOL0     H 2037  10.579   7.594  10.117  0.5741  2.1697  0.6195
  756MOL0     H 2038  10.817   7.619  10.141 -1.6362  1.7402 -0.9564
  756MOL0     H 2039  10.823   7.464  10.241  1.5820  2.8574  0.9711
  756MOL0     H 2040   9.699   7.044  10.033  1.9970  2.7626 -0.5119
  756MOL0     H 2041   9.464   7.065  10.031  3.3023 -2.9900 -0.1888
  756MOL0     H 2042   9.084   7.116  10.150 -1.4617 -1.0431  1.8997
  756MOL0     H 2043   8.829   7.128  10.147 -1.3783  0.8961 -1.4043
  756MOL0     H 2044   6.940   7.508  10.843  0.5059 -1.1675 -2.3768
  756MOL0     H 2045   6.730   7.537  10.727 -1.5330  0.7375 -0.2883
  756MOL0     H 2046   6.437   7.857  10.557 -0.1344  4.7359 -1.3397
  756MOL0     H 2047   6.219   7.930  10.459  0.3168 -0.1050  0.4898
  756MOL0     H 2048   6.042   7.722  10.156 -0.5048  0.5235 -0.9753
  756MOL0     H 2049   6.070   7.839  10.035  4.2261  1.4583  1.6436
  756MOL0     H 2050   5.893   7.865  10.288  0.3844 -1.9972 -0.4000
  756MOL0     H 2051   5.822   7.802  10.143  1.5345 -2.1157 -1.2952
  756MOL0     H 2052   5.899   8.017  10.028  2.9927 -0.6829  0.1987
  756MOL0     H 2053   5.944   8.086  10.187 -0.2526  0.7254 -0.1215
  756MOL0     H 2054   5.715   8.139  10.090  1.6358  0.3355  1.3453
  756MOL0     H 2055   5.669   7.969  10.112 -0.1651  0.4429 -0.5518
  756MOL0     H 2056   5.644   8.076  10.502  2.6068  3.7357  2.5269
  756MOL0     H 2057   6.301   7.682  10.114  3.0592 -2.3772 -0.6210
  756MOL0     H 2058   6.469   7.528  10.092  0.9449 -1.3475 -0.3169
  756MOL0     H 2059   6.615   7.612  10.152 -0.1191 -0.8428  0.7660
  756MOL0     H 2060   6.548   7.478  10.240  1.1128 -0.0491  0.5407
  757MOL0     O 2061   4.385  10.373   1.375 -0.3458  0.0634  0.0853
  757MOL0     C 2062   4.336  10.274   1.421  0.8282  0.6301  0.6645
  757MOL0     O 2063   4.397  10.176   1.479 -0.3237  0.2495  0.3533
  757MOL0     C 2064   4.527  10.190   1.506 -0.4786  0.1455 -0.0097
  757MOL0     C 2065   4.623  10.153   1.405 -0.1029 -0.4260  0.3116
  757MOL0     C 2066   4.763  10.154   1.431  0.2737 -0.7703  0.1352
  757MOL0     C 2067   4.808  10.190   1.559  0.0023 -0.6938  0.2840
  757MOL0     O 2068   4.946  10.202   1.588  0.4461  0.6724  0.2485
  757MOL0     C 2069   5.045  10.179   1.490 -0.5427  0.6915 -0.9108
  757MOL0     C 2070   5.184  10.218   1.546  0.7066  0.5958 -0.2651
  757MOL0     C 2071   5.302  10.165   1.471  0.3008  0.8937 -0.2944
  757MOL0     C 2072   5.312  10.231   1.335 -0.2938 -0.1826  0.1979
  757MOL0     C 2073   5.423  10.176   1.242 -0.0677 -0.7018  0.5101
  757MOL0     C 2074   5.564  10.175   1.296 -0.9574 -0.8174 -0.2876
  757MOL0     C 2075   5.680  10.191   1.191  0.6592 -0.6833 -0.0820
  757MOL0     C 2076   5.673  10.088   1.082 -0.2209  0.3602  0.0660
  757MOL0     N 2077   5.801  10.076   1.011 -0.4681  0.2612 -0.5350
  757MOL0     C 2078   5.920  10.027   1.060  0.3281  0.1567 -0.3438
  757MOL0     C 2079   6.004  10.049   0.961  0.7053  0.7691 -0.0400
  757MOL0     C 2080   6.148  10.013   0.958  0.5753  0.3342  1.2351
  757MOL0     C 2081   6.159   9.869   0.922 -0.4086  0.9951  0.5924
  757MOL0     C 2082   6.283   9.833   0.848 -0.6074  0.0931  0.4743
  757MOL0     C 2083   6.421   9.903   0.888 -0.6072  0.0841  0.1320
  757MOL0     O 2084   6.457   9.873   1.024  0.0271 -0.0552 -0.1211
  757MOL0     C 2085   6.586   9.913   1.051  0.2362 -0.4911  0.0255
  757MOL0     C 2086   6.663  10.003   0.970 -0.2942 -0.5435  0.1650
  757MOL0     C 2087   6.804  10.032   0.994  0.6675  0.0058  0.1589
  757MOL0     C 2088   6.868   9.979   1.109  0.4863  0.0636  0.4882
  757MOL0     C 2089   7.006  10.011   1.144  0.1901  0.3257 -0.3136
  757MOL0     O 2090   7.067   9.920   1.232  0.1881  0.2192 -0.4270
  757MOL0     C 2091   7.187   9.949   1.293 -0.0070  0.7197  0.1233
  757MOL0     C 2092   7.209   9.901   1.421  0.2888 -0.3762 -0.8735
  757MOL0     C 2093   7.335   9.924   1.487 -0.0285  0.6075  0.1948
  757MOL0     C 2094   7.433   9.993   1.418 -0.4460  0.0551 -0.2765
  757MOL0     O 2095   7.552  10.015   1.487  0.6452 -0.1366  0.6266
  757MOL0     C 2096   7.673  10.039   1.412 -0.4201  0.6018  0.3550
  757MOL0     C 2097   7.784  10.039   1.509  0.3451 -0.3261 -0.2991
  757MOL0     C 2098   7.925  10.029   1.446  0.1878 -0.0164 -0.6432
  757MOL0     C 2099   8.031   9.988   1.547  0.9185  0.0686 -0.2459
  757MOL0     C 2100   8.170   9.971   1.485  0.4741  0.6915  0.2879
  757MOL0     C 2101   8.257   9.924   1.599  0.2876 -0.2618  0.2293
  757MOL0     C 2102   8.397   9.878   1.537 -0.1105  0.0372 -0.4052
  757MOL0     C 2103   8.478   9.834   1.667  0.7642  0.1967  0.4390
  757MOL0    Cl 2104   8.515   9.992   1.754 -0.0018 -0.2637  0.4213
  757MOL0     C 2105   7.409  10.038   1.286 -0.0318 -0.8913 -0.5376
  757MOL0     C 2106   7.293  10.014   1.221  0.4863  0.9553 -1.0304
  757MOL0     O 2107   7.048  10.120   1.109  0.7050 -0.5943  0.3763
  757MOL0     C 2108   6.791   9.888   1.187  0.2098 -0.6500  0.2692
  757MOL0     C 2109   6.652   9.863   1.158  0.0108  0.0645 -0.1101
  757MOL0     N 2110   5.947  10.116   0.860  1.3686  0.8815 -0.4745
  757MOL0     N 2111   5.826  10.143   0.900  0.2137  0.0593  0.3923
  757MOL0     C 2112   4.711  10.222   1.655 -0.0530 -0.8426 -0.7902
  757MOL0     C 2113   4.576  10.219   1.627 -1.0478 -0.2629  0.9278
  757MOL0     C 2114   4.179  10.257   1.401 -0.5344  0.6761 -0.2980
  757MOL0     C 2115   4.124  10.128   1.438 -0.1253 -0.2468  0.5082
  757MOL0     C 2116   3.985  10.109   1.433  0.0186  0.1981 -0.3344
  757MOL0     C 2117   3.898  10.208   1.404 -0.1258  0.3938 -0.3493
  757MOL0     O 2118   3.756  10.203   1.404 -0.7211  0.0985 -0.1269
  757MOL0     C 2119   3.696  10.068   1.406 -0.3665 -0.3615 -0.2668
  757MOL0     C 2120   3.699  10.019   1.551  0.0673 -1.1882  0.0981
  757MOL0     C 2121   3.695   9.869   1.561  0.0494 -0.0661  0.0080
  757MOL0     C 2122   3.638   9.816   1.691  0.4378  0.1256 -0.6013
  757MOL0     C 2123   3.593   9.677   1.675 -0.4492 -0.2439 -0.5108
  757MOL0     C 2124   3.545   9.563   1.669 -0.5647 -0.1135  0.4232
  757MOL0     C 2125   3.954  10.328   1.361 -0.0726  0.2173 -0.2810
  757MOL0     C 2126   4.093  10.359   1.363  0.4621  0.0384 -0.5266
  757MOL0     C 2127   4.140  10.494   1.334 -0.4039 -0.3819 -0.8146
  757MOL0     H 2128   4.597  10.136   1.301 -0.0062  0.7219  0.0843
  757MOL0     H 2129   4.838  10.136   1.355  1.1353  0.8708  0.5226
  757MOL0     H 2130   5.045  10.073   1.463 -1.8826  0.6205 -0.6951
  757MOL0     H 2131   5.030  10.244   1.403  4.8135 -0.5207 -3.2115
  757MOL0     H 2132   5.194  10.172   1.645  0.6469  1.5544  0.1911
  757MOL0     H 2133   5.190  10.326   1.557  2.7448  0.4691  0.4017
  757MOL0     H 2134   5.295  10.058   1.452 -1.2151  1.2186 -1.7847
  757MOL0     H 2135   5.386  10.179   1.540 -1.2124 -1.6277  2.2407
  757MOL0     H 2136   5.218  10.222   1.280 -0.8213 -0.3362  1.1031
  757MOL0     H 2137   5.341  10.334   1.358  2.1564 -0.9924  1.0531
  757MOL0     H 2138   5.398  10.073   1.217 -1.6132  0.5912 -4.5280
  757MOL0     H 2139   5.413  10.227   1.145 -0.9498 -0.4877  0.7026
  757MOL0     H 2140   5.572  10.253   1.372 -1.2477  0.1780 -1.2410
  757MOL0     H 2141   5.588  10.080   1.344  4.5339  0.1667 -0.5188
  757MOL0     H 2142   5.777  10.185   1.241  0.8972  1.0551 -0.2404
  757MOL0     H 2143   5.676  10.287   1.138  0.2869 -1.0300 -0.6966
  757MOL0     H 2144   5.647   9.988   1.120  1.9533 -1.0945 -1.9848
  757MOL0     H 2145   5.593  10.121   1.015  0.2864 -1.1532 -1.3642
  757MOL0     H 2146   5.942   9.980   1.155  1.0485  0.7008 -0.2368
  757MOL0     H 2147   6.196  10.070   0.878 -0.0067  2.3011  2.2126
  757MOL0     H 2148   6.200  10.035   1.052  0.6206  0.0102  1.2866
  757MOL0     H 2149   6.160   9.822   1.021  0.9754  3.9153  2.0813
  757MOL0     H 2150   6.074   9.840   0.860  0.4399  2.4694 -1.3498
  757MOL0     H 2151   6.273   9.850   0.740  1.2407 -1.6778 -0.0580
  757MOL0     H 2152   6.307   9.727   0.861  1.2344  0.2909 -0.8889
  757MOL0     H 2153   6.410  10.011   0.873 -1.1544 -0.3225 -3.1197
  757MOL0     H 2154   6.498   9.874   0.817 -0.4511  1.2502 -0.1919
  757MOL0     H 2155   6.625  10.051   0.881 -0.1562 -1.0781 -0.1874
  757MOL0     H 2156   6.872  10.087   0.930  0.6406 -2.4689 -2.1395
  757MOL0     H 2157   7.127   9.851   1.472 -0.6394  0.9297 -1.0398
  757MOL0     H 2158   7.354   9.885   1.587 -2.7102 -1.8801 -0.1552
  757MOL0     H 2159   7.684   9.955   1.344  2.9998  0.4122  1.0016
  757MOL0     H 2160   7.655  10.123   1.344 -1.6502  0.3384  0.3318
  757MOL0     H 2161   7.775  10.124   1.578 -1.0209  0.3292 -1.2388
  757MOL0     H 2162   7.762   9.945   1.560 -1.6511 -1.0951 -2.4034
  757MOL0     H 2163   7.924   9.953   1.368 -0.9820 -1.3553  0.6261
  757MOL0     H 2164   7.957  10.127   1.407  1.4545  0.3835  1.2505
  757MOL0     H 2165   8.003   9.901   1.607 -0.1040  1.1124  0.8461
  757MOL0     H 2166   8.033  10.075   1.613  0.3923 -0.6275  0.6991
  757MOL0     H 2167   8.204  10.068   1.448  1.4082 -0.3226 -1.6320
  757MOL0     H 2168   8.160   9.899   1.404 -2.0320  0.8939  0.3556
  757MOL0     H 2169   8.270  10.001   1.676 -0.6586  1.7525 -1.5109
  757MOL0     H 2170   8.210   9.833   1.638  0.0278 -0.4550 -0.5195
  757MOL0     H 2171   8.453   9.966   1.504 -0.5160 -0.6675 -3.1658
  757MOL0     H 2172   8.388   9.793   1.469 -0.2855  0.3005 -0.7123
  757MOL0     H 2173   8.430   9.762   1.734  1.4220 -1.7425 -1.0519
  757MOL0     H 2174   8.574   9.787   1.647  2.5492  3.3583  0.9499
  757MOL0     H 2175   7.487  10.091   1.233  0.0880 -0.8042 -0.2741
  757MOL0     H 2176   7.281  10.049   1.119  1.3103 -0.0942 -1.4981
  757MOL0     H 2177   6.844   9.835   1.265  2.1460 -0.9255 -1.1579
  757MOL0     H 2178   6.599   9.799   1.228  2.4083 -1.4023  0.5027
  757MOL0     H 2179   4.747  10.259   1.751  0.4029 -2.7854 -0.1575
  757MOL0     H 2180   4.504  10.266   1.694  0.9817  3.2618  0.8830
  757MOL0     H 2181   4.186  10.049   1.478  2.3878  1.5599  0.4555
  757MOL0     H 2182   3.948  10.009   1.453  3.9314 -1.6999 -1.6333
  757MOL0     H 2183   3.743  10.001   1.334  1.2413 -0.7606  1.0855
  757MOL0     H 2184   3.593  10.073   1.371 -0.4411 -0.3362 -0.0414
  757MOL0     H 2185   3.610  10.063   1.597  1.3753  0.2530  1.3346
  757MOL0     H 2186   3.789  10.055   1.601  0.6370 -1.3998 -0.7566
  757MOL0     H 2187   3.788   9.818   1.535 -0.2532 -0.8110  0.3574
  757MOL0     H 2188   3.628   9.833   1.482 -1.7266  2.7148  0.0834
  757MOL0     H 2189   3.718   9.817   1.767 -0.8254  0.7281  0.7707
  757MOL0     H 2190   3.563   9.881   1.737  2.0145  2.1558 -0.7143
  757MOL0     H 2191   3.493   9.470   1.673 -1.8363  0.4679  5.7803
  757MOL0     H 2192   3.878  10.402   1.337 -2.1467 -2.1816 -1.6164
  757MOL0     H 2193   4.204  10.483   1.246 -0.2666 -2.5625 -0.4867
  757MOL0     H 2194   4.070  10.578   1.325  3.7340  3.5267 -0.4893
  757MOL0     H 2195   4.203  10.524   1.418  2.3586 -4.2945 -1.2207
  758MOL0     O 2196   1.954   8.162   3.251  0.2941 -0.1283 -0.2999
  758MOL0     C 2197   1.872   8.253   3.268 -0.5022  0.1581  0.3703
  758MOL0     O 2198   1.903   8.383   3.275 -0.4404 -0.4019 -0.3233
  758MOL0     C 2199   2.034   8.429   3.291 -0.1606 -0.6800 -0.7731
  758MOL0     C 2200   2.127   8.424   3.186 -0.1968  0.4554 -0.0278
  758MOL0     C 2201   2.252   8.472   3.195 -0.4940  0.7849  0.1906
  758MOL0     C 2202   2.293   8.535   3.314 -0.2127  0.0963  0.1674
  758MOL0     O 2203   2.420   8.570   3.359 -0.2242  0.0189  0.3644
  758MOL0     C 2204   2.532   8.580   3.266 -0.4360  0.8088  0.0518
  758MOL0     C 2205   2.624   8.692   3.302 -0.1329 -0.4024 -0.8004
  758MOL0     C 2206   2.698   8.668   3.429 -0.0024  0.4540  0.1560
  758MOL0     C 2207   2.821   8.760   3.454  0.6747 -0.0790 -0.5270
  758MOL0     C 2208   2.908   8.700   3.568 -1.0775  0.6831  0.9613
  758MOL0     C 2209   3.034   8.785   3.589 -0.4246 -0.4604  0.2289
  758MOL0     C 2210   3.092   8.728   3.711 -0.6947 -1.0585  0.5002
  758MOL0     C 2211   3.213   8.817   3.745 -0.1613  0.3564 -0.2002
  758MOL0     N 2212   3.292   8.754   3.862  0.7056  0.5012  0.7053
  758MOL0     C 2213   3.355   8.631   3.855 -0.0829 -0.2502  0.2662
  758MOL0     C 2214   3.400   8.598   3.976 -0.0867 -0.1000 -0.5697
  758MOL0     C 2215   3.473   8.484   4.017  0.7967  0.2648  0.1320
  758MOL0     C 2216   3.623   8.509   4.036  0.6819 -0.6527 -0.1330
  758MOL0     C 2217   3.701   8.379   4.082 -0.1631  0.1619  0.5010
  758MOL0     C 2218   3.856   8.396   4.065 -0.1981 -0.0441  0.4510
  758MOL0     O 2219   3.923   8.261   4.064 -0.9960 -0.1882  0.3605
  758MOL0     C 2220   4.056   8.259   4.034  0.0365  0.0436  0.2008
  758MOL0     C 2221   4.119   8.140   4.079 -0.5108 -1.0834 -0.7892
  758MOL0     C 2222   4.261   8.135   4.059  0.9323  1.1520 -0.2647
  758MOL0     C 2223   4.340   8.237   3.998 -0.1581 -0.3366  0.6585
  758MOL0     C 2224   4.480   8.220   3.970 -0.0272  0.3023 -0.4631
  758MOL0     O 2225   4.539   8.108   4.025  0.5651  0.7396  0.0738
  758MOL0     C 2226   4.672   8.085   4.040 -0.5125 -0.5794  0.7078
  758MOL0     C 2227   4.763   8.193   4.046  0.0325  0.5511 -0.1328
  758MOL0     C 2228   4.901   8.174   4.036  0.1673  0.4942 -0.2335
  758MOL0     C 2229   4.954   8.047   4.025  0.0741 -0.1738 -0.6252
  758MOL0     O 2230   5.084   8.044   3.990 -0.3150 -0.0001  0.0342
  758MOL0     C 2231   5.171   7.956   4.069  0.4771  0.6179 -0.3708
  758MOL0     C 2232   5.194   8.013   4.210  0.6217  0.1622  0.9971
  758MOL0     C 2233   5.296   7.932   4.291  0.3196 -0.4529 -0.0753
  758MOL0     C 2234   5.240   7.794   4.343 -1.1199 -1.0738  0.9875
  758MOL0     C 2235   5.359   7.713   4.387 -0.6766 -1.2500 -1.3829
  758MOL0     C 2236   5.309   7.584   4.455 -0.7421  0.3789 -0.9475
  758MOL0     C 2237   5.427   7.484   4.476  0.4648  0.0197  0.4875
  758MOL0     C 2238   5.395   7.367   4.571  1.4357 -0.3307  0.0771
  758MOL0    Cl 2239   5.252   7.286   4.517 -0.0823  0.0725 -0.1618
  758MOL0     C 2240   4.867   7.936   4.030  0.6251 -0.2684 -0.3127
  758MOL0     C 2241   4.730   7.959   4.039  1.2735  0.5376 -0.6479
  758MOL0     O 2242   4.538   8.309   3.902  0.3463 -0.1021  0.6485
  758MOL0     C 2243   4.267   8.354   3.953  1.1608 -0.3782  0.7108
  758MOL0     C 2244   4.130   8.363   3.972 -0.2965  0.4375 -0.1490
  758MOL0     N 2245   3.374   8.714   4.056 -0.6658 -0.0818  0.3063
  758MOL0     N 2246   3.294   8.788   3.992 -0.0618 -0.0592  0.4686
  758MOL0     C 2247   2.194   8.556   3.417 -0.5580 -0.3260  0.0165
  758MOL0     C 2248   2.069   8.504   3.399 -0.4783 -0.3322 -0.0575
  758MOL0     C 2249   1.724   8.231   3.294  0.1997 -0.1990  0.5092
  758MOL0     C 2250   1.657   8.344   3.352 -0.5915  0.0023  0.4349
  758MOL0     C 2251   1.524   8.330   3.401 -0.0623  0.3058  0.2246
  758MOL0     C 2252   1.450   8.211   3.366 -0.1070 -0.3596 -0.3518
  758MOL0     O 2253   1.323   8.182   3.414  0.0517 -0.0107 -0.2772
  758MOL0     C 2254   1.251   8.286   3.477  0.0263  0.0772 -1.4282
  758MOL0     C 2255   1.110   8.255   3.468  1.2908 -0.1088 -0.9178
  758MOL0     C 2256   1.024   8.369   3.494  0.6046 -0.1021  0.9373
  758MOL0     C 2257   0.989   8.443   3.359  0.6992  0.1789 -0.3354
  758MOL0     C 2258   0.904   8.359   3.272 -0.1771  0.7426  0.3101
  758MOL0     C 2259   0.833   8.281   3.216 -0.3710 -0.5034  1.0039
  758MOL0     C 2260   1.513   8.119   3.274 -0.2397  0.0859  0.5492
  758MOL0     C 2261   1.653   8.118   3.242  0.6320 -0.1014  0.0267
  758MOL0     C 2262   1.704   8.006   3.160 -0.3154  0.4303  0.5670
  758MOL0     H 2263   2.095   8.377   3.094 -0.5381 -1.6179  1.0816
  758MOL0     H 2264   2.315   8.460   3.107 -0.9362 -1.7203  0.1458
  758MOL0     H 2265   2.572   8.479   3.282 -1.6862  0.4130  0.8482
  758MOL0     H 2266   2.501   8.597   3.163  1.0789 -3.6962 -1.3950
  758MOL0     H 2267   2.570   8.787   3.309  0.4792 -0.1646  1.3164
  758MOL0     H 2268   2.694   8.692   3.218 -1.5301  1.8416 -2.1109
  758MOL0     H 2269   2.727   8.562   3.432  0.3415  0.5739  1.7819
  758MOL0     H 2270   2.631   8.678   3.514  1.1998  2.5438  0.9199
  758MOL0     H 2271   2.871   8.768   3.357 -0.6442 -0.1473 -1.2274
  758MOL0     H 2272   2.790   8.863   3.475  0.4654 -0.0274 -1.0703
  758MOL0     H 2273   2.856   8.686   3.663 -1.7860  0.5529  0.5652
  758MOL0     H 2274   2.940   8.601   3.533 -0.1906  2.0284 -2.4216
  758MOL0     H 2275   3.104   8.761   3.508  0.9576 -3.6513  2.1281
  758MOL0     H 2276   2.997   8.886   3.604  1.8899  0.0602  3.8996
  758MOL0     H 2277   3.126   8.626   3.690  1.2032 -0.1489 -1.1592
  758MOL0     H 2278   3.023   8.749   3.793  2.3562  3.9714  2.2808
  758MOL0     H 2279   3.282   8.820   3.660 -1.0373 -0.5057 -0.9764
  758MOL0     H 2280   3.188   8.921   3.765 -1.5990  0.4134 -1.9717
  758MOL0     H 2281   3.374   8.577   3.763 -2.0525  2.1090 -1.6887
  758MOL0     H 2282   3.439   8.456   4.117  0.5980  1.4010  0.3976
  758MOL0     H 2283   3.457   8.405   3.944  0.0868  0.0408  0.5180
  758MOL0     H 2284   3.662   8.533   3.937 -0.8213  0.6477 -0.4448
  758MOL0     H 2285   3.632   8.592   4.106  1.2635  0.8244 -1.8923
  758MOL0     H 2286   3.664   8.298   4.019 -2.7331  1.8611 -0.3676
  758MOL0     H 2287   3.677   8.352   4.186  0.5274 -1.4476  0.2654
  758MOL0     H 2288   3.887   8.461   4.147 -2.4643  3.4655 -1.2133
  758MOL0     H 2289   3.878   8.448   3.971 -0.6136 -1.8497 -0.6945
  758MOL0     H 2290   4.058   8.063   4.127 -0.8065  0.3936  1.3394
  758MOL0     H 2291   4.298   8.035   4.081 -4.9712 -1.5382 -0.7871
  758MOL0     H 2292   4.729   8.296   4.052  1.3249  1.2980 -3.4705
  758MOL0     H 2293   4.957   8.266   4.024 -2.6154  2.1745 -1.2364
  758MOL0     H 2294   5.134   7.855   4.082  1.0457  0.1656 -1.9409
  758MOL0     H 2295   5.268   7.954   4.017 -1.3591  0.7245 -4.1057
  758MOL0     H 2296   5.238   8.112   4.194  3.1245 -1.0628 -0.3075
  758MOL0     H 2297   5.100   8.022   4.265 -0.0538 -2.2209  0.3447
  758MOL0     H 2298   5.390   7.919   4.236  1.3555 -2.5027  1.9889
  758MOL0     H 2299   5.334   7.990   4.375  1.4947  0.2848 -1.0801
  758MOL0     H 2300   5.184   7.734   4.269 -1.8075  0.8225 -0.1009
  758MOL0     H 2301   5.187   7.804   4.438 -2.2050  0.3757  0.2672
  758MOL0     H 2302   5.400   7.771   4.471 -3.6010 -0.6022 -0.2868
  758MOL0     H 2303   5.427   7.704   4.302  0.3852 -0.8727 -0.5990
  758MOL0     H 2304   5.259   7.600   4.551 -1.2449 -2.0788 -0.7212
  758MOL0     H 2305   5.233   7.541   4.390 -0.6811 -2.6961  0.7947
  758MOL0     H 2306   5.511   7.528   4.531 -0.7182  1.9226  0.8646
  758MOL0     H 2307   5.452   7.436   4.382 -1.2571  1.9106 -1.0252
  758MOL0     H 2308   5.476   7.295   4.582 -0.3276 -2.2433  1.2882
  758MOL0     H 2309   5.376   7.396   4.675 -2.2343 -1.9800  0.0337
  758MOL0     H 2310   4.918   7.841   4.024 -1.3165 -1.4191  0.6633
  758MOL0     H 2311   4.682   7.863   4.050  1.9709  0.3886  1.5311
  758MOL0     H 2312   4.313   8.444   3.914 -2.9525  1.3985 -0.5334
  758MOL0     H 2313   4.090   8.459   3.944 -0.8985  1.3235  3.2941
  758MOL0     H 2314   2.222   8.607   3.509 -0.4833  1.1065 -0.7638
  758MOL0     H 2315   1.997   8.509   3.480  1.0507 -2.3810  1.5530
  758MOL0     H 2316   1.699   8.442   3.372  0.0620 -0.3338  0.7513
  758MOL0     H 2317   1.481   8.403   3.469 -1.7919  0.2921 -0.7751
  758MOL0     H 2318   1.269   8.383   3.430  0.1628  0.2804 -0.9584
  758MOL0     H 2319   1.272   8.299   3.583 -1.0874 -0.0724 -1.1747
  758MOL0     H 2320   1.079   8.181   3.543 -0.0168  0.5812 -0.7506
  758MOL0     H 2321   1.079   8.214   3.372 -0.2112  2.1301 -1.4622
  758MOL0     H 2322   1.066   8.442   3.563 -1.7019  2.3338 -0.0931
  758MOL0     H 2323   0.936   8.334   3.549 -0.1398  2.4313  1.4641
  758MOL0     H 2324   0.938   8.533   3.394  0.3026 -0.1912  0.0620
  758MOL0     H 2325   1.072   8.474   3.294  0.2767  1.4232 -0.3028
  758MOL0     H 2326   0.773   8.205   3.169 -1.8403 -0.6242  2.9623
  758MOL0     H 2327   1.454   8.043   3.224  1.0854  0.3582 -1.5575
  758MOL0     H 2328   1.634   7.988   3.078  1.5562 -2.2624 -0.6024
  758MOL0     H 2329   1.801   8.017   3.110  0.5534  1.2362  2.3489
  758MOL0     H 2330   1.717   7.921   3.227  0.5369  1.6068  1.9537
  759MOL0     O 2331   7.255   8.368  10.142  0.6594 -0.0625  0.3423
  759MOL0     C 2332   7.264   8.295  10.044  0.6015  0.1788 -0.0978
  759MOL0     O 2333   7.371   8.222  10.001  0.2585  0.1009 -0.2899
  759MOL0     C 2334   7.497   8.253  10.046  0.5759 -0.6562 -0.9933
  759MOL0     C 2335   7.543   8.384  10.071  0.0152  0.6621 -0.0981
  759MOL0     C 2336   7.683   8.408  10.091 -0.4669 -0.1519 -0.2525
  759MOL0     C 2337   7.773   8.304  10.109  0.8786  0.8197  0.0402
  759MOL0     O 2338   7.901   8.337  10.136  0.5552 -0.4752 -0.3571
  759MOL0     C 2339   7.999   8.238  10.175  0.4373  0.4646  0.1659
  759MOL0     C 2340   8.103   8.310  10.247 -0.0805 -0.3664 -0.3294
  759MOL0     C 2341   8.224   8.229  10.272  0.6512 -0.6374  0.0425
  759MOL0     C 2342   8.331   8.295  10.357  0.6062 -0.1475 -0.2717
  759MOL0     C 2343   8.456   8.207  10.361 -0.3587 -0.1242  0.0330
  759MOL0     C 2344   8.548   8.255  10.475 -0.6589 -0.8502 -0.7644
  759MOL0     C 2345   8.676   8.174  10.478  0.0091  0.2515 -0.0276
  759MOL0     C 2346   8.754   8.213  10.605 -0.0242 -0.9416 -0.4873
  759MOL0     N 2347   8.789   8.357  10.609  0.2727  0.4756  0.0036
  759MOL0     C 2348   8.865   8.429  10.527 -0.2417  0.3012 -0.6075
  759MOL0     C 2349   8.845   8.558  10.572 -0.1843  0.2871  0.0380
  759MOL0     C 2350   8.918   8.680  10.515 -0.1493  0.6078  0.8256
  759MOL0     C 2351   8.975   8.766  10.625  0.1050  0.5819 -0.3133
  759MOL0     C 2352   9.102   8.704  10.691  0.0586 -1.0266 -0.3252
  759MOL0     C 2353   9.156   8.790  10.805  0.3202  0.0368 -0.4723
  759MOL0     O 2354   9.251   8.707  10.880  0.2122  0.4114  0.0613
  759MOL0     C 2355   9.386   8.728  10.889  0.3799  0.1172 -0.3812
  759MOL0     C 2356   9.460   8.623  10.948 -1.1581 -0.6547  0.0906
  759MOL0     C 2357   9.597   8.634  10.957  0.2355 -0.2133 -0.2784
  759MOL0     C 2358   9.661   8.747  10.901  0.4988 -0.6508 -0.4355
  759MOL0     C 2359   9.808   8.761  10.929  0.5872 -0.9183 -0.2712
  759MOL0     O 2360   9.879   8.652  10.964 -0.3197  0.5733  1.0591
  759MOL0     C 2361  10.014   8.669  10.957 -0.0865  0.0755 -0.4583
  759MOL0     C 2362  10.076   8.772  11.030  0.2120  0.0486  0.2291
  759MOL0     C 2363  10.212   8.789  11.024 -0.3836  0.6337 -0.7264
  759MOL0     C 2364  10.291   8.707  10.939 -0.5815 -0.4960  0.3358
  759MOL0     O 2365  10.427   8.719  10.910 -0.0373  0.8765  1.2544
  759MOL0     C 2366  10.505   8.817  10.966  0.0083  0.1290 -0.1002
  759MOL0     C 2367  10.654   8.834  10.913 -0.4083  0.0865 -0.4363
  759MOL0     C 2368  10.759   8.728  10.967 -0.1054  0.0564  0.2949
  759MOL0     C 2369  10.891   8.770  10.904 -0.2085 -0.1450  0.1965
  759MOL0     C 2370  11.007   8.685  10.954 -0.4764 -0.6723 -0.4919
  759MOL0     C 2371  11.018   8.666  11.102  0.2574 -0.5980 -0.2593
  759MOL0     C 2372  11.136   8.588  11.171  0.0534 -0.6744 -0.0255
  759MOL0     C 2373  11.142   8.579  11.319  0.2670  1.3364 -0.2029
  759MOL0    Cl 2374  11.164   8.743  11.380 -0.3143  0.0964  0.0053
  759MOL0     C 2375  10.234   8.597  10.872  0.1167 -0.0231 -0.5813
  759MOL0     C 2376  10.096   8.574  10.892  0.1870  0.0644 -0.6773
  759MOL0     O 2377   9.854   8.878  10.920  0.2620 -0.0143  0.4424
  759MOL0     C 2378   9.591   8.854  10.846  1.2093  0.3830  0.5045
  759MOL0     C 2379   9.451   8.838  10.827 -0.2065  0.2970  0.5653
  759MOL0     N 2380   8.762   8.549  10.679 -0.7226 -0.1869 -0.6351
  759MOL0     N 2381   8.738   8.431  10.708  0.3911 -0.0453  0.0898
  759MOL0     C 2382   7.730   8.170  10.086 -0.6248  0.2308  0.3102
  759MOL0     C 2383   7.594   8.152  10.049 -0.6720 -0.1479 -0.0600
  759MOL0     C 2384   7.141   8.247   9.966  0.2134 -0.4455  0.4659
  759MOL0     C 2385   7.156   8.141   9.868 -0.3213  0.1067 -0.1446
  759MOL0     C 2386   7.048   8.076   9.818 -0.6146 -0.6292 -0.4644
  759MOL0     C 2387   6.917   8.097   9.864 -0.8257 -0.7573  0.3132
  759MOL0     O 2388   6.812   8.015   9.839  0.4117 -0.1423  1.1047
  759MOL0     C 2389   6.803   7.940   9.716  0.4114  0.2039 -0.1060
  759MOL0     C 2390   6.814   8.028   9.594  0.8351 -0.1942 -0.2854
  759MOL0     C 2391   6.824   7.935   9.463 -0.1478 -0.1640 -1.0509
  759MOL0     C 2392   6.942   7.963   9.379  0.2496  0.3147 -0.6673
  759MOL0     C 2393   7.067   7.921   9.458  0.2523  0.4552 -0.7823
  759MOL0     C 2394   7.158   7.891   9.527 -0.0290 -0.0635  0.6661
  759MOL0     C 2395   6.896   8.209   9.942 -0.0333 -0.2883 -0.1491
  759MOL0     C 2396   7.001   8.288   9.998 -0.1543  0.1450  0.2325
  759MOL0     C 2397   6.969   8.404  10.097 -1.0706  0.2129  0.8751
  759MOL0     H 2398   7.475   8.468  10.058  1.3514  2.2638  2.4398
  759MOL0     H 2399   7.723   8.507  10.113  0.5607  0.3095 -3.6021
  759MOL0     H 2400   7.946   8.165  10.237  0.3324  0.4463  0.0567
  759MOL0     H 2401   8.028   8.195  10.078 -1.2540  1.1439 -0.6909
  759MOL0     H 2402   8.061   8.337  10.344 -1.7755  1.9794 -1.6149
  759MOL0     H 2403   8.131   8.400  10.192 -1.2298  0.3634  0.2342
  759MOL0     H 2404   8.267   8.205  10.174  3.6476  2.8872  0.2756
  759MOL0     H 2405   8.184   8.138  10.317  1.1066  0.4750  2.9469
  759MOL0     H 2406   8.366   8.391  10.319  0.5788 -0.1492 -0.3008
  759MOL0     H 2407   8.286   8.316  10.455  1.9334  0.5593  0.2153
  759MOL0     H 2408   8.429   8.106  10.393 -0.4098  0.4642  1.9287
  759MOL0     H 2409   8.515   8.202  10.269  0.0358 -1.8286  0.3385
  759MOL0     H 2410   8.562   8.363  10.461 -2.8172 -0.2436  0.9979
  759MOL0     H 2411   8.499   8.237  10.572  0.7795 -1.3969 -0.1138
  759MOL0     H 2412   8.745   8.177  10.394 -0.7164 -3.2228 -0.9107
  759MOL0     H 2413   8.642   8.071  10.490  0.4899 -0.2418 -2.4843
  759MOL0     H 2414   8.692   8.191  10.692 -1.0317 -1.9187 -1.4225
  759MOL0     H 2415   8.842   8.150  10.622 -0.8932 -1.8650  0.6779
  759MOL0     H 2416   8.918   8.387  10.442  0.0511  0.1317 -0.3380
  759MOL0     H 2417   8.988   8.649  10.437 -1.9599  0.2973 -0.7717
  759MOL0     H 2418   8.837   8.740  10.470 -1.0297  1.0053  2.8521
  759MOL0     H 2419   8.986   8.861  10.571  1.0443  0.6730  0.0126
  759MOL0     H 2420   8.903   8.796  10.701 -0.3462 -0.3968 -0.3458
  759MOL0     H 2421   9.178   8.693  10.613 -0.9121 -0.7521 -1.3496
  759MOL0     H 2422   9.081   8.606  10.736 -1.3156 -0.5255  0.1782
  759MOL0     H 2423   9.073   8.823  10.868 -0.0161 -1.6261 -0.0156
  759MOL0     H 2424   9.204   8.875  10.756 -2.5111  1.0878 -1.6938
  759MOL0     H 2425   9.420   8.536  10.999  2.4142 -3.2109 -1.0657
  759MOL0     H 2426   9.654   8.560  11.013  2.1277  0.7720 -0.7972
  759MOL0     H 2427  10.041   8.854  11.092  0.3611  1.5505 -1.5888
  759MOL0     H 2428  10.262   8.851  11.098 -0.8194 -0.7711  0.8114
  759MOL0     H 2429  10.461   8.916  10.947  0.4953  0.1760 -0.9928
  759MOL0     H 2430  10.493   8.801  11.074 -2.0777  0.1975 -0.2853
  759MOL0     H 2431  10.666   8.834  10.804 -0.6447  0.2863 -0.4634
  759MOL0     H 2432  10.688   8.931  10.949 -1.0161  0.8243 -1.7829
  759MOL0     H 2433  10.760   8.741  11.076 -1.1392  2.2216  0.0897
  759MOL0     H 2434  10.729   8.625  10.943 -4.3713  0.1371  3.8576
  759MOL0     H 2435  10.906   8.874  10.933  1.9360  0.1047 -1.5253
  759MOL0     H 2436  10.882   8.764  10.795  2.6151 -0.4303 -0.0930
  759MOL0     H 2437  11.099   8.725  10.910 -0.6738  0.6579  0.2699
  759MOL0     H 2438  10.982   8.589  10.908 -5.6193 -0.1989  0.6520
  759MOL0     H 2439  11.030   8.767  11.143  0.9189 -2.3735  4.6987
  759MOL0     H 2440  10.929   8.618  11.143  1.3508 -0.3376  2.6666
  759MOL0     H 2441  11.231   8.634  11.145  0.8701 -2.6521 -0.7659
  759MOL0     H 2442  11.147   8.485  11.135  2.2549 -0.3720 -0.3018
  759MOL0     H 2443  11.050   8.525  11.343  0.5910  0.4968 -0.8200
  759MOL0     H 2444  11.234   8.526  11.345  1.1280  3.0182  0.3236
  759MOL0     H 2445  10.287   8.535  10.800  1.0703 -1.3073  1.1367
  759MOL0     H 2446  10.049   8.492  10.838  1.7089 -2.0196  0.9689
  759MOL0     H 2447   9.644   8.943  10.811 -0.3835  1.1780  0.0397
  759MOL0     H 2448   9.400   8.919  10.775 -2.8674 -0.7119  1.4408
  759MOL0     H 2449   7.785   8.078  10.098 -1.8334 -0.5961 -0.2382
  759MOL0     H 2450   7.578   8.046  10.030  0.3806 -0.2482 -0.4558
  759MOL0     H 2451   7.254   8.110   9.834  0.6302  1.9722  0.7327
  759MOL0     H 2452   7.074   7.999   9.746 -0.2697 -0.9262 -0.0262
  759MOL0     H 2453   6.711   7.881   9.712  0.4831  0.0315  0.7231
  759MOL0     H 2454   6.891   7.876   9.703  0.8703  1.0448 -1.3829
  759MOL0     H 2455   6.894   8.103   9.595  1.1669 -0.4951  2.3665
  759MOL0     H 2456   6.721   8.085   9.585  0.5555 -0.1240  2.3597
  759MOL0     H 2457   6.731   7.943   9.407 -0.2412 -2.9083 -1.4271
  759MOL0     H 2458   6.830   7.830   9.494 -1.0513  0.1755  0.3807
  759MOL0     H 2459   6.936   7.917   9.280  0.6432 -0.1273 -0.4879
  759MOL0     H 2460   6.946   8.071   9.361 -1.7799  0.6502  0.6809
  759MOL0     H 2461   7.233   7.876   9.601  0.5970  0.5050  0.1533
  759MOL0     H 2462   6.795   8.234   9.972 -0.0943 -2.0690  1.4017
  759MOL0     H 2463   6.875   8.447  10.062 -0.5224  0.6217 -0.1433
  759MOL0     H 2464   6.966   8.370  10.201  2.7338 -1.4552  0.6006
  759MOL0     H 2465   7.038   8.489  10.085 -0.3136 -0.4632  0.3464
  760MOL0     O 2466   0.507   8.096   3.116  0.0946  0.4845  0.7220
  760MOL0     C 2467   0.391   8.111   3.146 -0.1981  0.0616  0.1309
  760MOL0     O 2468   0.342   8.204   3.234 -0.4749  0.1879  0.3064
  760MOL0     C 2469   0.415   8.234   3.349 -0.5077  0.8811 -0.5064
  760MOL0     C 2470   0.542   8.192   3.389  0.8845 -0.2455  0.3782
  760MOL0     C 2471   0.593   8.235   3.510  0.1197 -0.1650  1.0795
  760MOL0     C 2472   0.523   8.327   3.588 -0.2820 -0.9020 -0.5325
  760MOL0     O 2473   0.591   8.385   3.695  0.0969  0.5029  0.2059
  760MOL0     C 2474   0.533   8.491   3.758  0.4220 -0.1205  0.1825
  760MOL0     C 2475   0.546   8.621   3.679  0.2439 -0.3485 -0.5816
  760MOL0     C 2476   0.686   8.665   3.616  0.1312  0.4831  0.1663
  760MOL0     C 2477   0.789   8.697   3.720  0.1110 -0.3907 -0.2845
  760MOL0     C 2478   0.927   8.745   3.661 -0.2951  0.1013  0.5815
  760MOL0     C 2479   1.025   8.796   3.765 -0.7199  0.3398 -0.1274
  760MOL0     C 2480   1.051   8.691   3.882  0.7577  0.1434  0.1936
  760MOL0     C 2481   1.151   8.572   3.850 -0.2517 -0.4158  0.3597
  760MOL0     N 2482   1.289   8.607   3.822 -0.3707  0.5057  0.0521
  760MOL0     C 2483   1.361   8.714   3.862  0.7833  0.5148 -1.2088
  760MOL0     C 2484   1.493   8.688   3.846 -0.3962 -0.0593  1.1144
  760MOL0     C 2485   1.598   8.800   3.868 -0.3187 -0.1963 -1.1580
  760MOL0     C 2486   1.699   8.775   3.758 -0.5638 -0.0648 -0.0595
  760MOL0     C 2487   1.793   8.895   3.746 -0.6190 -0.3929  0.3417
  760MOL0     C 2488   1.899   8.885   3.643  0.0016 -0.0637 -0.3409
  760MOL0     O 2489   2.028   8.947   3.692 -0.1358  0.2093 -0.2460
  760MOL0     C 2490   2.106   8.998   3.593 -0.8476 -0.3825  1.0742
  760MOL0     C 2491   2.233   8.941   3.565 -0.5469  0.1333  0.5955
  760MOL0     C 2492   2.324   8.994   3.467 -0.0172  0.0273 -0.4035
  760MOL0     C 2493   2.291   9.106   3.393 -0.3219 -0.0105 -0.0294
  760MOL0     C 2494   2.374   9.151   3.285  0.0137 -0.5102 -0.1856
  760MOL0     O 2495   2.490   9.082   3.261  0.2469  1.0534  0.2169
  760MOL0     C 2496   2.585   9.130   3.171  0.2774 -0.0332  0.9138
  760MOL0     C 2497   2.554   9.172   3.041 -0.4193 -0.8026 -0.7218
  760MOL0     C 2498   2.647   9.225   2.957 -0.3851  0.3531 -0.5222
  760MOL0     C 2499   2.782   9.226   3.000  0.1646  1.4117  0.6380
  760MOL0     O 2500   2.895   9.262   2.927 -0.5582  0.1153 -0.0702
  760MOL0     C 2501   2.883   9.291   2.790  0.5808  0.1383  0.0670
  760MOL0     C 2502   3.025   9.289   2.720 -0.2654 -0.4065 -0.4982
  760MOL0     C 2503   3.014   9.311   2.571  0.5830  0.8316  0.5722
  760MOL0     C 2504   3.158   9.294   2.500 -0.6747  0.0920 -0.4462
  760MOL0     C 2505   3.154   9.310   2.347  0.1916  0.5792 -0.2664
  760MOL0     C 2506   3.074   9.211   2.262  0.0017  1.3133 -0.6104
  760MOL0     C 2507   3.036   9.241   2.118  0.3895 -0.3566 -0.0151
  760MOL0     C 2508   2.973   9.377   2.092  0.3370  0.1148 -0.3183
  760MOL0    Cl 2509   2.816   9.368   2.177 -0.2182  0.0485 -0.0066
  760MOL0     C 2510   2.810   9.173   3.128  0.0014 -0.5791  0.2663
  760MOL0     C 2511   2.718   9.121   3.211  0.1914  0.3528 -0.0531
  760MOL0     O 2512   2.330   9.253   3.226  0.2868 -1.1195 -0.6468
  760MOL0     C 2513   2.160   9.157   3.412 -0.1005 -0.0712 -0.3732
  760MOL0     C 2514   2.071   9.112   3.509  0.6594  0.5679 -0.1711
  760MOL0     N 2515   1.500   8.563   3.786  0.2038  0.2526 -0.2875
  760MOL0     N 2516   1.377   8.515   3.777 -0.0416 -0.2644  0.0198
  760MOL0     C 2517   0.391   8.362   3.548 -0.0260 -1.1996  0.1600
  760MOL0     C 2518   0.342   8.320   3.428 -0.3965  0.5914 -0.6208
  760MOL0     C 2519   0.297   8.005   3.092 -0.3076  0.5485 -0.9839
  760MOL0     C 2520   0.180   7.990   3.167  0.5160  0.7124  0.2199
  760MOL0     C 2521   0.085   7.903   3.129 -0.3027  0.2138 -0.0060
  760MOL0     C 2522   0.094   7.813   3.021  0.5620 -0.1731 -0.2950
  760MOL0     O 2523  -0.003   7.727   2.975  0.2442  0.3455 -1.0418
  760MOL0     C 2524  -0.132   7.720   3.055  0.6984 -0.5381  0.5926
  760MOL0     C 2525  -0.208   7.611   2.979  0.7583 -0.3020  0.0626
  760MOL0     C 2526  -0.338   7.569   3.054 -0.0127 -0.6714  0.3457
  760MOL0     C 2527  -0.390   7.426   3.004  0.6136 -0.0380  1.1419
  760MOL0     C 2528  -0.452   7.445   2.867 -0.6228  0.6693 -0.2665
  760MOL0     C 2529  -0.515   7.482   2.770  0.2285 -0.3269  0.1582
  760MOL0     C 2530   0.208   7.833   2.936  1.4473 -0.6763 -0.8947
  760MOL0     C 2531   0.308   7.919   2.977 -0.4923 -0.5135 -0.8163
  760MOL0     C 2532   0.429   7.932   2.891 -0.4910  1.0533 -0.2587
  760MOL0     H 2533   0.607   8.131   3.327  2.6815  2.3639 -0.4681
  760MOL0     H 2534   0.695   8.207   3.530  0.4958 -0.0115 -0.4796
  760MOL0     H 2535   0.427   8.473   3.779  0.4600  0.4009  0.8448
  760MOL0     H 2536   0.585   8.504   3.853 -2.3391 -0.7490  1.8948
  760MOL0     H 2537   0.519   8.704   3.744  2.1778 -1.6493  2.0478
  760MOL0     H 2538   0.470   8.620   3.600 -0.0754  2.3281 -0.4161
  760MOL0     H 2539   0.667   8.759   3.562  0.7776  1.0815  0.9541
  760MOL0     H 2540   0.736   8.591   3.551  0.4552  0.0473  0.9040
  760MOL0     H 2541   0.754   8.771   3.793  1.5010 -0.4232  0.4555
  760MOL0     H 2542   0.811   8.608   3.781 -0.5003 -0.0582  0.4380
  760MOL0     H 2543   0.970   8.672   3.592  1.0932  2.8008 -1.6209
  760MOL0     H 2544   0.901   8.831   3.598 -2.3113 -1.8831 -1.4599
  760MOL0     H 2545   1.121   8.825   3.722  0.0010  2.3832  2.5687
  760MOL0     H 2546   0.997   8.895   3.803  0.7082  2.0748 -3.2061
  760MOL0     H 2547   0.963   8.646   3.929  1.1437 -0.0386  0.7547
  760MOL0     H 2548   1.095   8.751   3.962 -2.1759  1.9368  0.6105
  760MOL0     H 2549   1.144   8.507   3.939  0.4440 -0.4502  0.3959
  760MOL0     H 2550   1.121   8.518   3.760  2.9507  1.4905 -2.0769
  760MOL0     H 2551   1.318   8.806   3.902 -2.1935 -1.1659 -0.2176
  760MOL0     H 2552   1.552   8.899   3.870  0.6018  0.2569  1.1503
  760MOL0     H 2553   1.643   8.791   3.968 -1.0755 -0.0663 -0.8046
  760MOL0     H 2554   1.753   8.685   3.790 -0.0961  0.2080 -0.0723
  760MOL0     H 2555   1.653   8.762   3.660  1.0520 -1.4068 -0.6902
  760MOL0     H 2556   1.845   8.903   3.843 -0.5385 -1.3505  0.3928
  760MOL0     H 2557   1.736   8.987   3.735 -2.5091 -1.1749  2.6925
  760MOL0     H 2558   1.853   8.937   3.558  0.8528  3.3673  1.1143
  760MOL0     H 2559   1.920   8.782   3.615  0.9256 -0.3529  1.3162
  760MOL0     H 2560   2.265   8.854   3.622 -2.5751 -0.2668  1.1805
  760MOL0     H 2561   2.421   8.946   3.458 -0.7655 -1.5976 -0.2408
  760MOL0     H 2562   2.451   9.171   3.008 -0.8408  0.3429  0.4549
  760MOL0     H 2563   2.614   9.242   2.855  1.3921 -2.2740 -1.6122
  760MOL0     H 2564   2.822   9.209   2.749  0.2915  1.1659 -1.6170
  760MOL0     H 2565   2.820   9.379   2.775 -2.5192 -2.2256 -2.3861
  760MOL0     H 2566   3.080   9.372   2.766 -1.3670  1.1635 -1.8547
  760MOL0     H 2567   3.075   9.194   2.740 -1.0511 -0.8168 -0.4314
  760MOL0     H 2568   2.950   9.226   2.545  0.3396  1.2656 -0.2521
  760MOL0     H 2569   2.971   9.404   2.534  0.4264 -0.0604 -1.6917
  760MOL0     H 2570   3.213   9.205   2.533 -0.3135  0.8686  1.1501
  760MOL0     H 2571   3.216   9.380   2.536 -2.1028  1.5646 -1.5278
  760MOL0     H 2572   3.259   9.302   2.318 -0.1848 -0.5613 -1.4120
  760MOL0     H 2573   3.110   9.409   2.335  0.1305  0.5574 -0.2224
  760MOL0     H 2574   3.145   9.129   2.250 -1.4696 -0.3089  1.0802
  760MOL0     H 2575   2.985   9.182   2.318 -1.2174  2.1957 -1.9840
  760MOL0     H 2576   2.975   9.160   2.077  1.3635 -1.5690  0.8622
  760MOL0     H 2577   3.130   9.253   2.062 -0.8852 -0.2386 -2.2754
  760MOL0     H 2578   3.037   9.459   2.126  2.6784 -1.9981  0.7063
  760MOL0     H 2579   2.967   9.387   1.983  0.9041 -0.7918 -0.4379
  760MOL0     H 2580   2.912   9.175   3.165  0.0529  0.5415  0.0990
  760MOL0     H 2581   2.734   9.075   3.308 -0.2211  0.6866  0.1748
  760MOL0     H 2582   2.120   9.246   3.365 -0.6981 -0.5482 -0.7859
  760MOL0     H 2583   1.974   9.160   3.500  1.0791  2.0748  2.3030
  760MOL0     H 2584   0.332   8.426   3.613  0.5803  0.8761 -1.2071
  760MOL0     H 2585   0.237   8.335   3.402 -0.2534  0.7588 -1.1134
  760MOL0     H 2586   0.157   8.051   3.254  1.3166 -0.5297  1.3273
  760MOL0     H 2587   0.007   7.886   3.203  0.9178  1.2929  1.6092
  760MOL0     H 2588  -0.190   7.812   3.041 -0.4878 -1.5968 -2.1249
  760MOL0     H 2589  -0.113   7.700   3.160  1.6407  1.8442  0.9409
  760MOL0     H 2590  -0.153   7.517   2.980  0.3995 -0.5231 -0.7226
  760MOL0     H 2591  -0.227   7.646   2.878 -0.3905 -0.0079  0.3667
  760MOL0     H 2592  -0.411   7.649   3.039 -0.7670 -1.0897  1.6370
  760MOL0     H 2593  -0.321   7.563   3.162  0.4615 -1.9056  0.2243
  760MOL0     H 2594  -0.318   7.344   3.006 -1.5182 -2.0323  2.5843
  760MOL0     H 2595  -0.466   7.386   3.072 -0.6097 -1.8841 -1.1934
  760MOL0     H 2596  -0.574   7.522   2.690  0.1503 -1.1143 -0.1907
  760MOL0     H 2597   0.217   7.773   2.847  1.0005  0.4624 -1.7393
  760MOL0     H 2598   0.511   7.903   2.957  1.0741  1.2974 -1.9892
  760MOL0     H 2599   0.414   7.864   2.806  0.9226 -1.2765  1.2580
  760MOL0     H 2600   0.450   8.033   2.854  0.7799  1.6908  2.0046
  761MOL0     O 2601   1.314  11.229   8.908  0.6579  0.0517  0.5089
  761MOL0     C 2602   1.278  11.278   9.016  0.6056  0.0331  0.0976
  761MOL0     O 2603   1.361  11.318   9.109  0.4856  0.0227 -0.3760
  761MOL0     C 2604   1.492  11.322   9.093  0.3400 -0.1324 -0.7784
  761MOL0     C 2605   1.580  11.230   9.155  0.4177  0.6003 -0.2789
  761MOL0     C 2606   1.724  11.240   9.135 -0.7138 -0.1570 -0.4955
  761MOL0     C 2607   1.767  11.332   9.041  0.6580 -0.2438  0.3093
  761MOL0     O 2608   1.902  11.333   9.015 -0.4184  0.0098  0.3271
  761MOL0     C 2609   1.981  11.438   8.958  0.1529 -0.5925  0.2505
  761MOL0     C 2610   2.137  11.416   8.999  0.8582 -1.5381  0.0230
  761MOL0     C 2611   2.195  11.288   8.942  0.5837  0.1864  1.0149
  761MOL0     C 2612   2.345  11.281   8.990 -0.4074 -0.4836  0.6759
  761MOL0     C 2613   2.429  11.159   8.944 -0.4150 -0.3922  0.9688
  761MOL0     C 2614   2.375  11.019   8.990  0.0284 -0.6492  0.4719
  761MOL0     C 2615   2.464  10.912   8.927  0.3589  0.1073 -0.1676
  761MOL0     C 2616   2.610  10.947   8.909 -0.3454 -0.9697  0.9233
  761MOL0     N 2617   2.693  10.840   8.847 -0.0614  0.1177  0.2679
  761MOL0     C 2618   2.788  10.760   8.910  0.1398 -0.6227  0.2473
  761MOL0     C 2619   2.817  10.669   8.811 -0.1595  0.8082 -0.0811
  761MOL0     C 2620   2.893  10.543   8.822  0.7940 -0.1326 -0.8693
  761MOL0     C 2621   3.046  10.555   8.845  0.4140  0.2278 -0.0763
  761MOL0     C 2622   3.115  10.630   8.725  0.9761 -0.2269  0.3369
  761MOL0     C 2623   3.265  10.610   8.729  0.3119 -0.0715 -0.2747
  761MOL0     O 2624   3.305  10.699   8.623  0.4421  0.5298 -0.6892
  761MOL0     C 2625   3.439  10.693   8.590 -0.1817  0.0695  0.6354
  761MOL0     C 2626   3.491  10.794   8.505 -0.2618 -0.2298 -1.4613
  761MOL0     C 2627   3.626  10.800   8.458 -0.1543 -0.4332  0.4089
  761MOL0     C 2628   3.715  10.705   8.498 -0.1807 -0.0554  0.9200
  761MOL0     C 2629   3.855  10.713   8.448 -0.3132 -0.3825 -0.5496
  761MOL0     O 2630   3.918  10.590   8.431 -0.1291 -0.4686 -0.5511
  761MOL0     C 2631   4.059  10.601   8.435  0.0358 -0.5150 -0.3020
  761MOL0     C 2632   4.129  10.640   8.319 -0.4813 -0.0045 -0.2486
  761MOL0     C 2633   4.272  10.670   8.327 -0.4880  0.0903 -0.2072
  761MOL0     C 2634   4.345  10.649   8.443  0.2648  0.2643 -0.9605
  761MOL0     O 2635   4.482  10.684   8.440 -0.1278 -0.3228 -0.2775
  761MOL0     C 2636   4.570  10.656   8.554  0.5941 -0.7664 -0.7927
  761MOL0     C 2637   4.718  10.626   8.510 -0.2425  0.2331  0.5417
  761MOL0     C 2638   4.803  10.588   8.624  0.2240 -0.8257 -0.6356
  761MOL0     C 2639   4.943  10.549   8.582 -0.2489  0.5968  1.0508
  761MOL0     C 2640   5.028  10.536   8.716 -0.0894  0.0173  0.2412
  761MOL0     C 2641   5.154  10.446   8.691 -0.0856 -0.6027 -0.2793
  761MOL0     C 2642   5.119  10.300   8.683  0.4819 -0.2520 -0.7423
  761MOL0     C 2643   5.242  10.210   8.669 -0.1602  0.2651 -0.3835
  761MOL0    Cl 2644   5.193  10.048   8.625 -0.3023  0.0042 -0.7691
  761MOL0     C 2645   4.273  10.595   8.547  0.5900  0.4110  0.6268
  761MOL0     C 2646   4.134  10.575   8.550  0.4676 -0.7071  0.4995
  761MOL0     O 2647   3.911  10.823   8.435  0.4900  0.5074  0.2693
  761MOL0     C 2648   3.673  10.596   8.574  0.6635  0.1246  0.7787
  761MOL0     C 2649   3.533  10.589   8.619  0.2369  0.4195 -0.3692
  761MOL0     N 2650   2.739  10.702   8.698 -0.0036  0.4082  0.2906
  761MOL0     N 2651   2.671  10.808   8.718 -0.8326  0.0929  0.3885
  761MOL0     C 2652   1.675  11.404   8.968  0.7010 -0.4779  0.5938
  761MOL0     C 2653   1.540  11.404   8.996  0.5359 -0.5327  0.0030
  761MOL0     C 2654   1.129  11.290   9.034  0.1177 -0.8028  0.1761
  761MOL0     C 2655   1.039  11.252   8.925 -0.1832 -0.5945 -0.9241
  761MOL0     C 2656   0.903  11.262   8.940  0.8093 -0.5627 -0.2071
  761MOL0     C 2657   0.840  11.335   9.046 -0.4700  0.7327 -0.1081
  761MOL0     O 2658   0.711  11.370   9.047 -0.0867 -0.0426 -0.4251
  761MOL0     C 2659   0.639  11.308   8.940  0.4553 -0.9363 -0.3036
  761MOL0     C 2660   0.496  11.368   8.925 -1.0545  0.6693  0.6752
  761MOL0     C 2661   0.403  11.327   9.036  0.1396  0.5615 -0.4557
  761MOL0     C 2662   0.269  11.390   9.008  0.3918 -0.4332  0.3467
  761MOL0     C 2663   0.173  11.378   9.119  0.5904  0.4885  0.6452
  761MOL0     C 2664   0.085  11.370   9.203  0.4288 -1.2288  0.7662
  761MOL0     C 2665   0.921  11.384   9.144 -0.4315 -0.7226 -0.1803
  761MOL0     C 2666   1.059  11.359   9.144 -0.4667  0.1716 -0.1378
  761MOL0     C 2667   1.139  11.418   9.263 -0.1047 -0.5617 -1.1178
  761MOL0     H 2668   1.541  11.160   9.228 -3.3890  2.2084 -0.5003
  761MOL0     H 2669   1.790  11.178   9.195 -3.4417 -2.3065  0.5062
  761MOL0     H 2670   1.978  11.455   8.850 -2.5547  3.0207  0.7280
  761MOL0     H 2671   1.939  11.527   9.004 -2.5196  0.5109 -3.8215
  761MOL0     H 2672   2.141  11.404   9.108 -1.2822 -0.0298  0.3367
  761MOL0     H 2673   2.200  11.499   8.967  2.4610 -2.6576  0.1650
  761MOL0     H 2674   2.180  11.272   8.834  0.6967 -1.8022  1.2683
  761MOL0     H 2675   2.148  11.199   8.985  2.4358 -0.6175  1.4292
  761MOL0     H 2676   2.378  11.375   8.945 -1.0125  1.0294  3.1780
  761MOL0     H 2677   2.356  11.293   9.099  2.2670  1.1381  0.3265
  761MOL0     H 2678   2.438  11.154   8.835  0.4578 -1.2378  1.0613
  761MOL0     H 2679   2.532  11.176   8.977 -0.0243  2.2890 -1.2834
  761MOL0     H 2680   2.364  11.017   9.099  1.4237  2.6930  0.8150
  761MOL0     H 2681   2.278  10.993   8.947  0.8897 -1.6574 -0.9446
  761MOL0     H 2682   2.411  10.886   8.835 -2.7672  0.7205  1.3436
  761MOL0     H 2683   2.463  10.819   8.986  1.4055 -0.1090 -0.4703
  761MOL0     H 2684   2.613  11.028   8.836 -4.7647 -1.1553  0.2810
  761MOL0     H 2685   2.649  10.972   9.009 -0.0223  2.3574  0.0944
  761MOL0     H 2686   2.828  10.762   9.011 -0.3085 -0.2685  0.4182
  761MOL0     H 2687   2.849  10.488   8.906 -0.3214  1.8085 -0.1193
  761MOL0     H 2688   2.880  10.490   8.728 -2.2876  1.7436 -1.6634
  761MOL0     H 2689   3.053  10.610   8.939 -0.2461 -0.8866  0.6396
  761MOL0     H 2690   3.085  10.456   8.867  0.2379  0.7029  2.6837
  761MOL0     H 2691   3.090  10.735   8.744  1.7709  0.0959 -0.3358
  761MOL0     H 2692   3.077  10.600   8.627  0.1402  1.1085  0.2184
  761MOL0     H 2693   3.293  10.506   8.707  0.3937 -0.3708  1.1162
  761MOL0     H 2694   3.300  10.642   8.828  2.0692  0.1051 -0.9263
  761MOL0     H 2695   3.423  10.875   8.484  0.4302  0.5075 -0.9231
  761MOL0     H 2696   3.651  10.877   8.385 -1.9702 -1.8571 -1.8457
  761MOL0     H 2697   4.077  10.652   8.225 -1.1314 -0.5997  0.0312
  761MOL0     H 2698   4.331  10.709   8.244  1.8267 -1.0292  0.8362
  761MOL0     H 2699   4.575  10.749   8.612  0.5073  0.6096 -2.8932
  761MOL0     H 2700   4.531  10.573   8.613  0.6882 -0.1913  0.1014
  761MOL0     H 2701   4.700  10.542   8.443 -0.8011  1.1431 -0.4800
  761MOL0     H 2702   4.759  10.716   8.463  2.7378 -1.0374  0.5028
  761MOL0     H 2703   4.803  10.658   8.708  1.0205 -0.7931 -0.6524
  761MOL0     H 2704   4.753  10.503   8.671  0.5105 -1.9031 -2.2345
  761MOL0     H 2705   4.989  10.621   8.513  2.4004 -1.5069  0.4427
  761MOL0     H 2706   4.938  10.458   8.522 -4.8539  0.6100  1.1104
  761MOL0     H 2707   4.964  10.497   8.795  0.9660  2.3905  2.4118
  761MOL0     H 2708   5.055  10.636   8.751  2.4181 -1.3912  2.7454
  761MOL0     H 2709   5.188  10.470   8.590 -2.1929 -0.7642 -1.0885
  761MOL0     H 2710   5.239  10.458   8.759  1.0714  1.2747 -1.9766
  761MOL0     H 2711   5.058  10.275   8.595 -2.8666 -1.3881  1.7169
  761MOL0     H 2712   5.053  10.269   8.764 -0.5475  2.7646 -0.2880
  761MOL0     H 2713   5.316  10.246   8.597 -0.0577 -1.9430 -1.4978
  761MOL0     H 2714   5.308  10.203   8.756  1.0128  1.4771 -1.1405
  761MOL0     H 2715   4.330  10.590   8.639  1.1988  3.9542  0.5824
  761MOL0     H 2716   4.094  10.525   8.637  1.5321 -2.3611  0.0826
  761MOL0     H 2717   3.735  10.509   8.593  0.2877 -0.0696  1.1407
  761MOL0     H 2718   3.501  10.499   8.670  2.6751 -1.9470 -2.6788
  761MOL0     H 2719   1.716  11.471   8.893  1.8468 -1.2700  0.4829
  761MOL0     H 2720   1.473  11.479   8.954 -0.6041 -1.5155 -0.0102
  761MOL0     H 2721   1.075  11.200   8.837 -0.3260 -2.4410  0.0507
  761MOL0     H 2722   0.847  11.200   8.871  0.0388 -0.6164  0.4533
  761MOL0     H 2723   0.639  11.200   8.956 -1.5642 -0.8725  0.4221
  761MOL0     H 2724   0.682  11.337   8.844 -1.4573 -0.7356 -1.1510
  761MOL0     H 2725   0.446  11.327   8.837  1.4385 -2.7617  0.6578
  761MOL0     H 2726   0.499  11.477   8.916  1.9525  0.4938 -2.9781
  761MOL0     H 2727   0.437  11.371   9.130 -0.8841 -0.4425  0.4305
  761MOL0     H 2728   0.395  11.219   9.056 -2.0024  0.5048 -1.3419
  761MOL0     H 2729   0.283  11.497   8.991 -0.1228 -0.3140  0.6321
  761MOL0     H 2730   0.226  11.347   8.918 -1.8724  0.9603  0.6735
  761MOL0     H 2731   0.012  11.362   9.281  0.4413 -0.4995  0.8540
  761MOL0     H 2732   0.878  11.428   9.234 -1.4910 -0.9631 -0.5557
  761MOL0     H 2733   1.219  11.488   9.239  0.3053 -0.8173 -0.5507
  761MOL0     H 2734   1.088  11.475   9.341  2.4170 -0.1003  0.2934
  761MOL0     H 2735   1.184  11.333   9.316 -0.4423 -0.9538 -1.4451
  762MOL0     O 2736   4.818   2.602   1.707 -0.0089 -0.5793  0.1361
  762MOL0     C 2737   4.817   2.482   1.697  0.1260  0.2718  0.3005
  762MOL0     O 2738   4.886   2.413   1.601  0.4455  0.6500 -0.4364
  762MOL0     C 2739   4.992   2.450   1.533 -1.4420 -0.7566  0.2423
  762MOL0     C 2740   5.031   2.371   1.424 -0.1513 -0.3143 -0.4500
  762MOL0     C 2741   5.133   2.405   1.341  0.0660 -0.1833  0.5531
  762MOL0     C 2742   5.202   2.526   1.360 -0.1069  0.8187  0.3765
  762MOL0     O 2743   5.303   2.547   1.270  0.5385 -0.1187  0.0049
  762MOL0     C 2744   5.427   2.605   1.315 -0.1519 -0.6658 -0.8732
  762MOL0     C 2745   5.522   2.608   1.194 -0.6133  0.7796 -0.4689
  762MOL0     C 2746   5.573   2.469   1.156  0.1227 -0.5780 -0.6630
  762MOL0     C 2747   5.670   2.485   1.041 -0.2444  1.3750  0.1432
  762MOL0     C 2748   5.736   2.353   1.004  0.5490  0.8397  0.1822
  762MOL0     C 2749   5.871   2.372   0.949 -0.6894 -0.6442  0.9288
  762MOL0     C 2750   5.940   2.238   0.916 -0.1438 -0.2232 -0.9943
  762MOL0     C 2751   5.891   2.185   0.774  0.1293  0.6728 -0.6857
  762MOL0     N 2752   5.951   2.054   0.739 -0.6750 -0.0916 -0.6752
  762MOL0     C 2753   6.068   1.997   0.787  0.0229  0.5282  0.1485
  762MOL0     C 2754   6.073   1.875   0.729  0.5182  0.7353  0.0560
  762MOL0     C 2755   6.192   1.781   0.741 -0.6538 -0.2140 -0.3171
  762MOL0     C 2756   6.296   1.826   0.850  0.1595  0.2974  0.1947
  762MOL0     C 2757   6.397   1.704   0.852 -0.0708  0.0938  0.3154
  762MOL0     C 2758   6.494   1.696   0.964 -0.7098  0.2751 -0.2493
  762MOL0     O 2759   6.586   1.809   0.981  1.0601  0.4630  0.1309
  762MOL0     C 2760   6.715   1.784   1.026 -0.4193  0.4329 -0.5608
  762MOL0     C 2761   6.819   1.848   0.969  0.7745 -1.2403  0.1206
  762MOL0     C 2762   6.942   1.852   1.039 -1.0509 -0.1987  0.5178
  762MOL0     C 2763   6.960   1.769   1.153 -0.6665  0.0973  0.7155
  762MOL0     C 2764   7.093   1.747   1.219 -0.5394  0.6923 -0.2544
  762MOL0     O 2765   7.201   1.807   1.159 -0.6378 -0.0282 -0.1667
  762MOL0     C 2766   7.306   1.847   1.234  0.3489 -0.1917 -0.7557
  762MOL0     C 2767   7.295   1.944   1.337 -0.3664 -1.0744  0.1702
  762MOL0     C 2768   7.406   1.991   1.404 -0.3537 -0.2101  0.7909
  762MOL0     C 2769   7.535   1.945   1.368 -0.3348 -0.7959 -1.3121
  762MOL0     O 2770   7.655   1.982   1.434  0.5679  0.5908 -0.0701
  762MOL0     C 2771   7.697   2.118   1.426  0.2117  0.9447 -0.0486
  762MOL0     C 2772   7.827   2.113   1.349 -0.1784 -0.4400  0.5125
  762MOL0     C 2773   7.894   2.254   1.331  0.8876  1.3134  0.4424
  762MOL0     C 2774   8.043   2.237   1.306  0.3846  0.6047  0.1442
  762MOL0     C 2775   8.103   2.330   1.190 -0.3353 -0.5190  0.2951
  762MOL0     C 2776   8.120   2.474   1.242 -0.2568 -0.8234 -0.2098
  762MOL0     C 2777   8.188   2.572   1.148  0.7343 -0.0663  0.0729
  762MOL0     C 2778   8.326   2.512   1.097 -0.3649  0.4147  0.6024
  762MOL0    Cl 2779   8.407   2.633   0.979 -0.1287  0.5794 -0.3194
  762MOL0     C 2780   7.545   1.845   1.267 -0.1918  0.1223 -0.1943
  762MOL0     C 2781   7.434   1.794   1.200 -0.0491 -0.0261  0.2739
  762MOL0     O 2782   7.098   1.672   1.315 -0.4324  0.2568 -0.6391
  762MOL0     C 2783   6.853   1.687   1.198  0.1787  0.2387  0.3165
  762MOL0     C 2784   6.731   1.702   1.136  0.6680 -0.2347 -0.0591
  762MOL0     N 2785   5.971   1.862   0.640 -0.4538 -0.2922 -0.3160
  762MOL0     N 2786   5.904   1.973   0.647 -0.1821 -0.3763 -0.1161
  762MOL0     C 2787   5.165   2.600   1.464 -0.0284 -0.8597  0.1579
  762MOL0     C 2788   5.065   2.570   1.553  0.5369 -0.8869 -0.4810
  762MOL0     C 2789   4.717   2.393   1.774  0.6593  0.1922  0.7805
  762MOL0     C 2790   4.704   2.261   1.737 -0.5140 -0.1063  0.0556
  762MOL0     C 2791   4.611   2.180   1.795 -0.1575  0.4222  0.4313
  762MOL0     C 2792   4.541   2.223   1.904  0.1234  1.5109 -0.1694
  762MOL0     O 2793   4.469   2.128   1.965  0.5097  0.0165 -0.4946
  762MOL0     C 2794   4.405   2.163   2.096  0.6714 -0.1337  0.6300
  762MOL0     C 2795   4.337   2.044   2.163 -0.1365 -0.5948 -0.6791
  762MOL0     C 2796   4.208   2.004   2.085 -0.0855 -0.1444 -0.1262
  762MOL0     C 2797   4.079   2.056   2.143 -0.1622 -0.6023 -0.2023
  762MOL0     C 2798   4.063   2.200   2.125  0.1244  0.2203  0.9252
  762MOL0     C 2799   4.038   2.310   2.081  0.1707 -0.5180 -0.2907
  762MOL0     C 2800   4.559   2.352   1.948  1.0752  0.6645 -0.3308
  762MOL0     C 2801   4.643   2.441   1.888  0.4197 -0.2829  0.0113
  762MOL0     C 2802   4.638   2.582   1.940 -0.2198  0.7130 -0.6657
  762MOL0     H 2803   4.982   2.277   1.405 -0.6690 -1.0283  3.5983
  762MOL0     H 2804   5.157   2.342   1.255 -0.6344  0.6520 -0.2741
  762MOL0     H 2805   5.405   2.702   1.361 -1.5744 -2.2806  2.1530
  762MOL0     H 2806   5.466   2.543   1.397 -0.8992 -2.4108 -1.7767
  762MOL0     H 2807   5.614   2.665   1.211  0.1288 -0.2051 -1.0900
  762MOL0     H 2808   5.471   2.650   1.107 -0.1628  0.4971 -0.8782
  762MOL0     H 2809   5.495   2.400   1.122  0.5944 -1.7299  0.5006
  762MOL0     H 2810   5.626   2.425   1.241  4.8197  0.7818 -2.5384
  762MOL0     H 2811   5.635   2.543   0.955  1.0331 -2.0301 -2.9188
  762MOL0     H 2812   5.751   2.542   1.089  1.7289 -0.7103 -0.5023
  762MOL0     H 2813   5.738   2.288   1.092 -0.8994  1.3971  0.6599
  762MOL0     H 2814   5.672   2.303   0.930 -0.4828 -0.2511  1.7591
  762MOL0     H 2815   5.875   2.428   0.855 -1.3645 -1.4575  0.3938
  762MOL0     H 2816   5.930   2.426   1.023 -0.1749  3.4838 -2.1598
  762MOL0     H 2817   5.905   2.164   0.989 -3.5432  1.9902 -0.1483
  762MOL0     H 2818   6.049   2.240   0.927 -0.1489 -1.8248 -0.3256
  762MOL0     H 2819   5.782   2.179   0.773  0.2025 -0.8896 -1.1513
  762MOL0     H 2820   5.922   2.256   0.697  0.3104  1.4307  0.0616
  762MOL0     H 2821   6.146   2.029   0.857  2.3749 -0.7255 -1.7481
  762MOL0     H 2822   6.136   1.689   0.762 -3.6724  1.5049 -0.1956
  762MOL0     H 2823   6.244   1.776   0.645  0.8596  2.0039  0.3036
  762MOL0     H 2824   6.347   1.918   0.821  1.7892  0.8184  4.1265
  762MOL0     H 2825   6.241   1.835   0.944  0.5450 -2.2893  0.7417
  762MOL0     H 2826   6.453   1.715   0.759 -2.6179  1.4592 -1.1709
  762MOL0     H 2827   6.347   1.607   0.850  1.3477 -0.6482 -0.3298
  762MOL0     H 2828   6.551   1.603   0.951 -3.3306 -1.4250 -0.2587
  762MOL0     H 2829   6.429   1.669   1.047 -1.6688 -3.4984 -2.0032
  762MOL0     H 2830   6.800   1.909   0.881  1.7483 -0.5304  0.3840
  762MOL0     H 2831   7.030   1.912   1.019 -0.1904 -0.7605  2.3538
  762MOL0     H 2832   7.203   1.999   1.356 -0.1830  0.2412 -2.3107
  762MOL0     H 2833   7.399   2.073   1.475 -0.1440 -1.8700  2.8508
  762MOL0     H 2834   7.619   2.184   1.386  0.2615 -0.2182 -2.1969
  762MOL0     H 2835   7.717   2.157   1.526  0.0831 -0.4275  0.5267
  762MOL0     H 2836   7.894   2.045   1.403 -0.3544 -0.5284  0.6211
  762MOL0     H 2837   7.798   2.069   1.253 -0.7388 -1.5872  1.1814
  762MOL0     H 2838   7.836   2.301   1.251  0.5416  0.9920  0.5039
  762MOL0     H 2839   7.877   2.312   1.422  2.9073  0.1343  1.6597
  762MOL0     H 2840   8.051   2.135   1.269  0.3831  0.0597  1.5734
  762MOL0     H 2841   8.107   2.247   1.394  1.9939 -0.8551 -0.8085
  762MOL0     H 2842   8.047   2.335   1.096 -3.5710  2.4252  2.1246
  762MOL0     H 2843   8.199   2.283   1.167  1.3448  2.2774  1.1212
  762MOL0     H 2844   8.026   2.514   1.284 -0.0573  0.8926 -1.2878
  762MOL0     H 2845   8.189   2.478   1.327 -0.6053  0.8041  0.0421
  762MOL0     H 2846   8.204   2.667   1.200 -0.5653 -0.7087  1.7484
  762MOL0     H 2847   8.127   2.579   1.058  0.5124 -2.4308 -0.0283
  762MOL0     H 2848   8.394   2.489   1.180  3.6965 -0.3597 -2.5941
  762MOL0     H 2849   8.308   2.415   1.050 -2.7003  1.5821 -1.1041
  762MOL0     H 2850   7.645   1.806   1.248 -1.7508 -2.5606 -4.2518
  762MOL0     H 2851   7.456   1.718   1.126  0.3836 -0.0005  0.3719
  762MOL0     H 2852   6.860   1.635   1.293  4.4236  0.1185  0.1091
  762MOL0     H 2853   6.646   1.648   1.176  1.5893 -0.6400  1.4401
  762MOL0     H 2854   5.200   2.701   1.481 -1.4845 -0.2945 -0.0565
  762MOL0     H 2855   5.052   2.643   1.632  3.2198 -1.2388  0.3755
  762MOL0     H 2856   4.760   2.216   1.655 -4.6357 -2.0938 -1.9848
  762MOL0     H 2857   4.595   2.076   1.767 -2.1509  1.0583 -0.9837
  762MOL0     H 2858   4.324   2.233   2.077  2.1232  1.8736  1.4410
  762MOL0     H 2859   4.471   2.216   2.166 -0.0098  1.6894 -0.0475
  762MOL0     H 2860   4.310   2.077   2.264  0.9840 -1.7924  0.0381
  762MOL0     H 2861   4.410   1.963   2.162  0.2439 -0.2560 -0.6367
  762MOL0     H 2862   4.194   1.897   2.070 -2.3202  0.2778 -1.5894
  762MOL0     H 2863   4.216   2.037   1.981 -5.1188 -3.5695 -2.0018
  762MOL0     H 2864   4.000   2.005   2.087  1.4087 -0.9418 -2.2376
  762MOL0     H 2865   4.069   2.033   2.249  1.4919  2.3009  0.6922
  762MOL0     H 2866   3.997   2.395   2.029 -0.1995  0.4850  1.5780
  762MOL0     H 2867   4.505   2.390   2.035 -0.1996 -1.6415 -0.0240
  762MOL0     H 2868   4.640   2.656   1.859  1.5657  1.7245  0.2511
  762MOL0     H 2869   4.551   2.605   2.003  0.3526 -0.6582  0.6813
  762MOL0     H 2870   4.728   2.586   2.001 -0.2101 -0.1421 -0.6036
  763MOL0     O 2871   8.707  10.889  10.481  0.7933 -0.7301 -0.5054
  763MOL0     C 2872   8.654  10.947  10.379 -0.0511  0.7649  0.4332
  763MOL0     O 2873   8.608  10.879  10.266 -0.0608  0.3398 -0.9046
  763MOL0     C 2874   8.629  10.745  10.247  0.0046 -0.0195 -1.1341
  763MOL0     C 2875   8.761  10.689  10.228  0.7715  0.4722 -0.3712
  763MOL0     C 2876   8.782  10.554  10.207 -0.1300 -0.4318 -0.4924
  763MOL0     C 2877   8.669  10.473  10.193 -0.4185 -0.5803 -0.2490
  763MOL0     O 2878   8.710  10.343  10.155  0.2402  0.4929 -0.6539
  763MOL0     C 2879   8.652  10.248  10.244  0.0769  0.2924 -1.0304
  763MOL0     C 2880   8.693  10.105  10.221  0.2113  0.3616  0.2982
  763MOL0     C 2881   8.613  10.044  10.101 -0.2988 -0.3304  0.2629
  763MOL0     C 2882   8.668   9.904  10.090  0.5545  0.5328  0.4720
  763MOL0     C 2883   8.627   9.832   9.956 -0.1098 -0.2115 -0.2731
  763MOL0     C 2884   8.666   9.683   9.973 -0.6221  0.4733  0.1118
  763MOL0     C 2885   8.604   9.583   9.869 -0.1476  0.9305 -0.5104
  763MOL0     C 2886   8.602   9.620   9.726  0.8220 -0.3861 -0.6691
  763MOL0     N 2887   8.737   9.655   9.671 -1.0416 -0.5834 -0.0353
  763MOL0     C 2888   8.836   9.570   9.634  0.2733  0.4097  0.0490
  763MOL0     C 2889   8.919   9.641   9.564  1.2455 -0.2545 -0.5779
  763MOL0     C 2890   9.038   9.597   9.485 -0.3155 -0.2842 -0.0218
  763MOL0     C 2891   9.039   9.490   9.375  0.6238 -0.6527  1.0809
  763MOL0     C 2892   8.963   9.535   9.249 -0.1566  0.2301 -0.1996
  763MOL0     C 2893   8.925   9.415   9.160  0.2849  0.6213  0.0034
  763MOL0     O 2894   8.834   9.447   9.052  0.4838  0.0324  0.5687
  763MOL0     C 2895   8.704   9.405   9.055 -1.0732 -0.1563  0.1486
  763MOL0     C 2896   8.627   9.379   9.168 -0.1052 -0.2109  0.0347
  763MOL0     C 2897   8.486   9.346   9.170 -0.0998 -0.0905  0.1470
  763MOL0     C 2898   8.427   9.341   9.044  0.9151  0.5061 -0.2688
  763MOL0     C 2899   8.284   9.299   9.024 -0.4895  0.0413  0.3008
  763MOL0     O 2900   8.243   9.297   8.894  0.2988 -0.6527  0.3605
  763MOL0     C 2901   8.119   9.239   8.860 -0.1385  1.0537 -0.9224
  763MOL0     C 2902   8.005   9.280   8.914  0.3782  0.1517  0.5967
  763MOL0     C 2903   7.883   9.220   8.866 -1.0210 -0.6123  0.6059
  763MOL0     C 2904   7.885   9.122   8.775 -0.5949  0.2160  0.4783
  763MOL0     O 2905   7.762   9.067   8.746 -0.1363  0.3474 -0.2694
  763MOL0     C 2906   7.758   8.949   8.671 -0.1660 -0.7141 -0.5300
  763MOL0     C 2907   7.613   8.906   8.682  0.5105 -0.7993  0.5657
  763MOL0     C 2908   7.590   8.824   8.807  0.5867  0.5385  0.0702
  763MOL0     C 2909   7.442   8.773   8.830  0.1810 -0.2949  0.4427
  763MOL0     C 2910   7.417   8.648   8.742  0.2462  0.1355  0.1644
  763MOL0     C 2911   7.317   8.552   8.811 -0.1898  0.1280  1.0949
  763MOL0     C 2912   7.313   8.412   8.750 -0.4485  1.1686 -0.1827
  763MOL0     C 2913   7.298   8.399   8.598  0.0729 -0.0763 -0.1054
  763MOL0    Cl 2914   7.145   8.472   8.543  0.2984  0.2117 -0.0759
  763MOL0     C 2915   8.000   9.094   8.699  0.2223  0.5632 -0.4068
  763MOL0     C 2916   8.121   9.146   8.747 -0.4998 -0.1691 -0.4979
  763MOL0     O 2917   8.218   9.259   9.124  0.3172 -0.7107 -0.4389
  763MOL0     C 2918   8.498   9.366   8.922 -0.6014  0.1969 -1.5659
  763MOL0     C 2919   8.636   9.402   8.932 -0.2030 -0.1186  0.0186
  763MOL0     N 2920   8.878   9.777   9.565 -0.4871 -0.4579 -0.3957
  763MOL0     N 2921   8.769   9.778   9.627  0.0641 -0.0778  0.4153
  763MOL0     C 2922   8.535  10.522  10.199 -0.5475  0.2203 -0.5272
  763MOL0     C 2923   8.522  10.658  10.228  0.7071 -0.1577  1.0685
  763MOL0     C 2924   8.672  11.087  10.378  0.4590 -0.0062 -0.4288
  763MOL0     C 2925   8.613  11.174  10.472  0.4936 -0.8159 -0.5857
  763MOL0     C 2926   8.627  11.315  10.465  1.2858  0.7762 -0.3950
  763MOL0     C 2927   8.714  11.378  10.381 -0.7631  0.0077 -0.3257
  763MOL0     O 2928   8.731  11.513  10.400  0.1523  0.7900  0.4278
  763MOL0     C 2929   8.794  11.583  10.300 -0.0156 -0.2133  0.1638
  763MOL0     C 2930   8.788  11.730  10.337 -1.1751  0.1763 -0.3320
  763MOL0     C 2931   8.757  11.809  10.214 -0.1771 -1.1165  0.5648
  763MOL0     C 2932   8.763  11.967  10.220  0.3108  0.5727  0.0522
  763MOL0     C 2933   8.837  12.016  10.329 -0.2302  0.4889  0.5469
  763MOL0     C 2934   8.888  12.057  10.435  0.2382  0.3759 -0.7210
  763MOL0     C 2935   8.783  11.295  10.289  0.2354 -0.4414 -0.2138
  763MOL0     C 2936   8.751  11.151  10.281 -0.0541 -0.0805 -0.0829
  763MOL0     C 2937   8.804  11.069  10.170 -0.2278  1.5220 -0.1059
  763MOL0     H 2938   8.852  10.745  10.246  1.9242 -1.3286 -0.3679
  763MOL0     H 2939   8.883  10.522  10.185  0.0709  0.6051 -1.1194
  763MOL0     H 2940   8.690  10.275  10.344 -1.9720  1.4743 -0.5169
  763MOL0     H 2941   8.544  10.259  10.244 -0.2042 -2.1182 -0.8853
  763MOL0     H 2942   8.688  10.039  10.308 -0.9768 -0.9457 -0.7030
  763MOL0     H 2943   8.799  10.111  10.196  0.5147 -0.6263  1.2825
  763MOL0     H 2944   8.622  10.087  10.001 -1.7404 -0.8154 -0.0978
  763MOL0     H 2945   8.505  10.050  10.117 -0.3664  3.4621 -0.6723
  763MOL0     H 2946   8.777   9.895  10.097  0.4682 -1.7137 -0.4837
  763MOL0     H 2947   8.615   9.847  10.167  1.6385 -2.2499 -0.7272
  763MOL0     H 2948   8.518   9.835   9.947 -0.4947 -0.3456  3.0254
  763MOL0     H 2949   8.670   9.882   9.869  1.8521  1.1544  1.3643
  763MOL0     H 2950   8.774   9.675   9.958 -0.6459  1.5440 -0.7033
  763MOL0     H 2951   8.638   9.640  10.069  0.2366  0.3050  0.2940
  763MOL0     H 2952   8.500   9.589   9.901 -0.3370  5.3608 -1.3796
  763MOL0     H 2953   8.649   9.484   9.879  1.8178  1.8223  0.0106
  763MOL0     H 2954   8.556   9.540   9.667 -1.0851 -0.7745  1.2355
  763MOL0     H 2955   8.541   9.710   9.718  0.3870 -0.3943  1.7318
  763MOL0     H 2956   8.828   9.462   9.642  1.2176  0.3800  0.8164
  763MOL0     H 2957   9.073   9.683   9.427 -1.9843  0.0445 -0.6094
  763MOL0     H 2958   9.117   9.576   9.557 -0.3731 -0.3862  0.0129
  763MOL0     H 2959   9.140   9.473   9.337  1.0147  1.8789  0.8175
  763MOL0     H 2960   8.999   9.394   9.409  0.4699  0.1051  3.1648
  763MOL0     H 2961   9.017   9.607   9.188  0.3770 -1.4154 -1.7811
  763MOL0     H 2962   8.865   9.581   9.265 -1.0469 -0.2489 -3.5042
  763MOL0     H 2963   8.878   9.337   9.220 -3.1021  1.7642 -0.9508
  763MOL0     H 2964   9.015   9.377   9.111  1.8435  0.2737  2.9118
  763MOL0     H 2965   8.685   9.373   9.260 -1.2236 -2.2898  0.6761
  763MOL0     H 2966   8.436   9.333   9.265  2.1461 -1.9982  1.1794
  763MOL0     H 2967   7.997   9.350   8.996 -2.4164  0.8362 -0.1378
  763MOL0     H 2968   7.788   9.250   8.909 -2.4437 -0.2602 -2.4835
  763MOL0     H 2969   7.770   8.968   8.564 -0.5272  1.7746 -0.2070
  763MOL0     H 2970   7.831   8.878   8.709  0.1728  0.5012  1.2322
  763MOL0     H 2971   7.546   8.992   8.679  1.4557 -0.0598  0.2341
  763MOL0     H 2972   7.594   8.828   8.608  2.1525 -0.9492  0.2702
  763MOL0     H 2973   7.653   8.734   8.812 -2.8957 -2.0816  0.6596
  763MOL0     H 2974   7.619   8.889   8.890  0.7533  0.7455 -0.1475
  763MOL0     H 2975   7.357   8.839   8.809 -1.1678 -1.9952  0.3073
  763MOL0     H 2976   7.451   8.734   8.931  3.8231 -2.2522 -0.4535
  763MOL0     H 2977   7.499   8.579   8.722 -0.4021 -0.2135 -1.4733
  763MOL0     H 2978   7.374   8.669   8.643  1.4122  1.9833 -0.0032
  763MOL0     H 2979   7.349   8.547   8.916  3.2825  2.0241  0.2771
  763MOL0     H 2980   7.220   8.600   8.794 -0.5884 -1.6032 -2.3130
  763MOL0     H 2981   7.232   8.355   8.797  1.1502  0.2978  1.7224
  763MOL0     H 2982   7.412   8.370   8.769 -0.1764  2.5917  1.8514
  763MOL0     H 2983   7.391   8.435   8.554 -0.5917  0.5191 -1.0501
  763MOL0     H 2984   7.284   8.296   8.565 -0.6507 -0.0076 -0.0328
  763MOL0     H 2985   7.984   9.027   8.615 -2.1043 -1.6944  1.6362
  763MOL0     H 2986   8.217   9.124   8.702  0.6328  3.2213 -0.0670
  763MOL0     H 2987   8.461   9.368   8.821 -0.1396  1.2637 -1.7287
  763MOL0     H 2988   8.685   9.427   8.838  0.5204 -1.5116  0.0069
  763MOL0     H 2989   8.456  10.454  10.171 -1.1652  0.4678  0.5421
  763MOL0     H 2990   8.425  10.708  10.228  1.0978  0.7903 -1.6029
  763MOL0     H 2991   8.550  11.120  10.542 -0.5320  0.1735 -0.7112
  763MOL0     H 2992   8.572  11.366  10.543 -2.2547 -2.2215 -0.6945
  763MOL0     H 2993   8.735  11.569  10.209 -1.8060  0.4854  1.1670
  763MOL0     H 2994   8.898  11.549  10.286  1.4408  4.1263 -1.0997
  763MOL0     H 2995   8.885  11.770  10.370 -1.0772  1.5455 -2.1032
  763MOL0     H 2996   8.714  11.742  10.416 -0.3336 -2.4201  0.9695
  763MOL0     H 2997   8.657  11.782  10.178 -1.1848  3.7840 -1.0771
  763MOL0     H 2998   8.825  11.777  10.135  1.6758  0.8457  1.2603
  763MOL0     H 2999   8.806  12.007  10.127 -2.9883  0.3755 -1.7290
  763MOL0     H 3000   8.660  12.005  10.227  0.6259  1.1057  4.1081
  763MOL0     H 3001   8.936  12.087  10.527  1.0627 -1.3548 -0.5229
  763MOL0     H 3002   8.843  11.329  10.206  2.1929 -0.4190  1.1359
  763MOL0     H 3003   8.825  10.964  10.195 -1.7945  1.2144  0.0596
  763MOL0     H 3004   8.728  11.064  10.091 -1.0402 -0.9231  0.7167
  763MOL0     H 3005   8.896  11.117  10.136  0.4792 -0.4951 -1.2132
  764MOL0     O 3006   4.768   6.826   0.044  0.3458 -0.0563  0.1609
  764MOL0     C 3007   4.679   6.833  -0.035  0.3218  0.9810 -0.5337
  764MOL0     O 3008   4.695   6.860  -0.165  0.1705 -0.0478 -0.0498
  764MOL0     C 3009   4.813   6.831  -0.228  0.4304  0.1575  0.1888
  764MOL0     C 3010   4.847   6.908  -0.338  0.1066  0.6788 -0.5163
  764MOL0     C 3011   4.966   6.887  -0.415  0.2804  0.0722  0.0776
  764MOL0     C 3012   5.059   6.792  -0.373 -0.1831  0.0546 -0.0213
  764MOL0     O 3013   5.177   6.772  -0.441 -0.0114  0.9379  0.0286
  764MOL0     C 3014   5.173   6.654  -0.529 -0.1348 -0.2355 -1.2008
  764MOL0     C 3015   5.230   6.692  -0.671  0.3204 -0.1617 -0.0018
  764MOL0     C 3016   5.133   6.797  -0.733  0.6647  0.0324  0.5536
  764MOL0     C 3017   5.160   6.808  -0.878  0.4802  0.8699 -0.5570
  764MOL0     C 3018   5.078   6.924  -0.933 -0.2620 -0.2274 -0.2966
  764MOL0     C 3019   5.082   6.918  -1.083 -0.0141  0.3674 -0.6541
  764MOL0     C 3020   5.213   6.976  -1.135  0.3927 -0.2781  0.4248
  764MOL0     C 3021   5.217   6.982  -1.287  0.1660 -0.1151 -0.3396
  764MOL0     N 3022   5.358   6.970  -1.324  0.5282  0.1320 -0.5776
  764MOL0     C 3023   5.426   6.852  -1.313 -0.5125 -0.1184  0.2912
  764MOL0     C 3024   5.537   6.873  -1.389  0.3169 -0.2258 -0.2078
  764MOL0     C 3025   5.649   6.771  -1.418 -0.3807 -0.6102 -0.5645
  764MOL0     C 3026   5.703   6.766  -1.561  0.2639  0.1695  0.6772
  764MOL0     C 3027   5.839   6.690  -1.545 -0.0874  1.2331  0.4017
  764MOL0     C 3028   5.904   6.678  -1.686  0.3030 -1.1054  0.0829
  764MOL0     O 3029   6.028   6.605  -1.673  0.4738  0.0648 -0.0590
  764MOL0     C 3030   6.146   6.663  -1.711 -0.9833  0.9955 -0.3475
  764MOL0     C 3031   6.174   6.796  -1.688 -0.7231 -0.1407 -0.0210
  764MOL0     C 3032   6.301   6.848  -1.692  0.3227  0.4598 -0.4416
  764MOL0     C 3033   6.406   6.765  -1.726 -0.5049  0.0198 -0.1472
  764MOL0     C 3034   6.548   6.816  -1.718 -0.4721 -0.3633  0.0426
  764MOL0     O 3035   6.571   6.925  -1.641 -0.4600  0.2799  0.9017
  764MOL0     C 3036   6.707   6.962  -1.612 -0.1022  0.5353 -0.0894
  764MOL0     C 3037   6.715   7.088  -1.551  0.6651  0.2211  0.4263
  764MOL0     C 3038   6.826   7.153  -1.522 -0.3075  0.1722  0.1482
  764MOL0     C 3039   6.950   7.080  -1.535 -0.2060  0.1007 -0.2343
  764MOL0     O 3040   7.075   7.124  -1.499 -0.6702  0.0846  0.1982
  764MOL0     C 3041   7.081   7.242  -1.426 -0.4587 -0.8327 -0.5570
  764MOL0     C 3042   7.228   7.283  -1.422 -0.0204 -0.7250 -0.0293
  764MOL0     C 3043   7.256   7.387  -1.312  0.6474 -0.8920  0.5422
  764MOL0     C 3044   7.405   7.396  -1.284 -0.0125 -0.0443 -0.7780
  764MOL0     C 3045   7.434   7.511  -1.182 -0.6322 -1.1838 -0.1998
  764MOL0     C 3046   7.582   7.543  -1.158 -0.6644 -0.6693  0.4209
  764MOL0     C 3047   7.615   7.659  -1.069  0.2336  0.5116  0.3824
  764MOL0     C 3048   7.762   7.675  -1.078 -0.9426  0.8764  0.7030
  764MOL0    Cl 3049   7.855   7.528  -1.056 -0.0528  0.0800  0.2638
  764MOL0     C 3050   6.942   6.948  -1.582 -0.2644 -0.0093 -1.0348
  764MOL0     C 3051   6.828   6.888  -1.632  0.0644  0.0101 -0.6632
  764MOL0     O 3052   6.627   6.752  -1.786  0.9357 -0.6838  0.8766
  764MOL0     C 3053   6.382   6.630  -1.749  0.5402 -0.3924  0.5824
  764MOL0     C 3054   6.254   6.581  -1.757  0.1537 -1.0462  0.2665
  764MOL0     N 3055   5.536   7.005  -1.443 -0.4910  0.0923 -0.1476
  764MOL0     N 3056   5.425   7.055  -1.406 -0.4901  0.2592  0.3400
  764MOL0     C 3057   5.021   6.703  -0.273  0.6204  0.1301  0.1460
  764MOL0     C 3058   4.898   6.722  -0.204 -0.1231  0.5320 -0.1475
  764MOL0     C 3059   4.540   6.834   0.020 -0.3164  0.1807 -0.2461
  764MOL0     C 3060   4.438   6.776  -0.056 -0.0569  0.4009  0.0314
  764MOL0     C 3061   4.314   6.766  -0.006  1.2639 -0.3458  0.7964
  764MOL0     C 3062   4.277   6.791   0.120  0.1984 -0.1786 -0.5779
  764MOL0     O 3063   4.150   6.759   0.160 -0.0040  0.1130 -0.1127
  764MOL0     C 3064   4.103   6.818   0.285 -0.2725  0.8088  0.0441
  764MOL0     C 3065   4.142   6.732   0.396 -0.0247 -0.1102 -0.1315
  764MOL0     C 3066   4.095   6.587   0.381 -0.4632 -0.2579  0.0580
  764MOL0     C 3067   4.085   6.516   0.517  0.0742 -0.7242 -0.1509
  764MOL0     C 3068   4.221   6.501   0.575 -0.1796  0.0895  0.6214
  764MOL0     C 3069   4.333   6.495   0.633 -0.3942  0.3880  0.0028
  764MOL0     C 3070   4.377   6.854   0.199  0.5935  0.8402  0.3014
  764MOL0     C 3071   4.506   6.880   0.153  0.1688  0.4426 -0.8990
  764MOL0     C 3072   4.598   6.966   0.233  0.2341 -0.1551  0.0069
  764MOL0     H 3073   4.786   6.994  -0.363 -0.2102 -0.0664 -2.4384
  764MOL0     H 3074   4.988   6.947  -0.503  2.6089 -0.7926  0.0232
  764MOL0     H 3075   5.228   6.575  -0.477 -0.8020 -1.0535 -1.7237
  764MOL0     H 3076   5.072   6.618  -0.546  0.2983 -2.0338 -0.2012
  764MOL0     H 3077   5.244   6.604  -0.734 -1.2851  1.0374 -2.1726
  764MOL0     H 3078   5.330   6.734  -0.656 -0.4108  2.1346 -1.1652
  764MOL0     H 3079   5.141   6.896  -0.688  0.2815  0.5154 -0.4136
  764MOL0     H 3080   5.030   6.762  -0.722 -0.0989  1.1788 -2.1056
  764MOL0     H 3081   5.266   6.824  -0.902  0.6818  0.3545 -0.0311
  764MOL0     H 3082   5.134   6.717  -0.934  1.5801  0.5802 -0.6264
  764MOL0     H 3083   4.974   6.912  -0.902  0.7147 -1.5049  2.8520
  764MOL0     H 3084   5.105   7.013  -0.876 -1.4735 -1.2398  2.0167
  764MOL0     H 3085   5.060   6.815  -1.109 -0.3142 -0.0682  1.1892
  764MOL0     H 3086   5.001   6.987  -1.108 -0.4975  0.5348  1.2427
  764MOL0     H 3087   5.302   6.928  -1.092  1.5605  0.8362 -0.6617
  764MOL0     H 3088   5.214   7.082  -1.107  1.3098 -0.3249  0.5966
  764MOL0     H 3089   5.172   6.892  -1.331  0.4277 -0.6373  0.4288
  764MOL0     H 3090   5.165   7.069  -1.329  1.1211  1.4936  1.6468
  764MOL0     H 3091   5.394   6.768  -1.252 -0.1654 -0.7537 -0.3826
  764MOL0     H 3092   5.737   6.789  -1.355 -1.3011  2.4839  0.0428
  764MOL0     H 3093   5.607   6.672  -1.397 -0.4345 -0.3748  0.5310
  764MOL0     H 3094   5.635   6.711  -1.626  1.0414 -2.4245  1.9355
  764MOL0     H 3095   5.717   6.869  -1.596  3.7262 -0.6898 -0.9056
  764MOL0     H 3096   5.829   6.591  -1.500  1.1806 -0.0100 -1.8712
  764MOL0     H 3097   5.905   6.754  -1.485  0.9926  1.1558 -0.6614
  764MOL0     H 3098   5.912   6.781  -1.724 -0.9112 -2.3017 -3.9227
  764MOL0     H 3099   5.848   6.628  -1.766 -1.2348 -2.6113  2.0223
  764MOL0     H 3100   6.099   6.850  -1.631 -0.7648 -2.7637  2.6540
  764MOL0     H 3101   6.317   6.947  -1.649  2.0314  0.2204 -0.4823
  764MOL0     H 3102   6.619   7.137  -1.538  2.2230  4.5257 -2.2138
  764MOL0     H 3103   6.801   7.252  -1.488  1.2961  1.0230 -0.9754
  764MOL0     H 3104   7.017   7.319  -1.469  2.3158  0.8645 -2.0113
  764MOL0     H 3105   7.042   7.215  -1.328  0.5933 -3.1892 -0.7279
  764MOL0     H 3106   7.283   7.190  -1.404 -3.1186 -2.6889  0.0807
  764MOL0     H 3107   7.265   7.330  -1.513  0.6303  0.1958  0.6908
  764MOL0     H 3108   7.212   7.484  -1.337  0.6795 -1.2735 -1.0760
  764MOL0     H 3109   7.202   7.356  -1.222  1.9009  1.9203  2.3986
  764MOL0     H 3110   7.446   7.419  -1.383 -1.5147 -0.5727 -1.5597
  764MOL0     H 3111   7.451   7.299  -1.263  1.1449  0.4126 -1.0997
  764MOL0     H 3112   7.372   7.483  -1.096 -0.1428 -0.2355  0.4815
  764MOL0     H 3113   7.397   7.610  -1.214  1.6514  0.3636  1.6055
  764MOL0     H 3114   7.619   7.451  -1.113  0.6450  0.2160  1.2037
  764MOL0     H 3115   7.624   7.561  -1.258  0.4980 -1.0160  0.8366
  764MOL0     H 3116   7.590   7.656  -0.962  3.6386 -1.1772  1.2690
  764MOL0     H 3117   7.568   7.751  -1.107  1.6116  1.5291  1.0368
  764MOL0     H 3118   7.776   7.721  -1.177 -5.1550  0.7293 -0.1423
  764MOL0     H 3119   7.792   7.743  -0.997 -0.6474  1.4612  0.1163
  764MOL0     H 3120   7.033   6.890  -1.596 -0.2285  0.2993 -2.1725
  764MOL0     H 3121   6.835   6.790  -1.679  0.7729  0.1369 -0.8376
  764MOL0     H 3122   6.465   6.561  -1.763  1.1325  0.0488  1.7308
  764MOL0     H 3123   6.229   6.480  -1.786  0.0290 -0.2375 -2.7887
  764MOL0     H 3124   5.091   6.621  -0.259  0.4497  0.0510  0.5447
  764MOL0     H 3125   4.866   6.650  -0.129 -1.4330 -1.8545 -2.8025
  764MOL0     H 3126   4.452   6.749  -0.160 -1.5310  2.4682 -0.7661
  764MOL0     H 3127   4.240   6.712  -0.064 -0.6613  1.1641  1.7528
  764MOL0     H 3128   3.994   6.827   0.289 -0.4831 -0.2726 -1.9983
  764MOL0     H 3129   4.141   6.919   0.306  2.7951 -0.5995  1.8422
  764MOL0     H 3130   4.097   6.760   0.492  3.5663  0.2109  1.6034
  764MOL0     H 3131   4.250   6.732   0.410 -0.0592  0.9016  0.2029
  764MOL0     H 3132   4.166   6.531   0.318 -0.1988 -1.4177  1.3362
  764MOL0     H 3133   4.002   6.576   0.324 -1.1524  0.3882  1.0324
  764MOL0     H 3134   4.015   6.569   0.583  2.0338 -0.9818  2.3005
  764MOL0     H 3135   4.031   6.422   0.511 -0.2122 -0.5524 -0.2369
  764MOL0     H 3136   4.424   6.486   0.689 -1.1251 -2.3046  0.9274
  764MOL0     H 3137   4.352   6.880   0.302 -1.2896 -1.1977  0.4273
  764MOL0     H 3138   4.540   7.015   0.313  2.0491 -0.1187  1.3634
  764MOL0     H 3139   4.676   6.897   0.266 -0.7301 -1.1063  0.3727
  764MOL0     H 3140   4.644   7.044   0.173 -1.4621 -0.8913 -2.4172
  765MOL0     O 3141  10.431   1.416   5.944  0.1267  0.0869  1.0537
  765MOL0     C 3142  10.422   1.511   6.022  0.4087 -0.0153 -0.9513
  765MOL0     O 3143  10.517   1.607   6.041 -0.0369 -0.3550 -0.4352
  765MOL0     C 3144  10.624   1.610   5.957 -0.9629 -0.0213  0.5598
  765MOL0     C 3145  10.609   1.661   5.825 -0.5168  0.2853  0.0178
  765MOL0     C 3146  10.715   1.655   5.730  0.0170 -0.3001  0.5464
  765MOL0     C 3147  10.839   1.599   5.763 -0.0548  0.6579  0.1500
  765MOL0     O 3148  10.935   1.582   5.666 -0.2259  0.0293  0.7521
  765MOL0     C 3149  11.077   1.595   5.687  0.5619  0.3247  0.0520
  765MOL0     C 3150  11.151   1.673   5.572 -0.3047 -1.0653  0.1874
  765MOL0     C 3151  11.311   1.654   5.576 -0.1231 -0.0256 -0.4491
  765MOL0     C 3152  11.409   1.706   5.470  0.3043  0.2285 -0.4916
  765MOL0     C 3153  11.546   1.657   5.503 -1.0441  0.4609  0.3903
  765MOL0     C 3154  11.620   1.600   5.383  0.0694 -0.0793  0.1875
  765MOL0     C 3155  11.763   1.577   5.415 -1.0366 -0.2425 -0.4012
  765MOL0     C 3156  11.827   1.484   5.304 -0.1660 -0.0037 -0.0844
  765MOL0     N 3157  11.926   1.395   5.363 -0.1676  0.8103  0.3750
  765MOL0     C 3158  11.999   1.388   5.479 -0.4603  0.7906 -0.1644
  765MOL0     C 3159  12.073   1.279   5.466  0.1538  0.8033  0.6559
  765MOL0     C 3160  12.170   1.219   5.562 -0.5797  0.8949  0.9510
  765MOL0     C 3161  12.309   1.206   5.499 -1.2450  0.7627 -0.3110
  765MOL0     C 3162  12.373   1.335   5.475  0.3288 -0.6377  0.6509
  765MOL0     C 3163  12.525   1.314   5.487  0.5945 -0.1397  0.3381
  765MOL0     O 3164  12.573   1.428   5.426  0.6083 -0.0991  0.0551
  765MOL0     C 3165  12.711   1.443   5.404  0.9421 -0.0831  0.6283
  765MOL0     C 3166  12.810   1.358   5.458 -0.3089 -0.2087 -0.0829
  765MOL0     C 3167  12.941   1.378   5.425  0.6188 -0.2256  0.4838
  765MOL0     C 3168  12.976   1.488   5.340 -0.4560 -0.0853  0.1323
  765MOL0     C 3169  13.115   1.516   5.315 -0.2884 -0.4219 -1.2787
  765MOL0     O 3170  13.197   1.474   5.409  0.4281 -0.4298  0.3630
  765MOL0     C 3171  13.334   1.482   5.394  0.1051  0.3792 -0.2652
  765MOL0     C 3172  13.416   1.523   5.504 -0.5082 -0.0306  0.5983
  765MOL0     C 3173  13.556   1.525   5.499  0.4104 -0.3767  0.9264
  765MOL0     C 3174  13.626   1.495   5.383  0.0638 -0.2887 -0.7081
  765MOL0     O 3175  13.762   1.508   5.371 -0.5787 -0.0412  0.4726
  765MOL0     C 3176  13.840   1.530   5.484  0.6160  0.3821 -1.0076
  765MOL0     C 3177  13.989   1.525   5.454  0.9938  0.0975 -0.0889
  765MOL0     C 3178  14.021   1.628   5.355 -0.1764  0.4053 -0.0596
  765MOL0     C 3179  14.078   1.756   5.420 -0.1431 -0.2291  0.1533
  765MOL0     C 3180  14.133   1.863   5.319  0.0120  0.3613  0.1644
  765MOL0     C 3181  14.204   1.985   5.382 -0.2411  0.2628 -0.7128
  765MOL0     C 3182  14.333   1.949   5.468  0.3959 -0.1968 -0.2371
  765MOL0     C 3183  14.447   2.060   5.460 -0.8418  1.1188 -0.1582
  765MOL0    Cl 3184  14.580   2.008   5.572  0.7280 -0.1400  0.2683
  765MOL0     C 3185  13.545   1.451   5.273 -0.8310  1.1098 -0.1939
  765MOL0     C 3186  13.406   1.440   5.281  0.0044 -0.1831  0.5200
  765MOL0     O 3187  13.151   1.561   5.207 -0.5241  0.2193  0.5250
  765MOL0     C 3188  12.881   1.572   5.277  0.1667  0.0448 -0.1320
  765MOL0     C 3189  12.750   1.551   5.316 -0.6341  0.1032  0.8028
  765MOL0     N 3190  12.055   1.218   5.339  0.2818  0.7863 -0.5954
  765MOL0     N 3191  11.965   1.290   5.284 -0.5225 -0.1457 -0.1695
  765MOL0     C 3192  10.860   1.546   5.895  0.9896  0.3732 -0.0670
  765MOL0     C 3193  10.747   1.545   5.981 -0.8005 -1.1959 -0.0558
  765MOL0     C 3194  10.293   1.519   6.088 -0.0908 -1.2042 -0.1048
  765MOL0     C 3195  10.247   1.643   6.126 -0.9030  0.4798 -0.3410
  765MOL0     C 3196  10.130   1.668   6.191 -0.2185 -0.4180  1.0323
  765MOL0     C 3197  10.043   1.562   6.215  0.9018 -0.5968 -0.5265
  765MOL0     O 3198   9.913   1.577   6.264  0.0103  0.6716 -0.3083
  765MOL0     C 3199   9.859   1.703   6.307 -0.5261 -0.2257  0.2964
  765MOL0     C 3200   9.714   1.696   6.379 -0.2348  0.0131 -0.0671
  765MOL0     C 3201   9.611   1.618   6.291 -0.5664 -0.1180 -0.2933
  765MOL0     C 3202   9.473   1.637   6.347  0.1077 -0.5128  0.1169
  765MOL0     C 3203   9.362   1.578   6.271  0.6383  0.3650 -0.0503
  765MOL0     C 3204   9.271   1.521   6.219  0.5858 -0.2514 -0.1483
  765MOL0     C 3205  10.090   1.429   6.177  0.6301 -0.4805 -0.5071
  765MOL0     C 3206  10.208   1.411   6.108  0.2240  0.6759 -0.3272
  765MOL0     C 3207  10.220   1.277   6.050  0.0032  0.8652 -0.0487
  765MOL0     H 3208  10.521   1.716   5.792 -0.3512  0.1206 -0.7100
  765MOL0     H 3209  10.693   1.696   5.632  0.6133  0.7215  0.8302
  765MOL0     H 3210  11.103   1.641   5.782  1.2133  1.8725 -0.8496
  765MOL0     H 3211  11.118   1.493   5.680 -2.4440 -0.8656 -4.2924
  765MOL0     H 3212  11.134   1.780   5.591 -0.7364 -1.0624 -0.1801
  765MOL0     H 3213  11.106   1.653   5.474  0.6682 -0.8351 -0.3126
  765MOL0     H 3214  11.333   1.548   5.592  2.7542  0.5669  0.0928
  765MOL0     H 3215  11.343   1.715   5.661  3.9562 -0.9228 -1.1195
  765MOL0     H 3216  11.388   1.658   5.374  1.0050  2.9671 -2.1527
  765MOL0     H 3217  11.408   1.814   5.453  2.0448  0.7740  2.3428
  765MOL0     H 3218  11.579   1.749   5.554 -1.7991  1.7687 -1.3605
  765MOL0     H 3219  11.562   1.589   5.587  0.5951  0.6929  0.3012
  765MOL0     H 3220  11.571   1.506   5.357 -2.1383  1.2629 -0.7933
  765MOL0     H 3221  11.615   1.671   5.300  0.2148  3.5892  3.0491
  765MOL0     H 3222  11.778   1.521   5.508  3.6399 -1.0504 -1.3646
  765MOL0     H 3223  11.815   1.673   5.418 -0.2656 -0.6655  1.8163
  765MOL0     H 3224  11.743   1.428   5.262 -3.1646  4.3216 -0.5873
  765MOL0     H 3225  11.871   1.540   5.221 -1.9463  2.2909  0.3789
  765MOL0     H 3226  11.984   1.451   5.566 -2.5002  0.0128  0.0957
  765MOL0     H 3227  12.185   1.272   5.657  4.1126 -1.5930  1.9344
  765MOL0     H 3228  12.137   1.118   5.588 -2.8308  0.5646 -2.5171
  765MOL0     H 3229  12.363   1.147   5.574 -1.0677 -0.7147 -1.5347
  765MOL0     H 3230  12.307   1.147   5.407  2.3550  2.3400 -1.5641
  765MOL0     H 3231  12.336   1.409   5.546  1.1834  0.2337  0.2291
  765MOL0     H 3232  12.349   1.370   5.374 -2.5391  0.0910  1.5005
  765MOL0     H 3233  12.550   1.228   5.425  1.1272  0.5950 -0.4928
  765MOL0     H 3234  12.570   1.303   5.585  0.5564  0.3046  0.4077
  765MOL0     H 3235  12.784   1.277   5.526 -1.5468  3.2944  4.0259
  765MOL0     H 3236  13.014   1.311   5.469  0.0837 -1.0642  0.1124
  765MOL0     H 3237  13.377   1.540   5.604 -1.9264 -2.2183  0.4805
  765MOL0     H 3238  13.608   1.553   5.590 -0.6755  1.9928  0.9031
  765MOL0     H 3239  13.808   1.620   5.537  1.3831  0.4635 -0.6644
  765MOL0     H 3240  13.817   1.448   5.553  0.5101  1.0535 -0.2294
  765MOL0     H 3241  14.039   1.548   5.548  0.1662 -2.0836  0.9468
  765MOL0     H 3242  14.012   1.426   5.414 -2.5146 -0.7112 -0.4602
  765MOL0     H 3243  14.096   1.579   5.292 -1.9796 -1.5288 -0.8296
  765MOL0     H 3244  13.944   1.663   5.286  1.2164  5.3091  0.5332
  765MOL0     H 3245  14.169   1.730   5.476 -0.0392  0.7020  0.4402
  765MOL0     H 3246  14.006   1.795   5.492 -0.8252 -1.7323  0.3193
  765MOL0     H 3247  14.052   1.891   5.251  0.9031 -0.0488 -1.0929
  765MOL0     H 3248  14.206   1.820   5.250  1.0872  2.2527  0.0420
  765MOL0     H 3249  14.223   2.067   5.313 -0.6082 -0.5160 -1.7671
  765MOL0     H 3250  14.133   2.025   5.456  1.8964  0.0596  1.5905
  765MOL0     H 3251  14.376   1.857   5.427  5.4963  2.2702 -1.2680
  765MOL0     H 3252  14.310   1.930   5.573  0.1451  0.6595 -0.1304
  765MOL0     H 3253  14.506   2.053   5.368 -0.0912 -0.3295  0.4011
  765MOL0     H 3254  14.418   2.165   5.473 -0.0036  1.3200  0.1343
  765MOL0     H 3255  13.587   1.419   5.178 -0.8749  0.7447 -0.0938
  765MOL0     H 3256  13.354   1.412   5.190  1.0742  1.1556 -0.5435
  765MOL0     H 3257  12.905   1.655   5.212 -2.7639  0.5423 -0.7097
  765MOL0     H 3258  12.676   1.617   5.274 -3.0016 -3.4058 -1.0312
  765MOL0     H 3259  10.956   1.505   5.923  1.0343  0.4599 -0.0926
  765MOL0     H 3260  10.758   1.508   6.083  2.1650  1.1569  0.6294
  765MOL0     H 3261  10.297   1.737   6.111  2.4399 -0.6675  2.3871
  765MOL0     H 3262  10.098   1.769   6.216  2.1070  0.1242  2.1173
  765MOL0     H 3263   9.846   1.771   6.222  0.8950  0.1676  0.3710
  765MOL0     H 3264   9.928   1.755   6.374  0.3405 -1.0842  0.0873
  765MOL0     H 3265   9.674   1.792   6.410  0.7897  0.8704 -1.2992
  765MOL0     H 3266   9.739   1.630   6.463  1.2493 -0.4596 -0.8415
  765MOL0     H 3267   9.631   1.511   6.286 -2.5964 -0.6797  1.9780
  765MOL0     H 3268   9.620   1.658   6.190 -0.6691 -0.6327 -0.5069
  765MOL0     H 3269   9.467   1.630   6.456 -0.7541  1.6940  0.2640
  765MOL0     H 3270   9.461   1.744   6.331 -0.6545 -0.9999 -3.6062
  765MOL0     H 3271   9.185   1.476   6.175 -0.1655  0.2255  0.8035
  765MOL0     H 3272  10.020   1.352   6.207 -1.1320  1.0446 -0.5022
  765MOL0     H 3273  10.131   1.213   6.056  0.8229 -0.3617 -0.6176
  765MOL0     H 3274  10.243   1.281   5.943  0.1872  0.6197 -0.0208
  765MOL0     H 3275  10.286   1.221   6.117 -2.7600  1.0099  3.0460
  766MOL0     O 3276  10.698   3.271   6.746  0.0413 -0.3393  0.7522
  766MOL0     C 3277  10.666   3.195   6.844  0.2887 -0.3653  0.0044
  766MOL0     O 3278  10.745   3.164   6.955  0.6758  1.0310 -0.3996
  766MOL0     C 3279  10.861   3.228   6.954  0.2024 -0.1891  0.3514
  766MOL0     C 3280  10.866   3.343   7.024 -0.4405  0.2631 -0.0938
  766MOL0     C 3281  10.989   3.405   7.042 -0.3396 -0.1450 -0.3823
  766MOL0     C 3282  11.102   3.355   6.982  0.3293  0.8186 -0.4873
  766MOL0     O 3283  11.212   3.426   7.018  0.0081  0.1403 -0.5905
  766MOL0     C 3284  11.336   3.387   6.955 -0.2396  0.0106  0.2961
  766MOL0     C 3285  11.432   3.507   6.946  0.0165 -0.4320 -0.0573
  766MOL0     C 3286  11.575   3.458   6.898  0.3882  0.5108 -0.8465
  766MOL0     C 3287  11.673   3.555   6.938 -0.3509 -0.7056 -0.0284
  766MOL0     C 3288  11.811   3.514   6.890 -0.3989 -0.1178 -0.0345
  766MOL0     C 3289  11.903   3.625   6.951  0.7359  0.5353 -0.4297
  766MOL0     C 3290  12.048   3.615   6.881  0.2161  0.1535 -0.0890
  766MOL0     C 3291  12.139   3.723   6.936  0.7058 -0.2726  0.8329
  766MOL0     N 3292  12.264   3.732   6.858  0.6887  0.2524 -0.2137
  766MOL0     C 3293  12.351   3.841   6.831  0.7055  0.4854  1.0468
  766MOL0     C 3294  12.472   3.792   6.789 -0.6569  0.1879 -0.8991
  766MOL0     C 3295  12.595   3.866   6.743  0.3572  0.4120 -0.2500
  766MOL0     C 3296  12.713   3.858   6.840  0.0461 -0.1758 -0.1319
  766MOL0     C 3297  12.762   3.718   6.861  0.0811  1.0348 -0.1886
  766MOL0     C 3298  12.875   3.707   6.960 -0.4560 -0.3340 -0.0591
  766MOL0     O 3299  12.980   3.803   6.929  0.2168 -0.4187 -0.2723
  766MOL0     C 3300  13.102   3.791   6.984  0.8147  0.0527  0.0803
  766MOL0     C 3301  13.131   3.700   7.085 -0.5346 -1.2080  0.0507
  766MOL0     C 3302  13.267   3.696   7.121 -0.2136  0.2756 -1.0902
  766MOL0     C 3303  13.375   3.751   7.049 -0.3174  0.2377 -0.2993
  766MOL0     C 3304  13.518   3.754   7.092  0.1862  0.0443  0.5467
  766MOL0     O 3305  13.615   3.790   6.996  0.2554 -0.1236  0.6071
  766MOL0     C 3306  13.748   3.812   7.027 -0.2157 -1.0872 -0.4082
  766MOL0     C 3307  13.835   3.840   6.925  0.7357  0.6803  0.7625
  766MOL0     C 3308  13.973   3.852   6.938  0.2818  0.6090  0.0995
  766MOL0     C 3309  14.024   3.847   7.065 -0.4962 -0.1097 -0.8789
  766MOL0     O 3310  14.162   3.861   7.097  0.1570 -0.4450  0.8592
  766MOL0     C 3311  14.245   3.886   6.986  0.2202 -1.0597  0.0937
  766MOL0     C 3312  14.391   3.901   7.028  0.0941  0.3321 -0.5403
  766MOL0     C 3313  14.466   3.945   6.899 -1.0004  0.2367 -0.2924
  766MOL0     C 3314  14.621   3.929   6.907 -0.3857 -0.0191  0.4438
  766MOL0     C 3315  14.694   3.919   6.768  0.0140 -0.9006 -0.4540
  766MOL0     C 3316  14.708   4.049   6.699 -0.0645 -0.1081  0.0285
  766MOL0     C 3317  14.806   4.039   6.586  0.3550 -0.2004 -0.4272
  766MOL0     C 3318  14.807   4.153   6.485 -0.4441  1.3437 -0.3316
  766MOL0    Cl 3319  14.970   4.131   6.396 -0.3183  0.2541  0.1145
  766MOL0     C 3320  13.940   3.834   7.174 -1.3492 -0.6074  0.7506
  766MOL0     C 3321  13.805   3.819   7.160 -0.3977  0.1446  0.0446
  766MOL0     O 3322  13.534   3.711   7.203  0.6521 -0.0371  0.1433
  766MOL0     C 3323  13.334   3.833   6.944  0.2169  0.8393 -0.0548
  766MOL0     C 3324  13.198   3.854   6.917 -0.4493  0.0119  0.4798
  766MOL0     N 3325  12.458   3.651   6.798 -0.1388 -0.6584  0.1566
  766MOL0     N 3326  12.338   3.621   6.837  0.0401  0.4273 -0.2670
  766MOL0     C 3327  11.091   3.232   6.908 -0.4849  0.0044  0.6500
  766MOL0     C 3328  10.971   3.172   6.899  0.0027  0.3188  0.2365
  766MOL0     C 3329  10.527   3.138   6.856 -0.0411 -0.3110  0.8115
  766MOL0     C 3330  10.509   3.036   6.955 -0.5956 -0.7247  0.3376
  766MOL0     C 3331  10.384   2.980   6.985  0.4603 -0.0666  0.8256
  766MOL0     C 3332  10.268   3.025   6.932 -0.2234 -0.4959  0.2380
  766MOL0     O 3333  10.140   2.969   6.949 -0.2810  0.0827 -0.1658
  766MOL0     C 3334  10.120   2.888   7.070  0.0478 -0.6418 -0.7249
  766MOL0     C 3335   9.969   2.890   7.109 -0.8972 -0.3771 -0.3557
  766MOL0     C 3336   9.899   3.025   7.113  0.2879  0.2988 -0.6260
  766MOL0     C 3337   9.979   3.132   7.194 -0.3352  0.5407 -1.0229
  766MOL0     C 3338  10.024   3.098   7.336 -0.0070  0.3037 -0.2341
  766MOL0     C 3339  10.060   3.089   7.449  0.1378 -0.1733 -0.4063
  766MOL0     C 3340  10.285   3.125   6.829 -0.9908  0.3345 -0.5754
  766MOL0     C 3341  10.413   3.186   6.793  0.5768 -0.8233 -0.2842
  766MOL0     C 3342  10.413   3.304   6.699 -0.2362 -0.2272 -0.2605
  766MOL0     H 3343  10.779   3.386   7.074 -1.4698  0.8303 -2.2650
  766MOL0     H 3344  10.989   3.502   7.092  0.1428 -0.5027  0.3105
  766MOL0     H 3345  11.374   3.299   7.008  1.2715 -0.3083 -1.2425
  766MOL0     H 3346  11.335   3.349   6.852  4.2151  1.8496 -0.6243
  766MOL0     H 3347  11.443   3.557   7.043 -2.0785  1.3337 -0.6587
  766MOL0     H 3348  11.391   3.574   6.870  0.5422 -1.0496 -0.9054
  766MOL0     H 3349  11.570   3.451   6.789  1.4287  2.1129 -1.0319
  766MOL0     H 3350  11.613   3.365   6.941  0.3813  1.7926  2.1736
  766MOL0     H 3351  11.649   3.656   6.904  3.3329  0.7368  1.1073
  766MOL0     H 3352  11.677   3.553   7.048 -0.1469 -1.7714 -0.0479
  766MOL0     H 3353  11.849   3.417   6.924  0.1767 -0.3249 -1.1911
  766MOL0     H 3354  11.821   3.519   6.781  0.8276 -1.5022 -0.0123
  766MOL0     H 3355  11.859   3.724   6.932 -1.6576 -0.2540  0.5604
  766MOL0     H 3356  11.898   3.615   7.059 -1.1606  3.7619 -0.0734
  766MOL0     H 3357  12.040   3.635   6.773  2.7558  0.1970 -0.3262
  766MOL0     H 3358  12.086   3.515   6.903 -1.3822 -0.4266  0.1740
  766MOL0     H 3359  12.093   3.821   6.943  2.3460  0.4990  1.4288
  766MOL0     H 3360  12.155   3.698   7.042 -2.0558 -4.5478  0.4654
  766MOL0     H 3361  12.335   3.949   6.830 -2.6658  0.0889  0.3866
  766MOL0     H 3362  12.629   3.820   6.650 -1.6619 -0.1399 -0.7681
  766MOL0     H 3363  12.571   3.971   6.721  1.5560  0.9218  0.7525
  766MOL0     H 3364  12.795   3.921   6.805 -1.0054  0.5405 -1.3746
  766MOL0     H 3365  12.674   3.892   6.937  1.8858 -0.1264  0.6268
  766MOL0     H 3366  12.803   3.677   6.768 -0.1518 -1.4518  0.7333
  766MOL0     H 3367  12.693   3.645   6.904  0.9533 -0.3757 -1.1147
  766MOL0     H 3368  12.912   3.604   6.966 -1.1148 -0.5063  1.3835
  766MOL0     H 3369  12.843   3.729   7.062 -1.2106 -2.0786  0.1312
  766MOL0     H 3370  13.066   3.647   7.153 -0.3649  1.9690  2.9673
  766MOL0     H 3371  13.289   3.632   7.206  2.2636  2.2459 -0.1386
  766MOL0     H 3372  13.809   3.837   6.819 -0.4690  0.3070  1.0572
  766MOL0     H 3373  14.035   3.861   6.850  0.5442  2.1895  0.4148
  766MOL0     H 3374  14.231   3.802   6.917 -0.6077 -1.0972  0.2931
  766MOL0     H 3375  14.205   3.976   6.936  0.2350 -1.8313 -1.3688
  766MOL0     H 3376  14.405   3.971   7.111 -2.3584 -1.0590  1.1499
  766MOL0     H 3377  14.429   3.807   7.069 -0.2292  1.7192  3.3279
  766MOL0     H 3378  14.423   3.884   6.818 -1.7476  3.0178 -2.1302
  766MOL0     H 3379  14.436   4.042   6.858 -1.7854 -0.6622 -1.9634
  766MOL0     H 3380  14.631   3.835   6.963  0.3850  1.1641  2.4288
  766MOL0     H 3381  14.667   4.011   6.963  0.8356  0.3590 -1.0648
  766MOL0     H 3382  14.647   3.841   6.707  2.2920 -2.0990 -0.7853
  766MOL0     H 3383  14.793   3.887   6.800  1.1336  1.8907 -0.8713
  766MOL0     H 3384  14.611   4.079   6.659 -0.0469 -1.5251 -1.1280
  766MOL0     H 3385  14.747   4.127   6.766 -0.1167  1.3330 -1.5352
  766MOL0     H 3386  14.800   3.944   6.532 -1.4526  0.6502 -1.8395
  766MOL0     H 3387  14.909   4.038   6.622  0.9573 -1.1673 -2.0639
  766MOL0     H 3388  14.716   4.141   6.425 -0.6470  0.0304  0.1925
  766MOL0     H 3389  14.811   4.250   6.535 -1.6389 -0.0004  2.5825
  766MOL0     H 3390  13.970   3.829   7.279 -1.1972  0.7440  0.7836
  766MOL0     H 3391  13.749   3.810   7.252 -1.5673  2.0058 -0.4315
  766MOL0     H 3392  13.407   3.892   6.891  1.4375 -0.9033 -0.4057
  766MOL0     H 3393  13.166   3.920   6.836 -1.3313 -0.3144  0.5576
  766MOL0     H 3394  11.176   3.181   6.862  0.7671  2.2297  0.3424
  766MOL0     H 3395  10.975   3.081   6.840  0.4576 -1.0940  2.3362
  766MOL0     H 3396  10.596   2.994   7.003  0.4583  0.6776 -0.2850
  766MOL0     H 3397  10.370   2.897   7.053  0.6697 -1.8879 -1.2481
  766MOL0     H 3398  10.186   2.907   7.155 -1.5079 -4.1065  1.5198
  766MOL0     H 3399  10.143   2.783   7.047 -3.7633 -0.9162 -4.2640
  766MOL0     H 3400   9.968   2.834   7.204  2.7316 -0.8919 -0.4677
  766MOL0     H 3401   9.921   2.821   7.039  0.1755  0.1484 -1.6276
  766MOL0     H 3402   9.800   3.021   7.159  0.0062 -0.6180 -1.2813
  766MOL0     H 3403   9.888   3.058   7.010 -3.1279  0.8651 -0.1977
  766MOL0     H 3404  10.070   3.150   7.136 -0.7305  2.7630 -1.0346
  766MOL0     H 3405   9.932   3.230   7.205  1.8507  1.4342  1.3704
  766MOL0     H 3406  10.091   3.070   7.550  1.5532 -2.5418 -1.2028
  766MOL0     H 3407  10.190   3.153   6.784 -0.9736  2.3775  0.5714
  766MOL0     H 3408  10.479   3.271   6.619  0.6276 -1.6079  0.9741
  766MOL0     H 3409  10.318   3.332   6.652  0.8405  1.0462 -1.7543
  766MOL0     H 3410  10.458   3.391   6.748 -0.4028 -0.8973  1.1515
  767MOL0     O 3411   1.551   3.595   0.954 -0.2413  0.3703  0.3206
  767MOL0     C 3412   1.527   3.477   0.963 -0.1013 -0.6453 -1.2807
  767MOL0     O 3413   1.611   3.377   0.990  0.2147 -0.0703 -0.6283
  767MOL0     C 3414   1.744   3.393   1.012 -0.5392  0.1208  0.3677
  767MOL0     C 3415   1.822   3.508   0.979  0.4072 -0.5880  0.5635
  767MOL0     C 3416   1.960   3.523   1.006 -0.3024  0.3107  0.1877
  767MOL0     C 3417   2.022   3.412   1.064 -0.2248 -0.0600  0.1796
  767MOL0     O 3418   2.146   3.412   1.114 -0.1045 -0.1059 -0.6783
  767MOL0     C 3419   2.251   3.418   1.021  0.1666  0.2827 -0.4155
  767MOL0     C 3420   2.378   3.412   1.103  0.6014 -0.6076  0.3449
  767MOL0     C 3421   2.495   3.462   1.014 -0.4766 -0.1328 -0.0593
  767MOL0     C 3422   2.620   3.479   1.106  0.5767 -0.7635 -0.7972
  767MOL0     C 3423   2.710   3.584   1.041 -0.4101 -0.6958 -0.3168
  767MOL0     C 3424   2.838   3.606   1.126 -0.1079 -0.3316  0.8165
  767MOL0     C 3425   2.940   3.693   1.053  0.5167  0.1062  0.1348
  767MOL0     C 3426   3.072   3.715   1.134  0.3076 -0.4935  0.5837
  767MOL0     N 3427   3.153   3.820   1.061  0.0096 -0.2908  0.1238
  767MOL0     C 3428   3.118   3.947   1.029 -0.3975 -0.0824 -0.4070
  767MOL0     C 3429   3.225   4.005   0.962 -0.1847  0.0077 -0.1841
  767MOL0     C 3430   3.252   4.144   0.912  0.1065  0.0474 -0.1932
  767MOL0     C 3431   3.302   4.230   1.025  0.5877  0.4919 -0.3970
  767MOL0     C 3432   3.431   4.195   1.092  0.1737 -0.0708  0.2445
  767MOL0     C 3433   3.553   4.185   0.992  0.8580 -0.6190 -1.1366
  767MOL0     O 3434   3.674   4.134   1.047  0.6614  0.1696  0.1633
  767MOL0     C 3435   3.757   4.204   1.134  0.2080 -0.1628 -0.3816
  767MOL0     C 3436   3.855   4.135   1.204 -0.7683 -0.0896 -0.4570
  767MOL0     C 3437   3.934   4.196   1.296 -0.3201  0.5919  0.2613
  767MOL0     C 3438   3.922   4.328   1.337  0.1013  0.6850  0.0245
  767MOL0     C 3439   3.997   4.388   1.449  0.1323  0.7459  0.0135
  767MOL0     O 3440   4.089   4.297   1.504  0.4956  0.4174 -0.3684
  767MOL0     C 3441   4.163   4.339   1.608 -0.2368 -0.0936 -0.4576
  767MOL0     C 3442   4.298   4.371   1.598  0.6153  0.6176 -0.9685
  767MOL0     C 3443   4.371   4.408   1.707 -0.4904 -0.1767 -0.0758
  767MOL0     C 3444   4.313   4.428   1.836  0.1158  0.6382  0.2695
  767MOL0     O 3445   4.386   4.474   1.941  0.5355  0.0684 -0.0752
  767MOL0     C 3446   4.328   4.585   2.009  0.2521  0.0680 -0.3784
  767MOL0     C 3447   4.438   4.698   1.997  0.2823 -0.4370 -0.4435
  767MOL0     C 3448   4.575   4.655   2.051  1.0360 -0.0363  0.1889
  767MOL0     C 3449   4.669   4.775   2.067  0.4195 -0.2592  0.0115
  767MOL0     C 3450   4.761   4.751   2.189 -0.4678  0.4173 -0.7263
  767MOL0     C 3451   4.694   4.762   2.330  0.3274 -0.3003  0.8109
  767MOL0     C 3452   4.792   4.777   2.440 -0.1835  0.3809 -0.6283
  767MOL0     C 3453   4.929   4.833   2.407  0.0850 -0.3466 -0.1096
  767MOL0    Cl 3454   4.945   4.992   2.318  0.2530  0.2889 -0.0169
  767MOL0     C 3455   4.176   4.392   1.845  0.4947 -0.2322 -0.5367
  767MOL0     C 3456   4.099   4.356   1.731  0.2865  0.0937  0.2685
  767MOL0     O 3457   3.978   4.503   1.483  0.4102  0.3475 -0.6216
  767MOL0     C 3458   3.828   4.402   1.260  0.5992  0.0103  0.0820
  767MOL0     C 3459   3.741   4.338   1.166  0.4208  0.6070  0.4535
  767MOL0     N 3460   3.325   3.902   0.959 -0.0015 -0.1731 -0.1739
  767MOL0     N 3461   3.279   3.796   1.018 -0.5214  0.1560 -0.1733
  767MOL0     C 3462   1.950   3.301   1.093 -0.5528 -0.0992 -0.9142
  767MOL0     C 3463   1.815   3.291   1.067 -0.4180 -0.2348  0.1364
  767MOL0     C 3464   1.380   3.441   0.942  0.0309  0.7460  0.3818
  767MOL0     C 3465   1.344   3.314   0.988  0.3283 -0.6063 -0.0060
  767MOL0     C 3466   1.222   3.261   0.960  0.3942  0.4506 -0.5865
  767MOL0     C 3467   1.121   3.337   0.908  0.0028  0.4634  0.0970
  767MOL0     O 3468   0.987   3.289   0.916 -0.0825 -0.0075 -0.5131
  767MOL0     C 3469   0.886   3.376   0.877  0.5860  0.4560  0.2684
  767MOL0     C 3470   0.751   3.325   0.921 -0.1746  0.8133 -0.0873
  767MOL0     C 3471   0.710   3.339   1.064  0.1783  0.3036 -0.4896
  767MOL0     C 3472   0.820   3.303   1.167  0.0104 -0.7802 -0.7000
  767MOL0     C 3473   0.756   3.318   1.295 -0.1154  0.4989 -0.0796
  767MOL0     C 3474   0.693   3.330   1.397  0.8746  0.6138 -0.3494
  767MOL0     C 3475   1.154   3.464   0.856 -1.0812  0.2051 -0.2121
  767MOL0     C 3476   1.286   3.513   0.870 -0.4708  0.3775  0.0397
  767MOL0     C 3477   1.321   3.651   0.806  0.3844 -0.2111  0.2334
  767MOL0     H 3478   1.783   3.592   0.922 -1.8313 -2.9201 -1.6370
  767MOL0     H 3479   2.015   3.616   0.995 -0.5552  0.4442  0.0371
  767MOL0     H 3480   2.243   3.330   0.957 -0.7897  0.5194 -0.6330
  767MOL0     H 3481   2.248   3.506   0.957 -2.6632 -0.1036 -0.9557
  767MOL0     H 3482   2.399   3.318   1.153 -2.5710 -1.0886  1.0062
  767MOL0     H 3483   2.363   3.483   1.185  0.4472  0.5932 -0.6771
  767MOL0     H 3484   2.472   3.557   0.964 -1.8844  1.7805  3.8698
  767MOL0     H 3485   2.529   3.388   0.941  1.5828  0.3224  0.3657
  767MOL0     H 3486   2.583   3.507   1.205 -2.7041 -1.7954 -1.6061
  767MOL0     H 3487   2.668   3.381   1.109  2.8043  0.2861  1.6894
  767MOL0     H 3488   2.760   3.546   0.951 -0.5410 -2.6900  0.4197
  767MOL0     H 3489   2.650   3.673   1.018 -0.9309 -1.0334 -0.2672
  767MOL0     H 3490   2.812   3.652   1.221  1.8392 -0.7603  1.6135
  767MOL0     H 3491   2.883   3.509   1.149 -2.8337 -1.6674  0.8943
  767MOL0     H 3492   2.889   3.789   1.040  0.9152  0.3569  0.3848
  767MOL0     H 3493   2.968   3.659   0.953  1.4082  0.3200  0.3034
  767MOL0     H 3494   3.051   3.740   1.239 -0.0257  3.4511 -0.2397
  767MOL0     H 3495   3.133   3.625   1.147  1.4224  0.4428  2.3370
  767MOL0     H 3496   3.020   3.990   1.049  0.6123  2.9149 -1.2730
  767MOL0     H 3497   3.322   4.139   0.827  1.5655  1.7703  0.8313
  767MOL0     H 3498   3.161   4.184   0.866 -1.5506 -1.9589  1.2197
  767MOL0     H 3499   3.325   4.329   0.986 -0.4440  0.5314 -0.9254
  767MOL0     H 3500   3.231   4.229   1.108  0.3903  0.1214 -0.5663
  767MOL0     H 3501   3.420   4.097   1.139 -1.8112  0.8811  1.9025
  767MOL0     H 3502   3.466   4.274   1.159  1.6426  0.9567 -1.6490
  767MOL0     H 3503   3.576   4.285   0.955  2.1458 -0.8962 -1.1521
  767MOL0     H 3504   3.520   4.132   0.902 -0.7858  1.3468 -1.7853
  767MOL0     H 3505   3.876   4.028   1.206  2.9654  0.4879  2.1320
  767MOL0     H 3506   3.993   4.129   1.357  1.4442  2.3844  0.6327
  767MOL0     H 3507   4.347   4.368   1.501  1.8605  1.5112 -0.3968
  767MOL0     H 3508   4.476   4.427   1.693 -0.1197 -1.9331  0.0839
  767MOL0     H 3509   4.234   4.616   1.962 -1.6951  0.2226  3.2770
  767MOL0     H 3510   4.301   4.559   2.112 -0.3136  4.1423  0.6798
  767MOL0     H 3511   4.451   4.726   1.892  0.6449  1.6705  0.1165
  767MOL0     H 3512   4.392   4.782   2.049  0.2215 -1.2085  0.7851
  767MOL0     H 3513   4.553   4.608   2.148 -0.9840 -2.7933 -1.4738
  767MOL0     H 3514   4.627   4.575   1.998  2.0988 -0.0397  1.1813
  767MOL0     H 3515   4.614   4.868   2.083 -3.5616 -2.5451  1.0373
  767MOL0     H 3516   4.721   4.796   1.973  1.6269  1.3271  0.9721
  767MOL0     H 3517   4.830   4.833   2.168  2.0104 -1.7561 -1.5885
  767MOL0     H 3518   4.826   4.665   2.174 -1.3841 -0.6048  0.8781
  767MOL0     H 3519   4.617   4.839   2.335  0.3293 -0.2210 -0.2097
  767MOL0     H 3520   4.642   4.668   2.352 -1.8836  0.6218 -0.1679
  767MOL0     H 3521   4.816   4.675   2.471 -2.5237  0.0678  0.3195
  767MOL0     H 3522   4.741   4.826   2.523 -3.8802  2.2694 -3.7045
  767MOL0     H 3523   4.977   4.835   2.505 -0.5974  1.2306  0.2311
  767MOL0     H 3524   4.981   4.767   2.336 -0.3965  0.3784 -1.1727
  767MOL0     H 3525   4.138   4.420   1.943  0.6735 -1.2368 -0.1617
  767MOL0     H 3526   3.992   4.341   1.746  0.0823 -0.7914 -1.7341
  767MOL0     H 3527   3.815   4.507   1.285  1.1019  0.3421 -0.9933
  767MOL0     H 3528   3.659   4.393   1.121 -0.8804  1.2345  3.3894
  767MOL0     H 3529   2.009   3.215   1.126 -0.6515  0.3822  0.5875
  767MOL0     H 3530   1.749   3.209   1.093 -0.4835  0.5646  2.7335
  767MOL0     H 3531   1.410   3.257   1.053  0.3001 -0.6328 -0.0002
  767MOL0     H 3532   1.200   3.161   0.995 -1.9653  1.0895 -0.1189
  767MOL0     H 3533   0.886   3.384   0.768 -2.3434  2.5722  0.3036
  767MOL0     H 3534   0.901   3.478   0.914  2.3118 -0.1911  1.4538
  767MOL0     H 3535   0.761   3.218   0.900  2.1218  1.3503 -2.1759
  767MOL0     H 3536   0.664   3.351   0.861 -2.0032 -0.7444  1.7524
  767MOL0     H 3537   0.629   3.269   1.086 -0.5913  1.5967  0.9376
  767MOL0     H 3538   0.678   3.443   1.075  0.5625  0.6070 -1.9592
  767MOL0     H 3539   0.864   3.207   1.140 -0.0812 -0.0975 -3.6442
  767MOL0     H 3540   0.897   3.380   1.156  0.4757 -1.2983 -1.1372
  767MOL0     H 3541   0.617   3.347   1.471  1.4059  1.7614 -0.0482
  767MOL0     H 3542   1.076   3.536   0.830 -2.7520  0.3652  4.3965
  767MOL0     H 3543   1.334   3.712   0.896 -2.5563  0.2505  0.4506
  767MOL0     H 3544   1.415   3.648   0.750  1.4723  0.0778  1.9672
  767MOL0     H 3545   1.236   3.688   0.747 -0.3961  0.5609  1.7824
  768MOL0     O 3546  10.699   8.250   5.967 -0.3588  0.0648  0.0807
  768MOL0     C 3547  10.596   8.181   5.938  0.0545 -0.3916 -0.7029
  768MOL0     O 3548  10.570   8.060   5.996  0.0814  0.6658 -0.5391
  768MOL0     C 3549  10.674   8.000   6.068  0.0517  0.5583 -1.1005
  768MOL0     C 3550  10.731   8.063   6.181 -0.2951  0.6673  0.1233
  768MOL0     C 3551  10.823   7.985   6.260 -0.1897 -0.5175  0.5335
  768MOL0     C 3552  10.855   7.856   6.224 -0.4305 -1.2093  0.1441
  768MOL0     O 3553  10.953   7.783   6.290  0.1200 -0.4193 -0.0598
  768MOL0     C 3554  11.084   7.804   6.229 -0.1979  0.6535 -0.9310
  768MOL0     C 3555  11.112   7.705   6.112 -0.3834 -0.9792  0.2490
  768MOL0     C 3556  11.248   7.745   6.037  0.5517 -0.2682  0.5029
  768MOL0     C 3557  11.308   7.621   5.958 -0.3419 -0.3109  0.2110
  768MOL0     C 3558  11.446   7.637   5.910  0.3059 -0.7115 -0.1981
  768MOL0     C 3559  11.540   7.700   6.005  0.2789  0.0653 -0.0545
  768MOL0     C 3560  11.689   7.665   5.987 -0.7220  0.3759  0.0844
  768MOL0     C 3561  11.756   7.733   5.860  0.0282  0.1011  0.3763
  768MOL0     N 3562  11.904   7.704   5.864  0.4228 -0.4539  0.0767
  768MOL0     C 3563  12.005   7.795   5.823 -0.0087 -0.1314  0.2220
  768MOL0     C 3564  12.124   7.729   5.833  0.2764 -0.3656 -0.7539
  768MOL0     C 3565  12.264   7.779   5.795  1.0851 -0.0228 -1.0225
  768MOL0     C 3566  12.362   7.684   5.732  0.6976  0.0242 -0.4199
  768MOL0     C 3567  12.477   7.774   5.667  0.1158  0.1142  0.4022
  768MOL0     C 3568  12.602   7.698   5.605  1.4570  0.0157 -0.6218
  768MOL0     O 3569  12.707   7.791   5.601 -0.5818 -0.1471 -0.0999
  768MOL0     C 3570  12.831   7.735   5.589 -0.9001 -0.5226  0.0414
  768MOL0     C 3571  12.860   7.635   5.494 -0.4247 -0.2654  0.4643
  768MOL0     C 3572  12.984   7.580   5.484  0.0831  0.5978  0.3809
  768MOL0     C 3573  13.093   7.636   5.558  0.1676  0.4770  0.0966
  768MOL0     C 3574  13.229   7.567   5.558 -0.9485  0.3338  0.2261
  768MOL0     O 3575  13.310   7.593   5.670  0.0280  0.1852 -0.0329
  768MOL0     C 3576  13.444   7.563   5.678  0.0356  0.1813 -0.0227
  768MOL0     C 3577  13.482   7.436   5.634 -0.2564 -0.1075  0.6079
  768MOL0     C 3578  13.622   7.402   5.631  1.4629  0.5711 -0.5446
  768MOL0     C 3579  13.721   7.488   5.679 -0.2263 -0.6963 -0.8100
  768MOL0     O 3580  13.857   7.445   5.677  0.0050  0.3467 -0.5407
  768MOL0     C 3581  13.958   7.519   5.747 -0.3400  0.2689 -0.1430
  768MOL0     C 3582  14.095   7.458   5.719  0.3859  0.0501  0.2687
  768MOL0     C 3583  14.215   7.554   5.731  0.1163 -0.3581 -0.7145
  768MOL0     C 3584  14.331   7.487   5.655  0.2217 -0.2645 -0.0755
  768MOL0     C 3585  14.458   7.474   5.739  0.8745  0.3827 -0.0990
  768MOL0     C 3586  14.568   7.395   5.674 -0.1566  0.1707 -0.0059
  768MOL0     C 3587  14.687   7.389   5.776 -0.6370 -0.8550  0.5116
  768MOL0     C 3588  14.787   7.287   5.723 -0.1618 -0.5846  0.7383
  768MOL0    Cl 3589  14.857   7.329   5.564  0.1099  0.0955  0.1275
  768MOL0     C 3590  13.669   7.602   5.747 -0.2233 -0.3617 -0.2169
  768MOL0     C 3591  13.533   7.637   5.747 -0.3569 -0.0989  0.3010
  768MOL0     O 3592  13.271   7.513   5.453  0.3818 -0.2180 -0.4279
  768MOL0     C 3593  13.062   7.738   5.659 -0.5241  0.2560  0.3961
  768MOL0     C 3594  12.929   7.779   5.679 -0.4978  0.0264  0.5642
  768MOL0     N 3595  12.091   7.603   5.890 -0.1016  0.0603  0.4613
  768MOL0     N 3596  11.962   7.588   5.890  0.7802 -0.2509 -0.4672
  768MOL0     C 3597  10.807   7.799   6.110  0.3366 -0.3479  0.6109
  768MOL0     C 3598  10.710   7.864   6.037  0.1130 -0.0291 -0.2501
  768MOL0     C 3599  10.503   8.223   5.845  0.5779  0.1272 -0.7616
  768MOL0     C 3600  10.367   8.176   5.849  0.6021 -0.1729  0.4385
  768MOL0     C 3601  10.270   8.232   5.768 -0.1787 -0.8741  0.2229
  768MOL0     C 3602  10.297   8.334   5.678 -0.4045  0.1422 -0.3755
  768MOL0     O 3603  10.206   8.377   5.589 -0.0357 -0.7028  0.0074
  768MOL0     C 3604  10.118   8.475   5.639 -0.3380 -0.8986 -0.4011
  768MOL0     C 3605  10.196   8.612   5.615  0.0570  0.0788 -0.1009
  768MOL0     C 3606  10.111   8.741   5.635 -0.8152  0.9230 -0.1330
  768MOL0     C 3607  10.189   8.870   5.614 -0.2431 -0.1975  0.6108
  768MOL0     C 3608  10.303   8.887   5.700  0.2691 -0.5734 -0.1398
  768MOL0     C 3609  10.399   8.904   5.767  0.0133  0.1500 -0.5399
  768MOL0     C 3610  10.430   8.374   5.669  0.5185 -0.6913  0.0974
  768MOL0     C 3611  10.537   8.322   5.749 -0.7485  0.2510 -0.5672
  768MOL0     C 3612  10.686   8.369   5.715 -0.3647  0.0041 -0.1554
  768MOL0     H 3613  10.701   8.163   6.213 -0.2283 -0.0975  2.8237
  768MOL0     H 3614  10.872   8.031   6.344  2.2383  2.1331 -2.1052
  768MOL0     H 3615  11.097   7.905   6.189 -0.4052  0.4220 -1.6000
  768MOL0     H 3616  11.162   7.788   6.304  0.7055 -0.2366 -2.0274
  768MOL0     H 3617  11.031   7.706   6.039 -0.0931  1.8769 -0.1426
  768MOL0     H 3618  11.117   7.604   6.155  0.7828  0.2790  3.3169
  768MOL0     H 3619  11.313   7.783   6.116  1.5593  1.0675 -0.9164
  768MOL0     H 3620  11.239   7.830   5.969 -0.5032 -0.6428  0.1363
  768MOL0     H 3621  11.313   7.531   6.021  0.8350 -1.1052 -0.9739
  768MOL0     H 3622  11.234   7.593   5.883  1.2600  1.0608 -1.9818
  768MOL0     H 3623  11.494   7.541   5.890  1.7313 -0.4176  1.5893
  768MOL0     H 3624  11.449   7.692   5.815 -0.7287 -0.1684  0.0701
  768MOL0     H 3625  11.527   7.805   5.977 -2.9584 -0.1236  0.4105
  768MOL0     H 3626  11.511   7.697   6.110 -0.8179  0.5927 -0.3300
  768MOL0     H 3627  11.710   7.558   5.988  1.4238  0.7428  2.3267
  768MOL0     H 3628  11.741   7.714   6.070 -0.1491  0.9904 -0.6189
  768MOL0     H 3629  11.708   7.705   5.766 -0.5378  1.7879  0.1172
  768MOL0     H 3630  11.723   7.838   5.865 -2.0708 -0.3553 -1.7612
  768MOL0     H 3631  12.003   7.895   5.780 -1.4802  0.3645  1.3892
  768MOL0     H 3632  12.239   7.856   5.721 -1.0684  0.0438 -0.2934
  768MOL0     H 3633  12.315   7.814   5.885  0.8526  0.8449 -1.2216
  768MOL0     H 3634  12.394   7.623   5.817 -1.6380 -4.4322 -2.3683
  768MOL0     H 3635  12.316   7.623   5.653  1.5971 -0.3361 -0.6847
  768MOL0     H 3636  12.518   7.835   5.748  0.1302 -0.7416  1.0588
  768MOL0     H 3637  12.434   7.829   5.583 -2.2253 -1.8677  0.1786
  768MOL0     H 3638  12.587   7.660   5.503  1.4559 -1.0868 -0.2254
  768MOL0     H 3639  12.630   7.619   5.675  0.5332  1.2953  1.2549
  768MOL0     H 3640  12.781   7.605   5.424  0.1684  0.3895 -0.5106
  768MOL0     H 3641  13.000   7.518   5.396 -0.0932  0.1780  0.6410
  768MOL0     H 3642  13.404   7.366   5.608  0.3561 -1.4841  2.2867
  768MOL0     H 3643  13.662   7.305   5.604  0.5544  0.1865 -0.5463
  768MOL0     H 3644  13.957   7.621   5.707 -2.1479 -1.0244 -3.9212
  768MOL0     H 3645  13.940   7.520   5.855 -1.4330  0.6703 -0.3122
  768MOL0     H 3646  14.092   7.374   5.789 -3.9955  0.1728  0.5382
  768MOL0     H 3647  14.092   7.419   5.617 -0.7064  0.1607  0.2420
  768MOL0     H 3648  14.187   7.655   5.700 -0.9469 -0.9951 -1.9411
  768MOL0     H 3649  14.249   7.561   5.835 -2.0483 -1.2920  0.1154
  768MOL0     H 3650  14.360   7.540   5.563 -0.2718  0.4682  0.1845
  768MOL0     H 3651  14.301   7.385   5.628  1.0264 -0.3665 -0.6256
  768MOL0     H 3652  14.433   7.439   5.839 -2.0208  0.9429 -0.5430
  768MOL0     H 3653  14.496   7.574   5.764 -1.1248  0.5252  2.8967
  768MOL0     H 3654  14.533   7.295   5.648 -0.3869  0.5191 -1.0942
  768MOL0     H 3655  14.597   7.449   5.583  1.4568  1.7144  1.3485
  768MOL0     H 3656  14.665   7.350   5.877  2.3731  0.2925  1.7200
  768MOL0     H 3657  14.736   7.485   5.791 -0.6157 -1.1190  2.3697
  768MOL0     H 3658  14.872   7.273   5.791 -0.4476 -2.9546  0.7050
  768MOL0     H 3659  14.750   7.184   5.716 -0.1191 -0.5455 -0.2191
  768MOL0     H 3660  13.742   7.669   5.790  1.3733 -2.1571 -0.0067
  768MOL0     H 3661  13.505   7.724   5.805  0.4014  1.1153 -1.0932
  768MOL0     H 3662  13.142   7.773   5.724 -0.0969  0.6997 -0.3566
  768MOL0     H 3663  12.904   7.856   5.751 -0.8623  0.1687  0.2891
  768MOL0     H 3664  10.829   7.697   6.079  1.4174  0.6507 -2.2016
  768MOL0     H 3665  10.658   7.821   5.952  0.6570 -0.2733 -0.4612
  768MOL0     H 3666  10.348   8.091   5.913  1.2661 -0.0248  0.8458
  768MOL0     H 3667  10.172   8.188   5.750 -1.0308  1.9251 -3.0984
  768MOL0     H 3668  10.094   8.455   5.744  0.7975  0.5428  0.1634
  768MOL0     H 3669  10.023   8.490   5.586 -0.1474  1.4650 -0.1799
  768MOL0     H 3670  10.231   8.621   5.512 -0.2135  2.2238 -0.0507
  768MOL0     H 3671  10.279   8.618   5.686 -1.4834 -0.0490  1.8112
  768MOL0     H 3672  10.087   8.739   5.742 -1.8373  1.9368 -0.3262
  768MOL0     H 3673  10.016   8.737   5.581 -0.8533 -2.6075 -0.0332
  768MOL0     H 3674  10.229   8.862   5.512 -0.2870 -3.2061  0.7572
  768MOL0     H 3675  10.120   8.954   5.624  0.5362  0.6291 -0.6375
  768MOL0     H 3676  10.490   8.934   5.815 -0.6277  1.5976 -0.1973
  768MOL0     H 3677  10.446   8.457   5.601  1.4149 -3.8053 -3.8195
  768MOL0     H 3678  10.723   8.431   5.797 -0.1319  0.4246 -0.5745
  768MOL0     H 3679  10.749   8.280   5.706 -0.6049 -0.1101 -0.7836
  768MOL0     H 3680  10.687   8.419   5.618 -0.8816 -1.9387 -1.2246
  769MOL0     O 3681   6.749   4.804   2.556 -0.5020 -0.1799  0.1499
  769MOL0     C 3682   6.701   4.907   2.611 -1.0524  0.2310 -0.3672
  769MOL0     O 3683   6.770   5.014   2.661  0.3114  0.4286 -0.5995
  769MOL0     C 3684   6.900   4.984   2.697 -0.6478  0.2965 -0.2371
  769MOL0     C 3685   6.941   4.881   2.772 -0.4700  0.4929 -0.6753
  769MOL0     C 3686   7.077   4.854   2.782  0.4383 -0.6337 -0.0113
  769MOL0     C 3687   7.176   4.945   2.728 -0.0339  0.2696 -1.1956
  769MOL0     O 3688   7.306   4.914   2.752  0.7146  0.5598 -0.2484
  769MOL0     C 3689   7.400   5.007   2.708 -0.5670  0.1547  0.2714
  769MOL0     C 3690   7.536   4.957   2.751  0.0078  0.4105  0.2818
  769MOL0     C 3691   7.654   5.030   2.685 -0.2893  0.6461 -0.2119
  769MOL0     C 3692   7.788   4.992   2.755  1.1744  0.5953 -0.8570
  769MOL0     C 3693   7.914   5.012   2.665  0.8556  0.3285  2.0082
  769MOL0     C 3694   8.044   4.967   2.723 -0.8019  0.1139  0.0688
  769MOL0     C 3695   8.148   4.965   2.607  0.0762  0.6445 -0.9375
  769MOL0     C 3696   8.274   4.894   2.645  0.6165  1.1841  0.6697
  769MOL0     N 3697   8.368   4.877   2.531 -0.5282  0.4284 -0.4120
  769MOL0     C 3698   8.345   4.795   2.421  0.2250 -0.1192  0.3890
  769MOL0     C 3699   8.459   4.808   2.345  0.0409 -0.6987 -0.6771
  769MOL0     C 3700   8.475   4.731   2.218  0.1119  0.6240  0.1106
  769MOL0     C 3701   8.606   4.644   2.226 -0.3873  0.2361  0.6196
  769MOL0     C 3702   8.628   4.549   2.104 -0.2459  0.8263 -0.1811
  769MOL0     C 3703   8.772   4.509   2.094  0.5275 -0.4110  0.3204
  769MOL0     O 3704   8.801   4.412   1.994  0.3115  0.2863 -0.0413
  769MOL0     C 3705   8.922   4.384   1.952  0.5720  0.4099 -0.2662
  769MOL0     C 3706   8.935   4.287   1.855 -0.0569  0.4511 -0.2310
  769MOL0     C 3707   9.061   4.235   1.810 -0.4381 -0.5407  0.3840
  769MOL0     C 3708   9.177   4.292   1.858  0.3731 -0.1715  0.1918
  769MOL0     C 3709   9.309   4.248   1.814 -1.1683 -0.0933 -0.1956
  769MOL0     O 3710   9.419   4.325   1.838  0.7152 -0.3509 -0.4005
  769MOL0     C 3711   9.540   4.269   1.829 -0.0475 -0.7208  0.0203
  769MOL0     C 3712   9.607   4.287   1.710 -0.5420  0.1534  0.3782
  769MOL0     C 3713   9.735   4.233   1.697 -0.4515 -0.7364  0.3166
  769MOL0     C 3714   9.795   4.178   1.810 -0.4735 -0.6454  0.2545
  769MOL0     O 3715   9.916   4.117   1.777 -0.0857 -0.3078 -0.3874
  769MOL0     C 3716  10.013   4.081   1.870 -0.2332  0.2682 -0.4795
  769MOL0     C 3717  10.112   4.186   1.929 -0.4504  0.3525 -0.5776
  769MOL0     C 3718  10.200   4.244   1.820 -0.2050  0.5424  0.2044
  769MOL0     C 3719  10.264   4.376   1.868 -0.6003  0.2999 -0.0448
  769MOL0     C 3720  10.362   4.432   1.761  0.2757  0.5238 -0.2274
  769MOL0     C 3721  10.429   4.565   1.794  0.7426  0.3173  0.8755
  769MOL0     C 3722  10.477   4.633   1.664 -0.0534 -0.6790 -0.5443
  769MOL0     C 3723  10.594   4.725   1.699  0.8039 -0.4243 -0.2778
  769MOL0    Cl 3724  10.679   4.793   1.555 -0.0193 -0.0094  0.0242
  769MOL0     C 3725   9.729   4.169   1.930 -0.1118  0.3370  0.3145
  769MOL0     C 3726   9.596   4.210   1.949  0.9125 -0.4173  0.6595
  769MOL0     O 3727   9.312   4.138   1.766  0.3237  0.4508 -0.1060
  769MOL0     C 3728   9.166   4.388   1.957 -0.0928  0.2572 -0.2264
  769MOL0     C 3729   9.043   4.439   2.005  0.4390 -0.3841 -0.2184
  769MOL0     N 3730   8.542   4.905   2.400  1.0059 -0.8503 -0.6366
  769MOL0     N 3731   8.488   4.946   2.512 -0.8128  0.4240  0.9521
  769MOL0     C 3732   7.129   5.057   2.659 -0.2404  0.6787  0.6611
  769MOL0     C 3733   6.993   5.075   2.640  0.1677  0.5185 -0.7018
  769MOL0     C 3734   6.552   4.913   2.615 -0.1766 -1.1778 -0.0650
  769MOL0     C 3735   6.485   4.834   2.704  0.1398  1.1916 -0.9260
  769MOL0     C 3736   6.342   4.852   2.709 -0.7818  1.2627 -0.3303
  769MOL0     C 3737   6.278   4.935   2.617 -0.3961 -0.1133  0.1150
  769MOL0     O 3738   6.142   4.958   2.623  0.0864  0.9329  0.0804
  769MOL0     C 3739   6.062   4.919   2.507 -0.1369 -0.3686  0.4567
  769MOL0     C 3740   6.005   5.035   2.428  0.8368  0.4295  0.5119
  769MOL0     C 3741   5.934   5.137   2.508  0.3009  0.0289  0.1536
  769MOL0     C 3742   5.893   5.264   2.433  0.0876  0.1841  0.0861
  769MOL0     C 3743   5.848   5.235   2.299  1.0118 -0.1280  0.0236
  769MOL0     C 3744   5.816   5.203   2.188 -0.2747 -0.5300 -0.5640
  769MOL0     C 3745   6.350   5.008   2.531 -0.7282 -0.0450  0.0743
  769MOL0     C 3746   6.489   5.004   2.526  0.0003  0.0117 -0.4357
  769MOL0     C 3747   6.551   5.074   2.416 -0.3227  0.0160  0.2536
  769MOL0     H 3748   6.871   4.818   2.826 -0.7771  1.1282 -0.3298
  769MOL0     H 3749   7.112   4.767   2.837 -0.1839 -1.1901 -0.4743
  769MOL0     H 3750   7.396   4.996   2.599 -2.3085  0.3155  0.2913
  769MOL0     H 3751   7.381   5.112   2.731 -2.2462  0.2321 -1.2329
  769MOL0     H 3752   7.539   4.850   2.729  0.8866  0.4430  0.1832
  769MOL0     H 3753   7.546   4.973   2.859 -0.5720  0.3369  0.3459
  769MOL0     H 3754   7.638   5.138   2.696 -2.7863  0.5526 -1.9652
  769MOL0     H 3755   7.640   5.007   2.579 -2.6724  0.5059  0.0781
  769MOL0     H 3756   7.802   5.053   2.845 -2.0555  0.8554 -0.4397
  769MOL0     H 3757   7.786   4.885   2.777 -2.2342  0.1901 -2.5144
  769MOL0     H 3758   7.901   4.944   2.580  0.1632  1.0179  1.5495
  769MOL0     H 3759   7.922   5.115   2.629  0.0436  0.4648  2.1965
  769MOL0     H 3760   8.072   5.029   2.808  1.3147  0.2172 -0.6537
  769MOL0     H 3761   8.027   4.867   2.764 -1.9179  0.5987  0.8385
  769MOL0     H 3762   8.183   5.063   2.573 -3.9640  3.1721  1.3343
  769MOL0     H 3763   8.103   4.915   2.520  1.8361 -1.2885 -0.8121
  769MOL0     H 3764   8.314   4.951   2.728 -1.5826  1.6235  1.4942
  769MOL0     H 3765   8.251   4.793   2.682 -0.3853  0.6765 -1.1839
  769MOL0     H 3766   8.251   4.743   2.407  0.9048 -1.1414 -0.5500
  769MOL0     H 3767   8.392   4.662   2.200  1.9053 -1.5353 -0.2414
  769MOL0     H 3768   8.472   4.797   2.131  0.0487  0.9702  0.3707
  769MOL0     H 3769   8.694   4.707   2.242  0.1458 -0.0001 -1.1391
  769MOL0     H 3770   8.600   4.583   2.316  4.0023  0.7364  1.4486
  769MOL0     H 3771   8.607   4.601   2.010 -2.4381 -1.5315 -1.1155
  769MOL0     H 3772   8.567   4.460   2.123  0.9608  0.5652  3.0966
  769MOL0     H 3773   8.801   4.467   2.191  2.0397 -1.1762 -0.4304
  769MOL0     H 3774   8.835   4.595   2.068 -0.7564  1.8886  4.0083
  769MOL0     H 3775   8.848   4.249   1.803  1.7733 -1.0216 -2.4008
  769MOL0     H 3776   9.054   4.152   1.740 -0.0975 -0.3741  0.1533
  769MOL0     H 3777   9.565   4.342   1.626 -0.4112 -0.2469  0.0447
  769MOL0     H 3778   9.789   4.236   1.603 -1.1096  0.9749 -0.0391
  769MOL0     H 3779   9.971   4.022   1.952  1.8042 -3.4592 -1.9175
  769MOL0     H 3780  10.086   4.011   1.830  0.6801  1.1227 -0.3631
  769MOL0     H 3781  10.044   4.262   1.968 -0.0806 -0.7168  2.3728
  769MOL0     H 3782  10.166   4.143   2.014 -2.9050  0.4940  1.1526
  769MOL0     H 3783  10.274   4.173   1.781  1.7594  2.0251  1.0937
  769MOL0     H 3784  10.136   4.271   1.735 -0.4544  1.2743  0.6140
  769MOL0     H 3785  10.331   4.353   1.951 -0.0938  2.5390  0.2377
  769MOL0     H 3786  10.190   4.449   1.902 -2.1120 -0.8392 -0.7506
  769MOL0     H 3787  10.299   4.451   1.674 -0.4703  1.1659  0.4418
  769MOL0     H 3788  10.442   4.364   1.729  0.5968  0.9905 -0.4239
  769MOL0     H 3789  10.356   4.634   1.838  1.3204  1.4716  0.0555
  769MOL0     H 3790  10.504   4.545   1.871  1.5517  1.9382  0.5480
  769MOL0     H 3791  10.395   4.692   1.622  0.0438 -0.7795 -0.8773
  769MOL0     H 3792  10.494   4.569   1.577 -0.9975  2.3372 -3.1246
  769MOL0     H 3793  10.550   4.806   1.757  0.8727 -1.3750  1.1406
  769MOL0     H 3794  10.654   4.669   1.772 -0.2202  0.4018  1.2504
  769MOL0     H 3795   9.767   4.118   2.019 -1.3920 -0.2380  0.5490
  769MOL0     H 3796   9.539   4.211   2.042 -0.0697 -0.8376  0.0805
  769MOL0     H 3797   9.247   4.442   2.005 -0.6541  2.3304 -1.4914
  769MOL0     H 3798   9.049   4.517   2.080 -4.7002 -0.3298  0.4664
  769MOL0     H 3799   7.205   5.115   2.606  0.0811  0.0047  0.3779
  769MOL0     H 3800   6.965   5.165   2.585 -1.7606  0.0106 -0.6198
  769MOL0     H 3801   6.528   4.762   2.772 -3.3693 -1.2566 -1.0164
  769MOL0     H 3802   6.288   4.800   2.788  0.8300  0.4533  0.2772
  769MOL0     H 3803   5.977   4.866   2.550  0.8258 -0.7569  1.9521
  769MOL0     H 3804   6.117   4.849   2.443  0.4067 -0.0099  0.5260
  769MOL0     H 3805   5.929   4.994   2.361  1.9884 -1.0854  0.0937
  769MOL0     H 3806   6.086   5.086   2.375  2.3822 -1.2895  1.1235
  769MOL0     H 3807   5.998   5.162   2.592  0.7619  0.0533 -0.2004
  769MOL0     H 3808   5.843   5.084   2.536 -0.6572  1.5320  0.0465
  769MOL0     H 3809   5.816   5.324   2.482 -0.2032  0.8394 -1.1300
  769MOL0     H 3810   5.982   5.328   2.437  0.1033  0.2598 -1.1738
  769MOL0     H 3811   5.766   5.164   2.102  2.6215  0.9442 -3.0987
  769MOL0     H 3812   6.294   5.086   2.480 -0.5878  1.1098  1.5917
  769MOL0     H 3813   6.658   5.090   2.427  0.1078 -2.4268  0.2325
  769MOL0     H 3814   6.536   5.025   2.320  0.1400  0.4557 -0.0468
  769MOL0     H 3815   6.503   5.172   2.405 -1.4537 -0.7031 -1.6490
  770MOL0     O 3816   9.068   4.728   4.566  0.3014  0.3323 -0.3646
  770MOL0     C 3817   9.009   4.797   4.649  0.0005 -0.8137  0.3519
  770MOL0     O 3818   9.055   4.917   4.699 -0.5115  0.2589 -0.4739
  770MOL0     C 3819   9.165   4.981   4.641  0.6991  0.4867 -0.1724
  770MOL0     C 3820   9.166   5.124   4.659  0.2124  0.0374  0.3910
  770MOL0     C 3821   9.285   5.197   4.619  0.3545 -0.5409 -0.1792
  770MOL0     C 3822   9.398   5.122   4.571 -0.5485 -0.3797 -0.0924
  770MOL0     O 3823   9.514   5.185   4.536 -1.0606  0.3754  0.1522
  770MOL0     C 3824   9.593   5.261   4.632  0.3095  0.3138  0.1075
  770MOL0     C 3825   9.697   5.151   4.694 -0.4971 -0.2404 -0.0413
  770MOL0     C 3826   9.812   5.208   4.779 -0.5409  0.8663  0.2647
  770MOL0     C 3827   9.921   5.099   4.797  0.5256 -0.9475  0.0782
  770MOL0     C 3828  10.045   5.154   4.849 -0.5554 -0.6132 -0.0371
  770MOL0     C 3829  10.129   5.058   4.926  0.1584  0.5348  0.0350
  770MOL0     C 3830  10.243   5.135   4.993 -0.2873  0.4611  0.1234
  770MOL0     C 3831  10.353   5.186   4.897 -0.2299  0.2692 -0.2714
  770MOL0     N 3832  10.441   5.081   4.853 -0.3164  0.7529  0.1520
  770MOL0     C 3833  10.540   5.029   4.932 -0.2184 -0.5106  0.0110
  770MOL0     C 3834  10.606   4.945   4.848 -0.7362 -0.0323  0.8100
  770MOL0     C 3835  10.730   4.874   4.886  0.6643 -0.2898  0.0570
  770MOL0     C 3836  10.847   4.978   4.875 -0.2808 -0.3417 -0.5744
  770MOL0     C 3837  10.903   4.962   4.730  0.0891  1.3474 -0.3865
  770MOL0     C 3838  11.025   5.048   4.720 -0.2884 -0.5998  0.5939
  770MOL0     O 3839  11.119   5.015   4.824 -0.5168 -0.2487 -0.0405
  770MOL0     C 3840  11.262   5.011   4.783  0.3870  0.0144 -0.1227
  770MOL0     C 3841  11.310   4.954   4.664 -0.0143 -0.6571 -0.1262
  770MOL0     C 3842  11.447   4.954   4.643 -0.0336 -0.0491  0.0068
  770MOL0     C 3843  11.534   4.987   4.741  1.1188  0.1414 -0.0079
  770MOL0     C 3844  11.678   4.957   4.730 -0.5901 -0.0732  0.2857
  770MOL0     O 3845  11.765   4.976   4.845 -0.4229  0.4963  0.3890
  770MOL0     C 3846  11.900   4.952   4.842 -0.2362  1.3468  0.0604
  770MOL0     C 3847  11.978   4.888   4.747 -0.7279 -1.0424  0.5430
  770MOL0     C 3848  12.115   4.877   4.758 -0.3171  1.0404  0.1870
  770MOL0     C 3849  12.178   4.939   4.873  0.1986  0.0223 -0.3130
  770MOL0     O 3850  12.312   4.919   4.886  0.0517 -0.9705  0.0256
  770MOL0     C 3851  12.395   5.013   4.954  0.8142  0.0590  0.3476
  770MOL0     C 3852  12.534   5.000   4.883  0.7487 -0.0009  0.5272
  770MOL0     C 3853  12.643   4.973   4.989 -0.3211  0.6985  1.2983
  770MOL0     C 3854  12.771   4.930   4.919 -0.5776 -1.3337  0.4780
  770MOL0     C 3855  12.879   4.889   5.033  0.4412 -0.2326 -0.5559
  770MOL0     C 3856  12.961   4.767   4.995 -0.2710  0.1836 -0.2489
  770MOL0     C 3857  13.037   4.724   5.124  0.6623  0.7781  0.6507
  770MOL0     C 3858  13.145   4.616   5.116  0.1652  0.2754  0.0626
  770MOL0    Cl 3859  13.067   4.452   5.103  0.0685 -0.0095 -0.3370
  770MOL0     C 3860  12.103   5.006   4.972  0.1825  0.3636  0.2271
  770MOL0     C 3861  11.963   5.008   4.959 -0.5021  0.1654  1.2422
  770MOL0     O 3862  11.709   4.903   4.626  0.5161  0.0617 -0.0362
  770MOL0     C 3863  11.483   5.030   4.859 -0.8195  0.6531  0.3725
  770MOL0     C 3864  11.343   5.048   4.877 -0.1175  0.5767 -0.1414
  770MOL0     N 3865  10.537   4.942   4.727  0.2880 -0.4121 -0.4398
  770MOL0     N 3866  10.436   5.024   4.734 -0.7542  0.5448 -1.1861
  770MOL0     C 3867   9.385   4.990   4.558 -0.2286 -0.3023 -0.0590
  770MOL0     C 3868   9.282   4.916   4.599 -0.0911 -0.2106  1.1513
  770MOL0     C 3869   8.870   4.765   4.684  0.7602 -0.9831  0.2769
  770MOL0     C 3870   8.797   4.855   4.771  0.3637  1.1635 -0.5041
  770MOL0     C 3871   8.666   4.832   4.815  0.2926 -0.3128  0.2266
  770MOL0     C 3872   8.590   4.730   4.750 -0.8055 -0.4208  0.7465
  770MOL0     O 3873   8.457   4.697   4.787  0.0910  0.1207  0.0777
  770MOL0     C 3874   8.410   4.763   4.900  0.6084  0.1098 -0.2878
  770MOL0     C 3875   8.267   4.717   4.910  0.3530 -0.7131  0.0218
  770MOL0     C 3876   8.226   4.582   4.976 -0.2749 -0.2154 -0.1876
  770MOL0     C 3877   8.075   4.582   5.012  1.0592 -0.4123 -1.2178
  770MOL0     C 3878   8.046   4.473   5.110 -0.2763  0.0639 -0.5634
  770MOL0     C 3879   8.005   4.389   5.186  0.3593 -0.0605  1.0256
  770MOL0     C 3880   8.651   4.649   4.659  0.9588 -0.1745  0.0329
  770MOL0     C 3881   8.789   4.665   4.624  0.0295  0.6538 -0.3971
  770MOL0     C 3882   8.850   4.547   4.551  0.3625 -0.0528 -1.3318
  770MOL0     H 3883   9.079   5.173   4.701 -0.3147  0.0833 -0.7403
  770MOL0     H 3884   9.305   5.302   4.640  3.3628 -0.9511 -0.4432
  770MOL0     H 3885   9.645   5.349   4.592  0.7825 -1.2921 -3.1935
  770MOL0     H 3886   9.517   5.296   4.701 -0.4887 -0.9635 -0.0888
  770MOL0     H 3887   9.749   5.098   4.613 -1.2425  1.1281 -1.4677
  770MOL0     H 3888   9.641   5.078   4.753  0.6955 -0.9564  0.2295
  770MOL0     H 3889   9.777   5.239   4.878 -0.5247  1.9179 -0.0410
  770MOL0     H 3890   9.857   5.296   4.730 -0.0736  0.8500  0.6533
  770MOL0     H 3891   9.874   5.038   4.874 -0.7172 -1.8318 -1.3294
  770MOL0     H 3892   9.959   5.037   4.715  0.9386 -1.4554  0.6423
  770MOL0     H 3893  10.109   5.199   4.773  0.2910  1.7008  1.9023
  770MOL0     H 3894  10.012   5.238   4.912  0.7578 -1.1209  1.3995
  770MOL0     H 3895  10.071   5.012   5.005  2.6821 -0.3695  1.4918
  770MOL0     H 3896  10.175   4.988   4.856  0.3325  0.5151  0.1698
  770MOL0     H 3897  10.285   5.063   5.064  0.0179  0.7990  0.2892
  770MOL0     H 3898  10.218   5.223   5.052 -0.5914  1.4346 -1.3961
  770MOL0     H 3899  10.302   5.215   4.804 -2.6264  1.2666  1.2467
  770MOL0     H 3900  10.407   5.265   4.949 -0.8342  0.6116 -0.1597
  770MOL0     H 3901  10.571   5.049   5.033  0.0063 -2.9596  0.4786
  770MOL0     H 3902  10.726   4.834   4.987 -1.2721 -0.9446 -0.2338
  770MOL0     H 3903  10.739   4.786   4.821 -0.5715 -0.4997  0.1416
  770MOL0     H 3904  10.814   5.078   4.904  2.0549  0.0953  0.7860
  770MOL0     H 3905  10.930   4.967   4.945 -0.9814 -1.2292  0.1360
  770MOL0     H 3906  10.838   4.996   4.648  0.8776  3.4916 -0.1927
  770MOL0     H 3907  10.926   4.856   4.717 -1.0996  1.2645 -2.1572
  770MOL0     H 3908  10.995   5.153   4.731  0.9133 -0.2383  0.5659
  770MOL0     H 3909  11.064   5.036   4.618 -0.1389  2.2733  0.2194
  770MOL0     H 3910  11.235   4.923   4.593 -2.2887  2.2179  0.8336
  770MOL0     H 3911  11.488   4.912   4.552  1.9872  0.2826  0.6964
  770MOL0     H 3912  11.929   4.833   4.667 -0.0064 -0.5381 -0.2529
  770MOL0     H 3913  12.171   4.828   4.679 -2.1957 -0.7476 -0.1423
  770MOL0     H 3914  12.357   5.115   4.950  1.1576  0.2550  1.4763
  770MOL0     H 3915  12.398   4.984   5.060 -0.9603 -1.7705 -0.0480
  770MOL0     H 3916  12.533   4.921   4.807  3.2686  2.4485 -2.3430
  770MOL0     H 3917  12.550   5.095   4.830 -0.1764  0.4029  0.9609
  770MOL0     H 3918  12.675   5.069   5.030  1.7242  0.3194  0.7012
  770MOL0     H 3919  12.599   4.909   5.065  0.6219 -2.7894 -0.8861
  770MOL0     H 3920  12.814   5.016   4.865  0.5766  1.0645  4.7580
  770MOL0     H 3921  12.770   4.850   4.844  0.9587 -0.3239 -0.7015
  770MOL0     H 3922  12.833   4.866   5.130  1.8611 -0.7504  0.0155
  770MOL0     H 3923  12.960   4.962   5.044  0.2456 -0.3542  2.3110
  770MOL0     H 3924  12.897   4.684   4.965 -0.8721  0.7670 -0.5912
  770MOL0     H 3925  13.024   4.778   4.906 -1.4496 -1.6120 -1.3608
  770MOL0     H 3926  12.968   4.692   5.202  0.3835 -1.0397 -0.2840
  770MOL0     H 3927  13.088   4.813   5.163 -0.0299  2.0589 -1.2431
  770MOL0     H 3928  13.204   4.639   5.028 -1.4706 -1.3237 -1.5486
  770MOL0     H 3929  13.205   4.622   5.207  0.6181  1.1936 -0.2863
  770MOL0     H 3930  12.146   5.045   5.064 -1.8519  3.9338 -0.1367
  770MOL0     H 3931  11.897   5.030   5.043 -4.2944 -3.0053 -0.5829
  770MOL0     H 3932  11.557   5.073   4.926 -1.6699  0.4174  1.4840
  770MOL0     H 3933  11.297   5.099   4.961  0.8843  1.2022  0.0446
  770MOL0     H 3934   9.468   4.934   4.514 -0.7829 -0.8530 -0.4211
  770MOL0     H 3935   9.287   4.811   4.573 -1.5151 -0.9179  3.4427
  770MOL0     H 3936   8.849   4.940   4.814  1.5757  1.5862 -2.6387
  770MOL0     H 3937   8.630   4.909   4.883 -0.6305  1.0611 -1.7067
  770MOL0     H 3938   8.407   4.872   4.889  3.1177  0.2235 -0.3118
  770MOL0     H 3939   8.467   4.736   4.989  1.0201 -0.0571 -0.6017
  770MOL0     H 3940   8.216   4.725   4.813  1.5330 -0.5429 -0.5982
  770MOL0     H 3941   8.220   4.799   4.964 -0.7764 -2.4904  1.9055
  770MOL0     H 3942   8.285   4.568   5.067  0.4154 -0.7173 -0.6971
  770MOL0     H 3943   8.245   4.502   4.904  1.2054  0.4289 -0.5518
  770MOL0     H 3944   8.040   4.669   5.069 -1.0293 -2.5390  0.9829
  770MOL0     H 3945   8.016   4.575   4.920  1.4029  2.3668 -1.7558
  770MOL0     H 3946   7.956   4.318   5.251 -0.0861 -0.8508 -0.1478
  770MOL0     H 3947   8.595   4.569   4.613 -2.3317  1.5009  0.7995
  770MOL0     H 3948   8.912   4.493   4.624  0.8571  0.6841 -1.1955
  770MOL0     H 3949   8.777   4.482   4.502 -0.1483  0.4265 -1.2086
  770MOL0     H 3950   8.915   4.578   4.469  1.7104 -2.2882 -1.2113
  771MOL0     O 3951   5.988   7.754   0.998 -0.6568  0.4744  0.0694
  771MOL0     C 3952   5.897   7.707   0.934 -0.7241  0.2597  0.2799
  771MOL0     O 3953   5.917   7.617   0.822  0.6423  0.5280  0.0824
  771MOL0     C 3954   6.044   7.575   0.794 -0.9257  1.1430 -0.3527
  771MOL0     C 3955   6.124   7.646   0.705  0.6976  0.1167  0.2747
  771MOL0     C 3956   6.255   7.614   0.688  0.6001  0.0017  0.1792
  771MOL0     C 3957   6.319   7.511   0.757  1.6829  0.1508  0.4387
  771MOL0     O 3958   6.447   7.493   0.732 -0.4314  0.5444  0.3549
  771MOL0     C 3959   6.494   7.363   0.773 -0.3127 -0.2622  0.4934
  771MOL0     C 3960   6.647   7.367   0.739 -0.5729 -0.0656  0.4265
  771MOL0     C 3961   6.728   7.236   0.767  0.0467  0.8094 -0.8457
  771MOL0     C 3962   6.873   7.270   0.759 -0.0588  0.0667  0.5324
  771MOL0     C 3963   6.965   7.177   0.837  1.5581  0.4943 -0.2616
  771MOL0     C 3964   7.109   7.227   0.838 -0.3916 -0.5571 -0.5444
  771MOL0     C 3965   7.217   7.124   0.877  0.0644 -0.0990  0.3317
  771MOL0     C 3966   7.357   7.199   0.898  0.0815  0.1730  0.3393
  771MOL0     N 3967   7.447   7.110   0.973 -0.0072 -0.2495  0.1928
  771MOL0     C 3968   7.483   7.139   1.100 -0.5911  0.4486  0.5420
  771MOL0     C 3969   7.579   7.051   1.124 -0.5335  0.4609 -0.7486
  771MOL0     C 3970   7.650   7.041   1.257  0.4660 -0.1267  0.7558
  771MOL0     C 3971   7.800   7.019   1.248  0.3883  0.1851 -0.1028
  771MOL0     C 3972   7.867   7.058   1.383  0.1608  0.6739 -0.5155
  771MOL0     C 3973   8.015   7.027   1.373 -0.1805 -0.1697  0.3272
  771MOL0     O 3974   8.080   7.107   1.277 -0.2290  0.0512  0.1674
  771MOL0     C 3975   8.218   7.085   1.252 -0.0850  0.5584  0.1587
  771MOL0     C 3976   8.272   7.150   1.144 -0.6280  0.2117  0.9821
  771MOL0     C 3977   8.399   7.117   1.097  0.4059  1.2361  0.6222
  771MOL0     C 3978   8.473   7.019   1.162  0.9787  1.4737 -0.6097
  771MOL0     C 3979   8.612   6.989   1.112 -1.3260 -0.1413 -0.5697
  771MOL0     O 3980   8.691   6.893   1.179 -0.1361 -0.0925 -0.4799
  771MOL0     C 3981   8.823   6.886   1.136 -0.4562 -0.2982 -0.5397
  771MOL0     C 3982   8.919   6.995   1.142 -0.2411  0.4732 -0.4253
  771MOL0     C 3983   9.049   6.982   1.084  0.0342  0.0572  0.2490
  771MOL0     C 3984   9.099   6.862   1.033 -0.0386  0.4316  0.3889
  771MOL0     O 3985   9.224   6.847   0.985  0.0754  0.6176 -0.7106
  771MOL0     C 3986   9.246   6.757   0.879  0.4520  0.1786  0.4510
  771MOL0     C 3987   9.377   6.787   0.815  0.4942  0.1461 -0.0857
  771MOL0     C 3988   9.379   6.922   0.750  0.5152  0.1651 -0.0456
  771MOL0     C 3989   9.507   6.954   0.670  0.1620  0.6286  0.3715
  771MOL0     C 3990   9.631   6.953   0.762  0.2164  0.5999  0.2634
  771MOL0     C 3991   9.658   7.091   0.830  0.6178 -0.1671 -0.0578
  771MOL0     C 3992   9.789   7.109   0.916 -0.6342  0.9974  0.5914
  771MOL0     C 3993   9.911   7.107   0.832  0.5284 -0.2523 -0.7542
  771MOL0    Cl 3994  10.048   7.118   0.949  0.1636  0.1608  0.4737
  771MOL0     C 3995   9.013   6.753   1.031 -0.2506  0.0763 -0.0365
  771MOL0     C 3996   8.877   6.766   1.082 -0.0491  0.1993 -0.3725
  771MOL0     O 3997   8.657   7.060   1.021  0.2125  0.6956 -0.1757
  771MOL0     C 3998   8.411   6.948   1.273 -0.7217 -0.4619  0.1068
  771MOL0     C 3999   8.281   6.978   1.312  0.3243  0.3690  0.8370
  771MOL0     N 4000   7.601   6.967   1.014 -0.0147 -0.4597  0.7906
  771MOL0     N 4001   7.510   7.003   0.925  0.2969  0.2046 -0.5085
  771MOL0     C 4002   6.239   7.441   0.851  0.3703  0.0199  0.2042
  771MOL0     C 4003   6.105   7.473   0.870 -0.0525 -0.9554  0.5943
  771MOL0     C 4004   5.756   7.741   0.964  0.1210  0.2410 -0.6113
  771MOL0     C 4005   5.679   7.787   0.858 -0.3488 -0.0427  0.0330
  771MOL0     C 4006   5.551   7.825   0.876 -0.4404  0.1298  0.0177
  771MOL0     C 4007   5.483   7.819   1.001  0.9430  0.3725  0.5188
  771MOL0     O 4008   5.346   7.853   1.000 -0.4245 -0.1954 -0.4745
  771MOL0     C 4009   5.280   7.846   1.127 -0.4775  0.0123 -0.6756
  771MOL0     C 4010   5.126   7.854   1.132  0.3576 -0.0617 -0.5942
  771MOL0     C 4011   5.043   7.723   1.087 -0.9444  1.3502 -0.0620
  771MOL0     C 4012   5.050   7.600   1.168 -0.6477 -0.3625  0.0718
  771MOL0     C 4013   5.001   7.608   1.300  0.9281 -0.0295  0.3937
  771MOL0     C 4014   4.955   7.623   1.409 -0.7463  0.0004 -0.1420
  771MOL0     C 4015   5.561   7.780   1.114  0.9366  0.0814  0.4710
  771MOL0     C 4016   5.695   7.745   1.096  0.7462  0.0526  0.8667
  771MOL0     C 4017   5.773   7.719   1.228  0.1657  0.5499  0.5954
  771MOL0     H 4018   6.086   7.726   0.643 -0.3775  0.5823  1.4910
  771MOL0     H 4019   6.304   7.673   0.610  0.7096 -2.1790 -1.5023
  771MOL0     H 4020   6.486   7.343   0.880  2.9193  2.4455  1.4220
  771MOL0     H 4021   6.443   7.290   0.710 -0.2592  0.0758  0.0560
  771MOL0     H 4022   6.694   7.447   0.797  1.0339  0.0522 -0.9921
  771MOL0     H 4023   6.660   7.394   0.634  3.3906 -0.5272  0.6707
  771MOL0     H 4024   6.692   7.158   0.699 -0.2184 -1.7453  2.0258
  771MOL0     H 4025   6.713   7.208   0.872  5.3086  0.1809 -0.0260
  771MOL0     H 4026   6.900   7.265   0.653  0.1287  0.1893  0.5733
  771MOL0     H 4027   6.896   7.373   0.788  1.1337 -0.7040  2.5623
  771MOL0     H 4028   6.933   7.158   0.940  3.5546 -2.9601 -0.1322
  771MOL0     H 4029   6.966   7.079   0.788  0.2069  0.1922  0.2745
  771MOL0     H 4030   7.122   7.290   0.749 -0.9044  3.2220  1.7978
  771MOL0     H 4031   7.116   7.304   0.915 -1.7124 -1.1129  0.1583
  771MOL0     H 4032   7.216   7.046   0.800  0.4870  1.9194 -1.8174
  771MOL0     H 4033   7.184   7.080   0.971 -1.3001 -0.1476 -0.1443
  771MOL0     H 4034   7.402   7.223   0.802 -1.5696 -1.2946 -0.8694
  771MOL0     H 4035   7.335   7.290   0.955 -0.4851  0.9712 -1.1078
  771MOL0     H 4036   7.454   7.218   1.169  2.0602  0.5832  1.6136
  771MOL0     H 4037   7.632   7.137   1.306 -0.8482 -0.4179  0.8816
  771MOL0     H 4038   7.611   6.961   1.320 -0.6919 -0.9137 -0.8990
  771MOL0     H 4039   7.817   6.915   1.220 -0.7511  0.3181 -1.4238
  771MOL0     H 4040   7.842   7.081   1.169 -0.3891  1.3395  0.3548
  771MOL0     H 4041   7.821   7.009   1.469  1.0039 -0.0849 -0.4810
  771MOL0     H 4042   7.862   7.166   1.401 -1.4967  0.4160  0.7630
  771MOL0     H 4043   8.031   6.923   1.345 -0.3633 -0.4837  1.3411
  771MOL0     H 4044   8.059   7.036   1.473  0.0910 -0.2468  0.2143
  771MOL0     H 4045   8.207   7.213   1.085  0.6815  1.1715  0.5145
  771MOL0     H 4046   8.434   7.162   1.005 -0.5555 -0.0564 -0.4203
  771MOL0     H 4047   8.894   7.094   1.179  0.0247  0.6118 -0.6149
  771MOL0     H 4048   9.118   7.065   1.087  0.9533 -0.7136  0.9484
  771MOL0     H 4049   9.256   6.653   0.910 -2.4127 -0.8662 -1.6663
  771MOL0     H 4050   9.165   6.758   0.804  1.8163 -2.1015 -1.1773
  771MOL0     H 4051   9.450   6.795   0.896 -2.0211  1.0659  2.2520
  771MOL0     H 4052   9.403   6.713   0.739 -1.2781  1.9415 -2.5783
  771MOL0     H 4053   9.293   6.934   0.683  0.6824  0.8691 -0.1387
  771MOL0     H 4054   9.369   7.004   0.822  1.0471 -0.3489  0.6338
  771MOL0     H 4055   9.487   7.049   0.621 -0.3742  0.8060  0.9180
  771MOL0     H 4056   9.530   6.884   0.590  2.5385  1.9464 -0.1953
  771MOL0     H 4057   9.712   6.939   0.689  0.0189 -2.7277  0.5241
  771MOL0     H 4058   9.633   6.867   0.829  0.4793  1.9992  2.1294
  771MOL0     H 4059   9.654   7.177   0.763 -1.7775  0.2941  0.5586
  771MOL0     H 4060   9.580   7.114   0.904  0.3101 -4.3044  1.1726
  771MOL0     H 4061   9.786   7.022   0.982 -0.0250 -0.5089 -1.2779
  771MOL0     H 4062   9.780   7.201   0.974  2.2339  0.7065  1.6351
  771MOL0     H 4063   9.913   7.015   0.772 -2.5383 -1.7726  1.2147
  771MOL0     H 4064   9.898   7.197   0.771  2.4239 -0.7144 -1.9403
  771MOL0     H 4065   9.044   6.654   0.999 -0.4993 -1.1355  3.0602
  771MOL0     H 4066   8.816   6.677   1.075  2.2262 -1.4112 -0.7102
  771MOL0     H 4067   8.474   6.874   1.322 -2.4066 -1.3627  0.9975
  771MOL0     H 4068   8.236   6.918   1.390 -0.2546 -1.1324 -0.6091
  771MOL0     H 4069   6.274   7.370   0.924  1.0781  2.5744  2.5168
  771MOL0     H 4070   6.049   7.420   0.946 -1.0182 -0.2426  0.3902
  771MOL0     H 4071   5.709   7.812   0.756  1.9302  0.5533  0.7972
  771MOL0     H 4072   5.499   7.868   0.791  2.7190 -0.9274 -2.6729
  771MOL0     H 4073   5.312   7.940   1.172  0.0993 -0.9844  1.0726
  771MOL0     H 4074   5.307   7.764   1.194 -0.5767  0.6199  0.1252
  771MOL0     H 4075   5.101   7.938   1.067 -1.1916  0.0121  0.0468
  771MOL0     H 4076   5.100   7.879   1.235 -0.7681 -0.8505 -0.6659
  771MOL0     H 4077   5.073   7.678   0.991 -1.8575  0.5509  0.0087
  771MOL0     H 4078   4.936   7.746   1.076 -2.0547 -1.9336  2.5703
  771MOL0     H 4079   4.991   7.527   1.112 -2.3143  0.3871  0.8010
  771MOL0     H 4080   5.152   7.560   1.172 -0.7693 -0.8978 -1.3931
  771MOL0     H 4081   4.918   7.643   1.508 -2.8194  2.4399 -1.2927
  771MOL0     H 4082   5.522   7.792   1.214  1.5732  1.3894  0.5773
  771MOL0     H 4083   5.848   7.649   1.191  0.0824  0.6864  0.1609
  771MOL0     H 4084   5.825   7.803   1.275 -0.1285  0.5272  0.9641
  771MOL0     H 4085   5.708   7.683   1.308 -0.5726  0.7565  0.1053
  772MOL0     O 4086   8.104   2.436   7.447  0.4936 -0.4400 -0.2720
  772MOL0     C 4087   8.111   2.512   7.543 -0.3986 -0.3215 -0.3961
  772MOL0     O 4088   8.219   2.524   7.634 -0.8517  0.0301  0.4533
  772MOL0     C 4089   8.326   2.442   7.614 -0.7067 -0.4046  0.5999
  772MOL0     C 4090   8.365   2.355   7.717 -0.4176 -0.3110  0.4446
  772MOL0     C 4091   8.490   2.283   7.715  0.8274  0.2752 -0.2789
  772MOL0     C 4092   8.570   2.288   7.600 -0.3137 -0.1142 -0.1948
  772MOL0     O 4093   8.678   2.203   7.604 -0.4340 -0.2347 -0.5336
  772MOL0     C 4094   8.766   2.203   7.493  0.2776  0.3642 -0.3712
  772MOL0     C 4095   8.877   2.106   7.517 -0.6503  0.7052 -0.1570
  772MOL0     C 4096   8.971   2.110   7.391  0.9660  0.0966 -0.1345
  772MOL0     C 4097   9.109   2.060   7.431  1.0911 -0.4418  0.6961
  772MOL0     C 4098   9.196   2.031   7.309  0.2282 -0.2491  0.5135
  772MOL0     C 4099   9.175   1.917   7.222  0.7935  0.2216  0.7153
  772MOL0     C 4100   9.266   1.928   7.090 -0.3316 -0.1717 -0.1068
  772MOL0     C 4101   9.233   1.820   6.988 -1.2227  0.2888 -0.1667
  772MOL0     N 4102   9.346   1.792   6.890 -0.3120 -0.6148 -0.6121
  772MOL0     C 4103   9.483   1.790   6.909 -0.3068  0.3637 -0.6296
  772MOL0     C 4104   9.538   1.770   6.786  1.1465  0.2656  0.4735
  772MOL0     C 4105   9.683   1.738   6.773 -0.2114  0.7603 -0.6193
  772MOL0     C 4106   9.719   1.585   6.788  0.4446 -0.2681  0.2431
  772MOL0     C 4107   9.817   1.557   6.908 -0.8635  0.4972  0.2272
  772MOL0     C 4108   9.966   1.598   6.892  0.0040  0.0675  0.2850
  772MOL0     O 4109  10.040   1.593   7.017  0.0382  0.1322  0.0255
  772MOL0     C 4110  10.180   1.603   7.008  0.1915  0.3693  0.0161
  772MOL0     C 4111  10.240   1.603   7.130  1.3534 -0.4510  0.1972
  772MOL0     C 4112  10.375   1.624   7.154  0.2352  0.0382 -0.9531
  772MOL0     C 4113  10.453   1.647   7.040  0.1146  0.2871  0.3843
  772MOL0     C 4114  10.597   1.672   7.059 -0.1521  0.5256  0.0915
  772MOL0     O 4115  10.675   1.668   6.949  0.1096  0.6701 -0.4041
  772MOL0     C 4116  10.808   1.687   6.965  0.1228 -0.4448  0.0242
  772MOL0     C 4117  10.853   1.818   6.969  0.3419 -0.2687  0.3731
  772MOL0     C 4118  10.987   1.841   6.964  0.7012 -0.1206 -0.6394
  772MOL0     C 4119  11.086   1.743   6.954 -0.3876  0.8928 -0.1761
  772MOL0     O 4120  11.217   1.788   6.935  0.8927  0.0815 -0.3661
  772MOL0     C 4121  11.322   1.707   6.897  0.4555  0.0539  0.7240
  772MOL0     C 4122  11.453   1.795   6.877  0.1415  0.5130  0.4762
  772MOL0     C 4123  11.438   1.923   6.798 -0.5659 -0.6828  0.2578
  772MOL0     C 4124  11.566   1.993   6.751 -0.3984  0.6547 -0.2008
  772MOL0     C 4125  11.634   2.077   6.860 -0.4889  0.0820  0.1528
  772MOL0     C 4126  11.777   2.143   6.827  0.5843  0.0004  0.1028
  772MOL0     C 4127  11.778   2.264   6.723 -0.2517  0.7625 -0.2730
  772MOL0     C 4128  11.920   2.294   6.676  0.1537  1.2427  0.3950
  772MOL0    Cl 4129  12.013   2.375   6.808  0.0218  0.0111 -0.1127
  772MOL0     C 4130  11.042   1.609   6.954 -0.6847 -0.3875  0.8188
  772MOL0     C 4131  10.898   1.579   6.956 -0.0324 -0.0343  0.1834
  772MOL0     O 4132  10.639   1.677   7.173  0.2350  0.5349  0.1940
  772MOL0     C 4133  10.398   1.651   6.910  0.2843 -0.0739  0.0135
  772MOL0     C 4134  10.260   1.633   6.896 -0.2681  0.1666 -0.6938
  772MOL0     N 4135   9.436   1.734   6.701  0.0934  0.0263 -0.1773
  772MOL0     N 4136   9.321   1.742   6.766 -0.3650  0.2594  0.4812
  772MOL0     C 4137   8.534   2.368   7.491  0.4734  0.3151  0.5886
  772MOL0     C 4138   8.410   2.440   7.498  0.0082  0.3766 -0.1616
  772MOL0     C 4139   7.996   2.597   7.591  0.1063  1.0232 -1.1194
  772MOL0     C 4140   8.023   2.709   7.669 -0.0006  1.0299  0.4102
  772MOL0     C 4141   7.921   2.799   7.706  0.1324 -0.7106 -0.0521
  772MOL0     C 4142   7.793   2.775   7.657  0.2481  0.5578 -0.8342
  772MOL0     O 4143   7.681   2.844   7.701  0.3367 -0.9878 -0.0052
  772MOL0     C 4144   7.705   2.972   7.762 -0.2128 -0.0816 -0.0335
  772MOL0     C 4145   7.574   3.044   7.789  0.1185 -0.2992  0.3652
  772MOL0     C 4146   7.484   3.076   7.663 -0.9475 -0.1326 -0.2551
  772MOL0     C 4147   7.352   3.151   7.681 -0.3506 -0.1205 -0.6506
  772MOL0     C 4148   7.303   3.149   7.547 -0.0397  0.1310 -0.0129
  772MOL0     C 4149   7.240   3.135   7.447 -0.4493 -0.7700  1.0592
  772MOL0     C 4150   7.756   2.656   7.594  0.3177 -0.4871 -0.2254
  772MOL0     C 4151   7.862   2.572   7.551 -0.3047  0.2410  0.9324
  772MOL0     C 4152   7.814   2.443   7.492  0.2989 -0.0475 -0.0779
  772MOL0     H 4153   8.302   2.351   7.806  1.5955 -2.0734  1.9226
  772MOL0     H 4154   8.518   2.225   7.802  0.3667  1.3817  0.6122
  772MOL0     H 4155   8.707   2.157   7.413  1.3190 -0.2859 -0.7725
  772MOL0     H 4156   8.798   2.301   7.455 -0.1191 -0.6608 -3.7222
  772MOL0     H 4157   8.830   2.007   7.519 -1.3487  1.0432  0.2728
  772MOL0     H 4158   8.937   2.122   7.607 -0.0570 -2.3350  0.1072
  772MOL0     H 4159   8.977   2.217   7.369 -3.0547  0.9040  1.8363
  772MOL0     H 4160   8.940   2.057   7.301 -1.3885 -2.7291  2.1159
  772MOL0     H 4161   9.156   2.139   7.490  0.5974  0.0701  0.4102
  772MOL0     H 4162   9.097   1.975   7.499  3.7083 -0.6428  0.9910
  772MOL0     H 4163   9.191   2.124   7.252 -0.8221  0.9231  2.3856
  772MOL0     H 4164   9.296   2.028   7.354  0.4311 -3.4136  0.0709
  772MOL0     H 4165   9.210   1.831   7.281  3.8782  0.0437 -1.1266
  772MOL0     H 4166   9.074   1.904   7.182  0.1432  1.1512  2.0075
  772MOL0     H 4167   9.369   1.908   7.123 -0.7292 -1.6144  0.3584
  772MOL0     H 4168   9.260   2.029   7.048  1.1428  0.7307  1.7126
  772MOL0     H 4169   9.212   1.724   7.035 -4.3024  0.4546 -0.9841
  772MOL0     H 4170   9.139   1.832   6.932  0.5950 -1.5332 -4.0323
  772MOL0     H 4171   9.535   1.807   7.003 -3.2945  1.2631  1.0023
  772MOL0     H 4172   9.713   1.773   6.674  1.1197 -2.2355 -1.4043
  772MOL0     H 4173   9.733   1.794   6.853 -1.0997  0.6841  0.0107
  772MOL0     H 4174   9.626   1.532   6.811  0.1864  0.0810  0.0019
  772MOL0     H 4175   9.761   1.547   6.694  0.5646  0.1839  0.1115
  772MOL0     H 4176   9.802   1.452   6.933 -0.9832  0.5945  0.5596
  772MOL0     H 4177   9.777   1.618   6.989 -0.5069 -1.0784  1.6314
  772MOL0     H 4178   9.964   1.702   6.855  2.1087 -1.2071 -4.0544
  772MOL0     H 4179  10.014   1.540   6.813 -1.0508  0.7202 -0.8985
  772MOL0     H 4180  10.186   1.584   7.222  0.5115 -0.6052 -0.3194
  772MOL0     H 4181  10.402   1.627   7.259 -0.4378 -3.3854 -0.5433
  772MOL0     H 4182  10.795   1.909   6.978  1.0448  0.1019  1.3972
  772MOL0     H 4183  11.021   1.941   6.990  0.0151 -0.5056  2.0535
  772MOL0     H 4184  11.337   1.629   6.973 -0.4261  0.7280  1.5996
  772MOL0     H 4185  11.308   1.654   6.802  0.5667  0.1193  0.6709
  772MOL0     H 4186  11.494   1.816   6.977  1.6060 -3.8231  1.0326
  772MOL0     H 4187  11.537   1.737   6.837 -0.6514 -1.2999  1.3441
  772MOL0     H 4188  11.387   1.885   6.709 -2.5047 -1.5645  1.6940
  772MOL0     H 4189  11.371   1.984   6.858  0.0093  0.1947  0.0243
  772MOL0     H 4190  11.550   2.066   6.671  0.7388 -1.0982 -2.1201
  772MOL0     H 4191  11.623   1.911   6.705 -1.4860  1.4718 -3.3051
  772MOL0     H 4192  11.650   2.025   6.955 -0.8519 -1.0000 -0.3600
  772MOL0     H 4193  11.560   2.151   6.891 -0.8205 -0.5751  1.0052
  772MOL0     H 4194  11.808   2.175   6.926 -1.1629 -1.7850  1.3006
  772MOL0     H 4195  11.844   2.067   6.784 -0.3917 -1.7189  1.5062
  772MOL0     H 4196  11.731   2.352   6.768 -2.7600  0.1064 -1.4786
  772MOL0     H 4197  11.708   2.243   6.642 -2.7630  1.7534  1.5295
  772MOL0     H 4198  11.964   2.209   6.623 -2.2248  1.2858 -1.8386
  772MOL0     H 4199  11.908   2.371   6.600 -2.2227 -0.7257 -1.3895
  772MOL0     H 4200  11.118   1.534   6.934 -1.0719 -0.6484  0.3255
  772MOL0     H 4201  10.865   1.478   6.934  3.5240 -1.0370 -1.1547
  772MOL0     H 4202  10.455   1.688   6.825  0.6645 -0.0917  0.2595
  772MOL0     H 4203  10.213   1.642   6.799 -1.4715  0.2575 -0.1222
  772MOL0     H 4204   8.593   2.370   7.400  0.1822 -4.3243  0.0223
  772MOL0     H 4205   8.371   2.498   7.415  0.4305 -0.4688 -0.9656
  772MOL0     H 4206   8.118   2.742   7.709 -0.7375 -1.3273  4.6464
  772MOL0     H 4207   7.962   2.878   7.769 -0.6290 -0.7048  0.4468
  772MOL0     H 4208   7.763   3.035   7.694 -1.0339 -0.8400 -1.4835
  772MOL0     H 4209   7.758   2.952   7.855 -1.2164 -0.2056  0.5206
  772MOL0     H 4210   7.577   3.144   7.835  0.2926  1.0232 -2.3288
  772MOL0     H 4211   7.512   2.987   7.859 -1.8078  0.8611 -0.3059
  772MOL0     H 4212   7.451   2.974   7.641 -2.0720 -0.0876  1.0911
  772MOL0     H 4213   7.539   3.130   7.585 -1.6574 -0.7148 -1.1845
  772MOL0     H 4214   7.278   3.089   7.733 -0.3368  0.5813  0.2292
  772MOL0     H 4215   7.347   3.251   7.725 -2.1146 -0.8901  1.0431
  772MOL0     H 4216   7.190   3.113   7.355  2.9991 -1.0076 -0.9416
  772MOL0     H 4217   7.651   2.640   7.571  0.1674  0.1590 -0.0154
  772MOL0     H 4218   7.869   2.426   7.398 -3.1064 -1.9811 -1.9294
  772MOL0     H 4219   7.817   2.358   7.560 -0.4587 -1.2172 -1.4343
  772MOL0     H 4220   7.710   2.454   7.460  0.7770  0.8086 -1.4048
  773MOL0     O 4221   1.755  10.788  11.132 -0.6108 -0.2261  0.3132
  773MOL0     C 4222   1.714  10.905  11.133  0.2126  0.0502  0.6691
  773MOL0     O 4223   1.792  11.017  11.144  0.2517 -0.0466  0.4927
  773MOL0     C 4224   1.912  10.998  11.091  0.0568  1.1537  0.1991
  773MOL0     C 4225   2.006  10.940  11.173 -0.2014  0.1641 -1.1818
  773MOL0     C 4226   2.137  10.925  11.121 -0.0821  0.1616  0.6124
  773MOL0     C 4227   2.162  10.942  10.980  0.0606  0.8686  0.2270
  773MOL0     O 4228   2.279  10.906  10.919 -0.7517  0.1601  0.1424
  773MOL0     C 4229   2.357  10.793  10.968 -0.3522  0.5810 -0.0048
  773MOL0     C 4230   2.479  10.778  10.874 -0.5052 -0.2834  0.8480
  773MOL0     C 4231   2.534  10.636  10.870 -0.1777 -0.0452 -0.7600
  773MOL0     C 4232   2.652  10.618  10.782  0.0622  0.3742  0.4599
  773MOL0     C 4233   2.713  10.475  10.824  0.1137 -0.6458  0.3483
  773MOL0     C 4234   2.626  10.345  10.832 -0.1288 -0.1278 -0.2443
  773MOL0     C 4235   2.704  10.217  10.786  1.0361 -0.4369 -0.0237
  773MOL0     C 4236   2.825  10.169  10.859 -0.6290 -0.2662 -0.4311
  773MOL0     N 4237   2.797  10.085  10.975 -0.8545  0.4589  0.0245
  773MOL0     C 4238   2.759   9.948  10.972 -0.3252 -0.6017 -0.0632
  773MOL0     C 4239   2.742   9.908  11.101 -0.9532 -0.3556  0.2033
  773MOL0     C 4240   2.702   9.777  11.147  0.5310 -0.1767  0.3312
  773MOL0     C 4241   2.541   9.774  11.164 -0.2447  0.6699 -0.6275
  773MOL0     C 4242   2.499   9.643  11.217 -0.0038  0.6324  0.1611
  773MOL0     C 4243   2.352   9.652  11.274  0.0960  0.0742 -0.2129
  773MOL0     O 4244   2.313   9.523  11.339  0.0184 -0.9689  0.0788
  773MOL0     C 4245   2.180   9.512  11.345  0.7424 -0.3127  0.2749
  773MOL0     C 4246   2.112   9.573  11.451  0.4037 -0.0645  0.0275
  773MOL0     C 4247   1.980   9.542  11.471 -0.1084 -0.2509  0.2213
  773MOL0     C 4248   1.908   9.458  11.381 -0.5349 -0.1281  0.0438
  773MOL0     C 4249   1.752   9.440  11.394 -0.6422 -0.3249 -0.9757
  773MOL0     O 4250   1.682   9.389  11.291  0.7015 -0.1159 -0.3836
  773MOL0     C 4251   1.543   9.375  11.283 -0.4848  0.5550 -0.1547
  773MOL0     C 4252   1.440   9.437  11.363 -0.0975 -0.2644  0.0045
  773MOL0     C 4253   1.304   9.403  11.345 -0.7800 -0.1204 -0.9042
  773MOL0     C 4254   1.270   9.304  11.248 -0.3958 -0.5587  0.3551
  773MOL0     O 4255   1.136   9.281  11.230 -0.4263 -0.6401  0.3917
  773MOL0     C 4256   1.091   9.210  11.111 -0.1831 -0.0201 -1.2143
  773MOL0     C 4257   0.937   9.206  11.110 -0.5447 -0.4726  1.0376
  773MOL0     C 4258   0.880   9.354  11.107  0.9924 -0.3789  0.0010
  773MOL0     C 4259   0.723   9.354  11.078 -0.7403  0.2722  0.3915
  773MOL0     C 4260   0.669   9.491  11.052  0.6313  0.1022  0.0273
  773MOL0     C 4261   0.519   9.490  11.065  0.2602 -0.0091  0.5189
  773MOL0     C 4262   0.455   9.616  11.039 -0.7892 -0.6540  0.5513
  773MOL0     C 4263   0.465   9.713  11.160 -0.1242 -0.8121  1.2279
  773MOL0    Cl 4264   0.626   9.779  11.186  0.2342  0.2537 -0.4001
  773MOL0     C 4265   1.371   9.251  11.164  0.0941 -0.1962  0.4508
  773MOL0     C 4266   1.507   9.284  11.178  0.5853 -0.1277 -0.8129
  773MOL0     O 4267   1.702   9.484  11.498 -0.2102 -0.4851 -0.0224
  773MOL0     C 4268   1.976   9.401  11.272 -0.1665 -0.0970 -0.5023
  773MOL0     C 4269   2.114   9.432  11.252 -0.4100  0.9451 -0.4183
  773MOL0     N 4270   2.781  10.013  11.177 -0.8721 -1.1787 -1.0726
  773MOL0     N 4271   2.820  10.115  11.106 -0.3555  0.4317 -0.7370
  773MOL0     C 4272   2.060  10.994  10.897  0.5412 -1.0121 -0.0146
  773MOL0     C 4273   1.934  11.015  10.957  0.0449 -0.5590 -0.4231
  773MOL0     C 4274   1.573  10.916  11.130  0.9129 -0.7070 -0.1046
  773MOL0     C 4275   1.515  10.962  11.246  0.0139 -0.4803  0.3156
  773MOL0     C 4276   1.375  10.978  11.254  0.1526  0.8707  0.2626
  773MOL0     C 4277   1.303  10.933  11.147  0.9150  0.3513  0.0760
  773MOL0     O 4278   1.165  10.930  11.160  0.0680 -0.5493  0.1850
  773MOL0     C 4279   1.095  11.053  11.202 -0.3782 -0.0125 -0.9975
  773MOL0     C 4280   0.947  11.048  11.180  0.9817  0.6676  0.3686
  773MOL0     C 4281   0.874  11.167  11.234  0.6854  0.0323  0.0175
  773MOL0     C 4282   0.725  11.174  11.206  0.2076 -0.1813 -0.1550
  773MOL0     C 4283   0.646  11.091  11.303 -0.0738 -1.1495  0.5719
  773MOL0     C 4284   0.582  11.009  11.359 -0.2145  0.3322 -0.0723
  773MOL0     C 4285   1.361  10.880  11.032  0.0280 -0.7342 -0.1640
  773MOL0     C 4286   1.499  10.875  11.019  0.1028 -0.0505  0.4254
  773MOL0     C 4287   1.560  10.839  10.885 -0.5579 -0.8448 -0.2431
  773MOL0     H 4288   1.982  10.920  11.277  1.9046  3.0284 -0.0058
  773MOL0     H 4289   2.216  10.883  11.182 -0.6184 -2.5159 -0.3931
  773MOL0     H 4290   2.396  10.823  11.066  1.7412 -2.2379  0.1689
  773MOL0     H 4291   2.308  10.695  10.976 -0.0321  0.4495  0.3714
  773MOL0     H 4292   2.556  10.850  10.901 -0.2659  0.8946 -2.6001
  773MOL0     H 4293   2.449  10.809  10.774 -1.6551  0.4266  1.3937
  773MOL0     H 4294   2.455  10.567  10.842  0.1035 -0.0321 -1.6079
  773MOL0     H 4295   2.566  10.606  10.970 -1.5067 -2.6966 -1.0660
  773MOL0     H 4296   2.621  10.620  10.678  1.4435  1.2961  0.0446
  773MOL0     H 4297   2.726  10.697  10.798  0.6478 -0.4940  2.3352
  773MOL0     H 4298   2.802  10.465  10.761  1.2156  0.6381  1.6350
  773MOL0     H 4299   2.761  10.487  10.921 -3.4144  0.3474  2.1108
  773MOL0     H 4300   2.587  10.343  10.934  2.4225 -1.7253  0.8163
  773MOL0     H 4301   2.548  10.360  10.757  1.5057  1.1651 -1.7736
  773MOL0     H 4302   2.727  10.237  10.681 -2.8078 -0.3735 -0.9975
  773MOL0     H 4303   2.630  10.137  10.790 -0.9947  1.3749  1.0254
  773MOL0     H 4304   2.886  10.101  10.800  0.5809 -1.1332  1.6854
  773MOL0     H 4305   2.890  10.256  10.876 -0.5083 -0.5006  0.3852
  773MOL0     H 4306   2.742   9.894  10.879  2.3328 -0.9862 -0.3807
  773MOL0     H 4307   2.726   9.700  11.073  1.1518 -0.5698  0.9331
  773MOL0     H 4308   2.748   9.754  11.243  2.1202 -1.4617 -0.6825
  773MOL0     H 4309   2.510   9.853  11.233 -1.4242 -0.6823  0.4323
  773MOL0     H 4310   2.495   9.785  11.066 -1.6897  2.1663  0.1796
  773MOL0     H 4311   2.570   9.608  11.293  1.8383  2.9180 -0.4026
  773MOL0     H 4312   2.508   9.564  11.141 -2.5501  0.5405 -0.1350
  773MOL0     H 4313   2.276   9.693  11.207  1.5495  1.6692 -0.9526
  773MOL0     H 4314   2.364   9.709  11.367  3.0897 -1.2262  0.3203
  773MOL0     H 4315   2.168   9.652  11.501  1.4140  0.5200 -1.9228
  773MOL0     H 4316   1.919   9.609  11.531 -1.9280  2.6092 -4.3499
  773MOL0     H 4317   1.465   9.512  11.438  1.2526 -0.1854 -0.5008
  773MOL0     H 4318   1.224   9.458  11.392 -0.7846 -1.0152  0.1796
  773MOL0     H 4319   1.137   9.254  11.023 -0.3354  0.5180 -1.0262
  773MOL0     H 4320   1.122   9.105  11.111  0.4829  0.1499  0.4357
  773MOL0     H 4321   0.904   9.152  11.021  1.4040  0.8852 -0.6193
  773MOL0     H 4322   0.889   9.153  11.193 -1.9893 -0.2285  0.3834
  773MOL0     H 4323   0.878   9.407  11.202 -1.2360  0.2726 -0.3405
  773MOL0     H 4324   0.935   9.416  11.035  2.1735  0.0617  1.2453
  773MOL0     H 4325   0.675   9.309  11.166 -0.1749  0.0155  0.5785
  773MOL0     H 4326   0.701   9.284  10.997  3.3239  0.4294 -1.0467
  773MOL0     H 4327   0.696   9.534  10.954  0.3414  0.5298  0.1316
  773MOL0     H 4328   0.702   9.557  11.132  0.0041  0.3919  0.0540
  773MOL0     H 4329   0.475   9.415  10.999 -2.0216  1.4798  0.2441
  773MOL0     H 4330   0.493   9.452  11.165 -1.0299 -2.6590 -0.7185
  773MOL0     H 4331   0.346   9.607  11.025 -0.9236  0.0724  1.0576
  773MOL0     H 4332   0.503   9.663  10.953 -1.9911  1.8195  1.1115
  773MOL0     H 4333   0.406   9.801  11.132  1.3313 -0.1639  0.0727
  773MOL0     H 4334   0.427   9.668  11.252 -0.6354 -1.8308  0.5344
  773MOL0     H 4335   1.351   9.170  11.095  1.3952 -1.6747  1.7231
  773MOL0     H 4336   1.585   9.231  11.124  0.6424 -1.2779  0.3437
  773MOL0     H 4337   1.918   9.337  11.206  0.3224  1.7382 -2.8531
  773MOL0     H 4338   2.164   9.384  11.168 -0.8955 -1.2272  0.4612
  773MOL0     H 4339   2.079  11.005  10.791  2.1456 -3.2228 -0.0217
  773MOL0     H 4340   1.854  11.060  10.898 -0.2843  1.7162  1.5972
  773MOL0     H 4341   1.580  11.000  11.324  0.8647  2.0565 -1.4892
  773MOL0     H 4342   1.330  11.017  11.345 -2.1179  1.8343 -1.2112
  773MOL0     H 4343   1.139  11.133  11.143 -0.7650  0.7025 -0.3444
  773MOL0     H 4344   1.109  11.075  11.308  1.2418 -0.5648 -1.0782
  773MOL0     H 4345   0.911  10.962  11.237 -1.9459  1.5468 -0.0006
  773MOL0     H 4346   0.922  11.034  11.075 -0.6557  3.2578  0.3069
  773MOL0     H 4347   0.916  11.239  11.164 -1.5436  2.5822  1.1024
  773MOL0     H 4348   0.897  11.193  11.338 -0.2704  1.3355 -0.0667
  773MOL0     H 4349   0.693  11.278  11.209  2.6753  0.6544 -0.5124
  773MOL0     H 4350   0.707  11.142  11.104  1.4612 -0.2023 -0.3890
  773MOL0     H 4351   0.519  10.945  11.416 -1.9094  1.0401 -1.0717
  773MOL0     H 4352   1.295  10.854  10.950 -1.6739  1.0959  0.5329
  773MOL0     H 4353   1.608  10.927  10.844 -1.6585 -0.3755 -0.5581
  773MOL0     H 4354   1.625  10.751  10.881  3.6031  2.0033 -0.8775
  773MOL0     H 4355   1.475  10.811  10.822  0.8172 -3.2762 -1.1532
  774MOL0     O 4356   6.065   7.053   2.956 -0.4015 -0.7431  0.0570
  774MOL0     C 4357   6.023   7.007   2.852 -0.4674  0.5094  0.1751
  774MOL0     O 4358   6.104   6.966   2.748  0.2537 -0.7023  0.0383
  774MOL0     C 4359   6.248   6.972   2.747  0.1058  0.1718  0.4854
  774MOL0     C 4360   6.331   6.968   2.865  0.1547  0.1900  0.0470
  774MOL0     C 4361   6.473   6.996   2.851 -0.4977 -0.5476 -0.3134
  774MOL0     C 4362   6.538   7.006   2.724  1.1219  0.1770  0.0755
  774MOL0     O 4363   6.674   7.034   2.706  0.5702 -0.0146  0.3473
  774MOL0     C 4364   6.734   7.144   2.779  0.4306  0.0958 -0.2526
  774MOL0     C 4365   6.870   7.195   2.721  0.2172  0.3111  0.2024
  774MOL0     C 4366   7.000   7.113   2.760  0.6075  0.1032  0.0213
  774MOL0     C 4367   7.128   7.168   2.697  0.5960 -0.7038 -0.5932
  774MOL0     C 4368   7.247   7.071   2.700  0.9070  0.0391  0.4659
  774MOL0     C 4369   7.320   7.075   2.838 -0.5968  0.2276 -0.2424
  774MOL0     C 4370   7.426   6.967   2.857  0.0427 -0.2809 -0.3225
  774MOL0     C 4371   7.520   6.997   2.972 -0.1505 -0.5781  0.0801
  774MOL0     N 4372   7.574   7.136   2.989 -0.0656 -0.3160  0.3794
  774MOL0     C 4373   7.685   7.170   2.924  0.4321 -0.4632  0.1001
  774MOL0     C 4374   7.756   7.248   3.013  0.0144 -0.2766 -0.7027
  774MOL0     C 4375   7.890   7.324   3.001  0.0157 -0.3976  0.2478
  774MOL0     C 4376   7.881   7.460   2.928 -0.4920  0.1518  0.1259
  774MOL0     C 4377   7.794   7.567   2.998 -0.9289 -0.3765  1.1573
  774MOL0     C 4378   7.657   7.556   2.922 -0.5203  0.2980 -0.2946
  774MOL0     O 4379   7.669   7.636   2.809 -0.0116  0.2390 -0.5000
  774MOL0     C 4380   7.558   7.655   2.729 -0.2581 -0.1360  0.1645
  774MOL0     C 4381   7.424   7.648   2.773  0.3990  0.1781  0.5066
  774MOL0     C 4382   7.320   7.658   2.678 -0.4402 -0.3486 -0.5338
  774MOL0     C 4383   7.344   7.703   2.553  0.1823  0.4125  0.5743
  774MOL0     C 4384   7.227   7.711   2.457 -0.3452  0.2889 -0.9387
  774MOL0     O 4385   7.238   7.775   2.341 -0.6830 -0.0442 -0.3485
  774MOL0     C 4386   7.123   7.793   2.266 -0.3994  0.2941 -0.4155
  774MOL0     C 4387   7.129   7.737   2.141 -0.7771  1.3179 -0.1894
  774MOL0     C 4388   7.026   7.755   2.057  0.0588 -0.5479  0.0870
  774MOL0     C 4389   6.910   7.826   2.087 -0.0100  0.1341 -0.1386
  774MOL0     O 4390   6.822   7.830   1.980  0.1438 -0.2163 -0.3023
  774MOL0     C 4391   6.688   7.855   2.017  0.0838 -0.6623 -0.0541
  774MOL0     C 4392   6.583   7.850   1.901  0.0331  1.3703  0.7833
  774MOL0     C 4393   6.572   7.714   1.833  0.4612 -0.0441 -0.2729
  774MOL0     C 4394   6.435   7.705   1.760  0.4185 -0.2211 -0.1266
  774MOL0     C 4395   6.428   7.602   1.652  1.1581 -0.4939  0.2411
  774MOL0     C 4396   6.443   7.463   1.708  0.2975 -0.5685  0.2024
  774MOL0     C 4397   6.514   7.368   1.603  0.5291  0.2594  0.0210
  774MOL0     C 4398   6.513   7.224   1.642  0.1118  0.1002 -0.4368
  774MOL0    Cl 4399   6.604   7.209   1.800 -0.0781  0.1961 -0.6063
  774MOL0     C 4400   6.901   7.870   2.217 -1.2856 -0.8669 -1.0240
  774MOL0     C 4401   7.006   7.858   2.316 -1.0336  0.2549  0.0590
  774MOL0     O 4402   7.127   7.639   2.495 -0.0901 -0.7498  0.4447
  774MOL0     C 4403   7.477   7.728   2.517  0.6033 -0.4221 -0.1724
  774MOL0     C 4404   7.581   7.709   2.606  0.2481  0.8343  0.1137
  774MOL0     N 4405   7.680   7.263   3.124 -0.5309 -0.5808  0.1657
  774MOL0     N 4406   7.569   7.202   3.109 -0.1455  0.3027  0.2149
  774MOL0     C 4407   6.456   6.998   2.609  0.6487  0.3544 -0.7768
  774MOL0     C 4408   6.312   6.978   2.625 -0.6028 -0.3795 -0.4279
  774MOL0     C 4409   5.878   7.003   2.834 -0.2248  1.3838  1.2661
  774MOL0     C 4410   5.810   6.950   2.937 -0.4672 -0.5137  0.0239
  774MOL0     C 4411   5.678   6.926   2.929  0.5597 -0.1346  1.3837
  774MOL0     C 4412   5.597   6.955   2.812  0.0631  0.3692 -0.3127
  774MOL0     O 4413   5.462   6.934   2.801 -0.3592  0.6995  0.0380
  774MOL0     C 4414   5.388   6.880   2.909  0.5323  0.3296  1.4535
  774MOL0     C 4415   5.241   6.858   2.865 -1.1418 -0.3747 -0.7494
  774MOL0     C 4416   5.170   6.780   2.964  0.0257  0.2184  0.3421
  774MOL0     C 4417   5.018   6.788   2.947  0.5051  0.3128 -0.1439
  774MOL0     C 4418   4.956   6.735   3.075 -0.8417  0.3256  0.6145
  774MOL0     C 4419   4.914   6.684   3.178 -0.2330  0.4739 -0.5965
  774MOL0     C 4420   5.660   7.006   2.700  0.0079  0.9241  0.0721
  774MOL0     C 4421   5.801   7.033   2.711  0.5935  0.4009 -0.5523
  774MOL0     C 4422   5.864   7.093   2.592 -0.1662  0.2524  0.1835
  774MOL0     H 4423   6.296   6.946   2.965 -0.1137  1.2775  0.2034
  774MOL0     H 4424   6.532   7.018   2.940 -2.4624 -1.7908  1.3991
  774MOL0     H 4425   6.664   7.228   2.785 -0.3585 -0.6562  2.4967
  774MOL0     H 4426   6.751   7.115   2.883  2.5443  1.4863 -0.1518
  774MOL0     H 4427   6.891   7.298   2.750  1.3707 -0.3691  1.9395
  774MOL0     H 4428   6.844   7.198   2.614 -5.0396 -0.8354  1.1554
  774MOL0     H 4429   6.990   7.009   2.725 -1.7124  0.7944 -1.6087
  774MOL0     H 4430   6.997   7.118   2.869 -2.4693  0.1717  0.0159
  774MOL0     H 4431   7.115   7.192   2.592 -0.7424 -2.7328 -0.9515
  774MOL0     H 4432   7.149   7.257   2.757  0.8981 -0.2857 -1.3112
  774MOL0     H 4433   7.216   6.967   2.685  0.4009  0.0082  1.5667
  774MOL0     H 4434   7.315   7.096   2.618 -0.6029 -1.6428 -1.3873
  774MOL0     H 4435   7.376   7.169   2.830  1.7924 -0.9335  1.4591
  774MOL0     H 4436   7.260   7.078   2.929  0.9731  0.2878  0.8400
  774MOL0     H 4437   7.488   6.969   2.767  1.7065  0.4003  0.7968
  774MOL0     H 4438   7.382   6.867   2.864  1.4456 -0.8227  1.4420
  774MOL0     H 4439   7.464   6.975   3.063  0.5562  0.0852  0.6912
  774MOL0     H 4440   7.611   6.938   2.972  1.7473  2.0780  2.0007
  774MOL0     H 4441   7.714   7.141   2.823  0.4495 -1.5060  0.3984
  774MOL0     H 4442   7.937   7.332   3.100  0.9569  1.0523 -0.2880
  774MOL0     H 4443   7.957   7.261   2.943 -1.0049 -1.2471 -0.0444
  774MOL0     H 4444   7.983   7.500   2.929  0.0586 -1.1941 -0.2393
  774MOL0     H 4445   7.844   7.448   2.825 -0.0366 -1.1160  0.0942
  774MOL0     H 4446   7.841   7.666   2.990  2.1332 -1.6701  1.6068
  774MOL0     H 4447   7.794   7.548   3.105 -0.3878  0.4025  1.3092
  774MOL0     H 4448   7.574   7.597   2.980  1.0926  0.2701  2.1678
  774MOL0     H 4449   7.633   7.453   2.895  2.4522 -0.4910 -0.3201
  774MOL0     H 4450   7.400   7.609   2.872 -0.6871  2.2827  1.1308
  774MOL0     H 4451   7.223   7.628   2.716  0.2331  0.1756  1.7866
  774MOL0     H 4452   7.224   7.693   2.110  0.7556  1.7042  3.4461
  774MOL0     H 4453   7.045   7.730   1.953 -0.3006  2.4283 -0.7851
  774MOL0     H 4454   6.647   7.783   2.087 -0.9783  0.1416  0.1670
  774MOL0     H 4455   6.676   7.950   2.070 -1.0348  0.1825 -1.7261
  774MOL0     H 4456   6.487   7.867   1.950 -0.8654 -0.4052 -0.2600
  774MOL0     H 4457   6.589   7.926   1.823 -3.6757  0.5381 -0.5332
  774MOL0     H 4458   6.645   7.715   1.752  0.8137 -1.1559  0.0134
  774MOL0     H 4459   6.594   7.626   1.894 -5.6189 -2.8737 -1.4176
  774MOL0     H 4460   6.410   7.794   1.703 -1.0293 -1.8012 -2.1003
  774MOL0     H 4461   6.357   7.695   1.836  2.3269 -1.2080  1.8152
  774MOL0     H 4462   6.506   7.621   1.578  1.5634 -2.1896  0.2094
  774MOL0     H 4463   6.330   7.608   1.603  1.7810  1.3461 -0.8543
  774MOL0     H 4464   6.519   7.470   1.787 -0.8455  1.3028  1.1959
  774MOL0     H 4465   6.347   7.428   1.746  0.7006 -3.5247 -1.1963
  774MOL0     H 4466   6.619   7.397   1.595  0.3775  1.4537  1.7820
  774MOL0     H 4467   6.467   7.370   1.504  0.8456  1.0979 -0.1228
  774MOL0     H 4468   6.412   7.186   1.659  0.5218 -0.5615  0.6362
  774MOL0     H 4469   6.561   7.171   1.560  0.6198 -0.6697  0.3391
  774MOL0     H 4470   6.805   7.899   2.258 -0.1533  0.4180  0.8898
  774MOL0     H 4471   6.994   7.887   2.420  0.7772 -0.4008  0.4947
  774MOL0     H 4472   7.503   7.765   2.418  0.2733 -1.0649 -0.5063
  774MOL0     H 4473   7.685   7.724   2.577  0.3403 -0.0978 -0.0490
  774MOL0     H 4474   6.498   7.010   2.510 -1.5649  0.3976 -1.7632
  774MOL0     H 4475   6.251   6.962   2.537 -0.7689 -1.2818 -0.1579
  774MOL0     H 4476   5.854   6.916   3.030  0.2186 -3.1031 -1.1672
  774MOL0     H 4477   5.632   6.881   3.017 -0.0459  0.0178  1.1536
  774MOL0     H 4478   5.404   6.947   2.994  1.5795  3.0752 -0.7490
  774MOL0     H 4479   5.430   6.785   2.946 -1.8851 -0.4418  2.3813
  774MOL0     H 4480   5.242   6.799   2.772  0.4755 -0.3502 -0.7876
  774MOL0     H 4481   5.195   6.956   2.850  2.5631  1.7695  0.3697
  774MOL0     H 4482   5.195   6.809   3.067  3.0498 -0.3712 -0.1271
  774MOL0     H 4483   5.199   6.675   2.951 -1.9814 -0.3834  0.2590
  774MOL0     H 4484   4.982   6.890   2.934 -0.1194  0.4427  2.2758
  774MOL0     H 4485   4.981   6.732   2.860 -1.2918  1.8165 -0.4024
  774MOL0     H 4486   4.874   6.643   3.269 -1.5969  1.3971 -0.7492
  774MOL0     H 4487   5.606   7.034   2.610 -3.2762  0.4513  1.7461
  774MOL0     H 4488   5.923   7.015   2.544 -1.1879  0.0917 -0.8685
  774MOL0     H 4489   5.789   7.133   2.523 -1.5802 -0.7126  1.1275
  774MOL0     H 4490   5.931   7.176   2.616  1.8143 -0.6627 -1.8036
  775MOL0     O 4491   9.523  11.235   6.522  0.3493  0.4231  0.0245
  775MOL0     C 4492   9.593  11.220   6.421  0.8504 -0.0870 -0.1705
  775MOL0     O 4493   9.562  11.134   6.321  0.0209 -0.2717  0.4761
  775MOL0     C 4494   9.457  11.041   6.327  0.4496  0.8963 -0.8734
  775MOL0     C 4495   9.393  10.982   6.446 -0.6618 -1.1290 -0.2445
  775MOL0     C 4496   9.293  10.876   6.430 -0.8697 -0.7007  0.4514
  775MOL0     C 4497   9.257  10.825   6.307 -0.2572  0.2058 -0.2615
  775MOL0     O 4498   9.158  10.729   6.294  0.4195  0.6496 -0.2607
  775MOL0     C 4499   9.074  10.735   6.182 -0.2869 -0.2580  1.0092
  775MOL0     C 4500   8.959  10.636   6.197  0.2360  0.4864 -1.1384
  775MOL0     C 4501   8.856  10.685   6.302  0.4289 -0.6567  0.0886
  775MOL0     C 4502   8.741  10.594   6.336  0.0844  0.8252  0.5883
  775MOL0     C 4503   8.636  10.626   6.230 -0.2636 -0.0428  0.5543
  775MOL0     C 4504   8.514  10.540   6.249 -0.4638 -0.2557 -0.4783
  775MOL0     C 4505   8.392  10.534   6.156 -0.7644 -1.0563 -0.2806
  775MOL0     C 4506   8.299  10.427   6.204  0.7068 -0.1674 -0.0330
  775MOL0     N 4507   8.212  10.454   6.315  0.4663 -0.1543 -0.4442
  775MOL0     C 4508   8.257  10.456   6.449  0.3397 -0.5461 -0.2595
  775MOL0     C 4509   8.149  10.480   6.527 -0.3461 -0.6282  0.7196
  775MOL0     C 4510   8.144  10.475   6.680  0.0766 -0.1849  0.6074
  775MOL0     C 4511   8.060  10.587   6.741  0.2071  0.5554  0.8002
  775MOL0     C 4512   8.115  10.726   6.709  0.1303 -0.0693  0.7052
  775MOL0     C 4513   8.251  10.761   6.771 -0.3330 -0.0958  1.0337
  775MOL0     O 4514   8.353  10.686   6.710 -0.0780 -0.6451  0.0628
  775MOL0     C 4515   8.474  10.700   6.770 -0.4915  0.9120 -0.7462
  775MOL0     C 4516   8.516  10.789   6.874 -0.0518  0.2311  0.7853
  775MOL0     C 4517   8.646  10.798   6.918  0.1581  0.0792 -0.2910
  775MOL0     C 4518   8.744  10.717   6.859 -0.3017 -0.9979 -0.0837
  775MOL0     C 4519   8.888  10.744   6.888 -0.2118  0.8236 -0.1442
  775MOL0     O 4520   8.924  10.838   6.986  0.1695  0.4310  0.0240
  775MOL0     C 4521   9.055  10.864   7.022  0.1821 -0.5041 -0.0345
  775MOL0     C 4522   9.165  10.776   7.003 -0.1222  0.4727 -0.0951
  775MOL0     C 4523   9.293  10.807   7.051  0.7984  0.3671 -0.3785
  775MOL0     C 4524   9.311  10.936   7.113  0.2087  0.4585 -0.3229
  775MOL0     O 4525   9.424  10.985   7.160  0.1873 -0.5054  0.1334
  775MOL0     C 4526   9.553  10.923   7.139 -0.0744 -0.7939 -0.1530
  775MOL0     C 4527   9.650  11.019   7.205  0.8960  0.1663  0.4673
  775MOL0     C 4528   9.791  11.009   7.157 -0.8546 -0.4729  0.4234
  775MOL0     C 4529   9.895  11.063   7.266  0.3329  0.1301  0.7583
  775MOL0     C 4530  10.039  11.043   7.211  0.0738  0.6688 -0.6518
  775MOL0     C 4531  10.129  11.128   7.298  0.2418 -0.1561 -0.5527
  775MOL0     C 4532  10.267  11.137   7.232  0.2567  0.0161  0.2324
  775MOL0     C 4533  10.377  11.187   7.325  0.3941  0.6636  0.3209
  775MOL0    Cl 4534  10.506  11.285   7.252 -0.5872 -0.1401  0.4132
  775MOL0     C 4535   9.201  11.024   7.139 -0.1662 -0.5702 -0.0884
  775MOL0     C 4536   9.077  10.976   7.094  1.0100 -0.2777 -0.0909
  775MOL0     O 4537   8.968  10.693   6.809 -0.4686  0.2409 -0.3252
  775MOL0     C 4538   8.708  10.635   6.750 -0.1657 -0.4867  0.3324
  775MOL0     C 4539   8.570  10.620   6.707  1.1251 -0.5476  0.4952
  775MOL0     N 4540   8.037  10.484   6.441 -0.4562 -0.0188 -0.0776
  775MOL0     N 4541   8.077  10.476   6.314 -0.7335  0.5067 -0.3869
  775MOL0     C 4542   9.318  10.888   6.192  0.2831 -0.2444 -0.4198
  775MOL0     C 4543   9.412  10.991   6.204 -0.7422 -0.1139 -0.8221
  775MOL0     C 4544   9.722  11.294   6.406 -0.0929  1.3804  0.0775
  775MOL0     C 4545   9.774  11.293   6.281  0.0345  0.2731  0.2846
  775MOL0     C 4546   9.879  11.381   6.248 -0.2510 -0.4153 -0.1900
  775MOL0     C 4547   9.943  11.456   6.348  0.4238  0.5090 -0.5286
  775MOL0     O 4548  10.043  11.537   6.303  0.1122  0.6380 -0.2284
  775MOL0     C 4549  10.006  11.628   6.207 -0.8532 -0.3524  1.5927
  775MOL0     C 4550   9.972  11.764   6.270 -0.2983  0.1310  0.0024
  775MOL0     C 4551   9.940  11.876   6.182  0.2557 -0.6530  0.4058
  775MOL0     C 4552   9.944  12.018   6.257  0.5463  0.2930 -0.2969
  775MOL0     C 4553  10.082  12.056   6.261  0.2382 -0.0674  0.1750
  775MOL0     C 4554  10.202  12.083   6.256  0.3185 -0.7054 -0.3487
  775MOL0     C 4555   9.909  11.439   6.482 -0.1473 -0.3327 -0.4784
  775MOL0     C 4556   9.791  11.361   6.514 -0.0689  0.0962 -0.3363
  775MOL0     C 4557   9.729  11.395   6.648 -0.1083 -0.3434 -0.0819
  775MOL0     H 4558   9.421  11.018   6.545 -0.4788 -2.7776  0.3512
  775MOL0     H 4559   9.247  10.836   6.519 -0.4759  0.3490  1.1408
  775MOL0     H 4560   9.032  10.834   6.165 -0.2467 -0.4752 -0.5370
  775MOL0     H 4561   9.130  10.715   6.089 -2.2412  0.7999 -0.4651
  775MOL0     H 4562   8.986  10.533   6.221 -0.1540  0.6432  0.0143
  775MOL0     H 4563   8.903  10.628   6.103 -1.2643 -2.0378 -0.1361
  775MOL0     H 4564   8.816  10.777   6.259  0.2124 -1.1811 -0.8499
  775MOL0     H 4565   8.917  10.704   6.391  1.0269  0.2979 -0.5000
  775MOL0     H 4566   8.773  10.490   6.324  0.3217  1.1501 -2.1351
  775MOL0     H 4567   8.701  10.626   6.433 -1.3525  2.9527 -0.6255
  775MOL0     H 4568   8.615  10.733   6.229 -1.6100 -0.2794  0.8848
  775MOL0     H 4569   8.676  10.598   6.133 -2.8691 -2.9447  0.1586
  775MOL0     H 4570   8.555  10.442   6.274  1.7447  0.6008 -0.5369
  775MOL0     H 4571   8.481  10.584   6.344 -0.2263  0.6103 -0.7897
  775MOL0     H 4572   8.427  10.511   6.054 -0.1177  1.1322 -0.5983
  775MOL0     H 4573   8.351  10.635   6.151 -1.3365 -1.3252 -1.2646
  775MOL0     H 4574   8.245  10.383   6.120  2.3344 -1.4309 -0.4747
  775MOL0     H 4575   8.359  10.339   6.232 -0.7556 -2.1310 -2.6169
  775MOL0     H 4576   8.357  10.424   6.477  1.0219 -1.1627 -2.9958
  775MOL0     H 4577   8.092  10.382   6.709 -1.9466  1.0996  1.3515
  775MOL0     H 4578   8.246  10.471   6.717  0.6111  1.3269 -0.5914
  775MOL0     H 4579   7.957  10.577   6.706 -0.0754  3.7979  0.3920
  775MOL0     H 4580   8.057  10.570   6.849 -1.5267 -0.1662  0.6675
  775MOL0     H 4581   8.051  10.812   6.729 -1.9455 -1.3004 -0.3037
  775MOL0     H 4582   8.135  10.726   6.601  1.0635  1.3132  0.8569
  775MOL0     H 4583   8.267  10.744   6.878  0.8268  0.1797  0.9177
  775MOL0     H 4584   8.267  10.866   6.745 -0.1894 -0.6703 -1.5102
  775MOL0     H 4585   8.450  10.860   6.923 -0.4369  1.6626 -1.6496
  775MOL0     H 4586   8.678  10.872   6.990 -3.8606  1.8395 -0.0858
  775MOL0     H 4587   9.161  10.679   6.954  1.1809  1.4583 -2.3055
  775MOL0     H 4588   9.377  10.739   7.035 -0.3655 -0.6600 -2.6724
  775MOL0     H 4589   9.548  10.826   7.190  0.4737 -2.6208 -3.3127
  775MOL0     H 4590   9.583  10.922   7.034  1.2698  1.7563  0.1429
  775MOL0     H 4591   9.621  11.123   7.184  0.3560 -0.4080 -1.8568
  775MOL0     H 4592   9.646  10.999   7.313  1.9732 -3.2758 -0.0081
  775MOL0     H 4593   9.813  10.904   7.138 -0.2853 -0.0755 -1.3400
  775MOL0     H 4594   9.799  11.060   7.060  0.2961 -2.3950 -0.5602
  775MOL0     H 4595   9.887  11.008   7.360 -0.6472 -1.1479 -0.0312
  775MOL0     H 4596   9.867  11.169   7.275 -2.9658 -0.4427 -1.0420
  775MOL0     H 4597  10.036  11.084   7.109 -0.7202 -2.3680 -1.9833
  775MOL0     H 4598  10.064  10.936   7.206  1.6054  1.0303 -1.0257
  775MOL0     H 4599  10.093  11.231   7.309  3.8133  1.1565  0.1534
  775MOL0     H 4600  10.139  11.079   7.395  0.9947  0.2428 -0.4224
  775MOL0     H 4601  10.255  11.198   7.142 -1.0324  2.9554  2.1927
  775MOL0     H 4602  10.296  11.036   7.205 -1.3564 -0.8263  1.4917
  775MOL0     H 4603  10.338  11.235   7.416 -3.1090 -0.3782 -0.4557
  775MOL0     H 4604  10.419  11.094   7.365 -1.7144 -0.6084 -0.2628
  775MOL0     H 4605   9.209  11.120   7.189 -2.1677 -0.8030  0.7603
  775MOL0     H 4606   8.985  11.025   7.123  2.5843  2.5379  0.5448
  775MOL0     H 4607   8.780  10.582   6.688  2.1596  2.4977  0.2878
  775MOL0     H 4608   8.538  10.557   6.624 -1.8469 -0.8664  1.7774
  775MOL0     H 4609   9.304  10.863   6.087  4.3675 -0.4931 -1.0848
  775MOL0     H 4610   9.457  11.032   6.113  3.0202 -1.4951  0.2183
  775MOL0     H 4611   9.733  11.242   6.194  0.5235 -1.6150  1.0938
  775MOL0     H 4612   9.903  11.378   6.142 -1.7420 -0.0399 -0.5658
  775MOL0     H 4613   9.915  11.599   6.154  0.3471 -1.7878  0.2434
  775MOL0     H 4614  10.082  11.645   6.130 -1.7564 -2.8912  0.0170
  775MOL0     H 4615  10.062  11.798   6.323 -1.8992  2.1809  1.6141
  775MOL0     H 4616   9.888  11.755   6.341 -1.4688  2.3959 -0.9951
  775MOL0     H 4617   9.834  11.874   6.154  0.4914  1.5909 -0.9145
  775MOL0     H 4618   9.999  11.876   6.090 -0.4989  0.7158 -0.1145
  775MOL0     H 4619   9.868  12.090   6.225 -0.8778 -0.5133  1.1154
  775MOL0     H 4620   9.910  12.007   6.361  0.7348  0.2276 -0.2411
  775MOL0     H 4621  10.306  12.102   6.240  0.0669  0.2147 -0.9625
  775MOL0     H 4622   9.967  11.503   6.548 -1.6100 -1.1295  1.7295
  775MOL0     H 4623   9.814  11.430   6.707  2.1303 -1.2475 -2.5417
  775MOL0     H 4624   9.661  11.481   6.648 -0.2431 -0.4276  1.2698
  775MOL0     H 4625   9.673  11.313   6.693  0.0666 -0.3685  0.0918
  776MOL0     O 4626   5.545   7.788   9.935 -0.3993  0.2237 -0.3289
  776MOL0     C 4627   5.507   7.781   9.817 -0.3900 -0.0334 -0.8741
  776MOL0     O 4628   5.582   7.792   9.702  0.5335  0.0657  0.1573
  776MOL0     C 4629   5.718   7.791   9.706 -1.1286 -0.3139 -0.2732
  776MOL0     C 4630   5.802   7.715   9.788  0.0526  0.0820 -0.3165
  776MOL0     C 4631   5.945   7.734   9.786  0.5392 -0.6481  0.2712
  776MOL0     C 4632   6.005   7.832   9.700 -0.3314 -0.0569 -0.1251
  776MOL0     O 4633   6.142   7.866   9.694  0.2624  0.2860 -0.2867
  776MOL0     C 4634   6.241   7.793   9.782  0.0926 -0.2752 -0.4528
  776MOL0     C 4635   6.385   7.848   9.753  0.0136 -0.0584 -0.3654
  776MOL0     C 4636   6.423   7.968   9.840 -1.1973  0.7774 -1.2840
  776MOL0     C 4637   6.342   8.094   9.818  0.2352  0.0629  0.2824
  776MOL0     C 4638   6.361   8.197   9.929 -0.3313 -0.7408 -1.1515
  776MOL0     C 4639   6.486   8.288   9.891 -0.1707 -0.0701 -0.9179
  776MOL0     C 4640   6.522   8.395  10.000 -0.4597 -0.6278 -0.0409
  776MOL0     C 4641   6.405   8.487  10.047 -0.1503  0.2430  0.4071
  776MOL0     N 4642   6.460   8.601  10.123 -0.5628 -0.5425 -0.3563
  776MOL0     C 4643   6.529   8.596  10.242  0.7305  0.8225 -0.6013
  776MOL0     C 4644   6.584   8.719  10.265  0.5279 -0.6969 -0.0784
  776MOL0     C 4645   6.658   8.768  10.386 -1.1509  0.0159 -0.1923
  776MOL0     C 4646   6.805   8.783  10.356  0.2061  0.5225  0.6075
  776MOL0     C 4647   6.894   8.833  10.476  0.1990 -0.6138  0.2820
  776MOL0     C 4648   6.913   8.721  10.582  0.2080 -0.1242 -0.2524
  776MOL0     O 4649   6.979   8.616  10.519  0.1180  1.1407  0.2896
  776MOL0     C 4650   7.119   8.610  10.515 -0.6868  0.7603 -0.2544
  776MOL0     C 4651   7.204   8.695  10.584  0.1221 -0.0618 -0.7091
  776MOL0     C 4652   7.341   8.674  10.597  0.3366  0.2879 -0.4220
  776MOL0     C 4653   7.407   8.567  10.542  0.1293  0.3171 -0.2117
  776MOL0     C 4654   7.548   8.560  10.555 -0.4769  0.2901 -0.7944
  776MOL0     O 4655   7.613   8.655  10.628 -0.2835  0.0250 -0.1125
  776MOL0     C 4656   7.743   8.675  10.626  0.2750  0.5835  0.2839
  776MOL0     C 4657   7.844   8.571  10.615 -0.1597 -0.0620  0.0378
  776MOL0     C 4658   7.980   8.607  10.633  1.3200 -0.4074 -0.4832
  776MOL0     C 4659   8.019   8.738  10.642 -0.3077 -0.1933  0.6561
  776MOL0     O 4660   8.144   8.787  10.637 -0.1718  0.1269  0.0056
  776MOL0     C 4661   8.182   8.777  10.778 -0.7077 -0.7482  0.0023
  776MOL0     C 4662   8.321   8.843  10.797 -0.1565  0.6773 -0.1163
  776MOL0     C 4663   8.404   8.789  10.914  0.5636 -0.0367  1.0223
  776MOL0     C 4664   8.511   8.898  10.955  0.7300  0.3115 -0.1925
  776MOL0     C 4665   8.590   8.846  11.075  0.1372 -0.5394 -0.3703
  776MOL0     C 4666   8.676   8.957  11.134 -0.1177 -0.0559  0.2969
  776MOL0     C 4667   8.798   8.985  11.048 -0.3793  0.2275  0.6686
  776MOL0     C 4668   8.844   9.131  11.075 -0.1199  0.2896 -0.0818
  776MOL0    Cl 4669   8.994   9.135  10.979  0.0929  0.2677  0.1809
  776MOL0     C 4670   7.921   8.837  10.647  0.3857  0.2462  0.3048
  776MOL0     C 4671   7.788   8.807  10.636  0.1349 -0.9943  0.3939
  776MOL0     O 4672   7.598   8.460  10.505  0.0690 -0.2358 -0.4970
  776MOL0     C 4673   7.335   8.484  10.454  0.9680 -0.0926  0.4651
  776MOL0     C 4674   7.183   8.505  10.451 -0.7169  0.8964 -0.0211
  776MOL0     N 4675   6.541   8.796  10.157  0.2756  0.0077 -0.9012
  776MOL0     N 4676   6.476   8.730  10.072  0.1131 -0.2782 -0.0559
  776MOL0     C 4677   5.914   7.902   9.620  0.2721 -0.2786 -0.1623
  776MOL0     C 4678   5.777   7.887   9.616  0.3011 -0.3682  0.2177
  776MOL0     C 4679   5.363   7.790   9.793 -0.0453 -0.0375 -0.1323
  776MOL0     C 4680   5.309   7.744   9.669 -0.4719  0.8330 -0.2435
  776MOL0     C 4681   5.161   7.754   9.642  0.2624 -0.1119  0.1516
  776MOL0     C 4682   5.074   7.811   9.737 -0.1824 -0.0390 -0.5577
  776MOL0     O 4683   4.937   7.826   9.743 -0.0518  0.1047 -0.3176
  776MOL0     C 4684   4.860   7.758   9.647 -0.5773 -0.3170  0.3024
  776MOL0     C 4685   4.846   7.618   9.704  0.5798  0.3643 -0.1287
  776MOL0     C 4686   4.755   7.531   9.607 -0.3478  0.5269 -0.2042
  776MOL0     C 4687   4.619   7.587   9.585  0.1506  0.9172 -0.1037
  776MOL0     C 4688   4.519   7.503   9.509 -0.2819 -0.5631 -0.6014
  776MOL0     C 4689   4.436   7.431   9.478 -0.1830  0.2456 -0.3252
  776MOL0     C 4690   5.137   7.855   9.851 -0.8082 -0.5828  0.4074
  776MOL0     C 4691   5.273   7.849   9.879  0.5245 -0.7758  0.3633
  776MOL0     C 4692   5.304   7.919  10.011 -1.4318  0.7673  0.0834
  776MOL0     H 4693   5.756   7.646   9.858 -1.5614  0.7482 -0.6936
  776MOL0     H 4694   6.001   7.685   9.866  1.0435  1.2229  1.1327
  776MOL0     H 4695   6.213   7.805   9.887  4.5575  0.7726  0.8476
  776MOL0     H 4696   6.234   7.685   9.766 -0.7987 -0.4375  0.8954
  776MOL0     H 4697   6.397   7.876   9.648 -1.2235 -1.2154 -0.8558
  776MOL0     H 4698   6.461   7.774   9.777  3.6787  3.8085  1.1868
  776MOL0     H 4699   6.528   7.986   9.814 -0.6784 -1.0249 -0.6031
  776MOL0     H 4700   6.435   7.940   9.945  1.4095 -1.4552 -2.0704
  776MOL0     H 4701   6.364   8.130   9.718 -1.8137  0.1975 -0.1602
  776MOL0     H 4702   6.236   8.069   9.809  0.8632 -1.9113 -4.4783
  776MOL0     H 4703   6.273   8.262   9.925 -0.4962 -0.9167 -0.5486
  776MOL0     H 4704   6.382   8.146  10.024  0.7554  0.7064 -0.5764
  776MOL0     H 4705   6.575   8.225   9.878 -2.5655 -3.7056 -1.0332
  776MOL0     H 4706   6.459   8.346   9.803 -1.3607  1.0431  0.1302
  776MOL0     H 4707   6.601   8.461   9.963 -0.1399 -2.2929 -2.5646
  776MOL0     H 4708   6.562   8.345  10.089 -0.7835 -0.7823  0.0184
  776MOL0     H 4709   6.351   8.524   9.959 -0.6215 -0.2567  0.4851
  776MOL0     H 4710   6.341   8.423  10.108  1.5740 -1.4038  0.5887
  776MOL0     H 4711   6.552   8.512  10.307 -0.1286 -0.5415 -2.0168
  776MOL0     H 4712   6.623   8.868  10.413  3.0292  1.5231  0.3725
  776MOL0     H 4713   6.645   8.696  10.468  2.3815 -1.2491 -0.5885
  776MOL0     H 4714   6.845   8.684  10.335  1.7544  1.1134  0.6223
  776MOL0     H 4715   6.832   8.842  10.267  1.6728 -1.1350 -0.0954
  776MOL0     H 4716   6.829   8.914  10.510  0.6431  0.9214 -2.2989
  776MOL0     H 4717   6.990   8.876  10.446 -0.2650  0.9350  0.9280
  776MOL0     H 4718   6.814   8.687  10.613  0.1420 -0.4489 -0.8049
  776MOL0     H 4719   6.952   8.767  10.673 -1.3772  2.7858 -0.9237
  776MOL0     H 4720   7.159   8.775  10.642 -1.7464 -1.4726 -0.1164
  776MOL0     H 4721   7.392   8.755  10.649  1.4795 -1.4038  1.1837
  776MOL0     H 4722   7.823   8.466  10.598  1.2658  0.0012 -2.7703
  776MOL0     H 4723   8.057   8.531  10.620 -0.9826 -2.9335 -0.2973
  776MOL0     H 4724   8.116   8.838  10.840  0.2209  0.0952  0.1817
  776MOL0     H 4725   8.173   8.679  10.825 -3.2038  0.0843  1.4291
  776MOL0     H 4726   8.381   8.842  10.706 -2.7719  0.6346 -1.9470
  776MOL0     H 4727   8.305   8.951  10.807  1.4776  0.9721 -0.3631
  776MOL0     H 4728   8.341   8.765  11.000 -2.5215 -0.8217 -1.2651
  776MOL0     H 4729   8.445   8.693  10.881  0.0458  0.7979 -2.4606
  776MOL0     H 4730   8.473   8.994  10.989 -0.0229 -0.3173  0.7810
  776MOL0     H 4731   8.583   8.923  10.876  2.7803  1.2125  1.8319
  776MOL0     H 4732   8.643   8.756  11.044 -1.4550 -0.2970 -4.3031
  776MOL0     H 4733   8.515   8.813  11.148  0.6545  0.5199  0.6802
  776MOL0     H 4734   8.612   9.044  11.151  1.3222  1.2965 -0.8842
  776MOL0     H 4735   8.721   8.932  11.231 -0.6802  1.6201  1.0331
  776MOL0     H 4736   8.788   8.962  10.942  0.0261 -1.4381  0.9591
  776MOL0     H 4737   8.874   8.916  11.085  0.9341  1.0350 -0.4476
  776MOL0     H 4738   8.767   9.202  11.045 -0.7065 -0.4487 -0.3522
  776MOL0     H 4739   8.858   9.126  11.183  1.6966  0.3730 -0.2833
  776MOL0     H 4740   7.957   8.939  10.635 -0.0224  0.5093  1.3062
  776MOL0     H 4741   7.717   8.889  10.636 -1.6513 -2.4794  0.5786
  776MOL0     H 4742   7.382   8.413  10.387 -2.6400  0.0636 -2.6104
  776MOL0     H 4743   7.126   8.450  10.376  0.3946 -3.0579  1.7725
  776MOL0     H 4744   5.955   7.976   9.553  0.2579  2.1875  2.3887
  776MOL0     H 4745   5.709   7.937   9.548  0.3337  0.0967  0.5152
  776MOL0     H 4746   5.388   7.718   9.598 -0.0797 -0.1727  0.5237
  776MOL0     H 4747   5.136   7.716   9.544 -1.4795 -4.2624  1.9621
  776MOL0     H 4748   4.903   7.757   9.546  0.8102 -0.0587  0.8693
  776MOL0     H 4749   4.771   7.819   9.629  1.1142  1.2981 -4.2615
  776MOL0     H 4750   4.808   7.622   9.806 -0.9754  2.4556 -0.7081
  776MOL0     H 4751   4.940   7.565   9.720  1.0912  1.5233  0.8721
  776MOL0     H 4752   4.760   7.436   9.662  0.3736  1.0483  0.6569
  776MOL0     H 4753   4.798   7.528   9.507 -1.9048  2.4795 -1.0060
  776MOL0     H 4754   4.586   7.619   9.684 -0.0580  1.1545 -0.2482
  776MOL0     H 4755   4.627   7.676   9.522 -1.5924  2.2083  1.4139
  776MOL0     H 4756   4.360   7.359   9.454  1.6021 -1.2309 -1.8740
  776MOL0     H 4757   5.080   7.909   9.926  1.1071  1.1625  0.7103
  776MOL0     H 4758   5.321   7.842  10.088 -0.4291  0.7977 -0.0954
  776MOL0     H 4759   5.397   7.977  10.015 -0.3017 -0.8788 -0.8503
  776MOL0     H 4760   5.227   7.987  10.047 -0.8038  1.9364 -0.7372
  777MOL0     O 4761   2.666   3.896   0.925 -0.0335 -0.0818  0.1038
  777MOL0     C 4762   2.577   3.965   0.867  0.6936 -0.0461 -0.4468
  777MOL0     O 4763   2.591   4.101   0.837 -0.5777  0.9066 -0.0577
  777MOL0     C 4764   2.690   4.172   0.896  0.4673 -0.0720 -0.2468
  777MOL0     C 4765   2.774   4.237   0.812  0.1956 -0.6288 -0.0974
  777MOL0     C 4766   2.874   4.310   0.859 -0.4968 -0.6915  0.1830
  777MOL0     C 4767   2.900   4.310   0.998 -0.4565 -0.3750 -0.7798
  777MOL0     O 4768   3.009   4.372   1.058  0.2559 -0.1886 -0.3944
  777MOL0     C 4769   3.011   4.514   1.030 -0.4983 -0.2541 -0.0930
  777MOL0     C 4770   3.147   4.565   1.081 -0.1049 -0.6235  0.8276
  777MOL0     C 4771   3.143   4.719   1.099  0.4419 -0.3198  1.4495
  777MOL0     C 4772   3.285   4.770   1.108  0.2059  0.1049 -0.4863
  777MOL0     C 4773   3.296   4.926   1.099 -0.7212  0.1426 -0.7991
  777MOL0     C 4774   3.434   4.978   1.167 -0.0947 -0.3139  0.1378
  777MOL0     C 4775   3.440   5.131   1.169  0.2812 -0.0810 -0.6023
  777MOL0     C 4776   3.556   5.194   1.092  0.1249 -0.2112 -0.2929
  777MOL0     N 4777   3.681   5.162   1.156  0.3826 -0.2075 -0.4045
  777MOL0     C 4778   3.788   5.091   1.104 -0.1124  0.2623  0.5350
  777MOL0     C 4779   3.888   5.091   1.190  0.6665 -0.2578 -0.9978
  777MOL0     C 4780   4.015   5.026   1.180  0.6081 -1.0345  0.3517
  777MOL0     C 4781   4.141   5.086   1.240  0.3939  0.3106  0.5374
  777MOL0     C 4782   4.276   5.034   1.182  0.3654 -0.3523  0.7479
  777MOL0     C 4783   4.396   5.094   1.267  0.6972  0.2621 -1.0112
  777MOL0     O 4784   4.403   5.231   1.287 -0.3279 -1.0561 -0.4233
  777MOL0     C 4785   4.505   5.294   1.362  0.5271  0.0035 -0.1468
  777MOL0     C 4786   4.628   5.226   1.372 -0.1574 -0.0847 -0.6683
  777MOL0     C 4787   4.726   5.272   1.458  0.1785 -0.2979 -0.4020
  777MOL0     C 4788   4.709   5.401   1.517 -0.1595 -0.3109 -0.4256
  777MOL0     C 4789   4.819   5.455   1.594 -0.4059 -0.6839  1.0408
  777MOL0     O 4790   4.925   5.381   1.602  0.4165 -0.1888  0.1842
  777MOL0     C 4791   5.051   5.435   1.597  0.3860 -0.0961  0.2966
  777MOL0     C 4792   5.086   5.539   1.518  1.0686 -1.0379  0.3044
  777MOL0     C 4793   5.226   5.569   1.495 -0.4008  0.0230 -0.3150
  777MOL0     C 4794   5.322   5.505   1.561  0.4690  0.2034 -0.6917
  777MOL0     O 4795   5.458   5.539   1.561  0.4775  0.5249  0.1535
  777MOL0     C 4796   5.519   5.603   1.456  0.1250  0.3843  0.4667
  777MOL0     C 4797   5.633   5.677   1.521 -0.0561  0.9870 -1.0720
  777MOL0     C 4798   5.739   5.595   1.600  0.1413 -0.3106  0.8180
  777MOL0     C 4799   5.854   5.559   1.505 -0.4633  0.2968 -0.0384
  777MOL0     C 4800   5.982   5.540   1.594 -1.1923 -0.1767 -0.6246
  777MOL0     C 4801   5.975   5.433   1.703 -0.0242 -0.4741 -0.2925
  777MOL0     C 4802   5.925   5.297   1.650 -0.6994 -0.5840  0.8042
  777MOL0     C 4803   5.879   5.216   1.770 -0.0268  0.0399  0.5286
  777MOL0    Cl 4804   5.775   5.080   1.702 -0.3651 -0.3317  0.3066
  777MOL0     C 4805   5.281   5.400   1.649 -0.1318  0.2672  0.1360
  777MOL0     C 4806   5.152   5.368   1.668 -0.7360 -0.8178 -0.4896
  777MOL0     O 4807   4.810   5.567   1.648 -0.1779  0.2747  0.3620
  777MOL0     C 4808   4.588   5.470   1.493  0.0642 -0.2564  0.2323
  777MOL0     C 4809   4.481   5.413   1.425  0.1732  0.1394  0.4471
  777MOL0     N 4810   3.849   5.166   1.300  0.1875 -0.0238  0.2654
  777MOL0     N 4811   3.724   5.204   1.281  0.3280 -0.2773  0.6870
  777MOL0     C 4812   2.822   4.244   1.088  0.0040 -0.3603 -0.0973
  777MOL0     C 4813   2.711   4.176   1.035  0.9278 -0.3602 -0.3287
  777MOL0     C 4814   2.454   3.898   0.822  0.5981 -0.4757  0.1001
  777MOL0     C 4815   2.430   3.886   0.683 -0.8260 -0.1900 -0.3730
  777MOL0     C 4816   2.321   3.825   0.632 -0.5279  0.1467 -0.4264
  777MOL0     C 4817   2.233   3.756   0.724  0.1640 -0.0738  0.3100
  777MOL0     O 4818   2.132   3.671   0.689  0.1410 -0.0722  0.0552
  777MOL0     C 4819   2.143   3.638   0.547 -0.1811  1.0440 -0.1085
  777MOL0     C 4820   2.045   3.528   0.517 -1.0982 -0.3501  0.2180
  777MOL0     C 4821   1.899   3.551   0.559  0.4368 -0.6187 -0.0619
  777MOL0     C 4822   1.808   3.462   0.477  1.4309  0.7982  0.2900
  777MOL0     C 4823   1.668   3.454   0.535  0.2241  0.2098 -0.0996
  777MOL0     C 4824   1.560   3.441   0.585 -0.0847  0.2176  0.7159
  777MOL0     C 4825   2.252   3.770   0.862  0.8141 -0.1235  0.6211
  777MOL0     C 4826   2.371   3.828   0.910  0.0021  0.6085  0.2629
  777MOL0     C 4827   2.395   3.831   1.059 -0.0572  0.6210 -0.6458
  777MOL0     H 4828   2.761   4.222   0.705 -0.3859  1.6344 -0.3971
  777MOL0     H 4829   2.938   4.367   0.792 -1.7448  1.7295  0.9333
  777MOL0     H 4830   3.015   4.529   0.921  0.9257 -2.1105 -0.3390
  777MOL0     H 4831   2.918   4.551   1.075  0.1419  2.0338 -0.4879
  777MOL0     H 4832   3.226   4.549   1.007 -2.7173 -1.6810 -1.9469
  777MOL0     H 4833   3.174   4.520   1.176  0.5900  0.0513  0.9610
  777MOL0     H 4834   3.077   4.741   1.183 -1.7616  1.6691 -0.6433
  777MOL0     H 4835   3.102   4.762   1.007 -0.4853 -5.6969 -1.0694
  777MOL0     H 4836   3.342   4.727   1.191 -0.3010 -0.1868 -0.2874
  777MOL0     H 4837   3.336   4.729   1.020  0.0460 -1.7213  0.2179
  777MOL0     H 4838   3.282   4.958   0.995 -2.4791  1.3152 -0.2494
  777MOL0     H 4839   3.211   4.973   1.149  0.3670  1.6398 -0.2906
  777MOL0     H 4840   3.447   4.934   1.266 -1.5193 -2.7054 -0.6587
  777MOL0     H 4841   3.515   4.938   1.105 -2.4336 -1.6802 -2.2684
  777MOL0     H 4842   3.439   5.164   1.273 -1.6538  1.4352 -1.0366
  777MOL0     H 4843   3.347   5.178   1.137  0.0344  0.0321  0.2703
  777MOL0     H 4844   3.554   5.166   0.986 -1.6960 -0.6388 -0.1833
  777MOL0     H 4845   3.551   5.303   1.084  0.9151 -0.1935 -0.6136
  777MOL0     H 4846   3.797   5.029   1.015  1.5405 -0.3454  1.0722
  777MOL0     H 4847   3.994   4.926   1.219 -0.1951 -1.2700 -0.6363
  777MOL0     H 4848   4.031   5.016   1.072 -1.2680 -0.3134 -0.0267
  777MOL0     H 4849   4.135   5.195   1.236  0.7867  0.3141 -0.1327
  777MOL0     H 4850   4.149   5.049   1.343  1.6352 -0.7552  0.0930
  777MOL0     H 4851   4.290   5.068   1.079  1.2142  2.5482  1.7177
  777MOL0     H 4852   4.273   4.925   1.187  2.8166 -0.3980  2.3614
  777MOL0     H 4853   4.483   5.085   1.201  0.0550  0.7919 -1.9692
  777MOL0     H 4854   4.407   5.053   1.367  1.5458  0.2411 -1.1051
  777MOL0     H 4855   4.641   5.129   1.326 -4.0953 -1.3327  0.4376
  777MOL0     H 4856   4.820   5.220   1.472  0.7815  0.9848  0.5772
  777MOL0     H 4857   5.021   5.605   1.463 -1.0770 -2.3299  1.1578
  777MOL0     H 4858   5.264   5.653   1.437  1.4766  0.4139  1.3648
  777MOL0     H 4859   5.544   5.523   1.386  1.7510 -0.5618  2.0584
  777MOL0     H 4860   5.457   5.676   1.403 -1.6914 -2.2729 -1.2975
  777MOL0     H 4861   5.674   5.739   1.441  1.4144 -0.3621 -1.4163
  777MOL0     H 4862   5.579   5.748   1.585 -2.2726 -1.9054  0.5273
  777MOL0     H 4863   5.774   5.658   1.682  0.2304  2.1064 -0.9572
  777MOL0     H 4864   5.683   5.513   1.646 -1.9393  0.4091 -0.3003
  777MOL0     H 4865   5.877   5.634   1.429  1.5106 -0.3216 -0.1052
  777MOL0     H 4866   5.829   5.464   1.457 -0.5055 -1.1054  2.5779
  777MOL0     H 4867   6.019   5.634   1.636 -2.8137 -0.0660  0.6276
  777MOL0     H 4868   6.064   5.513   1.527 -0.3698 -0.9204  0.6311
  777MOL0     H 4869   6.065   5.433   1.765 -0.4502 -1.4432  0.3560
  777MOL0     H 4870   5.902   5.480   1.770  0.5426  1.1438 -0.7513
  777MOL0     H 4871   6.006   5.250   1.593 -0.9174 -1.4484  1.1982
  777MOL0     H 4872   5.835   5.314   1.590 -0.3001 -1.2219 -0.0004
  777MOL0     H 4873   5.968   5.175   1.819 -0.3224  0.1988  1.2121
  777MOL0     H 4874   5.819   5.277   1.839 -0.2949 -1.3000  1.5255
  777MOL0     H 4875   5.374   5.361   1.690  0.1196  0.4392 -0.2626
  777MOL0     H 4876   5.122   5.290   1.738 -1.9219  1.1277  1.2780
  777MOL0     H 4877   4.580   5.573   1.525 -1.2260 -0.6588  1.2832
  777MOL0     H 4878   4.382   5.454   1.410  0.2605 -0.4070 -2.1628
  777MOL0     H 4879   2.844   4.239   1.194 -3.0299 -0.9199  0.6000
  777MOL0     H 4880   2.647   4.124   1.105  2.1115  0.8476  1.7674
  777MOL0     H 4881   2.495   3.923   0.604  0.8411 -2.2814 -0.0718
  777MOL0     H 4882   2.316   3.828   0.524  1.5170  1.8364 -0.5316
  777MOL0     H 4883   2.241   3.595   0.526 -1.0897 -0.8724 -0.6497
  777MOL0     H 4884   2.125   3.732   0.493  0.6450  2.4858  2.0273
  777MOL0     H 4885   2.078   3.434   0.562  3.1940  1.0942  0.5702
  777MOL0     H 4886   2.046   3.522   0.408  2.5064  0.1268  0.1211
  777MOL0     H 4887   1.874   3.655   0.537  0.2248 -0.7301 -0.3428
  777MOL0     H 4888   1.888   3.530   0.666 -0.5275 -0.4009 -0.1102
  777MOL0     H 4889   1.791   3.498   0.375 -0.3311 -2.7886 -0.8198
  777MOL0     H 4890   1.845   3.360   0.475 -0.0465  0.2333 -0.0338
  777MOL0     H 4891   1.462   3.438   0.629  0.1281 -0.7649  1.1433
  777MOL0     H 4892   2.180   3.722   0.928 -2.5992  4.4192  0.6729
  777MOL0     H 4893   2.337   3.755   1.112  1.5654 -0.3445 -0.2021
  777MOL0     H 4894   2.497   3.818   1.096 -0.2780  1.8852  0.4978
  777MOL0     H 4895   2.364   3.929   1.096 -2.6045  0.5743 -2.3670
  778MOL0     O 4896   7.968   4.638   4.642  0.5795 -0.1953  0.0298
  778MOL0     C 4897   7.934   4.536   4.580 -1.3735  0.4563  0.3537
  778MOL0     O 4898   7.823   4.466   4.599  0.5695 -0.0252 -0.2463
  778MOL0     C 4899   7.744   4.496   4.704 -0.5546  0.6436 -0.3229
  778MOL0     C 4900   7.769   4.463   4.845 -0.2531  0.4278  1.0791
  778MOL0     C 4901   7.676   4.504   4.946 -0.3960  0.5936 -0.1587
  778MOL0     C 4902   7.549   4.562   4.911  0.2674 -0.1706  0.1692
  778MOL0     O 4903   7.470   4.607   5.016 -0.7159  1.0230 -0.3163
  778MOL0     C 4904   7.332   4.616   4.993  0.0177  0.8168  0.6490
  778MOL0     C 4905   7.253   4.478   4.992 -0.7644 -0.3166  0.6507
  778MOL0     C 4906   7.265   4.412   5.129  0.6710 -0.0753  0.6832
  778MOL0     C 4907   7.176   4.284   5.131 -0.8845  0.1759  1.1316
  778MOL0     C 4908   7.146   4.223   5.269 -0.7389  0.0368 -0.4920
  778MOL0     C 4909   7.132   4.071   5.266 -1.3232  0.2169 -0.2162
  778MOL0     C 4910   7.256   3.994   5.227 -0.2034  0.1617  0.2280
  778MOL0     C 4911   7.224   3.843   5.224  0.1922  0.0520 -0.1365
  778MOL0     N 4912   7.347   3.757   5.199 -0.0142 -0.7407 -0.0642
  778MOL0     C 4913   7.382   3.707   5.075 -0.3448 -1.1791 -1.3981
  778MOL0     C 4914   7.507   3.655   5.096 -0.2501 -0.2617  0.7815
  778MOL0     C 4915   7.598   3.591   4.995  0.7398 -0.4999  0.4719
  778MOL0     C 4916   7.738   3.563   5.029 -0.1185  0.9974 -0.1432
  778MOL0     C 4917   7.764   3.448   5.128  0.2541 -0.1735 -1.3770
  778MOL0     C 4918   7.910   3.413   5.160 -0.3307 -0.6303  0.4853
  778MOL0     O 4919   7.972   3.526   5.227  0.1011  0.0977  0.0702
  778MOL0     C 4920   8.106   3.513   5.265 -0.0844  0.0695  0.2142
  778MOL0     C 4921   8.198   3.625   5.259 -0.1656  0.9611  1.1678
  778MOL0     C 4922   8.338   3.606   5.293 -0.1813 -0.1546  0.4580
  778MOL0     C 4923   8.392   3.476   5.325 -0.1240  0.8553 -0.4231
  778MOL0     C 4924   8.537   3.455   5.335 -0.3293  0.1132  0.8640
  778MOL0     O 4925   8.590   3.333   5.336 -0.3806  0.1096  0.6724
  778MOL0     C 4926   8.727   3.308   5.328  0.1233  1.3533  0.3572
  778MOL0     C 4927   8.768   3.178   5.356  0.3595  0.5082 -0.5090
  778MOL0     C 4928   8.902   3.135   5.356 -0.0532 -0.1655  0.4477
  778MOL0     C 4929   8.998   3.224   5.308 -0.2730 -1.0421 -0.0548
  778MOL0     O 4930   9.132   3.198   5.304 -0.5838  0.0619 -0.4734
  778MOL0     C 4931   9.194   3.095   5.382  0.0471  0.8481 -0.2876
  778MOL0     C 4932   9.344   3.106   5.401  0.3858 -0.4827  0.5172
  778MOL0     C 4933   9.397   3.234   5.461  0.6769  0.1387  0.3578
  778MOL0     C 4934   9.433   3.341   5.353  0.5420  0.5544 -0.2470
  778MOL0     C 4935   9.464   3.484   5.416  0.4741  0.9335 -0.2948
  778MOL0     C 4936   9.509   3.577   5.304 -0.0557 -0.4018  0.2087
  778MOL0     C 4937   9.581   3.695   5.363  0.1671  1.1569  0.1655
  778MOL0     C 4938   9.617   3.802   5.262 -0.7901  0.0429  0.4694
  778MOL0    Cl 4939   9.722   3.934   5.329  0.4601  0.0297 -0.3296
  778MOL0     C 4940   8.961   3.352   5.256 -0.3919 -0.1910  0.2065
  778MOL0     C 4941   8.824   3.392   5.268 -0.7762  0.1271  0.0286
  778MOL0     O 4942   8.603   3.559   5.326  0.2087 -0.0296  0.3769
  778MOL0     C 4943   8.311   3.369   5.320  0.4667  0.1892 -0.3258
  778MOL0     C 4944   8.171   3.388   5.295  0.4195  0.2016 -0.4272
  778MOL0     N 4945   7.530   3.676   5.232  0.3379 -0.9734 -0.6630
  778MOL0     N 4946   7.439   3.738   5.292  0.5497 -0.2661  0.4021
  778MOL0     C 4947   7.535   4.594   4.769  0.5925  0.1159 -0.4153
  778MOL0     C 4948   7.629   4.560   4.668  0.0856 -0.7151  0.2405
  778MOL0     C 4949   8.005   4.503   4.444  0.8015 -0.2522  0.0968
  778MOL0     C 4950   7.937   4.424   4.355  0.1243 -0.3397  0.4396
  778MOL0     C 4951   7.993   4.381   4.234  0.0729 -0.0306  0.1168
  778MOL0     C 4952   8.127   4.420   4.211  0.3032 -0.5028  1.2049
  778MOL0     O 4953   8.195   4.382   4.102  0.3332 -0.2594  0.0204
  778MOL0     C 4954   8.150   4.279   4.015  1.3533 -0.5647  0.4168
  778MOL0     C 4955   8.271   4.209   3.950  0.3735  0.0951  0.1321
  778MOL0     C 4956   8.363   4.298   3.870  0.3146  0.3927  0.2436
  778MOL0     C 4957   8.433   4.204   3.773 -0.6294  1.1263  0.1448
  778MOL0     C 4958   8.539   4.273   3.706 -0.4386  1.0103 -0.5815
  778MOL0     C 4959   8.623   4.337   3.651  0.0583  0.2544 -0.6390
  778MOL0     C 4960   8.189   4.511   4.285 -0.2406  0.0796 -0.1815
  778MOL0     C 4961   8.139   4.544   4.409  0.7492  0.2813 -0.1672
  778MOL0     C 4962   8.231   4.627   4.497 -0.4365  0.6362 -1.4627
  778MOL0     H 4963   7.859   4.410   4.877  0.0508  0.1169 -0.2205
  778MOL0     H 4964   7.699   4.484   5.050 -0.2399 -1.0157 -0.4695
  778MOL0     H 4965   7.282   4.682   5.065 -0.2772  1.0897  0.1997
  778MOL0     H 4966   7.313   4.657   4.894  4.2614  1.5184 -0.0724
  778MOL0     H 4967   7.307   4.410   4.926 -0.9257 -0.3412  0.5449
  778MOL0     H 4968   7.156   4.499   4.947  0.7528  0.5977 -2.4637
  778MOL0     H 4969   7.238   4.480   5.210  3.2459 -0.1027  1.6307
  778MOL0     H 4970   7.363   4.369   5.148 -0.2385 -2.6452 -0.0813
  778MOL0     H 4971   7.073   4.305   5.100 -0.7070  1.9359  1.6080
  778MOL0     H 4972   7.219   4.211   5.062 -2.7879  0.0073  0.0428
  778MOL0     H 4973   7.217   4.254   5.347 -1.2509  0.0538 -0.0270
  778MOL0     H 4974   7.051   4.268   5.298  0.2918  1.9973 -0.0030
  778MOL0     H 4975   7.110   4.030   5.366  1.1175 -2.5025 -0.6498
  778MOL0     H 4976   7.043   4.046   5.208 -2.0235  0.6030  0.6652
  778MOL0     H 4977   7.340   4.012   5.294 -1.0987  2.1570  0.9016
  778MOL0     H 4978   7.275   4.017   5.121  0.6956  0.1333  0.3815
  778MOL0     H 4979   7.186   3.815   5.323 -2.6903  0.4606 -1.0633
  778MOL0     H 4980   7.143   3.832   5.152  0.2031 -1.7504  0.0621
  778MOL0     H 4981   7.317   3.722   4.989 -0.7307 -1.7706 -1.2146
  778MOL0     H 4982   7.560   3.492   4.966  0.7868 -0.2122 -0.6382
  778MOL0     H 4983   7.590   3.664   4.913 -0.2741 -1.1186 -0.0056
  778MOL0     H 4984   7.797   3.533   4.941 -0.2726 -3.5129  1.0450
  778MOL0     H 4985   7.777   3.646   5.088  1.0731 -0.9917  2.0428
  778MOL0     H 4986   7.712   3.358   5.093  2.1628 -1.8854 -0.0267
  778MOL0     H 4987   7.717   3.469   5.225  2.7008  1.5193 -0.4449
  778MOL0     H 4988   7.958   3.383   5.067 -0.3472 -1.7511  0.8306
  778MOL0     H 4989   7.900   3.329   5.229 -0.2270 -0.9713  0.0849
  778MOL0     H 4990   8.171   3.722   5.219  3.3311  1.6592  0.1345
  778MOL0     H 4991   8.400   3.692   5.271  1.5162 -1.4849 -0.2301
  778MOL0     H 4992   8.699   3.108   5.402  1.1731 -0.9944 -1.5042
  778MOL0     H 4993   8.918   3.033   5.391 -1.6923 -1.3925 -2.0729
  778MOL0     H 4994   9.145   3.098   5.480  0.9550 -2.8464  0.4237
  778MOL0     H 4995   9.166   2.995   5.346 -1.3147  0.9629  0.3822
  778MOL0     H 4996   9.378   3.018   5.456  1.0797 -1.2285 -1.0489
  778MOL0     H 4997   9.396   3.106   5.305  3.4472  2.6752  1.9620
  778MOL0     H 4998   9.326   3.278   5.532  1.6049  2.8160 -0.2595
  778MOL0     H 4999   9.486   3.199   5.514  1.4073 -0.3046 -1.0963
  778MOL0     H 5000   9.349   3.329   5.284 -1.6597 -3.1704  2.6546
  778MOL0     H 5001   9.525   3.313   5.302  2.2719  0.0610  2.8516
  778MOL0     H 5002   9.543   3.474   5.490 -0.6672 -1.7260  0.7068
  778MOL0     H 5003   9.374   3.511   5.473  1.2593 -0.3055  1.6352
  778MOL0     H 5004   9.573   3.528   5.230  1.8324  0.4701  1.1923
  778MOL0     H 5005   9.419   3.613   5.254 -1.4417 -3.3589  0.3433
  778MOL0     H 5006   9.666   3.659   5.422 -2.6949 -2.3842  2.5406
  778MOL0     H 5007   9.513   3.747   5.431  0.3809 -0.1727  1.4661
  778MOL0     H 5008   9.666   3.775   5.168 -0.1823  2.7747 -0.0988
  778MOL0     H 5009   9.518   3.837   5.232 -0.8467 -1.3711 -1.1559
  778MOL0     H 5010   9.027   3.424   5.208  0.3921  0.9940  2.8657
  778MOL0     H 5011   8.800   3.487   5.220 -1.4667  0.1636  0.4453
  778MOL0     H 5012   8.348   3.273   5.354 -1.8338 -0.2765  1.0329
  778MOL0     H 5013   8.101   3.306   5.305  0.2163  0.4355  0.0825
  778MOL0     H 5014   7.441   4.641   4.744 -0.1886 -1.2151 -0.1039
  778MOL0     H 5015   7.597   4.580   4.566 -4.4459 -1.0722  1.3514
  778MOL0     H 5016   7.839   4.388   4.385 -0.0838  0.7673  1.1403
  778MOL0     H 5017   7.936   4.313   4.172  1.2964 -1.7972  0.8598
  778MOL0     H 5018   8.086   4.313   3.933  2.3668  0.0814 -0.1233
  778MOL0     H 5019   8.099   4.198   4.068 -0.8270 -1.1997 -2.3603
  778MOL0     H 5020   8.236   4.129   3.885  0.0611 -0.6368  1.1866
  778MOL0     H 5021   8.320   4.155   4.031  0.1398  0.0586  0.2488
  778MOL0     H 5022   8.437   4.335   3.941 -0.5065  2.4076  0.1163
  778MOL0     H 5023   8.321   4.386   3.820 -0.2996  0.4701  0.8847
  778MOL0     H 5024   8.482   4.129   3.836 -1.0664  1.3211  0.7280
  778MOL0     H 5025   8.353   4.157   3.715  1.6496 -3.3133  0.1716
  778MOL0     H 5026   8.698   4.402   3.610  1.0292 -0.5769 -0.2353
  778MOL0     H 5027   8.293   4.536   4.268  0.6854 -1.7542  2.2032
  778MOL0     H 5028   8.337   4.603   4.482 -0.8144 -2.2363 -0.0817
  778MOL0     H 5029   8.210   4.727   4.457 -2.0287  1.5626  1.4249
  778MOL0     H 5030   8.210   4.625   4.604  2.2255  2.8034 -0.7705
  779MOL0     O 5031   1.816   8.397   5.377 -0.3778 -0.4879 -0.4309
  779MOL0     C 5032   1.804   8.464   5.276 -0.1556  0.1282  0.2265
  779MOL0     O 5033   1.900   8.531   5.218  0.1605 -0.0530  0.2692
  779MOL0     C 5034   2.035   8.514   5.268  1.5267 -0.0011  0.6756
  779MOL0     C 5035   2.119   8.621   5.278 -0.3131 -0.4139  0.6445
  779MOL0     C 5036   2.255   8.608   5.294  1.4254  0.7124 -0.4390
  779MOL0     C 5037   2.308   8.480   5.310  0.5931  0.3187  0.2098
  779MOL0     O 5038   2.447   8.470   5.327 -0.0208  0.0738 -0.4426
  779MOL0     C 5039   2.491   8.367   5.412 -0.2291 -0.0795  0.1829
  779MOL0     C 5040   2.631   8.393   5.473  0.8698  0.0680  0.0534
  779MOL0     C 5041   2.732   8.415   5.358  0.7417 -0.3250 -0.3123
  779MOL0     C 5042   2.719   8.318   5.240 -0.6285  0.2915 -0.2373
  779MOL0     C 5043   2.853   8.320   5.158 -0.5500 -0.2289  0.0609
  779MOL0     C 5044   2.835   8.250   5.026 -1.2319 -0.9644 -0.0275
  779MOL0     C 5045   2.798   8.101   5.044 -0.2072  0.1055  0.2819
  779MOL0     C 5046   2.805   8.003   4.922  0.1180  0.3357 -0.6105
  779MOL0     N 5047   2.935   8.014   4.856 -0.4665 -0.1579  0.0163
  779MOL0     C 5048   2.954   8.051   4.728  0.4294  0.4741 -0.4477
  779MOL0     C 5049   3.081   8.012   4.705 -0.0387  0.0276  0.1806
  779MOL0     C 5050   3.163   8.056   4.581  0.6165  0.4249  0.6061
  779MOL0     C 5051   3.313   8.080   4.613 -0.3532  0.2645  0.0602
  779MOL0     C 5052   3.404   8.133   4.510  0.1707  0.4183 -0.6599
  779MOL0     C 5053   3.540   8.057   4.509 -0.0516 -0.5178  0.0322
  779MOL0     O 5054   3.644   8.133   4.443 -0.3336 -0.0646 -0.1649
  779MOL0     C 5055   3.771   8.094   4.459  0.7419 -0.6656 -0.4444
  779MOL0     C 5056   3.867   8.195   4.439 -0.0418 -0.4537  0.4423
  779MOL0     C 5057   4.002   8.165   4.465  0.2362 -0.3222  0.7195
  779MOL0     C 5058   4.041   8.031   4.500 -0.0285  0.2549  0.5652
  779MOL0     C 5059   4.188   7.992   4.524  0.5522 -0.4359  0.2304
  779MOL0     O 5060   4.274   8.095   4.493 -0.4385 -0.0621  0.2030
  779MOL0     C 5061   4.410   8.060   4.498 -0.1225 -0.3149 -0.2846
  779MOL0     C 5062   4.485   8.132   4.591 -0.3747  0.6593 -0.3172
  779MOL0     C 5063   4.622   8.098   4.610  0.1416  0.6047 -1.0699
  779MOL0     C 5064   4.673   7.990   4.528 -0.9695  0.2425  0.2827
  779MOL0     O 5065   4.805   7.942   4.534  0.2909 -0.6277 -0.7049
  779MOL0     C 5066   4.859   7.951   4.661 -0.1237  0.1161 -0.4528
  779MOL0     C 5067   4.778   7.878   4.766 -0.3974  0.2743 -1.0365
  779MOL0     C 5068   4.840   7.862   4.907  0.9433  0.3484 -0.5597
  779MOL0     C 5069   4.821   7.989   4.980 -0.4490 -0.6137  0.0417
  779MOL0     C 5070   4.863   7.988   5.130 -0.6599  0.7661  0.0375
  779MOL0     C 5071   4.780   7.898   5.221  0.4134  0.5710  0.1010
  779MOL0     C 5072   4.639   7.958   5.251 -0.3548  0.3830 -0.7879
  779MOL0     C 5073   4.559   7.891   5.362  0.5967 -0.2560  0.4333
  779MOL0    Cl 5074   4.532   7.713   5.309 -0.6286 -0.3231  0.0892
  779MOL0     C 5075   4.595   7.936   4.427  0.2710  0.0267  0.1119
  779MOL0     C 5076   4.462   7.964   4.404 -0.7266 -0.4727 -0.4398
  779MOL0     O 5077   4.219   7.877   4.555 -0.5164 -0.1251 -0.4670
  779MOL0     C 5078   3.945   7.929   4.518 -0.7164 -0.6865 -0.1268
  779MOL0     C 5079   3.809   7.961   4.491 -0.0178 -0.4911  0.2607
  779MOL0     N 5080   3.132   7.958   4.819  0.3318 -0.1652 -0.4673
  779MOL0     N 5081   3.044   7.953   4.914 -0.2976  1.2306  0.1024
  779MOL0     C 5082   2.224   8.366   5.306 -0.1057 -0.2574  0.1120
  779MOL0     C 5083   2.085   8.387   5.284 -0.0515  1.0848 -0.7417
  779MOL0     C 5084   1.668   8.468   5.227 -0.4509  0.0440  0.3640
  779MOL0     C 5085   1.564   8.398   5.297 -0.0884  0.0886  0.1451
  779MOL0     C 5086   1.436   8.389   5.247 -0.1693 -0.5069 -0.2495
  779MOL0     C 5087   1.405   8.460   5.131  0.4448  0.4791  0.2724
  779MOL0     O 5088   1.273   8.455   5.091 -0.1668  0.4177 -0.1522
  779MOL0     C 5089   1.217   8.526   4.984 -0.3073 -0.2914  0.4911
  779MOL0     C 5090   1.070   8.498   4.986 -0.4633 -0.5982  0.3828
  779MOL0     C 5091   0.992   8.586   4.880  0.1018  0.2367 -0.2205
  779MOL0     C 5092   0.843   8.542   4.868  0.5608 -0.8294  0.1572
  779MOL0     C 5093   0.814   8.425   4.781  0.7493 -0.4296 -0.2435
  779MOL0     C 5094   0.781   8.329   4.707 -0.6227  0.7372 -0.0769
  779MOL0     C 5095   1.502   8.529   5.064 -0.0102 -0.3604 -0.4616
  779MOL0     C 5096   1.637   8.536   5.108  1.0055  0.2222  0.5305
  779MOL0     C 5097   1.732   8.597   5.015 -0.3384  0.0786  0.4584
  779MOL0     H 5098   2.087   8.725   5.273  1.0280 -0.0272 -1.0471
  779MOL0     H 5099   2.326   8.690   5.290  3.3064 -0.7137  1.2249
  779MOL0     H 5100   2.420   8.349   5.493 -2.0168 -3.5036 -1.8759
  779MOL0     H 5101   2.485   8.273   5.356  1.3219  0.4493 -0.9252
  779MOL0     H 5102   2.648   8.292   5.512  1.7614  0.3050  0.2984
  779MOL0     H 5103   2.642   8.470   5.550 -0.4009  1.7040 -1.3149
  779MOL0     H 5104   2.832   8.402   5.400  0.1879  0.7991  1.4496
  779MOL0     H 5105   2.713   8.516   5.322 -0.9774 -1.2113 -2.1091
  779MOL0     H 5106   2.698   8.219   5.284  2.3042  0.3718  1.7028
  779MOL0     H 5107   2.636   8.356   5.180  0.4182  1.2136 -1.1540
  779MOL0     H 5108   2.900   8.416   5.133  3.2062 -1.6050  1.0543
  779MOL0     H 5109   2.924   8.265   5.221 -0.6537 -1.9721 -1.2697
  779MOL0     H 5110   2.758   8.301   4.966 -1.4324  0.1689  1.1627
  779MOL0     H 5111   2.932   8.250   4.976 -1.1951 -3.7704 -0.1242
  779MOL0     H 5112   2.692   8.092   5.071  0.0738 -0.9691  1.0541
  779MOL0     H 5113   2.869   8.048   5.108  0.2318 -1.7654 -1.6388
  779MOL0     H 5114   2.791   7.901   4.960 -0.3908  1.0956  1.3384
  779MOL0     H 5115   2.726   8.039   4.855 -1.2030  1.9939  1.7260
  779MOL0     H 5116   2.878   8.102   4.669  0.5068  2.7683  1.3362
  779MOL0     H 5117   3.160   7.971   4.512  1.4164  1.5735 -0.8918
  779MOL0     H 5118   3.127   8.150   4.539  0.9853  0.2325 -0.1527
  779MOL0     H 5119   3.317   8.141   4.704  2.8074  0.7475 -0.2923
  779MOL0     H 5120   3.349   7.978   4.634 -0.9004  0.1142  0.2884
  779MOL0     H 5121   3.418   8.241   4.519 -0.4707  0.5650 -1.3204
  779MOL0     H 5122   3.358   8.118   4.412  0.3905 -3.0113 -0.3867
  779MOL0     H 5123   3.531   7.961   4.457 -0.0378 -0.6092  0.1979
  779MOL0     H 5124   3.579   8.034   4.608  3.2211 -2.0418 -1.4461
  779MOL0     H 5125   3.842   8.297   4.411  0.9111  0.0224  1.2936
  779MOL0     H 5126   4.081   8.239   4.451 -0.2646  0.2410  0.8435
  779MOL0     H 5127   4.441   8.202   4.661  0.5296 -0.7853  1.7948
  779MOL0     H 5128   4.679   8.144   4.690 -1.4778  1.8469 -0.5580
  779MOL0     H 5129   4.961   7.911   4.655 -0.1352  0.2539 -1.7817
  779MOL0     H 5130   4.878   8.053   4.694  1.6362 -0.2005 -0.3544
  779MOL0     H 5131   4.675   7.916   4.769  0.3878  2.4666  0.6892
  779MOL0     H 5132   4.766   7.775   4.731 -1.4118  0.1592 -0.4071
  779MOL0     H 5133   4.789   7.784   4.964 -2.4118  3.1138  0.5532
  779MOL0     H 5134   4.945   7.831   4.913  1.2475  1.4628  0.2134
  779MOL0     H 5135   4.716   8.020   4.981 -0.2696  0.0093  0.0709
  779MOL0     H 5136   4.869   8.064   4.916  2.9572  0.5758  3.5600
  779MOL0     H 5137   4.863   8.088   5.174  0.1002  1.0945 -0.6711
  779MOL0     H 5138   4.968   7.958   5.125 -0.5194  1.4032 -2.0487
  779MOL0     H 5139   4.785   7.795   5.185  2.4596  1.1900 -1.5634
  779MOL0     H 5140   4.834   7.894   5.317  0.8192 -1.8819 -0.1596
  779MOL0     H 5141   4.578   7.937   5.162 -2.3839 -0.8647  0.8176
  779MOL0     H 5142   4.656   8.065   5.266  3.4070  0.0446 -1.6020
  779MOL0     H 5143   4.604   7.896   5.462 -1.2323 -1.5934  1.3888
  779MOL0     H 5144   4.460   7.938   5.370  0.2900 -1.0356  1.4413
  779MOL0     H 5145   4.656   7.871   4.365  0.4976 -1.8713  2.2024
  779MOL0     H 5146   4.413   7.907   4.326  2.1592 -2.5237 -0.9256
  779MOL0     H 5147   3.982   7.827   4.520  1.3221 -0.2316 -3.8383
  779MOL0     H 5148   3.731   7.886   4.497 -1.3389  0.8947  1.0304
  779MOL0     H 5149   2.257   8.264   5.320  1.7545 -0.0761 -2.3992
  779MOL0     H 5150   2.014   8.306   5.270  1.1756  0.0893 -1.5170
  779MOL0     H 5151   1.590   8.348   5.390  0.5661  1.3215  0.6513
  779MOL0     H 5152   1.364   8.343   5.314 -1.2651  1.0849 -0.2793
  779MOL0     H 5153   1.262   8.484   4.894 -1.5242 -2.3785  0.8057
  779MOL0     H 5154   1.241   8.633   4.992  1.5010 -0.7055  0.9304
  779MOL0     H 5155   1.036   8.521   5.087 -0.9372 -0.5991  0.2309
  779MOL0     H 5156   1.044   8.393   4.970 -1.9249 -0.2521  0.2794
  779MOL0     H 5157   1.040   8.563   4.785  1.8636  1.1710  0.3912
  779MOL0     H 5158   1.014   8.692   4.895  0.3922  0.3170 -1.1436
  779MOL0     H 5159   0.793   8.526   4.964 -1.9808  1.3095 -0.6845
  779MOL0     H 5160   0.783   8.625   4.829  0.5292 -0.1763  1.5491
  779MOL0     H 5161   0.775   8.256   4.629  0.3141  2.5314 -1.9113
  779MOL0     H 5162   1.485   8.569   4.965  0.8566 -0.8795 -0.8281
  779MOL0     H 5163   1.776   8.686   5.061  0.9228  0.8398 -2.0055
  779MOL0     H 5164   1.809   8.523   4.989 -0.2951  0.2189  0.1839
  779MOL0     H 5165   1.680   8.625   4.922 -1.4304  2.3070  1.6605
  780MOL0     O 5166   0.368   4.879   8.991 -0.5592  0.2828  0.3150
  780MOL0     C 5167   0.338   4.844   9.101 -0.0426  0.1986  0.1699
  780MOL0     O 5168   0.427   4.824   9.201  0.0657  0.5712  0.2019
  780MOL0     C 5169   0.566   4.847   9.185  0.4483 -0.0027 -0.7030
  780MOL0     C 5170   0.645   4.865   9.309  0.1287  0.4420  0.0570
  780MOL0     C 5171   0.786   4.881   9.311  0.4744  0.1607 -0.0775
  780MOL0     C 5172   0.864   4.890   9.192  0.4634  0.2921  0.2192
  780MOL0     O 5173   1.001   4.908   9.198  0.0692 -0.2795 -0.1494
  780MOL0     C 5174   1.053   4.991   9.094 -0.5896 -0.0518 -0.0882
  780MOL0     C 5175   1.201   5.006   9.123  0.2938 -0.1247  0.0028
  780MOL0     C 5176   1.297   4.885   9.108  0.1174  0.9808  0.2632
  780MOL0     C 5177   1.434   4.940   9.135 -0.5169 -0.5875 -0.8093
  780MOL0     C 5178   1.542   4.833   9.106 -0.0695  0.3179  0.0547
  780MOL0     C 5179   1.683   4.896   9.076  0.7237 -0.6001  0.3369
  780MOL0     C 5180   1.740   4.994   9.191 -0.2149 -0.4842  0.2688
  780MOL0     C 5181   1.890   5.041   9.155  0.1796  0.0530 -0.0286
  780MOL0     N 5182   1.991   4.936   9.135  0.6773 -0.9729 -0.8191
  780MOL0     C 5183   2.090   4.940   9.051 -1.0578  0.0658  0.6755
  780MOL0     C 5184   2.151   4.817   9.054  0.3557 -0.7691 -0.4616
  780MOL0     C 5185   2.265   4.756   8.981 -0.3691  0.7620  0.2941
  780MOL0     C 5186   2.385   4.730   9.070 -0.1292 -0.0588 -0.4210
  780MOL0     C 5187   2.517   4.756   9.006  0.3076 -0.1771  0.3538
  780MOL0     C 5188   2.568   4.901   9.004 -0.9998  0.0498  0.5872
  780MOL0     O 5189   2.706   4.904   8.955  0.0066  0.4620 -0.5057
  780MOL0     C 5190   2.805   4.908   9.049 -0.2625  0.7881  0.3042
  780MOL0     C 5191   2.799   4.867   9.176 -0.0685 -0.1319  0.2666
  780MOL0     C 5192   2.914   4.865   9.246  0.1771  0.0927 -0.0641
  780MOL0     C 5193   3.037   4.900   9.186 -0.2075 -0.2016 -0.5457
  780MOL0     C 5194   3.169   4.905   9.269  0.0326  0.0762 -0.1429
  780MOL0     O 5195   3.160   4.912   9.407  0.1318  0.1237  0.6666
  780MOL0     C 5196   3.280   4.910   9.469 -0.1633 -0.4070 -0.2117
  780MOL0     C 5197   3.357   4.792   9.488 -0.4665 -0.0437  0.0067
  780MOL0     C 5198   3.456   4.798   9.582  0.0127 -0.1973  0.3978
  780MOL0     C 5199   3.505   4.925   9.633  0.1645 -0.0567 -0.5459
  780MOL0     O 5200   3.623   4.952   9.706  0.9084  0.2020 -0.2170
  780MOL0     C 5201   3.717   4.842   9.703 -0.3408 -0.8916 -0.1367
  780MOL0     C 5202   3.847   4.891   9.770 -0.3014  0.0973  0.9671
  780MOL0     C 5203   3.967   4.811   9.716  0.1011 -0.3373 -0.3962
  780MOL0     C 5204   3.983   4.671   9.784  0.8969  1.4092  0.5696
  780MOL0     C 5205   4.120   4.610   9.740 -0.0403  0.7301  0.5112
  780MOL0     C 5206   4.241   4.668   9.807 -0.3926 -0.0092  0.6072
  780MOL0     C 5207   4.362   4.600   9.745 -0.0560 -0.3305  0.4224
  780MOL0     C 5208   4.501   4.659   9.782 -0.0065 -0.1253 -0.2680
  780MOL0    Cl 5209   4.639   4.556   9.746 -0.2175  0.0923 -0.0207
  780MOL0     C 5210   3.437   5.039   9.600 -0.3370 -1.4540 -0.2235
  780MOL0     C 5211   3.320   5.036   9.527 -0.7086  0.2497  0.3996
  780MOL0     O 5212   3.273   4.892   9.202  0.3433 -0.0917 -0.0502
  780MOL0     C 5213   3.040   4.927   9.057 -0.1213  0.8910  0.9910
  780MOL0     C 5214   2.926   4.938   8.988 -1.0816 -0.2315 -0.1716
  780MOL0     N 5215   2.087   4.745   9.159 -0.0645 -0.1267 -0.3080
  780MOL0     N 5216   1.986   4.813   9.197  0.0517  0.4519  0.3487
  780MOL0     C 5217   0.782   4.879   9.070  0.4993 -0.5273  0.2166
  780MOL0     C 5218   0.645   4.860   9.071 -0.1716  0.3608  0.4463
  780MOL0     C 5219   0.203   4.826   9.134  0.8994  0.3016  0.2698
  780MOL0     C 5220   0.158   4.862   9.261  1.4797 -0.6583  0.1824
  780MOL0     C 5221   0.023   4.841   9.295 -0.1033  0.2142  0.0819
  780MOL0     C 5222  -0.067   4.776   9.210 -0.7324  0.1457 -0.8924
  780MOL0     O 5223  -0.196   4.743   9.244  0.2442  0.4115 -0.1439
  780MOL0     C 5224  -0.250   4.780   9.369  0.3745  0.5444  0.2332
  780MOL0     C 5225  -0.396   4.742   9.373 -0.4260 -0.6833 -0.2971
  780MOL0     C 5226  -0.479   4.834   9.281  0.4790  0.1048 -0.0125
  780MOL0     C 5227  -0.490   4.986   9.310  0.1460  0.2811  0.6647
  780MOL0     C 5228  -0.550   5.015   9.447  0.1726 -0.2122 -0.3627
  780MOL0     C 5229  -0.585   5.037   9.564 -0.0169  0.3065  0.0718
  780MOL0     C 5230  -0.020   4.744   9.085 -0.0977 -0.3335  0.1213
  780MOL0     C 5231   0.111   4.764   9.041 -0.2607  0.2088  0.4931
  780MOL0     C 5232   0.145   4.712   8.900  0.3416 -0.2193  0.1520
  780MOL0     H 5233   0.594   4.851   9.404  1.0425  0.3661  0.5398
  780MOL0     H 5234   0.845   4.892   9.401  0.9528  0.1694 -0.3891
  780MOL0     H 5235   1.037   4.951   8.993  2.0978  0.8821 -0.9616
  780MOL0     H 5236   1.006   5.090   9.096 -1.8307 -0.5834  3.4667
  780MOL0     H 5237   1.207   5.041   9.226  1.3041  0.9263 -0.3964
  780MOL0     H 5238   1.242   5.094   9.074  1.2153  0.6292  2.0578
  780MOL0     H 5239   1.297   4.847   9.006  0.4429  3.3727 -0.6775
  780MOL0     H 5240   1.274   4.806   9.180  1.9865 -1.5898 -1.7823
  780MOL0     H 5241   1.445   5.037   9.085 -0.6042 -1.2968 -2.2584
  780MOL0     H 5242   1.446   4.969   9.240 -3.6581 -0.1422 -0.4754
  780MOL0     H 5243   1.557   4.766   9.190 -0.1144  1.2585  0.8288
  780MOL0     H 5244   1.520   4.775   9.016 -3.2470  0.1972  0.7904
  780MOL0     H 5245   1.754   4.814   9.062  3.2018  1.6220 -0.8472
  780MOL0     H 5246   1.677   4.939   8.976  1.0360 -0.0062  0.5684
  780MOL0     H 5247   1.739   4.949   9.291 -1.7662 -1.1597 -0.0257
  780MOL0     H 5248   1.693   5.092   9.199  0.0864 -0.3316  0.1712
  780MOL0     H 5249   1.883   5.114   9.074 -2.9544 -0.9665 -0.8009
  780MOL0     H 5250   1.931   5.097   9.240  0.9337  0.2482 -0.5119
  780MOL0     H 5251   2.120   5.027   8.993 -2.3651 -1.8269 -3.1555
  780MOL0     H 5252   2.231   4.655   8.953  1.2791  0.0402  0.7763
  780MOL0     H 5253   2.293   4.805   8.887 -1.6477 -2.3370 -1.9030
  780MOL0     H 5254   2.383   4.806   9.149  0.5472 -1.2794  0.8263
  780MOL0     H 5255   2.386   4.632   9.119 -1.2477  0.9495  1.7559
  780MOL0     H 5256   2.516   4.704   8.910 -1.6433 -2.5448  1.5483
  780MOL0     H 5257   2.587   4.701   9.069  2.0805 -0.3340 -1.6484
  780MOL0     H 5258   2.568   4.958   9.098 -1.1749 -0.0440  0.6440
  780MOL0     H 5259   2.507   4.952   8.930  1.4584 -1.4238 -2.7074
  780MOL0     H 5260   2.704   4.839   9.221 -0.8981  2.5011  0.2973
  780MOL0     H 5261   2.913   4.843   9.353  1.2114 -0.2874 -0.1250
  780MOL0     H 5262   3.339   4.699   9.435  0.5223 -0.5433  0.5152
  780MOL0     H 5263   3.497   4.701   9.607 -0.1361 -0.5222 -0.5601
  780MOL0     H 5264   3.690   4.753   9.760  0.1018 -0.5800  0.5743
  780MOL0     H 5265   3.733   4.818   9.598  0.6866  0.0540 -0.2207
  780MOL0     H 5266   3.861   4.997   9.745 -1.5320  0.3146  1.1135
  780MOL0     H 5267   3.849   4.889   9.879 -2.2851 -0.3595  1.0255
  780MOL0     H 5268   3.953   4.782   9.611  1.1621  0.2517 -0.7142
  780MOL0     H 5269   4.058   4.869   9.735  1.3059 -2.9922  2.7868
  780MOL0     H 5270   3.898   4.608   9.759  0.6947  2.5985 -2.1225
  780MOL0     H 5271   3.974   4.683   9.892 -2.1271 -1.8961  0.8173
  780MOL0     H 5272   4.135   4.636   9.635 -1.1362 -1.4948 -0.2544
  780MOL0     H 5273   4.125   4.501   9.754  2.6842  0.6586 -0.3949
  780MOL0     H 5274   4.253   4.775   9.788  0.8888 -0.0549  1.0531
  780MOL0     H 5275   4.241   4.662   9.916  1.1158  1.8735  0.7620
  780MOL0     H 5276   4.347   4.586   9.638 -2.0963  0.3282  0.5804
  780MOL0     H 5277   4.362   4.502   9.794  0.0976 -0.0042  1.0911
  780MOL0     H 5278   4.509   4.753   9.728  1.3832  0.2828  0.6064
  780MOL0     H 5279   4.503   4.690   9.887 -0.6278  3.2864 -1.1580
  780MOL0     H 5280   3.472   5.139   9.624 -3.4582 -0.4817  0.7167
  780MOL0     H 5281   3.259   5.124   9.508 -0.8593 -0.1448 -1.1305
  780MOL0     H 5282   3.130   4.948   9.000 -2.2753  1.5922 -2.4148
  780MOL0     H 5283   2.927   4.972   8.885 -0.2095  0.0144 -0.0954
  780MOL0     H 5284   0.837   4.872   8.976  2.0161 -0.8084  1.0951
  780MOL0     H 5285   0.592   4.858   8.976 -2.4767  0.4855  1.6560
  780MOL0     H 5286   0.215   4.923   9.331 -0.0258 -0.3790  1.2217
  780MOL0     H 5287  -0.010   4.892   9.385 -0.4331  3.5426 -1.7701
  780MOL0     H 5288  -0.228   4.886   9.381 -0.7943  0.6096  2.2572
  780MOL0     H 5289  -0.207   4.725   9.454 -2.0157  1.1372  1.9425
  780MOL0     H 5290  -0.436   4.761   9.473 -2.0216  0.6828 -1.1302
  780MOL0     H 5291  -0.404   4.638   9.340 -0.3759 -1.1770  1.1542
  780MOL0     H 5292  -0.582   4.800   9.291  0.8721 -1.1576 -0.0254
  780MOL0     H 5293  -0.447   4.829   9.177 -3.2480  4.0614 -1.6168
  780MOL0     H 5294  -0.395   5.041   9.310  0.6193 -0.5307  0.9747
  780MOL0     H 5295  -0.557   5.038   9.240  1.2324 -0.1480 -0.7355
  780MOL0     H 5296  -0.619   5.038   9.666 -0.3599 -1.7229  0.0082
  780MOL0     H 5297  -0.089   4.697   9.016  2.6196 -0.9175 -2.4116
  780MOL0     H 5298   0.252   4.693   8.884  0.1830 -0.0169 -1.3213
  780MOL0     H 5299   0.085   4.626   8.868 -1.4533  2.4052 -4.5791
  780MOL0     H 5300   0.118   4.784   8.822  1.5152 -0.0232 -0.0964
  781MOL0     O 5301  10.361   3.101  11.090  0.2876 -0.2115 -0.1095
  781MOL0     C 5302  10.345   3.199  11.162  0.2829  0.0948 -0.7741
  781MOL0     O 5303  10.433   3.249  11.261 -0.1752  0.3741 -0.6943
  781MOL0     C 5304  10.564   3.215  11.257 -0.1860  0.3883 -0.5452
  781MOL0     C 5305  10.626   3.089  11.239  0.1269 -0.2766 -0.5581
  781MOL0     C 5306  10.761   3.072  11.234 -0.1934 -0.0091  0.0795
  781MOL0     C 5307  10.851   3.174  11.259 -0.0488 -0.4214  0.5452
  781MOL0     O 5308  10.980   3.134  11.278 -0.8117 -0.3954  0.3378
  781MOL0     C 5309  11.059   3.189  11.173 -0.5271 -0.4862 -0.0824
  781MOL0     C 5310  11.207   3.192  11.194  0.4857  0.1939  0.6047
  781MOL0     C 5311  11.282   3.262  11.080  0.2619 -0.4018  0.1737
  781MOL0     C 5312  11.265   3.194  10.936  0.0868 -0.0750  0.4439
  781MOL0     C 5313  11.385   3.220  10.845  0.1103  0.1641  0.7111
  781MOL0     C 5314  11.503   3.125  10.864  0.3724  0.5513  0.5356
  781MOL0     C 5315  11.633   3.177  10.806 -0.0106 -0.2872  0.4367
  781MOL0     C 5316  11.753   3.107  10.873 -0.9086 -0.4966  0.7896
  781MOL0     N 5317  11.883   3.135  10.807 -0.7116  0.3470  0.0206
  781MOL0     C 5318  11.936   3.259  10.800 -0.9580 -0.3550 -0.2265
  781MOL0     C 5319  12.064   3.237  10.743  0.5819  0.5425  0.4665
  781MOL0     C 5320  12.173   3.337  10.705  0.5614 -0.6973  0.8258
  781MOL0     C 5321  12.302   3.268  10.662  0.2991  0.5116 -0.5654
  781MOL0     C 5322  12.397   3.371  10.612 -0.1341  0.4331 -0.0875
  781MOL0     C 5323  12.513   3.309  10.529 -0.0543 -0.0463 -0.2449
  781MOL0     O 5324  12.612   3.395  10.474 -0.4076  0.2777 -0.4131
  781MOL0     C 5325  12.718   3.435  10.559  0.0360 -1.2561 -0.3155
  781MOL0     C 5326  12.713   3.417  10.697  0.2366 -0.8437  0.9629
  781MOL0     C 5327  12.807   3.468  10.776 -1.1505  0.1748  0.7150
  781MOL0     C 5328  12.921   3.531  10.722 -0.0741 -0.2803  0.5240
  781MOL0     C 5329  13.035   3.570  10.806  0.0780  0.0988 -1.2303
  781MOL0     O 5330  13.125   3.669  10.769 -0.1308  0.0813  0.1817
  781MOL0     C 5331  13.245   3.680  10.833  0.0446  0.8017  0.7131
  781MOL0     C 5332  13.263   3.780  10.935 -0.2097  0.1594  0.5886
  781MOL0     C 5333  13.388   3.805  10.991 -0.1795  0.2809 -0.0562
  781MOL0     C 5334  13.497   3.725  10.951 -0.1683 -0.6466 -0.0668
  781MOL0     O 5335  13.626   3.733  10.992 -0.0503 -0.0729 -0.1063
  781MOL0     C 5336  13.632   3.796  11.121 -1.2726 -0.3165  0.3351
  781MOL0     C 5337  13.768   3.788  11.177 -0.2204  0.4517  0.0744
  781MOL0     C 5338  13.831   3.914  11.231 -0.3110 -0.5043  0.0624
  781MOL0     C 5339  13.979   3.900  11.261  0.3262  0.2298  0.3191
  781MOL0     C 5340  14.032   4.018  11.345  0.1828 -0.2446  0.2184
  781MOL0     C 5341  14.176   4.016  11.379 -0.2708  0.1076 -0.9098
  781MOL0     C 5342  14.216   4.112  11.489 -0.6628  0.0568 -0.4157
  781MOL0     C 5343  14.366   4.144  11.497 -0.3919  0.1775  0.2061
  781MOL0    Cl 5344  14.414   4.259  11.371 -0.4212  0.1913  0.5774
  781MOL0     C 5345  13.478   3.632  10.849  0.5327  0.0654  0.2138
  781MOL0     C 5346  13.355   3.612  10.788 -0.2224  1.0822  0.1558
  781MOL0     O 5347  13.056   3.499  10.910 -0.4239  0.0639 -0.2050
  781MOL0     C 5348  12.923   3.554  10.584  0.2322  0.0884 -0.2779
  781MOL0     C 5349  12.823   3.507  10.508 -0.0484 -0.3600  1.3421
  781MOL0     N 5350  12.068   3.099  10.726 -0.6109  0.5017 -0.5353
  781MOL0     N 5351  11.966   3.033  10.774 -0.6004 -0.2868  0.1250
  781MOL0     C 5352  10.796   3.294  11.289  0.5055 -0.6504 -0.7513
  781MOL0     C 5353  10.659   3.323  11.284  0.2480 -0.1199 -0.0644
  781MOL0     C 5354  10.208   3.261  11.163  0.3156  0.3945  0.0315
  781MOL0     C 5355  10.149   3.291  11.040  0.4653 -0.1611  0.3057
  781MOL0     C 5356  10.026   3.345  11.029 -0.3851 -0.2856  0.3825
  781MOL0     C 5357   9.958   3.378  11.146 -0.3485 -0.2372  0.4462
  781MOL0     O 5358   9.847   3.459  11.150  0.3823 -0.4055  0.3749
  781MOL0     C 5359   9.879   3.585  11.083  0.3406 -0.3072 -0.1530
  781MOL0     C 5360   9.790   3.592  10.963 -0.5809 -0.0918 -0.3860
  781MOL0     C 5361   9.820   3.717  10.874 -0.5209 -0.2411 -0.4167
  781MOL0     C 5362   9.817   3.854  10.935  0.8174 -0.4733  0.6997
  781MOL0     C 5363   9.680   3.886  10.982  0.2995 -0.3099 -0.3961
  781MOL0     C 5364   9.578   3.923  11.027  0.8742  0.3356  0.1702
  781MOL0     C 5365  10.014   3.344  11.266 -0.4292 -0.6435  0.7984
  781MOL0     C 5366  10.141   3.285  11.281  0.5616 -0.4119  0.4609
  781MOL0     C 5367  10.189   3.256  11.418 -0.4927  0.3262  0.1660
  781MOL0     H 5368  10.573   2.995  11.235  2.7670 -1.8103 -2.9669
  781MOL0     H 5369  10.806   2.975  11.214 -1.6217 -0.4381 -1.2975
  781MOL0     H 5370  11.036   3.145  11.076 -2.4976 -0.1134  0.1597
  781MOL0     H 5371  11.029   3.294  11.171 -0.5969 -0.5184 -0.6961
  781MOL0     H 5372  11.244   3.090  11.195  4.0454  1.2655  4.1316
  781MOL0     H 5373  11.219   3.249  11.287  0.9151  0.0808  0.6171
  781MOL0     H 5374  11.382   3.274  11.124 -0.3941 -0.2473  1.6706
  781MOL0     H 5375  11.246   3.365  11.075  0.4592 -0.2935  0.8880
  781MOL0     H 5376  11.256   3.087  10.956  2.2258 -0.0072  2.0988
  781MOL0     H 5377  11.179   3.228  10.878 -0.8125 -2.7274  0.0751
  781MOL0     H 5378  11.357   3.215  10.739  0.3190  1.1837  0.5912
  781MOL0     H 5379  11.410   3.326  10.860 -1.3646  0.7738 -0.8111
  781MOL0     H 5380  11.517   3.129  10.972 -0.6909  0.6002  0.6848
  781MOL0     H 5381  11.480   3.020  10.841  0.7608  0.0194  2.3570
  781MOL0     H 5382  11.644   3.285  10.813 -0.2767 -0.2005 -0.3129
  781MOL0     H 5383  11.625   3.161  10.698  1.1972  0.2855  0.2444
  781MOL0     H 5384  11.762   3.138  10.978 -2.7821  1.9474  0.3276
  781MOL0     H 5385  11.736   2.999  10.877 -4.3752 -0.0358  1.5447
  781MOL0     H 5386  11.886   3.353  10.822 -0.8228  0.2501 -2.2950
  781MOL0     H 5387  12.133   3.389  10.618  1.2728  0.2287  1.0364
  781MOL0     H 5388  12.197   3.416  10.776 -3.9246  2.1545 -0.4349
  781MOL0     H 5389  12.342   3.212  10.747 -1.5671  1.4517  1.0088
  781MOL0     H 5390  12.293   3.191  10.585  2.2098  0.5559 -0.8973
  781MOL0     H 5391  12.420   3.436  10.696 -4.8113  0.0790  1.8039
  781MOL0     H 5392  12.348   3.437  10.540 -2.4476 -0.3770  0.6407
  781MOL0     H 5393  12.463   3.249  10.452 -0.4462 -0.8684  0.6311
  781MOL0     H 5394  12.559   3.233  10.593  1.9562  1.6288  0.4214
  781MOL0     H 5395  12.624   3.378  10.746 -1.5541 -1.5541 -2.4958
  781MOL0     H 5396  12.802   3.454  10.884  2.9353 -0.7202  0.9264
  781MOL0     H 5397  13.179   3.842  10.966 -0.4078 -0.9652  2.4968
  781MOL0     H 5398  13.412   3.877  11.069 -2.4672 -0.1134  1.1197
  781MOL0     H 5399  13.606   3.901  11.109 -3.0210 -0.7379  0.1546
  781MOL0     H 5400  13.565   3.752  11.195 -0.4223  1.0518  2.0000
  781MOL0     H 5401  13.768   3.712  11.256 -0.3164 -1.2302 -1.4810
  781MOL0     H 5402  13.827   3.737  11.101  0.0787 -0.8779  1.1698
  781MOL0     H 5403  13.814   3.994  11.158  1.2021  0.4817  0.7470
  781MOL0     H 5404  13.782   3.944  11.324 -0.8394 -2.1550  0.3624
  781MOL0     H 5405  14.027   3.879  11.165  0.1909 -0.7978  0.4630
  781MOL0     H 5406  13.995   3.810  11.323  2.5858 -0.9982 -1.8433
  781MOL0     H 5407  13.979   4.005  11.440 -2.9827  1.0001 -1.2305
  781MOL0     H 5408  14.000   4.118  11.313  2.0423 -0.0441 -1.1577
  781MOL0     H 5409  14.195   3.911  11.407 -0.9287 -0.4615 -2.4732
  781MOL0     H 5410  14.248   4.042  11.300  0.9051 -3.0588 -1.0596
  781MOL0     H 5411  14.185   4.075  11.587  0.1789 -2.4202 -1.0091
  781MOL0     H 5412  14.159   4.203  11.467 -2.1993 -0.8891 -0.4503
  781MOL0     H 5413  14.398   4.185  11.593  2.8290  0.2601 -0.7707
  781MOL0     H 5414  14.423   4.051  11.482  1.0459  0.6146  2.5500
  781MOL0     H 5415  13.563   3.568  10.828 -0.0756 -0.2477 -1.4510
  781MOL0     H 5416  13.341   3.538  10.710  0.4036  0.9720  0.1430
  781MOL0     H 5417  13.007   3.606  10.539 -0.1413  3.3772  2.3773
  781MOL0     H 5418  12.814   3.536  10.404  2.9307  2.9657  1.8358
  781MOL0     H 5419  10.848   3.379  11.330  0.6369 -1.0805 -0.0159
  781MOL0     H 5420  10.616   3.417  11.318  1.0898  0.8828 -1.6389
  781MOL0     H 5421  10.192   3.259  10.946  0.2055 -0.2974  0.2306
  781MOL0     H 5422   9.972   3.380  10.941 -0.9672 -0.7493  0.5442
  781MOL0     H 5423   9.981   3.596  11.044 -0.9178  2.2937 -3.0239
  781MOL0     H 5424   9.862   3.665  11.156 -0.4699 -0.6671  0.0659
  781MOL0     H 5425   9.687   3.585  11.001 -0.2354 -0.0826  0.5726
  781MOL0     H 5426   9.811   3.506  10.899 -1.7832 -0.6031 -0.1207
  781MOL0     H 5427   9.741   3.712  10.799 -0.8087 -0.5057 -0.0983
  781MOL0     H 5428   9.910   3.691  10.818  0.2904 -1.3134  1.2988
  781MOL0     H 5429   9.892   3.856  11.015  0.5442 -1.4011  0.9827
  781MOL0     H 5430   9.847   3.934  10.866  1.3108  0.4049  1.8975
  781MOL0     H 5431   9.483   3.948  11.070  0.6341  0.5248 -0.4629
  781MOL0     H 5432   9.950   3.363  11.352 -0.5042  0.7991  0.4565
  781MOL0     H 5433  10.251   3.166  11.407  1.8612  1.8535  0.0822
  781MOL0     H 5434  10.250   3.332  11.467  1.9367 -1.4687  0.1439
  781MOL0     H 5435  10.108   3.223  11.483  0.5063 -1.5333  0.5402
  782MOL0     O 5436   8.235   2.487   4.339  0.4887 -0.2941 -0.7652
  782MOL0     C 5437   8.195   2.398   4.420 -0.5027 -0.0521  0.0438
  782MOL0     O 5438   8.286   2.323   4.492  0.4179  0.7552 -0.3271
  782MOL0     C 5439   8.419   2.357   4.466  0.0295  0.3421  0.2901
  782MOL0     C 5440   8.480   2.322   4.342  0.2570  0.4011 -0.3988
  782MOL0     C 5441   8.617   2.346   4.327  0.1588 -0.9191 -0.2117
  782MOL0     C 5442   8.691   2.424   4.420 -0.8442  0.3740 -0.4786
  782MOL0     O 5443   8.826   2.456   4.398  0.7653 -0.3684 -0.2571
  782MOL0     C 5444   8.905   2.360   4.320  1.1011 -0.2014 -0.5099
  782MOL0     C 5445   9.041   2.391   4.359 -0.2425 -0.0958  0.9733
  782MOL0     C 5446   9.133   2.295   4.275  0.3560  0.4356 -0.2404
  782MOL0     C 5447   9.278   2.308   4.308  0.5604  0.5433  0.2384
  782MOL0     C 5448   9.366   2.248   4.194 -0.1691 -0.4728 -0.7674
  782MOL0     C 5449   9.520   2.246   4.232 -0.0356 -0.7318 -0.6823
  782MOL0     C 5450   9.587   2.387   4.241 -0.5039  0.0783  0.2845
  782MOL0     C 5451   9.610   2.428   4.392  0.0798  0.0495 -0.3464
  782MOL0     N 5452   9.623   2.574   4.394  0.0131 -0.7560  0.1361
  782MOL0     C 5453   9.722   2.648   4.337 -0.3253  0.4011  0.0869
  782MOL0     C 5454   9.673   2.767   4.296  0.3786 -0.1061 -0.5532
  782MOL0     C 5455   9.752   2.864   4.205  0.1818  0.2201 -0.4741
  782MOL0     C 5456   9.809   2.815   4.071  0.7729  0.1008  0.0774
  782MOL0     C 5457   9.913   2.908   3.999 -0.2701 -0.0295  0.4164
  782MOL0     C 5458   9.956   2.860   3.853 -0.0384  0.1538  0.3229
  782MOL0     O 5459   9.987   2.971   3.776  0.2087 -0.8170 -0.0293
  782MOL0     C 5460  10.116   3.015   3.776 -0.3460  0.4078 -0.1859
  782MOL0     C 5461  10.224   2.923   3.773  0.6315 -0.8157  0.4072
  782MOL0     C 5462  10.356   2.966   3.767  0.2706 -0.4058 -0.7304
  782MOL0     C 5463  10.390   3.103   3.751 -0.2578  0.0776  0.7267
  782MOL0     C 5464  10.520   3.144   3.703  0.2218  0.3404 -0.8504
  782MOL0     O 5465  10.542   3.279   3.690 -0.2697 -0.6479  0.8786
  782MOL0     C 5466  10.672   3.322   3.681 -0.1282 -0.0973 -0.0211
  782MOL0     C 5467  10.772   3.275   3.766  0.4545 -0.1178 -0.3019
  782MOL0     C 5468  10.899   3.329   3.773 -0.4433 -0.0153 -0.0449
  782MOL0     C 5469  10.940   3.420   3.684 -1.1546 -0.6616 -0.4422
  782MOL0     O 5470  11.072   3.464   3.671  0.0188 -0.0451  0.4686
  782MOL0     C 5471  11.169   3.427   3.768 -0.3844 -0.5658  0.3799
  782MOL0     C 5472  11.292   3.517   3.741 -0.0584  0.4341 -0.3339
  782MOL0     C 5473  11.391   3.498   3.859  0.1871 -0.6105  0.4752
  782MOL0     C 5474  11.508   3.592   3.859  0.0087  0.8264  0.6839
  782MOL0     C 5475  11.623   3.532   3.939  0.0998 -0.2436  0.2262
  782MOL0     C 5476  11.744   3.619   3.953  0.3772 -0.1025  1.0199
  782MOL0     C 5477  11.855   3.558   4.039 -0.1319 -0.2689  0.3099
  782MOL0     C 5478  11.991   3.619   4.003  0.8875 -1.0494 -0.5186
  782MOL0    Cl 5479  12.031   3.614   3.828 -0.0118 -0.3530  0.1454
  782MOL0     C 5480  10.845   3.479   3.603 -0.0451 -0.3105  0.2744
  782MOL0     C 5481  10.709   3.441   3.607  0.5248 -0.2090  0.0310
  782MOL0     O 5482  10.612   3.056   3.694 -0.6678  0.1718  0.5927
  782MOL0     C 5483  10.276   3.196   3.753 -0.4010  0.0312  0.7038
  782MOL0     C 5484  10.141   3.145   3.764  0.1059  0.2295  0.7866
  782MOL0     N 5485   9.541   2.776   4.343 -0.1366  0.1945 -0.3463
  782MOL0     N 5486   9.516   2.654   4.395 -0.0467  0.5194 -0.1503
  782MOL0     C 5487   8.628   2.464   4.534 -0.3376 -0.6976  0.2939
  782MOL0     C 5488   8.496   2.428   4.562 -0.6766  0.0306 -0.3444
  782MOL0     C 5489   8.054   2.353   4.437  0.6027  0.6616  0.3235
  782MOL0     C 5490   8.023   2.239   4.512  0.6756 -0.3409 -0.3364
  782MOL0     C 5491   7.892   2.194   4.519 -0.5718 -0.1058  0.0494
  782MOL0     C 5492   7.791   2.253   4.442 -0.3027  0.0982  0.7777
  782MOL0     O 5493   7.663   2.226   4.460  0.1760 -0.2776  0.6957
  782MOL0     C 5494   7.625   2.101   4.501 -1.3103 -0.6760 -0.2331
  782MOL0     C 5495   7.504   2.065   4.418  0.2916 -0.0068  0.2472
  782MOL0     C 5496   7.538   2.052   4.271  0.6223  0.4637 -0.5301
  782MOL0     C 5497   7.581   1.911   4.233  0.0905  0.0600 -1.0827
  782MOL0     C 5498   7.461   1.827   4.246  0.2508  0.1745 -0.3059
  782MOL0     C 5499   7.371   1.751   4.269 -0.7449 -0.9185 -0.6307
  782MOL0     C 5500   7.823   2.365   4.368 -0.0946  0.5843  0.1033
  782MOL0     C 5501   7.947   2.420   4.368  0.7469 -0.2072  0.4748
  782MOL0     C 5502   7.956   2.539   4.272  0.7009  0.0426 -0.1856
  782MOL0     H 5503   8.426   2.258   4.273 -2.8534  1.5463  0.7972
  782MOL0     H 5504   8.657   2.321   4.230  1.3892  0.2027 -0.0343
  782MOL0     H 5505   8.875   2.257   4.341 -0.0555  0.2050 -0.0940
  782MOL0     H 5506   8.898   2.385   4.213  0.3495 -2.3537 -1.0212
  782MOL0     H 5507   9.047   2.381   4.468  0.6038 -2.0749  0.7874
  782MOL0     H 5508   9.063   2.491   4.319  1.6585 -1.2488 -1.0812
  782MOL0     H 5509   9.115   2.309   4.168  0.9102  0.8533 -0.2833
  782MOL0     H 5510   9.097   2.196   4.305  1.2693  0.5823  1.4995
  782MOL0     H 5511   9.306   2.413   4.319 -0.7754  1.0333 -0.7870
  782MOL0     H 5512   9.309   2.266   4.404  0.4067  1.6863  0.8005
  782MOL0     H 5513   9.331   2.145   4.184  0.3273 -0.7790  0.4028
  782MOL0     H 5514   9.358   2.308   4.103  4.1614 -3.2384 -3.2988
  782MOL0     H 5515   9.528   2.187   4.323  1.7624  2.1656  1.2136
  782MOL0     H 5516   9.572   2.185   4.158 -0.0232  0.7026 -1.8994
  782MOL0     H 5517   9.524   2.459   4.188  2.1485  1.4858 -1.2049
  782MOL0     H 5518   9.685   2.380   4.193 -0.4398 -2.6019  0.6834
  782MOL0     H 5519   9.526   2.391   4.451 -1.9111 -0.1585 -3.0799
  782MOL0     H 5520   9.700   2.380   4.431  0.8596  1.8373  0.1813
  782MOL0     H 5521   9.816   2.605   4.305 -0.4244 -0.6017  1.0915
  782MOL0     H 5522   9.694   2.955   4.189  1.5568  1.1149 -0.5646
  782MOL0     H 5523   9.837   2.900   4.265  0.0708  0.2515 -0.3344
  782MOL0     H 5524   9.866   2.722   4.078  0.2228 -0.2458  0.0243
  782MOL0     H 5525   9.725   2.800   4.002  1.4783  1.4094 -1.1179
  782MOL0     H 5526  10.004   2.925   4.058 -1.4223  1.4747  1.8577
  782MOL0     H 5527   9.866   3.005   3.979  1.3441  0.4064 -1.6540
  782MOL0     H 5528   9.862   2.830   3.805 -0.2666  0.7479  0.3830
  782MOL0     H 5529  10.019   2.771   3.859 -0.2365 -0.0303 -0.2103
  782MOL0     H 5530  10.215   2.816   3.781  0.5601 -0.7688  1.0113
  782MOL0     H 5531  10.444   2.903   3.757  0.0966 -0.9524  0.8667
  782MOL0     H 5532  10.744   3.191   3.829 -0.4339  1.2228  1.1678
  782MOL0     H 5533  10.963   3.285   3.848 -0.5793  1.3031  0.8820
  782MOL0     H 5534  11.130   3.441   3.869  2.7165 -1.1589  1.7833
  782MOL0     H 5535  11.204   3.324   3.758  1.6972  0.2013 -1.1479
  782MOL0     H 5536  11.331   3.484   3.644  1.6988 -0.7932  0.7344
  782MOL0     H 5537  11.264   3.622   3.727 -0.7158  0.2042 -0.8339
  782MOL0     H 5538  11.338   3.520   3.952  1.9020  5.0962  0.4352
  782MOL0     H 5539  11.432   3.397   3.866 -0.1551 -0.7344  0.7596
  782MOL0     H 5540  11.481   3.689   3.902 -3.2187  1.5148 -2.4168
  782MOL0     H 5541  11.534   3.609   3.754 -2.7862 -1.7323 -0.5989
  782MOL0     H 5542  11.656   3.439   3.890  0.6604 -0.2357  0.5765
  782MOL0     H 5543  11.584   3.516   4.040 -0.2116 -0.4549  0.0744
  782MOL0     H 5544  11.772   3.635   3.848 -1.8088  0.0355  0.3960
  782MOL0     H 5545  11.713   3.715   3.994  2.3096  0.7342  0.6309
  782MOL0     H 5546  11.867   3.453   4.013 -0.0574 -0.4987  1.2367
  782MOL0     H 5547  11.831   3.561   4.145  2.3270 -0.9604  0.9553
  782MOL0     H 5548  11.992   3.722   4.039 -0.6879 -1.1414 -0.1369
  782MOL0     H 5549  12.064   3.560   4.059 -1.5919 -3.5692  0.3546
  782MOL0     H 5550  10.886   3.549   3.532 -1.1511  0.4748  0.3839
  782MOL0     H 5551  10.641   3.481   3.533  0.1339 -1.0610 -0.0900
  782MOL0     H 5552  10.296   3.299   3.727  1.6149  0.1073  2.3176
  782MOL0     H 5553  10.065   3.222   3.754 -2.4083 -2.2393 -0.5452
  782MOL0     H 5554   8.682   2.516   4.613 -2.3767 -1.1553  2.0958
  782MOL0     H 5555   8.450   2.446   4.658  0.4506  0.7012  0.0846
  782MOL0     H 5556   8.093   2.197   4.584 -1.2158  1.4151  2.7698
  782MOL0     H 5557   7.864   2.128   4.600 -1.9343 -0.0514 -0.3554
  782MOL0     H 5558   7.609   2.107   4.609  2.6785 -1.7563  0.5656
  782MOL0     H 5559   7.697   2.021   4.482  0.0460 -0.2414  2.6679
  782MOL0     H 5560   7.435   2.150   4.422 -0.4574 -0.5731 -0.2375
  782MOL0     H 5561   7.452   1.979   4.461 -0.7404 -0.2949 -1.4606
  782MOL0     H 5562   7.618   2.125   4.254  0.0517  2.3034  3.4546
  782MOL0     H 5563   7.456   2.088   4.208 -0.5833  1.8176  1.6776
  782MOL0     H 5564   7.616   1.908   4.130 -2.4088  0.6124 -2.0161
  782MOL0     H 5565   7.665   1.885   4.298 -0.5232 -0.4090 -0.4618
  782MOL0     H 5566   7.282   1.696   4.292 -1.8756  0.4222 -1.6464
  782MOL0     H 5567   7.742   2.414   4.315 -2.2981  0.5252  3.0958
  782MOL0     H 5568   7.978   2.504   4.171  0.5417 -0.2870 -0.1081
  782MOL0     H 5569   7.858   2.587   4.274  0.6872  0.0204 -0.3417
  782MOL0     H 5570   8.027   2.607   4.319 -0.1368  0.9979 -0.2622
  783MOL0     O 5571   2.501   2.508   2.295 -0.4726  0.0557  0.5890
  783MOL0     C 5572   2.558   2.513   2.186 -0.1917  0.3393 -0.5455
  783MOL0     O 5573   2.503   2.551   2.065  0.1882 -0.6528  0.2778
  783MOL0     C 5574   2.364   2.559   2.049 -1.1453 -0.3585 -0.7031
  783MOL0     C 5575   2.308   2.490   1.937 -0.0388 -0.2963  0.2289
  783MOL0     C 5576   2.170   2.485   1.922 -0.0624  0.0360  0.4270
  783MOL0     C 5577   2.091   2.561   2.001  0.3983  0.5416  0.0333
  783MOL0     O 5578   1.962   2.564   1.971  0.9526  0.1971 -0.0281
  783MOL0     C 5579   1.891   2.446   2.001 -0.7520  0.5811 -0.1078
  783MOL0     C 5580   1.751   2.485   2.040 -0.5249 -0.6610  0.1091
  783MOL0     C 5581   1.672   2.585   1.947  0.9810  0.1570  0.5828
  783MOL0     C 5582   1.520   2.548   1.931  0.4416 -0.1417  0.3171
  783MOL0     C 5583   1.444   2.659   1.866  0.8524  0.4930 -0.4266
  783MOL0     C 5584   1.302   2.674   1.924 -0.2790 -0.3472 -0.6077
  783MOL0     C 5585   1.220   2.782   1.852  0.0199 -0.6713 -0.4635
  783MOL0     C 5586   1.072   2.763   1.860 -0.1687  0.1237  0.4607
  783MOL0     N 5587   1.005   2.886   1.810  0.2173  0.0919  0.1487
  783MOL0     C 5588   1.032   2.942   1.686  0.5426  0.6245 -0.3862
  783MOL0     C 5589   0.960   3.052   1.681  0.3297  0.1831 -0.4091
  783MOL0     C 5590   0.976   3.153   1.565 -0.0308 -0.6601 -0.6475
  783MOL0     C 5591   0.989   3.297   1.622  0.4992  0.0047  0.0632
  783MOL0     C 5592   1.107   3.313   1.719 -0.2246  0.1977 -0.1005
  783MOL0     C 5593   1.131   3.465   1.754  0.4809  0.2250  0.1062
  783MOL0     O 5594   1.182   3.489   1.890 -0.0342 -0.0777  0.2522
  783MOL0     C 5595   1.319   3.486   1.891 -0.4691  0.1141  0.3328
  783MOL0     C 5596   1.410   3.411   1.810  1.3450 -0.1879 -0.3728
  783MOL0     C 5597   1.545   3.412   1.835  0.2521 -0.5952 -0.4337
  783MOL0     C 5598   1.605   3.484   1.945  0.0918 -0.5674 -0.0702
  783MOL0     C 5599   1.752   3.488   1.966 -0.2778  0.2488  0.4904
  783MOL0     O 5600   1.840   3.453   1.860 -0.3393 -0.7666  0.4355
  783MOL0     C 5601   1.979   3.437   1.879  1.1151  0.3574 -0.2680
  783MOL0     C 5602   2.039   3.373   1.992  0.5477 -0.5393 -0.5530
  783MOL0     C 5603   2.166   3.334   2.002  0.2075  0.3033 -0.9800
  783MOL0     C 5604   2.258   3.359   1.904 -0.5609 -0.8044 -0.9343
  783MOL0     O 5605   2.390   3.322   1.909  0.3065 -0.3090 -0.4217
  783MOL0     C 5606   2.456   3.313   1.786 -0.4695  0.0143  0.3867
  783MOL0     C 5607   2.594   3.241   1.793  0.4256 -0.4474  0.3538
  783MOL0     C 5608   2.707   3.324   1.841  0.4062 -0.9532  0.5662
  783MOL0     C 5609   2.845   3.252   1.844 -0.3834 -0.0997  0.4954
  783MOL0     C 5610   2.960   3.348   1.889  0.8399 -0.3766 -0.6661
  783MOL0     C 5611   3.093   3.266   1.898 -0.2618 -0.6745  0.3006
  783MOL0     C 5612   3.210   3.354   1.952  0.3571  0.0819  0.1192
  783MOL0     C 5613   3.345   3.315   1.892 -0.5596 -0.4242  0.2925
  783MOL0    Cl 5614   3.494   3.348   1.989 -0.3517  0.1864 -0.3888
  783MOL0     C 5615   2.203   3.429   1.796  0.2550  0.5903  0.1028
  783MOL0     C 5616   2.067   3.472   1.780 -0.2666 -0.0407 -1.1369
  783MOL0     O 5617   1.781   3.499   2.086 -0.2423 -0.6468  0.9889
  783MOL0     C 5618   1.514   3.554   2.027  0.5544 -0.0470 -0.0354
  783MOL0     C 5619   1.375   3.555   2.005 -0.2189 -1.2513 -0.0691
  783MOL0     N 5620   0.895   3.064   1.807 -0.0122  0.1618 -0.2815
  783MOL0     N 5621   0.932   2.970   1.884  0.0204  0.3902  0.3990
  783MOL0     C 5622   2.143   2.630   2.107 -0.0926  0.2344 -0.3382
  783MOL0     C 5623   2.281   2.621   2.143  0.8129  0.2938 -0.0813
  783MOL0     C 5624   2.708   2.488   2.185  0.4092  0.6487 -0.3120
  783MOL0     C 5625   2.789   2.535   2.081 -0.4033 -0.4405  0.3523
  783MOL0     C 5626   2.924   2.511   2.068 -0.3811 -0.4906  0.1011
  783MOL0     C 5627   2.994   2.438   2.163  0.4916 -0.3134  0.4235
  783MOL0     O 5628   3.123   2.401   2.143  0.0457  0.1384  0.3788
  783MOL0     C 5629   3.204   2.463   2.042  0.0707  0.1318  0.3016
  783MOL0     C 5630   3.347   2.427   2.048 -0.0189 -0.1000  0.0934
  783MOL0     C 5631   3.423   2.517   1.962 -0.1693 -0.6445  0.4339
  783MOL0     C 5632   3.565   2.486   1.923 -0.3052 -0.1525 -0.2285
  783MOL0     C 5633   3.640   2.454   2.047  0.4919 -0.3909 -0.5599
  783MOL0     C 5634   3.701   2.420   2.146 -0.3448 -1.5683  0.7241
  783MOL0     C 5635   2.913   2.389   2.263 -0.0826 -0.1537  0.3927
  783MOL0     C 5636   2.774   2.414   2.277 -0.5495 -0.6613  0.5989
  783MOL0     C 5637   2.713   2.351   2.405 -0.3482 -0.4804 -0.3917
  783MOL0     H 5638   2.377   2.432   1.876 -1.5395  0.9232 -2.8121
  783MOL0     H 5639   2.143   2.419   1.841 -1.4186 -3.2443  3.3124
  783MOL0     H 5640   1.879   2.375   1.918 -3.3454 -0.0285  0.6883
  783MOL0     H 5641   1.931   2.387   2.084 -1.2873 -0.5188 -0.6068
  783MOL0     H 5642   1.747   2.522   2.143 -1.5012  3.9720 -1.3758
  783MOL0     H 5643   1.690   2.395   2.049 -1.6966  0.1069 -0.0236
  783MOL0     H 5644   1.725   2.571   1.853  0.6763 -0.6283  0.5232
  783MOL0     H 5645   1.691   2.689   1.974 -1.8233  1.4146 -1.7938
  783MOL0     H 5646   1.492   2.458   1.877 -0.1526 -0.1635  0.6566
  783MOL0     H 5647   1.483   2.537   2.034 -1.2181  1.1224 -0.0983
  783MOL0     H 5648   1.498   2.754   1.868  1.8137 -0.0464  0.3968
  783MOL0     H 5649   1.436   2.628   1.761 -2.2349  0.4762 -0.2748
  783MOL0     H 5650   1.246   2.580   1.917  1.5582 -1.4123 -1.7668
  783MOL0     H 5651   1.313   2.705   2.028 -2.3015 -2.1898  0.2429
  783MOL0     H 5652   1.254   2.775   1.748  0.8722 -1.7684 -0.1405
  783MOL0     H 5653   1.228   2.887   1.879 -1.2497  0.0211 -2.5474
  783MOL0     H 5654   1.056   2.670   1.805  0.8256  1.0724 -1.5543
  783MOL0     H 5655   1.042   2.755   1.965  0.4540  2.7033  0.9243
  783MOL0     H 5656   1.081   2.898   1.600  1.5529  0.0753  0.4436
  783MOL0     H 5657   1.068   3.126   1.511  0.2811 -2.5175  0.7116
  783MOL0     H 5658   0.889   3.157   1.499  0.3057  4.3348 -1.1436
  783MOL0     H 5659   1.002   3.364   1.536  2.2240  1.5044  1.3884
  783MOL0     H 5660   0.893   3.324   1.667 -0.1964 -0.8408 -0.8684
  783MOL0     H 5661   1.191   3.278   1.659 -0.4855  1.1319 -1.0623
  783MOL0     H 5662   1.096   3.254   1.810  1.8221 -2.0317 -1.2182
  783MOL0     H 5663   1.032   3.510   1.753 -0.3070 -1.3824 -1.9639
  783MOL0     H 5664   1.195   3.522   1.685  0.2857 -0.3773 -0.5800
  783MOL0     H 5665   1.381   3.347   1.728  2.1465 -0.7706 -0.1988
  783MOL0     H 5666   1.606   3.359   1.763  0.1301 -1.0312 -0.2141
  783MOL0     H 5667   1.969   3.350   2.072 -2.5691  2.6642 -2.0722
  783MOL0     H 5668   2.186   3.283   2.096  2.6750 -0.7824 -2.0093
  783MOL0     H 5669   2.391   3.258   1.717 -2.2867 -0.9499  2.7114
  783MOL0     H 5670   2.470   3.418   1.760 -2.1418  0.7439  2.1904
  783MOL0     H 5671   2.592   3.154   1.860  3.0303  0.7189  2.0972
  783MOL0     H 5672   2.614   3.199   1.694 -1.2218 -1.4276  0.3954
  783MOL0     H 5673   2.717   3.419   1.788  1.3251 -0.8413  0.9138
  783MOL0     H 5674   2.682   3.349   1.945 -0.0261 -2.1151  0.7483
  783MOL0     H 5675   2.879   3.221   1.745 -0.8540  0.6540  0.0955
  783MOL0     H 5676   2.839   3.154   1.894 -0.1590 -1.3448 -1.7894
  783MOL0     H 5677   2.934   3.388   1.988 -2.9541  1.1570 -2.0795
  783MOL0     H 5678   2.959   3.437   1.826 -1.7587  0.6653  0.7016
  783MOL0     H 5679   3.096   3.182   1.968 -0.2444  1.0550  2.4603
  783MOL0     H 5680   3.122   3.231   1.798 -0.2527  0.0069  0.0608
  783MOL0     H 5681   3.209   3.346   2.061 -0.1709 -0.9507  0.0486
  783MOL0     H 5682   3.197   3.461   1.932  3.4171  0.2811 -1.3513
  783MOL0     H 5683   3.345   3.207   1.874 -2.2053 -0.7507  2.0340
  783MOL0     H 5684   3.352   3.371   1.798  1.0631  0.0229  0.6424
  783MOL0     H 5685   2.264   3.457   1.710  0.7805 -1.5889 -0.2815
  783MOL0     H 5686   2.022   3.516   1.692 -2.4379 -3.4106 -1.9057
  783MOL0     H 5687   1.548   3.617   2.108 -2.7099  0.7335  0.9011
  783MOL0     H 5688   1.320   3.617   2.075 -2.0565 -2.0005 -0.7926
  783MOL0     H 5689   2.083   2.695   2.170  0.5371  1.6491 -1.1497
  783MOL0     H 5690   2.316   2.655   2.240  2.3432 -2.0574  0.2561
  783MOL0     H 5691   2.756   2.599   1.999 -0.3903  2.8833  2.7407
  783MOL0     H 5692   2.966   2.554   1.978  1.2100  1.4203  1.6691
  783MOL0     H 5693   3.196   2.572   2.052  2.3803  0.4275 -0.4527
  783MOL0     H 5694   3.177   2.432   1.941  2.0251  1.5131 -0.7143
  783MOL0     H 5695   3.362   2.325   2.013  0.1879  0.0846 -0.3611
  783MOL0     H 5696   3.377   2.428   2.154  1.0359 -2.4758 -0.1269
  783MOL0     H 5697   3.415   2.616   2.006 -0.7308 -0.2753 -0.4662
  783MOL0     H 5698   3.370   2.530   1.867  0.8855  1.1072  0.0474
  783MOL0     H 5699   3.556   2.395   1.864 -0.2853  0.1715 -0.7404
  783MOL0     H 5700   3.610   2.569   1.866  1.2691  0.5869  1.9558
  783MOL0     H 5701   3.774   2.381   2.214  1.6630 -0.3368 -0.6356
  783MOL0     H 5702   2.961   2.314   2.325 -0.0322 -1.1085 -0.7792
  783MOL0     H 5703   2.785   2.283   2.451 -1.2065 -0.2692  1.3423
  783MOL0     H 5704   2.692   2.434   2.472 -1.0963 -0.7961 -0.2320
  783MOL0     H 5705   2.615   2.305   2.394 -1.0376 -0.0010  2.8931
  784MOL0     O 5706   5.896   1.904   1.504  0.2386  0.8090  0.4746
  784MOL0     C 5707   5.884   2.001   1.580  0.2931 -0.6677  0.1286
  784MOL0     O 5708   5.766   2.032   1.652  0.2407 -0.3678 -0.5808
  784MOL0     C 5709   5.645   1.971   1.628 -0.7477  0.2764  0.2348
  784MOL0     C 5710   5.570   1.931   1.734  0.8638  0.0092 -0.7546
  784MOL0     C 5711   5.438   1.885   1.711 -0.5694 -0.7646 -0.5770
  784MOL0     C 5712   5.390   1.893   1.579  0.4310 -0.7025 -0.6598
  784MOL0     O 5713   5.265   1.856   1.548 -0.3150 -0.2168 -0.7680
  784MOL0     C 5714   5.159   1.936   1.604 -0.1411 -0.2389  0.6736
  784MOL0     C 5715   5.050   1.938   1.494  0.0268  0.6547 -0.0679
  784MOL0     C 5716   5.099   1.981   1.351  0.0028 -0.0897  0.3065
  784MOL0     C 5717   4.978   2.009   1.259 -0.2845  0.0759 -0.2887
  784MOL0     C 5718   5.011   2.084   1.123  0.0271 -0.4413 -0.6900
  784MOL0     C 5719   5.110   2.005   1.043  0.0273  0.1884 -0.4489
  784MOL0     C 5720   5.173   2.072   0.917  0.1776 -0.2022  0.2743
  784MOL0     C 5721   5.286   2.167   0.966  0.4853  0.1558 -0.0408
  784MOL0     N 5722   5.413   2.100   1.012 -0.2723 -0.1818 -0.1581
  784MOL0     C 5723   5.506   2.022   0.939  0.3130  0.2208 -0.0835
  784MOL0     C 5724   5.610   2.013   1.024 -0.2145 -0.5388  0.8352
  784MOL0     C 5725   5.736   1.935   0.992 -0.0782  0.3054  0.1045
  784MOL0     C 5726   5.716   1.780   1.004  0.0970 -0.5890  0.6252
  784MOL0     C 5727   5.684   1.738   1.148  0.3766  0.0089  0.0108
  784MOL0     C 5728   5.812   1.724   1.226  0.5523 -0.5220  0.6317
  784MOL0     O 5729   5.892   1.615   1.170  0.3681  0.4730  0.4353
  784MOL0     C 5730   6.025   1.606   1.197 -0.2208  0.2323  0.1779
  784MOL0     C 5731   6.108   1.532   1.104 -0.0100 -0.0490  0.2067
  784MOL0     C 5732   6.241   1.512   1.129  0.2528 -0.2209 -0.0424
  784MOL0     C 5733   6.298   1.559   1.250 -1.4600 -0.9148  0.0900
  784MOL0     C 5734   6.434   1.519   1.299 -0.7705 -0.2636  1.3740
  784MOL0     O 5735   6.516   1.439   1.211  0.3395  0.0086  0.5645
  784MOL0     C 5736   6.638   1.381   1.250 -0.0220  0.0030 -0.4448
  784MOL0     C 5737   6.741   1.367   1.166 -0.2588 -0.0333  0.1711
  784MOL0     C 5738   6.865   1.316   1.197 -0.3196  0.6484  1.1694
  784MOL0     C 5739   6.885   1.289   1.334 -1.3286  0.3869  0.0069
  784MOL0     O 5740   7.013   1.254   1.362 -0.4228  0.1966  0.0294
  784MOL0     C 5741   7.052   1.233   1.503 -0.5371  0.2702 -0.0039
  784MOL0     C 5742   7.199   1.212   1.519  0.6852  0.4716  0.0179
  784MOL0     C 5743   7.253   1.069   1.490  0.2657 -0.8120 -0.7640
  784MOL0     C 5744   7.223   0.958   1.602  0.4237  0.0605  0.1251
  784MOL0     C 5745   7.298   0.985   1.732  0.0041 -0.0342 -0.7982
  784MOL0     C 5746   7.266   0.862   1.825  0.4187  0.7805 -0.5906
  784MOL0     C 5747   7.338   0.877   1.962 -0.4305  0.2232 -0.0314
  784MOL0     C 5748   7.279   0.780   2.063 -0.4512  0.5885 -0.1584
  784MOL0    Cl 5749   7.129   0.856   2.128  0.0999  0.1745 -0.4291
  784MOL0     C 5750   6.786   1.302   1.433 -0.2853  0.1347 -0.1503
  784MOL0     C 5751   6.664   1.348   1.384 -0.2798 -0.1059 -0.3388
  784MOL0     O 5752   6.460   1.550   1.413 -0.4406  0.0007 -0.0849
  784MOL0     C 5753   6.218   1.632   1.340  0.5435 -0.0617 -0.9205
  784MOL0     C 5754   6.087   1.662   1.306 -0.3425 -0.2012 -0.5484
  784MOL0     N 5755   5.586   2.078   1.145 -1.0018  0.4615 -0.0317
  784MOL0     N 5756   5.474   2.136   1.133 -0.4129  0.0021 -0.5721
  784MOL0     C 5757   5.468   1.924   1.474  0.3779 -0.8582 -0.4277
  784MOL0     C 5758   5.597   1.970   1.494 -0.2914  0.7460  0.0421
  784MOL0     C 5759   6.005   2.075   1.617 -0.7910  0.4857  0.1898
  784MOL0     C 5760   5.989   2.203   1.641 -0.4453  0.0470  0.3407
  784MOL0     C 5761   6.093   2.289   1.679 -0.4322 -0.9171  0.6827
  784MOL0     C 5762   6.223   2.244   1.690  0.6267 -0.0931 -0.5896
  784MOL0     O 5763   6.312   2.338   1.713 -0.5512 -0.0892 -0.1193
  784MOL0     C 5764   6.448   2.305   1.736  0.3904  0.1155  0.3922
  784MOL0     C 5765   6.515   2.426   1.811 -0.8981 -0.0578 -0.6628
  784MOL0     C 5766   6.667   2.428   1.791  0.5593 -0.4830 -0.9096
  784MOL0     C 5767   6.746   2.320   1.870 -0.3733  0.1651 -0.6971
  784MOL0     C 5768   6.884   2.305   1.822 -0.0604  1.0088 -0.3491
  784MOL0     C 5769   6.998   2.304   1.784 -0.1625 -0.4910  0.2201
  784MOL0     C 5770   6.241   2.105   1.670  0.7814 -0.2935  0.2586
  784MOL0     C 5771   6.134   2.019   1.635  0.1218 -0.1048 -0.0070
  784MOL0     C 5772   6.167   1.881   1.625  0.3651 -0.1847  0.1181
  784MOL0     H 5773   5.620   1.933   1.831  0.9209 -0.5544 -0.7684
  784MOL0     H 5774   5.373   1.851   1.791 -0.3810 -0.0723 -0.1162
  784MOL0     H 5775   5.120   1.885   1.692 -0.4896 -3.0239 -0.9475
  784MOL0     H 5776   5.194   2.036   1.632  1.5057 -0.8948  1.0908
  784MOL0     H 5777   4.978   2.013   1.526 -1.2617 -0.6143  0.1293
  784MOL0     H 5778   5.001   1.841   1.482 -2.1991  1.9625 -2.4772
  784MOL0     H 5779   5.149   1.896   1.304 -0.4659 -0.0874 -0.2127
  784MOL0     H 5780   5.165   2.068   1.362 -0.6952  0.9084 -2.3795
  784MOL0     H 5781   4.923   1.915   1.251 -0.8178  0.3688 -0.0692
  784MOL0     H 5782   4.916   2.081   1.313 -0.5745 -0.3371 -0.0620
  784MOL0     H 5783   4.921   2.089   1.062 -0.2383 -2.0311 -0.4722
  784MOL0     H 5784   5.040   2.189   1.134  0.4270 -0.3625 -2.2253
  784MOL0     H 5785   5.195   1.974   1.105  0.1385  2.4214  0.6349
  784MOL0     H 5786   5.046   1.920   1.017 -0.3217 -0.5114  2.3303
  784MOL0     H 5787   5.101   2.126   0.856 -0.1448  0.3340  1.1107
  784MOL0     H 5788   5.214   1.995   0.851 -0.2648  2.3659 -3.2356
  784MOL0     H 5789   5.310   2.236   0.884 -3.3802  0.2647 -1.2684
  784MOL0     H 5790   5.255   2.234   1.047 -0.4661 -3.0157  2.4218
  784MOL0     H 5791   5.498   1.978   0.840  0.5636  2.7326 -1.3105
  784MOL0     H 5792   5.770   1.954   0.890  0.2778  2.7608  0.6173
  784MOL0     H 5793   5.813   1.966   1.064 -1.7838  0.8748  1.7692
  784MOL0     H 5794   5.623   1.755   0.952  0.4618 -0.2659 -0.1916
  784MOL0     H 5795   5.804   1.728   0.965  0.2594 -1.4038  2.0111
  784MOL0     H 5796   5.618   1.650   1.150 -0.2904  0.4672  2.7939
  784MOL0     H 5797   5.618   1.813   1.192 -1.2841  1.1823 -4.0328
  784MOL0     H 5798   5.796   1.694   1.330 -0.9220 -3.1346 -0.2549
  784MOL0     H 5799   5.868   1.817   1.236 -1.2701  0.6029  0.6472
  784MOL0     H 5800   6.062   1.502   1.011 -2.9231 -1.5900  1.9872
  784MOL0     H 5801   6.305   1.455   1.063  0.5517  0.1875 -0.1074
  784MOL0     H 5802   6.726   1.402   1.065  2.2260 -3.7898 -1.7567
  784MOL0     H 5803   6.944   1.300   1.125 -1.4267  2.7559 -0.6194
  784MOL0     H 5804   7.029   1.320   1.565  0.6280  1.0526 -0.6298
  784MOL0     H 5805   6.991   1.152   1.546 -1.4089  0.0205 -1.6036
  784MOL0     H 5806   7.247   1.297   1.469 -0.7865  2.3094  1.5324
  784MOL0     H 5807   7.209   1.228   1.626  1.2851 -1.2390  0.2378
  784MOL0     H 5808   7.220   1.042   1.389  2.5074 -1.2930 -1.4266
  784MOL0     H 5809   7.362   1.078   1.483  0.1711  3.1253  0.4031
  784MOL0     H 5810   7.254   0.858   1.570 -2.2911 -2.4268  4.2414
  784MOL0     H 5811   7.117   0.950   1.624  0.6287 -1.9443  0.6131
  784MOL0     H 5812   7.263   1.074   1.787  0.2765 -0.6950  0.4880
  784MOL0     H 5813   7.405   0.982   1.711  0.2003 -3.4392  0.1374
  784MOL0     H 5814   7.159   0.854   1.847  0.0185  1.5290 -2.0726
  784MOL0     H 5815   7.292   0.764   1.784  1.4782  1.7537 -2.3816
  784MOL0     H 5816   7.325   0.979   1.999 -1.6515 -0.5238  1.7018
  784MOL0     H 5817   7.443   0.858   1.936 -1.1078 -1.2290 -1.9676
  784MOL0     H 5818   7.252   0.684   2.019  1.1563 -0.5925  1.2772
  784MOL0     H 5819   7.352   0.764   2.142  0.7376 -0.9719 -1.5083
  784MOL0     H 5820   6.804   1.298   1.540  2.5037  0.1352 -0.5242
  784MOL0     H 5821   6.588   1.360   1.460 -0.0846  0.7423 -0.2634
  784MOL0     H 5822   6.261   1.672   1.431  1.2133 -2.3197 -0.1602
  784MOL0     H 5823   6.031   1.701   1.390  1.4946 -0.4040  0.8314
  784MOL0     H 5824   5.431   1.924   1.372  0.9832  0.4639 -0.6822
  784MOL0     H 5825   5.664   1.998   1.413  2.3344 -2.3603  0.9374
  784MOL0     H 5826   5.889   2.245   1.641 -0.0680  0.9759 -0.5121
  784MOL0     H 5827   6.067   2.392   1.702  0.7018 -0.4510 -0.0858
  784MOL0     H 5828   6.491   2.278   1.640 -0.6786 -1.7528  0.3822
  784MOL0     H 5829   6.458   2.216   1.800 -2.5745 -1.1024 -0.6495
  784MOL0     H 5830   6.494   2.417   1.918  0.8205  1.4451 -0.1397
  784MOL0     H 5831   6.472   2.524   1.790 -1.8863 -0.7386 -1.9257
  784MOL0     H 5832   6.703   2.525   1.825 -1.2013 -0.6649  1.8108
  784MOL0     H 5833   6.684   2.409   1.684 -0.8721 -1.6180 -0.9706
  784MOL0     H 5834   6.742   2.339   1.978  1.8554 -0.8450 -0.3750
  784MOL0     H 5835   6.687   2.229   1.856 -2.1865  1.2022 -0.1513
  784MOL0     H 5836   7.101   2.307   1.756  0.6823  1.3840  3.0919
  784MOL0     H 5837   6.346   2.079   1.677  1.1782  1.0053 -0.6599
  784MOL0     H 5838   6.154   1.861   1.518  0.7493  2.1956 -0.4388
  784MOL0     H 5839   6.268   1.851   1.654 -0.0305  0.3790  2.1772
  784MOL0     H 5840   6.103   1.814   1.683 -1.3341 -0.0309 -1.4790
  785MOL0     O 5841   6.893  10.335   1.717 -0.7425  0.3393 -0.3552
  785MOL0     C 5842   6.893  10.280   1.605  1.1052 -0.1677  0.0543
  785MOL0     O 5843   7.001  10.230   1.543  0.5092  0.2012 -0.5861
  785MOL0     C 5844   7.131  10.271   1.590  1.1212  0.6814 -0.7023
  785MOL0     C 5845   7.222  10.178   1.643  0.2434  0.9713  0.5305
  785MOL0     C 5846   7.345  10.230   1.687 -0.7216 -0.0053 -0.1127
  785MOL0     C 5847   7.373  10.370   1.694  0.7314  1.4042  0.0328
  785MOL0     O 5848   7.484  10.414   1.754  0.2531 -0.5621  0.6097
  785MOL0     C 5849   7.572  10.319   1.818 -0.6053 -0.7485 -0.1305
  785MOL0     C 5850   7.675  10.405   1.887 -0.8577  0.4480 -0.1483
  785MOL0     C 5851   7.605  10.479   2.000 -0.0159 -0.7454 -0.5180
  785MOL0     C 5852   7.696  10.539   2.109  0.4520 -0.8228 -0.0738
  785MOL0     C 5853   7.798  10.631   2.045 -0.5789 -0.2309 -0.3004
  785MOL0     C 5854   7.871  10.718   2.146 -0.2714 -0.6217 -0.0230
  785MOL0     C 5855   7.948  10.822   2.066 -0.5385  0.2901 -0.3630
  785MOL0     C 5856   7.998  10.929   2.159  0.2192  0.5515 -0.1296
  785MOL0     N 5857   8.051  11.038   2.087 -0.4493  0.3923  0.0370
  785MOL0     C 5858   7.984  11.135   2.013 -0.5256 -0.5531 -1.0198
  785MOL0     C 5859   8.076  11.204   1.944 -0.4223 -0.8605 -0.5219
  785MOL0     C 5860   8.043  11.319   1.853 -0.2028 -0.0746  0.1465
  785MOL0     C 5861   8.118  11.454   1.870  0.7242 -0.2681  0.7024
  785MOL0     C 5862   8.112  11.524   1.733 -0.3929 -0.5613 -0.2124
  785MOL0     C 5863   8.173  11.670   1.723  0.5436 -0.1470 -0.5352
  785MOL0     O 5864   8.313  11.663   1.734  0.3826 -0.2789  0.0714
  785MOL0     C 5865   8.384  11.779   1.709 -0.0017  0.3837  0.0682
  785MOL0     C 5866   8.510  11.770   1.761  0.2490 -0.9014  0.6727
  785MOL0     C 5867   8.596  11.885   1.774 -0.0187 -0.3524 -0.8270
  785MOL0     C 5868   8.546  12.012   1.721 -1.2052 -0.0148 -0.6070
  785MOL0     C 5869   8.629  12.135   1.709  0.4489 -0.0634  0.0372
  785MOL0     O 5870   8.766  12.118   1.720 -0.2847 -0.5428 -0.5189
  785MOL0     C 5871   8.845  12.234   1.709  0.3751  0.4585 -0.0826
  785MOL0     C 5872   8.867  12.322   1.816  0.7673 -0.2671  1.0711
  785MOL0     C 5873   8.957  12.429   1.797  0.3829  0.1350  0.0286
  785MOL0     C 5874   9.046  12.437   1.686  0.8707  0.5489  0.3951
  785MOL0     O 5875   9.134  12.534   1.682  0.1280 -0.1860  0.3768
  785MOL0     C 5876   9.239  12.527   1.591  0.4506  0.1908 -0.7947
  785MOL0     C 5877   9.340  12.630   1.652 -0.4391  0.1998 -0.0347
  785MOL0     C 5878   9.484  12.607   1.591 -0.2749  0.4059 -1.0262
  785MOL0     C 5879   9.562  12.740   1.599  0.1263  0.3420 -0.0841
  785MOL0     C 5880   9.710  12.741   1.555 -0.4716 -0.1053 -0.3267
  785MOL0     C 5881   9.703  12.720   1.398 -0.0830  0.2373 -0.8152
  785MOL0     C 5882   9.799  12.818   1.332  0.6648  0.8500 -0.5471
  785MOL0     C 5883   9.785  12.824   1.184 -0.3203  0.6466 -0.0722
  785MOL0    Cl 5884   9.836  12.666   1.111  0.3158 -0.2729 -0.3748
  785MOL0     C 5885   9.011  12.347   1.583 -0.8469 -0.8203 -0.1532
  785MOL0     C 5886   8.920  12.250   1.593  0.2896  0.0349 -0.3216
  785MOL0     O 5887   8.572  12.244   1.676  0.4384  0.2603 -0.0792
  785MOL0     C 5888   8.409  12.014   1.680 -0.3566 -0.3204  0.7987
  785MOL0     C 5889   8.328  11.909   1.673  0.0908  0.6066  0.1290
  785MOL0     N 5890   8.198  11.154   1.977  0.2058 -0.3358  0.8920
  785MOL0     N 5891   8.178  11.053   2.053 -0.4956 -0.6410 -0.0189
  785MOL0     C 5892   7.274  10.459   1.628 -0.4781 -0.7968  0.2524
  785MOL0     C 5893   7.154  10.403   1.580 -0.7558  0.2949 -0.7358
  785MOL0     C 5894   6.767  10.272   1.528  0.5035  0.6659  0.1470
  785MOL0     C 5895   6.770  10.254   1.390  1.0972  0.1977  0.3765
  785MOL0     C 5896   6.656  10.256   1.308  0.4309 -0.1096  0.9298
  785MOL0     C 5897   6.528  10.269   1.360  0.6419 -0.3293 -0.6516
  785MOL0     O 5898   6.405  10.271   1.303 -0.3246 -0.0262  0.4110
  785MOL0     C 5899   6.392  10.222   1.171  0.0058  0.8590  0.4850
  785MOL0     C 5900   6.279  10.298   1.101 -0.2409  0.0438  0.1018
  785MOL0     C 5901   6.135  10.301   1.162 -0.3752 -0.2943 -0.1382
  785MOL0     C 5902   6.035  10.375   1.077  0.1738  0.2520  0.4970
  785MOL0     C 5903   6.079  10.519   1.047 -0.3494  0.7989 -0.2887
  785MOL0     C 5904   6.133  10.628   1.026  0.4987  0.0838  0.3237
  785MOL0     C 5905   6.518  10.282   1.500 -0.8581  0.3128 -0.3481
  785MOL0     C 5906   6.630  10.296   1.582 -0.8983  0.3788  0.6418
  785MOL0     C 5907   6.592  10.330   1.725 -0.0126  0.2181 -0.1281
  785MOL0     H 5908   7.197  10.073   1.655 -0.2092  1.0202  0.0271
  785MOL0     H 5909   7.415  10.161   1.732  0.6432  1.8609  0.7385
  785MOL0     H 5910   7.521  10.250   1.886 -0.4277  0.3958  1.2087
  785MOL0     H 5911   7.627  10.261   1.745  0.3442  2.1294 -1.8638
  785MOL0     H 5912   7.712  10.482   1.819 -1.3959  1.3723  0.5797
  785MOL0     H 5913   7.760  10.349   1.926 -1.0140  1.4400  1.7243
  785MOL0     H 5914   7.531  10.415   2.050  0.6153  0.7526  2.5706
  785MOL0     H 5915   7.556  10.563   1.950 -1.2538 -0.8030  0.5184
  785MOL0     H 5916   7.634  10.598   2.177  0.6421 -1.6700  0.8697
  785MOL0     H 5917   7.746  10.463   2.170  0.7171 -0.2528  0.4214
  785MOL0     H 5918   7.877  10.579   1.989  2.0223  3.9196 -0.8640
  785MOL0     H 5919   7.743  10.702   1.983 -1.0817  0.6221  1.0863
  785MOL0     H 5920   7.801  10.774   2.209 -1.7642 -0.8286 -1.4288
  785MOL0     H 5921   7.938  10.654   2.205 -3.0082 -0.3742  3.7121
  785MOL0     H 5922   7.881  10.872   1.995 -1.0182  2.1915  1.3445
  785MOL0     H 5923   8.025  10.769   2.009  2.5362  0.4859  3.2687
  785MOL0     H 5924   7.918  10.953   2.230 -0.6587 -4.2241  0.8550
  785MOL0     H 5925   8.077  10.884   2.220  0.7200 -1.6587 -2.2782
  785MOL0     H 5926   7.877  11.153   2.017 -0.2950  0.7940 -0.2588
  785MOL0     H 5927   8.067  11.280   1.754 -2.1757  2.5531 -1.4662
  785MOL0     H 5928   7.935  11.327   1.865 -0.2920 -1.5724  0.5351
  785MOL0     H 5929   8.081  11.516   1.953  3.4880  1.0049  1.0883
  785MOL0     H 5930   8.221  11.431   1.895  1.0728  3.3229  3.4509
  785MOL0     H 5931   8.005  11.540   1.716 -0.6591 -1.1906  0.7871
  785MOL0     H 5932   8.168  11.471   1.656 -0.6544 -3.0343  1.1863
  785MOL0     H 5933   8.136  11.733   1.805 -2.7042 -2.5460  0.0598
  785MOL0     H 5934   8.140  11.706   1.625 -0.2595 -1.2996 -0.7150
  785MOL0     H 5935   8.542  11.672   1.797 -1.4286 -1.3241  1.1178
  785MOL0     H 5936   8.697  11.868   1.810 -0.3090  1.5833  1.1707
  785MOL0     H 5937   8.820  12.300   1.911  2.4008 -2.6929  1.3976
  785MOL0     H 5938   8.976  12.495   1.881 -0.8982  0.0565  0.4029
  785MOL0     H 5939   9.281  12.427   1.584  0.4275  0.0021  1.2135
  785MOL0     H 5940   9.200  12.550   1.491  1.4205  2.4238 -0.7266
  785MOL0     H 5941   9.302  12.728   1.620 -0.4133  0.4696  0.7359
  785MOL0     H 5942   9.342  12.620   1.761 -1.4129  0.0077 -0.0263
  785MOL0     H 5943   9.544  12.533   1.646 -0.3602  0.1273 -1.3031
  785MOL0     H 5944   9.482  12.566   1.490  0.4733  0.6406 -1.1402
  785MOL0     H 5945   9.559  12.768   1.705 -4.7787 -1.5118  0.4871
  785MOL0     H 5946   9.510  12.816   1.540  0.3342  0.3623 -0.2419
  785MOL0     H 5947   9.771  12.661   1.598 -0.1500 -0.6871 -1.7826
  785MOL0     H 5948   9.750  12.836   1.592 -2.0522  0.1893  0.7278
  785MOL0     H 5949   9.728  12.616   1.377 -0.9027 -0.5152  1.6187
  785MOL0     H 5950   9.598  12.739   1.373 -1.0007  1.8906  3.3797
  785MOL0     H 5951   9.905  12.801   1.352 -0.0265 -0.2216  2.6473
  785MOL0     H 5952   9.774  12.920   1.364 -3.2090  0.0364 -0.5094
  785MOL0     H 5953   9.682  12.841   1.151 -0.2685 -0.4036 -0.8530
  785MOL0     H 5954   9.847  12.905   1.144 -1.1223 -0.5013 -4.0991
  785MOL0     H 5955   9.076  12.351   1.496 -0.9770 -1.4007 -0.2808
  785MOL0     H 5956   8.920  12.180   1.510 -0.5238  1.1163 -1.2718
  785MOL0     H 5957   8.365  12.108   1.647  0.5979 -0.1320 -0.0225
  785MOL0     H 5958   8.225  11.935   1.649 -0.1961  0.8649  1.5509
  785MOL0     H 5959   7.291  10.567   1.626  0.0745 -0.8375  1.7789
  785MOL0     H 5960   7.081  10.467   1.532 -0.1616  0.0210 -2.0455
  785MOL0     H 5961   6.863  10.242   1.336 -0.2040 -1.4508 -1.6653
  785MOL0     H 5962   6.661  10.258   1.200 -3.7223  1.6776  0.5651
  785MOL0     H 5963   6.376  10.114   1.173 -4.8438  1.2326 -2.1787
  785MOL0     H 5964   6.480  10.237   1.109  0.9475 -0.0506  1.5496
  785MOL0     H 5965   6.266  10.264   0.998 -1.8187 -0.3884  0.4190
  785MOL0     H 5966   6.320  10.396   1.077 -1.3228  0.6908  0.8220
  785MOL0     H 5967   6.131  10.349   1.261 -1.8044  3.4246 -1.7982
  785MOL0     H 5968   6.096  10.200   1.177 -2.1917  0.6314  2.1647
  785MOL0     H 5969   6.001  10.322   0.987  0.9221  1.2660 -0.4170
  785MOL0     H 5970   5.948  10.394   1.140  0.9662  1.4228  1.2773
  785MOL0     H 5971   6.183  10.718   0.996  0.1553 -0.1065 -0.8741
  785MOL0     H 5972   6.422  10.296   1.548 -1.0250  0.2383 -0.6521
  785MOL0     H 5973   6.484  10.333   1.738  0.0265  1.4297  0.0330
  785MOL0     H 5974   6.631  10.253   1.792  0.3230  0.2588 -0.2701
  785MOL0     H 5975   6.648  10.423   1.740  0.4690 -0.0906  0.0026
  786MOL0     O 5976   6.232   5.437   8.574  0.3196 -0.2946 -0.5944
  786MOL0     C 5977   6.176   5.432   8.459 -0.8428 -0.3186  0.2164
  786MOL0     O 5978   6.229   5.480   8.341  0.5816  0.4724  0.1606
  786MOL0     C 5979   6.353   5.528   8.337 -0.3680 -0.4218 -0.0285
  786MOL0     C 5980   6.464   5.457   8.379  0.1859  0.3125 -0.1240
  786MOL0     C 5981   6.590   5.519   8.366 -0.1447 -0.0416 -0.1963
  786MOL0     C 5982   6.603   5.647   8.318  0.2746 -0.6929  0.0783
  786MOL0     O 5983   6.725   5.707   8.299  0.4664 -0.1663 -0.7176
  786MOL0     C 5984   6.792   5.640   8.192 -0.8511 -0.1037  0.7573
  786MOL0     C 5985   6.924   5.712   8.151  0.3601  0.2183 -0.2363
  786MOL0     C 5986   7.025   5.621   8.090 -0.0204  0.4644  0.0394
  786MOL0     C 5987   7.122   5.697   8.005 -0.2325  0.3116  0.1577
  786MOL0     C 5988   7.248   5.613   7.976 -0.6399 -0.5560 -0.1968
  786MOL0     C 5989   7.351   5.698   7.893  0.4585  0.2936  0.5806
  786MOL0     C 5990   7.480   5.626   7.869  0.6332  0.2820  0.4647
  786MOL0     C 5991   7.558   5.693   7.755  0.4743 -0.5941 -0.0364
  786MOL0     N 5992   7.687   5.626   7.732 -0.2704  0.4049  0.2741
  786MOL0     C 5993   7.704   5.494   7.709 -0.9697  0.2096  0.0379
  786MOL0     C 5994   7.838   5.480   7.685 -0.1634 -0.6298 -0.0894
  786MOL0     C 5995   7.906   5.352   7.646  0.1317  0.2889  0.2498
  786MOL0     C 5996   7.922   5.257   7.760 -0.7351  0.4366 -0.0833
  786MOL0     C 5997   8.035   5.155   7.726  0.2514  0.5861 -0.2839
  786MOL0     C 5998   8.164   5.190   7.797 -0.1777 -0.0348 -0.2232
  786MOL0     O 5999   8.262   5.084   7.761 -0.0272 -0.6057 -0.1023
  786MOL0     C 6000   8.373   5.131   7.695 -0.6850  0.1424  0.3509
  786MOL0     C 6001   8.357   5.193   7.576 -0.0362  0.1802  0.1683
  786MOL0     C 6002   8.474   5.235   7.500 -0.5250 -0.2140 -0.4140
  786MOL0     C 6003   8.603   5.211   7.545  0.2100 -0.6990 -0.2031
  786MOL0     C 6004   8.722   5.249   7.466  0.0405  0.6424  0.0455
  786MOL0     O 6005   8.701   5.249   7.329 -0.6561  0.1277 -0.1543
  786MOL0     C 6006   8.796   5.290   7.234 -0.8664 -0.9957 -0.1255
  786MOL0     C 6007   8.935   5.286   7.250  0.5560 -0.9849 -0.0017
  786MOL0     C 6008   9.008   5.320   7.138 -0.6460  0.1485  0.7827
  786MOL0     C 6009   8.951   5.351   7.012  0.3936  0.0734 -0.5056
  786MOL0     O 6010   9.039   5.393   6.915  0.0149 -0.9939 -0.8660
  786MOL0     C 6011   8.986   5.444   6.793  0.2432 -0.6082 -0.3553
  786MOL0     C 6012   9.095   5.520   6.711 -0.7471  0.7727  0.4024
  786MOL0     C 6013   9.232   5.443   6.706 -0.0861 -0.6984  1.1242
  786MOL0     C 6014   9.307   5.487   6.579 -0.6094  0.1403  0.3412
  786MOL0     C 6015   9.456   5.434   6.581 -0.2655 -0.4016  0.2908
  786MOL0     C 6016   9.549   5.529   6.504  0.5699  0.1171  0.6254
  786MOL0     C 6017   9.699   5.479   6.493  0.4547 -0.2984  0.0117
  786MOL0     C 6018   9.766   5.462   6.629  0.7903  0.5648  1.3328
  786MOL0    Cl 6019   9.747   5.618   6.730  0.5636 -0.1329 -0.4083
  786MOL0     C 6020   8.807   5.338   7.000 -0.7276 -0.3448 -0.4670
  786MOL0     C 6021   8.738   5.318   7.106  1.3528  0.3961 -0.8277
  786MOL0     O 6022   8.827   5.264   7.524  0.0325  0.4466 -0.0201
  786MOL0     C 6023   8.612   5.148   7.672 -0.5980 -0.8199 -0.1173
  786MOL0     C 6024   8.498   5.099   7.744  0.3892  0.4857  0.7845
  786MOL0     N 6025   7.897   5.609   7.694 -0.2237  0.3963 -0.2483
  786MOL0     N 6026   7.808   5.692   7.728 -0.5331  0.6486  0.3870
  786MOL0     C 6027   6.485   5.716   8.275  0.4685 -0.7999 -0.7738
  786MOL0     C 6028   6.367   5.653   8.282  0.3593 -0.2516  0.1757
  786MOL0     C 6029   6.049   5.374   8.448 -0.7163 -0.3431 -0.6092
  786MOL0     C 6030   5.965   5.398   8.557  0.1502 -0.4108  0.0855
  786MOL0     C 6031   5.835   5.344   8.560 -0.4819 -0.6960 -0.3688
  786MOL0     C 6032   5.784   5.277   8.441  0.1557 -0.8716 -0.2264
  786MOL0     O 6033   5.652   5.221   8.438 -0.3381 -0.1325 -0.1652
  786MOL0     C 6034   5.575   5.218   8.559  1.1009 -0.5973  0.4799
  786MOL0     C 6035   5.476   5.098   8.567 -0.4203 -0.0553  0.6477
  786MOL0     C 6036   5.368   5.094   8.457 -0.4518 -0.8036 -0.4693
  786MOL0     C 6037   5.255   4.990   8.468  0.1684 -1.0743  0.3939
  786MOL0     C 6038   5.310   4.863   8.412 -0.4059  0.2120 -0.4183
  786MOL0     C 6039   5.361   4.772   8.361  0.4088 -0.5074  0.2439
  786MOL0     C 6040   5.867   5.254   8.333 -0.4296 -0.1509  0.3979
  786MOL0     C 6041   6.003   5.295   8.335  0.4702 -0.4868 -0.5990
  786MOL0     C 6042   6.087   5.257   8.215 -0.1416  0.6572  0.5719
  786MOL0     H 6043   6.460   5.356   8.420  0.6887  0.7125  0.9529
  786MOL0     H 6044   6.677   5.460   8.397  1.1083  2.5559  1.5898
  786MOL0     H 6045   6.809   5.535   8.217  0.1868  0.2385  1.5424
  786MOL0     H 6046   6.729   5.643   8.103  1.0258 -0.1461 -0.6056
  786MOL0     H 6047   6.976   5.760   8.234  2.3129  0.5362 -1.5929
  786MOL0     H 6048   6.898   5.784   8.073 -0.8626  0.5670  0.4631
  786MOL0     H 6049   6.969   5.544   8.036  0.7485 -0.9221  1.1643
  786MOL0     H 6050   7.078   5.571   8.171  4.3058  0.5902 -2.3660
  786MOL0     H 6051   7.077   5.732   7.912  1.1861  1.5214 -0.1168
  786MOL0     H 6052   7.158   5.785   8.058  1.0636 -0.4303  0.5571
  786MOL0     H 6053   7.292   5.588   8.073 -0.4567 -2.5433 -0.7363
  786MOL0     H 6054   7.229   5.520   7.921  0.3719  0.4147 -2.2965
  786MOL0     H 6055   7.304   5.736   7.802  0.7623  0.5931  0.5468
  786MOL0     H 6056   7.370   5.788   7.953  0.5520 -1.5029  3.4676
  786MOL0     H 6057   7.459   5.530   7.823  0.8678 -0.6037  2.1189
  786MOL0     H 6058   7.537   5.610   7.961 -1.4963 -1.7819  1.5173
  786MOL0     H 6059   7.504   5.696   7.660  1.1781 -1.8823 -0.5082
  786MOL0     H 6060   7.575   5.797   7.784  0.3050 -0.7206  0.5218
  786MOL0     H 6061   7.634   5.411   7.716 -1.2574  0.4622  0.1798
  786MOL0     H 6062   7.838   5.310   7.571 -0.2878  0.8209  0.3231
  786MOL0     H 6063   8.003   5.370   7.600 -0.6903 -0.5409 -1.9249
  786MOL0     H 6064   7.944   5.313   7.852 -1.2231 -0.1600  0.4041
  786MOL0     H 6065   7.824   5.211   7.777  0.0236 -0.0026  4.4818
  786MOL0     H 6066   8.037   5.161   7.617  0.3608  0.2380 -0.2995
  786MOL0     H 6067   8.012   5.056   7.767  2.7462  0.3701  0.7328
  786MOL0     H 6068   8.146   5.180   7.905  2.2744  0.4599  0.2796
  786MOL0     H 6069   8.188   5.294   7.775  0.1105  0.5254  2.3974
  786MOL0     H 6070   8.260   5.221   7.536 -0.3553 -0.4377  0.4908
  786MOL0     H 6071   8.454   5.291   7.409 -0.4061  3.7241  1.7447
  786MOL0     H 6072   8.985   5.268   7.344  0.1541  2.3233  0.9978
  786MOL0     H 6073   9.115   5.336   7.139 -0.2086 -2.4295  1.7465
  786MOL0     H 6074   8.934   5.369   6.733 -0.4756  0.8298 -1.6002
  786MOL0     H 6075   8.913   5.522   6.816  1.8881  1.8326 -2.6620
  786MOL0     H 6076   9.058   5.553   6.613 -1.4660 -1.4736 -0.1467
  786MOL0     H 6077   9.119   5.609   6.770 -2.3541 -1.0192  4.0374
  786MOL0     H 6078   9.302   5.477   6.784 -0.9811 -1.7377  2.4157
  786MOL0     H 6079   9.211   5.336   6.710  0.4280 -0.8344  0.4229
  786MOL0     H 6080   9.310   5.596   6.572 -0.8512  0.0636 -1.5793
  786MOL0     H 6081   9.248   5.453   6.493  0.4120 -3.8023  1.0140
  786MOL0     H 6082   9.462   5.333   6.538  0.9487 -0.4665  0.5727
  786MOL0     H 6083   9.493   5.418   6.682  1.8121  2.2020  0.0494
  786MOL0     H 6084   9.515   5.539   6.400  0.1860  0.6042  0.7917
  786MOL0     H 6085   9.537   5.629   6.548 -1.4768 -0.0219  0.4799
  786MOL0     H 6086   9.753   5.550   6.429 -2.0524  0.4971 -1.3743
  786MOL0     H 6087   9.689   5.382   6.442  1.1432 -0.1680 -0.3880
  786MOL0     H 6088   9.708   5.383   6.677 -0.9613  1.6368  1.0573
  786MOL0     H 6089   9.873   5.441   6.624  0.8170  0.9231 -0.0810
  786MOL0     H 6090   8.759   5.343   6.904 -0.3285 -2.8395 -0.8554
  786MOL0     H 6091   8.631   5.327   7.097  1.1480  1.6279  1.8542
  786MOL0     H 6092   8.706   5.149   7.727  0.2319  2.0180 -1.3838
  786MOL0     H 6093   8.505   5.043   7.836  0.5303  0.4562  0.7560
  786MOL0     H 6094   6.485   5.817   8.236 -2.1522  0.2096  1.5593
  786MOL0     H 6095   6.271   5.701   8.261  1.0996  2.1795  1.8681
  786MOL0     H 6096   6.003   5.439   8.649  1.9872  0.1290 -0.8677
  786MOL0     H 6097   5.777   5.366   8.649 -0.5938 -1.9452 -0.1168
  786MOL0     H 6098   5.529   5.314   8.583 -1.4192 -1.3712 -0.9403
  786MOL0     H 6099   5.642   5.183   8.639 -2.7963  2.0686  5.4892
  786MOL0     H 6100   5.429   5.093   8.666  0.1007 -1.4647  0.8617
  786MOL0     H 6101   5.535   5.005   8.564  1.1793  0.9163  0.6793
  786MOL0     H 6102   5.420   5.087   8.361  0.9927  2.2393 -0.0193
  786MOL0     H 6103   5.315   5.190   8.457 -0.0639 -0.5692  0.9392
  786MOL0     H 6104   5.222   4.984   8.572 -1.6567  0.7306 -0.0178
  786MOL0     H 6105   5.170   5.013   8.403  1.7665  2.8821 -0.6197
  786MOL0     H 6106   5.407   4.691   8.309 -1.6878 -1.3146 -0.4298
  786MOL0     H 6107   5.839   5.183   8.256  2.0154  0.0275 -0.7663
  786MOL0     H 6108   6.100   5.336   8.141  1.3999 -0.2099 -0.1261
  786MOL0     H 6109   6.191   5.235   8.244  1.2173 -0.0888 -4.0007
  786MOL0     H 6110   6.050   5.169   8.162 -0.0288  0.1391  1.3269
  787MOL0     O 6111   9.414   0.990   2.830 -0.4992  0.7609 -0.4018
  787MOL0     C 6112   9.321   1.049   2.883  0.6664 -0.1952  0.7182
  787MOL0     O 6113   9.303   1.182   2.892  0.3295  0.5382  0.2216
  787MOL0     C 6114   9.385   1.265   2.825  0.3426 -0.5593  0.3476
  787MOL0     C 6115   9.393   1.277   2.685  0.2806 -1.1542 -0.2693
  787MOL0     C 6116   9.456   1.389   2.628 -0.2217 -0.3887 -0.5420
  787MOL0     C 6117   9.518   1.489   2.714  0.0746 -0.2136  0.5333
  787MOL0     O 6118   9.585   1.589   2.647 -0.0896  0.3248  0.4418
  787MOL0     C 6119   9.696   1.658   2.710  0.2312  0.2940 -0.0020
  787MOL0     C 6120   9.776   1.726   2.601 -0.7127  0.4200  0.0743
  787MOL0     C 6121   9.703   1.838   2.532 -0.8349 -0.2512  0.2566
  787MOL0     C 6122   9.694   1.964   2.618 -0.3139  0.5744  0.0535
  787MOL0     C 6123   9.609   2.080   2.549  0.0282  0.3134 -0.0290
  787MOL0     C 6124   9.581   2.205   2.644 -0.5952 -0.0905 -0.5229
  787MOL0     C 6125   9.481   2.299   2.594 -0.0342  0.4518 -0.0300
  787MOL0     C 6126   9.335   2.276   2.650 -0.0393 -0.5507 -0.0210
  787MOL0     N 6127   9.327   2.309   2.795 -0.5363  0.4451  0.7703
  787MOL0     C 6128   9.396   2.409   2.862 -0.3845  1.2224 -0.9293
  787MOL0     C 6129   9.365   2.385   2.993 -1.0073 -0.2523 -0.4597
  787MOL0     C 6130   9.417   2.472   3.106  0.2253 -0.4037  0.4533
  787MOL0     C 6131   9.460   2.400   3.226 -0.2225  0.1696 -0.8635
  787MOL0     C 6132   9.478   2.490   3.352  0.1892  1.4353 -0.1540
  787MOL0     C 6133   9.486   2.405   3.475  0.2339  0.2150 -0.6191
  787MOL0     O 6134   9.553   2.279   3.464 -0.3714 -0.1466  0.1145
  787MOL0     C 6135   9.684   2.282   3.447 -0.7365 -0.2116 -0.0562
  787MOL0     C 6136   9.736   2.174   3.374 -0.0913  0.7525  0.5557
  787MOL0     C 6137   9.873   2.172   3.335  0.3889 -0.6536  0.6458
  787MOL0     C 6138   9.967   2.276   3.379  0.2836 -0.1588  0.1922
  787MOL0     C 6139  10.112   2.272   3.329  0.1201 -0.1579 -0.1567
  787MOL0     O 6140  10.143   2.156   3.261 -0.1362 -0.3296 -0.7325
  787MOL0     C 6141  10.274   2.127   3.242  0.1304  0.2612  0.0940
  787MOL0     C 6142  10.380   2.139   3.337 -0.1669 -0.7240 -0.8773
  787MOL0     C 6143  10.505   2.103   3.306  0.4949 -0.3312 -0.2180
  787MOL0     C 6144  10.539   2.029   3.189  0.2997 -0.2365  0.7997
  787MOL0     O 6145  10.660   1.970   3.161  0.0047  0.8016 -0.4012
  787MOL0     C 6146  10.770   1.981   3.256 -0.2075 -0.5076 -0.5248
  787MOL0     C 6147  10.878   2.084   3.220  0.3484 -0.4594  0.0656
  787MOL0     C 6148  11.001   2.041   3.294  0.4058  0.5224 -0.8663
  787MOL0     C 6149  11.106   2.149   3.298 -1.1118  0.0837  0.3148
  787MOL0     C 6150  11.207   2.139   3.416 -0.0398  1.4219 -0.2398
  787MOL0     C 6151  11.358   2.178   3.406 -0.3601 -0.3441 -0.3651
  787MOL0     C 6152  11.432   2.137   3.531 -0.0893  0.5625 -0.2620
  787MOL0     C 6153  11.583   2.181   3.513 -0.1763  0.6646 -0.2349
  787MOL0    Cl 6154  11.663   2.045   3.421  0.1191 -0.2834 -0.0924
  787MOL0     C 6155  10.436   2.018   3.095  0.7868 -0.3185 -0.7711
  787MOL0     C 6156  10.309   2.060   3.121  0.3563 -0.5306  0.7987
  787MOL0     O 6157  10.176   2.379   3.334  0.5898  0.7000 -0.1327
  787MOL0     C 6158   9.912   2.377   3.454  0.6228  0.1056 -0.4182
  787MOL0     C 6159   9.772   2.388   3.478 -0.0492  0.1319 -0.2004
  787MOL0     N 6160   9.272   2.281   2.998  0.4098 -0.6024  0.0956
  787MOL0     N 6161   9.244   2.237   2.879 -0.4675 -0.2857 -0.1397
  787MOL0     C 6162   9.498   1.483   2.851  0.0239  0.7104  0.1235
  787MOL0     C 6163   9.435   1.365   2.905  0.5751 -0.6511 -0.7646
  787MOL0     C 6164   9.215   0.969   2.934  0.6437  0.8229 -0.8420
  787MOL0     C 6165   9.080   0.999   2.916  0.5816 -0.4749  0.7846
  787MOL0     C 6166   8.973   0.923   2.971 -0.8624  1.0497 -0.0387
  787MOL0     C 6167   8.999   0.807   3.044  0.4844 -0.5397 -0.0382
  787MOL0     O 6168   8.895   0.732   3.086  0.2786 -0.2640 -0.2107
  787MOL0     C 6169   8.916   0.603   3.148  0.0569 -0.5303 -0.9001
  787MOL0     C 6170   8.781   0.529   3.170 -0.2312  0.1653 -0.3875
  787MOL0     C 6171   8.719   0.576   3.306 -0.3677  0.2026 -0.3252
  787MOL0     C 6172   8.579   0.511   3.335 -0.6253 -1.0649  0.6651
  787MOL0     C 6173   8.593   0.377   3.374  0.0269  0.1469  0.0365
  787MOL0     C 6174   8.611   0.258   3.402  0.8856 -0.5255 -0.2309
  787MOL0     C 6175   9.134   0.780   3.066 -0.1084  0.1489 -0.2231
  787MOL0     C 6176   9.237   0.860   3.019 -1.1214  0.0328  0.6315
  787MOL0     C 6177   9.375   0.813   3.051  0.7018 -0.1664 -0.6873
  787MOL0     H 6178   9.351   1.191   2.633 -1.2709 -0.9911  0.6631
  787MOL0     H 6179   9.470   1.391   2.520  0.8611 -0.6451 -0.4259
  787MOL0     H 6180   9.648   1.733   2.773  0.6053  0.1453  0.4629
  787MOL0     H 6181   9.762   1.580   2.751  1.0123  0.9297 -0.0257
  787MOL0     H 6182   9.819   1.657   2.527 -1.3032  0.9122 -0.7531
  787MOL0     H 6183   9.859   1.772   2.655  0.5133 -0.9486 -0.5805
  787MOL0     H 6184   9.600   1.808   2.510 -1.0417  1.2333 -0.9421
  787MOL0     H 6185   9.747   1.866   2.436  1.7870 -2.5144  0.6759
  787MOL0     H 6186   9.645   1.938   2.712 -0.5614 -3.6690 -1.0676
  787MOL0     H 6187   9.799   1.987   2.640 -0.6711  0.3294  2.1791
  787MOL0     H 6188   9.665   2.117   2.463 -0.9273  1.5204 -0.1583
  787MOL0     H 6189   9.516   2.039   2.510  0.2334 -1.9781  1.6828
  787MOL0     H 6190   9.547   2.187   2.747  1.0207  0.9005  0.2292
  787MOL0     H 6191   9.669   2.265   2.669 -1.4683  0.0357  2.6432
  787MOL0     H 6192   9.473   2.283   2.486 -3.8389  0.6152  0.0810
  787MOL0     H 6193   9.499   2.405   2.611  0.8212  0.1722  0.8595
  787MOL0     H 6194   9.276   2.349   2.593  1.7026 -0.2495 -1.5614
  787MOL0     H 6195   9.307   2.174   2.625 -0.3479 -0.1917 -1.2302
  787MOL0     H 6196   9.461   2.490   2.832  0.2996  1.2219  0.4777
  787MOL0     H 6197   9.491   2.542   3.067 -1.2177 -0.3559 -2.5078
  787MOL0     H 6198   9.333   2.537   3.132  0.9585  1.9076 -2.3222
  787MOL0     H 6199   9.391   2.316   3.238 -2.1249  1.6684 -0.8157
  787MOL0     H 6200   9.559   2.360   3.201  0.2957  0.9073 -0.0202
  787MOL0     H 6201   9.394   2.558   3.363 -0.9614  0.6211 -3.0383
  787MOL0     H 6202   9.571   2.548   3.348  0.2734  1.4436  1.2604
  787MOL0     H 6203   9.388   2.366   3.504  0.5543 -0.3658 -0.3018
  787MOL0     H 6204   9.531   2.462   3.558 -0.5302  1.5371 -1.0827
  787MOL0     H 6205   9.668   2.095   3.345 -0.4099  0.5727  1.7380
  787MOL0     H 6206   9.912   2.088   3.278  1.2409  0.3226 -0.2668
  787MOL0     H 6207  10.352   2.200   3.423 -1.6677 -1.2260 -0.9700
  787MOL0     H 6208  10.583   2.137   3.373 -0.5447  2.1332 -0.1526
  787MOL0     H 6209  10.739   1.993   3.360 -0.0793 -0.2496 -0.5158
  787MOL0     H 6210  10.823   1.886   3.263 -1.6915 -1.2811  1.1304
  787MOL0     H 6211  10.902   2.102   3.115  2.8651  3.8382  1.1509
  787MOL0     H 6212  10.843   2.178   3.264 -0.5459 -0.5924 -0.3356
  787MOL0     H 6213  10.964   2.021   3.395 -0.0312  1.8975 -0.7266
  787MOL0     H 6214  11.035   1.950   3.244 -1.7103  0.8047 -2.9799
  787MOL0     H 6215  11.050   2.242   3.315  1.1751  1.8262 -1.1363
  787MOL0     H 6216  11.165   2.151   3.206  1.1264 -0.4221  1.6668
  787MOL0     H 6217  11.212   2.038   3.457  2.9999  2.4083  2.3053
  787MOL0     H 6218  11.160   2.194   3.499  1.4301  0.8185  1.0442
  787MOL0     H 6219  11.409   2.134   3.320  0.4894  1.8206 -1.0401
  787MOL0     H 6220  11.364   2.288   3.400  1.0057 -0.2252  2.0320
  787MOL0     H 6221  11.418   2.030   3.543 -2.8467  0.6950 -1.5607
  787MOL0     H 6222  11.379   2.183   3.615  1.9072  2.0579  0.2811
  787MOL0     H 6223  11.595   2.272   3.454 -0.9208  0.3887 -0.8346
  787MOL0     H 6224  11.642   2.188   3.605  2.0357  1.3433 -1.6090
  787MOL0     H 6225  10.450   1.967   3.000 -0.5370 -0.8115 -0.7338
  787MOL0     H 6226  10.231   2.043   3.047 -0.1765  0.7054  1.0424
  787MOL0     H 6227   9.971   2.457   3.498 -1.5733  1.1705  0.7805
  787MOL0     H 6228   9.731   2.462   3.546 -0.4843 -3.0791  3.3340
  787MOL0     H 6229   9.556   1.558   2.903 -1.8801  2.0633  0.4192
  787MOL0     H 6230   9.432   1.356   3.013  3.3029 -3.6325 -0.7906
  787MOL0     H 6231   9.059   1.085   2.854  1.5745 -2.6411 -2.8331
  787MOL0     H 6232   8.870   0.956   2.961 -1.7177 -1.2104  0.7078
  787MOL0     H 6233   8.962   0.622   3.246  0.1488  0.6256 -1.1519
  787MOL0     H 6234   8.979   0.537   3.088  2.8795  0.2051  1.0391
  787MOL0     H 6235   8.780   0.420   3.179 -3.6226  0.1311 -0.0606
  787MOL0     H 6236   8.717   0.559   3.086 -0.1228  1.9416  0.1246
  787MOL0     H 6237   8.711   0.685   3.311 -1.8971  0.0553  1.4063
  787MOL0     H 6238   8.790   0.547   3.385  0.6892 -0.7930 -1.5925
  787MOL0     H 6239   8.528   0.574   3.408  0.7047  0.0168  0.7001
  787MOL0     H 6240   8.525   0.518   3.240  0.5467  4.4524  0.0630
  787MOL0     H 6241   8.640   0.159   3.430 -1.3220 -1.3596 -0.7116
  787MOL0     H 6242   9.160   0.702   3.137 -0.0305 -0.7644 -1.2360
  787MOL0     H 6243   9.444   0.897   3.042 -0.2004  0.7253  0.5586
  787MOL0     H 6244   9.376   0.777   3.154  0.6811 -0.4777 -0.7918
  787MOL0     H 6245   9.408   0.727   2.992  2.3295 -0.3699  0.4638
  788MOL0     O 6246   3.507   6.060   4.169  0.5424  0.1431 -0.0306
  788MOL0     C 6247   3.441   6.081   4.269 -0.0248 -0.5718  0.5001
  788MOL0     O 6248   3.427   5.990   4.371  0.1187  0.9035  0.1202
  788MOL0     C 6249   3.519   5.883   4.366 -0.8494 -0.6530  0.1724
  788MOL0     C 6250   3.467   5.756   4.344 -0.2450 -0.1848  0.9867
  788MOL0     C 6251   3.550   5.649   4.337 -0.0646  0.3492 -0.2199
  788MOL0     C 6252   3.689   5.657   4.363  0.4349 -0.1738 -0.1577
  788MOL0     O 6253   3.763   5.545   4.369 -0.0826 -0.0150  0.0237
  788MOL0     C 6254   3.897   5.554   4.428 -1.0975 -1.1589 -0.3574
  788MOL0     C 6255   3.964   5.415   4.442  0.2433  0.4379 -0.2716
  788MOL0     C 6256   4.003   5.356   4.301  0.3873 -0.5006  1.1112
  788MOL0     C 6257   4.083   5.230   4.320  0.4236 -1.0929 -0.4937
  788MOL0     C 6258   4.025   5.120   4.226  0.3795 -0.5369  0.4378
  788MOL0     C 6259   4.092   4.979   4.254  0.2384 -0.5847 -0.3598
  788MOL0     C 6260   4.246   4.984   4.287  1.1577  0.1115  0.9760
  788MOL0     C 6261   4.312   4.856   4.248  0.1989  0.5549 -0.7367
  788MOL0     N 6262   4.455   4.864   4.281  0.1247 -0.6846 -0.5502
  788MOL0     C 6263   4.514   4.828   4.403 -0.9796 -0.2024  0.8608
  788MOL0     C 6264   4.650   4.836   4.380  0.2047  0.7535  0.2078
  788MOL0     C 6265   4.767   4.836   4.483 -0.1212  0.5338 -0.2911
  788MOL0     C 6266   4.909   4.852   4.436  0.5186 -0.2125  0.0982
  788MOL0     C 6267   5.012   4.836   4.555  0.3435  0.1993  0.7051
  788MOL0     C 6268   5.159   4.877   4.523 -0.9515 -0.3301  0.5031
  788MOL0     O 6269   5.254   4.819   4.618  0.3338 -0.3702 -0.5672
  788MOL0     C 6270   5.383   4.835   4.591 -0.1012 -0.3608  0.0663
  788MOL0     C 6271   5.459   4.727   4.626 -0.3707  0.5636 -0.3158
  788MOL0     C 6272   5.596   4.727   4.605 -0.3832 -0.3445  0.7272
  788MOL0     C 6273   5.657   4.838   4.542  0.3446  0.1987  0.1441
  788MOL0     C 6274   5.804   4.849   4.533  0.1538  0.9206  0.0212
  788MOL0     O 6275   5.848   4.963   4.464  0.5243  0.0483  0.5174
  788MOL0     C 6276   5.980   4.964   4.434 -0.5513 -0.3272  0.0381
  788MOL0     C 6277   6.031   4.891   4.317  0.0081 -0.1730  0.1420
  788MOL0     C 6278   6.163   4.897   4.278 -0.4865 -0.6129  0.4078
  788MOL0     C 6279   6.251   4.975   4.354 -0.1263 -0.6870 -0.3752
  788MOL0     O 6280   6.385   5.001   4.319  0.6017  0.4363  0.1274
  788MOL0     C 6281   6.434   4.930   4.203 -0.3068 -0.5934 -0.2072
  788MOL0     C 6282   6.587   4.952   4.202  0.2419 -0.3194 -0.4163
  788MOL0     C 6283   6.657   4.950   4.060  0.5851 -0.0209  0.6196
  788MOL0     C 6284   6.669   4.812   3.995 -0.4472  0.5157  0.2372
  788MOL0     C 6285   6.701   4.815   3.845  0.5840 -0.4724  0.1403
  788MOL0     C 6286   6.838   4.872   3.811  0.5042 -0.3539 -0.0632
  788MOL0     C 6287   6.954   4.808   3.894 -0.1781 -0.3272 -0.2512
  788MOL0     C 6288   7.093   4.861   3.836 -0.0250 -0.1411 -0.5824
  788MOL0    Cl 6289   7.141   5.002   3.943  0.2084  0.3247 -0.1589
  788MOL0     C 6290   6.205   5.055   4.462 -1.1931  0.4332 -0.3242
  788MOL0     C 6291   6.069   5.049   4.498 -0.4591 -0.4359  0.1971
  788MOL0     O 6292   5.876   4.768   4.596  0.4751  0.3423  0.8753
  788MOL0     C 6293   5.579   4.942   4.488 -0.5907  0.7240  0.5037
  788MOL0     C 6294   5.441   4.940   4.522 -1.0921  0.1355 -0.0378
  788MOL0     N 6295   4.674   4.869   4.246  0.2765 -0.8366  0.3624
  788MOL0     N 6296   4.559   4.883   4.191  0.4304  0.0249  0.0033
  788MOL0     C 6297   3.743   5.787   4.389  0.4273  1.1357 -0.3376
  788MOL0     C 6298   3.658   5.897   4.391 -0.3069  0.4514 -0.7324
  788MOL0     C 6299   3.339   6.190   4.271  0.2746  0.0006  0.2529
  788MOL0     C 6300   3.207   6.155   4.308  0.0151 -0.8802 -0.1713
  788MOL0     C 6301   3.099   6.252   4.312  0.2894 -0.1004  0.2393
  788MOL0     C 6302   3.125   6.385   4.261  0.6765 -0.0782  1.3876
  788MOL0     O 6303   3.026   6.490   4.255 -0.3882  0.3731 -0.0972
  788MOL0     C 6304   2.894   6.465   4.287  0.9804  0.5350  0.4621
  788MOL0     C 6305   2.809   6.587   4.264 -0.1857 -0.5356  0.4795
  788MOL0     C 6306   2.668   6.556   4.327 -0.3905  0.0619  0.4797
  788MOL0     C 6307   2.543   6.636   4.278  0.8865  0.4506  0.1097
  788MOL0     C 6308   2.571   6.774   4.242 -0.4497 -0.8277 -0.3053
  788MOL0     C 6309   2.600   6.886   4.194 -0.6565  0.0487 -0.0892
  788MOL0     C 6310   3.248   6.413   4.206  0.5672  0.2948 -0.6420
  788MOL0     C 6311   3.354   6.320   4.208 -0.2864  0.1043 -0.2455
  788MOL0     C 6312   3.487   6.353   4.133 -0.0801  0.4490 -0.0375
  788MOL0     H 6313   3.359   5.750   4.328 -0.1872 -1.4218  0.9678
  788MOL0     H 6314   3.506   5.550   4.328  1.5638 -0.2613 -2.2024
  788MOL0     H 6315   3.970   5.611   4.369 -0.2487  0.1799  1.8677
  788MOL0     H 6316   3.889   5.585   4.533 -1.1569  0.8986 -0.9294
  788MOL0     H 6317   3.910   5.338   4.498  2.0472  1.3907  3.0626
  788MOL0     H 6318   4.053   5.439   4.501 -0.3177  4.3043 -0.7396
  788MOL0     H 6319   4.072   5.418   4.243  1.8693 -3.7375 -0.8990
  788MOL0     H 6320   3.917   5.338   4.236  0.3478 -0.5156  1.1686
  788MOL0     H 6321   4.189   5.254   4.303  0.1175  2.0592  1.1780
  788MOL0     H 6322   4.085   5.195   4.424  2.4748  1.0161  0.2889
  788MOL0     H 6323   3.918   5.122   4.248  0.8102 -0.1347  2.7643
  788MOL0     H 6324   4.041   5.146   4.121 -1.1396 -0.9027  0.0990
  788MOL0     H 6325   4.035   4.934   4.336  4.2678  0.5285  3.4651
  788MOL0     H 6326   4.077   4.920   4.163 -1.4522 -1.1253  0.2231
  788MOL0     H 6327   4.261   4.995   4.395  0.9739 -1.9462  1.2603
  788MOL0     H 6328   4.296   5.068   4.237  3.6874 -1.4439  0.7098
  788MOL0     H 6329   4.269   4.767   4.294 -0.9792  0.3668 -2.1385
  788MOL0     H 6330   4.297   4.838   4.141 -0.5064 -2.7023 -0.2050
  788MOL0     H 6331   4.482   4.812   4.506 -2.2239 -0.7394  0.4006
  788MOL0     H 6332   4.754   4.929   4.540  1.4336  0.0407  0.9097
  788MOL0     H 6333   4.765   4.750   4.550 -1.2617  0.1485 -0.7827
  788MOL0     H 6334   4.929   4.783   4.353 -1.1400 -1.4905  0.7101
  788MOL0     H 6335   4.915   4.952   4.392  0.5444 -0.8708 -1.4547
  788MOL0     H 6336   5.012   4.728   4.573  1.6016  0.1717  0.6402
  788MOL0     H 6337   4.977   4.893   4.642  0.7644  0.6230  0.5979
  788MOL0     H 6338   5.154   4.986   4.531 -0.3456 -0.3607  1.3688
  788MOL0     H 6339   5.185   4.851   4.420  2.5799  1.4818  0.7996
  788MOL0     H 6340   5.420   4.646   4.687 -0.2759  0.4960 -0.3450
  788MOL0     H 6341   5.647   4.638   4.641 -0.0665 -1.3854 -2.0682
  788MOL0     H 6342   5.960   4.836   4.256 -0.3391 -0.1601  0.5328
  788MOL0     H 6343   6.187   4.846   4.185  1.6340  0.1047  0.5097
  788MOL0     H 6344   6.421   4.822   4.200 -0.8359 -0.6957  2.6730
  788MOL0     H 6345   6.394   4.984   4.117 -0.5119  2.3365  1.5660
  788MOL0     H 6346   6.609   5.051   4.242  2.3170 -0.1380 -1.8162
  788MOL0     H 6347   6.635   4.876   4.264 -0.4748 -0.2120  0.2732
  788MOL0     H 6348   6.599   5.016   3.995 -0.6376  0.0751  1.7564
  788MOL0     H 6349   6.761   4.981   4.069  0.7853  1.1185 -3.5292
  788MOL0     H 6350   6.572   4.760   3.996  0.7901 -2.0407 -1.6858
  788MOL0     H 6351   6.743   4.752   4.049 -2.3398 -0.7929  1.5274
  788MOL0     H 6352   6.632   4.883   3.794 -1.2220 -1.6604  0.8838
  788MOL0     H 6353   6.687   4.719   3.795  0.4780 -2.4297  3.6206
  788MOL0     H 6354   6.853   4.862   3.703 -0.1955  3.8917 -0.7342
  788MOL0     H 6355   6.847   4.980   3.827 -1.7667 -0.3413  1.5926
  788MOL0     H 6356   6.961   4.700   3.876  0.9323 -0.7267  2.2194
  788MOL0     H 6357   6.939   4.824   4.001 -2.5027  1.8821 -0.7952
  788MOL0     H 6358   7.172   4.786   3.834 -0.3286 -0.4943  0.4231
  788MOL0     H 6359   7.073   4.900   3.735 -0.1630  3.9274  0.8452
  788MOL0     H 6360   6.279   5.125   4.501 -1.8480  1.6995 -1.2643
  788MOL0     H 6361   6.040   5.120   4.575 -2.1343  0.2421 -0.9838
  788MOL0     H 6362   5.616   5.028   4.435 -1.7242  0.0066 -1.5856
  788MOL0     H 6363   5.371   5.017   4.490 -1.6802 -0.1526  0.5289
  788MOL0     H 6364   3.849   5.805   4.408  0.6458 -0.7169  0.4659
  788MOL0     H 6365   3.712   5.989   4.411 -0.3978  0.7264 -1.6987
  788MOL0     H 6366   3.183   6.053   4.338  4.2915 -1.5780  1.5702
  788MOL0     H 6367   3.001   6.229   4.353 -0.5324  2.0457 -0.3720
  788MOL0     H 6368   2.894   6.448   4.395  0.0570 -3.3709  0.0122
  788MOL0     H 6369   2.855   6.381   4.229  2.5220 -0.1743  0.4157
  788MOL0     H 6370   2.805   6.622   4.161 -2.0056  1.4327  1.1620
  788MOL0     H 6371   2.852   6.672   4.317 -2.3435  0.2972  0.9689
  788MOL0     H 6372   2.684   6.575   4.433  0.4951 -1.4978  0.6637
  788MOL0     H 6373   2.637   6.454   4.304  0.6914 -0.0349 -0.6774
  788MOL0     H 6374   2.497   6.585   4.193  0.1536  1.1146  0.0954
  788MOL0     H 6375   2.466   6.629   4.356 -0.6485 -1.6812 -1.4618
  788MOL0     H 6376   2.640   6.972   4.144 -2.0711 -0.3795 -2.0657
  788MOL0     H 6377   3.257   6.513   4.165 -2.5971  0.1595 -1.9512
  788MOL0     H 6378   3.495   6.292   4.042  4.5042 -1.5594  1.4301
  788MOL0     H 6379   3.486   6.458   4.103  1.6385 -0.1772 -2.6492
  788MOL0     H 6380   3.580   6.332   4.186  1.1661  1.0620 -1.8994
  789MOL0     O 6381  10.834   2.139  10.758 -0.1232 -0.0669 -0.4608
  789MOL0     C 6382  10.803   2.236  10.691 -0.5024  0.4231 -0.4260
  789MOL0     O 6383  10.891   2.324  10.619 -0.3602 -0.3037 -0.9385
  789MOL0     C 6384  11.025   2.289  10.589 -0.1669  1.1387  0.5485
  789MOL0     C 6385  11.120   2.391  10.586  0.4641  0.4941 -0.1210
  789MOL0     C 6386  11.251   2.375  10.537 -0.2953 -0.9909 -0.3549
  789MOL0     C 6387  11.296   2.248  10.519 -0.3910  0.2502  0.9315
  789MOL0     O 6388  11.426   2.228  10.478 -0.2493  0.4117 -0.6223
  789MOL0     C 6389  11.494   2.118  10.547 -0.0670 -0.9208  0.4443
  789MOL0     C 6390  11.618   2.177  10.605 -0.8867  0.5494  1.1380
  789MOL0     C 6391  11.726   2.199  10.505  0.2002 -0.2051  1.2092
  789MOL0     C 6392  11.860   2.232  10.574 -0.3111 -0.6703 -0.1354
  789MOL0     C 6393  11.987   2.239  10.486  0.5907  0.1688  0.0982
  789MOL0     C 6394  11.968   2.340  10.381 -0.8184 -0.4947 -0.0121
  789MOL0     C 6395  12.103   2.378  10.315  0.4363 -0.7404 -0.5069
  789MOL0     C 6396  12.105   2.486  10.203  0.0806 -0.7529 -0.1168
  789MOL0     N 6397  12.243   2.500  10.157  0.4602  0.0060  0.2103
  789MOL0     C 6398  12.325   2.599  10.187 -0.0428 -0.2678 -0.3405
  789MOL0     C 6399  12.427   2.597  10.098  0.0554 -0.0841  0.1611
  789MOL0     C 6400  12.553   2.676  10.101  0.3383 -0.0504 -0.6142
  789MOL0     C 6401  12.660   2.597  10.190 -0.0254  0.6355 -0.4744
  789MOL0     C 6402  12.800   2.641  10.174  0.0381 -0.2448  0.0049
  789MOL0     C 6403  12.898   2.537  10.229 -0.1457  0.2743  0.7727
  789MOL0     O 6404  13.022   2.564  10.170 -0.1162 -0.4057 -0.3987
  789MOL0     C 6405  13.115   2.645  10.230  0.0529  0.1239 -0.2129
  789MOL0     C 6406  13.228   2.659  10.150 -0.2541 -0.5077  0.4359
  789MOL0     C 6407  13.340   2.719  10.191 -0.3136  0.3986  0.3551
  789MOL0     C 6408  13.340   2.782  10.321 -0.9283 -0.0039 -0.8548
  789MOL0     C 6409  13.460   2.847  10.379 -0.3236  0.8444  0.2798
  789MOL0     O 6410  13.447   2.894  10.510  0.3324 -0.7145  0.3523
  789MOL0     C 6411  13.555   2.949  10.577  0.1543  0.5114  0.1393
  789MOL0     C 6412  13.595   2.910  10.706  0.6167 -0.2899  0.1158
  789MOL0     C 6413  13.688   2.986  10.783  0.2145 -0.7393  0.9515
  789MOL0     C 6414  13.765   3.082  10.714  0.7634  0.0962 -0.1924
  789MOL0     O 6415  13.870   3.152  10.765 -0.6739  0.0524 -0.1701
  789MOL0     C 6416  13.947   3.084  10.868  0.7894  0.2260  0.5238
  789MOL0     C 6417  14.006   2.947  10.836  0.7240 -0.7658  0.5873
  789MOL0     C 6418  14.102   2.956  10.711 -0.6426 -0.5646 -0.2529
  789MOL0     C 6419  14.198   2.830  10.694 -0.0508  0.2576 -0.3274
  789MOL0     C 6420  14.307   2.844  10.582  0.6818 -0.0780  0.4746
  789MOL0     C 6421  14.250   2.854  10.434 -0.2618 -0.3312 -0.4707
  789MOL0     C 6422  14.153   2.739  10.390  0.0740  0.1567 -0.2333
  789MOL0     C 6423  14.056   2.784  10.273 -0.2418 -0.4342 -0.1033
  789MOL0    Cl 6424  13.936   2.898  10.335  0.4998 -0.2188 -0.0470
  789MOL0     C 6425  13.726   3.125  10.584 -1.2210 -0.7754  0.2235
  789MOL0     C 6426  13.620   3.062  10.516  0.9560  0.2449 -0.4950
  789MOL0     O 6427  13.561   2.834  10.318 -1.0533 -0.8793  0.4806
  789MOL0     C 6428  13.221   2.779  10.403 -0.2909 -0.6391  0.1655
  789MOL0     C 6429  13.116   2.701  10.359  0.1557  0.4866  0.0042
  789MOL0     N 6430  12.395   2.505  10.005  0.5624 -0.8186 -0.9068
  789MOL0     N 6431  12.291   2.439  10.043 -0.0119 -0.3038  0.1537
  789MOL0     C 6432  11.209   2.132  10.529  0.9325 -0.5050  0.4130
  789MOL0     C 6433  11.070   2.152  10.562  0.2417 -0.1235 -0.6679
  789MOL0     C 6434  10.655   2.264  10.681  0.2423 -0.7343  0.1492
  789MOL0     C 6435  10.574   2.206  10.778  0.1210  0.1185  0.1425
  789MOL0     C 6436  10.435   2.227  10.780  0.5917 -0.2532 -0.2395
  789MOL0     C 6437  10.368   2.284  10.670 -0.0493 -0.2817  0.6475
  789MOL0     O 6438  10.230   2.287  10.673  0.0384 -0.0148 -0.1264
  789MOL0     C 6439  10.160   2.331  10.556 -0.1977 -0.2389 -0.1136
  789MOL0     C 6440  10.010   2.356  10.582  0.5009 -0.5914  0.3767
  789MOL0     C 6441   9.988   2.408  10.729 -0.8564 -0.2241 -0.0107
  789MOL0     C 6442   9.847   2.408  10.754  0.5579  0.4271 -0.7085
  789MOL0     C 6443   9.819   2.503  10.866  0.1362  0.8648  0.0311
  789MOL0     C 6444   9.780   2.591  10.944 -1.1438 -0.0081 -0.9665
  789MOL0     C 6445  10.453   2.342  10.576  0.7710 -0.0782  0.1838
  789MOL0     C 6446  10.590   2.340  10.585 -0.1045 -0.0351  0.5783
  789MOL0     C 6447  10.663   2.438  10.489  0.5603 -0.3186 -0.2601
  789MOL0     H 6448  11.082   2.489  10.612 -0.3570  0.7753 -2.1460
  789MOL0     H 6449  11.328   2.453  10.540 -1.1654  0.0776  5.1741
  789MOL0     H 6450  11.428   2.077  10.624  0.8002 -0.2017  1.5991
  789MOL0     H 6451  11.528   2.042  10.476  1.3988  0.2993 -0.2182
  789MOL0     H 6452  11.654   2.093  10.665 -2.5250 -2.6706 -2.0283
  789MOL0     H 6453  11.602   2.267  10.665 -0.0449  0.7928  1.0143
  789MOL0     H 6454  11.700   2.277  10.433  3.6998 -1.2844 -1.5436
  789MOL0     H 6455  11.740   2.114  10.438 -0.6642 -0.3389  1.1834
  789MOL0     H 6456  11.855   2.326  10.631  1.1801  1.5336 -3.3031
  789MOL0     H 6457  11.873   2.147  10.641  2.1250 -0.2682  0.0031
  789MOL0     H 6458  12.077   2.266  10.543 -1.0784  3.5757  1.4450
  789MOL0     H 6459  12.008   2.146  10.433 -0.9300  0.4601 -1.0848
  789MOL0     H 6460  11.901   2.303  10.302 -2.8026  0.5646  1.0794
  789MOL0     H 6461  11.919   2.431  10.419 -2.3238 -0.0925 -2.6493
  789MOL0     H 6462  12.131   2.289  10.257 -2.3677 -0.8352 -1.8486
  789MOL0     H 6463  12.182   2.396  10.389  0.0337 -3.7405  0.7879
  789MOL0     H 6464  12.049   2.456  10.114 -0.0003  1.1670 -0.7633
  789MOL0     H 6465  12.076   2.583  10.245  3.6017  0.9551 -1.3004
  789MOL0     H 6466  12.324   2.660  10.276  0.2775 -0.3496 -0.2804
  789MOL0     H 6467  12.572   2.664   9.994 -1.2373 -3.4919 -0.6458
  789MOL0     H 6468  12.533   2.775  10.144 -2.5538  0.2951 -2.4893
  789MOL0     H 6469  12.638   2.615  10.295  3.8620 -0.7753  0.7539
  789MOL0     H 6470  12.656   2.489  10.169 -1.9245  0.6994 -0.6237
  789MOL0     H 6471  12.805   2.739  10.224 -1.9407 -0.7664  1.3628
  789MOL0     H 6472  12.808   2.654  10.066  0.8307 -0.5396  0.0194
  789MOL0     H 6473  12.878   2.431  10.209  0.7364  0.1489  0.4712
  789MOL0     H 6474  12.893   2.547  10.338 -0.4885  0.3389  0.7518
  789MOL0     H 6475  13.229   2.605  10.055 -0.8816 -0.6060  0.4808
  789MOL0     H 6476  13.430   2.720  10.130 -0.7541 -1.6055 -0.3923
  789MOL0     H 6477  13.545   2.827  10.757 -1.7845  0.5873 -0.6565
  789MOL0     H 6478  13.699   2.959  10.887 -1.7428 -2.7097  0.7273
  789MOL0     H 6479  14.031   3.151  10.891 -0.0793  3.0795 -3.5931
  789MOL0     H 6480  13.884   3.063  10.955 -2.7005 -1.9149 -2.2545
  789MOL0     H 6481  14.062   2.909  10.922  0.0016 -1.6021  0.7017
  789MOL0     H 6482  13.927   2.874  10.819  1.2761 -1.7065  1.9638
  789MOL0     H 6483  14.045   2.980  10.621 -0.4563  0.4082 -0.1186
  789MOL0     H 6484  14.166   3.044  10.720 -1.0141 -0.4400  1.4081
  789MOL0     H 6485  14.139   2.739  10.683  0.0782 -0.0417  1.2293
  789MOL0     H 6486  14.251   2.824  10.789 -2.4795  1.4128  1.2061
  789MOL0     H 6487  14.376   2.759  10.587 -1.1988 -1.8481 -1.1283
  789MOL0     H 6488  14.365   2.935  10.597  0.7031 -0.1389  0.7677
  789MOL0     H 6489  14.217   2.956  10.413  1.2145  0.0628 -1.0239
  789MOL0     H 6490  14.342   2.831  10.380  1.7558 -0.3050  2.7149
  789MOL0     H 6491  14.097   2.695  10.472 -2.0353 -0.3920 -1.8735
  789MOL0     H 6492  14.219   2.662  10.350 -0.7577 -0.4372 -0.4990
  789MOL0     H 6493  14.109   2.804  10.180  0.0564 -1.2599 -0.1171
  789MOL0     H 6494  13.991   2.703  10.239 -3.0570  2.8579 -3.4670
  789MOL0     H 6495  13.766   3.214  10.538 -1.1146 -1.3692 -0.8747
  789MOL0     H 6496  13.603   3.091  10.413 -0.2781 -3.6697 -1.5902
  789MOL0     H 6497  13.223   2.813  10.506  0.3365  2.4277 -0.7445
  789MOL0     H 6498  13.027   2.695  10.421 -1.4470  0.6009 -2.1518
  789MOL0     H 6499  11.237   2.034  10.493 -0.8451  0.6203 -4.8725
  789MOL0     H 6500  10.994   2.074  10.564 -2.0691  2.0029  0.2425
  789MOL0     H 6501  10.613   2.150  10.863 -2.2841 -1.3307  0.3825
  789MOL0     H 6502  10.367   2.200  10.861  1.0612  1.1536  0.6524
  789MOL0     H 6503  10.179   2.269  10.468 -0.5346  0.5410 -0.7484
  789MOL0     H 6504  10.207   2.427  10.535  2.6033 -2.2034 -3.9974
  789MOL0     H 6505   9.951   2.267  10.558 -0.9960  0.0185  1.6618
  789MOL0     H 6506   9.968   2.432  10.516  0.1629 -0.1925  1.0341
  789MOL0     H 6507  10.017   2.513  10.733 -3.6450  0.5810  0.7077
  789MOL0     H 6508  10.043   2.351  10.805 -2.5290  0.5756  1.8823
  789MOL0     H 6509   9.786   2.432  10.666 -0.2288  0.1614 -0.2409
  789MOL0     H 6510   9.824   2.304  10.777  1.1381  0.4827  0.1661
  789MOL0     H 6511   9.746   2.672  11.005  0.1173 -0.2968  0.1579
  789MOL0     H 6512  10.413   2.409  10.500 -0.0503  1.1117  1.6199
  789MOL0     H 6513  10.596   2.511  10.442 -0.9909 -1.5140 -0.0127
  789MOL0     H 6514  10.737   2.495  10.546  0.1460  1.9423 -1.8561
  789MOL0     H 6515  10.730   2.394  10.415  1.2183 -0.1409  0.2270
  790MOL0     O 6516  11.036   8.340   3.099 -0.5685  0.4120  0.1066
  790MOL0     C 6517  11.061   8.251   3.025 -0.6774  0.3535 -0.4847
  790MOL0     O 6518  11.169   8.251   2.949  0.3415  0.0345  1.0776
  790MOL0     C 6519  11.273   8.336   2.964  0.3634 -0.4112 -0.7941
  790MOL0     C 6520  11.393   8.276   2.941 -0.7465 -0.0312 -0.2983
  790MOL0     C 6521  11.518   8.346   2.950  0.3316 -0.8912  0.3629
  790MOL0     C 6522  11.523   8.483   2.992 -0.3057  0.6826 -0.1486
  790MOL0     O 6523  11.641   8.554   2.974 -0.7425 -0.6448  0.1805
  790MOL0     C 6524  11.769   8.485   2.988  0.3676 -0.3828 -0.0007
  790MOL0     C 6525  11.825   8.430   2.853  0.3431 -0.4136 -0.0859
  790MOL0     C 6526  11.953   8.351   2.882 -0.6016 -1.0474  0.1239
  790MOL0     C 6527  12.005   8.268   2.757  0.2426 -0.7904 -0.7109
  790MOL0     C 6528  12.078   8.352   2.650 -1.3435  0.2646 -0.2869
  790MOL0     C 6529  12.217   8.408   2.694  0.5719 -0.0782  0.5119
  790MOL0     C 6530  12.286   8.486   2.577 -0.1946  0.0009 -0.0312
  790MOL0     C 6531  12.420   8.561   2.617 -0.0375 -0.2548  0.2180
  790MOL0     N 6532  12.468   8.648   2.507  0.0274  0.5478 -0.7736
  790MOL0     C 6533  12.532   8.596   2.395 -0.4835 -0.4770 -0.3435
  790MOL0     C 6534  12.555   8.708   2.318  0.1363  0.4146  0.5415
  790MOL0     C 6535  12.628   8.707   2.187  0.1017  0.1058  0.3617
  790MOL0     C 6536  12.775   8.691   2.197 -0.5520 -0.0518 -0.3036
  790MOL0     C 6537  12.842   8.710   2.063 -0.9254  0.2509  0.0149
  790MOL0     C 6538  12.989   8.699   2.097  0.5630  0.1399 -0.2023
  790MOL0     O 6539  13.033   8.566   2.136 -0.8642  0.0884  0.0183
  790MOL0     C 6540  13.163   8.523   2.123 -0.4680 -0.2214  0.8106
  790MOL0     C 6541  13.275   8.600   2.078  0.3944 -0.6943 -0.0227
  790MOL0     C 6542  13.402   8.551   2.084  0.1445  0.0556  0.0659
  790MOL0     C 6543  13.425   8.410   2.104  0.3122  1.0291 -0.2814
  790MOL0     C 6544  13.560   8.346   2.096  0.3059  0.0437 -0.2293
  790MOL0     O 6545  13.660   8.434   2.087  0.2493  0.0389  0.3558
  790MOL0     C 6546  13.783   8.386   2.056  0.1462  0.0014 -0.4126
  790MOL0     C 6547  13.896   8.436   2.131  0.7040 -0.1365 -0.5235
  790MOL0     C 6548  14.030   8.416   2.095  0.4763  0.0585 -1.1079
  790MOL0     C 6549  14.053   8.321   1.997  0.2191  0.0503  0.5424
  790MOL0     O 6550  14.182   8.281   1.971 -0.1642  0.5879  0.0436
  790MOL0     C 6551  14.245   8.381   1.899 -0.2707  0.3428  0.2157
  790MOL0     C 6552  14.386   8.400   1.965 -0.8012  1.6547  0.0567
  790MOL0     C 6553  14.469   8.263   1.967  0.6949  0.2878 -0.3694
  790MOL0     C 6554  14.613   8.300   1.989 -0.0333 -0.1529  0.8256
  790MOL0     C 6555  14.701   8.179   2.005  0.0986 -0.2617 -0.2080
  790MOL0     C 6556  14.845   8.220   1.996 -0.7657 -0.6007 -0.6760
  790MOL0     C 6557  14.893   8.298   2.119 -0.4090 -0.3649  0.0708
  790MOL0     C 6558  15.047   8.290   2.144  0.5522 -0.9471  0.1414
  790MOL0    Cl 6559  15.086   8.132   2.209  0.0467 -0.0522  0.2048
  790MOL0     C 6560  13.948   8.254   1.932  0.1539 -0.9555 -0.8643
  790MOL0     C 6561  13.815   8.290   1.958  0.4777 -0.2704  0.0765
  790MOL0     O 6562  13.572   8.222   2.103 -0.5240  0.0948 -0.6333
  790MOL0     C 6563  13.311   8.328   2.128  1.2970 -0.1772  0.0979
  790MOL0     C 6564  13.185   8.389   2.151 -0.1497  1.2616 -0.4700
  790MOL0     N 6565  12.512   8.822   2.379 -0.0651 -0.6493 -0.1464
  790MOL0     N 6566  12.464   8.785   2.497 -0.4777  0.2030 -0.1870
  790MOL0     C 6567  11.400   8.535   3.016 -0.1155 -0.5099 -0.4168
  790MOL0     C 6568  11.271   8.468   2.999  0.6508 -0.1493  0.5148
  790MOL0     C 6569  10.964   8.136   3.010  0.5808 -0.2732  0.4925
  790MOL0     C 6570  11.004   8.032   2.917  0.6415 -0.0682  0.5690
  790MOL0     C 6571  10.922   7.927   2.895  0.3637  0.5191  0.0131
  790MOL0     C 6572  10.794   7.910   2.956  0.3611  0.0014  0.2804
  790MOL0     O 6573  10.720   7.811   2.905  0.3525 -0.7056 -0.2528
  790MOL0     C 6574  10.578   7.810   2.914 -0.2783 -0.7940  0.1615
  790MOL0     C 6575  10.517   7.893   2.802 -0.7225 -0.9171 -0.2007
  790MOL0     C 6576  10.556   7.834   2.669  0.1566 -0.6406  0.8324
  790MOL0     C 6577  10.489   7.903   2.552 -0.4418  0.4570 -1.0529
  790MOL0     C 6578  10.356   7.862   2.523 -0.5182 -0.6192 -1.1091
  790MOL0     C 6579  10.240   7.837   2.482  0.5662  0.2030  0.0972
  790MOL0     C 6580  10.759   8.009   3.052  0.4071 -0.3583 -0.3226
  790MOL0     C 6581  10.839   8.119   3.082 -0.1710 -0.0739 -0.1194
  790MOL0     C 6582  10.790   8.211   3.188  0.1569 -0.6101 -0.2895
  790MOL0     H 6583  11.395   8.172   2.909  0.4820  0.0775 -0.6253
  790MOL0     H 6584  11.607   8.290   2.925  0.5008 -0.5753  0.2556
  790MOL0     H 6585  11.836   8.559   3.033 -0.9684  0.2877  0.9614
  790MOL0     H 6586  11.745   8.407   3.061 -0.3728  0.2981  0.4958
  790MOL0     H 6587  11.849   8.512   2.785  0.9642 -0.4481  0.0835
  790MOL0     H 6588  11.741   8.374   2.810 -2.1537  3.4547 -0.7713
  790MOL0     H 6589  11.935   8.277   2.961 -2.6954 -1.8758 -1.0550
  790MOL0     H 6590  12.026   8.424   2.917 -0.0604 -2.8485  3.1396
  790MOL0     H 6591  12.063   8.180   2.788 -0.6928 -1.4082 -0.6833
  790MOL0     H 6592  11.925   8.215   2.705  3.0548 -3.3242 -2.8296
  790MOL0     H 6593  12.096   8.283   2.568 -3.0362 -1.6809  0.8739
  790MOL0     H 6594  12.016   8.437   2.621  0.6474  2.1525  0.6953
  790MOL0     H 6595  12.208   8.474   2.781 -2.2798  1.3243 -0.7248
  790MOL0     H 6596  12.274   8.320   2.725  0.2200 -1.1964 -1.8676
  790MOL0     H 6597  12.216   8.559   2.535  0.4726 -0.3305 -1.8364
  790MOL0     H 6598  12.319   8.417   2.498 -0.0530 -1.0058  0.8797
  790MOL0     H 6599  12.404   8.625   2.704  0.4283 -0.4771  0.4729
  790MOL0     H 6600  12.497   8.490   2.650  0.6085  0.2838 -0.0858
  790MOL0     H 6601  12.569   8.498   2.366 -0.0950 -0.1992 -0.7987
  790MOL0     H 6602  12.589   8.627   2.123 -0.1313  1.5793 -1.4186
  790MOL0     H 6603  12.590   8.793   2.132  0.6504 -0.2557 -0.5944
  790MOL0     H 6604  12.812   8.773   2.258 -0.0953  0.6076 -1.4415
  790MOL0     H 6605  12.790   8.590   2.236 -0.1146 -0.2483 -0.9587
  790MOL0     H 6606  12.827   8.808   2.017  0.6416  1.5519  2.0989
  790MOL0     H 6607  12.820   8.628   1.994  3.2153  0.0805 -1.4098
  790MOL0     H 6608  13.018   8.766   2.179 -0.6343 -3.2131  3.2408
  790MOL0     H 6609  13.051   8.724   2.010  1.7917 -0.5001  0.4614
  790MOL0     H 6610  13.274   8.697   2.030  4.2046 -0.7714 -0.5708
  790MOL0     H 6611  13.489   8.615   2.075  2.0986 -2.0967  2.1247
  790MOL0     H 6612  13.865   8.501   2.212 -0.9414 -0.1776 -1.0679
  790MOL0     H 6613  14.107   8.469   2.150  0.5790 -0.1887 -1.0090
  790MOL0     H 6614  14.256   8.347   1.795  0.1528  0.2187  0.2983
  790MOL0     H 6615  14.190   8.475   1.908 -0.2178  0.3138  0.8819
  790MOL0     H 6616  14.446   8.479   1.919 -2.0975  2.2027 -0.7576
  790MOL0     H 6617  14.376   8.431   2.069  0.6065  0.5753  0.5426
  790MOL0     H 6618  14.436   8.192   2.043  1.3200  0.6319  0.2450
  790MOL0     H 6619  14.453   8.221   1.868 -1.0732 -0.7616  0.3129
  790MOL0     H 6620  14.626   8.362   2.078 -1.8629 -2.2872  2.7374
  790MOL0     H 6621  14.648   8.360   1.905 -1.1372  0.9050  1.1023
  790MOL0     H 6622  14.659   8.122   1.921 -1.6105 -0.4325  0.7000
  790MOL0     H 6623  14.680   8.126   2.098  2.2638 -2.2398 -0.7578
  790MOL0     H 6624  14.920   8.142   1.977 -0.1635 -0.3389  0.5297
  790MOL0     H 6625  14.855   8.271   1.900  1.8399 -2.4700 -1.5300
  790MOL0     H 6626  14.848   8.274   2.216  1.2072 -2.2013  0.4340
  790MOL0     H 6627  14.889   8.407   2.103  0.5481 -0.4926 -1.2154
  790MOL0     H 6628  15.094   8.315   2.048  0.0075  1.7846  0.4937
  790MOL0     H 6629  15.081   8.365   2.216 -1.3979 -0.6957  0.8743
  790MOL0     H 6630  13.971   8.180   1.855  2.4566 -0.6605 -0.5461
  790MOL0     H 6631  13.734   8.235   1.911 -1.0889  0.1716  2.1023
  790MOL0     H 6632  13.320   8.224   2.157  0.9825 -0.5736 -1.1497
  790MOL0     H 6633  13.098   8.331   2.180  0.4975  1.5207  2.2781
  790MOL0     H 6634  11.403   8.635   3.058  1.3076 -0.6398 -0.1521
  790MOL0     H 6635  11.176   8.513   3.025  1.1586 -0.6945  3.6580
  790MOL0     H 6636  11.098   8.042   2.864  1.1776  3.7631  1.9298
  790MOL0     H 6637  10.952   7.871   2.807  0.2696  1.3507 -0.5539
  790MOL0     H 6638  10.542   7.837   3.013 -0.5658 -2.5989  0.5692
  790MOL0     H 6639  10.549   7.705   2.905 -2.2930 -0.1866 -1.0167
  790MOL0     H 6640  10.558   7.994   2.811  1.0273 -1.6738  0.7362
  790MOL0     H 6641  10.408   7.898   2.813 -0.7934  1.8042 -1.3968
  790MOL0     H 6642  10.539   7.726   2.666 -5.6447 -0.1127 -4.1220
  790MOL0     H 6643  10.663   7.848   2.653  0.2176 -2.9269 -1.2848
  790MOL0     H 6644  10.481   8.008   2.582  0.2198  0.3386 -0.4323
  790MOL0     H 6645  10.565   7.902   2.474  0.5060  1.5153 -0.1857
  790MOL0     H 6646  10.136   7.830   2.460  0.6706 -0.3637 -0.2565
  790MOL0     H 6647  10.668   8.010   3.112  1.1665  0.7462  0.8684
  790MOL0     H 6648  10.777   8.308   3.141 -0.5858 -0.6293 -0.1365
  790MOL0     H 6649  10.690   8.190   3.226 -0.9740  1.3517 -1.9965
  790MOL0     H 6650  10.858   8.209   3.274 -2.0687 -2.7103  1.5968
  791MOL0     O 6651   3.614   2.125   8.864  0.6076 -0.1063 -0.1253
  791MOL0     C 6652   3.588   2.211   8.777  0.6734 -0.1106  0.2426
  791MOL0     O 6653   3.667   2.257   8.671  0.4909  0.2161  0.2180
  791MOL0     C 6654   3.786   2.187   8.657  0.1541 -0.4661  0.2453
  791MOL0     C 6655   3.787   2.090   8.563  0.5989 -0.3815  0.1194
  791MOL0     C 6656   3.897   2.018   8.525 -0.8161  0.1827  0.4826
  791MOL0     C 6657   4.027   2.046   8.587  1.4507 -0.0955  0.2753
  791MOL0     O 6658   4.144   1.999   8.533 -0.2672 -0.3928  0.1540
  791MOL0     C 6659   4.273   2.022   8.596  0.3254  0.7230 -0.1584
  791MOL0     C 6660   4.379   1.924   8.539  0.7581 -0.0162 -0.1810
  791MOL0     C 6661   4.521   1.965   8.565 -0.5121 -0.0836  0.2411
  791MOL0     C 6662   4.564   1.952   8.709  0.2949 -0.4047 -0.0599
  791MOL0     C 6663   4.704   2.003   8.750  0.1062 -0.2897  0.1070
  791MOL0     C 6664   4.838   1.935   8.698 -0.1733 -0.3344  0.3215
  791MOL0     C 6665   4.971   1.983   8.757 -0.3820  0.4912 -0.1597
  791MOL0     C 6666   5.085   1.873   8.779  0.3291 -0.1901  0.5081
  791MOL0     N 6667   5.188   1.933   8.866 -0.7282  0.0739  0.4252
  791MOL0     C 6668   5.265   2.046   8.852  0.8506  0.0682  0.1814
  791MOL0     C 6669   5.358   2.038   8.948 -0.3525 -0.5784  0.4897
  791MOL0     C 6670   5.489   2.115   8.960 -0.3825  0.1525 -0.4146
  791MOL0     C 6671   5.611   2.023   8.980  0.2167 -0.2775 -0.1056
  791MOL0     C 6672   5.733   2.109   8.975  0.2508  0.1557  0.4367
  791MOL0     C 6673   5.865   2.037   9.000  0.3623  0.4081  0.8435
  791MOL0     O 6674   5.905   1.953   8.888  0.3078  0.2633 -0.7672
  791MOL0     C 6675   5.985   1.998   8.783  0.3082  0.2349 -0.7053
  791MOL0     C 6676   5.988   1.911   8.667  0.6959 -0.2415  0.5477
  791MOL0     C 6677   6.069   1.934   8.555  0.0641  0.3503 -0.7433
  791MOL0     C 6678   6.151   2.053   8.547 -0.5026 -0.4652 -0.4532
  791MOL0     C 6679   6.232   2.077   8.425 -0.2017  0.4293  0.1679
  791MOL0     O 6680   6.242   1.978   8.333  0.1586 -0.7130 -0.5129
  791MOL0     C 6681   6.323   1.999   8.223 -0.5179 -0.4022 -0.7860
  791MOL0     C 6682   6.456   2.022   8.247 -0.4152 -0.2586 -0.2922
  791MOL0     C 6683   6.551   2.049   8.147  0.2571  0.6550 -0.2024
  791MOL0     C 6684   6.512   2.032   8.011  0.2243  0.1886 -0.0717
  791MOL0     O 6685   6.592   2.039   7.899  0.8342 -0.1921 -1.0178
  791MOL0     C 6686   6.728   2.038   7.920 -0.5481  0.1403 -1.7706
  791MOL0     C 6687   6.788   2.180   7.954  0.2033  0.5675  0.5499
  791MOL0     C 6688   6.926   2.165   8.017 -0.7396  0.2315 -0.3715
  791MOL0     C 6689   7.015   2.288   8.024  0.2950  0.7485  0.2855
  791MOL0     C 6690   7.133   2.268   8.101 -0.2001 -0.7166 -0.9372
  791MOL0     C 6691   7.212   2.400   8.137 -0.2731  0.0655 -0.4350
  791MOL0     C 6692   7.304   2.450   8.022 -0.4818 -0.4938 -0.4598
  791MOL0     C 6693   7.374   2.587   8.052 -0.0706  0.3723 -0.0759
  791MOL0    Cl 6694   7.476   2.640   7.920 -0.1936 -0.1365 -0.0001
  791MOL0     C 6695   6.376   1.998   7.988  0.7353  0.7271  0.0269
  791MOL0     C 6696   6.281   1.990   8.090  0.1679  0.4587 -0.4872
  791MOL0     O 6697   6.270   2.195   8.415 -0.4100  0.3127 -0.8664
  791MOL0     C 6698   6.148   2.135   8.663 -0.5110 -1.0538  0.8603
  791MOL0     C 6699   6.064   2.113   8.774 -0.5246 -0.3663 -0.0533
  791MOL0     N 6700   5.327   1.927   9.022 -0.3423 -0.6671  0.7264
  791MOL0     N 6701   5.225   1.864   8.972  0.7565 -0.0924 -1.1456
  791MOL0     C 6702   4.026   2.148   8.685  1.1710  0.4745 -0.4194
  791MOL0     C 6703   3.909   2.221   8.715  0.0897 -0.2439 -0.0676
  791MOL0     C 6704   3.446   2.253   8.773 -0.6244 -0.2772 -0.5624
  791MOL0     C 6705   3.424   2.384   8.812  0.8464 -0.9934  1.0098
  791MOL0     C 6706   3.290   2.421   8.822 -0.1436 -1.5012 -0.0398
  791MOL0     C 6707   3.179   2.344   8.791 -0.3755  0.1244 -0.0125
  791MOL0     O 6708   3.062   2.396   8.820 -0.9191 -0.4992 -0.5309
  791MOL0     C 6709   2.943   2.327   8.770  0.1683  0.3271 -0.2626
  791MOL0     C 6710   2.823   2.406   8.825  0.0881 -0.5461  0.0972
  791MOL0     C 6711   2.841   2.558   8.793  1.1637  0.4527  0.8563
  791MOL0     C 6712   2.836   2.644   8.915  0.3262  0.4413 -0.0477
  791MOL0     C 6713   2.827   2.778   8.876  0.0007  0.8403 -0.0739
  791MOL0     C 6714   2.808   2.897   8.850 -0.3455 -0.1781 -0.7789
  791MOL0     C 6715   3.205   2.215   8.757 -0.2176  0.3397  0.1962
  791MOL0     C 6716   3.339   2.171   8.750  0.8505 -0.5885 -0.2998
  791MOL0     C 6717   3.368   2.031   8.712  0.9865 -0.8751 -0.2462
  791MOL0     H 6718   3.701   2.087   8.497  0.3928  1.4951  0.2456
  791MOL0     H 6719   3.899   1.945   8.445  0.7305  0.8643 -0.1481
  791MOL0     H 6720   4.303   2.126   8.580 -0.1598  0.8256 -0.4163
  791MOL0     H 6721   4.261   2.000   8.703  3.0972 -1.9018 -0.2522
  791MOL0     H 6722   4.375   1.927   8.430  2.7697 -0.2180 -0.3080
  791MOL0     H 6723   4.348   1.824   8.570  0.1431 -0.1160 -1.0822
  791MOL0     H 6724   4.543   2.067   8.531  3.6714 -0.9882 -0.2731
  791MOL0     H 6725   4.581   1.903   8.498  0.5111  0.5441  0.5596
  791MOL0     H 6726   4.493   2.007   8.772  0.1148  2.1703 -2.3590
  791MOL0     H 6727   4.552   1.845   8.733  0.4920 -1.1706 -3.0245
  791MOL0     H 6728   4.716   2.106   8.715  1.0115 -0.1088  0.9232
  791MOL0     H 6729   4.699   1.999   8.859  0.7607  1.2805  0.2215
  791MOL0     H 6730   4.828   1.828   8.719  0.7794 -1.0161 -2.3247
  791MOL0     H 6731   4.845   1.941   8.589  1.4153 -1.5087  0.3312
  791MOL0     H 6732   4.943   2.012   8.859  0.1151 -2.5149  0.9511
  791MOL0     H 6733   5.001   2.077   8.711 -1.5872  1.9393  1.8197
  791MOL0     H 6734   5.045   1.783   8.825  0.2445  0.3172  1.4509
  791MOL0     H 6735   5.136   1.847   8.686  0.7728 -0.6496  0.8803
  791MOL0     H 6736   5.262   2.126   8.778  0.0928  1.3068  1.5050
  791MOL0     H 6737   5.483   2.185   8.876  1.1132  1.1340  0.2631
  791MOL0     H 6738   5.480   2.170   9.054  1.1800  0.6160 -0.5144
  791MOL0     H 6739   5.608   1.953   9.064 -1.1976  0.1929  0.2612
  791MOL0     H 6740   5.597   1.953   8.897 -1.8062 -1.4065  1.1252
  791MOL0     H 6741   5.724   2.186   9.053 -0.4897  1.1604 -0.5958
  791MOL0     H 6742   5.753   2.172   8.888  1.2800  2.0779  1.9838
  791MOL0     H 6743   5.841   1.986   9.094 -1.0574 -0.4832  0.0292
  791MOL0     H 6744   5.949   2.103   9.024  3.0347 -3.5945  3.8618
  791MOL0     H 6745   5.911   1.836   8.655  0.4057 -0.0961  1.5007
  791MOL0     H 6746   6.061   1.854   8.482  1.6626 -0.6984  0.1959
  791MOL0     H 6747   6.494   2.039   8.348 -0.0992 -0.1970 -0.4211
  791MOL0     H 6748   6.653   2.069   8.178  0.3051 -1.5262  1.2568
  791MOL0     H 6749   6.765   1.969   7.996 -1.8143 -0.5844 -1.7939
  791MOL0     H 6750   6.783   2.001   7.832  0.2190  1.0282 -1.6808
  791MOL0     H 6751   6.804   2.248   7.870  3.0298  1.4684  1.7029
  791MOL0     H 6752   6.725   2.243   8.018  1.8868  1.9401  0.9213
  791MOL0     H 6753   6.906   2.125   8.117  2.4258 -3.1168 -0.8759
  791MOL0     H 6754   6.979   2.090   7.958 -1.3252 -0.5363  0.0524
  791MOL0     H 6755   6.954   2.359   8.081 -0.3916  0.1158  0.3354
  791MOL0     H 6756   7.035   2.321   7.921 -0.2096 -2.5877 -1.0055
  791MOL0     H 6757   7.211   2.211   8.050 -0.3435 -1.7376 -0.0496
  791MOL0     H 6758   7.100   2.224   8.196  0.8699  0.2010 -0.1036
  791MOL0     H 6759   7.142   2.478   8.165  1.9376  2.1328 -0.3312
  791MOL0     H 6760   7.275   2.371   8.222  1.0802  2.5026 -0.5058
  791MOL0     H 6761   7.249   2.456   7.928 -0.3421 -4.4024 -0.9768
  791MOL0     H 6762   7.386   2.379   8.005 -0.2546 -0.2021 -0.5817
  791MOL0     H 6763   7.311   2.675   8.071  0.0719  0.6647 -0.9029
  791MOL0     H 6764   7.436   2.565   8.139 -1.3710  0.4037  0.8955
  791MOL0     H 6765   6.347   1.956   7.893  1.5345 -1.3626  0.6485
  791MOL0     H 6766   6.179   1.957   8.071  0.5928  0.0047 -2.2040
  791MOL0     H 6767   6.200   2.230   8.668  0.6009 -1.6942  2.0150
  791MOL0     H 6768   6.073   2.190   8.850  1.0980 -0.1383 -0.4329
  791MOL0     H 6769   4.121   2.175   8.732  1.4675  2.5112 -2.0422
  791MOL0     H 6770   3.910   2.306   8.782  1.7749  1.1334 -1.7369
  791MOL0     H 6771   3.507   2.451   8.828  0.0944  0.6304 -1.2902
  791MOL0     H 6772   3.277   2.525   8.852 -0.1278 -1.1952 -1.0357
  791MOL0     H 6773   2.931   2.222   8.798  0.3468  0.0034 -1.3466
  791MOL0     H 6774   2.952   2.329   8.661  3.6604  0.0034 -0.1098
  791MOL0     H 6775   2.808   2.388   8.932 -0.3915 -0.1638  0.1003
  791MOL0     H 6776   2.728   2.365   8.790  0.4263 -0.7324 -0.6358
  791MOL0     H 6777   2.760   2.583   8.724  0.2061  0.7321  2.0419
  791MOL0     H 6778   2.937   2.583   8.748  1.1729  0.4316  0.8646
  791MOL0     H 6779   2.746   2.622   8.971 -0.5050  4.1094  0.3243
  791MOL0     H 6780   2.918   2.625   8.984 -2.4858  0.1869  3.4760
  791MOL0     H 6781   2.794   3.001   8.831 -0.1286  0.2915  1.4211
  791MOL0     H 6782   3.123   2.150   8.726 -1.3475  2.2994 -1.1804
  791MOL0     H 6783   3.431   2.021   8.624 -1.3287 -1.5219 -1.9248
  791MOL0     H 6784   3.402   1.971   8.797  1.9729 -0.2508 -0.1798
  791MOL0     H 6785   3.280   1.983   8.668  0.8581  0.2161 -1.2170
  792MOL0     O 6786   6.476   6.379   3.690  1.1161  0.6464  0.7077
  792MOL0     C 6787   6.379   6.419   3.757 -0.4062 -0.1473 -0.5528
  792MOL0     O 6788   6.395   6.458   3.885  0.2492  0.9072  0.2751
  792MOL0     C 6789   6.514   6.500   3.935  0.2137 -0.3033 -0.1876
  792MOL0     C 6790   6.563   6.612   3.870  0.1833 -0.2551  0.4663
  792MOL0     C 6791   6.688   6.660   3.907 -0.3220  0.8896  0.1441
  792MOL0     C 6792   6.760   6.602   4.011  0.4832 -0.3294 -0.1023
  792MOL0     O 6793   6.883   6.649   4.058  0.2015 -0.2437  0.2001
  792MOL0     C 6794   6.987   6.677   3.968  0.0422 -0.1643 -1.1306
  792MOL0     C 6795   7.020   6.548   3.889 -0.7858 -0.0002 -1.0248
  792MOL0     C 6796   7.150   6.580   3.811  0.0465 -0.4119 -0.0452
  792MOL0     C 6797   7.217   6.452   3.740 -0.9923  0.2691  0.5396
  792MOL0     C 6798   7.358   6.486   3.713 -0.3383 -0.5061  0.2396
  792MOL0     C 6799   7.421   6.365   3.647  0.1899  1.0897  0.2095
  792MOL0     C 6800   7.572   6.404   3.613  0.1190 -0.1835 -0.0545
  792MOL0     C 6801   7.632   6.288   3.529  1.0888  0.0888 -0.0464
  792MOL0     N 6802   7.761   6.333   3.473  0.0988 -0.3651  0.3373
  792MOL0     C 6803   7.877   6.379   3.531 -0.5720 -0.0222 -0.7360
  792MOL0     C 6804   7.979   6.379   3.443 -0.1842 -0.5898 -0.4599
  792MOL0     C 6805   8.127   6.413   3.475 -1.2295  0.1832  0.1319
  792MOL0     C 6806   8.222   6.399   3.348 -0.1573  1.1201  1.4356
  792MOL0     C 6807   8.190   6.501   3.231  0.1812  0.4639 -0.1218
  792MOL0     C 6808   8.299   6.503   3.120  0.3533  0.0732  0.0746
  792MOL0     O 6809   8.260   6.596   3.021  0.0896  0.5033  0.5674
  792MOL0     C 6810   8.366   6.629   2.939 -0.7091 -0.1850 -0.0794
  792MOL0     C 6811   8.353   6.747   2.862 -0.2225 -1.0612  0.2520
  792MOL0     C 6812   8.464   6.798   2.787 -1.3245  0.4789 -0.8462
  792MOL0     C 6813   8.588   6.729   2.787 -0.4057  0.3763 -0.0901
  792MOL0     C 6814   8.699   6.782   2.705  0.0644 -0.0430 -0.0374
  792MOL0     O 6815   8.686   6.902   2.638 -0.1809  0.0867  0.2403
  792MOL0     C 6816   8.801   6.946   2.567 -0.4701 -0.3399 -0.4767
  792MOL0     C 6817   8.797   6.947   2.429  0.0311 -0.6136  0.3744
  792MOL0     C 6818   8.905   6.994   2.360 -0.5576  0.6620  0.0041
  792MOL0     C 6819   9.027   7.036   2.431  0.4776  0.3793  0.4634
  792MOL0     O 6820   9.133   7.092   2.362 -0.7239 -0.1582 -0.1311
  792MOL0     C 6821   9.157   7.056   2.233  0.2996  0.6149  1.4361
  792MOL0     C 6822   9.269   7.153   2.175  0.3727 -0.1144  0.6660
  792MOL0     C 6823   9.264   7.169   2.025  0.0374 -0.0705 -0.3873
  792MOL0     C 6824   9.289   7.307   1.981 -0.7585 -0.3956 -0.1435
  792MOL0     C 6825   9.257   7.328   1.826  0.0072  0.6381  0.0202
  792MOL0     C 6826   9.306   7.467   1.778  0.5081  0.8737  0.8368
  792MOL0     C 6827   9.312   7.491   1.633  0.5704  0.8809  0.4603
  792MOL0     C 6828   9.342   7.633   1.598 -0.0604 -0.2419 -0.6765
  792MOL0    Cl 6829   9.512   7.667   1.647 -0.0182 -0.3451 -0.0674
  792MOL0     C 6830   9.033   7.023   2.570  0.1257  0.2301 -0.0741
  792MOL0     C 6831   8.923   6.975   2.634  0.0962 -0.6323  0.0535
  792MOL0     O 6832   8.797   6.710   2.699 -0.6399  0.1239 -1.1648
  792MOL0     C 6833   8.605   6.604   2.856  0.0223 -1.2186 -0.4211
  792MOL0     C 6834   8.494   6.559   2.932 -0.6457 -0.2231 -0.0236
  792MOL0     N 6835   7.925   6.334   3.325  1.1865 -0.0526 -0.3255
  792MOL0     N 6836   7.793   6.300   3.348 -0.0255 -0.2651  0.3378
  792MOL0     C 6837   6.711   6.487   4.066  0.5375 -0.0056 -1.1894
  792MOL0     C 6838   6.587   6.434   4.034 -1.0926  0.0217 -0.0261
  792MOL0     C 6839   6.248   6.418   3.703  0.4944  0.6960  0.2879
  792MOL0     C 6840   6.220   6.309   3.616 -0.0920 -0.0817  0.7376
  792MOL0     C 6841   6.095   6.284   3.569 -0.1666  0.9847  0.5606
  792MOL0     C 6842   5.987   6.366   3.591  0.3201  0.4404  0.4436
  792MOL0     O 6843   5.857   6.340   3.555 -0.2816  0.2960  0.6854
  792MOL0     C 6844   5.831   6.294   3.418 -0.7950 -0.1464 -0.5526
  792MOL0     C 6845   5.688   6.310   3.374  1.1228 -0.2499 -0.0289
  792MOL0     C 6846   5.585   6.213   3.443 -0.6681  0.3249  0.8293
  792MOL0     C 6847   5.447   6.222   3.383  0.3493  0.3586  0.3726
  792MOL0     C 6848   5.363   6.339   3.413 -0.2478  0.2834 -0.5472
  792MOL0     C 6849   5.308   6.440   3.445 -0.3558  0.0977 -0.1111
  792MOL0     C 6850   6.014   6.480   3.668 -0.1499 -0.4188 -0.1414
  792MOL0     C 6851   6.144   6.508   3.722 -0.2258 -0.1800 -0.1701
  792MOL0     C 6852   6.166   6.640   3.805 -0.7907  0.6907  0.2184
  792MOL0     H 6853   6.518   6.672   3.792  0.0284  0.5626  1.1764
  792MOL0     H 6854   6.739   6.741   3.856 -0.2340 -0.0023 -1.2424
  792MOL0     H 6855   6.962   6.756   3.896  0.3910  1.5762  0.5899
  792MOL0     H 6856   7.066   6.713   4.034 -1.5160 -0.5058  1.0081
  792MOL0     H 6857   6.936   6.535   3.820  0.3595  2.5078 -3.0457
  792MOL0     H 6858   7.026   6.464   3.959 -1.2934  0.7776 -0.0316
  792MOL0     H 6859   7.226   6.633   3.869  0.1020 -2.2245  1.6505
  792MOL0     H 6860   7.123   6.652   3.733 -2.9852  0.3570  1.5555
  792MOL0     H 6861   7.211   6.370   3.812 -0.4996 -0.5761 -0.3580
  792MOL0     H 6862   7.155   6.428   3.654  0.5522  0.6133 -0.7041
  792MOL0     H 6863   7.364   6.578   3.654  1.0914  0.1189  1.2950
  792MOL0     H 6864   7.412   6.506   3.806  0.0680 -0.1004 -0.0758
  792MOL0     H 6865   7.410   6.285   3.721  2.7298 -0.7639 -1.2971
  792MOL0     H 6866   7.375   6.334   3.553  0.5305  1.7619 -0.1845
  792MOL0     H 6867   7.622   6.402   3.711 -0.0183 -0.4836  0.0103
  792MOL0     H 6868   7.570   6.501   3.563  0.6516  0.6577  1.4805
  792MOL0     H 6869   7.652   6.197   3.586 -0.5092 -0.4172 -0.2188
  792MOL0     H 6870   7.568   6.269   3.442  2.4861 -0.0927 -1.0673
  792MOL0     H 6871   7.879   6.419   3.632 -1.7666  0.1901 -0.7821
  792MOL0     H 6872   8.129   6.516   3.512  0.8623 -0.0023  0.6584
  792MOL0     H 6873   8.173   6.357   3.557 -2.9933 -0.7077  0.5469
  792MOL0     H 6874   8.325   6.412   3.381 -0.3684  2.0213  1.7674
  792MOL0     H 6875   8.201   6.302   3.301  0.1075  0.6870  2.1936
  792MOL0     H 6876   8.176   6.601   3.272  0.5968  0.1931  0.7029
  792MOL0     H 6877   8.091   6.476   3.191 -0.2000 -1.8603  1.9763
  792MOL0     H 6878   8.320   6.404   3.079 -1.4705 -0.7260  0.9977
  792MOL0     H 6879   8.389   6.542   3.168  1.1883  1.3516 -2.3462
  792MOL0     H 6880   8.258   6.799   2.856  0.1726 -0.4920 -1.7939
  792MOL0     H 6881   8.472   6.894   2.737  1.8490  1.3863  1.1337
  792MOL0     H 6882   8.713   6.918   2.367  1.0771  3.2119 -3.3060
  792MOL0     H 6883   8.892   6.989   2.252 -0.0706 -3.4177 -0.0309
  792MOL0     H 6884   9.198   6.956   2.217 -2.2338 -0.0949 -1.8970
  792MOL0     H 6885   9.063   7.068   2.177  0.7612 -1.7609 -0.0276
  792MOL0     H 6886   9.248   7.251   2.218 -3.4510  0.6478 -2.3575
  792MOL0     H 6887   9.374   7.130   2.199  0.7834  0.1743 -0.7571
  792MOL0     H 6888   9.336   7.100   1.980  0.2429  0.9431 -1.6690
  792MOL0     H 6889   9.163   7.140   1.995 -0.1657  1.7896 -1.7005
  792MOL0     H 6890   9.398   7.318   1.986 -0.7997 -0.3654  1.0048
  792MOL0     H 6891   9.238   7.380   2.046 -1.4602 -2.2020  1.4300
  792MOL0     H 6892   9.156   7.297   1.799  0.5442 -0.2298 -1.0642
  792MOL0     H 6893   9.324   7.259   1.774  1.9220  2.4575 -0.0842
  792MOL0     H 6894   9.234   7.538   1.819  1.0162  0.3948  2.6490
  792MOL0     H 6895   9.400   7.500   1.825  0.1473  2.2752  0.6395
  792MOL0     H 6896   9.218   7.457   1.590 -0.1285 -1.6068  3.5855
  792MOL0     H 6897   9.400   7.429   1.611 -1.2423 -1.3405 -0.8884
  792MOL0     H 6898   9.326   7.654   1.492  0.4299 -1.4836 -1.0143
  792MOL0     H 6899   9.272   7.706   1.640 -1.4074 -1.1803 -1.2304
  792MOL0     H 6900   9.116   7.049   2.634 -0.4476 -1.7019  1.5689
  792MOL0     H 6901   8.923   6.955   2.740 -1.3161  0.2522  0.2439
  792MOL0     H 6902   8.695   6.543   2.850 -0.4787 -1.8728 -1.6824
  792MOL0     H 6903   8.511   6.462   2.977 -1.8644 -1.0970 -1.3848
  792MOL0     H 6904   6.773   6.445   4.145 -0.4038 -0.6488 -0.7763
  792MOL0     H 6905   6.540   6.352   4.087  1.8919 -1.2554  0.8499
  792MOL0     H 6906   6.290   6.232   3.584 -1.1426 -1.0091  0.6247
  792MOL0     H 6907   6.087   6.196   3.506 -0.6002  2.0336 -0.9263
  792MOL0     H 6908   5.858   6.188   3.425 -2.0625 -0.5029 -0.7791
  792MOL0     H 6909   5.892   6.349   3.347 -0.1281 -0.5033 -0.2739
  792MOL0     H 6910   5.681   6.290   3.267  0.2390 -2.4592  0.3936
  792MOL0     H 6911   5.649   6.411   3.389 -1.9392 -0.7737 -3.1526
  792MOL0     H 6912   5.583   6.248   3.546 -0.8942 -0.6653  1.1730
  792MOL0     H 6913   5.625   6.111   3.437  2.3091  1.4011  0.3545
  792MOL0     H 6914   5.448   6.234   3.274 -0.4081  3.6161  0.6077
  792MOL0     H 6915   5.386   6.138   3.417 -4.1089  2.2839 -1.8875
  792MOL0     H 6916   5.269   6.532   3.485 -0.8856  0.0412 -0.4839
  792MOL0     H 6917   5.925   6.537   3.691 -0.6356 -1.5367  0.8626
  792MOL0     H 6918   6.193   6.613   3.908  0.9847 -0.1625 -0.4445
  792MOL0     H 6919   6.248   6.697   3.760 -0.6163  0.1594 -0.1408
  792MOL0     H 6920   6.081   6.708   3.796  0.4553  2.1615 -1.1061
  793MOL0     O 6921   5.249   3.908  10.345 -0.2248 -0.6509  0.1188
  793MOL0     C 6922   5.222   3.831  10.437 -1.1396  0.1526 -0.0293
  793MOL0     O 6923   5.318   3.759  10.513  0.4818  0.0857 -0.0541
  793MOL0     C 6924   5.456   3.783  10.499 -0.6418 -0.2964 -0.1531
  793MOL0     C 6925   5.521   3.898  10.449 -0.1918 -0.0465 -0.2710
  793MOL0     C 6926   5.653   3.901  10.425  0.2541  0.7697  1.0175
  793MOL0     C 6927   5.734   3.797  10.453 -0.1093 -0.0254 -0.4204
  793MOL0     O 6928   5.866   3.815  10.437 -0.3442 -0.3290 -0.2751
  793MOL0     C 6929   5.933   3.701  10.383  0.0976 -0.2885 -0.2111
  793MOL0     C 6930   6.078   3.723  10.334  0.7049  0.1793  0.4786
  793MOL0     C 6931   6.166   3.727  10.456  0.2383  0.8927  0.1528
  793MOL0     C 6932   6.293   3.811  10.446 -0.1497 -0.2341  0.4736
  793MOL0     C 6933   6.356   3.845  10.588  0.5941 -0.5195 -0.9537
  793MOL0     C 6934   6.498   3.907  10.585  0.4253  0.2522  0.4464
  793MOL0     C 6935   6.537   3.956  10.721 -0.3636  0.1375  0.1289
  793MOL0     C 6936   6.688   3.978  10.733  0.4702  0.2321  1.0804
  793MOL0     N 6937   6.748   3.857  10.764 -0.2642  0.0295  0.4616
  793MOL0     C 6938   6.865   3.837  10.841 -0.7522  0.3749  0.0194
  793MOL0     C 6939   6.882   3.704  10.859 -0.0550  0.3241 -0.1890
  793MOL0     C 6940   6.974   3.638  10.946  0.3291  0.5062  0.2375
  793MOL0     C 6941   7.126   3.702  10.928  0.9045 -0.6357 -0.1717
  793MOL0     C 6942   7.236   3.654  11.024  0.6869 -0.4026  0.0514
  793MOL0     C 6943   7.353   3.753  11.038  0.0503  0.3909  0.1583
  793MOL0     O 6944   7.447   3.695  11.124 -0.0124 -0.1383  0.6242
  793MOL0     C 6945   7.574   3.741  11.117  0.1463  0.1354  0.4861
  793MOL0     C 6946   7.684   3.674  11.072 -0.7173 -0.4577  0.3417
  793MOL0     C 6947   7.809   3.729  11.061  0.2331  0.0395  0.1122
  793MOL0     C 6948   7.832   3.864  11.089  0.4031  0.5755  0.0169
  793MOL0     C 6949   7.960   3.930  11.106 -0.1245  0.0538 -0.3292
  793MOL0     O 6950   7.966   4.049  11.177 -0.5219 -0.3269  0.1322
  793MOL0     C 6951   8.091   4.108  11.209 -0.6260  0.4996 -0.1849
  793MOL0     C 6952   8.201   4.115  11.131 -0.4716  0.1985 -0.0523
  793MOL0     C 6953   8.312   4.197  11.176 -0.1233 -0.4283  0.4910
  793MOL0     C 6954   8.308   4.266  11.297  0.2718 -0.2022 -0.6444
  793MOL0     O 6955   8.407   4.348  11.348 -0.0704  0.5545  0.2934
  793MOL0     C 6956   8.530   4.359  11.270  0.9743 -0.8855 -0.4788
  793MOL0     C 6957   8.622   4.465  11.330  0.8264  0.3975  0.4242
  793MOL0     C 6958   8.766   4.468  11.273 -0.5136  0.7649  0.6899
  793MOL0     C 6959   8.856   4.574  11.337  0.6567  0.0784 -0.0432
  793MOL0     C 6960   9.006   4.562  11.301 -0.4426 -0.0396 -0.3090
  793MOL0     C 6961   9.082   4.436  11.334 -0.7014 -0.1306 -0.4440
  793MOL0     C 6962   9.232   4.462  11.350 -1.2235  0.1094 -0.2481
  793MOL0     C 6963   9.307   4.332  11.405  0.5204 -0.2570  0.9424
  793MOL0    Cl 6964   9.328   4.224  11.262  0.2459 -0.1375  0.1155
  793MOL0     C 6965   8.194   4.254  11.372  0.2709 -0.7295 -0.2334
  793MOL0     C 6966   8.086   4.181  11.330  0.0589 -0.0519 -0.0771
  793MOL0     O 6967   8.049   3.879  11.038 -0.2766 -0.3000 -0.4509
  793MOL0     C 6968   7.717   3.930  11.143  0.4501  0.5600 -1.0275
  793MOL0     C 6969   7.592   3.872  11.161  0.6266  0.2992  0.1860
  793MOL0     N 6970   6.803   3.639  10.772  0.8508  1.0585  1.1441
  793MOL0     N 6971   6.719   3.735  10.721  0.8647 -0.0121  0.2504
  793MOL0     C 6972   5.680   3.691  10.529 -0.2226 -0.6849  0.5095
  793MOL0     C 6973   5.542   3.683  10.546  0.4541 -0.0447  0.3670
  793MOL0     C 6974   5.088   3.776  10.444  0.0386  0.1416  0.2811
  793MOL0     C 6975   5.071   3.637  10.471 -0.2892 -0.2936  0.9186
  793MOL0     C 6976   4.949   3.574  10.462 -0.1146  0.3462 -0.7508
  793MOL0     C 6977   4.827   3.648  10.447 -0.0277  0.9567  0.7903
  793MOL0     O 6978   4.697   3.603  10.455  0.2258 -0.2017  0.5693
  793MOL0     C 6979   4.666   3.464  10.484  0.0029  0.8848  0.4033
  793MOL0     C 6980   4.686   3.438  10.633  0.5665  1.3457  0.7037
  793MOL0     C 6981   4.592   3.316  10.674 -0.5480  0.2813  0.2779
  793MOL0     C 6982   4.644   3.252  10.798  0.1212 -0.1204 -0.0046
  793MOL0     C 6983   4.649   3.347  10.911 -0.1181  0.1964 -0.1998
  793MOL0     C 6984   4.650   3.403  11.026 -0.1898 -0.2282 -0.4391
  793MOL0     C 6985   4.843   3.778  10.419 -0.4736  0.4349  1.3747
  793MOL0     C 6986   4.964   3.843  10.411 -0.2390 -0.1268  0.8400
  793MOL0     C 6987   4.964   3.994  10.378  0.2116  0.7451 -0.2189
  793MOL0     H 6988   5.460   3.987  10.438 -0.6777  0.0378  2.4274
  793MOL0     H 6989   5.704   3.984  10.377  1.9836  0.3364  1.9974
  793MOL0     H 6990   5.933   3.623  10.460  1.2742 -0.2439 -0.1420
  793MOL0     H 6991   5.873   3.660  10.301 -0.2017  0.3814 -0.3278
  793MOL0     H 6992   6.077   3.812  10.270  0.6497  0.1489  0.4372
  793MOL0     H 6993   6.108   3.634  10.278  0.0547 -0.4363  1.0999
  793MOL0     H 6994   6.176   3.623  10.486 -0.7260 -0.2466 -3.0995
  793MOL0     H 6995   6.109   3.768  10.540  2.4170 -0.2169  2.3023
  793MOL0     H 6996   6.356   3.753  10.377 -3.6367 -1.3891 -1.9884
  793MOL0     H 6997   6.278   3.899  10.383 -0.8785 -0.5576  0.1940
  793MOL0     H 6998   6.288   3.916  10.637 -0.5196 -1.6840 -0.7447
  793MOL0     H 6999   6.358   3.756  10.651 -0.3132 -0.1371 -0.3633
  793MOL0     H 7000   6.571   3.833  10.551  0.7898  1.1578 -0.8161
  793MOL0     H 7001   6.505   3.987  10.511  0.3995  0.6998  0.9227
  793MOL0     H 7002   6.511   3.886  10.801 -1.6492  0.5873  0.1145
  793MOL0     H 7003   6.477   4.045  10.740 -1.2641 -0.6590  1.1256
  793MOL0     H 7004   6.721   4.012  10.634  1.9739 -1.2101  1.0348
  793MOL0     H 7005   6.717   4.059  10.800 -1.5971  0.9476  1.1758
  793MOL0     H 7006   6.917   3.918  10.891  0.7014 -1.5094  1.7041
  793MOL0     H 7007   6.946   3.657  11.050  0.2559  0.8235  0.1591
  793MOL0     H 7008   6.976   3.529  10.934  1.5154  0.3582  1.4610
  793MOL0     H 7009   7.148   3.685  10.822  0.3959 -0.7296 -0.2662
  793MOL0     H 7010   7.117   3.809  10.947 -1.5080 -0.3327 -2.3745
  793MOL0     H 7011   7.270   3.556  10.989 -2.0681 -1.0182 -1.2132
  793MOL0     H 7012   7.199   3.647  11.127  1.2947 -0.8408  0.2421
  793MOL0     H 7013   7.318   3.854  11.062  2.5142  1.2614  0.3312
  793MOL0     H 7014   7.394   3.763  10.937  0.3501 -1.2538  0.0852
  793MOL0     H 7015   7.673   3.568  11.048 -2.4439  0.3557 -3.2420
  793MOL0     H 7016   7.893   3.664  11.037  0.2352  0.1864 -0.2869
  793MOL0     H 7017   8.195   4.068  11.033 -2.1073 -0.9368  0.5290
  793MOL0     H 7018   8.392   4.187  11.104  0.0060 -0.8869  0.6980
  793MOL0     H 7019   8.578   4.262  11.254 -0.1487 -1.3845 -0.8643
  793MOL0     H 7020   8.514   4.405  11.172  4.3558  0.4801 -0.5496
  793MOL0     H 7021   8.570   4.560  11.315 -1.4982 -0.6213  1.4631
  793MOL0     H 7022   8.624   4.446  11.438 -0.8141  0.4815  0.4879
  793MOL0     H 7023   8.804   4.368  11.291  0.7539  0.0872 -4.2960
  793MOL0     H 7024   8.773   4.488  11.166  0.4839  0.7640  0.7511
  793MOL0     H 7025   8.845   4.565  11.446 -0.9678 -2.7321 -0.3506
  793MOL0     H 7026   8.817   4.675  11.321  1.1922  0.4331  0.8334
  793MOL0     H 7027   9.059   4.646  11.347 -1.3431  0.0474  0.6151
  793MOL0     H 7028   9.015   4.578  11.193  1.0107  1.7722  0.0333
  793MOL0     H 7029   9.050   4.401  11.432 -1.0232  0.3432 -0.3768
  793MOL0     H 7030   9.069   4.356  11.261  1.2805 -0.4169 -0.5409
  793MOL0     H 7031   9.242   4.538  11.428  1.4425  1.2535 -1.5839
  793MOL0     H 7032   9.273   4.503  11.258 -2.1488  1.6923  0.0185
  793MOL0     H 7033   9.409   4.364  11.430  0.6154  0.8877 -0.7142
  793MOL0     H 7034   9.256   4.278  11.485  2.0334  0.3372  2.3785
  793MOL0     H 7035   8.185   4.317  11.460  2.1787  1.1512 -1.2731
  793MOL0     H 7036   7.988   4.179  11.376  0.0046  2.1385 -0.0044
  793MOL0     H 7037   7.725   4.030  11.185 -0.7540  0.4331 -0.4330
  793MOL0     H 7038   7.514   3.933  11.205  2.1041  0.8777  2.1303
  793MOL0     H 7039   5.742   3.621  10.584  1.6933  0.5824  0.0771
  793MOL0     H 7040   5.507   3.600  10.606 -0.4503 -0.1632 -0.3011
  793MOL0     H 7041   5.159   3.576  10.486 -0.3685 -0.7776 -0.4571
  793MOL0     H 7042   4.952   3.466  10.473 -0.2443 -0.0528 -3.7716
  793MOL0     H 7043   4.743   3.404  10.434 -1.3449 -0.9112  0.4105
  793MOL0     H 7044   4.569   3.433  10.444  1.4718 -1.3807 -1.6853
  793MOL0     H 7045   4.664   3.519  10.702 -3.0613  0.6300  0.5826
  793MOL0     H 7046   4.791   3.416  10.656 -0.2992 -0.5342  3.4325
  793MOL0     H 7047   4.587   3.238  10.598  3.3370  0.5461 -0.4801
  793MOL0     H 7048   4.496   3.363  10.696 -1.1312 -1.0007  0.5594
  793MOL0     H 7049   4.586   3.165  10.828 -2.1259  1.3727  0.2208
  793MOL0     H 7050   4.744   3.212  10.779 -1.0299 -3.3177  0.0792
  793MOL0     H 7051   4.667   3.443  11.124 -0.4957 -2.0606  0.4032
  793MOL0     H 7052   4.751   3.836  10.415 -1.2998 -0.9200 -0.9589
  793MOL0     H 7053   5.027   4.022  10.293 -0.0110  0.6201 -0.4268
  793MOL0     H 7054   4.863   4.016  10.343 -0.0663 -3.2467 -2.6005
  793MOL0     H 7055   5.003   4.049  10.465  0.3926  0.5966 -0.2081
  794MOL0     O 7056   3.170   8.831  10.464  0.2827  0.5356  0.0445
  794MOL0     C 7057   3.236   8.925  10.413 -0.4091  0.2510  0.4400
  794MOL0     O 7058   3.216   9.060  10.451  0.1329 -0.1772 -0.1482
  794MOL0     C 7059   3.134   9.101  10.552 -0.8991 -1.3583 -0.6889
  794MOL0     C 7060   3.014   9.043  10.591 -0.4783 -0.2754  1.3293
  794MOL0     C 7061   2.937   9.111  10.688  0.8223  0.1137  0.4730
  794MOL0     C 7062   2.976   9.234  10.738  0.2388  0.0904 -0.3152
  794MOL0     O 7063   2.898   9.301  10.828  0.3862 -0.0355 -0.1001
  794MOL0     C 7064   2.779   9.243  10.877  0.0547 -0.7584  0.5900
  794MOL0     C 7065   2.702   9.338  10.974  0.4328 -0.6928  0.2146
  794MOL0     C 7066   2.758   9.328  11.110 -0.0722  0.2702  0.5639
  794MOL0     C 7067   2.905   9.358  11.112  0.1888 -0.2422  0.2069
  794MOL0     C 7068   2.996   9.237  11.126  0.7877 -0.1428  0.4866
  794MOL0     C 7069   3.134   9.273  11.079 -0.5242  0.3011 -0.1952
  794MOL0     C 7070   3.243   9.166  11.109  0.0802 -0.2771 -0.0780
  794MOL0     C 7071   3.387   9.214  11.134 -0.1705 -0.5786  0.1367
  794MOL0     N 7072   3.474   9.101  11.161  0.4351 -0.6216 -0.2407
  794MOL0     C 7073   3.507   9.005  11.071  1.0295  1.1954  0.9937
  794MOL0     C 7074   3.598   8.936  11.130 -0.9168 -0.0530 -0.5820
  794MOL0     C 7075   3.664   8.814  11.058  0.3205  0.7746  0.5573
  794MOL0     C 7076   3.824   8.795  11.075  0.5703 -0.0526  0.1806
  794MOL0     C 7077   3.909   8.920  11.044  0.1975  0.9163 -0.8764
  794MOL0     C 7078   3.876   8.993  10.905 -0.3480  0.0175  0.1554
  794MOL0     O 7079   3.907   8.899  10.801 -0.1699  0.4861 -0.1429
  794MOL0     C 7080   4.028   8.887  10.751 -0.6915  0.5855 -0.0160
  794MOL0     C 7081   4.148   8.959  10.790  0.3467  0.4414  0.5428
  794MOL0     C 7082   4.267   8.934  10.729 -0.0024  0.1505  0.7764
  794MOL0     C 7083   4.283   8.834  10.627  0.4655 -0.5912  0.7000
  794MOL0     C 7084   4.414   8.800  10.564 -0.3296  0.1630  0.2839
  794MOL0     O 7085   4.535   8.850  10.617 -0.7374 -0.4526 -1.3071
  794MOL0     C 7086   4.662   8.826  10.566  0.1436  0.9559 -0.0094
  794MOL0     C 7087   4.693   8.816  10.432 -0.6236  0.6927  0.9108
  794MOL0     C 7088   4.820   8.784  10.397  0.0705  0.6213 -0.0385
  794MOL0     C 7089   4.920   8.760  10.496  0.3078 -0.3583 -0.2759
  794MOL0     O 7090   5.040   8.706  10.445 -0.2135 -0.5992  0.4284
  794MOL0     C 7091   5.141   8.646  10.527 -0.2526 -0.2969 -0.3313
  794MOL0     C 7092   5.116   8.497  10.559  0.2190 -1.1029 -0.0994
  794MOL0     C 7093   5.212   8.451  10.668 -0.3994 -0.5331 -1.1827
  794MOL0     C 7094   5.177   8.304  10.683  0.2908  0.2266  0.6438
  794MOL0     C 7095   5.224   8.253  10.820 -0.5336  0.8502 -0.3889
  794MOL0     C 7096   5.373   8.204  10.825  0.5501 -1.1227  0.2643
  794MOL0     C 7097   5.420   8.156  10.959  0.3389  0.1841 -0.4074
  794MOL0     C 7098   5.535   8.056  10.944  0.0158 -0.4773 -0.2270
  794MOL0    Cl 7099   5.592   8.030  11.114 -0.3832  0.2217 -0.1635
  794MOL0     C 7100   4.889   8.769  10.629  0.5702 -0.0112  0.1759
  794MOL0     C 7101   4.759   8.804  10.663  1.3819  0.1157 -0.0572
  794MOL0     O 7102   4.406   8.732  10.462  0.3090 -0.7242 -0.2810
  794MOL0     C 7103   4.169   8.757  10.594 -0.1498  1.2167 -0.9147
  794MOL0     C 7104   4.044   8.785  10.653  0.1853 -0.7473 -0.1697
  794MOL0     N 7105   3.635   8.989  11.253 -0.1090  0.3786  0.6320
  794MOL0     N 7106   3.548   9.083  11.270 -0.4394 -0.4013 -0.0675
  794MOL0     C 7107   3.092   9.293  10.693  0.1034 -0.4247 -0.7564
  794MOL0     C 7108   3.168   9.231  10.598 -0.3606 -0.5536  0.1733
  794MOL0     C 7109   3.352   8.892  10.327 -0.6874 -0.5155 -0.1032
  794MOL0     C 7110   3.452   8.989  10.309  0.3942 -0.3384  0.1934
  794MOL0     C 7111   3.573   8.966  10.247  0.2516  0.1333  0.1928
  794MOL0     C 7112   3.592   8.841  10.187 -0.5138  0.0171  1.1098
  794MOL0     O 7113   3.709   8.795  10.134  1.0773 -0.2188 -0.3708
  794MOL0     C 7114   3.826   8.870  10.149  0.4807  0.6500 -0.0138
  794MOL0     C 7115   3.929   8.770  10.089 -0.4213  0.2367 -0.6141
  794MOL0     C 7116   4.055   8.857  10.065  0.4269  0.8410  0.3157
  794MOL0     C 7117   4.146   8.768   9.974 -0.3082 -0.2599  0.1791
  794MOL0     C 7118   4.271   8.848   9.937  0.3469  0.0594 -0.4238
  794MOL0     C 7119   4.366   8.919   9.909  0.6791  0.0037  0.1458
  794MOL0     C 7120   3.491   8.749  10.184  1.0572  0.2811 -0.2844
  794MOL0     C 7121   3.376   8.762  10.264 -0.1543 -0.7580 -0.1665
  794MOL0     C 7122   3.265   8.666  10.256 -0.8127 -0.3858 -0.2124
  794MOL0     H 7123   2.973   8.956  10.542 -1.5617  0.1909  1.3882
  794MOL0     H 7124   2.839   9.076  10.721 -1.0023  3.1567 -1.2325
  794MOL0     H 7125   2.718   9.227  10.787  1.1793 -1.2485 -0.1086
  794MOL0     H 7126   2.798   9.144  10.919 -2.9671 -1.5357  0.3378
  794MOL0     H 7127   2.596   9.312  10.980 -0.2709  1.7827 -0.4899
  794MOL0     H 7128   2.707   9.442  10.940  4.0405 -0.1599  1.8700
  794MOL0     H 7129   2.743   9.228  11.151  0.6324  0.6037  1.6851
  794MOL0     H 7130   2.704   9.399  11.173 -2.2712  0.0458 -0.9593
  794MOL0     H 7131   2.937   9.405  11.018  2.2468  1.2664  1.5972
  794MOL0     H 7132   2.928   9.433  11.187  1.0238  3.1465 -3.1093
  794MOL0     H 7133   2.992   9.193  11.226 -0.5393 -0.8631  0.1375
  794MOL0     H 7134   2.974   9.157  11.055 -1.2085  1.0084 -0.2716
  794MOL0     H 7135   3.143   9.296  10.972 -1.6805  5.0018  0.5211
  794MOL0     H 7136   3.170   9.362  11.131  0.4433 -0.5488  0.6204
  794MOL0     H 7137   3.245   9.098  11.024 -0.9995  1.6613 -1.7534
  794MOL0     H 7138   3.209   9.115  11.200  0.8054  0.9111  0.8883
  794MOL0     H 7139   3.426   9.267  11.047  2.4815 -2.3557  0.1331
  794MOL0     H 7140   3.396   9.292  11.210  0.0257 -0.9531  0.5049
  794MOL0     H 7141   3.465   8.980  10.973 -0.0976 -1.4360  2.0456
  794MOL0     H 7142   3.607   8.726  11.088 -2.1901  1.6182 -1.3174
  794MOL0     H 7143   3.633   8.822  10.954  0.5402 -0.4140  0.3962
  794MOL0     H 7144   3.840   8.770  11.180 -0.0541  1.4678  0.6687
  794MOL0     H 7145   3.851   8.708  11.014 -0.6435 -0.9752  0.9050
  794MOL0     H 7146   4.013   8.887  11.046 -0.6881 -2.2148  1.4058
  794MOL0     H 7147   3.895   8.985  11.130 -1.5891 -0.8488  0.2780
  794MOL0     H 7148   3.926   9.089  10.890 -0.8254  0.0645 -1.3282
  794MOL0     H 7149   3.771   9.025  10.908 -0.1335  0.7172  0.5386
  794MOL0     H 7150   4.136   9.021  10.878 -0.8685  2.2223 -0.8041
  794MOL0     H 7151   4.359   8.980  10.766  1.3787 -1.7643 -0.1231
  794MOL0     H 7152   4.626   8.835  10.349 -0.5227  3.0473  1.3043
  794MOL0     H 7153   4.843   8.775  10.291 -1.7957 -2.0907 -0.3312
  794MOL0     H 7154   5.233   8.639  10.467 -1.3144 -4.2100 -1.8024
  794MOL0     H 7155   5.155   8.708  10.616  0.4717 -1.2435  0.2385
  794MOL0     H 7156   5.016   8.492  10.604 -0.4767 -2.7135 -1.7009
  794MOL0     H 7157   5.129   8.433  10.471  1.9095  2.0739 -2.3719
  794MOL0     H 7158   5.317   8.452  10.640  1.1949  1.2306  3.8163
  794MOL0     H 7159   5.215   8.509  10.760  2.6033  0.6222 -1.9265
  794MOL0     H 7160   5.206   8.243  10.597 -1.0408 -0.9170  0.9706
  794MOL0     H 7161   5.069   8.304  10.673  0.3831  2.1014 -0.8334
  794MOL0     H 7162   5.165   8.163  10.838  1.4983 -0.3964  0.3506
  794MOL0     H 7163   5.198   8.323  10.899 -1.2024 -2.3649  2.4845
  794MOL0     H 7164   5.384   8.124  10.751  0.9359  0.0554 -1.0019
  794MOL0     H 7165   5.426   8.286  10.775 -0.9523 -1.0565 -1.3082
  794MOL0     H 7166   5.342   8.123  11.029  0.8857  2.6826  1.5607
  794MOL0     H 7167   5.458   8.240  11.018 -1.1285  1.3815 -1.1049
  794MOL0     H 7168   5.493   7.963  10.905  1.5860 -1.8516  1.2313
  794MOL0     H 7169   5.608   8.095  10.873 -0.1984 -1.0186 -0.7495
  794MOL0     H 7170   4.958   8.753  10.711  1.1021 -1.4037 -0.5025
  794MOL0     H 7171   4.717   8.805  10.763 -2.6305  1.4353 -1.5722
  794MOL0     H 7172   4.187   8.669  10.533 -1.3533  0.3354 -0.0694
  794MOL0     H 7173   3.957   8.722  10.635 -0.1218  0.1393 -2.0106
  794MOL0     H 7174   3.118   9.394  10.723  0.0510 -0.2805 -1.1988
  794MOL0     H 7175   3.255   9.285  10.562 -1.1265  0.8919  0.4087
  794MOL0     H 7176   3.450   9.089  10.353  0.1549 -1.1698  2.2085
  794MOL0     H 7177   3.643   9.048  10.237  2.5259 -1.6870  0.4053
  794MOL0     H 7178   3.848   8.901  10.251 -1.3959 -1.8842  1.2876
  794MOL0     H 7179   3.822   8.956  10.081 -0.3606 -0.8947 -2.0522
  794MOL0     H 7180   3.899   8.732   9.992 -4.2815 -1.6480  1.1049
  794MOL0     H 7181   3.946   8.691  10.163 -1.9690 -0.7039 -1.2356
  794MOL0     H 7182   4.100   8.880  10.162 -0.7874 -1.6468  1.5701
  794MOL0     H 7183   4.031   8.946  10.007  0.5862  1.3219  0.9789
  794MOL0     H 7184   4.180   8.671  10.011  1.3118 -0.0657 -0.6950
  794MOL0     H 7185   4.087   8.750   9.884 -1.5929 -1.1555  1.1752
  794MOL0     H 7186   4.452   8.981   9.896  2.5004 -2.5150 -0.5908
  794MOL0     H 7187   3.506   8.657  10.128  0.2222  0.8561 -1.5223
  794MOL0     H 7188   3.172   8.707  10.215 -0.4704  1.8988  1.1059
  794MOL0     H 7189   3.286   8.591  10.179 -1.2185 -0.5919 -0.1242
  794MOL0     H 7190   3.247   8.619  10.354 -4.5624 -1.0102 -1.0337
  795MOL0     O 7191   0.877   5.823  10.782  0.4627 -0.6420 -0.5380
  795MOL0     C 7192   0.883   5.745  10.876  0.3318  0.5361  0.2581
  795MOL0     O 7193   0.987   5.679  10.926 -0.1837 -0.3605  0.2372
  795MOL0     C 7194   1.109   5.690  10.870  0.1722  0.6787  0.5773
  795MOL0     C 7195   1.133   5.704  10.734 -0.5806 -0.2862  0.0157
  795MOL0     C 7196   1.267   5.709  10.684  0.4800 -0.5452  0.0377
  795MOL0     C 7197   1.380   5.695  10.775  0.1512  0.8395 -0.5730
  795MOL0     O 7198   1.500   5.689  10.712 -0.2153 -0.1842  0.3254
  795MOL0     C 7199   1.620   5.725  10.783 -0.4062  0.7916 -0.2762
  795MOL0     C 7200   1.686   5.819  10.692  0.1784 -0.7341 -0.1837
  795MOL0     C 7201   1.838   5.827  10.725  0.7161  0.0401  0.1577
  795MOL0     C 7202   1.918   5.707  10.668  0.2286 -0.0990  1.1092
  795MOL0     C 7203   2.065   5.740  10.658 -0.2205  0.2426 -0.0999
  795MOL0     C 7204   2.141   5.611  10.630 -0.4410  0.5577 -0.6015
  795MOL0     C 7205   2.295   5.643  10.630  0.2772 -0.3806  0.0620
  795MOL0     C 7206   2.364   5.631  10.766 -0.5002 -0.0536 -0.1158
  795MOL0     N 7207   2.512   5.645  10.762 -0.1543 -0.5362  1.2334
  795MOL0     C 7208   2.589   5.633  10.872  0.8336 -0.9668 -1.0356
  795MOL0     C 7209   2.717   5.662  10.825  0.2935 -0.2156  0.0306
  795MOL0     C 7210   2.845   5.637  10.896  0.3690 -0.2619 -0.1107
  795MOL0     C 7211   2.930   5.767  10.890 -0.2944  0.7626 -0.5934
  795MOL0     C 7212   3.060   5.743  10.967  0.1714 -0.0341  0.3915
  795MOL0     C 7213   3.134   5.864  11.022 -0.5445  0.1713 -0.3005
  795MOL0     O 7214   3.221   5.812  11.127 -0.2220 -0.4799 -0.0916
  795MOL0     C 7215   3.354   5.849  11.145  0.6183 -0.2606 -0.3381
  795MOL0     C 7216   3.437   5.768  11.224 -0.0999 -0.2090  0.0819
  795MOL0     C 7217   3.562   5.808  11.268 -0.0107 -0.1455 -0.1189
  795MOL0     C 7218   3.609   5.934  11.234 -0.3449  0.0702  0.6531
  795MOL0     C 7219   3.743   5.994  11.281  0.6258  0.4276 -0.5908
  795MOL0     O 7220   3.800   6.100  11.216 -0.2403  0.3401  0.1789
  795MOL0     C 7221   3.912   6.161  11.265  0.4406  0.2261 -0.3601
  795MOL0     C 7222   3.909   6.224  11.392  0.4695 -0.8104  0.3831
  795MOL0     C 7223   4.016   6.301  11.432  1.0426 -0.3026  0.0875
  795MOL0     C 7224   4.130   6.318  11.347  0.2090 -0.0809  0.0906
  795MOL0     O 7225   4.235   6.401  11.380  0.1118  0.6654 -0.4423
  795MOL0     C 7226   4.317   6.348  11.482  0.1391  0.7629 -0.7024
  795MOL0     C 7227   4.427   6.434  11.509 -0.7201 -0.1990 -0.6671
  795MOL0     C 7228   4.565   6.367  11.500  0.3991 -0.3093  0.7607
  795MOL0     C 7229   4.675   6.463  11.549  0.7812 -0.3351 -0.2529
  795MOL0     C 7230   4.815   6.413  11.513  0.1836 -0.0804 -0.2435
  795MOL0     C 7231   4.930   6.503  11.568  0.0387 -0.3672 -0.0175
  795MOL0     C 7232   5.072   6.458  11.519 -0.9038  0.2987  0.3913
  795MOL0     C 7233   5.106   6.527  11.384  0.0508 -1.2899  0.3723
  795MOL0    Cl 7234   5.070   6.417  11.241 -0.2837 -0.1455 -0.7763
  795MOL0     C 7235   4.127   6.263  11.221  1.2487  0.5603  0.8049
  795MOL0     C 7236   4.027   6.175  11.182  0.4744 -0.0772 -0.5405
  795MOL0     O 7237   3.784   5.961  11.394  0.1891  0.1063  0.3909
  795MOL0     C 7238   3.534   6.010  11.145 -0.7738  0.0785 -1.7017
  795MOL0     C 7239   3.409   5.968  11.103  0.3475 -0.4027  0.8919
  795MOL0     N 7240   2.708   5.684  10.690  0.6397 -0.3207  0.0758
  795MOL0     N 7241   2.583   5.688  10.653  0.3145 -0.0411 -0.1269
  795MOL0     C 7242   1.352   5.653  10.907 -0.7709 -0.8082  0.1415
  795MOL0     C 7243   1.216   5.665  10.955 -0.6371  0.1255  0.0456
  795MOL0     C 7244   0.753   5.730  10.949 -0.6773  0.2161 -0.8214
  795MOL0     C 7245   0.646   5.817  10.916 -0.2191  0.2048  0.4331
  795MOL0     C 7246   0.522   5.818  10.983 -0.4484  0.4374 -0.3651
  795MOL0     C 7247   0.501   5.745  11.090  0.4983  0.1420 -0.2882
  795MOL0     O 7248   0.383   5.756  11.160  0.2547 -0.1590 -0.2486
  795MOL0     C 7249   0.273   5.682  11.090 -0.6764  0.2979  0.5748
  795MOL0     C 7250   0.212   5.590  11.196 -0.1097  0.9595 -0.0799
  795MOL0     C 7251   0.080   5.539  11.158 -0.1539 -0.8357 -0.2681
  795MOL0     C 7252   0.070   5.502  11.010 -0.0812 -0.0821  0.1111
  795MOL0     C 7253  -0.052   5.428  10.986 -0.3815 -0.2503 -0.0357
  795MOL0     C 7254  -0.153   5.366  10.964 -0.1618  0.5903  0.0402
  795MOL0     C 7255   0.601   5.654  11.135  0.2788 -0.5146 -0.8867
  795MOL0     C 7256   0.722   5.640  11.065 -0.2608 -0.9933 -0.2456
  795MOL0     C 7257   0.811   5.528  11.108  0.0194  0.6559 -0.4124
  795MOL0     H 7258   1.052   5.707  10.663 -0.7090  0.0180  0.1738
  795MOL0     H 7259   1.288   5.734  10.580  2.4723 -2.3277 -0.0573
  795MOL0     H 7260   1.606   5.760  10.886  1.0400 -0.3630  0.3513
  795MOL0     H 7261   1.678   5.634  10.797  0.1056  1.1691  0.1185
  795MOL0     H 7262   1.635   5.915  10.697 -1.2358 -1.3170 -2.1183
  795MOL0     H 7263   1.682   5.790  10.587  1.3906  2.1129 -1.1156
  795MOL0     H 7264   1.856   5.835  10.833  2.9054 -1.5182 -0.0301
  795MOL0     H 7265   1.870   5.924  10.685 -0.5023  1.3469  2.1678
  795MOL0     H 7266   1.895   5.625  10.737 -1.6223  0.8402  1.6612
  795MOL0     H 7267   1.888   5.675  10.567  4.0368 -0.6436 -0.0209
  795MOL0     H 7268   2.090   5.813  10.581 -0.3589  3.6048  2.7778
  795MOL0     H 7269   2.089   5.780  10.757 -0.0533  1.6693 -0.6964
  795MOL0     H 7270   2.126   5.532  10.703  1.6327  2.1981  1.7451
  795MOL0     H 7271   2.108   5.582  10.530  0.7508  0.3205 -0.9435
  795MOL0     H 7272   2.321   5.731  10.570 -1.5287  0.9762  1.1801
  795MOL0     H 7273   2.335   5.556  10.578 -0.8021 -0.2812 -0.9786
  795MOL0     H 7274   2.321   5.715  10.821 -0.5098 -1.4710  2.1387
  795MOL0     H 7275   2.326   5.541  10.814  2.6500 -2.2941 -1.4674
  795MOL0     H 7276   2.566   5.618  10.977  0.6118  0.4663 -0.8593
  795MOL0     H 7277   2.838   5.598  10.998  2.3776 -2.5059 -0.7453
  795MOL0     H 7278   2.901   5.560  10.842  1.8944  1.5004 -1.1713
  795MOL0     H 7279   2.957   5.785  10.786 -1.9227  3.3862 -0.6592
  795MOL0     H 7280   2.873   5.849  10.936 -1.3481  0.2805 -1.0330
  795MOL0     H 7281   3.127   5.679  10.911  0.2209  2.2672 -2.4273
  795MOL0     H 7282   3.041   5.674  11.050  0.8271  0.9047  1.3557
  795MOL0     H 7283   3.077   5.949  11.062  0.9791  1.8045 -1.4536
  795MOL0     H 7284   3.203   5.901  10.946 -1.3226 -0.2657 -1.2512
  795MOL0     H 7285   3.398   5.671  11.251  2.8382 -1.5016  0.1390
  795MOL0     H 7286   3.623   5.737  11.323  0.7147  0.8707  0.4393
  795MOL0     H 7287   3.820   6.214  11.453 -1.2575  2.4001 -1.3844
  795MOL0     H 7288   4.021   6.345  11.531 -0.5102 -3.8083  1.8800
  795MOL0     H 7289   4.262   6.321  11.572  1.2355 -3.5260 -1.0822
  795MOL0     H 7290   4.348   6.253  11.438  0.1542 -0.1975  1.2910
  795MOL0     H 7291   4.420   6.517  11.438 -1.5760 -0.3648 -0.7914
  795MOL0     H 7292   4.416   6.458  11.615 -0.4713 -2.1662 -0.1646
  795MOL0     H 7293   4.566   6.277  11.562 -0.1228  1.1435  2.9531
  795MOL0     H 7294   4.594   6.347  11.396 -1.5337  1.3202 -0.1651
  795MOL0     H 7295   4.659   6.473  11.657  0.4729 -0.7092 -0.2627
  795MOL0     H 7296   4.656   6.561  11.503 -1.7956  1.3201  3.7265
  795MOL0     H 7297   4.819   6.411  11.404 -0.9584 -2.0559 -0.2990
  795MOL0     H 7298   4.822   6.310  11.549  1.1090 -0.0472 -0.3170
  795MOL0     H 7299   4.906   6.606  11.537 -0.1781 -0.6688 -0.8847
  795MOL0     H 7300   4.935   6.507  11.677  1.2306  2.3883 -0.0792
  795MOL0     H 7301   5.092   6.351  11.519  0.1049  0.4231  2.6985
  795MOL0     H 7302   5.149   6.497  11.586  0.6743 -0.8548 -0.6997
  795MOL0     H 7303   5.049   6.618  11.366  0.6133 -0.9276  0.3912
  795MOL0     H 7304   5.209   6.564  11.379  0.3428 -2.2402 -1.7902
  795MOL0     H 7305   4.213   6.272  11.156  1.1801  0.0067  0.6320
  795MOL0     H 7306   4.034   6.122  11.087  0.8500  0.2086 -0.6758
  795MOL0     H 7307   3.567   6.111  11.122 -0.4415  0.4132  0.1369
  795MOL0     H 7308   3.358   6.039  11.039  0.3056 -0.0674  1.2951
  795MOL0     H 7309   1.433   5.635  10.977  0.5785  1.1248 -0.8312
  795MOL0     H 7310   1.193   5.634  11.057 -2.6194 -3.0516 -1.2379
  795MOL0     H 7311   0.653   5.897  10.843 -3.1400  0.0093 -0.1720
  795MOL0     H 7312   0.443   5.888  10.959 -0.7272  1.0503  2.0868
  795MOL0     H 7313   0.312   5.621  11.009  1.0483 -0.9300  2.2492
  795MOL0     H 7314   0.199   5.758  11.061  2.0855  2.4890 -1.2668
  795MOL0     H 7315   0.211   5.640  11.293  0.2804 -1.5214  1.2958
  795MOL0     H 7316   0.289   5.515  11.217 -1.5073 -0.8252 -1.0878
  795MOL0     H 7317   0.003   5.612  11.184 -0.2114 -0.3906 -1.5993
  795MOL0     H 7318   0.055   5.447  11.213 -2.0428 -0.0789  0.2437
  795MOL0     H 7319   0.075   5.584  10.938  1.4122 -1.0859 -0.9841
  795MOL0     H 7320   0.151   5.433  10.986 -1.3878 -0.8595 -2.4638
  795MOL0     H 7321  -0.251   5.330  10.940 -0.1711  0.3196  0.4614
  795MOL0     H 7322   0.579   5.580  11.211  1.7636 -2.3852 -2.1701
  795MOL0     H 7323   0.849   5.485  11.015  0.2125  1.0283 -0.5108
  795MOL0     H 7324   0.892   5.563  11.173 -0.3085 -2.2712  1.7695
  795MOL0     H 7325   0.752   5.450  11.157  0.6270 -0.7969 -1.9189
  796MOL0     O 7326   6.275  10.555   0.148 -0.4003  0.6436  0.8781
  796MOL0     C 7327   6.268  10.467   0.233 -1.0156 -0.1922  0.3090
  796MOL0     O 7328   6.353  10.367   0.252 -0.6194 -0.0308 -0.0050
  796MOL0     C 7329   6.416  10.322   0.143 -0.1200 -0.0732 -0.3247
  796MOL0     C 7330   6.526  10.376   0.092 -0.8563 -0.3678  0.1148
  796MOL0     C 7331   6.585  10.323  -0.021 -0.4806  0.3841  0.3611
  796MOL0     C 7332   6.535  10.215  -0.093  0.3086 -0.6473  0.7623
  796MOL0     O 7333   6.580  10.163  -0.213 -0.6505  0.0189  0.0632
  796MOL0     C 7334   6.712  10.199  -0.268 -0.0640  0.3741  0.4413
  796MOL0     C 7335   6.763  10.085  -0.357  0.2772 -0.2693 -0.5747
  796MOL0     C 7336   6.916  10.104  -0.390  0.8649 -0.2726 -0.8941
  796MOL0     C 7337   6.972   9.975  -0.452 -0.2647 -0.0352 -0.2187
  796MOL0     C 7338   7.120   9.976  -0.429 -0.2064 -0.1011  0.4046
  796MOL0     C 7339   7.200  10.100  -0.477  0.2325 -0.6680  0.2031
  796MOL0     C 7340   7.347  10.069  -0.467 -0.9290  0.8327  0.2753
  796MOL0     C 7341   7.433  10.194  -0.468  0.0102  0.0888  0.5486
  796MOL0     N 7342   7.562  10.170  -0.405 -0.0563  0.6188  0.1941
  796MOL0     C 7343   7.596  10.197  -0.277 -0.1691  0.6296  0.1594
  796MOL0     C 7344   7.734  10.193  -0.275  0.4611  1.0026  0.9372
  796MOL0     C 7345   7.829  10.206  -0.162 -1.4326 -0.0373 -0.3663
  796MOL0     C 7346   7.978  10.215  -0.178  0.8700 -0.2612  0.0838
  796MOL0     C 7347   8.047  10.190  -0.048 -1.1358  0.1778  0.4152
  796MOL0     C 7348   8.198  10.199  -0.044 -0.3589 -0.4441  0.0303
  796MOL0     O 7349   8.252  10.131  -0.154 -0.7762  0.8584 -0.1828
  796MOL0     C 7350   8.385  10.122  -0.172 -0.5711  0.6927 -0.3663
  796MOL0     C 7351   8.425  10.065  -0.292  0.7881 -0.7983  1.3851
  796MOL0     C 7352   8.564  10.056  -0.325  0.1724 -0.9389  0.1022
  796MOL0     C 7353   8.658  10.105  -0.238 -0.6190  0.3531 -0.4999
  796MOL0     C 7354   8.807  10.088  -0.267  0.1376 -0.1653 -0.0441
  796MOL0     O 7355   8.890  10.155  -0.182  0.1666  0.3533 -0.2063
  796MOL0     C 7356   9.019  10.178  -0.206  0.5438 -0.7441 -0.1341
  796MOL0     C 7357   9.067  10.299  -0.258  0.0696 -0.1092 -0.2505
  796MOL0     C 7358   9.207  10.321  -0.259  0.7185  0.3778 -0.7595
  796MOL0     C 7359   9.293  10.222  -0.228 -0.4533  0.1028 -0.0398
  796MOL0     O 7360   9.423  10.250  -0.254 -0.1890 -0.5893  0.4833
  796MOL0     C 7361   9.518  10.200  -0.164 -0.3849  0.6666 -0.1274
  796MOL0     C 7362   9.653  10.261  -0.186  0.4392  1.0664 -0.0802
  796MOL0     C 7363   9.664  10.390  -0.111 -1.0644 -0.4647  0.8627
  796MOL0     C 7364   9.763  10.489  -0.165  0.0111  0.3959 -0.2555
  796MOL0     C 7365   9.833  10.576  -0.061 -0.1032  0.2563  0.1385
  796MOL0     C 7366   9.876  10.718  -0.123  0.0870  1.1119  0.0156
  796MOL0     C 7367   9.932  10.819  -0.023  0.9178 -0.2079  0.7520
  796MOL0     C 7368   9.958  10.957  -0.079 -0.8819 -0.5284  0.5835
  796MOL0    Cl 7369  10.091  10.951  -0.196 -0.0911  0.6331 -0.6177
  796MOL0     C 7370   9.245  10.095  -0.180  0.7373 -0.3696  0.1556
  796MOL0     C 7371   9.107  10.075  -0.168  0.4889 -0.0410 -1.2803
  796MOL0     O 7372   8.845  10.040  -0.378  0.3643  0.0944 -0.3671
  796MOL0     C 7373   8.619  10.171  -0.121 -0.2893 -0.3049 -0.6430
  796MOL0     C 7374   8.485  10.177  -0.091  0.1390 -0.7323 -0.3365
  796MOL0     N 7375   7.778  10.165  -0.407 -0.1783 -0.2978  0.4073
  796MOL0     N 7376   7.678  10.139  -0.472  0.3541  0.7814 -0.2412
  796MOL0     C 7377   6.417  10.164  -0.040  0.5494 -0.2519 -0.1698
  796MOL0     C 7378   6.357  10.218   0.078  0.2152 -0.3699 -0.2947
  796MOL0     C 7379   6.166  10.490   0.342 -0.5704 -0.0414 -0.2416
  796MOL0     C 7380   6.142  10.387   0.430 -0.3607  0.5385  0.7403
  796MOL0     C 7381   6.042  10.399   0.529  0.1138  0.5959  0.5715
  796MOL0     C 7382   5.974  10.517   0.551  0.5710  0.9040  0.0958
  796MOL0     O 7383   5.875  10.542   0.636  0.1324  0.7726  0.5367
  796MOL0     C 7384   5.866  10.444   0.740  0.0176  0.1458 -0.0905
  796MOL0     C 7385   5.757  10.490   0.847  0.6715 -0.8854  0.6638
  796MOL0     C 7386   5.624  10.513   0.775  0.5110 -0.4851  0.1287
  796MOL0     C 7387   5.511  10.574   0.870  0.1883  0.2804 -0.1203
  796MOL0     C 7388   5.374  10.562   0.815 -0.5617  1.0392 -0.0372
  796MOL0     C 7389   5.270  10.556   0.761  0.3548 -0.7733  0.0637
  796MOL0     C 7390   6.009  10.622   0.471  0.3589  0.1117  0.0489
  796MOL0     C 7391   6.099  10.610   0.368 -0.6620 -0.1940  0.4022
  796MOL0     C 7392   6.123  10.744   0.291 -0.4161  0.9855  0.4815
  796MOL0     H 7393   6.567  10.453   0.157 -1.4464 -1.4487  1.8323
  796MOL0     H 7394   6.669  10.375  -0.066 -1.3803 -2.0805 -4.9029
  796MOL0     H 7395   6.719  10.288  -0.331  0.4723  0.9945  1.3397
  796MOL0     H 7396   6.779  10.212  -0.182  0.0060  2.6453  0.1031
  796MOL0     H 7397   6.699  10.093  -0.445 -3.0603  1.7768  1.8277
  796MOL0     H 7398   6.739   9.985  -0.320  0.5089 -0.4768 -0.9659
  796MOL0     H 7399   6.967  10.124  -0.295  1.2200 -1.8311 -0.7295
  796MOL0     H 7400   6.925  10.188  -0.458 -2.6552  1.7789  0.8775
  796MOL0     H 7401   6.936   9.893  -0.389  1.2469 -0.3602  0.2724
  796MOL0     H 7402   6.944   9.964  -0.557 -1.3486 -2.1971  0.2389
  796MOL0     H 7403   7.145   9.964  -0.324 -0.7221  3.1707  1.0024
  796MOL0     H 7404   7.172   9.890  -0.472  1.8202  0.5199  1.5006
  796MOL0     H 7405   7.166  10.129  -0.577 -1.3197  0.3796  1.0017
  796MOL0     H 7406   7.172  10.188  -0.418  0.9748 -1.6725  2.1578
  796MOL0     H 7407   7.372   9.999  -0.547 -3.7010 -5.1604  4.0036
  796MOL0     H 7408   7.379  10.016  -0.377  0.9847 -0.5349 -1.1256
  796MOL0     H 7409   7.451  10.241  -0.566  0.7790  2.9561  1.9575
  796MOL0     H 7410   7.377  10.254  -0.396  0.8399  1.2764  0.2306
  796MOL0     H 7411   7.534  10.207  -0.188 -0.2010 -2.6438  0.6050
  796MOL0     H 7412   7.801  10.303  -0.120  0.2851  0.8376 -1.1294
  796MOL0     H 7413   7.809  10.127  -0.089  2.5313 -0.0538  0.9541
  796MOL0     H 7414   8.014  10.148  -0.256  0.9958  0.5497 -0.5691
  796MOL0     H 7415   7.992  10.320  -0.207 -0.7427  0.1799  0.7497
  796MOL0     H 7416   8.021  10.091  -0.010  3.4658 -1.8216 -0.9898
  796MOL0     H 7417   8.018  10.267   0.024  0.9563  2.0456 -0.6214
  796MOL0     H 7418   8.229  10.144   0.045  0.3459 -1.6618 -0.9282
  796MOL0     H 7419   8.242  10.299  -0.033  2.3644 -1.5355 -0.1945
  796MOL0     H 7420   8.345  10.040  -0.361  2.1883  0.4612 -0.8434
  796MOL0     H 7421   8.598  10.010  -0.418  1.6149  0.6802 -0.2099
  796MOL0     H 7422   9.001  10.382  -0.283  0.2417 -0.6851 -2.9081
  796MOL0     H 7423   9.242  10.423  -0.274  2.7995 -0.2524 -0.5492
  796MOL0     H 7424   9.479  10.208  -0.062 -1.8962 -0.3261 -0.5927
  796MOL0     H 7425   9.523  10.092  -0.185 -0.1721  0.7300 -0.4183
  796MOL0     H 7426   9.729  10.191  -0.149 -3.2434 -2.4638  1.5860
  796MOL0     H 7427   9.669  10.285  -0.292  0.7873  0.0405 -0.2766
  796MOL0     H 7428   9.565  10.435  -0.096 -2.2656 -2.0434 -1.6061
  796MOL0     H 7429   9.692  10.351  -0.013  0.6741 -2.7376 -0.4345
  796MOL0     H 7430   9.727  10.547  -0.251  1.6739  1.7053 -0.1326
  796MOL0     H 7431   9.832  10.433  -0.229 -0.7644  0.5585 -1.2778
  796MOL0     H 7432   9.908  10.518  -0.007 -0.0123 -2.1982 -2.3799
  796MOL0     H 7433   9.758  10.601   0.015  0.3753  0.9292  0.3996
  796MOL0     H 7434   9.945  10.696  -0.204 -0.3866 -1.2673  0.1906
  796MOL0     H 7435   9.795  10.771  -0.174 -0.3839 -0.7695 -1.2755
  796MOL0     H 7436  10.020  10.777   0.025  0.7302 -0.1736  1.1269
  796MOL0     H 7437   9.854  10.832   0.052  0.3321  0.9489 -0.0233
  796MOL0     H 7438   9.868  10.998  -0.127 -1.4890  0.9071  2.7895
  796MOL0     H 7439   9.977  11.025   0.004 -0.8407 -0.9110  0.8849
  796MOL0     H 7440   9.318  10.022  -0.146  2.9410  0.8923 -1.5753
  796MOL0     H 7441   9.069   9.982  -0.126  2.0919 -0.9088 -1.6659
  796MOL0     H 7442   8.697  10.206  -0.054 -0.8611 -1.0695  0.4453
  796MOL0     H 7443   8.451  10.228  -0.002 -0.4803 -0.0205 -0.9597
  796MOL0     H 7444   6.373  10.073  -0.079 -0.0525  0.5600 -1.4466
  796MOL0     H 7445   6.272  10.184   0.137  0.5873 -1.8755 -0.5922
  796MOL0     H 7446   6.193  10.292   0.418  0.9018  1.3527 -0.7320
  796MOL0     H 7447   6.019  10.310   0.587  1.2580 -1.6740 -2.2367
  796MOL0     H 7448   5.962  10.431   0.791  1.2312 -0.7155 -2.4274
  796MOL0     H 7449   5.834  10.345   0.707  2.5003 -1.8390  2.8858
  796MOL0     H 7450   5.782  10.586   0.894 -0.5816 -0.0563 -0.3216
  796MOL0     H 7451   5.749  10.422   0.932  3.4433 -0.5126  1.3410
  796MOL0     H 7452   5.599  10.416   0.733  2.1566 -0.7610 -0.2788
  796MOL0     H 7453   5.636  10.586   0.694  2.6145 -1.1941 -0.2418
  796MOL0     H 7454   5.514  10.514   0.961  1.6430 -0.7446 -0.8052
  796MOL0     H 7455   5.523  10.679   0.897 -0.4290  0.4875 -0.6173
  796MOL0     H 7456   5.170  10.569   0.724 -0.2490 -2.3065  1.0642
  796MOL0     H 7457   5.965  10.715   0.506  0.3225 -0.0224  0.3704
  796MOL0     H 7458   6.107  10.728   0.184  1.6651  1.5700  0.0529
  796MOL0     H 7459   6.055  10.826   0.320 -0.5990  1.9906 -2.4968
  796MOL0     H 7460   6.228  10.774   0.298  0.6394 -1.5078 -2.7249
  797MOL0     O 7461   1.062   0.951   3.102  0.4593  0.4874 -0.1180
  797MOL0     C 7462   1.066   0.895   3.212 -0.5387 -0.1124  1.0006
  797MOL0     O 7463   1.181   0.849   3.271 -0.7624 -0.3016  0.4268
  797MOL0     C 7464   1.300   0.867   3.201  0.1627  0.5528  0.7042
  797MOL0     C 7465   1.404   0.932   3.267  0.6004  1.4178  0.0133
  797MOL0     C 7466   1.520   0.972   3.200  0.1649  1.2420  0.1302
  797MOL0     C 7467   1.534   0.940   3.067 -0.1726 -0.2504 -0.0190
  797MOL0     O 7468   1.642   0.975   2.988 -0.2333 -0.1648 -0.2134
  797MOL0     C 7469   1.731   1.075   3.037 -0.2743  1.4609 -0.6030
  797MOL0     C 7470   1.833   1.096   2.936  0.3092  0.0272 -0.3290
  797MOL0     C 7471   1.886   1.234   2.945  0.6184 -0.0279  0.4255
  797MOL0     C 7472   1.968   1.274   2.821  0.0655  0.0415  0.3972
  797MOL0     C 7473   2.029   1.410   2.846 -0.1110  0.0455  0.1080
  797MOL0     C 7474   2.101   1.467   2.727  0.2893  0.0789 -0.0102
  797MOL0     C 7475   2.088   1.619   2.721  0.3758 -0.5195  0.2751
  797MOL0     C 7476   2.143   1.700   2.833 -0.4212 -1.3349 -0.0423
  797MOL0     N 7477   2.288   1.680   2.848  0.0146  0.1545  0.2526
  797MOL0     C 7478   2.385   1.731   2.770 -0.3791 -0.5691 -0.2841
  797MOL0     C 7479   2.494   1.661   2.813 -0.6172 -0.2328  0.4452
  797MOL0     C 7480   2.626   1.672   2.752 -0.6626 -0.7385 -0.7921
  797MOL0     C 7481   2.696   1.811   2.762 -0.0627 -0.7820  0.0864
  797MOL0     C 7482   2.715   1.848   2.911 -0.1502 -0.2710  0.5385
  797MOL0     C 7483   2.832   1.775   2.968  0.4367  0.0778  0.1957
  797MOL0     O 7484   2.895   1.853   3.065  0.9733 -0.0667 -0.3103
  797MOL0     C 7485   3.007   1.807   3.133  0.6360 -0.3946  0.6298
  797MOL0     C 7486   3.076   1.901   3.214  0.0187  0.1272  0.8826
  797MOL0     C 7487   3.201   1.871   3.259 -0.3026 -0.1600  0.3144
  797MOL0     C 7488   3.266   1.746   3.226  0.3403 -0.3512 -0.4457
  797MOL0     C 7489   3.401   1.726   3.279  0.0827  1.4881  1.3111
  797MOL0     O 7490   3.474   1.839   3.305  0.2545 -0.0519  0.3212
  797MOL0     C 7491   3.612   1.829   3.327  0.0348  0.9093  0.2975
  797MOL0     C 7492   3.658   1.844   3.457  0.2462  0.2609 -0.9059
  797MOL0     C 7493   3.792   1.832   3.484  0.3198 -0.8414  0.0381
  797MOL0     C 7494   3.882   1.802   3.385 -0.6312  0.6530  0.5661
  797MOL0     O 7495   4.013   1.796   3.421  0.1613  0.3491 -0.1685
  797MOL0     C 7496   4.092   1.706   3.347 -0.1711  0.4191 -0.0642
  797MOL0     C 7497   4.237   1.694   3.401  0.1142 -0.2375 -0.8537
  797MOL0     C 7498   4.322   1.824   3.404 -0.4149 -0.1864 -0.3316
  797MOL0     C 7499   4.454   1.813   3.485 -0.4529 -0.4593  0.4486
  797MOL0     C 7500   4.534   1.948   3.482  0.0607 -0.6460  0.1488
  797MOL0     C 7501   4.670   1.933   3.542  0.2080  0.4595 -0.2576
  797MOL0     C 7502   4.772   1.872   3.440 -0.0701 -0.8197  0.4308
  797MOL0     C 7503   4.897   1.844   3.522 -0.2711 -0.0057  0.1890
  797MOL0    Cl 7504   5.008   1.755   3.427  0.2992 -0.0855  0.1072
  797MOL0     C 7505   3.835   1.794   3.248  0.1607  0.0377 -0.2104
  797MOL0     C 7506   3.701   1.809   3.223  0.8798  0.0719  0.3672
  797MOL0     O 7507   3.441   1.610   3.298  0.1099  0.6277  0.6420
  797MOL0     C 7508   3.190   1.651   3.163  0.9750  0.1881  0.0638
  797MOL0     C 7509   3.061   1.682   3.113 -0.5558  0.5038  0.6468
  797MOL0     N 7510   2.464   1.591   2.921  0.2907 -0.2776 -0.3670
  797MOL0     N 7511   2.339   1.616   2.949  0.4514 -0.3799 -0.7461
  797MOL0     C 7512   1.437   0.863   3.004 -0.7511  0.5334 -0.1047
  797MOL0     C 7513   1.319   0.823   3.062  0.1911  0.3823 -0.4885
  797MOL0     C 7514   0.942   0.884   3.287  0.3941  0.0682  0.1359
  797MOL0     C 7515   0.816   0.929   3.232  0.5832 -0.4780 -0.4388
  797MOL0     C 7516   0.693   0.921   3.302  0.2621 -0.4433  1.5388
  797MOL0     C 7517   0.691   0.874   3.430  0.2666  0.1208  0.3862
  797MOL0     O 7518   0.584   0.864   3.521 -0.1220 -0.2787 -0.0589
  797MOL0     C 7519   0.457   0.926   3.486  0.6826  0.1725 -0.0803
  797MOL0     C 7520   0.374   0.843   3.396 -0.0615 -0.0564  0.6916
  797MOL0     C 7521   0.235   0.913   3.382  0.9825  0.2557 -0.1530
  797MOL0     C 7522   0.155   0.832   3.275  1.2208  0.1004 -0.9694
  797MOL0     C 7523   0.012   0.877   3.278  0.2999  0.3325  0.0618
  797MOL0     C 7524  -0.094   0.938   3.270  0.2915  0.7060  0.0149
  797MOL0     C 7525   0.806   0.819   3.481  0.1808 -0.6755 -1.0804
  797MOL0     C 7526   0.926   0.820   3.416  0.9090 -0.4418  0.8004
  797MOL0     C 7527   1.038   0.765   3.491  0.0120  0.3153  0.7303
  797MOL0     H 7528   1.403   0.961   3.371  2.9741  0.0030  0.5239
  797MOL0     H 7529   1.592   1.035   3.253  0.9227 -0.8383  1.6794
  797MOL0     H 7530   1.667   1.161   3.062 -1.7309  0.3443 -0.3644
  797MOL0     H 7531   1.785   1.044   3.127 -1.4221 -1.3771 -0.8029
  797MOL0     H 7532   1.778   1.093   2.842 -3.8471  4.0223  1.5637
  797MOL0     H 7533   1.924   1.035   2.937  1.1585  1.1825  2.1475
  797MOL0     H 7534   1.949   1.242   3.034  1.3144  0.3995 -0.0983
  797MOL0     H 7535   1.802   1.304   2.948 -0.8854 -1.5400 -2.2842
  797MOL0     H 7536   2.042   1.194   2.813 -0.6125 -0.5459 -0.1440
  797MOL0     H 7537   1.907   1.268   2.731 -0.0798 -0.5510  0.5298
  797MOL0     H 7538   1.950   1.469   2.894  1.4012  1.6267  0.7432
  797MOL0     H 7539   2.102   1.409   2.928 -3.8329 -3.5277  3.8682
  797MOL0     H 7540   2.203   1.430   2.719  1.0482  2.3237 -2.1867
  797MOL0     H 7541   2.056   1.440   2.631 -1.3088  2.6518 -0.0843
  797MOL0     H 7542   1.984   1.651   2.720  1.8209  5.4103  0.5682
  797MOL0     H 7543   2.140   1.650   2.629  0.4724 -0.5230  0.3295
  797MOL0     H 7544   2.108   1.802   2.816 -0.9312 -1.6526 -1.0265
  797MOL0     H 7545   2.098   1.678   2.930 -1.4889 -1.6941 -0.5920
  797MOL0     H 7546   2.384   1.805   2.690 -2.0768 -1.0471 -0.7528
  797MOL0     H 7547   2.700   1.598   2.784  2.9263  3.2620  1.1336
  797MOL0     H 7548   2.610   1.659   2.644 -0.5973  0.3408 -0.9332
  797MOL0     H 7549   2.784   1.823   2.698 -0.2283 -2.0455 -0.4084
  797MOL0     H 7550   2.628   1.885   2.719  0.8203  0.2464  0.4212
  797MOL0     H 7551   2.622   1.817   2.960 -0.0954  2.1000  2.3109
  797MOL0     H 7552   2.730   1.956   2.919  2.3620 -0.6622  2.0932
  797MOL0     H 7553   2.890   1.745   2.880 -1.7606 -2.7758 -0.4347
  797MOL0     H 7554   2.795   1.693   3.030  1.8574  0.8454  2.1607
  797MOL0     H 7555   3.035   1.998   3.240  0.9721  0.5955  0.6893
  797MOL0     H 7556   3.255   1.947   3.314 -1.2429  0.2640  0.6723
  797MOL0     H 7557   3.578   1.857   3.530 -0.4212  2.4262 -1.9150
  797MOL0     H 7558   3.824   1.863   3.583 -0.5141  3.7597 -0.9145
  797MOL0     H 7559   4.051   1.605   3.348  0.3599  0.1968  0.9138
  797MOL0     H 7560   4.107   1.744   3.245  1.3702  0.4222  0.1304
  797MOL0     H 7561   4.224   1.652   3.501 -2.1183  0.9335 -0.5986
  797MOL0     H 7562   4.294   1.616   3.350  0.6968 -0.5886  0.2978
  797MOL0     H 7563   4.345   1.859   3.302 -0.9001  1.1753  0.0027
  797MOL0     H 7564   4.258   1.896   3.456 -2.3999 -0.5688 -2.0939
  797MOL0     H 7565   4.517   1.737   3.437  0.6052  0.5638  0.1722
  797MOL0     H 7566   4.443   1.765   3.583  3.8073 -3.7532 -0.3541
  797MOL0     H 7567   4.472   2.018   3.538  2.7594  2.9073 -0.9213
  797MOL0     H 7568   4.545   1.978   3.377  0.8764 -1.2688  0.0461
  797MOL0     H 7569   4.700   2.029   3.586 -3.6978  1.3089  1.0154
  797MOL0     H 7570   4.651   1.872   3.631  1.0183 -2.8175 -2.1667
  797MOL0     H 7571   4.794   1.940   3.357 -0.5514  1.4007  2.0306
  797MOL0     H 7572   4.741   1.777   3.395  2.5240 -0.9266 -1.4195
  797MOL0     H 7573   4.941   1.943   3.542  0.6411 -0.2854 -0.3855
  797MOL0     H 7574   4.876   1.803   3.621  0.2573 -1.9617 -0.4618
  797MOL0     H 7575   3.894   1.774   3.159 -0.6652  2.8513 -1.5266
  797MOL0     H 7576   3.678   1.826   3.118 -0.0621  0.4370  0.6156
  797MOL0     H 7577   3.231   1.551   3.151 -0.4695 -0.6405  1.6124
  797MOL0     H 7578   3.016   1.606   3.048  0.7199  0.3958 -0.1322
  797MOL0     H 7579   1.461   0.822   2.907 -2.5261  0.6072 -0.6119
  797MOL0     H 7580   1.233   0.778   3.013  0.3829  1.0016 -1.4170
  797MOL0     H 7581   0.815   0.966   3.130  1.5088 -2.2599 -1.1381
  797MOL0     H 7582   0.604   0.958   3.252  0.2116 -3.2311 -0.6894
  797MOL0     H 7583   0.462   1.024   3.436 -3.6971  0.6926  0.0922
  797MOL0     H 7584   0.398   0.945   3.577  0.2462  1.1550 -0.5553
  797MOL0     H 7585   0.375   0.744   3.444  4.0046  0.2795  1.6436
  797MOL0     H 7586   0.439   0.830   3.310 -1.3435 -1.0764 -0.1609
  797MOL0     H 7587   0.237   1.017   3.347 -0.6619  0.1361 -0.6486
  797MOL0     H 7588   0.188   0.910   3.481 -3.1744 -0.4585 -1.9412
  797MOL0     H 7589   0.198   0.841   3.175  1.9967  2.6629 -0.4992
  797MOL0     H 7590   0.152   0.726   3.299 -0.5865  0.2233 -0.5287
  797MOL0     H 7591  -0.184   0.995   3.267 -1.6160 -1.9344  1.8086
  797MOL0     H 7592   0.797   0.778   3.581 -0.1378 -0.1627 -0.8902
  797MOL0     H 7593   1.004   0.727   3.588 -2.8415 -1.3010 -0.7568
  797MOL0     H 7594   1.085   0.687   3.430  0.8916  1.7592 -0.5200
  797MOL0     H 7595   1.110   0.845   3.511 -0.9930  1.3996  0.1464
  798MOL0     O 7596   2.328   1.165   4.776 -0.0659 -0.3221 -0.1578
  798MOL0     C 7597   2.285   1.245   4.856 -0.3688 -0.1538  0.4140
  798MOL0     O 7598   2.363   1.313   4.953 -0.0777  0.1811 -0.4652
  798MOL0     C 7599   2.491   1.270   4.972 -0.2805  0.2738 -1.0559
  798MOL0     C 7600   2.582   1.258   4.874 -1.0741  0.2322 -0.8844
  798MOL0     C 7601   2.706   1.215   4.892  0.3630 -0.2243 -0.9861
  798MOL0     C 7602   2.750   1.179   5.020 -0.3306  0.0380 -0.1280
  798MOL0     O 7603   2.884   1.149   5.040 -0.1153 -0.0260 -1.2617
  798MOL0     C 7604   2.942   1.045   4.969 -0.7078  0.1937  0.6511
  798MOL0     C 7605   3.091   1.077   4.953 -0.0092  0.1709  0.1371
  798MOL0     C 7606   3.175   1.013   4.837  0.2695  0.7384  0.3160
  798MOL0     C 7607   3.126   1.055   4.696 -0.0948  0.3238  1.1714
  798MOL0     C 7608   3.231   1.019   4.588  0.1764  0.0112  1.0651
  798MOL0     C 7609   3.344   1.120   4.588  0.2657 -0.0079 -0.6595
  798MOL0     C 7610   3.460   1.090   4.496  0.0144  0.1579 -0.1987
  798MOL0     C 7611   3.533   0.957   4.511  0.1205  0.5168 -0.5254
  798MOL0     N 7612   3.654   0.924   4.427  0.5666 -0.1234  0.5095
  798MOL0     C 7613   3.678   0.969   4.302  1.0204 -0.4648 -0.2911
  798MOL0     C 7614   3.788   0.912   4.258  0.6476 -1.2386 -0.0158
  798MOL0     C 7615   3.856   0.923   4.127  1.0442  0.3428 -0.0944
  798MOL0     C 7616   3.872   1.071   4.087  0.2921 -0.5896 -0.0419
  798MOL0     C 7617   3.940   1.171   4.179  0.5028 -0.2454 -0.0862
  798MOL0     C 7618   4.090   1.145   4.195 -0.3090 -0.4619  0.2316
  798MOL0     O 7619   4.143   1.154   4.065 -0.2168  0.4353  0.2375
  798MOL0     C 7620   4.281   1.138   4.063 -0.1297  0.1942  0.0734
  798MOL0     C 7621   4.364   1.239   4.011  0.6110  0.8243 -0.3512
  798MOL0     C 7622   4.506   1.215   3.996 -0.2353  0.6745 -0.0430
  798MOL0     C 7623   4.561   1.098   4.034  0.4798  0.8740  0.0517
  798MOL0     C 7624   4.695   1.069   3.991 -0.7059 -0.3632 -0.4868
  798MOL0     O 7625   4.761   1.157   3.911  0.8942 -0.2365 -0.1017
  798MOL0     C 7626   4.880   1.122   3.872  0.5977  0.1999  0.1684
  798MOL0     C 7627   4.997   1.166   3.940  1.0999  0.5606 -0.3189
  798MOL0     C 7628   5.125   1.133   3.893 -0.4341 -0.0554 -0.3560
  798MOL0     C 7629   5.141   1.063   3.772 -0.4925 -1.0841 -0.7867
  798MOL0     O 7630   5.261   1.017   3.722 -0.6795  0.1963 -0.2648
  798MOL0     C 7631   5.388   1.019   3.794 -0.0156  0.7250 -0.3115
  798MOL0     C 7632   5.493   0.951   3.708 -0.3104 -0.1239  0.3016
  798MOL0     C 7633   5.522   1.046   3.588 -0.6559 -0.0006 -0.2128
  798MOL0     C 7634   5.644   0.998   3.504 -0.1323  0.0609 -0.0201
  798MOL0     C 7635   5.773   0.981   3.569 -0.0189  0.1436  0.4200
  798MOL0     C 7636   5.885   1.007   3.468 -0.2967  0.1914  0.2794
  798MOL0     C 7637   6.016   0.933   3.525 -0.2295  0.5135  0.2031
  798MOL0     C 7638   6.117   0.913   3.418 -0.6477  0.1388 -0.0048
  798MOL0    Cl 7639   6.279   0.897   3.491  0.2701 -0.2748 -0.1343
  798MOL0     C 7640   5.027   1.019   3.707  0.3495 -0.3702 -0.2408
  798MOL0     C 7641   4.898   1.052   3.748  0.6181  0.2572  1.4155
  798MOL0     O 7642   4.750   0.975   4.040  0.3627  0.0864 -0.3443
  798MOL0     C 7643   4.479   0.998   4.099 -0.0595  0.2465  0.4403
  798MOL0     C 7644   4.345   1.024   4.115 -0.1138 -0.0928 -0.4561
  798MOL0     N 7645   3.834   0.829   4.359  0.1536  0.4891  0.6941
  798MOL0     N 7646   3.757   0.841   4.459 -0.2443 -0.6578  0.0597
  798MOL0     C 7647   2.660   1.197   5.121 -0.3167 -0.3233  0.2466
  798MOL0     C 7648   2.526   1.233   5.103  0.2204  0.2846  0.2755
  798MOL0     C 7649   2.142   1.283   4.839 -0.1950 -1.1543  0.2550
  798MOL0     C 7650   2.101   1.392   4.921 -0.2747  0.5264 -1.0381
  798MOL0     C 7651   1.965   1.429   4.920 -0.4832  0.0456  0.5259
  798MOL0     C 7652   1.862   1.364   4.847 -0.4462  0.4027 -0.0232
  798MOL0     O 7653   1.740   1.419   4.843  0.2674  0.2181  0.0052
  798MOL0     C 7654   1.639   1.358   4.764  0.0317  1.0432  0.0899
  798MOL0     C 7655   1.541   1.459   4.706  0.5463  0.4759  0.1822
  798MOL0     C 7656   1.433   1.497   4.801 -0.1018 -0.4026 -0.2636
  798MOL0     C 7657   1.486   1.575   4.928 -0.2644  0.5135 -0.4869
  798MOL0     C 7658   1.398   1.681   4.987 -0.2891  0.8296  0.5879
  798MOL0     C 7659   1.311   1.760   5.017 -0.7998  0.6279  1.0001
  798MOL0     C 7660   1.917   1.261   4.763 -0.8577  0.9669 -0.4164
  798MOL0     C 7661   2.050   1.221   4.755  0.4153 -0.6924  0.2346
  798MOL0     C 7662   2.085   1.119   4.657  0.5574 -0.3189  0.9735
  798MOL0     H 7663   2.557   1.278   4.770  1.6064  0.6503 -1.5280
  798MOL0     H 7664   2.778   1.205   4.811  2.1274  1.7466  0.2508
  798MOL0     H 7665   2.927   0.945   5.009 -0.6378 -0.6215 -1.2544
  798MOL0     H 7666   2.895   1.048   4.870  0.3265 -0.9645  0.1052
  798MOL0     H 7667   3.138   1.056   5.049 -1.6252  0.0781  0.9437
  798MOL0     H 7668   3.093   1.186   4.941 -1.6704  0.3251  1.0009
  798MOL0     H 7669   3.172   0.903   4.841 -1.5462  0.5797 -2.6165
  798MOL0     H 7670   3.279   1.043   4.855  0.9337 -2.5830  3.4564
  798MOL0     H 7671   3.030   1.003   4.683  1.1585 -2.3402  1.7782
  798MOL0     H 7672   3.114   1.163   4.686  3.0372  0.6861  0.3085
  798MOL0     H 7673   3.257   0.915   4.608  1.7184 -0.3292 -2.0035
  798MOL0     H 7674   3.180   1.023   4.491 -0.3079  1.0099  1.3443
  798MOL0     H 7675   3.306   1.219   4.563 -2.8297 -1.0396 -0.5102
  798MOL0     H 7676   3.385   1.137   4.688  1.3913 -4.4749 -0.1346
  798MOL0     H 7677   3.529   1.173   4.513 -1.3700  1.2222  0.4045
  798MOL0     H 7678   3.433   1.090   4.390  1.6255 -1.2708 -0.6470
  798MOL0     H 7679   3.564   0.949   4.615  0.9108 -3.9215 -0.8979
  798MOL0     H 7680   3.464   0.874   4.495  1.5489 -0.7109 -0.4644
  798MOL0     H 7681   3.626   1.048   4.249  2.6005  2.3740  2.1128
  798MOL0     H 7682   3.954   0.875   4.116  0.4971 -1.2623  1.4944
  798MOL0     H 7683   3.800   0.878   4.044  3.0170  0.6386 -1.6476
  798MOL0     H 7684   3.919   1.089   3.991  2.6357  1.5329  1.3885
  798MOL0     H 7685   3.772   1.108   4.063  1.4764  3.0689  0.0423
  798MOL0     H 7686   3.886   1.169   4.275 -0.3579 -0.2537 -0.5608
  798MOL0     H 7687   3.926   1.274   4.145 -0.6196  0.1649  1.4731
  798MOL0     H 7688   4.101   1.045   4.238  0.1128 -0.4616  0.1219
  798MOL0     H 7689   4.123   1.221   4.267  0.4712  0.9281 -1.5257
  798MOL0     H 7690   4.313   1.327   3.972 -0.3206  1.5305  2.2032
  798MOL0     H 7691   4.574   1.283   3.947  0.6884 -1.6896 -2.2588
  798MOL0     H 7692   4.978   1.218   4.033 -0.5021  0.4133 -0.5377
  798MOL0     H 7693   5.214   1.164   3.947 -0.3163 -0.4326 -0.3320
  798MOL0     H 7694   5.426   1.113   3.833  2.8392 -0.3148 -0.3633
  798MOL0     H 7695   5.379   0.958   3.884  0.6619 -1.8605 -1.8575
  798MOL0     H 7696   5.586   0.934   3.763  0.5663 -0.1902 -1.1739
  798MOL0     H 7697   5.472   0.855   3.660  2.2404 -0.6313  0.0686
  798MOL0     H 7698   5.432   1.045   3.526 -1.2730 -0.7688  0.6639
  798MOL0     H 7699   5.552   1.139   3.638 -0.3943 -2.1127  3.9939
  798MOL0     H 7700   5.652   1.069   3.421 -1.0209 -0.4772 -0.5931
  798MOL0     H 7701   5.616   0.903   3.458 -0.9260  1.1747 -1.9702
  798MOL0     H 7702   5.776   0.885   3.621  1.8353  0.0002  0.0981
  798MOL0     H 7703   5.791   1.052   3.651 -0.9639  1.9759 -0.8886
  798MOL0     H 7704   5.870   0.971   3.365  0.5334 -0.3357  0.3388
  798MOL0     H 7705   5.898   1.114   3.451 -0.2164  0.0993 -0.2600
  798MOL0     H 7706   5.982   0.841   3.572 -2.5946  2.0998  1.8164
  798MOL0     H 7707   6.053   1.007   3.597 -3.7751  4.4300 -1.5932
  798MOL0     H 7708   6.097   0.830   3.350 -0.4374  0.5318 -0.5578
  798MOL0     H 7709   6.127   0.999   3.352 -4.8294 -0.3503 -1.6024
  798MOL0     H 7710   5.029   0.960   3.617  2.0812 -2.1586  0.8884
  798MOL0     H 7711   4.811   1.034   3.684  1.3658  0.3048  0.3658
  798MOL0     H 7712   4.521   0.898   4.108  0.6242  0.4738 -0.1554
  798MOL0     H 7713   4.281   0.943   4.148 -1.6559  1.5964  0.9524
  798MOL0     H 7714   2.688   1.175   5.223 -2.2371 -2.5287  0.3728
  798MOL0     H 7715   2.463   1.248   5.190  0.8265 -2.4221  1.2773
  798MOL0     H 7716   2.168   1.446   4.988 -1.0729 -0.7715  0.8878
  798MOL0     H 7717   1.936   1.517   4.977 -1.5736 -1.3499  2.2213
  798MOL0     H 7718   1.582   1.282   4.817 -0.5592  2.6906  1.9345
  798MOL0     H 7719   1.679   1.307   4.676 -0.8211 -0.7542  0.7087
  798MOL0     H 7720   1.507   1.409   4.615  0.0475 -0.7799  1.0320
  798MOL0     H 7721   1.600   1.547   4.679  1.8886  0.3372  2.3615
  798MOL0     H 7722   1.371   1.411   4.828 -4.5218  1.4254 -3.3662
  798MOL0     H 7723   1.361   1.573   4.769 -0.0263  0.9769  2.5468
  798MOL0     H 7724   1.503   1.497   5.002  0.7078 -0.9024 -2.1331
  798MOL0     H 7725   1.587   1.611   4.907 -0.0540 -0.0350 -0.4388
  798MOL0     H 7726   1.232   1.830   5.035  2.2057  3.5337  4.6241
  798MOL0     H 7727   1.843   1.204   4.709 -0.1633 -2.4575  1.9019
  798MOL0     H 7728   2.003   1.088   4.591  1.5176  0.4677 -0.6446
  798MOL0     H 7729   2.158   1.163   4.588  0.4243 -0.0596  0.9976
  798MOL0     H 7730   2.111   1.022   4.701 -1.3071 -0.2554  2.2764
  799MOL0     O 7731   4.255   3.846  10.422 -0.4209 -0.0116  0.1746
  799MOL0     C 7732   4.161   3.793  10.367  0.4777  0.0150  0.3226
  799MOL0     O 7733   4.167   3.675  10.295 -0.5918 -0.2024  0.3319
  799MOL0     C 7734   4.279   3.605  10.254  0.1748 -0.5320  0.4517
  799MOL0     C 7735   4.268   3.463  10.255  0.1885  0.7533 -0.2172
  799MOL0     C 7736   4.370   3.383  10.205 -0.1804  0.4271 -0.0979
  799MOL0     C 7737   4.495   3.430  10.171  0.7947 -0.8758  0.3408
  799MOL0     O 7738   4.596   3.345  10.120 -0.0333  0.3605  0.1957
  799MOL0     C 7739   4.700   3.400  10.031 -0.3078 -0.4525  0.1815
  799MOL0     C 7740   4.827   3.455  10.118  0.1348  1.4437  1.0057
  799MOL0     C 7741   4.950   3.474  10.019 -0.6611  0.5122  0.1143
  799MOL0     C 7742   5.055   3.539  10.090 -0.8706  0.3943  0.2029
  799MOL0     C 7743   5.181   3.562   9.996  0.0698  0.1920 -0.6841
  799MOL0     C 7744   5.299   3.611  10.088 -0.1687 -0.2377 -0.2428
  799MOL0     C 7745   5.415   3.666  10.009 -0.0140  0.4054 -0.6509
  799MOL0     C 7746   5.518   3.708  10.122  0.9731 -0.3645 -1.0399
  799MOL0     N 7747   5.657   3.658  10.078 -0.2648  0.7036  0.3853
  799MOL0     C 7748   5.741   3.713   9.989 -0.7245 -0.0982  1.3556
  799MOL0     C 7749   5.844   3.622   9.987  0.5694 -0.6006  0.0135
  799MOL0     C 7750   5.964   3.624   9.902 -0.5765  0.1735 -0.0173
  799MOL0     C 7751   6.041   3.751   9.907 -0.1562 -0.1223 -0.6394
  799MOL0     C 7752   6.160   3.747   9.825 -0.8041  0.4613 -0.4640
  799MOL0     C 7753   6.254   3.859   9.857 -0.3939 -0.2306  0.2636
  799MOL0     O 7754   6.395   3.847   9.822 -0.7874 -0.7103 -0.4822
  799MOL0     C 7755   6.484   3.778   9.904  0.7644 -0.8723 -0.5707
  799MOL0     C 7756   6.462   3.728  10.032 -0.6615  0.0020 -0.0186
  799MOL0     C 7757   6.562   3.678  10.108  0.9878 -0.1431  0.8159
  799MOL0     C 7758   6.687   3.660  10.051  0.3101 -0.1865  0.7927
  799MOL0     C 7759   6.783   3.594  10.134  0.2635  0.8753 -0.3299
  799MOL0     O 7760   6.737   3.506  10.228 -0.3057  0.4280  0.1492
  799MOL0     C 7761   6.826   3.428  10.300 -1.0857  0.9806 -0.4761
  799MOL0     C 7762   6.822   3.426  10.444 -0.1253  0.5673  0.5773
  799MOL0     C 7763   6.912   3.336  10.520  0.9711 -0.7307  0.2204
  799MOL0     C 7764   7.003   3.261  10.449  0.4497  0.9886 -1.4579
  799MOL0     O 7765   7.085   3.180  10.515 -0.3763 -0.6842  0.4335
  799MOL0     C 7766   7.218   3.226  10.528  0.1987  0.1162  0.0860
  799MOL0     C 7767   7.317   3.134  10.609  0.2494 -0.4671  0.1803
  799MOL0     C 7768   7.388   3.215  10.720  0.0652 -0.7261 -1.0029
  799MOL0     C 7769   7.313   3.207  10.849  0.3245 -0.1278 -0.3749
  799MOL0     C 7770   7.354   3.085  10.926  0.5070 -0.2295 -0.6523
  799MOL0     C 7771   7.484   3.107  11.001  0.2410  0.6908  0.6500
  799MOL0     C 7772   7.565   2.983  11.045  0.4171  0.1860  0.5590
  799MOL0     C 7773   7.621   2.906  10.924 -0.2094  0.3882 -0.5534
  799MOL0    Cl 7774   7.722   3.007  10.821  0.5232 -0.0994  0.7204
  799MOL0     C 7775   7.014   3.267  10.311 -0.1763 -0.3118  0.3150
  799MOL0     C 7776   6.925   3.349  10.244 -0.9402  0.5093 -0.2291
  799MOL0     O 7777   6.893   3.608  10.100 -0.4113  0.3765  0.2593
  799MOL0     C 7778   6.714   3.704   9.916 -0.1049  0.0432 -0.0688
  799MOL0     C 7779   6.608   3.755   9.844  0.3238 -0.5280 -0.0826
  799MOL0     N 7780   5.823   3.528  10.082 -0.5776 -0.1056 -0.4263
  799MOL0     N 7781   5.705   3.545  10.123  0.3403  0.3801 -0.7933
  799MOL0     C 7782   4.510   3.566  10.182 -0.7022  0.0583 -0.1717
  799MOL0     C 7783   4.404   3.653  10.222 -0.2768 -0.1521  0.9175
  799MOL0     C 7784   4.027   3.858  10.370  0.4953  0.4273 -0.6110
  799MOL0     C 7785   3.913   3.792  10.309  0.9284 -0.8414 -0.0818
  799MOL0     C 7786   3.781   3.850  10.306 -0.3517 -0.0670  0.5475
  799MOL0     C 7787   3.762   3.978  10.347  0.7982  0.5296  0.5861
  799MOL0     O 7788   3.636   4.027  10.320 -0.0526 -0.4473 -0.4813
  799MOL0     C 7789   3.570   4.110  10.422 -0.4881  0.2981  1.0696
  799MOL0     C 7790   3.514   4.014  10.533  0.0302  0.2611 -0.0274
  799MOL0     C 7791   3.480   4.093  10.659 -0.2400  0.5172  0.6095
  799MOL0     C 7792   3.603   4.164  10.721 -0.6549  0.4434  0.2898
  799MOL0     C 7793   3.564   4.211  10.854  0.7041  0.0703 -0.9184
  799MOL0     C 7794   3.522   4.260  10.961  0.1819 -0.0738  0.1451
  799MOL0     C 7795   3.870   4.045  10.410  0.4522 -0.2018  1.0273
  799MOL0     C 7796   3.994   3.987  10.424  0.2222  0.0958 -0.1159
  799MOL0     C 7797   4.111   4.079  10.482  1.3971 -0.0064  0.5082
  799MOL0     H 7798   4.177   3.417  10.292  0.5044 -0.3158 -0.7435
  799MOL0     H 7799   4.358   3.275  10.204 -0.7876  0.4896 -0.6051
  799MOL0     H 7800   4.734   3.330   9.954 -0.0106 -1.3168  1.0755
  799MOL0     H 7801   4.673   3.479   9.960 -0.7271 -0.4671  0.3184
  799MOL0     H 7802   4.844   3.379  10.194 -0.7741 -0.5256 -0.6743
  799MOL0     H 7803   4.815   3.559  10.151  2.8404  2.3089 -0.4067
  799MOL0     H 7804   4.931   3.540   9.934  0.0130 -0.9847 -1.2561
  799MOL0     H 7805   4.980   3.377   9.978 -1.3615  0.7970 -1.1532
  799MOL0     H 7806   5.018   3.632  10.134 -0.3396 -0.6737  3.0978
  799MOL0     H 7807   5.084   3.477  10.175  0.2884  1.1917  0.4147
  799MOL0     H 7808   5.212   3.462   9.962 -0.1510  0.5058 -1.8676
  799MOL0     H 7809   5.155   3.631   9.916  1.1017 -0.0553 -1.2521
  799MOL0     H 7810   5.257   3.681  10.160  0.5727  1.3072 -1.2531
  799MOL0     H 7811   5.331   3.522  10.143 -2.8128  0.2171  2.2482
  799MOL0     H 7812   5.387   3.752   9.947 -2.2432 -0.9348 -1.6346
  799MOL0     H 7813   5.469   3.594   9.947  0.9277 -0.9103  1.5709
  799MOL0     H 7814   5.513   3.814  10.148  1.8237 -0.7137  0.7331
  799MOL0     H 7815   5.486   3.667  10.218 -0.5804  3.3187  0.1590
  799MOL0     H 7816   5.741   3.801   9.925  1.2089 -0.8357  0.2407
  799MOL0     H 7817   6.036   3.550   9.939 -0.0698  0.5264 -0.2933
  799MOL0     H 7818   5.949   3.589   9.800  3.2380 -2.9669  0.2367
  799MOL0     H 7819   5.973   3.823   9.861 -1.7952 -1.5094 -0.4723
  799MOL0     H 7820   6.066   3.782  10.009  2.3065 -0.0797 -1.1743
  799MOL0     H 7821   6.133   3.738   9.719 -0.2597 -1.0340 -0.4937
  799MOL0     H 7822   6.223   3.658   9.838 -1.0967 -0.0042 -1.9818
  799MOL0     H 7823   6.251   3.876   9.965 -0.4608  0.4009  0.1683
  799MOL0     H 7824   6.217   3.949   9.807 -0.9473 -1.7820 -2.3013
  799MOL0     H 7825   6.361   3.732  10.072 -0.5936  1.7180  0.0552
  799MOL0     H 7826   6.542   3.640  10.207  2.9821 -0.2143  1.2370
  799MOL0     H 7827   6.749   3.491  10.492  2.3677  3.0945  1.1888
  799MOL0     H 7828   6.911   3.329  10.628 -0.1257 -1.3451  0.1819
  799MOL0     H 7829   7.251   3.235  10.424 -0.0257 -1.4350 -0.1422
  799MOL0     H 7830   7.228   3.322  10.578 -2.4574  1.9335 -2.5113
  799MOL0     H 7831   7.266   3.051  10.659  0.5972 -1.5827 -1.2598
  799MOL0     H 7832   7.391   3.094  10.539 -0.2438 -1.1395  0.0330
  799MOL0     H 7833   7.486   3.167  10.722  0.0873 -0.6574 -0.1994
  799MOL0     H 7834   7.403   3.321  10.696 -0.1758 -0.4181  0.1217
  799MOL0     H 7835   7.208   3.202  10.817  0.8946 -2.8270 -2.1039
  799MOL0     H 7836   7.325   3.298  10.908 -0.0130  0.6183 -1.4203
  799MOL0     H 7837   7.362   2.999  10.859  0.7646 -2.2561  1.8207
  799MOL0     H 7838   7.285   3.069  11.010  0.0924  0.6436 -0.8142
  799MOL0     H 7839   7.542   3.165  10.928 -0.0436 -0.7002 -0.7467
  799MOL0     H 7840   7.479   3.169  11.091  2.1956 -1.5314  2.4093
  799MOL0     H 7841   7.499   2.913  11.098  0.2170 -1.7947 -2.1003
  799MOL0     H 7842   7.645   3.017  11.111  0.5038 -1.1247  1.1665
  799MOL0     H 7843   7.689   2.830  10.965  0.7163 -0.1572 -2.9664
  799MOL0     H 7844   7.539   2.851  10.878 -1.6513 -0.2701  2.5590
  799MOL0     H 7845   7.088   3.210  10.255  1.2240  2.9068 -1.4066
  799MOL0     H 7846   6.930   3.333  10.136 -0.1073  2.8670 -0.6034
  799MOL0     H 7847   6.817   3.692   9.884  0.1352 -0.0632  0.7173
  799MOL0     H 7848   6.620   3.799   9.746  0.9459 -4.0022 -1.7248
  799MOL0     H 7849   4.608   3.613  10.180 -0.2286 -0.9095 -0.4083
  799MOL0     H 7850   4.429   3.759  10.222  2.0751 -0.6657  1.1022
  799MOL0     H 7851   3.932   3.694  10.268 -1.9393 -2.1784  1.5616
  799MOL0     H 7852   3.693   3.794  10.275 -2.2313  2.5880  0.8027
  799MOL0     H 7853   3.486   4.162  10.375  1.6111  2.8226 -0.1539
  799MOL0     H 7854   3.640   4.189  10.451  1.4405 -0.1992 -1.8711
  799MOL0     H 7855   3.588   3.935  10.549 -1.9915 -2.3530 -2.6493
  799MOL0     H 7856   3.426   3.962  10.494  1.2713 -0.8016 -1.5498
  799MOL0     H 7857   3.431   4.022  10.726 -1.9494 -0.7020 -1.8092
  799MOL0     H 7858   3.406   4.165  10.623 -0.5529 -0.5581 -0.9909
  799MOL0     H 7859   3.685   4.092  10.723 -0.7892  0.1481 -2.2264
  799MOL0     H 7860   3.651   4.242  10.661 -0.4851 -2.0090 -3.0213
  799MOL0     H 7861   3.486   4.306  11.050 -1.0862  0.9749 -0.8552
  799MOL0     H 7862   3.870   4.150  10.441  2.8427  0.6626 -1.5553
  799MOL0     H 7863   4.162   4.042  10.572  0.9080  1.0290  1.2264
  799MOL0     H 7864   4.182   4.096  10.400  0.7005  2.5852  0.3762
  799MOL0     H 7865   4.064   4.175  10.505 -0.8572 -0.6830 -1.0318
  800MOL0     O 7866   5.733   5.008   7.970  0.0857  0.7151 -0.3984
  800MOL0     C 7867   5.749   4.889   7.939 -0.3992 -0.4686  0.4212
  800MOL0     O 7868   5.863   4.833   7.884  0.3549 -0.7842  0.4638
  800MOL0     C 7869   5.971   4.923   7.884  0.6051  0.4473 -0.5758
  800MOL0     C 7870   5.984   5.027   7.795 -0.2265 -0.2877  0.3523
  800MOL0     C 7871   6.106   5.101   7.802 -0.0993  0.6042 -0.3100
  800MOL0     C 7872   6.200   5.077   7.903  0.2508  0.1157  0.4181
  800MOL0     O 7873   6.311   5.154   7.921 -0.0335  0.0002 -0.4205
  800MOL0     C 7874   6.303   5.297   7.889 -0.5549  0.0580 -0.1766
  800MOL0     C 7875   6.385   5.373   7.992  1.1105  0.1965 -0.3391
  800MOL0     C 7876   6.532   5.371   7.968 -0.0078  0.3660  0.8382
  800MOL0     C 7877   6.597   5.238   7.911  0.2773 -0.2162 -0.2227
  800MOL0     C 7878   6.754   5.241   7.939  0.7214  0.0553  0.6522
  800MOL0     C 7879   6.828   5.300   7.821  0.0884 -0.0934  0.0167
  800MOL0     C 7880   6.972   5.283   7.844 -0.3877 -0.5824 -0.2641
  800MOL0     C 7881   7.056   5.345   7.728 -0.0779 -0.0772 -0.0757
  800MOL0     N 7882   7.198   5.293   7.709  0.0302 -0.8890 -0.0379
  800MOL0     C 7883   7.231   5.171   7.657  0.2256 -0.6078 -0.2743
  800MOL0     C 7884   7.359   5.151   7.683 -0.3842 -0.0952 -0.1222
  800MOL0     C 7885   7.433   5.036   7.618  0.5919 -0.2344 -0.4273
  800MOL0     C 7886   7.564   5.080   7.549 -0.1634  0.4367  0.2447
  800MOL0     C 7887   7.624   4.958   7.488  0.3445  0.0936 -0.0844
  800MOL0     C 7888   7.728   4.987   7.383 -0.7556 -0.7339  0.0296
  800MOL0     O 7889   7.837   5.071   7.441  0.9088  0.1853 -0.0142
  800MOL0     C 7890   7.955   5.055   7.372 -0.2615 -0.8998  0.5219
  800MOL0     C 7891   8.034   4.948   7.385  0.3897 -0.2491  0.8283
  800MOL0     C 7892   8.157   4.946   7.325 -0.4059 -0.2742  0.4102
  800MOL0     C 7893   8.212   5.059   7.252  0.5692 -0.3957  0.1758
  800MOL0     C 7894   8.351   5.058   7.209 -0.0184  0.0766  0.4474
  800MOL0     O 7895   8.425   4.943   7.240  0.3803 -0.6298  1.0563
  800MOL0     C 7896   8.558   4.945   7.243  0.0009 -0.4012  0.4686
  800MOL0     C 7897   8.631   4.974   7.126  0.1236 -0.8994  1.4165
  800MOL0     C 7898   8.766   4.971   7.139 -0.2742 -0.0210  0.1399
  800MOL0     C 7899   8.832   4.905   7.246 -0.2809  0.0797  0.4557
  800MOL0     O 7900   8.976   4.898   7.243 -0.5669  0.1289 -0.2985
  800MOL0     C 7901   9.036   4.842   7.365  0.1118  0.3724 -0.0519
  800MOL0     C 7902   9.186   4.872   7.352 -0.2049 -0.2624  0.4613
  800MOL0     C 7903   9.269   4.797   7.458 -0.6787  0.1023 -0.4141
  800MOL0     C 7904   9.420   4.844   7.469 -0.0460 -0.4477  0.2004
  800MOL0     C 7905   9.496   4.764   7.566 -0.1390 -0.4135 -0.0999
  800MOL0     C 7906   9.642   4.813   7.586 -0.1531  0.6375  0.4675
  800MOL0     C 7907   9.730   4.720   7.665 -0.4131 -0.3288 -0.2561
  800MOL0     C 7908   9.860   4.797   7.702  0.4318  0.4048 -0.9825
  800MOL0    Cl 7909   9.980   4.705   7.802  0.2617 -0.4930 -0.6564
  800MOL0     C 7910   8.751   4.864   7.352 -0.9828  0.5607 -0.8342
  800MOL0     C 7911   8.611   4.887   7.350 -0.4964  0.1248 -0.1411
  800MOL0     O 7912   8.395   5.152   7.142  0.4947 -0.1436 -1.4635
  800MOL0     C 7913   8.121   5.165   7.229 -0.4029 -0.8696 -0.1694
  800MOL0     C 7914   8.001   5.166   7.295 -0.2276  0.3263  0.1956
  800MOL0     N 7915   7.411   5.263   7.738  0.0137 -0.6294  0.4568
  800MOL0     N 7916   7.315   5.351   7.745  0.4154  0.0707  0.6387
  800MOL0     C 7917   6.172   4.981   8.002 -0.6582  0.2662  0.1762
  800MOL0     C 7918   6.053   4.909   7.996 -0.1369  0.5835 -0.3690
  800MOL0     C 7919   5.633   4.797   7.955  0.3904  0.4488 -1.3116
  800MOL0     C 7920   5.664   4.660   7.925  0.2644 -0.4587 -0.3451
  800MOL0     C 7921   5.569   4.562   7.924 -0.2404 -0.6089  0.2873
  800MOL0     C 7922   5.446   4.585   7.974 -0.9434  0.0072  0.0582
  800MOL0     O 7923   5.362   4.475   7.973  0.0132 -0.4311  0.1356
  800MOL0     C 7924   5.222   4.497   7.969 -0.0603  0.3313 -0.2663
  800MOL0     C 7925   5.162   4.553   7.835  0.8087 -0.7619 -0.6750
  800MOL0     C 7926   5.052   4.656   7.856  1.1562 -0.8161  1.0063
  800MOL0     C 7927   5.003   4.709   7.720  1.3978 -0.1322  0.2950
  800MOL0     C 7928   4.914   4.828   7.736 -0.5880 -0.1321  0.1256
  800MOL0     C 7929   4.857   4.939   7.750 -0.5622  0.7824  0.0946
  800MOL0     C 7930   5.419   4.711   8.016  0.0845 -0.9043 -0.9511
  800MOL0     C 7931   5.505   4.819   8.007  0.5927 -0.4057  1.0257
  800MOL0     C 7932   5.445   4.955   8.051 -0.1168  0.1193  0.2811
  800MOL0     H 7933   5.916   5.035   7.711  1.5599 -0.6198 -1.1716
  800MOL0     H 7934   6.125   5.183   7.734 -4.7803  2.1632 -0.0370
  800MOL0     H 7935   6.328   5.316   7.784  0.3186 -0.9376 -0.1576
  800MOL0     H 7936   6.197   5.325   7.894 -0.5752 -0.0309 -0.1044
  800MOL0     H 7937   6.356   5.329   8.087 -3.0402  0.2058 -1.4199
  800MOL0     H 7938   6.347   5.475   7.991 -0.1977 -0.2756 -0.1784
  800MOL0     H 7939   6.573   5.421   8.056  0.8559 -0.6995  1.0622
  800MOL0     H 7940   6.554   5.447   7.892 -2.5931  1.3069  0.9321
  800MOL0     H 7941   6.561   5.159   7.978 -1.2796 -0.1626 -0.9609
  800MOL0     H 7942   6.573   5.212   7.808  1.0525 -0.7929 -0.2639
  800MOL0     H 7943   6.785   5.298   8.026 -0.1382 -0.9301  1.6309
  800MOL0     H 7944   6.793   5.140   7.955  3.2947  1.1767  2.0470
  800MOL0     H 7945   6.803   5.240   7.732 -0.9203 -0.8021  0.7543
  800MOL0     H 7946   6.808   5.407   7.827 -0.2079 -0.2187  1.6620
  800MOL0     H 7947   6.983   5.174   7.840  1.5904 -0.4190 -0.0154
  800MOL0     H 7948   7.003   5.332   7.937  1.5857 -0.3443 -1.0038
  800MOL0     H 7949   7.007   5.340   7.630 -1.8768  3.5349  0.4777
  800MOL0     H 7950   7.072   5.451   7.749 -0.2418 -0.3188  1.3876
  800MOL0     H 7951   7.164   5.101   7.608 -0.3167  0.2624 -0.8056
  800MOL0     H 7952   7.456   4.963   7.696 -2.4924 -2.1848 -1.1424
  800MOL0     H 7953   7.364   4.998   7.542 -0.5472  1.1397 -0.1233
  800MOL0     H 7954   7.543   5.159   7.476 -2.1767  3.5054  3.7967
  800MOL0     H 7955   7.636   5.133   7.613  1.1664 -2.0217  0.8992
  800MOL0     H 7956   7.539   4.914   7.435  0.0558  0.5034  0.0369
  800MOL0     H 7957   7.666   4.892   7.565 -0.3476  0.4925  0.6479
  800MOL0     H 7958   7.678   5.045   7.305 -1.1339 -1.0568  0.0339
  800MOL0     H 7959   7.778   4.901   7.337 -0.6235 -1.2782  1.1755
  800MOL0     H 7960   7.997   4.859   7.435  0.4370 -0.0457  1.2313
  800MOL0     H 7961   8.216   4.859   7.350  0.4994  0.1410 -0.2118
  800MOL0     H 7962   8.592   5.018   7.035  0.4951  1.1449  2.1973
  800MOL0     H 7963   8.830   5.002   7.057  1.8486 -1.3749  1.1977
  800MOL0     H 7964   8.991   4.899   7.447 -1.6416  1.3163 -1.5924
  800MOL0     H 7965   9.020   4.734   7.373 -0.1195  0.3356 -0.8475
  800MOL0     H 7966   9.216   4.832   7.255  0.7479 -0.7633  0.9436
  800MOL0     H 7967   9.204   4.980   7.360 -4.4037  0.6549 -0.4704
  800MOL0     H 7968   9.225   4.816   7.556  0.2320 -1.3863  0.3305
  800MOL0     H 7969   9.269   4.688   7.451 -0.1028 -0.3677  4.1544
  800MOL0     H 7970   9.415   4.948   7.500  1.4767 -0.7376  1.5228
  800MOL0     H 7971   9.464   4.830   7.370 -0.7893  0.8982 -0.3475
  800MOL0     H 7972   9.487   4.658   7.545  0.8406 -0.6688  0.6899
  800MOL0     H 7973   9.445   4.774   7.663  1.4945 -1.1634  0.8747
  800MOL0     H 7974   9.684   4.827   7.486 -2.6730  0.7048 -0.6661
  800MOL0     H 7975   9.644   4.912   7.632 -0.0722  0.2221  1.3708
  800MOL0     H 7976   9.766   4.642   7.597  0.5008 -0.6468  0.5691
  800MOL0     H 7977   9.683   4.667   7.748 -1.9895  3.3228  1.3966
  800MOL0     H 7978   9.911   4.828   7.610  0.2347  2.1621 -0.5369
  800MOL0     H 7979   9.835   4.886   7.760 -2.8651 -2.5590  2.7199
  800MOL0     H 7980   8.785   4.803   7.435 -1.1495  0.6158 -0.7246
  800MOL0     H 7981   8.540   4.859   7.427 -2.6198  0.2594 -1.9368
  800MOL0     H 7982   8.143   5.257   7.176 -5.6495  0.4705 -0.6029
  800MOL0     H 7983   7.946   5.259   7.296  3.2311  2.6515 -2.2972
  800MOL0     H 7984   6.234   4.959   8.089 -2.7709  1.5730  2.1322
  800MOL0     H 7985   6.028   4.825   8.060 -0.6600  2.2863  1.7609
  800MOL0     H 7986   5.760   4.631   7.883  0.6833 -0.4245  0.5582
  800MOL0     H 7987   5.580   4.467   7.873 -1.3703 -0.5226 -0.1255
  800MOL0     H 7988   5.201   4.563   8.053  1.1793  0.8067 -0.3213
  800MOL0     H 7989   5.167   4.403   7.980 -2.5294  1.7130 -0.0456
  800MOL0     H 7990   5.120   4.475   7.770 -1.1685 -1.5297  1.3551
  800MOL0     H 7991   5.244   4.594   7.776  0.2580  1.6968  0.1382
  800MOL0     H 7992   5.085   4.739   7.920 -2.9152  0.4833  1.6898
  800MOL0     H 7993   4.970   4.619   7.919  0.4357 -1.6486 -0.3881
  800MOL0     H 7994   5.078   4.748   7.650  0.9969 -0.6854 -0.4595
  800MOL0     H 7995   4.959   4.629   7.660 -0.1231  0.5159  0.5148
  800MOL0     H 7996   4.817   5.035   7.773  0.1894  1.8462 -2.6739
  800MOL0     H 7997   5.323   4.728   8.062  0.3732 -1.6342 -0.0511
  800MOL0     H 7998   5.362   4.963   8.121 -2.3586  0.6244 -2.2457
  800MOL0     H 7999   5.529   4.996   8.108 -1.8300  1.2590  2.1232
  800MOL0     H 8000   5.423   5.012   7.960  2.1039 -3.5651 -2.9104
  801MOL0     O 8001   0.711   7.362   1.586  0.3893  0.1120  0.0443
  801MOL0     C 8002   0.618   7.372   1.674  0.2274 -0.8502  0.5161
  801MOL0     O 8003   0.635   7.370   1.811 -0.6337  1.0399  0.4216
  801MOL0     C 8004   0.762   7.350   1.854 -0.3162 -0.7066  0.4578
  801MOL0     C 8005   0.797   7.233   1.910 -0.8285 -0.1585  0.9122
  801MOL0     C 8006   0.921   7.203   1.960 -0.3769  0.2265 -0.5819
  801MOL0     C 8007   1.011   7.304   1.962  0.1141  0.6153  0.4307
  801MOL0     O 8008   1.137   7.282   2.016 -0.4735  0.0947 -0.7922
  801MOL0     C 8009   1.167   7.164   2.085  0.1742 -0.0428  0.2086
  801MOL0     C 8010   1.303   7.156   2.164 -0.1618 -0.6257  0.5884
  801MOL0     C 8011   1.314   7.274   2.254  0.4396  0.2540 -0.7436
  801MOL0     C 8012   1.437   7.267   2.341  0.3092 -0.1498 -0.7253
  801MOL0     C 8013   1.576   7.297   2.282 -0.3634  0.3394  0.3907
  801MOL0     C 8014   1.692   7.286   2.369  0.1810  0.2801 -0.7643
  801MOL0     C 8015   1.817   7.271   2.290 -0.0011 -0.2318 -0.4031
  801MOL0     C 8016   1.923   7.187   2.364  0.8330  0.3901  0.0615
  801MOL0     N 8017   1.967   7.259   2.487  0.4901  0.0252 -0.4637
  801MOL0     C 8018   2.027   7.385   2.490 -0.9189  0.9743 -0.0655
  801MOL0     C 8019   2.037   7.403   2.624  0.2405 -1.2112  0.6906
  801MOL0     C 8020   2.089   7.535   2.675  0.3966 -0.3643  0.5326
  801MOL0     C 8021   2.206   7.586   2.592  0.4974  0.0977  0.3564
  801MOL0     C 8022   2.294   7.693   2.662 -0.5239  0.2110  0.2642
  801MOL0     C 8023   2.230   7.838   2.686  0.0265 -0.7860 -0.1449
  801MOL0     O 8024   2.255   7.919   2.567 -0.5827  0.1250 -0.4831
  801MOL0     C 8025   2.374   7.989   2.560  0.4411 -0.3289 -0.3090
  801MOL0     C 8026   2.488   7.973   2.639  0.3883  1.1318  0.3513
  801MOL0     C 8027   2.604   8.055   2.622  0.3011  0.2552  0.4153
  801MOL0     C 8028   2.612   8.145   2.511  0.0419 -0.1170 -0.2155
  801MOL0     C 8029   2.731   8.215   2.482 -0.2595  0.1403  0.9664
  801MOL0     O 8030   2.847   8.169   2.528 -0.9366 -0.4128  0.1979
  801MOL0     C 8031   2.962   8.237   2.511 -0.2780  0.7133  0.1614
  801MOL0     C 8032   3.026   8.250   2.384 -0.2209 -0.4209  0.3163
  801MOL0     C 8033   3.147   8.318   2.370  0.2131  0.1176  0.1163
  801MOL0     C 8034   3.209   8.370   2.488  0.2700 -0.1888  0.7798
  801MOL0     O 8035   3.325   8.436   2.481 -0.6507  0.3401  0.5089
  801MOL0     C 8036   3.434   8.387   2.562 -0.1402 -0.3353  0.4284
  801MOL0     C 8037   3.568   8.409   2.504 -0.2877 -0.1647 -0.0751
  801MOL0     C 8038   3.681   8.324   2.559  0.0295  0.2795  0.1799
  801MOL0     C 8039   3.824   8.380   2.554  0.2011 -0.7966 -1.0413
  801MOL0     C 8040   3.926   8.263   2.586  0.9900  0.1525  0.3751
  801MOL0     C 8041   4.064   8.325   2.619 -0.5159  1.1825  0.7137
  801MOL0     C 8042   4.109   8.421   2.514  0.3170  0.4473  0.1544
  801MOL0     C 8043   4.257   8.426   2.507 -0.3128  0.1455  0.6667
  801MOL0    Cl 8044   4.306   8.546   2.373  0.1761  0.0725 -0.1854
  801MOL0     C 8045   3.154   8.363   2.613  0.0303  0.6915 -0.0605
  801MOL0     C 8046   3.031   8.291   2.624  0.6605  0.1241  0.1916
  801MOL0     O 8047   2.721   8.323   2.420 -0.3642  0.4787  0.0481
  801MOL0     C 8048   2.496   8.158   2.429  0.4833  0.1661 -0.6545
  801MOL0     C 8049   2.378   8.084   2.456 -0.8709 -0.0054 -0.0500
  801MOL0     N 8050   1.983   7.295   2.701  0.0872  0.3857  0.1198
  801MOL0     N 8051   1.937   7.202   2.612  0.0339 -1.1293 -0.4908
  801MOL0     C 8052   0.983   7.427   1.903 -0.1093 -0.0935 -0.0023
  801MOL0     C 8053   0.852   7.452   1.848 -0.0458 -0.0872  0.5061
  801MOL0     C 8054   0.472   7.373   1.637  0.5248 -0.2487  0.2095
  801MOL0     C 8055   0.375   7.382   1.743  0.4675 -0.4953  1.3543
  801MOL0     C 8056   0.238   7.371   1.715  0.4657 -1.1885  1.0148
  801MOL0     C 8057   0.186   7.350   1.591 -0.3288  0.1570  0.6415
  801MOL0     O 8058   0.052   7.324   1.567 -0.5515 -0.3238  0.3110
  801MOL0     C 8059  -0.004   7.443   1.497 -0.1524 -0.3910  0.1625
  801MOL0     C 8060  -0.151   7.426   1.493  0.4134  0.0522  0.1339
  801MOL0     C 8061  -0.219   7.564   1.458 -0.4574 -0.4348  0.2414
  801MOL0     C 8062  -0.367   7.561   1.456  0.3920 -0.0615 -0.1493
  801MOL0     C 8063  -0.418   7.470   1.358 -0.4064  0.2067  0.4831
  801MOL0     C 8064  -0.479   7.408   1.274  0.1796 -0.5549 -0.2954
  801MOL0     C 8065   0.274   7.358   1.488  0.0143 -0.0411 -0.1223
  801MOL0     C 8066   0.419   7.367   1.506  1.0098 -0.0097  0.2450
  801MOL0     C 8067   0.498   7.374   1.381  0.7336 -0.1933  0.1346
  801MOL0     H 8068   0.724   7.152   1.919  0.0761 -1.3211 -1.4608
  801MOL0     H 8069   0.943   7.100   1.987 -1.6888  0.2486  0.7413
  801MOL0     H 8070   1.087   7.151   2.158  0.1565  0.4554  0.2841
  801MOL0     H 8071   1.164   7.079   2.017 -0.9828 -0.6553  0.9838
  801MOL0     H 8072   1.367   7.173   2.077 -2.5321 -2.5489 -1.6900
  801MOL0     H 8073   1.322   7.064   2.219  0.0849 -0.3852  0.9089
  801MOL0     H 8074   1.232   7.264   2.327  0.5573  2.5803 -0.2101
  801MOL0     H 8075   1.300   7.367   2.197 -0.0957 -1.2457 -3.2027
  801MOL0     H 8076   1.428   7.344   2.419 -2.5877 -0.7575 -0.3405
  801MOL0     H 8077   1.431   7.170   2.389 -2.8414  1.1854  1.9654
  801MOL0     H 8078   1.588   7.234   2.194 -1.4568  1.1331 -0.3410
  801MOL0     H 8079   1.569   7.398   2.241 -0.9411 -0.4618 -1.6057
  801MOL0     H 8080   1.686   7.367   2.443  1.9676 -0.2406  0.0142
  801MOL0     H 8081   1.689   7.198   2.433 -2.5811  2.7112  2.8939
  801MOL0     H 8082   1.860   7.369   2.267  1.9752 -0.7591  0.7871
  801MOL0     H 8083   1.795   7.227   2.193  1.1744  0.1380 -0.8499
  801MOL0     H 8084   1.880   7.091   2.394 -2.3435  1.4741 -0.6602
  801MOL0     H 8085   2.008   7.176   2.296  0.7725 -1.0970  0.1899
  801MOL0     H 8086   2.077   7.446   2.415  2.5248 -0.0252  1.2280
  801MOL0     H 8087   2.006   7.606   2.678 -2.0573 -2.7959 -2.7401
  801MOL0     H 8088   2.127   7.509   2.774  0.5581 -2.7186 -0.0783
  801MOL0     H 8089   2.274   7.503   2.570  1.6095  0.7202  1.3451
  801MOL0     H 8090   2.163   7.628   2.501  2.3695 -1.1185 -1.1647
  801MOL0     H 8091   2.392   7.705   2.614  0.4845 -2.1788  1.5495
  801MOL0     H 8092   2.321   7.650   2.759  0.6062 -1.3740 -0.7100
  801MOL0     H 8093   2.265   7.885   2.778  0.5921 -0.4971 -0.5066
  801MOL0     H 8094   2.123   7.827   2.708  0.3291 -2.2286  0.7485
  801MOL0     H 8095   2.482   7.892   2.712 -2.3819 -1.1379 -2.1320
  801MOL0     H 8096   2.697   8.048   2.678  1.6348  0.3992 -1.6944
  801MOL0     H 8097   2.988   8.209   2.291  2.0178 -0.2028 -0.7482
  801MOL0     H 8098   3.179   8.332   2.267 -1.1267  1.9565 -0.1069
  801MOL0     H 8099   3.429   8.441   2.657  0.8539  0.9851 -0.2312
  801MOL0     H 8100   3.422   8.280   2.583 -1.3873  0.1805  2.5515
  801MOL0     H 8101   3.572   8.414   2.395 -1.6647 -0.2635 -0.1524
  801MOL0     H 8102   3.602   8.511   2.521  2.1175 -0.5405 -2.1339
  801MOL0     H 8103   3.655   8.287   2.659  1.7344  0.5535  0.7655
  801MOL0     H 8104   3.691   8.231   2.504  1.7503  1.9412 -2.5475
  801MOL0     H 8105   3.820   8.444   2.643 -0.3536 -2.2558  0.0214
  801MOL0     H 8106   3.842   8.427   2.457 -0.5419  0.3313 -0.6577
  801MOL0     H 8107   3.921   8.198   2.498  1.3756  0.5900  0.0263
  801MOL0     H 8108   3.891   8.198   2.667 -0.3247  0.6249  0.2201
  801MOL0     H 8109   4.058   8.371   2.717  0.6060  1.4912  0.6549
  801MOL0     H 8110   4.142   8.249   2.624  0.4420  1.7681 -2.5521
  801MOL0     H 8111   4.066   8.516   2.544 -0.6336 -0.2309  0.9946
  801MOL0     H 8112   4.083   8.388   2.413 -0.3553  1.9194 -0.1695
  801MOL0     H 8113   4.298   8.458   2.603  1.6076 -3.2412  1.1100
  801MOL0     H 8114   4.306   8.329   2.494  1.6973  1.1487  0.2740
  801MOL0     H 8115   3.210   8.392   2.701 -2.5718  0.9397  1.6331
  801MOL0     H 8116   2.985   8.281   2.722 -0.3263  0.9582 -0.1724
  801MOL0     H 8117   2.507   8.212   2.335  1.0643  2.4576  0.6499
  801MOL0     H 8118   2.299   8.095   2.382  1.4325 -0.0940 -2.6644
  801MOL0     H 8119   1.052   7.508   1.927 -1.7056  0.8028  1.9011
  801MOL0     H 8120   0.824   7.551   1.813  1.2706  1.1386  2.6310
  801MOL0     H 8121   0.382   7.386   1.851 -3.6168 -1.2256  1.8019
  801MOL0     H 8122   0.163   7.370   1.794  0.1975 -1.3411  0.7605
  801MOL0     H 8123   0.040   7.449   1.396  1.0582 -1.0852  0.6234
  801MOL0     H 8124   0.021   7.531   1.557  0.3786 -2.7147  3.5849
  801MOL0     H 8125  -0.181   7.401   1.595  2.5376  0.3349  0.8804
  801MOL0     H 8126  -0.169   7.350   1.417  1.1498 -0.4930  0.4960
  801MOL0     H 8127  -0.175   7.603   1.366  1.7336 -1.4013  0.8351
  801MOL0     H 8128  -0.190   7.635   1.536 -0.1170  0.1213 -0.3808
  801MOL0     H 8129  -0.405   7.538   1.556  2.6371  0.9034  0.9720
  801MOL0     H 8130  -0.406   7.655   1.415 -2.1026 -0.5187  0.9721
  801MOL0     H 8131  -0.537   7.365   1.195 -1.3074  0.7998  0.0248
  801MOL0     H 8132   0.245   7.359   1.384 -2.0211  2.4249  0.3779
  801MOL0     H 8133   0.431   7.352   1.297 -0.3735 -0.9635  1.1797
  801MOL0     H 8134   0.557   7.466   1.377  1.3724 -0.6125 -0.3056
  801MOL0     H 8135   0.575   7.296   1.379  0.8040 -0.1124 -0.3903
  802MOL0     O 8136   6.587   8.903   9.043 -0.2849  0.3461  0.1570
  802MOL0     C 8137   6.577   9.024   9.021  0.5836  0.3702 -0.0266
  802MOL0     O 8138   6.679   9.110   8.999  0.2617 -0.9513 -0.7277
  802MOL0     C 8139   6.812   9.089   9.029 -0.4079 -0.3450  0.1690
  802MOL0     C 8140   6.892   8.993   8.963 -0.3959  0.1621  0.9630
  802MOL0     C 8141   7.030   8.980   8.995 -0.8308  0.8189 -0.7515
  802MOL0     C 8142   7.091   9.052   9.095  0.3302  0.3852 -1.1348
  802MOL0     O 8143   7.219   9.029   9.126  0.0815  0.0091  0.0926
  802MOL0     C 8144   7.270   9.081   9.249  0.5820 -0.0593  0.4101
  802MOL0     C 8145   7.414   9.041   9.274  0.0537  0.7112  0.6078
  802MOL0     C 8146   7.513   9.094   9.164  0.6388  0.9562 -0.9378
  802MOL0     C 8147   7.663   9.088   9.199 -1.1408  0.1331 -0.4483
  802MOL0     C 8148   7.704   8.945   9.230 -0.3833 -0.5920 -0.2226
  802MOL0     C 8149   7.849   8.935   9.183 -0.0686 -0.3152  0.1050
  802MOL0     C 8150   7.851   8.878   9.042  0.4613 -0.4326  0.1973
  802MOL0     C 8151   7.986   8.836   8.974 -0.0896  0.1912 -0.2297
  802MOL0     N 8152   8.087   8.803   9.077 -0.2660  0.3503 -1.1000
  802MOL0     C 8153   8.180   8.893   9.136 -0.3163 -0.1814  0.7374
  802MOL0     C 8154   8.232   8.820   9.234  0.3371  0.3877 -0.5754
  802MOL0     C 8155   8.327   8.870   9.341 -0.1751 -0.3345  0.3648
  802MOL0     C 8156   8.474   8.894   9.286 -0.1617 -0.7899  0.2741
  802MOL0     C 8157   8.492   9.018   9.195  1.0337 -0.0564  0.2610
  802MOL0     C 8158   8.640   9.034   9.150 -0.0035 -1.0409  0.0883
  802MOL0     O 8159   8.733   9.060   9.256  1.1999  0.0953  0.3248
  802MOL0     C 8160   8.868   9.056   9.234 -0.3929 -0.6238 -1.2922
  802MOL0     C 8161   8.948   9.094   9.346  0.2039  1.0067 -0.6893
  802MOL0     C 8162   9.092   9.103   9.337  0.5283  0.0098 -0.6036
  802MOL0     C 8163   9.145   9.091   9.210  0.4658 -0.1068  0.0441
  802MOL0     C 8164   9.288   9.093   9.198  0.0239  0.3736 -0.2317
  802MOL0     O 8165   9.340   9.056   9.077 -0.6581 -0.1471 -0.3960
  802MOL0     C 8166   9.476   9.065   9.057  0.3975  0.5037 -0.1200
  802MOL0     C 8167   9.569   9.003   9.141  0.2220  0.3338 -0.1167
  802MOL0     C 8168   9.703   9.004   9.103  0.9373 -0.5689  0.0113
  802MOL0     C 8169   9.753   9.086   9.001  0.1623  0.3393  0.8077
  802MOL0     O 8170   9.887   9.082   8.962 -0.6742 -0.7067  0.1965
  802MOL0     C 8171   9.918   9.131   8.832 -0.0799 -0.7698  0.1966
  802MOL0     C 8172  10.066   9.108   8.811  0.1238 -0.7458  0.6781
  802MOL0     C 8173  10.150   9.217   8.881  0.4075 -0.6698 -0.7073
  802MOL0     C 8174  10.293   9.201   8.823 -0.0591  0.4119  0.6646
  802MOL0     C 8175  10.388   9.285   8.905 -0.4696  0.2398  0.2852
  802MOL0     C 8176  10.527   9.312   8.842  0.8103 -0.0759  0.4529
  802MOL0     C 8177  10.581   9.177   8.792 -0.8339 -0.3547  0.0695
  802MOL0     C 8178  10.738   9.196   8.787  0.9859  0.0547 -0.4559
  802MOL0    Cl 8179  10.816   9.318   8.681 -0.2906 -0.4373 -0.0108
  802MOL0     C 8180   9.654   9.146   8.920  0.4674  0.1922 -1.2921
  802MOL0     C 8181   9.521   9.137   8.946  0.1018 -0.5613  0.2909
  802MOL0     O 8182   9.355   9.115   9.303 -0.4371 -0.0370  0.4487
  802MOL0     C 8183   9.072   9.042   9.101  0.2261 -1.0242 -0.0945
  802MOL0     C 8184   8.938   9.013   9.123  0.6369  0.3521  0.0789
  802MOL0     N 8185   8.180   8.694   9.232  0.6143  0.5129 -0.5732
  802MOL0     N 8186   8.097   8.678   9.137  0.1613  0.7484 -0.3596
  802MOL0     C 8187   7.017   9.143   9.165 -0.9492  1.5202  0.1099
  802MOL0     C 8188   6.886   9.175   9.119  0.8183  0.0621 -0.0541
  802MOL0     C 8189   6.437   9.075   9.025 -0.3321 -0.3676  0.0518
  802MOL0     C 8190   6.418   9.210   9.048  0.1171 -0.1113 -0.9168
  802MOL0     C 8191   6.285   9.261   9.037 -0.2278  0.4397  0.0180
  802MOL0     C 8192   6.169   9.179   9.019 -0.1545  0.0722 -0.5275
  802MOL0     O 8193   6.047   9.237   9.014  0.5958 -0.2782  0.2600
  802MOL0     C 8194   6.003   9.318   9.123  0.0376 -0.2583 -0.0382
  802MOL0     C 8195   5.864   9.266   9.181  0.0727  0.5206  1.0868
  802MOL0     C 8196   5.739   9.285   9.096 -0.6622  0.6090 -0.5140
  802MOL0     C 8197   5.716   9.179   8.998  1.0560 -0.1043 -0.1181
  802MOL0     C 8198   5.589   9.189   8.925  0.3222  0.5104  0.7389
  802MOL0     C 8199   5.486   9.220   8.877  0.3313 -0.8056  0.0883
  802MOL0     C 8200   6.187   9.043   9.002  0.4732 -0.3793 -0.0241
  802MOL0     C 8201   6.322   8.992   9.005  0.1095  0.2342 -0.0576
  802MOL0     C 8202   6.326   8.841   8.974 -0.2620  0.1972  0.8020
  802MOL0     H 8203   6.855   8.928   8.884 -0.1880 -1.5257  2.1964
  802MOL0     H 8204   7.086   8.902   8.944  0.3067 -0.9951  2.9157
  802MOL0     H 8205   7.260   9.190   9.245 -0.3077 -0.1616 -0.6034
  802MOL0     H 8206   7.200   9.046   9.325 -1.1257  1.0802 -0.5813
  802MOL0     H 8207   7.423   8.932   9.283  0.2285  0.4180 -2.2925
  802MOL0     H 8208   7.438   9.080   9.373 -3.7191 -2.2731  2.9664
  802MOL0     H 8209   7.484   9.199   9.157 -1.7228  0.2937 -2.4988
  802MOL0     H 8210   7.490   9.042   9.070 -1.2252 -0.5870  0.2812
  802MOL0     H 8211   7.714   9.125   9.110 -0.3847 -1.8762 -0.9062
  802MOL0     H 8212   7.686   9.155   9.282 -0.9556 -0.0458 -0.3534
  802MOL0     H 8213   7.694   8.932   9.338 -2.1489  1.5919 -0.0678
  802MOL0     H 8214   7.641   8.876   9.173  0.5187 -0.1615 -1.8069
  802MOL0     H 8215   7.898   9.032   9.189 -1.8229  0.6303 -0.4165
  802MOL0     H 8216   7.909   8.863   9.241  4.0417 -1.0567 -4.4196
  802MOL0     H 8217   7.815   8.962   8.982  2.7515  0.9786  0.6725
  802MOL0     H 8218   7.790   8.787   9.042 -1.3768  0.6684  2.7513
  802MOL0     H 8219   7.965   8.756   8.902  2.9363  0.9270 -2.0782
  802MOL0     H 8220   8.023   8.914   8.908 -2.2813  1.9865  0.5372
  802MOL0     H 8221   8.206   8.998   9.127  5.7966 -1.3200  1.0057
  802MOL0     H 8222   8.284   8.958   9.389  0.0233  0.9216 -1.6457
  802MOL0     H 8223   8.336   8.793   9.418  1.1969 -1.4181 -0.8044
  802MOL0     H 8224   8.538   8.908   9.373 -0.6212 -1.0691  0.6599
  802MOL0     H 8225   8.513   8.808   9.231  2.2321  1.5273 -1.9977
  802MOL0     H 8226   8.462   9.110   9.246  0.6404  1.1905 -2.0892
  802MOL0     H 8227   8.431   9.008   9.105 -1.0357 -0.0313  1.5775
  802MOL0     H 8228   8.643   9.116   9.078  0.1141 -0.7629  0.4055
  802MOL0     H 8229   8.666   8.940   9.101 -1.0350 -1.5532  0.4886
  802MOL0     H 8230   8.900   9.109   9.443  0.6716 -1.0546 -0.0771
  802MOL0     H 8231   9.146   9.127   9.428 -0.8720  0.6909  0.0907
  802MOL0     H 8232   9.529   8.951   9.227  1.4774  1.1947  1.0398
  802MOL0     H 8233   9.778   8.953   9.163 -1.0474 -2.2220  1.2095
  802MOL0     H 8234   9.860   9.091   8.749 -1.3247  0.9374  0.1760
  802MOL0     H 8235   9.892   9.237   8.826  0.8591 -0.6120 -2.3099
  802MOL0     H 8236  10.104   9.012   8.848  2.4694 -0.9605 -1.9371
  802MOL0     H 8237  10.083   9.110   8.703  0.7293  0.0881  0.7794
  802MOL0     H 8238  10.117   9.320   8.863  0.5821 -0.8178 -1.9235
  802MOL0     H 8239  10.154   9.210   8.990 -0.5368 -2.7355 -0.7528
  802MOL0     H 8240  10.289   9.219   8.715 -1.7765 -1.5719  0.3281
  802MOL0     H 8241  10.319   9.095   8.832  3.9009  1.3589  2.2966
  802MOL0     H 8242  10.391   9.247   9.007 -2.7871  0.6346  0.5606
  802MOL0     H 8243  10.345   9.385   8.915 -1.9540 -0.3135 -0.2200
  802MOL0     H 8244  10.514   9.378   8.755  0.4378  0.2141  0.7238
  802MOL0     H 8245  10.591   9.371   8.909 -0.5944  1.7966  0.2366
  802MOL0     H 8246  10.545   9.142   8.695 -2.6093  0.0400  0.5472
  802MOL0     H 8247  10.544   9.099   8.860 -0.9218 -1.9002 -1.6701
  802MOL0     H 8248  10.766   9.218   8.891 -0.1526  2.8384 -0.6484
  802MOL0     H 8249  10.778   9.099   8.756 -0.1905  0.2573 -2.7641
  802MOL0     H 8250   9.682   9.213   8.838 -0.7636  3.7092  0.9174
  802MOL0     H 8251   9.451   9.187   8.880 -1.7918 -0.0259  2.5777
  802MOL0     H 8252   9.115   9.009   9.006 -3.8695 -2.3241 -1.7014
  802MOL0     H 8253   8.890   8.985   9.030  1.3427  0.5638 -0.3479
  802MOL0     H 8254   7.060   9.199   9.248  0.1248  0.4583  0.3002
  802MOL0     H 8255   6.833   9.257   9.168  0.8629  0.0868 -0.0483
  802MOL0     H 8256   6.495   9.284   9.067 -2.3895  1.8178  2.8477
  802MOL0     H 8257   6.279   9.368   9.054 -3.1265  0.6780 -1.7358
  802MOL0     H 8258   5.989   9.421   9.089 -1.8656 -0.6271 -0.4570
  802MOL0     H 8259   6.068   9.315   9.211  0.6253 -1.0882 -0.4935
  802MOL0     H 8260   5.833   9.313   9.274 -0.3538 -0.2668  1.3517
  802MOL0     H 8261   5.878   9.158   9.195 -0.4233 -0.0992 -2.3221
  802MOL0     H 8262   5.736   9.383   9.047 -0.7911  0.0765 -1.6008
  802MOL0     H 8263   5.657   9.289   9.169  0.8314  1.4174  1.2053
  802MOL0     H 8264   5.802   9.179   8.930 -0.2830 -1.7419 -1.8879
  802MOL0     H 8265   5.708   9.086   9.054 -3.6826 -0.3181 -0.8167
  802MOL0     H 8266   5.384   9.238   8.848 -0.3957 -3.3326  0.7793
  802MOL0     H 8267   6.100   8.978   8.989  0.0634 -0.4306  2.4556
  802MOL0     H 8268   6.381   8.786   9.051 -1.6880 -0.7995  1.1578
  802MOL0     H 8269   6.230   8.789   8.964  0.7116 -1.2514 -2.3121
  802MOL0     H 8270   6.365   8.820   8.874 -1.9720  0.3610  0.0648
  803MOL0     O 8271   8.152   5.260   1.672  0.8669  0.3188 -0.1829
  803MOL0     C 8272   8.095   5.310   1.772 -0.7585  0.0194  0.2444
  803MOL0     O 8273   8.153   5.326   1.898  0.3194  0.3849  0.4817
  803MOL0     C 8274   8.285   5.292   1.917 -0.5466 -0.0826 -0.7442
  803MOL0     C 8275   8.397   5.364   1.865  1.0315 -0.2789 -0.0277
  803MOL0     C 8276   8.528   5.326   1.887  0.4222 -0.1256 -0.1384
  803MOL0     C 8277   8.544   5.216   1.972 -0.3377 -0.2114 -0.3924
  803MOL0     O 8278   8.674   5.188   1.995 -0.4160 -0.4291  0.6275
  803MOL0     C 8279   8.708   5.061   2.051 -0.1459 -0.8236 -1.0873
  803MOL0     C 8280   8.853   5.040   2.056 -0.3188 -0.2689  0.1102
  803MOL0     C 8281   8.883   4.913   2.130  0.3205 -0.2695  0.3950
  803MOL0     C 8282   9.038   4.884   2.114  0.6002  0.0464  0.3043
  803MOL0     C 8283   9.109   4.823   2.236  0.0793 -0.3074  0.5808
  803MOL0     C 8284   9.254   4.788   2.191 -0.3849  0.1731  0.1653
  803MOL0     C 8285   9.319   4.709   2.309 -0.5916  0.1528 -0.2905
  803MOL0     C 8286   9.471   4.681   2.289  0.6389  0.3621 -0.6339
  803MOL0     N 8287   9.530   4.607   2.400 -0.0225 -0.3986  0.0135
  803MOL0     C 8288   9.659   4.634   2.447  0.8509 -0.6649 -0.7603
  803MOL0     C 8289   9.672   4.547   2.552 -0.2130  0.5714 -0.4418
  803MOL0     C 8290   9.797   4.531   2.636 -0.2679 -0.5626  0.0274
  803MOL0     C 8291   9.783   4.585   2.785  0.3156  0.6863  0.4243
  803MOL0     C 8292   9.895   4.546   2.883 -0.4964 -0.1923 -0.2228
  803MOL0     C 8293  10.035   4.576   2.836  0.0111 -0.0130  0.1696
  803MOL0     O 8294  10.090   4.497   2.724 -0.1684  0.8300 -0.2852
  803MOL0     C 8295  10.223   4.458   2.722 -0.3156  0.1949  0.5036
  803MOL0     C 8296  10.320   4.492   2.814  0.2615  0.0032 -0.5409
  803MOL0     C 8297  10.454   4.462   2.789 -0.3059 -0.6188 -0.5756
  803MOL0     C 8298  10.492   4.400   2.670 -0.2021  0.3357 -0.8668
  803MOL0     C 8299  10.629   4.384   2.615  0.0100 -0.3408  0.3361
  803MOL0     O 8300  10.717   4.481   2.653  0.3762  0.3112 -0.5138
  803MOL0     C 8301  10.849   4.456   2.615 -0.1551 -0.0118 -0.1428
  803MOL0     C 8302  10.932   4.570   2.587 -0.0945  0.7128 -0.4606
  803MOL0     C 8303  11.071   4.551   2.576  0.0811 -0.4134  0.3853
  803MOL0     C 8304  11.124   4.426   2.606  0.0675  0.0847 -0.2589
  803MOL0     O 8305  11.258   4.422   2.593  0.0770 -0.2741  0.4520
  803MOL0     C 8306  11.298   4.320   2.496  0.0123  0.2467  0.2660
  803MOL0     C 8307  11.360   4.199   2.549  0.1944 -0.6759  0.5513
  803MOL0     C 8308  11.495   4.236   2.604  0.2864 -0.0079 -0.3081
  803MOL0     C 8309  11.584   4.114   2.635  0.5848 -0.1028 -0.1828
  803MOL0     C 8310  11.699   4.135   2.733  0.3353 -0.2926  0.4327
  803MOL0     C 8311  11.814   4.215   2.666 -0.2093  0.0352 -0.3340
  803MOL0     C 8312  11.935   4.238   2.759 -0.7169 -0.7402 -0.1259
  803MOL0     C 8313  12.025   4.123   2.800  0.1080 -0.3262  0.1923
  803MOL0    Cl 8314  12.153   4.219   2.882 -0.1455 -0.3602 -0.2898
  803MOL0     C 8315  11.045   4.316   2.635 -0.6712 -0.1601 -0.5273
  803MOL0     C 8316  10.911   4.337   2.655  0.3815  0.3599  0.0110
  803MOL0     O 8317  10.648   4.291   2.536  0.0481 -0.5386  0.4925
  803MOL0     C 8318  10.395   4.353   2.585 -0.7106 -0.2041 -0.0291
  803MOL0     C 8319  10.266   4.389   2.612  0.5094 -0.4708 -0.7715
  803MOL0     N 8320   9.556   4.473   2.569 -0.1896 -0.7364 -0.3794
  803MOL0     N 8321   9.470   4.507   2.480 -0.8346 -0.4194 -0.4746
  803MOL0     C 8322   8.436   5.137   2.033 -0.1720 -0.3315  0.2652
  803MOL0     C 8323   8.310   5.189   2.010 -1.2326  0.8014  0.4905
  803MOL0     C 8324   7.954   5.343   1.752 -0.1114  0.9715  0.1664
  803MOL0     C 8325   7.875   5.320   1.862 -0.0331 -0.2543 -0.3926
  803MOL0     C 8326   7.747   5.362   1.865  0.0322 -0.0179  0.0125
  803MOL0     C 8327   7.688   5.423   1.753  0.1832  0.0073 -0.5789
  803MOL0     O 8328   7.545   5.446   1.765  0.2691 -0.1112  0.3678
  803MOL0     C 8329   7.485   5.531   1.659 -0.0568 -0.0371  0.1160
  803MOL0     C 8330   7.344   5.557   1.692 -0.5347  0.6907  0.4430
  803MOL0     C 8331   7.266   5.437   1.742 -0.3512  0.2160  0.2193
  803MOL0     C 8332   7.121   5.467   1.776 -0.1202 -0.4245 -0.1980
  803MOL0     C 8333   7.104   5.561   1.887 -0.6899 -0.6055  0.5324
  803MOL0     C 8334   7.089   5.628   1.988  0.5862  0.3541  0.0452
  803MOL0     C 8335   7.769   5.447   1.642  1.1609  0.4160 -0.1662
  803MOL0     C 8336   7.902   5.410   1.637  0.6038  1.9832 -0.6359
  803MOL0     C 8337   7.981   5.440   1.516  0.2545  0.4174  0.3404
  803MOL0     H 8338   8.374   5.437   1.788  2.3703  0.1094 -0.0745
  803MOL0     H 8339   8.612   5.377   1.841 -0.7719  2.0089 -0.0918
  803MOL0     H 8340   8.670   5.043   2.152  1.6164 -2.6553 -0.6817
  803MOL0     H 8341   8.669   4.985   1.984 -1.4612 -0.6076 -0.5924
  803MOL0     H 8342   8.902   5.125   2.106  0.8580 -1.1296  0.4678
  803MOL0     H 8343   8.904   5.036   1.959 -1.5617  2.8294 -0.8181
  803MOL0     H 8344   8.822   4.830   2.094  0.3555 -0.2636  0.3226
  803MOL0     H 8345   8.858   4.922   2.236 -0.3508 -1.3603  0.3443
  803MOL0     H 8346   9.049   4.812   2.032 -0.8154  0.2484 -0.0762
  803MOL0     H 8347   9.094   4.967   2.070  1.1415  0.3869  1.5786
  803MOL0     H 8348   9.119   4.891   2.320 -0.0227  0.2260  0.1699
  803MOL0     H 8349   9.047   4.741   2.273 -1.0535 -0.1692 -0.8890
  803MOL0     H 8350   9.258   4.724   2.102  1.5592  0.9898 -0.4022
  803MOL0     H 8351   9.311   4.879   2.171  0.5055 -0.7509 -1.8492
  803MOL0     H 8352   9.270   4.613   2.326  3.5705 -2.2019 -0.1169
  803MOL0     H 8353   9.305   4.756   2.407 -0.4849 -2.8888  1.3146
  803MOL0     H 8354   9.485   4.630   2.193 -0.6486 -1.6728  0.1870
  803MOL0     H 8355   9.517   4.780   2.285 -0.8384  1.0436 -1.7250
  803MOL0     H 8356   9.737   4.699   2.408  1.5914  0.7808  2.7744
  803MOL0     H 8357   9.823   4.426   2.650 -2.0346 -1.1013 -0.4541
  803MOL0     H 8358   9.880   4.583   2.587 -1.2680 -1.9432 -3.4944
  803MOL0     H 8359   9.779   4.695   2.781  0.5792  0.6652 -0.6836
  803MOL0     H 8360   9.684   4.551   2.816  1.0397 -2.1329 -0.1259
  803MOL0     H 8361   9.903   4.437   2.898  3.1600 -0.2165 -1.4956
  803MOL0     H 8362   9.887   4.594   2.981 -0.3489  1.2796 -0.9102
  803MOL0     H 8363  10.097   4.556   2.924 -0.8604 -2.1493  0.3568
  803MOL0     H 8364  10.038   4.682   2.808  0.5499 -0.3660 -1.1602
  803MOL0     H 8365  10.290   4.553   2.899 -1.5831 -0.3735 -0.8900
  803MOL0     H 8366  10.536   4.479   2.859 -1.7382  0.0102  1.0308
  803MOL0     H 8367  10.886   4.668   2.594  0.4395  0.8616  3.6659
  803MOL0     H 8368  11.136   4.634   2.551  1.1740 -1.8850 -2.0178
  803MOL0     H 8369  11.205   4.293   2.446 -0.6319  1.6957  0.6281
  803MOL0     H 8370  11.366   4.378   2.433  1.1351  1.7783  2.7103
  803MOL0     H 8371  11.293   4.163   2.628  1.0863 -3.0931  0.2982
  803MOL0     H 8372  11.373   4.120   2.474  1.6454  0.3602 -0.3377
  803MOL0     H 8373  11.551   4.287   2.525  2.3308  1.3949  1.9400
  803MOL0     H 8374  11.493   4.316   2.678 -0.1522  0.0397 -0.3665
  803MOL0     H 8375  11.622   4.080   2.538  3.4690  1.5503  0.2735
  803MOL0     H 8376  11.531   4.025   2.669  0.8030 -0.5342 -0.9375
  803MOL0     H 8377  11.744   4.038   2.757  2.5086  1.1505  2.5930
  803MOL0     H 8378  11.670   4.174   2.831  0.4299 -0.6184  0.5934
  803MOL0     H 8379  11.841   4.166   2.572  1.5736  1.0962 -0.4149
  803MOL0     H 8380  11.775   4.314   2.643 -0.4856 -0.1237 -0.5539
  803MOL0     H 8381  11.888   4.269   2.853  1.4919 -2.0087  1.4801
  803MOL0     H 8382  11.996   4.315   2.711 -2.2349 -0.0496 -1.0142
  803MOL0     H 8383  11.990   4.028   2.842  4.1202 -2.4545 -0.7920
  803MOL0     H 8384  12.063   4.081   2.707  1.9818 -0.9839  1.2059
  803MOL0     H 8385  11.087   4.216   2.645 -1.4496 -0.4238  0.2779
  803MOL0     H 8386  10.845   4.257   2.689  1.6640 -1.1482 -0.9158
  803MOL0     H 8387  10.412   4.313   2.486  2.5552  0.2891  0.2390
  803MOL0     H 8388  10.179   4.359   2.554 -0.9817  1.9843 -0.0242
  803MOL0     H 8389   8.453   5.054   2.101  1.0561 -1.8891 -1.8192
  803MOL0     H 8390   8.226   5.131   2.050 -1.3346 -0.3789 -1.3285
  803MOL0     H 8391   7.913   5.273   1.952  0.6788  0.6605 -0.2007
  803MOL0     H 8392   7.695   5.344   1.959  0.3985  2.8979  0.8628
  803MOL0     H 8393   7.474   5.473   1.567 -0.2286 -1.1868  0.8274
  803MOL0     H 8394   7.542   5.624   1.656  0.4729 -0.3524  0.1363
  803MOL0     H 8395   7.291   5.591   1.603 -0.3300 -0.8569 -0.3087
  803MOL0     H 8396   7.337   5.632   1.771 -2.5988 -0.7060  1.7175
  803MOL0     H 8397   7.289   5.398   1.841 -2.8157  2.0486  1.6136
  803MOL0     H 8398   7.263   5.359   1.665  2.3385 -0.5261  0.7659
  803MOL0     H 8399   7.062   5.504   1.691 -0.3262  0.4982  0.3333
  803MOL0     H 8400   7.075   5.369   1.794  2.0444 -1.7858 -1.6392
  803MOL0     H 8401   7.064   5.690   2.072 -1.5319 -1.2680  0.6751
  803MOL0     H 8402   7.731   5.489   1.549  0.2263  1.6675  0.7620
  803MOL0     H 8403   7.982   5.350   1.454 -1.5130  0.9611 -0.5241
  803MOL0     H 8404   7.921   5.513   1.461  1.3167 -0.0649 -1.5634
  803MOL0     H 8405   8.078   5.488   1.536  0.2443  0.0134  1.4506
  804MOL0     O 8406  10.757   4.603   6.089 -0.0608  0.3852  0.0067
  804MOL0     C 8407  10.713   4.650   5.982 -1.1761 -0.4413 -0.0034
  804MOL0     O 8408  10.794   4.700   5.880  0.3551 -0.6950  0.5407
  804MOL0     C 8409  10.918   4.745   5.896  0.0649 -0.0094 -0.1769
  804MOL0     C 8410  10.995   4.762   5.777  0.7116 -0.1774 -0.4335
  804MOL0     C 8411  11.128   4.799   5.780 -0.7982 -1.5379  0.7962
  804MOL0     C 8412  11.189   4.823   5.903 -0.8155 -0.0804 -0.4593
  804MOL0     O 8413  11.318   4.861   5.908  0.1668 -0.5519  0.3629
  804MOL0     C 8414  11.416   4.770   5.857  0.3032 -0.2237 -0.5809
  804MOL0     C 8415  11.513   4.741   5.982  0.6844  0.0166  0.7772
  804MOL0     C 8416  11.593   4.863   6.033  1.2588  0.7982  0.8568
  804MOL0     C 8417  11.551   4.901   6.178  0.2432  0.0337  0.2927
  804MOL0     C 8418  11.589   4.788   6.275 -0.3071  0.5388 -0.6734
  804MOL0     C 8419  11.741   4.759   6.288 -1.5849  0.0209 -0.1122
  804MOL0     C 8420  11.764   4.652   6.396  0.6955 -0.2241  0.2859
  804MOL0     C 8421  11.920   4.646   6.431  0.0771 -0.5205 -0.1690
  804MOL0     N 8422  12.001   4.568   6.335  0.1629 -0.6788  0.1951
  804MOL0     C 8423  12.112   4.501   6.376 -0.1940  0.6934 -0.8014
  804MOL0     C 8424  12.169   4.455   6.259 -0.4939  0.1801 -0.1912
  804MOL0     C 8425  12.288   4.367   6.244 -0.3745  0.6107  0.0570
  804MOL0     C 8426  12.385   4.413   6.137  0.6540 -0.0654 -0.2324
  804MOL0     C 8427  12.489   4.303   6.096  0.7476 -0.8529 -0.1858
  804MOL0     C 8428  12.606   4.303   6.198  0.0347  0.7513 -0.3671
  804MOL0     O 8429  12.583   4.258   6.324  0.6823 -0.1453 -0.2511
  804MOL0     C 8430  12.678   4.288   6.423  0.4319 -0.3525  0.5272
  804MOL0     C 8431  12.642   4.295   6.556  0.2266  0.6285 -0.0588
  804MOL0     C 8432  12.736   4.314   6.654 -0.3550 -0.1289  0.3208
  804MOL0     C 8433  12.875   4.326   6.621  1.1586 -0.3092 -0.4172
  804MOL0     C 8434  12.983   4.337   6.729  0.6642 -0.2318  0.0126
  804MOL0     O 8435  13.110   4.321   6.670  0.0078 -0.4450 -1.2947
  804MOL0     C 8436  13.223   4.299   6.754  0.7773 -0.6166 -0.9815
  804MOL0     C 8437  13.218   4.201   6.853 -0.3761 -0.1269  0.1390
  804MOL0     C 8438  13.342   4.172   6.924 -0.5960 -0.1586 -0.2036
  804MOL0     C 8439  13.457   4.256   6.914  0.5073 -0.6174 -0.0292
  804MOL0     O 8440  13.574   4.240   6.977  0.0110 -0.2018  0.2689
  804MOL0     C 8441  13.558   4.191   7.111  0.0804  0.1857  0.3422
  804MOL0     C 8442  13.685   4.170   7.195 -0.7919 -0.4273 -0.7242
  804MOL0     C 8443  13.787   4.286   7.179 -0.3993 -1.0143  0.1334
  804MOL0     C 8444  13.897   4.270   7.283  0.0381 -0.7874  0.0749
  804MOL0     C 8445  13.995   4.389   7.290  0.2986 -0.8234  0.3332
  804MOL0     C 8446  14.105   4.392   7.180  0.8024 -0.2407  0.2458
  804MOL0     C 8447  14.193   4.261   7.165  0.4545 -0.5405  0.0967
  804MOL0     C 8448  14.290   4.277   7.040  0.4580 -0.4603  0.4992
  804MOL0    Cl 8449  14.428   4.395   7.089  0.1629  0.2206  0.1689
  804MOL0     C 8450  13.446   4.365   6.824  0.4010 -0.3642 -0.0238
  804MOL0     C 8451  13.333   4.385   6.749  0.4180 -0.2801  0.1135
  804MOL0     O 8452  12.962   4.334   6.856  0.5199  0.0611  0.7099
  804MOL0     C 8453  12.910   4.313   6.485  0.7905  0.9089  0.0329
  804MOL0     C 8454  12.814   4.299   6.389 -0.7722  0.1978 -0.2721
  804MOL0     N 8455  12.084   4.491   6.148 -0.2872  0.2527  0.8360
  804MOL0     N 8456  11.992   4.566   6.195 -0.3738 -0.2997 -0.0115
  804MOL0     C 8457  11.114   4.830   6.018 -0.4266 -0.8125  0.4513
  804MOL0     C 8458  10.983   4.786   6.015 -0.2669  0.4897  0.4106
  804MOL0     C 8459  10.574   4.637   5.953 -0.1210 -0.4690  0.3359
  804MOL0     C 8460  10.518   4.699   5.835 -0.1021  0.0801 -0.3543
  804MOL0     C 8461  10.387   4.694   5.807 -0.2077 -0.3469 -0.3456
  804MOL0     C 8462  10.296   4.639   5.893  0.9423  0.3108  0.2871
  804MOL0     O 8463  10.172   4.620   5.837  0.7771 -0.6657 -0.2136
  804MOL0     C 8464  10.063   4.551   5.916  0.0565 -0.4642 -0.6419
  804MOL0     C 8465   9.939   4.558   5.828  0.0679 -0.2021  1.0953
  804MOL0     C 8466   9.828   4.455   5.885  0.2082  0.1282  0.5105
  804MOL0     C 8467   9.710   4.441   5.794 -0.1781  0.9230 -0.4271
  804MOL0     C 8468   9.611   4.547   5.802  0.6193  0.1057  0.1348
  804MOL0     C 8469   9.526   4.638   5.808  1.3852  0.3254 -0.5795
  804MOL0     C 8470  10.339   4.582   6.012 -0.3350  0.6311 -0.5455
  804MOL0     C 8471  10.478   4.575   6.044  0.3948  0.8935 -0.9646
  804MOL0     C 8472  10.514   4.511   6.178 -0.5170  0.0547 -1.1232
  804MOL0     H 8473  10.952   4.742   5.679 -1.0677  3.2025 -0.5141
  804MOL0     H 8474  11.186   4.814   5.690 -0.6942 -2.3733  0.7214
  804MOL0     H 8475  11.383   4.669   5.828  2.7570 -1.7667  1.5508
  804MOL0     H 8476  11.471   4.809   5.771 -0.0184  1.8461  0.1152
  804MOL0     H 8477  11.589   4.674   5.939  0.8068 -0.0632  1.1194
  804MOL0     H 8478  11.451   4.697   6.060 -3.1042  3.2446 -0.0936
  804MOL0     H 8479  11.567   4.948   5.969  2.1669 -1.5489 -2.9545
  804MOL0     H 8480  11.702   4.856   6.027  1.1909 -0.4319  0.7592
  804MOL0     H 8481  11.594   4.997   6.209  1.4808  0.6757 -3.0447
  804MOL0     H 8482  11.443   4.919   6.188  0.5020  1.6900  0.4761
  804MOL0     H 8483  11.546   4.807   6.374 -0.4120 -2.3292 -0.0600
  804MOL0     H 8484  11.536   4.698   6.240 -0.0216  0.4298 -0.8215
  804MOL0     H 8485  11.786   4.717   6.197  0.3526 -0.8168  1.1728
  804MOL0     H 8486  11.789   4.856   6.304 -1.9138  0.5734 -2.1802
  804MOL0     H 8487  11.727   4.556   6.359  1.3143 -1.1463  2.0046
  804MOL0     H 8488  11.699   4.673   6.482 -1.1065  3.4693 -1.7117
  804MOL0     H 8489  11.958   4.746   6.454 -1.6196  0.0358  0.3352
  804MOL0     H 8490  11.938   4.594   6.525  3.0132  0.0040 -0.3389
  804MOL0     H 8491  12.157   4.500   6.474 -0.1537 -0.6913 -0.8152
  804MOL0     H 8492  12.344   4.343   6.334  0.9769 -0.8126 -1.1078
  804MOL0     H 8493  12.247   4.277   6.198  1.4471  0.1067 -0.6334
  804MOL0     H 8494  12.346   4.449   6.041  1.4806 -0.1963 -0.6241
  804MOL0     H 8495  12.431   4.494   6.194  0.0936 -1.2548  2.0148
  804MOL0     H 8496  12.523   4.323   5.994 -1.9895  0.1695 -1.0019
  804MOL0     H 8497  12.444   4.204   6.108  0.6329 -0.5639  2.2644
  804MOL0     H 8498  12.661   4.397   6.198 -0.8998  1.3122 -0.4073
  804MOL0     H 8499  12.681   4.233   6.159 -0.0965  1.3855 -1.8310
  804MOL0     H 8500  12.539   4.294   6.592  0.0286 -0.3442 -0.6146
  804MOL0     H 8501  12.710   4.306   6.759  2.2205 -2.0359  0.9223
  804MOL0     H 8502  13.135   4.136   6.880  0.4772 -1.1290  0.4287
  804MOL0     H 8503  13.333   4.097   7.001 -0.1392  1.1042  1.1114
  804MOL0     H 8504  13.500   4.267   7.164  0.7772  0.7813  0.2612
  804MOL0     H 8505  13.512   4.092   7.104  1.4101 -0.3536 -1.4116
  804MOL0     H 8506  13.653   4.174   7.300  4.4241  1.3833  1.1155
  804MOL0     H 8507  13.728   4.072   7.172  0.7716  0.1484 -0.4020
  804MOL0     H 8508  13.828   4.285   7.078 -0.6221  2.1728 -0.0601
  804MOL0     H 8509  13.737   4.382   7.183 -1.3873 -1.5533  2.0697
  804MOL0     H 8510  13.945   4.174   7.263  0.5136 -0.7206  0.8133
  804MOL0     H 8511  13.860   4.257   7.385 -2.3246  2.2690 -0.2699
  804MOL0     H 8512  14.042   4.391   7.389 -0.0190  2.2713  0.5152
  804MOL0     H 8513  13.942   4.485   7.290 -1.2685 -1.6386  0.4332
  804MOL0     H 8514  14.066   4.423   7.083  0.9177  0.1136  0.3120
  804MOL0     H 8515  14.171   4.472   7.214 -0.8312  1.3052 -0.0858
  804MOL0     H 8516  14.129   4.173   7.151 -2.5529  1.6485 -1.0451
  804MOL0     H 8517  14.247   4.245   7.259 -1.7767  1.9107  1.9610
  804MOL0     H 8518  14.333   4.186   6.998  3.1785  0.0670  1.8475
  804MOL0     H 8519  14.234   4.314   6.954 -0.6956  4.8021  3.1084
  804MOL0     H 8520  13.529   4.431   6.800 -0.8447  1.3782  0.1988
  804MOL0     H 8521  13.340   4.472   6.685 -0.9591 -0.8604 -0.8695
  804MOL0     H 8522  13.014   4.312   6.456  1.3511  2.2358  1.8289
  804MOL0     H 8523  12.840   4.283   6.285 -1.7549 -0.2683 -0.4547
  804MOL0     H 8524  11.165   4.843   6.113 -2.5926  0.1707  1.5394
  804MOL0     H 8525  10.927   4.789   6.108 -1.0610  3.1455 -0.0528
  804MOL0     H 8526  10.580   4.744   5.757 -0.3284 -0.8635 -1.0908
  804MOL0     H 8527  10.345   4.741   5.719  1.3286  1.4238 -0.1837
  804MOL0     H 8528  10.041   4.580   6.019 -0.5166  0.4709 -1.0237
  804MOL0     H 8529  10.090   4.445   5.921  1.7672 -0.1605 -2.4666
  804MOL0     H 8530   9.966   4.550   5.722 -2.6527  2.0862  0.1063
  804MOL0     H 8531   9.910   4.663   5.823  0.3508 -0.1619 -0.3023
  804MOL0     H 8532   9.793   4.478   5.986  4.8067  1.7675  1.9676
  804MOL0     H 8533   9.883   4.361   5.889  1.7122  0.9776  0.4264
  804MOL0     H 8534   9.747   4.441   5.691 -1.0294  0.0138 -0.7474
  804MOL0     H 8535   9.659   4.345   5.802  1.4325 -0.0502 -1.3702
  804MOL0     H 8536   9.450   4.713   5.817  1.0625 -0.0468 -0.2004
  804MOL0     H 8537  10.275   4.520   6.075  0.9111 -4.4529 -3.6332
  804MOL0     H 8538  10.567   4.418   6.153  0.5183 -0.1814  1.6225
  804MOL0     H 8539  10.578   4.567   6.246 -2.4818  0.0028  0.8793
  804MOL0     H 8540  10.430   4.470   6.236  1.7944 -0.7946  1.8958
  805MOL0     O 8541   7.904   1.146   2.615 -0.4266  0.0296 -0.2607
  805MOL0     C 8542   7.931   1.118   2.731 -0.3730  0.0545 -0.7626
  805MOL0     O 8543   8.047   1.147   2.794 -0.5018  0.4035  0.9480
  805MOL0     C 8544   8.154   1.209   2.726  0.5009 -0.1775  0.1709
  805MOL0     C 8545   8.240   1.282   2.805 -0.4654  0.2321  0.0482
  805MOL0     C 8546   8.361   1.338   2.748  0.6399  0.1809 -0.3408
  805MOL0     C 8547   8.383   1.335   2.613  0.3434  0.8705  0.8984
  805MOL0     O 8548   8.483   1.410   2.553 -0.3523 -0.2685 -0.7217
  805MOL0     C 8549   8.539   1.529   2.621 -0.1379  0.5703  0.4129
  805MOL0     C 8550   8.626   1.602   2.521 -0.5562 -0.0189 -0.1816
  805MOL0     C 8551   8.698   1.720   2.603  0.6680  0.2616  0.0206
  805MOL0     C 8552   8.598   1.834   2.623 -1.5027 -0.6251 -0.5236
  805MOL0     C 8553   8.668   1.958   2.690 -0.2938 -0.2257  0.2290
  805MOL0     C 8554   8.782   2.019   2.618 -1.3782  0.7317  1.1432
  805MOL0     C 8555   8.859   2.117   2.708  0.3097 -0.3524 -0.7425
  805MOL0     C 8556   8.983   2.182   2.638  0.6323  0.5645 -0.3569
  805MOL0     N 8557   9.080   2.075   2.598  0.2587 -0.1448  0.5825
  805MOL0     C 8558   9.152   1.991   2.675 -0.3036 -1.2450 -0.2936
  805MOL0     C 8559   9.220   1.911   2.586 -0.4846  0.3378  0.1363
  805MOL0     C 8560   9.306   1.792   2.622 -0.3059  0.8726  0.7991
  805MOL0     C 8561   9.227   1.689   2.702 -0.0424  0.2170 -0.2935
  805MOL0     C 8562   9.147   1.595   2.613 -0.3861  0.2734 -0.0109
  805MOL0     C 8563   9.084   1.475   2.684 -0.7270 -0.0525 -0.1879
  805MOL0     O 8564   9.020   1.505   2.806 -0.0687  0.1591  0.3480
  805MOL0     C 8565   8.929   1.425   2.862  0.3275  0.9603  0.9574
  805MOL0     C 8566   8.949   1.399   2.999  0.4482  0.2879  0.1737
  805MOL0     C 8567   8.866   1.318   3.067 -0.4566  0.5408 -0.4676
  805MOL0     C 8568   8.755   1.258   3.001 -0.5712  0.4931 -0.2790
  805MOL0     C 8569   8.661   1.161   3.071  0.2499 -0.0722 -0.2804
  805MOL0     O 8570   8.547   1.111   3.002  0.0241 -0.6452 -0.5406
  805MOL0     C 8571   8.469   1.024   3.074 -0.4773  0.1674 -0.1637
  805MOL0     C 8572   8.488   0.887   3.048 -0.5213 -0.0579 -0.0452
  805MOL0     C 8573   8.428   0.789   3.123  0.0979 -0.3825 -0.2689
  805MOL0     C 8574   8.331   0.831   3.220 -0.2499 -0.0542 -0.0270
  805MOL0     O 8575   8.268   0.724   3.292 -0.4842 -0.8123 -0.3080
  805MOL0     C 8576   8.178   0.750   3.398 -0.1399  0.9895  0.9182
  805MOL0     C 8577   8.119   0.632   3.477  0.1812 -0.0331  0.0525
  805MOL0     C 8578   8.044   0.533   3.383  0.0157  0.9979  0.3165
  805MOL0     C 8579   7.912   0.572   3.322 -0.5588 -0.3552  0.0515
  805MOL0     C 8580   7.816   0.606   3.433 -0.3069 -0.9445  0.4807
  805MOL0     C 8581   7.674   0.646   3.386  0.0707 -0.9766 -0.6971
  805MOL0     C 8582   7.578   0.681   3.502 -0.2855  0.0857  0.0061
  805MOL0     C 8583   7.463   0.774   3.457 -0.8725 -0.3078 -0.8640
  805MOL0    Cl 8584   7.358   0.800   3.604 -0.3391 -0.2317 -0.3107
  805MOL0     C 8585   8.302   0.969   3.234 -1.1264 -0.0398 -1.0926
  805MOL0     C 8586   8.375   1.069   3.166  0.3496 -0.0158  0.0980
  805MOL0     O 8587   8.679   1.149   3.191 -0.2946 -0.0552  0.2785
  805MOL0     C 8588   8.741   1.283   2.859 -0.3342  0.2397  0.5515
  805MOL0     C 8589   8.827   1.365   2.787 -0.1468 -0.3716  0.0470
  805MOL0     N 8590   9.192   1.942   2.462 -0.0493 -0.2333  0.4968
  805MOL0     N 8591   9.102   2.038   2.466 -0.7834 -0.5617 -0.1377
  805MOL0     C 8592   8.291   1.271   2.522 -0.2946  0.0033 -0.8817
  805MOL0     C 8593   8.182   1.202   2.583  0.3365 -0.1190 -0.6102
  805MOL0     C 8594   7.825   1.053   2.815  0.1632  0.7159  0.1847
  805MOL0     C 8595   7.688   1.075   2.778  0.2917  0.0517  0.4454
  805MOL0     C 8596   7.579   1.030   2.858 -1.1085  0.2477 -0.3761
  805MOL0     C 8597   7.612   0.947   2.961  0.1079 -0.0873  0.0522
  805MOL0     O 8598   7.520   0.885   3.051 -0.8020 -0.7238  0.2856
  805MOL0     C 8599   7.385   0.878   3.009 -0.0893 -0.3970  0.0408
  805MOL0     C 8600   7.291   0.784   3.093 -0.0609  0.1421 -0.4298
  805MOL0     C 8601   7.141   0.794   3.041  0.0946 -0.3369  0.1597
  805MOL0     C 8602   7.050   0.692   3.107 -0.2446 -0.1641 -0.2532
  805MOL0     C 8603   6.917   0.694   3.044 -0.1737  0.4500  0.0135
  805MOL0     C 8604   6.804   0.685   3.001 -1.6159 -0.0657  0.7458
  805MOL0     C 8605   7.747   0.922   3.000 -0.2007 -0.8529 -0.1350
  805MOL0     C 8606   7.849   0.971   2.925 -0.2986  0.2466 -0.0432
  805MOL0     C 8607   7.993   0.928   2.974  1.2833 -0.7869 -1.0049
  805MOL0     H 8608   8.231   1.257   2.910 -2.0133 -0.9021 -0.3207
  805MOL0     H 8609   8.436   1.383   2.813 -1.8866  0.8094  2.3643
  805MOL0     H 8610   8.461   1.602   2.644 -1.3478 -0.5229 -0.0821
  805MOL0     H 8611   8.600   1.509   2.710 -1.3879 -1.1678  0.9440
  805MOL0     H 8612   8.567   1.649   2.441 -0.5634  0.1140 -0.0995
  805MOL0     H 8613   8.693   1.526   2.481 -0.3122 -0.8662  1.7309
  805MOL0     H 8614   8.787   1.740   2.542  1.9118 -0.2139  1.6103
  805MOL0     H 8615   8.739   1.696   2.701  0.5757 -1.0764 -0.2485
  805MOL0     H 8616   8.559   1.859   2.524 -0.2819  1.4142 -0.5448
  805MOL0     H 8617   8.524   1.799   2.695 -0.1964 -1.6100  0.4015
  805MOL0     H 8618   8.597   2.036   2.715  0.3822  0.6546 -0.5320
  805MOL0     H 8619   8.702   1.916   2.786 -0.3850 -1.7951 -0.3894
  805MOL0     H 8620   8.849   1.945   2.573 -3.2987 -1.9431  2.4304
  805MOL0     H 8621   8.727   2.075   2.541  0.5599 -0.0822 -0.9550
  805MOL0     H 8622   8.898   2.074   2.801 -2.9521  1.6011  1.7527
  805MOL0     H 8623   8.790   2.195   2.741  1.3284  0.3873 -0.2829
  805MOL0     H 8624   8.962   2.231   2.543  2.8777  1.3049 -0.5269
  805MOL0     H 8625   9.034   2.249   2.707 -0.3455 -1.2861  2.3454
  805MOL0     H 8626   9.157   1.995   2.783  0.5209  1.1110 -0.3543
  805MOL0     H 8627   9.346   1.738   2.537  1.0906  3.0366 -0.0093
  805MOL0     H 8628   9.384   1.840   2.682 -1.0431  2.4984  0.5313
  805MOL0     H 8629   9.292   1.629   2.766 -0.1353  0.0755 -0.3301
  805MOL0     H 8630   9.164   1.746   2.771  2.3460  1.3454  1.0808
  805MOL0     H 8631   9.210   1.560   2.531  2.3469 -1.2927  2.5997
  805MOL0     H 8632   9.060   1.652   2.577 -1.0878 -1.2681 -0.8249
  805MOL0     H 8633   9.159   1.398   2.704 -3.3724 -2.8006 -0.1322
  805MOL0     H 8634   9.017   1.429   2.611  0.2316 -0.0652 -1.0837
  805MOL0     H 8635   9.035   1.449   3.041 -1.0687  1.2270  2.3445
  805MOL0     H 8636   8.878   1.296   3.172 -0.1749 -3.4421 -1.1771
  805MOL0     H 8637   8.552   0.860   2.964 -1.8789 -1.0992 -0.7907
  805MOL0     H 8638   8.429   0.683   3.100 -1.6222 -0.1749 -1.4765
  805MOL0     H 8639   8.228   0.816   3.469  0.0322  0.7152  1.0556
  805MOL0     H 8640   8.103   0.806   3.342  0.4788  0.1034 -0.9055
  805MOL0     H 8641   8.200   0.587   3.535 -0.2722  0.8699  1.4504
  805MOL0     H 8642   8.057   0.676   3.556 -1.2594  0.2297 -1.1718
  805MOL0     H 8643   8.105   0.515   3.294 -0.4652  2.1006 -0.2508
  805MOL0     H 8644   8.030   0.441   3.440 -1.3107  0.3973 -0.9319
  805MOL0     H 8645   7.883   0.497   3.248  0.6166  0.2819 -1.0877
  805MOL0     H 8646   7.921   0.663   3.263 -0.8429  0.5070  1.3050
  805MOL0     H 8647   7.846   0.693   3.493  0.7046 -0.3925 -0.7742
  805MOL0     H 8648   7.814   0.525   3.506 -0.9577  2.1412  4.1915
  805MOL0     H 8649   7.683   0.735   3.323  2.3437 -1.6441 -1.3961
  805MOL0     H 8650   7.637   0.572   3.314 -1.4066  2.2177 -3.4960
  805MOL0     H 8651   7.646   0.728   3.573 -0.4750  0.6440 -0.1761
  805MOL0     H 8652   7.547   0.586   3.546  1.4329 -1.1330 -1.2765
  805MOL0     H 8653   7.500   0.868   3.416  1.3514 -0.8262 -0.1898
  805MOL0     H 8654   7.412   0.733   3.370  2.2833 -1.2411 -2.4498
  805MOL0     H 8655   8.223   1.007   3.298 -0.4244 -0.4569  0.0656
  805MOL0     H 8656   8.360   1.174   3.189  2.6785 -0.3130  3.8151
  805MOL0     H 8657   8.666   1.238   2.794  0.5303 -0.0074 -0.2975
  805MOL0     H 8658   8.802   1.391   2.685 -2.2922  0.0948  0.6353
  805MOL0     H 8659   8.313   1.259   2.416 -1.7671  0.2037 -1.2421
  805MOL0     H 8660   8.126   1.132   2.522 -0.0323 -1.8161  1.5341
  805MOL0     H 8661   7.653   1.131   2.691 -3.7280 -1.6155  0.7502
  805MOL0     H 8662   7.477   1.056   2.832 -1.1227 -0.8943 -1.5505
  805MOL0     H 8663   7.385   0.831   2.910 -1.8731 -1.5689  0.5586
  805MOL0     H 8664   7.336   0.976   3.009 -1.4020 -1.0411  0.6119
  805MOL0     H 8665   7.295   0.806   3.200 -1.9562  0.7603 -0.4461
  805MOL0     H 8666   7.328   0.683   3.077  1.7729  0.8913 -1.1807
  805MOL0     H 8667   7.145   0.773   2.934 -0.6409 -1.0714  0.2699
  805MOL0     H 8668   7.105   0.897   3.051  0.9829 -0.0096  0.0389
  805MOL0     H 8669   7.098   0.593   3.101  0.9485  0.3220  0.7663
  805MOL0     H 8670   7.037   0.724   3.211 -3.0247 -0.3932 -0.4583
  805MOL0     H 8671   6.708   0.699   2.956 -0.7464  1.9024 -0.6785
  805MOL0     H 8672   7.766   0.869   3.092 -3.6590  0.1620  1.3243
  805MOL0     H 8673   8.051   1.015   3.005  0.1289  0.2643 -1.6676
  805MOL0     H 8674   7.999   0.854   3.054  0.2740 -2.4220 -2.3670
  805MOL0     H 8675   8.045   0.874   2.895 -0.3890 -1.5739 -1.6273
  806MOL0     O 8676   2.132   0.354  10.268  1.0468 -0.3307 -0.4272
  806MOL0     C 8677   2.242   0.330  10.225 -0.2117 -0.6651 -0.1507
  806MOL0     O 8678   2.279   0.219  10.157 -0.1728 -0.3932  1.0253
  806MOL0     C 8679   2.190   0.125  10.126  0.5241 -1.0562  0.2631
  806MOL0     C 8680   2.203  -0.008  10.167 -0.0997  0.0993 -0.6391
  806MOL0     C 8681   2.106  -0.104  10.155 -0.1718  0.6400 -0.8315
  806MOL0     C 8682   1.987  -0.064  10.087  0.2812  0.8979 -0.5960
  806MOL0     O 8683   1.882  -0.154  10.086 -0.1664  0.6441 -0.0020
  806MOL0     C 8684   1.764  -0.124  10.000 -0.1274 -0.4114 -0.5132
  806MOL0     C 8685   1.654  -0.040  10.077 -0.8566  0.8607  0.0286
  806MOL0     C 8686   1.601  -0.113  10.195  0.3452  0.6901  0.1271
  806MOL0     C 8687   1.476  -0.047  10.259 -0.3373 -0.2512 -0.9809
  806MOL0     C 8688   1.400  -0.133  10.368  0.4474 -0.7138  0.4175
  806MOL0     C 8689   1.254  -0.075  10.382  0.4683  1.4304 -0.2176
  806MOL0     C 8690   1.172  -0.127  10.498  0.1480  0.0452  0.3367
  806MOL0     C 8691   1.123  -0.269  10.476 -0.1810  0.6533  0.2127
  806MOL0     N 8692   1.227  -0.368  10.498  0.0385 -0.5028  0.1380
  806MOL0     C 8693   1.285  -0.447  10.404  0.5293 -0.0034 -0.0431
  806MOL0     C 8694   1.380  -0.522  10.469  0.3569  0.0201 -0.4767
  806MOL0     C 8695   1.463  -0.631  10.406 -0.1229  0.3614 -0.3031
  806MOL0     C 8696   1.601  -0.582  10.363  0.0511 -0.4040 -0.4439
  806MOL0     C 8697   1.606  -0.484  10.251  0.3188  0.7399 -0.1041
  806MOL0     C 8698   1.746  -0.453  10.193 -0.4433  0.2325  0.7752
  806MOL0     O 8699   1.797  -0.570  10.125 -0.4401  0.7507  0.0104
  806MOL0     C 8700   1.925  -0.576  10.071 -0.4713  0.0018 -0.7816
  806MOL0     C 8701   2.021  -0.473  10.095 -0.6732  0.0375  0.2752
  806MOL0     C 8702   2.149  -0.480  10.045 -1.2806 -0.0567 -0.1521
  806MOL0     C 8703   2.197  -0.601   9.976 -0.2915  0.1660 -0.4685
  806MOL0     C 8704   2.338  -0.618   9.930  0.6537 -1.1154 -0.1921
  806MOL0     O 8705   2.442  -0.526   9.954  0.4325 -0.9258 -0.2919
  806MOL0     C 8706   2.559  -0.538   9.899  0.7252  0.7100  0.6422
  806MOL0     C 8707   2.664  -0.592   9.977 -0.2384  0.1608 -0.1237
  806MOL0     C 8708   2.783  -0.631   9.915  0.3229  0.0369  0.1341
  806MOL0     C 8709   2.803  -0.615   9.775 -0.1013 -0.6771 -0.0853
  806MOL0     O 8710   2.912  -0.661   9.707 -0.2133  0.0156 -0.3592
  806MOL0     C 8711   3.023  -0.729   9.777  0.2444 -0.2067  0.2627
  806MOL0     C 8712   3.144  -0.716   9.687 -1.0309 -0.4144  0.1563
  806MOL0     C 8713   3.257  -0.816   9.737 -0.1998 -0.1929 -0.3209
  806MOL0     C 8714   3.389  -0.794   9.658  0.3061  0.3027 -0.3805
  806MOL0     C 8715   3.494  -0.895   9.715  0.7329  0.0690  0.0394
  806MOL0     C 8716   3.628  -0.858   9.664  0.2574 -0.5011  0.0002
  806MOL0     C 8717   3.721  -0.982   9.674  0.4075  0.6739  0.2882
  806MOL0     C 8718   3.867  -0.957   9.645  0.9123  0.6398 -0.8613
  806MOL0    Cl 8719   3.942  -0.922   9.812 -0.0501  0.4358 -0.0729
  806MOL0     C 8720   2.697  -0.553   9.701 -0.6453  0.5010 -0.8671
  806MOL0     C 8721   2.575  -0.522   9.759 -0.6155 -0.3282 -0.6390
  806MOL0     O 8722   2.357  -0.731   9.889 -0.5024 -0.4634 -0.0122
  806MOL0     C 8723   2.104  -0.702   9.960 -0.2585  1.0704  0.1766
  806MOL0     C 8724   1.969  -0.690   9.993  0.6300 -0.0550 -0.4351
  806MOL0     N 8725   1.381  -0.482  10.602 -0.0241 -0.2676  0.7194
  806MOL0     N 8726   1.293  -0.388  10.615  0.0512 -0.0968 -0.1136
  806MOL0     C 8727   1.975   0.065  10.030  0.7520  0.1179  0.0179
  806MOL0     C 8728   2.077   0.160  10.061  0.1498  1.1462  0.0834
  806MOL0     C 8729   2.354   0.418  10.276 -0.0531 -0.0746 -0.0844
  806MOL0     C 8730   2.479   0.382  10.246  0.3609 -0.6193  0.1564
  806MOL0     C 8731   2.596   0.449  10.282  0.0377 -0.9217  0.4609
  806MOL0     C 8732   2.583   0.563  10.360 -0.2024  0.0036  0.1209
  806MOL0     O 8733   2.709   0.609  10.391 -0.1322  0.2055  0.0334
  806MOL0     C 8734   2.724   0.740  10.445  0.9951 -0.4447 -0.1578
  806MOL0     C 8735   2.712   0.741  10.598 -0.5057 -0.1388 -0.3067
  806MOL0     C 8736   2.832   0.670  10.657 -0.0890  0.4550 -0.1128
  806MOL0     C 8737   2.833   0.651  10.810 -0.5898 -0.5671 -0.5865
  806MOL0     C 8738   2.834   0.777  10.888 -1.2293 -0.2831 -0.1344
  806MOL0     C 8739   2.837   0.875  10.950 -0.5255 -0.6957  0.9628
  806MOL0     C 8740   2.455   0.599  10.403 -0.9086 -0.0212  0.8834
  806MOL0     C 8741   2.342   0.527  10.358  0.0775  0.4603 -1.0267
  806MOL0     C 8742   2.213   0.581  10.415 -0.0633  0.5253  0.1323
  806MOL0     H 8743   2.298  -0.040  10.208  0.3723 -2.8108 -3.6172
  806MOL0     H 8744   2.114  -0.206  10.191  0.2678  0.9774  0.0635
  806MOL0     H 8745   1.789  -0.072   9.907 -3.1815  0.3533 -0.9982
  806MOL0     H 8746   1.717  -0.217   9.967 -1.4975  0.5520 -1.3979
  806MOL0     H 8747   1.576  -0.007  10.008 -2.4150  2.6349  2.4895
  806MOL0     H 8748   1.698   0.052  10.118 -0.7320  2.5688 -3.5673
  806MOL0     H 8749   1.671  -0.129  10.278 -1.4037 -2.5118  1.1292
  806MOL0     H 8750   1.573  -0.215  10.166 -0.3539  1.2446 -1.2662
  806MOL0     H 8751   1.503   0.053  10.293  0.0984 -0.7187  0.0970
  806MOL0     H 8752   1.397  -0.029  10.185  0.1601  1.9450 -1.0565
  806MOL0     H 8753   1.398  -0.234  10.325  2.0684  0.0611 -1.6059
  806MOL0     H 8754   1.464  -0.118  10.456  1.5851 -2.0097 -0.1549
  806MOL0     H 8755   1.265   0.033  10.395  0.8077  1.2025  1.8347
  806MOL0     H 8756   1.194  -0.083  10.291  0.2337  2.5902 -0.1842
  806MOL0     H 8757   1.079  -0.074  10.524 -0.3720 -1.4942  1.7823
  806MOL0     H 8758   1.233  -0.119  10.588 -1.3295  1.9369  1.2478
  806MOL0     H 8759   1.044  -0.286  10.549 -0.0225 -2.3538 -0.2109
  806MOL0     H 8760   1.066  -0.267  10.382 -1.0451  0.9453  0.7312
  806MOL0     H 8761   1.276  -0.445  10.296 -2.5980  3.5661  0.0918
  806MOL0     H 8762   1.465  -0.707  10.484 -2.7369 -0.1089 -0.6032
  806MOL0     H 8763   1.412  -0.679  10.321 -0.2963 -1.1426  0.6159
  806MOL0     H 8764   1.646  -0.529  10.447 -1.9630  2.2814 -0.9200
  806MOL0     H 8765   1.657  -0.672  10.335 -0.0454  0.2039 -2.8348
  806MOL0     H 8766   1.556  -0.390  10.275  0.9596  0.9196  0.5556
  806MOL0     H 8767   1.544  -0.531  10.173  0.0681 -0.1165  0.5930
  806MOL0     H 8768   1.817  -0.422  10.270  0.6902 -0.1471 -0.0932
  806MOL0     H 8769   1.728  -0.377  10.117 -0.2239 -1.1277 -0.6920
  806MOL0     H 8770   2.007  -0.377  10.144  0.7518  0.8677 -0.8566
  806MOL0     H 8771   2.214  -0.393  10.055 -1.1519  0.1973 -2.4765
  806MOL0     H 8772   2.651  -0.605  10.084  0.8009  1.0624  0.1289
  806MOL0     H 8773   2.864  -0.685   9.964  0.8891  2.6217  2.2903
  806MOL0     H 8774   3.056  -0.692   9.874  0.9034  0.3289 -0.1573
  806MOL0     H 8775   3.002  -0.836   9.787  2.7688 -0.9281 -1.2183
  806MOL0     H 8776   3.125  -0.739   9.582 -0.5181 -0.3188  0.0434
  806MOL0     H 8777   3.174  -0.612   9.679 -0.0192 -0.8828 -4.0444
  806MOL0     H 8778   3.272  -0.807   9.845 -2.0517  1.0517 -0.1229
  806MOL0     H 8779   3.233  -0.920   9.714  1.5911 -0.6609 -0.2405
  806MOL0     H 8780   3.419  -0.689   9.666 -0.1513  0.3102  1.7615
  806MOL0     H 8781   3.368  -0.833   9.558  0.5578 -0.1374 -0.2687
  806MOL0     H 8782   3.471  -0.998   9.685 -0.8741  0.5887 -0.6541
  806MOL0     H 8783   3.493  -0.898   9.824  0.9679 -2.6505  0.0481
  806MOL0     H 8784   3.611  -0.829   9.559 -2.5407  2.4602  1.1098
  806MOL0     H 8785   3.671  -0.779   9.726 -0.4664 -0.7375  0.8046
  806MOL0     H 8786   3.673  -1.061   9.615 -1.6451 -0.5201  3.2861
  806MOL0     H 8787   3.717  -1.021   9.776  1.5486  0.7979  0.3914
  806MOL0     H 8788   3.914  -1.049   9.608  4.0388  0.8560  2.0291
  806MOL0     H 8789   3.883  -0.870   9.581  1.1362  0.1703 -1.4520
  806MOL0     H 8790   2.714  -0.541   9.594 -2.9648  1.1128 -1.2266
  806MOL0     H 8791   2.487  -0.499   9.699 -1.9814 -3.6372 -0.1080
  806MOL0     H 8792   2.126  -0.797   9.913 -2.3135  0.5517  0.1381
  806MOL0     H 8793   1.903  -0.776   9.983 -1.8059  1.7288 -0.8511
  806MOL0     H 8794   1.888   0.098   9.974  2.2970  1.1829 -1.9286
  806MOL0     H 8795   2.067   0.266  10.043  1.6325  1.4065  0.7149
  806MOL0     H 8796   2.498   0.286  10.198  0.5800  0.1921 -1.4306
  806MOL0     H 8797   2.687   0.399  10.250 -0.3592 -1.6022  0.3607
  806MOL0     H 8798   2.648   0.811  10.408  1.9568  0.1661 -1.0098
  806MOL0     H 8799   2.818   0.782  10.409  0.0831  1.8020 -0.1075
  806MOL0     H 8800   2.619   0.705  10.643  1.8842 -1.8578  3.8812
  806MOL0     H 8801   2.712   0.844  10.634  0.0982 -0.7570  1.6015
  806MOL0     H 8802   2.922   0.725  10.629  0.3493 -0.9688 -1.6694
  806MOL0     H 8803   2.842   0.566  10.625 -0.5413  0.3937 -0.0656
  806MOL0     H 8804   2.745   0.594  10.842 -0.6328 -0.6831 -0.9070
  806MOL0     H 8805   2.921   0.591  10.832  0.7934  0.8064 -2.0761
  806MOL0     H 8806   2.838   0.967  11.005 -2.6434  0.1953 -0.3389
  806MOL0     H 8807   2.442   0.690  10.461  1.1085  2.9990 -2.9757
  806MOL0     H 8808   2.188   0.511  10.496  0.1086 -0.1744 -0.4041
  806MOL0     H 8809   2.237   0.678  10.459  0.5483  0.5301 -0.1915
  806MOL0     H 8810   2.147   0.592  10.329  0.0590  0.5404  0.0398
  807MOL0     O 8811   4.407  10.595   6.423  0.7397  0.4395 -0.2177
  807MOL0     C 8812   4.409  10.715   6.449 -0.8086  0.7327 -0.0489
  807MOL0     O 8813   4.519  10.795   6.436 -0.2338  0.0417 -0.3324
  807MOL0     C 8814   4.651  10.764   6.413  0.0500  0.1185  0.0747
  807MOL0     C 8815   4.732  10.826   6.318  0.7717 -0.1261  0.8819
  807MOL0     C 8816   4.859  10.781   6.302  1.1937  0.4257  0.4591
  807MOL0     C 8817   4.919  10.676   6.381  0.2020 -0.4667 -0.0256
  807MOL0     O 8818   5.046  10.635   6.350  0.4293  0.0187 -0.0721
  807MOL0     C 8819   5.115  10.547   6.439  0.6401 -0.5861  0.2600
  807MOL0     C 8820   5.263  10.565   6.389 -0.2900  0.0344  0.3759
  807MOL0     C 8821   5.304  10.449   6.288 -0.8359 -0.2690 -0.3818
  807MOL0     C 8822   5.459  10.457   6.269  0.1399 -0.2444 -0.4881
  807MOL0     C 8823   5.519  10.334   6.198  0.0566 -0.3964 -0.2698
  807MOL0     C 8824   5.673  10.323   6.206 -0.2245 -0.0515 -0.6482
  807MOL0     C 8825   5.740  10.223   6.118  0.2283  0.8926  0.2669
  807MOL0     C 8826   5.881  10.176   6.155  0.1607 -0.0780  0.4651
  807MOL0     N 8827   5.977  10.290   6.154  0.0588  0.1316  0.9052
  807MOL0     C 8828   6.058  10.347   6.052  0.5596 -0.0228  0.7046
  807MOL0     C 8829   6.154  10.418   6.112 -0.0379 -0.2924  1.1034
  807MOL0     C 8830   6.257  10.497   6.042 -0.0230  0.2924 -0.1475
  807MOL0     C 8831   6.332  10.442   5.917  0.6280  0.5897  0.6447
  807MOL0     C 8832   6.389  10.304   5.942 -0.3430 -1.3499 -0.0000
  807MOL0     C 8833   6.519  10.297   6.027 -0.0048 -0.3262  0.8213
  807MOL0     O 8834   6.548  10.159   6.041 -0.1054 -0.2103  0.1751
  807MOL0     C 8835   6.679  10.120   6.046 -0.1232 -0.6133  0.0666
  807MOL0     C 8836   6.780  10.204   6.091  0.7006  0.2430  0.5329
  807MOL0     C 8837   6.913  10.157   6.065  0.0879 -0.0266 -0.1979
  807MOL0     C 8838   6.940  10.025   6.022  0.5121 -0.1011  0.5991
  807MOL0     C 8839   7.079   9.978   6.018  0.3034  0.2728 -0.8531
  807MOL0     O 8840   7.150  10.025   6.129 -0.3821  0.1111  0.1607
  807MOL0     C 8841   7.280   9.978   6.144 -1.4174  0.1467  0.1669
  807MOL0     C 8842   7.380  10.079   6.155 -0.4309 -0.9012  0.2364
  807MOL0     C 8843   7.514  10.047   6.169  0.0354 -0.2939 -0.2298
  807MOL0     C 8844   7.559   9.911   6.172  0.6000 -0.3882  0.1739
  807MOL0     O 8845   7.688   9.876   6.174  0.2506 -0.4351 -0.0797
  807MOL0     C 8846   7.760   9.946   6.277  0.2588 -0.1229 -0.0805
  807MOL0     C 8847   7.903   9.905   6.270  0.2794  0.0360 -0.0517
  807MOL0     C 8848   7.922   9.760   6.304  0.6365  0.2534  0.5272
  807MOL0     C 8849   8.041   9.699   6.234 -0.0284 -0.8175  0.4461
  807MOL0     C 8850   8.041   9.699   6.076  0.1194 -0.8803 -0.3502
  807MOL0     C 8851   8.163   9.623   6.022 -0.3843 -0.4534  0.3806
  807MOL0     C 8852   8.149   9.580   5.873  0.4659 -0.4947 -0.0327
  807MOL0     C 8853   8.180   9.681   5.762 -0.1486  0.7594 -0.4500
  807MOL0    Cl 8854   8.358   9.703   5.756  0.0059  0.1093  0.2207
  807MOL0     C 8855   7.463   9.810   6.157 -0.1436 -0.1421  0.5918
  807MOL0     C 8856   7.325   9.844   6.160 -0.4142 -0.3991  0.5473
  807MOL0     O 8857   7.122   9.903   5.934 -0.7876 -0.1976 -0.2722
  807MOL0     C 8858   6.833   9.938   5.998 -0.3509 -0.1218 -0.8544
  807MOL0     C 8859   6.702   9.984   6.003 -1.4312  0.0417 -0.8589
  807MOL0     N 8860   6.117  10.422   6.245  0.1100 -0.2198 -0.0661
  807MOL0     N 8861   6.020  10.341   6.269  0.0781 -0.1053 -0.1096
  807MOL0     C 8862   4.834  10.620   6.477  0.5113  0.5283  0.1686
  807MOL0     C 8863   4.708  10.669   6.493  0.2045 -0.1715  0.2927
  807MOL0     C 8864   4.286  10.795   6.493 -0.1921  0.2516  0.6694
  807MOL0     C 8865   4.300  10.916   6.557  0.2990 -0.1717  0.1349
  807MOL0     C 8866   4.189  10.985   6.606  0.0299 -0.7844  0.5918
  807MOL0     C 8867   4.064  10.948   6.584  0.2618  0.6765 -0.5703
  807MOL0     O 8868   3.961  11.028   6.633  0.0954 -0.2751  0.7985
  807MOL0     C 8869   3.829  10.987   6.604  0.3140  0.1843  0.3055
  807MOL0     C 8870   3.726  11.066   6.677  0.3146 -0.5702  0.4418
  807MOL0     C 8871   3.588  11.007   6.657 -0.7563 -0.0874  0.2106
  807MOL0     C 8872   3.468  11.114   6.664 -0.0025 -0.1481 -0.0781
  807MOL0     C 8873   3.346  11.048   6.684  1.0032  0.0589  0.3343
  807MOL0     C 8874   3.231  11.013   6.711  0.2048  0.8000  0.9521
  807MOL0     C 8875   4.050  10.837   6.499  0.3504 -0.2366 -0.1819
  807MOL0     C 8876   4.158  10.763   6.454  0.0348  0.3029  0.6659
  807MOL0     C 8877   4.126  10.647   6.359  0.3340 -0.5367  0.0450
  807MOL0     H 8878   4.688  10.895   6.248  0.9534 -0.1322  0.7617
  807MOL0     H 8879   4.923  10.820   6.223 -0.1830 -0.3272 -1.0961
  807MOL0     H 8880   5.090  10.578   6.541 -3.5415 -1.1749 -0.3963
  807MOL0     H 8881   5.083  10.444   6.421  0.6068 -0.4201 -0.7250
  807MOL0     H 8882   5.327  10.559   6.477  2.0751 -1.0024 -1.2994
  807MOL0     H 8883   5.274  10.662   6.339  1.3941 -1.4230 -2.3741
  807MOL0     H 8884   5.253  10.458   6.192 -2.4656  0.0276  0.4681
  807MOL0     H 8885   5.291  10.347   6.326  1.8672 -1.5258 -2.5095
  807MOL0     H 8886   5.488  10.540   6.204  2.7523 -0.8778 -0.2664
  807MOL0     H 8887   5.506  10.486   6.363 -0.1509  1.9550 -0.9666
  807MOL0     H 8888   5.470  10.243   6.233 -1.5290 -0.1015 -1.6373
  807MOL0     H 8889   5.492  10.344   6.092  1.3110 -1.1150 -0.6804
  807MOL0     H 8890   5.707  10.425   6.185 -1.4330  0.6861  0.7298
  807MOL0     H 8891   5.706  10.298   6.307  1.5256  1.3565 -0.8268
  807MOL0     H 8892   5.734  10.244   6.011 -0.5902 -1.3580 -0.1848
  807MOL0     H 8893   5.686  10.128   6.126  0.1947  0.9482  0.6834
  807MOL0     H 8894   5.868  10.141   6.258 -6.4827  0.1375  0.1300
  807MOL0     H 8895   5.922  10.101   6.087 -0.5307 -1.0989  1.1242
  807MOL0     H 8896   6.043  10.321   5.948 -1.8203 -1.9790  1.4446
  807MOL0     H 8897   6.204  10.587   6.008  1.6978  1.9154  1.2987
  807MOL0     H 8898   6.339  10.520   6.110  2.5290  0.8789 -3.1636
  807MOL0     H 8899   6.266  10.439   5.830 -0.3030 -1.6563  1.3545
  807MOL0     H 8900   6.421  10.503   5.896  1.7071 -1.0141  0.3588
  807MOL0     H 8901   6.406  10.259   5.844 -0.5990 -1.4053 -0.0218
  807MOL0     H 8902   6.312  10.246   5.995 -3.9732  2.4430 -0.5668
  807MOL0     H 8903   6.500  10.332   6.129 -4.5300  0.0148  0.0742
  807MOL0     H 8904   6.599  10.356   5.981 -2.5313  2.1019 -0.7602
  807MOL0     H 8905   6.767  10.306   6.126  3.4713  1.7421 -2.2794
  807MOL0     H 8906   6.989  10.227   6.097 -0.9927  0.6117  1.0962
  807MOL0     H 8907   7.358  10.185   6.153 -0.2228 -0.8591  0.1950
  807MOL0     H 8908   7.588  10.126   6.165  0.1056 -0.4000 -1.3588
  807MOL0     H 8909   7.761  10.054   6.261  1.4125 -0.1908 -0.5509
  807MOL0     H 8910   7.731   9.923   6.380  2.8238  0.5446  0.8595
  807MOL0     H 8911   7.936   9.934   6.170 -0.4278  2.5904  0.3760
  807MOL0     H 8912   7.975   9.960   6.331  0.4633 -0.5318  0.2514
  807MOL0     H 8913   7.926   9.745   6.412  0.0180  1.9675  0.8120
  807MOL0     H 8914   7.837   9.696   6.277 -1.4607  2.1953  2.2351
  807MOL0     H 8915   8.048   9.600   6.280 -0.7556 -1.0808 -0.0002
  807MOL0     H 8916   8.131   9.754   6.263  1.1702 -1.7331 -1.3587
  807MOL0     H 8917   8.041   9.800   6.033 -3.3924 -0.5951  0.0478
  807MOL0     H 8918   7.950   9.649   6.044  0.7223 -3.7750  2.0096
  807MOL0     H 8919   8.258   9.671   6.048  0.9842 -2.6953 -0.2075
  807MOL0     H 8920   8.168   9.526   6.072  1.1037 -1.9729 -2.4504
  807MOL0     H 8921   8.048   9.541   5.854  0.6722 -1.5338  0.9152
  807MOL0     H 8922   8.221   9.499   5.864  0.2980 -0.5659 -0.7848
  807MOL0     H 8923   8.150   9.651   5.661 -1.6971 -0.6694  0.3967
  807MOL0     H 8924   8.125   9.770   5.792 -1.1932 -0.4642  1.4431
  807MOL0     H 8925   7.491   9.706   6.153  2.1055  0.4553 -1.5503
  807MOL0     H 8926   7.249   9.766   6.155 -3.9184  2.7321  0.6030
  807MOL0     H 8927   6.852   9.834   5.973  1.7215  0.5495 -2.3030
  807MOL0     H 8928   6.609   9.930   5.982 -1.4773 -0.5081  0.6482
  807MOL0     H 8929   4.878  10.546   6.542  1.2253  0.1648 -0.6939
  807MOL0     H 8930   4.642  10.640   6.574  0.0843  0.6060  0.4845
  807MOL0     H 8931   4.399  10.952   6.585 -0.5248 -0.0011  3.1958
  807MOL0     H 8932   4.210  11.075   6.664  2.7200 -1.8263  1.3982
  807MOL0     H 8933   3.816  10.879   6.619 -0.6074  0.0251 -1.3724
  807MOL0     H 8934   3.808  10.996   6.497 -1.7479  0.2606  0.6639
  807MOL0     H 8935   3.727  11.171   6.647  1.0828 -0.3091  1.3319
  807MOL0     H 8936   3.745  11.067   6.785  0.5764 -0.8449  0.3992
  807MOL0     H 8937   3.568  10.937   6.738 -2.5387 -1.6791 -1.4841
  807MOL0     H 8938   3.573  10.957   6.560 -0.2915 -0.8127  0.5075
  807MOL0     H 8939   3.478  11.185   6.747 -1.6360  1.3311 -1.0681
  807MOL0     H 8940   3.461  11.180   6.577  2.2677 -2.3913 -2.1077
  807MOL0     H 8941   3.135  10.977   6.741 -0.5694  0.5483 -1.6138
  807MOL0     H 8942   3.951  10.810   6.466  0.5730  0.2531 -1.2852
  807MOL0     H 8943   4.205  10.630   6.286  0.4399  0.9273 -0.2149
  807MOL0     H 8944   4.127  10.556   6.419  0.3201  0.2915  1.3247
  807MOL0     H 8945   4.024  10.663   6.322  0.5874  2.2137  0.3448
  808MOL0     O 8946   5.950   1.236   6.821 -0.6729 -0.2319 -0.4708
  808MOL0     C 8947   5.949   1.245   6.702  0.5703  0.1815  0.0631
  808MOL0     O 8948   6.043   1.201   6.618  0.4567 -0.1282 -0.2983
  808MOL0     C 8949   6.157   1.144   6.663  0.2332 -0.1580 -0.6377
  808MOL0     C 8950   6.164   1.009   6.639  0.2336  0.4237  0.2179
  808MOL0     C 8951   6.275   0.937   6.675 -0.2970  0.6845  0.3373
  808MOL0     C 8952   6.388   1.002   6.729  0.2553 -0.1235  0.1501
  808MOL0     O 8953   6.502   0.938   6.773 -0.9338 -0.0818  0.3635
  808MOL0     C 8954   6.483   0.817   6.853 -0.0417 -0.0791  0.7747
  808MOL0     C 8955   6.592   0.799   6.958 -0.0714  0.4112  0.6142
  808MOL0     C 8956   6.737   0.804   6.928  0.4072  0.3534 -0.3673
  808MOL0     C 8957   6.778   0.749   6.791  0.4399 -0.6344  0.7632
  808MOL0     C 8958   6.912   0.795   6.748 -0.1798  0.1691 -0.1461
  808MOL0     C 8959   7.027   0.754   6.837 -0.3936  0.2180 -0.5823
  808MOL0     C 8960   7.158   0.803   6.774 -0.3304  0.1096 -0.4897
  808MOL0     C 8961   7.298   0.748   6.814 -0.3569  0.4419 -0.6258
  808MOL0     N 8962   7.319   0.622   6.750  0.4593  0.0312  0.2086
  808MOL0     C 8963   7.292   0.509   6.812 -0.4486  0.2991 -0.4839
  808MOL0     C 8964   7.366   0.413   6.746 -1.0624  0.5883 -0.0859
  808MOL0     C 8965   7.364   0.264   6.777 -0.6239 -0.1353  0.5148
  808MOL0     C 8966   7.499   0.214   6.824  0.0562 -0.0710  0.5451
  808MOL0     C 8967   7.504   0.067   6.790  0.1672  0.9316 -0.2576
  808MOL0     C 8968   7.603  -0.006   6.878 -0.6860 -0.3561 -0.1528
  808MOL0     O 8969   7.736   0.023   6.839  0.6684 -0.3765  0.1199
  808MOL0     C 8970   7.838  -0.026   6.925  1.1897  0.4114  0.0010
  808MOL0     C 8971   7.966   0.024   6.907 -0.3909 -0.5158 -0.0344
  808MOL0     C 8972   8.073  -0.030   6.984  0.3344  0.0927 -0.2361
  808MOL0     C 8973   8.045  -0.100   7.099  0.3094  0.2217  0.2896
  808MOL0     C 8974   8.159  -0.129   7.192  0.0971 -1.1416 -0.8648
  808MOL0     O 8975   8.281  -0.137   7.136  0.0129 -0.2740 -0.1048
  808MOL0     C 8976   8.387  -0.186   7.208 -0.7239 -0.4476  0.4650
  808MOL0     C 8977   8.517  -0.126   7.199  0.0773 -0.4439 -0.6184
  808MOL0     C 8978   8.632  -0.191   7.250 -0.0919 -0.4833 -0.9609
  808MOL0     C 8979   8.623  -0.311   7.314  0.4083 -0.6097 -0.2761
  808MOL0     O 8980   8.734  -0.359   7.376  0.6842 -0.1084  0.3329
  808MOL0     C 8981   8.741  -0.497   7.396  0.2393  0.0599 -0.2370
  808MOL0     C 8982   8.891  -0.530   7.401 -0.0988 -0.4250  0.1405
  808MOL0     C 8983   8.957  -0.441   7.509 -0.1252 -0.0633 -0.0717
  808MOL0     C 8984   9.093  -0.479   7.563  0.3683  0.5600  0.2733
  808MOL0     C 8985   9.177  -0.535   7.456 -0.6414  0.4697 -0.3479
  808MOL0     C 8986   9.324  -0.540   7.511 -0.1290  0.0649 -0.5098
  808MOL0     C 8987   9.368  -0.679   7.559  0.1153 -0.8842  0.6053
  808MOL0     C 8988   9.506  -0.672   7.625  0.2473  0.1229 -0.0409
  808MOL0    Cl 8989   9.627  -0.620   7.500 -0.1770  0.2590  0.0789
  808MOL0     C 8990   8.495  -0.376   7.320  0.1061  1.1996  0.1274
  808MOL0     C 8991   8.375  -0.318   7.260 -0.5983  0.2419  0.0503
  808MOL0     O 8992   8.123  -0.153   7.309 -0.1232  0.3892  0.6099
  808MOL0     C 8993   7.917  -0.142   7.121  0.2393  0.7284  0.7774
  808MOL0     C 8994   7.810  -0.098   7.040 -0.5176 -0.2842 -0.4996
  808MOL0     N 8995   7.437   0.476   6.643 -0.2287  0.0553 -0.0387
  808MOL0     N 8996   7.408   0.601   6.645  0.3814  0.5783 -0.5461
  808MOL0     C 8997   6.380   1.137   6.751  0.2830 -0.9062  0.8338
  808MOL0     C 8998   6.266   1.204   6.718 -0.0536  0.0939 -0.2248
  808MOL0     C 8999   5.833   1.303   6.637 -1.4120 -0.2041  0.1867
  808MOL0     C 9000   5.818   1.293   6.502  1.4193 -0.0258  0.3038
  808MOL0     C 9001   5.712   1.362   6.437  0.6781 -0.5829 -0.6427
  808MOL0     C 9002   5.620   1.447   6.507 -0.5158 -0.0127  0.2982
  808MOL0     O 9003   5.525   1.511   6.425 -0.2334 -0.4997 -0.4194
  808MOL0     C 9004   5.430   1.601   6.480 -0.4878  0.4272  0.2667
  808MOL0     C 9005   5.306   1.517   6.517  0.2423 -0.4633  1.0234
  808MOL0     C 9006   5.185   1.595   6.546 -0.2506 -0.2061  1.2206
  808MOL0     C 9007   5.059   1.509   6.567 -0.3231 -0.4700  1.0376
  808MOL0     C 9008   4.957   1.579   6.641  0.1992 -0.1676 -0.8622
  808MOL0     C 9009   4.881   1.662   6.689  0.1580  0.4503  1.0817
  808MOL0     C 9010   5.637   1.455   6.643 -0.4831 -0.4275 -0.4187
  808MOL0     C 9011   5.740   1.387   6.712 -0.6557  0.2072  0.4379
  808MOL0     C 9012   5.740   1.415   6.870 -0.0099  0.1451 -0.3367
  808MOL0     H 9013   6.082   0.964   6.583  1.8782 -1.5782 -0.7251
  808MOL0     H 9014   6.278   0.830   6.657  0.2538  0.8263 -0.4594
  808MOL0     H 9015   6.388   0.816   6.908  0.2177 -0.2105  1.2252
  808MOL0     H 9016   6.485   0.736   6.780 -0.4711  1.5329 -1.1369
  808MOL0     H 9017   6.572   0.705   7.011  1.1797  0.1600  0.6768
  808MOL0     H 9018   6.564   0.879   7.026 -0.9588  0.5944  0.0466
  808MOL0     H 9019   6.792   0.735   6.993 -0.0726  1.1031  0.8587
  808MOL0     H 9020   6.767   0.909   6.927 -0.7867  0.7559 -3.0695
  808MOL0     H 9021   6.775   0.640   6.787 -0.2575 -0.5688 -1.6166
  808MOL0     H 9022   6.706   0.791   6.721 -1.0427 -3.7093  0.2761
  808MOL0     H 9023   6.933   0.758   6.647  2.3658 -0.5731  0.6034
  808MOL0     H 9024   6.903   0.904   6.741  1.9212  0.8605  4.4191
  808MOL0     H 9025   7.019   0.791   6.940  0.1398 -0.4900 -0.2833
  808MOL0     H 9026   7.021   0.645   6.849 -1.5337  0.5236  3.0253
  808MOL0     H 9027   7.165   0.912   6.786 -3.6217  0.3906 -0.3638
  808MOL0     H 9028   7.148   0.779   6.668 -0.5029  1.6684 -0.8547
  808MOL0     H 9029   7.374   0.813   6.769  1.4429 -1.6602 -0.7683
  808MOL0     H 9030   7.307   0.746   6.923  0.2419  1.9736 -0.6186
  808MOL0     H 9031   7.220   0.500   6.893 -0.9657 -0.8437 -1.0425
  808MOL0     H 9032   7.288   0.251   6.855 -0.0619  0.5372  1.1951
  808MOL0     H 9033   7.329   0.214   6.686  1.7631  1.6397 -1.5237
  808MOL0     H 9034   7.579   0.258   6.763 -0.8920 -1.9298 -2.2428
  808MOL0     H 9035   7.515   0.230   6.931 -0.2969 -1.5401  0.8391
  808MOL0     H 9036   7.531   0.056   6.685  0.2144  3.8975 -0.6444
  808MOL0     H 9037   7.412   0.009   6.803  1.2833 -0.6696  0.9612
  808MOL0     H 9038   7.588  -0.113   6.867  2.5976 -1.0401  0.8288
  808MOL0     H 9039   7.588   0.013   6.985 -1.3105 -1.1822 -0.0825
  808MOL0     H 9040   7.995   0.084   6.822 -0.0825 -2.3933 -1.3203
  808MOL0     H 9041   8.172  -0.000   6.952  0.9812 -2.2109 -0.5815
  808MOL0     H 9042   8.519  -0.028   7.154  2.0112 -1.3164 -2.6442
  808MOL0     H 9043   8.734  -0.153   7.242 -0.8412  1.5437 -1.5467
  808MOL0     H 9044   8.689  -0.530   7.486  0.9058 -2.5187 -0.7148
  808MOL0     H 9045   8.692  -0.533   7.305  0.6570  1.8243 -1.1966
  808MOL0     H 9046   8.897  -0.632   7.438  2.2721  0.4086  2.3363
  808MOL0     H 9047   8.932  -0.521   7.300  0.2915 -3.8202 -0.0939
  808MOL0     H 9048   8.977  -0.344   7.463 -1.6000  0.2295 -0.1471
  808MOL0     H 9049   8.884  -0.428   7.590 -0.3913 -0.3906 -0.2525
  808MOL0     H 9050   9.088  -0.555   7.642  0.4464  0.8523  0.5633
  808MOL0     H 9051   9.143  -0.389   7.601  0.1683  1.1710 -0.8565
  808MOL0     H 9052   9.175  -0.452   7.384 -1.9844  0.4318 -0.3723
  808MOL0     H 9053   9.139  -0.629   7.417 -1.2101 -0.3159  1.9353
  808MOL0     H 9054   9.387  -0.522   7.423  2.2819  1.7357  1.4476
  808MOL0     H 9055   9.347  -0.462   7.584 -0.0679  0.2632 -0.7392
  808MOL0     H 9056   9.378  -0.732   7.464 -0.6028  1.3432 -0.7970
  808MOL0     H 9057   9.295  -0.723   7.628 -0.6976 -0.4864  0.0191
  808MOL0     H 9058   9.516  -0.601   7.708  0.9157 -0.6152  0.5418
  808MOL0     H 9059   9.533  -0.765   7.677  2.2882  2.0225  2.5853
  808MOL0     H 9060   8.480  -0.474   7.365  3.0249  0.3035 -0.6094
  808MOL0     H 9061   8.276  -0.363   7.265 -0.6263  0.3079  0.0663
  808MOL0     H 9062   7.892  -0.211   7.201 -0.1806  0.2954  0.2806
  808MOL0     H 9063   7.716  -0.144   7.070  0.4871 -2.6152 -0.6622
  808MOL0     H 9064   6.457   1.189   6.807 -0.6184  1.9458 -0.4194
  808MOL0     H 9065   6.249   1.309   6.740 -2.1726 -0.1135 -0.6188
  808MOL0     H 9066   5.885   1.235   6.440  2.6957  0.3025  1.3199
  808MOL0     H 9067   5.703   1.349   6.329  4.1796  2.1813 -1.4777
  808MOL0     H 9068   5.408   1.672   6.400  0.0057  0.6092  0.2853
  808MOL0     H 9069   5.463   1.660   6.566 -1.2782  0.1974  0.7365
  808MOL0     H 9070   5.327   1.459   6.607  1.2634 -1.0122  0.4617
  808MOL0     H 9071   5.283   1.448   6.435  0.5775  1.5827 -0.8817
  808MOL0     H 9072   5.162   1.657   6.459  0.0168  1.7664  2.4949
  808MOL0     H 9073   5.213   1.657   6.632  4.0179 -1.7349  1.2083
  808MOL0     H 9074   5.015   1.499   6.467  0.8840  0.2903  0.4097
  808MOL0     H 9075   5.079   1.411   6.611  0.9515 -1.0376 -0.6967
  808MOL0     H 9076   4.822   1.741   6.730 -0.0634  2.9156 -3.3444
  808MOL0     H 9077   5.568   1.523   6.691  0.3120  2.0598 -2.5780
  808MOL0     H 9078   5.786   1.509   6.900  1.6891 -0.2320 -1.5710
  808MOL0     H 9079   5.640   1.431   6.911  0.5590 -1.5726  1.9221
  808MOL0     H 9080   5.772   1.332   6.933 -3.6932  0.0443  1.6830
  809MOL0     O 9081   6.528   1.172   5.836 -0.0336  0.0876 -0.0145
  809MOL0     C 9082   6.534   1.286   5.880  0.2031  0.2550 -0.2586
  809MOL0     O 9083   6.637   1.338   5.950  0.1054 -0.7252 -0.1734
  809MOL0     C 9084   6.745   1.266   5.984 -0.1009 -0.2350  0.4586
  809MOL0     C 9085   6.847   1.359   6.003  0.0595 -0.4521 -0.0374
  809MOL0     C 9086   6.964   1.316   6.051  0.0847 -0.3144 -0.9498
  809MOL0     C 9087   7.002   1.182   6.057  0.4945 -0.0195 -0.1688
  809MOL0     O 9088   7.124   1.135   6.088 -0.2433  0.2144  0.4885
  809MOL0     C 9089   7.229   1.233   6.109  0.5501 -0.7293 -0.6431
  809MOL0     C 9090   7.371   1.174   6.131 -0.2084  0.4099  0.2488
  809MOL0     C 9091   7.483   1.275   6.133 -0.0553 -0.1517  0.3632
  809MOL0     C 9092   7.622   1.214   6.105 -0.1844  0.6088  0.0434
  809MOL0     C 9093   7.745   1.308   6.137 -0.2320  0.2424 -0.2071
  809MOL0     C 9094   7.880   1.258   6.096 -1.2837  0.7078 -0.0599
  809MOL0     C 9095   8.004   1.310   6.175  0.0294  0.6076 -0.1976
  809MOL0     C 9096   8.002   1.466   6.201 -0.6913  0.2864  0.1456
  809MOL0     N 9097   8.117   1.500   6.297 -0.2346  0.5292 -0.4205
  809MOL0     C 9098   8.253   1.506   6.267  0.0007  0.0698  0.3260
  809MOL0     C 9099   8.314   1.502   6.388  0.4903  1.0048  0.1415
  809MOL0     C 9100   8.464   1.508   6.405  0.3705  0.5278 -0.9457
  809MOL0     C 9101   8.536   1.383   6.352  0.1174 -0.4127 -0.2693
  809MOL0     C 9102   8.690   1.419   6.334  0.8634  0.1323  0.0170
  809MOL0     C 9103   8.775   1.291   6.342  0.8558  0.2708 -0.0703
  809MOL0     O 9104   8.908   1.342   6.348 -0.5041  0.1342 -0.0603
  809MOL0     C 9105   9.002   1.292   6.428 -0.0958  0.7645  0.3976
  809MOL0     C 9106   9.006   1.163   6.476  0.5531  0.1179 -0.1609
  809MOL0     C 9107   9.116   1.123   6.551 -0.2479  0.6189 -0.3831
  809MOL0     C 9108   9.222   1.206   6.600 -0.3667  0.6780 -0.7666
  809MOL0     C 9109   9.330   1.157   6.687 -0.1608  0.1348  0.8970
  809MOL0     O 9110   9.405   1.250   6.742  0.0222  0.3505 -0.6745
  809MOL0     C 9111   9.530   1.212   6.786 -0.5564 -0.6399 -0.4786
  809MOL0     C 9112   9.642   1.258   6.718 -0.3204  0.1472  0.3627
  809MOL0     C 9113   9.775   1.227   6.763  0.1543 -0.3134 -0.0485
  809MOL0     C 9114   9.795   1.153   6.881 -0.2803 -0.2624 -0.4653
  809MOL0     O 9115   9.922   1.128   6.940 -0.4461 -0.4529 -0.2646
  809MOL0     C 9116  10.029   1.138   6.853 -0.2443 -0.5000 -0.0287
  809MOL0     C 9117  10.145   1.040   6.888  0.6014  0.6746 -0.6137
  809MOL0     C 9118  10.261   1.069   6.801  0.2618  0.2002  0.5672
  809MOL0     C 9119  10.383   0.982   6.815 -0.3687  0.5006  0.2610
  809MOL0     C 9120  10.486   1.007   6.699  0.1028  0.3766 -0.0894
  809MOL0     C 9121  10.614   0.942   6.747  0.3848  0.7763  0.2668
  809MOL0     C 9122  10.703   1.059   6.787  0.7839  0.6393  0.5022
  809MOL0     C 9123  10.850   1.023   6.828  0.8541  0.3912  0.0353
  809MOL0    Cl 9124  10.929   0.972   6.677  0.3513  0.3545  0.0603
  809MOL0     C 9125   9.683   1.108   6.947 -0.3683 -0.6501  0.4124
  809MOL0     C 9126   9.555   1.133   6.900  0.0936  0.3196 -0.3037
  809MOL0     O 9127   9.353   1.033   6.672  0.2072 -0.7538 -1.0216
  809MOL0     C 9128   9.211   1.340   6.555 -0.2983  0.4035  0.6870
  809MOL0     C 9129   9.108   1.378   6.468  0.9515 -0.4904  0.6521
  809MOL0     N 9130   8.233   1.484   6.494  0.2801  0.0161 -0.1143
  809MOL0     N 9131   8.111   1.490   6.439 -0.8267  0.1688  0.9009
  809MOL0     C 9132   6.902   1.092   6.028 -0.0532 -0.7334  0.9001
  809MOL0     C 9133   6.775   1.133   5.994  1.0064  1.1990  0.2709
  809MOL0     C 9134   6.409   1.361   5.855 -0.4449  0.3132 -0.1354
  809MOL0     C 9135   6.290   1.291   5.860  0.0119 -0.0993  0.3754
  809MOL0     C 9136   6.169   1.352   5.821 -0.1086  0.5593  0.8797
  809MOL0     C 9137   6.163   1.488   5.785 -0.1801  0.0749  0.4397
  809MOL0     O 9138   6.047   1.538   5.736  0.0959  0.6121  0.1490
  809MOL0     C 9139   6.027   1.680   5.702 -0.3647  0.9729 -0.9549
  809MOL0     C 9140   5.894   1.715   5.635 -0.0070 -0.4068  0.4674
  809MOL0     C 9141   5.751   1.670   5.693 -0.0639 -0.2917 -0.0145
  809MOL0     C 9142   5.642   1.707   5.579  0.4971  0.5834 -0.6239
  809MOL0     C 9143   5.520   1.695   5.658 -0.4400 -1.0077  0.0495
  809MOL0     C 9144   5.429   1.688   5.732 -0.6419 -0.1296 -0.0090
  809MOL0     C 9145   6.291   1.557   5.791  0.6681 -0.0075 -0.2158
  809MOL0     C 9146   6.408   1.495   5.826 -0.1347  0.4271 -0.0162
  809MOL0     C 9147   6.530   1.583   5.827 -0.0751  0.1488 -1.1094
  809MOL0     H 9148   6.832   1.465   5.984  0.1495  0.1472  2.8275
  809MOL0     H 9149   7.026   1.402   6.074 -1.2785  0.3928  0.2206
  809MOL0     H 9150   7.228   1.300   6.023 -2.8764  1.1034  0.6320
  809MOL0     H 9151   7.197   1.283   6.202 -0.0246 -1.7283 -0.2888
  809MOL0     H 9152   7.392   1.103   6.050 -2.7354 -0.2455  0.0861
  809MOL0     H 9153   7.374   1.110   6.219  1.6745  0.0504 -0.0316
  809MOL0     H 9154   7.484   1.335   6.225 -2.2414 -0.0967  0.3910
  809MOL0     H 9155   7.463   1.358   6.064 -1.5418 -0.6561  0.1489
  809MOL0     H 9156   7.632   1.119   6.159 -2.5228  0.1534 -0.2517
  809MOL0     H 9157   7.629   1.188   5.999  0.8183  0.6471  0.0856
  809MOL0     H 9158   7.733   1.401   6.081 -1.0049 -0.4345 -1.2219
  809MOL0     H 9159   7.738   1.328   6.244 -1.1781  0.4201 -0.2974
  809MOL0     H 9160   7.887   1.151   6.121 -1.1387  0.6222 -0.4544
  809MOL0     H 9161   7.894   1.257   5.988  1.6411  1.2512  0.2517
  809MOL0     H 9162   8.090   1.274   6.119  0.6875  2.4459 -0.4458
  809MOL0     H 9163   8.010   1.257   6.271  4.6313 -0.5288 -0.8792
  809MOL0     H 9164   8.013   1.524   6.109  1.1743 -1.9158 -1.1349
  809MOL0     H 9165   7.913   1.498   6.255  0.6021 -0.3066  2.8123
  809MOL0     H 9166   8.296   1.518   6.168  2.5563  0.9636  1.4602
  809MOL0     H 9167   8.504   1.591   6.346  0.1570  1.0211 -0.4151
  809MOL0     H 9168   8.494   1.525   6.509  1.2421 -0.3056 -1.0404
  809MOL0     H 9169   8.520   1.299   6.421  0.6030 -0.7318 -0.5389
  809MOL0     H 9170   8.491   1.345   6.260 -3.9951 -1.8499  2.0741
  809MOL0     H 9171   8.720   1.477   6.422  0.3488 -0.7281  0.7779
  809MOL0     H 9172   8.727   1.478   6.251  0.8844  2.4239  1.5688
  809MOL0     H 9173   8.764   1.233   6.250  0.5947  0.1736  0.0216
  809MOL0     H 9174   8.759   1.232   6.433 -0.7007  0.9197  0.1162
  809MOL0     H 9175   8.954   1.072   6.447  1.2929 -1.0680  1.9680
  809MOL0     H 9176   9.117   1.016   6.568  0.1480  0.5146 -1.0179
  809MOL0     H 9177   9.632   1.310   6.623  1.3395  0.4682  0.3386
  809MOL0     H 9178   9.855   1.271   6.706 -0.4469  1.5832  0.5177
  809MOL0     H 9179  10.011   1.113   6.748  1.6150 -0.9094 -0.2893
  809MOL0     H 9180  10.073   1.238   6.855 -1.5347  0.0792  0.7315
  809MOL0     H 9181  10.181   1.046   6.991  0.1473  1.1270 -0.4824
  809MOL0     H 9182  10.116   0.935   6.877  1.4708  0.1252  1.7774
  809MOL0     H 9183  10.230   1.057   6.696 -0.3396  0.7299  0.6757
  809MOL0     H 9184  10.297   1.171   6.821  2.5906  0.5767 -4.0498
  809MOL0     H 9185  10.359   0.875   6.811 -0.8626  0.6364 -0.6989
  809MOL0     H 9186  10.426   0.996   6.915 -2.7523  1.6787  1.1907
  809MOL0     H 9187  10.504   1.112   6.673  0.2817  1.4976  3.8873
  809MOL0     H 9188  10.452   0.955   6.609  0.6666  2.5033 -1.6229
  809MOL0     H 9189  10.588   0.864   6.819 -1.1680  0.0025 -1.0521
  809MOL0     H 9190  10.660   0.900   6.657 -0.1779  1.2297 -0.2391
  809MOL0     H 9191  10.653   1.100   6.876 -1.8621  2.5286 -1.6900
  809MOL0     H 9192  10.694   1.139   6.713 -1.0697  0.1418  0.1531
  809MOL0     H 9193  10.899   1.113   6.868  0.6413  0.4696  0.1266
  809MOL0     H 9194  10.870   0.950   6.906  2.0469  0.9057  0.2304
  809MOL0     H 9195   9.675   1.048   7.036 -2.5584 -0.7958  0.1545
  809MOL0     H 9196   9.475   1.100   6.965 -0.2221  2.9520  0.7748
  809MOL0     H 9197   9.290   1.412   6.576 -1.4768  1.2560  2.4246
  809MOL0     H 9198   9.101   1.478   6.426 -1.7414 -0.8941 -0.0108
  809MOL0     H 9199   6.924   0.986   6.038  1.2545 -0.4291  1.4668
  809MOL0     H 9200   6.696   1.058   5.985 -0.7765  2.2291  4.7113
  809MOL0     H 9201   6.290   1.185   5.882 -0.6354  0.0995  1.4017
  809MOL0     H 9202   6.072   1.303   5.819 -0.4985  1.2899 -1.1962
  809MOL0     H 9203   6.105   1.695   5.627 -2.0059  0.0148 -2.9455
  809MOL0     H 9204   6.039   1.739   5.793 -1.7337 -0.2783  0.0703
  809MOL0     H 9205   5.895   1.679   5.531 -0.8041 -0.3975  0.4507
  809MOL0     H 9206   5.899   1.824   5.637 -1.6271 -0.2088 -2.0016
  809MOL0     H 9207   5.723   1.717   5.787  2.4653 -0.6715  1.0147
  809MOL0     H 9208   5.750   1.563   5.719 -2.7068 -0.6845 -1.4107
  809MOL0     H 9209   5.658   1.810   5.546  0.6583  1.5331  2.1171
  809MOL0     H 9210   5.646   1.634   5.497  0.4550 -0.2266  0.0845
  809MOL0     H 9211   5.350   1.694   5.803  0.3644  3.3421  1.0081
  809MOL0     H 9212   6.288   1.660   5.757 -6.6681  0.4617  0.2015
  809MOL0     H 9213   6.575   1.578   5.927 -0.5606 -0.3492 -0.9119
  809MOL0     H 9214   6.607   1.538   5.762 -0.4931 -3.5935  0.7211
  809MOL0     H 9215   6.511   1.687   5.797  4.7903  1.1271 -1.7262
  810MOL0     O 9216   4.572  10.854   6.793  0.8958  0.6646  0.4250
  810MOL0     C 9217   4.599  10.824   6.906 -0.1112  0.3514  0.1156
  810MOL0     O 9218   4.722  10.849   6.963  0.0448 -0.1410 -0.1716
  810MOL0     C 9219   4.834  10.884   6.896 -0.2687 -0.3400 -0.5332
  810MOL0     C 9220   4.863  10.856   6.755 -0.1392 -0.9737 -0.3424
  810MOL0     C 9221   4.996  10.879   6.707  1.0435  0.1504 -0.3027
  810MOL0     C 9222   5.092  10.940   6.787 -1.1605  0.1367  0.2885
  810MOL0     O 9223   5.214  10.964   6.719 -0.8914 -0.4080  0.6107
  810MOL0     C 9224   5.331  10.960   6.802 -0.2429  0.2366  0.2325
  810MOL0     C 9225   5.416  10.857   6.738  0.1588  0.0206 -0.5721
  810MOL0     C 9226   5.435  10.873   6.582  1.1142  0.4294 -0.2330
  810MOL0     C 9227   5.565  10.815   6.519 -0.2167  0.2659 -0.4758
  810MOL0     C 9228   5.578  10.865   6.378 -0.0646 -0.6553  0.9346
  810MOL0     C 9229   5.716  10.821   6.332 -0.1910  0.4546 -0.5449
  810MOL0     C 9230   5.760  10.822   6.188  0.2014  0.2306 -0.4343
  810MOL0     C 9231   5.878  10.726   6.148  0.0252  0.5453 -0.6003
  810MOL0     N 9232   6.006  10.761   6.221  0.2738 -0.7729  0.0014
  810MOL0     C 9233   6.032  10.707   6.342  0.7341 -0.2062 -1.0454
  810MOL0     C 9234   6.157  10.755   6.369 -1.0057  0.0537  0.4193
  810MOL0     C 9235   6.231  10.714   6.494  0.6342  0.3227 -0.6016
  810MOL0     C 9236   6.281  10.565   6.479  0.2510 -0.2715 -0.3631
  810MOL0     C 9237   6.356  10.520   6.604 -0.5328 -0.3439 -0.1728
  810MOL0     C 9238   6.430  10.389   6.578 -0.1194 -0.4270  0.7566
  810MOL0     O 9239   6.528  10.407   6.475  0.1275 -0.3920  0.1028
  810MOL0     C 9240   6.624  10.316   6.478 -0.2065  1.2038 -0.4107
  810MOL0     C 9241   6.742  10.337   6.556  0.5037  0.3605 -0.2467
  810MOL0     C 9242   6.838  10.229   6.568  0.2221 -0.5366  0.6352
  810MOL0     C 9243   6.820  10.110   6.497 -0.7665 -0.0215 -0.6263
  810MOL0     C 9244   6.936  10.007   6.498  0.5777  0.0037 -0.0728
  810MOL0     O 9245   7.046  10.024   6.579 -0.0848  0.0698 -0.6729
  810MOL0     C 9246   7.137   9.921   6.597 -0.3837 -0.6500 -0.2692
  810MOL0     C 9247   7.156   9.848   6.718 -0.5690  0.8008 -0.0610
  810MOL0     C 9248   7.250   9.752   6.727  0.2517  0.3464 -0.3760
  810MOL0     C 9249   7.344   9.733   6.627 -0.8084  0.8005 -0.4312
  810MOL0     O 9250   7.440   9.644   6.654  0.2803  0.8242 -0.6677
  810MOL0     C 9251   7.563   9.652   6.587 -0.4040 -0.5763  0.4443
  810MOL0     C 9252   7.643   9.514   6.608 -0.4315 -0.5581 -0.6586
  810MOL0     C 9253   7.784   9.529   6.553  0.2460 -0.3258 -0.1341
  810MOL0     C 9254   7.863   9.404   6.599 -0.3229  1.6034 -0.4983
  810MOL0     C 9255   8.007   9.388   6.547 -1.0947 -0.8273 -0.1674
  810MOL0     C 9256   8.067   9.266   6.609 -0.9244  0.4613  0.3129
  810MOL0     C 9257   8.215   9.242   6.568 -0.8429 -0.3331  0.2581
  810MOL0     C 9258   8.251   9.274   6.422  0.3700 -0.0582  0.6354
  810MOL0    Cl 9259   8.415   9.233   6.398 -0.1536  0.1138  0.4757
  810MOL0     C 9260   7.338   9.809   6.514 -0.7986 -0.3846  0.3677
  810MOL0     C 9261   7.233   9.900   6.499 -0.0788  0.1963 -0.5999
  810MOL0     O 9262   6.912   9.910   6.422 -0.5666 -0.2314  0.2208
  810MOL0     C 9263   6.717  10.094   6.411  0.5637 -0.0804 -0.4865
  810MOL0     C 9264   6.614  10.195   6.405 -0.8856  0.8272 -0.6624
  810MOL0     N 9265   6.198  10.835   6.264  0.7319  0.1784  0.1633
  810MOL0     N 9266   6.117  10.818   6.170 -0.2431  0.5530  0.2900
  810MOL0     C 9267   5.061  10.977   6.921  0.3824  0.1892  0.2902
  810MOL0     C 9268   4.932  10.955   6.970  0.8699 -0.0640  0.4192
  810MOL0     C 9269   4.507  10.730   6.972  0.0310 -0.2753  0.2641
  810MOL0     C 9270   4.560  10.626   7.050 -0.3472  0.9287 -0.8510
  810MOL0     C 9271   4.484  10.541   7.126  0.0586 -0.0655 -0.5648
  810MOL0     C 9272   4.347  10.558   7.127 -0.3671  0.6190  0.1458
  810MOL0     O 9273   4.267  10.476   7.202 -0.3606  0.1427 -0.1624
  810MOL0     C 9274   4.263  10.346   7.144 -0.1966 -0.7746 -0.3029
  810MOL0     C 9275   4.157  10.262   7.212 -0.0521 -0.2820  0.3848
  810MOL0     C 9276   4.014  10.326   7.212 -0.4075 -1.1557 -0.2454
  810MOL0     C 9277   3.903  10.239   7.272  0.2148 -0.2956 -0.2658
  810MOL0     C 9278   3.776  10.307   7.283 -0.4009  0.4585 -0.1054
  810MOL0     C 9279   3.669  10.368   7.285 -0.3768 -0.5928  0.3383
  810MOL0     C 9280   4.292  10.662   7.063  0.1873 -0.6293 -0.8762
  810MOL0     C 9281   4.369  10.744   6.979  0.5575 -0.6756 -0.9732
  810MOL0     C 9282   4.295  10.857   6.913 -0.8330 -0.4230 -0.0319
  810MOL0     H 9283   4.783  10.830   6.687  2.0037  1.9654 -4.4187
  810MOL0     H 9284   5.013  10.852   6.603 -1.5404 -2.3622 -0.2105
  810MOL0     H 9285   5.378  11.058   6.810 -1.9024  1.0351  0.5955
  810MOL0     H 9286   5.304  10.930   6.904 -2.9672 -1.3037 -0.8523
  810MOL0     H 9287   5.367  10.760   6.753  1.7172 -0.2414  4.7869
  810MOL0     H 9288   5.513  10.854   6.787  1.2219  2.5686 -2.2862
  810MOL0     H 9289   5.437  10.979   6.556 -2.7612  0.4599 -1.1096
  810MOL0     H 9290   5.350  10.839   6.522  0.0842  0.2133  1.2911
  810MOL0     H 9291   5.648  10.854   6.578  1.2165  0.0287 -2.2461
  810MOL0     H 9292   5.556  10.709   6.542 -1.3793  0.1485 -1.3833
  810MOL0     H 9293   5.500  10.819   6.316  0.2987  0.8571 -0.7487
  810MOL0     H 9294   5.571  10.973   6.365  2.1558 -0.3513  1.8604
  810MOL0     H 9295   5.790  10.881   6.385  1.2144  1.7059 -3.6533
  810MOL0     H 9296   5.727  10.717   6.365  0.4910  0.2137 -1.4553
  810MOL0     H 9297   5.784  10.926   6.166 -0.7927  0.5602 -0.0032
  810MOL0     H 9298   5.676  10.795   6.124 -0.3143 -2.5266  1.2568
  810MOL0     H 9299   5.850  10.623   6.170 -0.0392  1.2300  3.1829
  810MOL0     H 9300   5.893  10.741   6.041  0.3559  0.5017 -0.5619
  810MOL0     H 9301   5.980  10.628   6.395 -0.5150  0.5852 -1.0512
  810MOL0     H 9302   6.310  10.784   6.523  1.2643 -0.5045 -0.3059
  810MOL0     H 9303   6.160  10.711   6.577 -0.2962 -1.1001 -1.3986
  810MOL0     H 9304   6.193  10.501   6.467  0.0921 -0.2333  0.5265
  810MOL0     H 9305   6.352  10.557   6.396  1.6200 -2.1542  0.8905
  810MOL0     H 9306   6.289  10.498   6.688  1.3150  0.1171  1.5042
  810MOL0     H 9307   6.425  10.599   6.635  0.1963 -0.7564 -0.7191
  810MOL0     H 9308   6.356  10.322   6.532  1.0092  0.4009 -2.5451
  810MOL0     H 9309   6.472  10.360   6.674  0.2346  0.1742  0.7885
  810MOL0     H 9310   6.759  10.430   6.610  1.5959  1.4146 -2.2994
  810MOL0     H 9311   6.931  10.246   6.622 -0.0103 -1.6894  1.4399
  810MOL0     H 9312   7.094   9.858   6.806 -0.7604  1.6500 -0.2808
  810MOL0     H 9313   7.253   9.704   6.825 -1.8690  1.6711  0.4165
  810MOL0     H 9314   7.560   9.653   6.477 -1.6315 -0.0952  0.4705
  810MOL0     H 9315   7.626   9.738   6.613 -1.4649  0.3286  0.0905
  810MOL0     H 9316   7.642   9.493   6.715 -0.6018 -1.0731 -0.7586
  810MOL0     H 9317   7.595   9.430   6.556  1.2063 -1.0384 -1.4632
  810MOL0     H 9318   7.785   9.523   6.444 -0.7042  0.8956 -0.2265
  810MOL0     H 9319   7.837   9.617   6.591 -0.9939 -0.4461  2.0801
  810MOL0     H 9320   7.802   9.316   6.576 -0.6469  1.4635  0.8081
  810MOL0     H 9321   7.869   9.401   6.708  0.6601 -3.0622 -0.4682
  810MOL0     H 9322   8.072   9.470   6.580  0.9102 -1.7624 -1.5933
  810MOL0     H 9323   8.018   9.379   6.439  0.6434 -0.8566 -0.0247
  810MOL0     H 9324   8.044   9.257   6.716 -0.2884 -0.6898  0.3696
  810MOL0     H 9325   8.014   9.183   6.562 -0.1331 -0.1272  0.4365
  810MOL0     H 9326   8.251   9.142   6.595  3.4096 -0.6319 -4.8143
  810MOL0     H 9327   8.271   9.314   6.628 -1.0688  0.5175 -0.5200
  810MOL0     H 9328   8.186   9.204   6.368  0.4767  0.9194 -0.8048
  810MOL0     H 9329   8.226   9.375   6.387  3.4397  1.3465  2.0809
  810MOL0     H 9330   7.408   9.795   6.432 -2.5503  0.7415 -1.3936
  810MOL0     H 9331   7.211   9.952   6.406 -3.2921  1.8450  0.9074
  810MOL0     H 9332   6.710  10.002   6.354  1.5730 -0.1510 -0.5052
  810MOL0     H 9333   6.531  10.174   6.338  0.4392 -0.0272 -2.1085
  810MOL0     H 9334   5.124  11.029   6.992 -1.4706  1.9398  0.7434
  810MOL0     H 9335   4.899  10.988   7.068 -0.1699 -0.1798  0.1295
  810MOL0     H 9336   4.666  10.602   7.057 -0.3980  0.7688 -0.6193
  810MOL0     H 9337   4.518  10.452   7.178 -3.0988 -2.4591 -2.2936
  810MOL0     H 9338   4.355  10.287   7.151 -1.3967 -2.5746  1.1462
  810MOL0     H 9339   4.254  10.354   7.036  0.5960 -0.4018 -0.3550
  810MOL0     H 9340   4.201  10.240   7.309  2.0233 -0.1903 -0.4920
  810MOL0     H 9341   4.157  10.170   7.153 -0.9500  1.4001 -2.4102
  810MOL0     H 9342   3.995  10.337   7.105  1.5539 -1.1671 -0.6209
  810MOL0     H 9343   4.016  10.427   7.253 -3.7236 -1.1433  0.1982
  810MOL0     H 9344   3.885  10.156   7.202  0.9707 -0.8428  0.1727
  810MOL0     H 9345   3.917  10.182   7.364 -4.0252  0.4004  1.0558
  810MOL0     H 9346   3.575  10.420   7.292 -0.8868 -1.4367 -0.0842
  810MOL0     H 9347   4.188  10.687   7.082 -0.1114  0.0817 -3.1035
  810MOL0     H 9348   4.190  10.864   6.944 -1.2222 -0.0814 -1.3869
  810MOL0     H 9349   4.348  10.949   6.937  0.2816 -1.3359  1.1554
  810MOL0     H 9350   4.294  10.841   6.805 -1.4491  4.2103 -0.8983
  811MOL0     O 9351   0.718   7.818   0.074 -0.1266  0.4917  0.4971
  811MOL0     C 9352   0.706   7.933   0.122  0.7529 -0.8990 -0.7873
  811MOL0     O 9353   0.812   8.019   0.122  0.2134  0.2213 -0.1141
  811MOL0     C 9354   0.935   7.982   0.078 -0.0360  0.5353 -0.2442
  811MOL0     C 9355   0.977   7.949  -0.052  0.9214 -0.3619 -1.0952
  811MOL0     C 9356   1.116   7.929  -0.079  0.4554 -0.0571 -0.5617
  811MOL0     C 9357   1.213   7.943   0.022 -0.9597  0.4344 -0.7139
  811MOL0     O 9358   1.346   7.922   0.002  0.3350 -0.0710  0.7741
  811MOL0     C 9359   1.413   8.043  -0.015  0.0683  0.0137  0.2130
  811MOL0     C 9360   1.532   8.059   0.098 -0.2382 -0.7650 -0.3810
  811MOL0     C 9361   1.662   8.005   0.050 -0.7712 -0.4107 -0.0771
  811MOL0     C 9362   1.754   8.113  -0.002 -0.1323 -0.0371  0.2833
  811MOL0     C 9363   1.890   8.056  -0.039 -0.7616  1.4538  0.1458
  811MOL0     C 9364   1.992   8.176  -0.076  0.5408  0.2356  0.3463
  811MOL0     C 9365   2.117   8.124  -0.140  0.0581 -0.0568  0.3863
  811MOL0     C 9366   2.101   8.037  -0.261 -0.5840 -0.2816 -0.9023
  811MOL0     N 9367   2.227   7.994  -0.327  0.1003 -0.3395  0.1824
  811MOL0     C 9368   2.295   7.884  -0.302 -0.2294  0.6894  0.0423
  811MOL0     C 9369   2.422   7.903  -0.359 -0.2276  0.1363 -0.5725
  811MOL0     C 9370   2.542   7.807  -0.358  0.1557  0.5568  0.5377
  811MOL0     C 9371   2.670   7.879  -0.323 -0.0378  0.4638 -1.5473
  811MOL0     C 9372   2.771   7.760  -0.314 -0.5783 -0.1949  0.7838
  811MOL0     C 9373   2.904   7.802  -0.247  0.1511  0.6537  0.1917
  811MOL0     O 9374   2.973   7.911  -0.309  0.1981 -0.1419  0.6012
  811MOL0     C 9375   3.091   7.892  -0.378  0.1962  0.1138  0.0043
  811MOL0     C 9376   3.120   7.774  -0.449 -0.2420  0.8157  0.4044
  811MOL0     C 9377   3.242   7.754  -0.509  0.0883  0.3928  0.2920
  811MOL0     C 9378   3.344   7.849  -0.506 -0.4820 -0.5622 -0.5133
  811MOL0     C 9379   3.467   7.851  -0.585  0.7422  0.1216 -1.1998
  811MOL0     O 9380   3.564   7.942  -0.554  0.9166  0.2681 -0.2975
  811MOL0     C 9381   3.695   7.930  -0.610  0.5412  0.5614  0.3543
  811MOL0     C 9382   3.721   7.987  -0.733 -0.3499  0.9809 -0.6539
  811MOL0     C 9383   3.854   7.995  -0.782 -0.3718 -0.0642  0.5397
  811MOL0     C 9384   3.956   7.965  -0.696  0.5890 -0.1560 -0.3147
  811MOL0     O 9385   4.086   7.982  -0.724 -0.7880 -0.7928  0.3489
  811MOL0     C 9386   4.125   8.016  -0.859 -0.0974 -0.0151 -0.2228
  811MOL0     C 9387   4.282   8.001  -0.848 -0.5360 -0.0918  0.7432
  811MOL0     C 9388   4.354   8.051  -0.975  0.0802  0.2169  0.6716
  811MOL0     C 9389   4.511   8.014  -0.974 -0.1544 -0.1578 -1.3323
  811MOL0     C 9390   4.543   7.861  -0.940  0.0477 -0.8014 -0.2713
  811MOL0     C 9391   4.685   7.829  -0.974 -0.8590 -0.0475  0.1329
  811MOL0     C 9392   4.724   7.868  -1.121  0.1196  0.7109  0.1159
  811MOL0     C 9393   4.826   7.767  -1.185  1.1615 -0.2443  0.6618
  811MOL0    Cl 9394   4.992   7.833  -1.144  0.6629 -0.1534 -0.0184
  811MOL0     C 9395   3.925   7.917  -0.567  0.0183  0.8590 -0.3303
  811MOL0     C 9396   3.797   7.891  -0.525 -0.1320  0.3008 -0.2198
  811MOL0     O 9397   3.495   7.743  -0.638  0.6665  0.1529 -0.4364
  811MOL0     C 9398   3.315   7.969  -0.431  0.2790  0.0220 -0.5883
  811MOL0     C 9399   3.191   7.998  -0.368  0.3841 -0.2327  0.2704
  811MOL0     N 9400   2.419   8.024  -0.421 -0.4268  1.2091  0.0853
  811MOL0     N 9401   2.294   8.065  -0.415 -0.4022 -0.3820 -1.2590
  811MOL0     C 9402   1.173   7.972   0.157 -0.0886  0.0979  0.3006
  811MOL0     C 9403   1.035   7.991   0.176  0.3865  0.9639  0.2734
  811MOL0     C 9404   0.567   7.975   0.172 -0.0759 -0.3880  0.6965
  811MOL0     C 9405   0.465   7.875   0.159 -0.0948  0.9757 -0.5103
  811MOL0     C 9406   0.344   7.891   0.227 -0.2263  0.2030  0.3791
  811MOL0     C 9407   0.320   8.007   0.290  0.6379  0.2295 -0.7619
  811MOL0     O 9408   0.185   8.016   0.341 -0.6231  0.5267  0.3799
  811MOL0     C 9409   0.076   8.024   0.243 -0.7621 -0.3390 -1.3715
  811MOL0     C 9410   0.080   8.148   0.162  0.0857  0.3683  0.6640
  811MOL0     C 9411  -0.048   8.155   0.073  0.2147 -0.3364  0.3793
  811MOL0     C 9412  -0.013   8.157  -0.075 -0.1126  0.1916  0.9528
  811MOL0     C 9413   0.079   8.050  -0.110  0.1681  1.0200 -0.7748
  811MOL0     C 9414   0.138   7.950  -0.145 -0.1012  0.0619 -0.0866
  811MOL0     C 9415   0.412   8.110   0.295 -0.2293 -0.5106  0.5144
  811MOL0     C 9416   0.537   8.098   0.232 -1.0403 -0.5586 -0.5392
  811MOL0     C 9417   0.627   8.219   0.232  0.1207  0.8371 -0.8148
  811MOL0     H 9418   0.906   7.941  -0.134  1.4457  1.9879 -1.8556
  811MOL0     H 9419   1.136   7.902  -0.182  1.1941 -2.3609  0.1181
  811MOL0     H 9420   1.453   8.071  -0.114  3.2515  1.9179  1.8704
  811MOL0     H 9421   1.340   8.123   0.001 -0.5261 -0.3846 -0.3990
  811MOL0     H 9422   1.507   8.002   0.188  1.1246 -1.2304 -0.2828
  811MOL0     H 9423   1.543   8.161   0.136 -0.1927 -0.1559 -1.9419
  811MOL0     H 9424   1.642   7.919  -0.014 -1.5720 -2.5869  2.8473
  811MOL0     H 9425   1.712   7.973   0.142 -1.4755  0.5201  0.6512
  811MOL0     H 9426   1.714   8.170  -0.086  3.1797  0.3647 -1.1485
  811MOL0     H 9427   1.766   8.182   0.082 -1.3149  0.8048 -0.2142
  811MOL0     H 9428   1.927   7.994   0.043  0.8008  1.3890 -0.5860
  811MOL0     H 9429   1.875   7.983  -0.120 -0.0714  1.1495  0.2848
  811MOL0     H 9430   1.941   8.233  -0.153 -1.4137  0.2598  1.5788
  811MOL0     H 9431   2.014   8.237   0.012  3.2007 -1.2373  0.8334
  811MOL0     H 9432   2.177   8.084  -0.058 -0.4023 -1.0201  0.2654
  811MOL0     H 9433   2.171   8.212  -0.175 -2.3399  1.0958 -0.6614
  811MOL0     H 9434   2.046   7.948  -0.229 -0.3109  0.6625  2.6011
  811MOL0     H 9435   2.045   8.090  -0.339  1.0701 -0.3396 -2.1800
  811MOL0     H 9436   2.263   7.797  -0.246  0.7385  0.2190 -0.1053
  811MOL0     H 9437   2.519   7.740  -0.276 -0.8868  2.6828  2.0730
  811MOL0     H 9438   2.545   7.744  -0.447 -0.2049 -1.2197  1.7397
  811MOL0     H 9439   2.702   7.957  -0.392 -0.0575  2.9039  0.9949
  811MOL0     H 9440   2.657   7.929  -0.226 -1.8877  1.4480 -2.2673
  811MOL0     H 9441   2.780   7.732  -0.420 -0.5455 -0.4123  0.8441
  811MOL0     H 9442   2.737   7.677  -0.251  0.0270 -0.9801  0.1037
  811MOL0     H 9443   2.973   7.718  -0.235  0.3740  1.2567  5.1094
  811MOL0     H 9444   2.878   7.827  -0.144  1.7032 -1.9285  1.2944
  811MOL0     H 9445   3.053   7.689  -0.445 -0.3332  0.8833  0.3339
  811MOL0     H 9446   3.268   7.666  -0.566  0.2231  1.6813 -1.7464
  811MOL0     H 9447   3.634   8.021  -0.788 -1.3844 -1.3700 -0.5998
  811MOL0     H 9448   3.869   8.039  -0.880  1.6088  0.4290  1.0354
  811MOL0     H 9449   4.091   7.945  -0.935  0.2766  0.7907 -1.1683
  811MOL0     H 9450   4.094   8.118  -0.885  1.1185  0.8931  1.6645
  811MOL0     H 9451   4.306   8.059  -0.759  1.0626  1.8944 -0.8826
  811MOL0     H 9452   4.294   7.893  -0.835 -1.1251 -0.3280 -0.4599
  811MOL0     H 9453   4.306   8.027  -1.070 -1.3405  3.5654  0.3812
  811MOL0     H 9454   4.338   8.159  -0.967 -1.2903 -0.0050  1.3427
  811MOL0     H 9455   4.561   8.083  -0.905  0.9639 -1.9608 -0.2666
  811MOL0     H 9456   4.549   8.049  -1.070  2.2855  1.1471  0.0065
  811MOL0     H 9457   4.477   7.793  -0.994  0.6659  1.4259 -4.2482
  811MOL0     H 9458   4.530   7.845  -0.833  2.6473 -2.1932 -0.0782
  811MOL0     H 9459   4.736   7.888  -0.896 -2.1539  3.0128 -1.1599
  811MOL0     H 9460   4.692   7.722  -0.957 -0.5502 -0.1654 -0.6993
  811MOL0     H 9461   4.769   7.967  -1.125  1.3029  0.1569 -1.3663
  811MOL0     H 9462   4.629   7.862  -1.175 -0.1314  2.6364  0.2929
  811MOL0     H 9463   4.818   7.664  -1.149 -0.6982 -0.0054  1.0778
  811MOL0     H 9464   4.815   7.771  -1.294 -3.6753  0.3888  0.9452
  811MOL0     H 9465   4.006   7.897  -0.498  0.8517  2.1937 -0.8906
  811MOL0     H 9466   3.781   7.854  -0.424  0.9876 -3.2971 -1.2124
  811MOL0     H 9467   3.391   8.046  -0.418  0.6206 -0.2904 -0.7208
  811MOL0     H 9468   3.182   8.092  -0.315  0.0225  0.5558 -1.1302
  811MOL0     H 9469   1.243   7.994   0.237  0.6594 -1.3922  0.0952
  811MOL0     H 9470   1.008   8.000   0.281 -0.8081 -3.0718  0.4562
  811MOL0     H 9471   0.485   7.782   0.109  0.6405  0.2762  1.0017
  811MOL0     H 9472   0.261   7.822   0.230 -0.6324  0.4571 -2.1717
  811MOL0     H 9473  -0.006   8.035   0.315  0.8660 -0.2763  0.5922
  811MOL0     H 9474   0.056   7.930   0.192 -1.0013 -0.8860 -0.2974
  811MOL0     H 9475   0.176   8.150   0.109  0.3170 -1.0820  0.9946
  811MOL0     H 9476   0.088   8.231   0.234 -0.5546 -0.5541  1.8255
  811MOL0     H 9477  -0.117   8.236   0.098 -1.0067 -1.5353  1.0712
  811MOL0     H 9478  -0.107   8.064   0.089 -0.1865 -0.0344  0.6510
  811MOL0     H 9479  -0.105   8.171  -0.132  0.7348  3.3251  0.1653
  811MOL0     H 9480   0.053   8.243  -0.089  2.1708 -1.4187  1.3504
  811MOL0     H 9481   0.192   7.858  -0.154  0.6481  0.4076  0.8524
  811MOL0     H 9482   0.380   8.209   0.325 -1.0990  0.6053 -3.4170
  811MOL0     H 9483   0.669   8.252   0.137  1.0803  4.1134  0.6233
  811MOL0     H 9484   0.570   8.307   0.261 -0.7146  0.0034  0.1378
  811MOL0     H 9485   0.713   8.211   0.299 -0.6544 -0.2412  0.1027
  812MOL0     O 9486   9.039   6.417   5.056  0.7363  0.0469  0.8190
  812MOL0     C 9487   8.947   6.497   5.041 -0.1453 -0.0822 -0.0154
  812MOL0     O 9488   8.958   6.609   4.966 -0.0571 -0.2288  0.1462
  812MOL0     C 9489   9.077   6.639   4.918  0.2489  0.4522 -0.1409
  812MOL0     C 9490   9.107   6.656   4.782 -0.1546 -0.2368  1.1782
  812MOL0     C 9491   9.234   6.683   4.734  0.2612  0.3899 -0.2452
  812MOL0     C 9492   9.346   6.698   4.818 -0.4290 -0.2760  0.2066
  812MOL0     O 9493   9.464   6.731   4.756  0.7818 -0.1512  0.3305
  812MOL0     C 9494   9.564   6.775   4.850 -0.2306  0.0341  0.0432
  812MOL0     C 9495   9.683   6.844   4.780 -1.1351  0.2169  0.1290
  812MOL0     C 9496   9.781   6.918   4.876  1.4680  0.5242  0.0515
  812MOL0     C 9497   9.926   6.878   4.858  0.7300  0.1482  0.5480
  812MOL0     C 9498  10.027   6.948   4.938  0.0845 -0.1952 -0.2289
  812MOL0     C 9499   9.985   6.974   5.083 -0.3667  0.1732 -0.4224
  812MOL0     C 9500  10.111   7.009   5.170 -1.2300 -0.5726 -0.0752
  812MOL0     C 9501  10.192   7.126   5.107 -0.2498  0.0141 -0.1209
  812MOL0     N 9502  10.314   7.075   5.048 -0.3445 -0.3842 -0.5676
  812MOL0     C 9503  10.417   7.001   5.102  0.5062  0.1460 -0.0390
  812MOL0     C 9504  10.491   6.953   4.999 -0.9512 -0.4524  0.9710
  812MOL0     C 9505  10.611   6.869   5.022 -0.0895  0.6124  0.1909
  812MOL0     C 9506  10.735   6.954   5.041  0.5561 -0.2941 -0.0259
  812MOL0     C 9507  10.856   6.864   5.088  0.2484  0.7965  0.4800
  812MOL0     C 9508  10.914   6.788   4.971  0.5455  0.5547  0.8525
  812MOL0     O 9509  10.978   6.873   4.879  0.0038 -0.1100  1.1289
  812MOL0     C 9510  11.110   6.885   4.889 -0.1378 -0.2318  0.3625
  812MOL0     C 9511  11.194   6.848   4.997  1.2188 -0.4886  0.4019
  812MOL0     C 9512  11.331   6.870   4.995  0.0204 -0.3597  0.9045
  812MOL0     C 9513  11.391   6.939   4.886  0.3561 -0.4710  1.1916
  812MOL0     C 9514  11.530   6.963   4.878 -0.0378  0.4856 -0.1480
  812MOL0     O 9515  11.584   6.976   4.754 -0.1507 -0.0368  0.0681
  812MOL0     C 9516  11.717   6.991   4.727  0.5349 -0.0200 -0.4456
  812MOL0     C 9517  11.745   7.038   4.599  0.2546 -0.0280 -0.5067
  812MOL0     C 9518  11.880   7.059   4.555 -0.0468  0.2885  0.3275
  812MOL0     C 9519  11.985   7.024   4.637 -0.0899  0.5794  0.1887
  812MOL0     O 9520  12.104   7.068   4.585 -0.3558 -0.1129  0.4649
  812MOL0     C 9521  12.223   7.004   4.634  0.7043 -0.5538  0.0299
  812MOL0     C 9522  12.309   7.090   4.724  0.1472 -0.6007 -0.2097
  812MOL0     C 9523  12.460   7.044   4.746 -0.6201 -0.2164  0.1764
  812MOL0     C 9524  12.471   6.958   4.876 -0.3616 -0.9776 -0.6590
  812MOL0     C 9525  12.622   6.913   4.893 -0.3996  0.2867 -0.4311
  812MOL0     C 9526  12.650   6.841   5.025  0.2400  0.5298 -0.3020
  812MOL0     C 9527  12.800   6.798   5.026  0.1696  0.1749  0.0425
  812MOL0     C 9528  12.849   6.730   5.149 -0.1495 -0.5172 -0.0795
  812MOL0    Cl 9529  12.822   6.545   5.125 -0.2899  0.0402  0.4222
  812MOL0     C 9530  11.956   6.965   4.766  0.1536 -0.1265 -0.1706
  812MOL0     C 9531  11.823   6.947   4.810 -0.4354 -0.2855 -0.3227
  812MOL0     O 9532  11.599   6.965   4.980 -0.4268 -0.1580 -0.5827
  812MOL0     C 9533  11.305   6.977   4.782 -0.1736 -1.0530 -0.2997
  812MOL0     C 9534  11.169   6.959   4.783 -0.9077 -0.6496  0.7101
  812MOL0     N 9535  10.445   6.998   4.878  0.8058 -0.2774 -0.8701
  812MOL0     N 9536  10.340   7.068   4.909  0.5502 -0.5369  0.4327
  812MOL0     C 9537   9.319   6.680   4.955 -0.3370 -0.4621 -0.7667
  812MOL0     C 9538   9.186   6.655   4.998 -0.1780  0.3366 -0.2847
  812MOL0     C 9539   8.818   6.462   5.109  0.0250 -0.8981 -0.9227
  812MOL0     C 9540   8.807   6.330   5.158  0.0142 -0.1614 -0.2079
  812MOL0     C 9541   8.688   6.286   5.222  0.4695  0.0352  0.1983
  812MOL0     C 9542   8.570   6.367   5.230  0.5276 -0.4521 -0.3653
  812MOL0     O 9543   8.450   6.317   5.276 -0.7302  1.7093 -0.1188
  812MOL0     C 9544   8.332   6.401   5.275 -0.8803 -0.5256  0.4311
  812MOL0     C 9545   8.223   6.311   5.334 -1.0620  0.0169 -0.4228
  812MOL0     C 9546   8.200   6.172   5.269 -0.9584  0.2077 -0.0639
  812MOL0     C 9547   8.065   6.108   5.313  0.4662  0.1823  1.0432
  812MOL0     C 9548   7.951   6.187   5.279  0.3603  0.0648  0.5962
  812MOL0     C 9549   7.839   6.232   5.253  1.1115 -1.0380 -0.0431
  812MOL0     C 9550   8.587   6.496   5.180 -0.1166 -0.1535  0.5471
  812MOL0     C 9551   8.706   6.542   5.114  0.1629 -0.1468 -0.2739
  812MOL0     C 9552   8.708   6.686   5.062  0.3845  0.0690 -0.4414
  812MOL0     H 9553   9.026   6.642   4.711  2.6236 -4.3949 -1.6663
  812MOL0     H 9554   9.236   6.689   4.626  0.5219 -1.6996 -0.4051
  812MOL0     H 9555   9.527   6.846   4.924  0.3062 -0.1932  0.5393
  812MOL0     H 9556   9.606   6.696   4.913  2.2376 -1.6901 -3.4132
  812MOL0     H 9557   9.629   6.910   4.712 -3.5243  0.6466  2.2945
  812MOL0     H 9558   9.739   6.777   4.715 -1.0414 -2.3425  2.6596
  812MOL0     H 9559   9.736   6.891   4.973 -0.0143  2.4049 -0.0662
  812MOL0     H 9560   9.779   7.026   4.864  1.6438  0.5955  0.6268
  812MOL0     H 9561   9.929   6.771   4.880  1.8922 -0.2352 -1.2795
  812MOL0     H 9562   9.940   6.883   4.750 -1.0918 -1.8441  0.1409
  812MOL0     H 9563  10.113   6.880   4.935  0.6372  0.4475  0.6736
  812MOL0     H 9564  10.051   7.044   4.892 -3.6036  1.9896  1.8653
  812MOL0     H 9565   9.921   7.062   5.075  0.9397  0.9370 -4.0826
  812MOL0     H 9566   9.936   6.882   5.118 -0.7635  0.7112  0.4823
  812MOL0     H 9567  10.178   6.924   5.190 -0.6359 -0.3741 -1.1472
  812MOL0     H 9568  10.076   7.045   5.268  0.8218  0.8943  0.1871
  812MOL0     H 9569  10.134   7.183   5.033 -0.0150  1.6653  0.9133
  812MOL0     H 9570  10.218   7.198   5.185 -1.3910 -0.0579  0.3531
  812MOL0     H 9571  10.441   6.979   5.205  1.1891  0.3206 -0.1569
  812MOL0     H 9572  10.598   6.804   5.110 -2.0851  2.2100  1.1315
  812MOL0     H 9573  10.626   6.801   4.937 -2.3404  0.4420 -0.1154
  812MOL0     H 9574  10.769   7.004   4.950 -0.2474 -0.8309 -0.6356
  812MOL0     H 9575  10.725   7.030   5.120 -1.2059 -1.3722  0.8683
  812MOL0     H 9576  10.830   6.790   5.165 -0.6256  1.8276  1.2026
  812MOL0     H 9577  10.933   6.927   5.132  1.2765  0.7624 -1.2137
  812MOL0     H 9578  10.832   6.740   4.917  0.7055  1.5938 -0.3818
  812MOL0     H 9579  10.984   6.712   5.007  2.5415  1.4129 -0.9688
  812MOL0     H 9580  11.159   6.795   5.084 -0.5467  1.1461  0.7491
  812MOL0     H 9581  11.393   6.837   5.078  0.9769 -0.5473  0.1376
  812MOL0     H 9582  11.664   7.066   4.533 -0.6324 -0.0714  0.5337
  812MOL0     H 9583  11.903   7.096   4.455  0.1481 -1.8118 -0.4589
  812MOL0     H 9584  12.205   6.911   4.689  0.7067  0.5412  1.9695
  812MOL0     H 9585  12.281   6.970   4.547 -0.7766 -0.4484 -1.0541
  812MOL0     H 9586  12.307   7.186   4.673 -0.1141 -1.2152 -1.3881
  812MOL0     H 9587  12.246   7.103   4.813 -0.6534  2.5360 -1.1029
  812MOL0     H 9588  12.495   6.985   4.661 -1.5020  2.0296 -1.8556
  812MOL0     H 9589  12.531   7.127   4.747  2.7436 -2.7782 -1.6376
  812MOL0     H 9590  12.407   6.869   4.873 -0.2128 -1.1272  0.2917
  812MOL0     H 9591  12.429   7.024   4.953 -2.6504 -0.5746 -2.1705
  812MOL0     H 9592  12.681   7.004   4.901  0.9116 -0.7098  3.2627
  812MOL0     H 9593  12.657   6.858   4.805  1.5793 -0.8575  0.9908
  812MOL0     H 9594  12.612   6.892   5.114 -0.5066 -3.2114  1.6984
  812MOL0     H 9595  12.589   6.751   5.015  0.9611 -0.0908  0.7251
  812MOL0     H 9596  12.863   6.887   5.015  0.1207  0.0352 -1.6217
  812MOL0     H 9597  12.813   6.729   4.943 -1.4927 -1.3127  0.9370
  812MOL0     H 9598  12.956   6.752   5.152 -0.1642 -0.3480 -0.5854
  812MOL0     H 9599  12.802   6.779   5.234  1.9961  1.2711  0.1567
  812MOL0     H 9600  12.043   6.938   4.825  0.2477  2.9698  1.2987
  812MOL0     H 9601  11.808   6.893   4.903  0.2461 -0.8333 -0.5250
  812MOL0     H 9602  11.349   7.042   4.708  0.3997  0.8920  1.6282
  812MOL0     H 9603  11.105   7.002   4.707 -1.2106 -2.1238  0.1032
  812MOL0     H 9604   9.399   6.679   5.028  0.2516 -3.8529 -1.3217
  812MOL0     H 9605   9.175   6.659   5.106 -1.5592 -0.3214 -0.3756
  812MOL0     H 9606   8.890   6.262   5.170  0.6261  0.1047 -2.4226
  812MOL0     H 9607   8.682   6.184   5.258 -0.3904  0.1150  0.3125
  812MOL0     H 9608   8.317   6.428   5.170 -0.0625  1.7959  0.8318
  812MOL0     H 9609   8.349   6.497   5.326  0.5705 -0.5400  0.0168
  812MOL0     H 9610   8.134   6.367   5.306 -1.1605 -1.0540 -2.4548
  812MOL0     H 9611   8.246   6.291   5.439  2.4989 -2.2672 -1.4412
  812MOL0     H 9612   8.278   6.109   5.312  2.0775  2.8510 -1.3343
  812MOL0     H 9613   8.217   6.183   5.162 -0.1446 -0.9081 -0.0550
  812MOL0     H 9614   8.057   6.008   5.270  2.6675  0.9954 -1.4980
  812MOL0     H 9615   8.067   6.097   5.422  1.6359 -4.7576  0.7506
  812MOL0     H 9616   7.738   6.252   5.222  1.4564 -0.4965 -0.8764
  812MOL0     H 9617   8.508   6.570   5.178 -0.0622 -0.0995 -0.4620
  812MOL0     H 9618   8.785   6.744   5.115  1.2129 -1.0466 -0.3748
  812MOL0     H 9619   8.707   6.679   4.953 -2.7245 -2.1905 -0.4104
  812MOL0     H 9620   8.614   6.735   5.085  0.0083 -1.2455  1.0531
  813MOL0     O 9621  10.368   8.417  10.570 -0.4544 -0.0175 -0.4464
  813MOL0     C 9622  10.269   8.485  10.529  0.2979 -0.4360  0.2493
  813MOL0     O 9623  10.274   8.615  10.473  0.3412 -0.2906 -0.2158
  813MOL0     C 9624  10.385   8.656  10.412  0.0356 -0.1848 -0.1743
  813MOL0     C 9625  10.383   8.688  10.278  0.6625  0.6731  0.1861
  813MOL0     C 9626  10.494   8.728  10.211  0.4319  0.3793  0.4887
  813MOL0     C 9627  10.612   8.753  10.278 -0.1879 -0.7613  0.5324
  813MOL0     O 9628  10.724   8.796  10.199 -0.3251  0.9228 -0.4931
  813MOL0     C 9629  10.856   8.763  10.236 -0.4754 -0.1224  0.4136
  813MOL0     C 9630  10.959   8.824  10.140 -0.5220 -0.1516  0.0003
  813MOL0     C 9631  11.096   8.760  10.152  0.0262 -0.0542  0.5607
  813MOL0     C 9632  11.220   8.834  10.098  0.2332 -0.9023 -0.0159
  813MOL0     C 9633  11.255   8.961  10.177 -0.3396  0.1141 -0.3378
  813MOL0     C 9634  11.389   9.014  10.119  0.1628  0.3880  0.0096
  813MOL0     C 9635  11.448   9.120  10.215 -1.1351  0.0123  0.1109
  813MOL0     C 9636  11.571   9.184  10.152  0.6048  0.0696  0.0304
  813MOL0     N 9637  11.688   9.100  10.131  0.1131  0.6544  0.5841
  813MOL0     C 9638  11.777   9.064  10.235  0.1882  0.0648  0.2307
  813MOL0     C 9639  11.896   9.044  10.179 -0.3020  0.4119  0.0622
  813MOL0     C 9640  12.016   9.014  10.276  0.3210  0.8360  0.8016
  813MOL0     C 9641  12.132   9.057  10.199 -0.0249  0.0249 -0.0220
  813MOL0     C 9642  12.272   9.023  10.262 -0.1176 -0.2606  0.2393
  813MOL0     C 9643  12.299   8.872  10.278  0.2485 -0.1441 -0.1316
  813MOL0     O 9644  12.406   8.856  10.379  0.0549 -0.4880  0.2593
  813MOL0     C 9645  12.531   8.898  10.343 -0.2264 -0.7820 -0.4786
  813MOL0     C 9646  12.565   9.029  10.380 -0.5116  0.4689 -0.3688
  813MOL0     C 9647  12.689   9.087  10.340  0.4741  0.6323  0.8175
  813MOL0     C 9648  12.773   9.010  10.250 -0.0625 -0.0834 -0.4551
  813MOL0     C 9649  12.899   9.068  10.203 -1.8181  0.8891 -0.4534
  813MOL0     O 9650  12.986   8.987  10.132  0.2993 -0.0961 -0.3663
  813MOL0     C 9651  13.093   9.048  10.069 -0.0187  0.3708 -0.3929
  813MOL0     C 9652  13.093   9.069   9.930 -0.0615 -0.0394  0.7734
  813MOL0     C 9653  13.205   9.123   9.867 -0.2232 -0.2017 -0.1186
  813MOL0     C 9654  13.321   9.159   9.944  1.0931 -0.8725 -0.2198
  813MOL0     O 9655  13.416   9.226   9.874  0.4640 -0.3025  0.6885
  813MOL0     C 9656  13.551   9.220   9.924  0.4592 -0.8041  0.6987
  813MOL0     C 9657  13.630   9.276   9.803 -0.2726 -0.2434  0.0481
  813MOL0     C 9658  13.782   9.292   9.819 -0.0426 -0.5947 -0.8921
  813MOL0     C 9659  13.849   9.157   9.824  0.1483  0.2911 -0.0401
  813MOL0     C 9660  13.957   9.153   9.936  0.1830 -0.1296  0.2383
  813MOL0     C 9661  14.078   9.084   9.872 -0.2955 -0.5810  0.3887
  813MOL0     C 9662  14.186   9.043   9.955  0.7358 -0.8419  0.2824
  813MOL0     C 9663  14.144   8.982  10.087  0.9583  0.2311  0.3025
  813MOL0    Cl 9664  14.298   8.948  10.171 -0.2502 -0.0832 -0.3470
  813MOL0     C 9665  13.319   9.148  10.081 -0.1478  0.6047 -0.0832
  813MOL0     C 9666  13.208   9.096  10.140  0.3761  0.1744  0.3177
  813MOL0     O 9667  12.920   9.186  10.240 -0.2635  0.0993  0.2327
  813MOL0     C 9668  12.732   8.882  10.209 -0.6630 -0.9021 -0.4161
  813MOL0     C 9669  12.615   8.822  10.256  0.2499 -0.5991 -0.0491
  813MOL0     N 9670  11.871   9.049  10.038  0.4083  0.3854  0.2364
  813MOL0     N 9671  11.750   9.071  10.010  0.1348  0.1613 -0.4646
  813MOL0     C 9672  10.616   8.722  10.411 -0.2704  0.2524 -0.7043
  813MOL0     C 9673  10.505   8.670  10.478 -0.5244 -0.6178  0.1938
  813MOL0     C 9674  10.135   8.430  10.558 -0.0281  0.4003 -0.4149
  813MOL0     C 9675  10.030   8.506  10.516  1.2784  1.0726 -0.4482
  813MOL0     C 9676   9.902   8.468  10.551  0.1079  0.7465 -0.3443
  813MOL0     C 9677   9.878   8.366  10.632  0.3092 -0.3600 -0.3061
  813MOL0     O 9678   9.749   8.365  10.671  0.5955  0.7057 -0.1034
  813MOL0     C 9679   9.676   8.233  10.682  0.7302 -0.2505 -0.0998
  813MOL0     C 9680   9.534   8.238  10.616  0.4383 -0.9401  0.3558
  813MOL0     C 9681   9.460   8.363  10.658 -0.1707  0.1098  0.0282
  813MOL0     C 9682   9.312   8.360  10.630  0.8780 -0.0216  0.0184
  813MOL0     C 9683   9.269   8.363  10.493 -0.3218  1.2246 -0.3303
  813MOL0     C 9684   9.222   8.356  10.388  0.2343 -0.5539  0.1787
  813MOL0     C 9685   9.980   8.286  10.679 -0.3611  0.6056  0.4337
  813MOL0     C 9686  10.112   8.310  10.631  0.2730 -0.0951 -0.4842
  813MOL0     C 9687  10.212   8.220  10.682  0.6488 -0.7527  0.7440
  813MOL0     H 9688  10.284   8.691  10.234 -0.6575  3.0243  2.9681
  813MOL0     H 9689  10.470   8.750  10.108 -0.7950  1.0514  0.8890
  813MOL0     H 9690  10.875   8.786  10.341 -0.1706 -0.0651  0.3464
  813MOL0     H 9691  10.869   8.655  10.223  0.4332 -0.1367  1.3301
  813MOL0     H 9692  10.967   8.932  10.155 -1.1940  0.0243 -0.8370
  813MOL0     H 9693  10.929   8.807  10.037 -1.4021  0.3750  0.1513
  813MOL0     H 9694  11.096   8.662  10.105 -1.2651 -0.2584  0.9501
  813MOL0     H 9695  11.116   8.750  10.260 -0.6029  0.6002  0.7462
  813MOL0     H 9696  11.305   8.769  10.075  0.9689 -0.5867  1.6390
  813MOL0     H 9697  11.199   8.859   9.994  2.4637 -2.5598 -0.9422
  813MOL0     H 9698  11.179   9.038  10.154  0.8524  0.7517 -2.4649
  813MOL0     H 9699  11.263   8.938  10.283 -2.4464 -0.8689 -0.3511
  813MOL0     H 9700  11.452   8.928  10.097 -1.8837 -1.4538  0.9951
  813MOL0     H 9701  11.361   9.059  10.023  0.3114  1.1722  0.3259
  813MOL0     H 9702  11.476   9.076  10.312  0.8798  1.2239  0.1286
  813MOL0     H 9703  11.378   9.200  10.239  0.5083  1.3783  0.5346
  813MOL0     H 9704  11.545   9.226  10.054 -0.2655 -1.7471 -0.5594
  813MOL0     H 9705  11.605   9.258  10.225  2.7465 -1.5519  0.7564
  813MOL0     H 9706  11.753   9.057  10.340 -1.4274  2.6078  0.1072
  813MOL0     H 9707  11.998   9.064  10.371  2.1435  1.5199  0.8212
  813MOL0     H 9708  12.023   8.909  10.307 -0.1779  1.1029  1.8364
  813MOL0     H 9709  12.133   9.015  10.098  0.1419  1.5651 -0.6834
  813MOL0     H 9710  12.120   9.165  10.186 -0.1197  0.0026 -0.1227
  813MOL0     H 9711  12.273   9.064  10.364  1.8885  0.2317  0.0612
  813MOL0     H 9712  12.352   9.055  10.194 -1.4174 -0.3736 -1.4052
  813MOL0     H 9713  12.322   8.826  10.181  0.1809 -0.9500  0.2295
  813MOL0     H 9714  12.212   8.820  10.318  0.1209  0.2428  0.0954
  813MOL0     H 9715  12.496   9.089  10.439 -0.4623  0.7455 -0.5928
  813MOL0     H 9716  12.708   9.188  10.377 -1.2163  2.0391 -1.7934
  813MOL0     H 9717  13.001   9.045   9.876  1.2119 -2.3865 -0.5491
  813MOL0     H 9718  13.206   9.157   9.764 -3.5896 -1.0570 -0.5538
  813MOL0     H 9719  13.560   9.284  10.012  0.2695 -0.2478  0.3168
  813MOL0     H 9720  13.576   9.115   9.942  2.2784 -0.5084  0.0649
  813MOL0     H 9721  13.601   9.221   9.713 -1.7498  3.9593 -2.3009
  813MOL0     H 9722  13.603   9.380   9.781  0.1801 -0.6170 -2.6154
  813MOL0     H 9723  13.821   9.345   9.732 -0.0162  1.8639  0.5331
  813MOL0     H 9724  13.785   9.358   9.906  1.1418 -0.6288 -0.8872
  813MOL0     H 9725  13.892   9.145   9.725  3.2531  1.4536  1.0450
  813MOL0     H 9726  13.778   9.076   9.844  1.5624 -0.8269  0.6095
  813MOL0     H 9727  13.930   9.092  10.023  1.0683  0.6858  1.1208
  813MOL0     H 9728  13.991   9.246   9.983  0.4353 -0.1585  0.1129
  813MOL0     H 9729  14.032   8.995   9.829  0.1132 -0.1782 -0.9122
  813MOL0     H 9730  14.117   9.144   9.790 -1.3729  0.3345  0.5196
  813MOL0     H 9731  14.250   9.131   9.970  2.1874 -1.4788 -1.6554
  813MOL0     H 9732  14.251   8.974   9.901  0.0578 -0.7398 -0.6789
  813MOL0     H 9733  14.094   9.059  10.146  2.2863  0.8268  0.6878
  813MOL0     H 9734  14.088   8.889  10.075 -1.3139  1.4965  0.5844
  813MOL0     H 9735  13.399   9.191  10.142 -1.2103  1.2805  0.8794
  813MOL0     H 9736  13.194   9.091  10.248 -0.2661  1.9662  0.3445
  813MOL0     H 9737  12.794   8.829  10.138  0.8761  0.0309  0.1861
  813MOL0     H 9738  12.596   8.719  10.229 -2.2726 -0.8878  2.3116
  813MOL0     H 9739  10.714   8.729  10.457 -1.0611 -0.7213  1.2540
  813MOL0     H 9740  10.517   8.651  10.584 -2.6250 -1.1777  0.3695
  813MOL0     H 9741  10.037   8.598  10.459  2.6057 -0.4880 -2.9491
  813MOL0     H 9742   9.816   8.530  10.528 -0.4837 -0.0641 -0.3524
  813MOL0     H 9743   9.675   8.190  10.783  0.8483 -0.1792 -0.0673
  813MOL0     H 9744   9.735   8.161  10.624  0.3063 -0.9830  0.3675
  813MOL0     H 9745   9.481   8.147  10.648 -2.1652  0.9672  1.8605
  813MOL0     H 9746   9.538   8.225  10.508 -0.1221  1.7072 -0.0502
  813MOL0     H 9747   9.501   8.449  10.603  1.3082 -1.3053 -1.1647
  813MOL0     H 9748   9.452   8.366  10.767 -2.2941 -1.0983 -0.0461
  813MOL0     H 9749   9.282   8.267  10.680  0.6496 -0.1100 -0.2818
  813MOL0     H 9750   9.250   8.438  10.676  0.2211 -0.8915  0.6432
  813MOL0     H 9751   9.174   8.335  10.295 -1.8192 -0.0227  1.0394
  813MOL0     H 9752   9.956   8.199  10.738  2.1127  0.5099  1.4159
  813MOL0     H 9753  10.276   8.277  10.749 -0.6880  3.2491 -1.1074
  813MOL0     H 9754  10.156   8.142  10.736 -1.9477 -0.4978 -1.3988
  813MOL0     H 9755  10.270   8.173  10.602 -1.3850 -0.2416 -1.1267
  814MOL0     O 9756   8.312   6.275   3.998 -0.4270  0.4319  0.0824
  814MOL0     C 9757   8.299   6.200   3.907  0.0302  0.7977  0.9817
  814MOL0     O 9758   8.381   6.197   3.792 -0.1553 -0.2240 -0.2484
  814MOL0     C 9759   8.500   6.266   3.777 -1.0983 -0.3806  0.5777
  814MOL0     C 9760   8.523   6.310   3.643 -0.9573 -0.2978 -0.3947
  814MOL0     C 9761   8.652   6.361   3.621 -0.7298  0.2917  0.3202
  814MOL0     C 9762   8.753   6.356   3.722  0.2890  0.1791  0.6413
  814MOL0     O 9763   8.877   6.392   3.683  0.2216  0.0382  0.4776
  814MOL0     C 9764   8.912   6.528   3.722 -0.2129 -0.6161 -0.5201
  814MOL0     C 9765   9.034   6.549   3.805  0.1102 -0.4241 -0.1072
  814MOL0     C 9766   9.006   6.488   3.952  0.3141  0.7626  0.2085
  814MOL0     C 9767   9.092   6.560   4.069 -0.0561  0.4247 -0.1012
  814MOL0     C 9768   9.242   6.527   4.063 -0.1849  0.3708 -0.9183
  814MOL0     C 9769   9.314   6.564   4.190 -0.9855 -0.7331  0.0096
  814MOL0     C 9770   9.461   6.511   4.180 -0.1962 -0.7322 -0.1539
  814MOL0     C 9771   9.538   6.525   4.317  0.5756  0.5208 -0.2858
  814MOL0     N 9772   9.676   6.495   4.295  0.1051 -0.1284 -0.0466
  814MOL0     C 9773   9.755   6.385   4.340  0.8620 -0.0334  0.5620
  814MOL0     C 9774   9.875   6.404   4.287  0.7289  0.4074  0.0306
  814MOL0     C 9775   9.987   6.315   4.324 -0.3468  0.2027 -0.7166
  814MOL0     C 9776  10.119   6.334   4.249  0.6244 -0.4079 -0.6599
  814MOL0     C 9777  10.207   6.212   4.269  0.3733 -0.4534  0.2165
  814MOL0     C 9778  10.351   6.247   4.265 -0.2749  0.6673  0.7247
  814MOL0     O 9779  10.433   6.146   4.322 -0.5921 -0.3664  0.4903
  814MOL0     C 9780  10.565   6.163   4.318  0.6978  0.1288  0.3507
  814MOL0     C 9781  10.631   6.262   4.253  0.1333 -0.3494 -0.6756
  814MOL0     C 9782  10.778   6.290   4.265  0.0931  0.7252  0.6175
  814MOL0     C 9783  10.850   6.202   4.333  0.4016  0.2665  0.4012
  814MOL0     C 9784  11.000   6.212   4.331  0.5053 -0.2644 -0.9196
  814MOL0     O 9785  11.058   6.318   4.265  0.0828  0.4183 -0.0393
  814MOL0     C 9786  11.189   6.328   4.270 -0.6793  0.3212  0.6572
  814MOL0     C 9787  11.265   6.248   4.179 -0.1676 -0.6672 -0.1253
  814MOL0     C 9788  11.407   6.262   4.164  0.2181  0.3860 -0.9012
  814MOL0     C 9789  11.477   6.353   4.239 -0.3786 -0.1885 -0.1913
  814MOL0     O 9790  11.614   6.348   4.209 -0.0674  0.7117 -0.1767
  814MOL0     C 9791  11.694   6.401   4.309 -0.6130 -0.9979 -0.2429
  814MOL0     C 9792  11.842   6.359   4.298  0.2000 -0.1350  0.0924
  814MOL0     C 9793  11.849   6.203   4.287  0.2873 -0.4980 -0.3753
  814MOL0     C 9794  11.991   6.162   4.323 -0.3320 -1.0598  0.0645
  814MOL0     C 9795  12.020   6.018   4.368 -0.7448 -0.0293 -0.5755
  814MOL0     C 9796  12.175   5.994   4.376  0.2397  0.2160 -0.2194
  814MOL0     C 9797  12.191   5.855   4.432 -0.2866  0.4839  1.3288
  814MOL0     C 9798  12.331   5.835   4.477  0.4887  0.6988 -0.5312
  814MOL0    Cl 9799  12.350   5.664   4.533  0.0754  0.2412 -0.0171
  814MOL0     C 9800  11.402   6.442   4.320  0.8062  0.5825 -0.0918
  814MOL0     C 9801  11.263   6.427   4.328  0.4793  0.1914  0.2557
  814MOL0     O 9802  11.061   6.128   4.394  0.0217  0.4560  0.2253
  814MOL0     C 9803  10.786   6.084   4.388 -0.1449  0.6508 -0.5761
  814MOL0     C 9804  10.644   6.071   4.393 -0.5847 -0.0437 -0.0411
  814MOL0     N 9805   9.879   6.520   4.218 -0.5379  0.5677 -0.0923
  814MOL0     N 9806   9.762   6.579   4.227 -0.7710 -0.1389 -0.1597
  814MOL0     C 9807   8.725   6.320   3.848  0.4854 -0.5540 -0.5614
  814MOL0     C 9808   8.593   6.276   3.878 -1.1951 -0.3131 -0.4287
  814MOL0     C 9809   8.188   6.099   3.900 -1.5387 -0.3965 -0.4986
  814MOL0     C 9810   8.153   6.041   3.776  0.8080 -1.1179  0.4113
  814MOL0     C 9811   8.061   5.931   3.766  1.2300 -0.6679 -0.7864
  814MOL0     C 9812   7.996   5.887   3.887 -0.2900  0.5399  0.0529
  814MOL0     O 9813   7.908   5.783   3.878  0.3644  0.2207 -0.0449
  814MOL0     C 9814   7.834   5.742   3.987 -0.9570 -0.0614 -0.3964
  814MOL0     C 9815   7.908   5.624   4.062 -0.8000 -0.6116  0.0397
  814MOL0     C 9816   7.809   5.568   4.158  0.5347 -0.0594 -0.1932
  814MOL0     C 9817   7.688   5.481   4.102  0.4849 -0.0120 -0.0718
  814MOL0     C 9818   7.726   5.383   4.003  0.4362 -0.0277 -0.4349
  814MOL0     C 9819   7.762   5.289   3.938 -0.7467  0.0895 -1.0409
  814MOL0     C 9820   8.033   5.951   4.005  0.6124  0.6099 -0.4716
  814MOL0     C 9821   8.135   6.044   4.016  1.1772  0.3913 -0.2895
  814MOL0     C 9822   8.160   6.090   4.157  0.4723 -0.8359 -1.4410
  814MOL0     H 9823   8.440   6.305   3.574 -1.1046  1.6265 -0.4160
  814MOL0     H 9824   8.672   6.390   3.519 -0.9553 -0.2974  0.1071
  814MOL0     H 9825   8.935   6.568   3.623  0.7975 -1.8994 -0.8449
  814MOL0     H 9826   8.835   6.582   3.778  2.1040  1.4145  0.8732
  814MOL0     H 9827   9.058   6.655   3.817 -0.5025 -0.5611  3.3764
  814MOL0     H 9828   9.115   6.494   3.758 -0.1686 -1.7410  0.8906
  814MOL0     H 9829   9.024   6.380   3.943 -1.3112  0.5328 -0.6534
  814MOL0     H 9830   8.906   6.498   3.996  0.0780 -2.0830  0.5342
  814MOL0     H 9831   9.081   6.669   4.060  0.7184  0.5421  0.2976
  814MOL0     H 9832   9.053   6.534   4.167  1.7877 -2.6820 -0.0725
  814MOL0     H 9833   9.250   6.422   4.033 -2.1959 -0.0142 -0.2058
  814MOL0     H 9834   9.283   6.583   3.977  0.7521  4.8013  2.0685
  814MOL0     H 9835   9.309   6.673   4.203  0.7485 -0.4633 -1.2381
  814MOL0     H 9836   9.257   6.513   4.268 -3.5397  2.1241  0.2023
  814MOL0     H 9837   9.518   6.559   4.100 -0.0177 -1.9449 -0.7862
  814MOL0     H 9838   9.464   6.404   4.156 -0.0289 -0.4707 -1.3228
  814MOL0     H 9839   9.533   6.631   4.344  2.3794  0.3927  0.7112
  814MOL0     H 9840   9.508   6.452   4.393 -0.0882  0.3591 -0.6977
  814MOL0     H 9841   9.721   6.313   4.414  0.2551 -3.1626 -2.4511
  814MOL0     H 9842   9.990   6.328   4.433  0.8526  1.6396 -0.8854
  814MOL0     H 9843   9.956   6.211   4.320 -0.8362  0.3737 -1.6873
  814MOL0     H 9844  10.093   6.349   4.144  1.3352  2.3535 -0.5262
  814MOL0     H 9845  10.160   6.425   4.294 -0.7301 -0.1719  0.1669
  814MOL0     H 9846  10.177   6.147   4.187 -3.2604  1.4177 -0.1067
  814MOL0     H 9847  10.192   6.160   4.364  2.5571 -1.4071  0.1017
  814MOL0     H 9848  10.371   6.347   4.304  0.1449  0.3666  1.2906
  814MOL0     H 9849  10.368   6.242   4.157 -1.0812 -1.2174  0.6529
  814MOL0     H 9850  10.580   6.323   4.178 -1.6132 -2.7218 -1.5611
  814MOL0     H 9851  10.813   6.369   4.200  1.6910 -0.1586  0.3638
  814MOL0     H 9852  11.210   6.178   4.117  1.2021 -0.2048 -1.9191
  814MOL0     H 9853  11.462   6.192   4.101 -1.6829 -3.3792  1.2490
  814MOL0     H 9854  11.671   6.507   4.319 -1.3035 -1.3132  2.1535
  814MOL0     H 9855  11.658   6.349   4.398 -0.7739 -1.8192 -0.7842
  814MOL0     H 9856  11.886   6.385   4.202  2.0543 -1.0396  0.6434
  814MOL0     H 9857  11.906   6.407   4.373  2.9656 -0.8928 -1.6521
  814MOL0     H 9858  11.774   6.154   4.350 -0.9849  2.4184  0.5904
  814MOL0     H 9859  11.808   6.176   4.189  0.3878 -0.3123 -0.4688
  814MOL0     H 9860  12.039   6.234   4.389 -1.0948 -0.1921 -0.3115
  814MOL0     H 9861  12.038   6.171   4.224 -0.8081  0.9344 -0.0315
  814MOL0     H 9862  11.987   5.947   4.292 -2.6515 -0.6245  0.7430
  814MOL0     H 9863  11.970   5.988   4.461  2.7725 -3.6341  0.4259
  814MOL0     H 9864  12.219   6.003   4.277 -1.9559 -2.3319 -1.5448
  814MOL0     H 9865  12.216   6.068   4.446 -0.3564  0.3963 -0.0506
  814MOL0     H 9866  12.175   5.789   4.346  1.0826 -1.1039  2.2172
  814MOL0     H 9867  12.118   5.822   4.507 -1.1268  3.2337  1.8525
  814MOL0     H 9868  12.395   5.859   4.392 -0.8047 -1.4205 -2.2005
  814MOL0     H 9869  12.353   5.902   4.560  0.9013 -1.9743  1.6950
  814MOL0     H 9870  11.438   6.525   4.380 -2.3793 -0.4746  3.7072
  814MOL0     H 9871  11.208   6.507   4.377  1.3793  0.0904  1.4789
  814MOL0     H 9872  10.842   6.009   4.444  1.0157 -0.9189 -3.5901
  814MOL0     H 9873  10.594   5.986   4.439  3.1735 -1.6745  1.4216
  814MOL0     H 9874   8.804   6.314   3.922 -0.9884 -0.3698  1.0966
  814MOL0     H 9875   8.569   6.260   3.983  3.2862 -2.0193  0.5715
  814MOL0     H 9876   8.181   6.103   3.691 -2.3900  2.8690  1.9070
  814MOL0     H 9877   8.025   5.885   3.675 -2.3894 -0.7539  0.5067
  814MOL0     H 9878   7.743   5.714   3.934 -0.0634 -0.0851 -1.9698
  814MOL0     H 9879   7.805   5.826   4.052  0.9694 -0.5033  1.1291
  814MOL0     H 9880   7.994   5.645   4.126 -1.4979 -1.8196  1.4134
  814MOL0     H 9881   7.945   5.550   3.990  1.9578  0.1339  0.5926
  814MOL0     H 9882   7.765   5.649   4.217 -0.4081  0.5186 -1.6423
  814MOL0     H 9883   7.861   5.508   4.234  0.1374  1.3119  1.2252
  814MOL0     H 9884   7.642   5.430   4.188  0.8433  3.2341  2.2421
  814MOL0     H 9885   7.617   5.548   4.054  1.1200  0.5135 -0.2934
  814MOL0     H 9886   7.781   5.212   3.865  1.5099  0.6443 -1.1176
  814MOL0     H 9887   7.979   5.934   4.097  3.0523 -1.6683  0.6623
  814MOL0     H 9888   8.131   6.005   4.219 -1.2077  1.0424  0.5357
  814MOL0     H 9889   8.267   6.098   4.175  0.0691  1.9264  0.3327
  814MOL0     H 9890   8.105   6.177   4.195  2.3388 -0.7661  1.3059
  815MOL0     O 9891   8.224   8.903   7.335 -0.0889  0.0877 -0.1678
  815MOL0     C 9892   8.208   8.902   7.455 -0.2070  0.6974 -0.4394
  815MOL0     O 9893   8.312   8.915   7.541 -0.0495 -0.1601 -0.4249
  815MOL0     C 9894   8.450   8.897   7.511 -0.2470 -0.5385  0.0167
  815MOL0     C 9895   8.491   8.789   7.435  0.5749  0.0971 -0.2898
  815MOL0     C 9896   8.625   8.766   7.413  0.1852 -1.1365 -0.0638
  815MOL0     C 9897   8.719   8.848   7.469 -0.2857  0.2098  1.5393
  815MOL0     O 9898   8.843   8.801   7.433 -0.6496 -0.3734  0.2122
  815MOL0     C 9899   8.960   8.881   7.449 -0.7143  0.0054  0.3488
  815MOL0     C 9900   9.062   8.809   7.362 -1.1154 -0.8761  0.2511
  815MOL0     C 9901   9.205   8.890   7.359  0.9175  0.2369 -0.1705
  815MOL0     C 9902   9.281   8.877   7.491 -0.1205  0.7163 -0.0091
  815MOL0     C 9903   9.436   8.877   7.464  0.4006 -0.9414  0.0630
  815MOL0     C 9904   9.473   9.033   7.441  0.7096 -0.0375  0.0148
  815MOL0     C 9905   9.619   9.052   7.408 -0.0346  0.0847 -0.9643
  815MOL0     C 9906   9.665   9.194   7.436 -0.8664 -0.1093 -0.6805
  815MOL0     N 9907   9.798   9.219   7.388  0.3606  0.6021  0.2806
  815MOL0     C 9908   9.832   9.216   7.248 -0.3296 -0.3968 -0.2630
  815MOL0     C 9909   9.962   9.243   7.240 -0.0391 -0.2097  0.1216
  815MOL0     C 9910  10.053   9.252   7.125 -0.0954  0.0855  0.6876
  815MOL0     C 9911  10.101   9.391   7.112 -0.1523 -0.2720  0.7566
  815MOL0     C 9912  10.219   9.408   7.017  0.1199 -0.2033  0.3955
  815MOL0     C 9913  10.285   9.548   7.025 -1.2553 -1.1861 -0.9117
  815MOL0     O 9914  10.372   9.554   7.142 -0.3720 -0.1492  0.2915
  815MOL0     C 9915  10.463   9.661   7.149 -0.9191  0.5063  0.1802
  815MOL0     C 9916  10.547   9.663   7.257  0.1089  0.6932  0.4239
  815MOL0     C 9917  10.650   9.752   7.269 -0.1795 -0.6923  0.4476
  815MOL0     C 9918  10.671   9.842   7.158 -0.0229 -0.1152  0.5345
  815MOL0     C 9919  10.783   9.934   7.151 -0.4878  0.2994 -0.4389
  815MOL0     O 9920  10.840   9.972   7.272 -0.0908 -0.3509  1.2551
  815MOL0     C 9921  10.930  10.075   7.269 -0.0289  0.6911 -0.0138
  815MOL0     C 9922  11.063  10.055   7.267  0.0251  0.8904  0.1938
  815MOL0     C 9923  11.150  10.159   7.301  0.0059 -0.2336 -0.8879
  815MOL0     C 9924  11.098  10.288   7.320 -0.8509  0.6449  0.3146
  815MOL0     O 9925  11.181  10.389   7.360 -0.7713  0.3313 -0.0597
  815MOL0     C 9926  11.134  10.530   7.370 -0.9067  0.0085  0.9371
  815MOL0     C 9927  11.233  10.649   7.383 -0.2994  0.1215  0.7654
  815MOL0     C 9928  11.334  10.649   7.266 -0.2235  0.0337 -0.1406
  815MOL0     C 9929  11.274  10.706   7.142 -0.4526  0.1742 -0.5006
  815MOL0     C 9930  11.381  10.751   7.046 -0.4276  0.8995  1.0374
  815MOL0     C 9931  11.320  10.814   6.912  1.1796  0.8650  0.0002
  815MOL0     C 9932  11.442  10.863   6.835 -0.3580 -0.1573 -0.8490
  815MOL0     C 9933  11.421  10.970   6.737  0.7550  0.3950  0.7700
  815MOL0    Cl 9934  11.355  11.118   6.812 -0.3129 -0.4552 -0.1578
  815MOL0     C 9935  10.962  10.311   7.302  0.2373  0.7761 -0.5808
  815MOL0     C 9936  10.880  10.202   7.277 -0.5430  0.0419 -0.0130
  815MOL0     O 9937  10.820   9.968   7.040 -1.0629 -0.3498  0.0624
  815MOL0     C 9938  10.578   9.844   7.052  0.3386  0.0547 -0.5363
  815MOL0     C 9939  10.481   9.752   7.046 -0.0213 -0.6875  0.6621
  815MOL0     N 9940  10.004   9.256   7.372 -0.1597 -0.1874  0.5133
  815MOL0     N 9941   9.912   9.250   7.460  0.2971 -0.8589 -0.6170
  815MOL0     C 9942   8.683   8.958   7.551 -0.0565 -0.3564  1.0384
  815MOL0     C 9943   8.552   8.983   7.573  0.3513  0.3230  0.0627
  815MOL0     C 9944   8.069   8.911   7.495 -0.0054  0.6968  0.0331
  815MOL0     C 9945   8.042   8.959   7.622 -0.7124  0.7741  0.8024
  815MOL0     C 9946   7.912   8.956   7.669  0.1897 -0.0965  0.1480
  815MOL0     C 9947   7.802   8.922   7.591  0.2043  0.6763 -0.0117
  815MOL0     O 9948   7.682   8.938   7.648  0.2356 -0.1849 -0.3572
  815MOL0     C 9949   7.567   8.923   7.563  0.3002  0.0180  0.1337
  815MOL0     C 9950   7.436   8.946   7.636  0.0355 -0.2739 -0.3233
  815MOL0     C 9951   7.412   9.088   7.686 -0.1684 -0.4956 -0.7984
  815MOL0     C 9952   7.273   9.097   7.742  0.0874 -0.2357  0.4942
  815MOL0     C 9953   7.246   8.995   7.840  0.7717 -1.2329  0.4664
  815MOL0     C 9954   7.199   8.911   7.916  0.0205 -0.5498 -0.0862
  815MOL0     C 9955   7.826   8.852   7.472  0.8010 -0.1454  0.0830
  815MOL0     C 9956   7.957   8.866   7.420 -0.6756  0.0942  0.1001
  815MOL0     C 9957   7.972   8.802   7.282 -0.7704  0.4333  0.0449
  815MOL0     H 9958   8.423   8.719   7.387  1.8444 -1.1346 -0.3592
  815MOL0     H 9959   8.640   8.688   7.338  3.0674  1.5860 -2.6182
  815MOL0     H 9960   8.950   8.984   7.414  0.1946  0.0613  0.2305
  815MOL0     H 9961   8.988   8.873   7.555 -4.1272 -0.8958  1.3343
  815MOL0     H 9962   9.026   8.808   7.258 -0.5958 -0.3760  0.0599
  815MOL0     H 9963   9.084   8.708   7.398  1.6022 -0.8480 -1.0590
  815MOL0     H 9964   9.178   8.993   7.333  1.9283  0.1613 -1.6531
  815MOL0     H 9965   9.262   8.848   7.276 -0.4038  0.8007 -1.4139
  815MOL0     H 9966   9.256   8.951   7.567 -0.2172  1.0797 -0.3936
  815MOL0     H 9967   9.260   8.780   7.538  2.2009  0.1067 -0.1127
  815MOL0     H 9968   9.487   8.842   7.555  0.3767  2.7589  1.6879
  815MOL0     H 9969   9.467   8.824   7.374 -0.6498  0.0767 -0.9323
  815MOL0     H 9970   9.406   9.089   7.375 -0.1192 -1.0658 -0.0455
  815MOL0     H 9971   9.465   9.082   7.539 -0.5944 -1.2086  0.5241
  815MOL0     H 9972   9.624   9.036   7.300 -0.5874 -2.9861 -0.6291
  815MOL0     H 9973   9.673   8.970   7.455 -2.5515 -2.0877 -1.6006
  815MOL0     H 9974   9.587   9.253   7.386 -0.9315 -0.7871 -1.3954
  815MOL0     H 9975   9.667   9.211   7.544 -0.0536 -1.3999 -0.4747
  815MOL0     H 9976   9.767   9.187   7.166 -2.2937 -2.7518  1.9785
  815MOL0     H 9977  10.135   9.179   7.122  0.0615  0.2926 -1.4412
  815MOL0     H 9978   9.996   9.225   7.036  0.1804  0.5528  0.3630
  815MOL0     H 9979  10.015   9.454   7.088 -1.2196 -1.4786  1.3154
  815MOL0     H 9980  10.138   9.423   7.209  1.1789  1.2031 -0.1954
  815MOL0     H 9981  10.185   9.396   6.913  0.5600 -1.8957  0.4078
  815MOL0     H 9982  10.298   9.336   7.039  2.1075  1.7575 -0.0389
  815MOL0     H 9983  10.218   9.634   7.025 -1.5060 -1.3730 -0.3556
  815MOL0     H 9984  10.343   9.556   6.932 -1.2020  0.3557 -0.7562
  815MOL0     H 9985  10.517   9.589   7.331 -0.2549 -1.0944 -1.4223
  815MOL0     H 9986  10.719   9.736   7.351 -0.2165 -1.3214  0.3562
  815MOL0     H 9987  11.106   9.957   7.245  1.2862  1.7806 -1.5481
  815MOL0     H 9988  11.249  10.129   7.336 -1.2273 -1.7026  1.6670
  815MOL0     H 9989  11.067  10.555   7.288 -0.6999 -0.4177  0.6307
  815MOL0     H 9990  11.066  10.529   7.456 -1.6959 -0.9012  0.3187
  815MOL0     H 9991  11.180  10.744   7.382 -0.1278  0.2183  0.8401
  815MOL0     H 9992  11.287  10.635   7.477  1.4125  0.3261 -0.1566
  815MOL0     H 9993  11.424  10.708   7.288 -0.2173  0.9547 -2.3381
  815MOL0     H 9994  11.364  10.546   7.245 -2.1440 -1.3011  3.0112
  815MOL0     H 9995  11.220  10.799   7.162  0.3239  1.0017 -2.0374
  815MOL0     H 9996  11.208  10.633   7.096  0.0529 -0.2552 -0.5498
  815MOL0     H 9997  11.433  10.658   7.024 -0.4956  1.0557  0.1534
  815MOL0     H 9998  11.446  10.825   7.093 -1.3231  3.1277 -1.0154
  815MOL0     H 9999  11.259  10.748   6.849  1.0971 -0.1470  1.1133
  815MOL0     H10000  11.246  10.890   6.939  0.9223  0.9915 -1.0055
  815MOL0     H10001  11.493  10.779   6.788 -0.3841  0.0327 -1.2287
  815MOL0     H10002  11.509  10.909   6.908 -1.9035  0.1956  0.4099
  815MOL0     H10003  11.508  10.999   6.679 -0.1838  1.2321 -0.2650
  815MOL0     H10004  11.348  10.935   6.663  1.4290 -3.4152  1.6826
  815MOL0     H10005  10.911  10.405   7.322 -1.0250 -0.2724  1.4864
  815MOL0     H10006  10.771  10.202   7.268 -0.6352 -1.2858  0.8404
  815MOL0     H10007  10.592   9.908   6.965 -0.0746  0.7199 -0.1193
  815MOL0     H10008  10.414   9.754   6.960 -2.0301 -2.0340  2.1234
  815MOL0     H10009   8.761   9.012   7.604 -1.3784  2.8873 -0.1015
  815MOL0     H10010   8.506   9.063   7.630 -2.4918  2.1450 -4.2760
  815MOL0     H10011   8.125   8.986   7.687 -1.3670  0.4205  1.7929
  815MOL0     H10012   7.888   8.995   7.768 -0.5909 -3.0555  1.2400
  815MOL0     H10013   7.560   8.824   7.516 -0.8731  0.7923 -1.4006
  815MOL0     H10014   7.578   8.999   7.485  1.6794  0.9956  1.2358
  815MOL0     H10015   7.435   8.876   7.720  1.7312 -1.7682 -1.4622
  815MOL0     H10016   7.348   8.917   7.579 -0.4641 -2.6794  1.5319
  815MOL0     H10017   7.423   9.147   7.595 -0.3760  1.6087  0.4807
  815MOL0     H10018   7.483   9.113   7.765 -1.3191 -1.1463  0.4895
  815MOL0     H10019   7.262   9.195   7.789 -1.2023 -1.3298  2.6127
  815MOL0     H10020   7.205   9.079   7.659 -2.2302 -0.5586  2.3526
  815MOL0     H10021   7.166   8.836   7.986  0.1376 -1.3975 -0.9293
  815MOL0     H10022   7.743   8.798   7.430  0.1106  1.8363 -1.2401
  815MOL0     H10023   8.014   8.874   7.212  2.3274 -1.3417 -0.1149
  815MOL0     H10024   8.032   8.710   7.293 -2.4746 -0.4219  4.4252
  815MOL0     H10025   7.874   8.784   7.237  0.8386  0.5088 -3.8662
  816MOL0     O10026   7.365   2.168  10.948  0.0716  0.1538 -0.4775
  816MOL0     C10027   7.283   2.118  11.030 -0.3931  0.2168 -0.3545
  816MOL0     O10028   7.318   2.035  11.124 -0.7489  0.6092 -0.4232
  816MOL0     C10029   7.446   2.003  11.142 -0.7042  0.8910 -0.1978
  816MOL0     C10030   7.522   1.940  11.043 -0.2721  1.0913  0.2758
  816MOL0     C10031   7.653   1.896  11.065  0.3698  1.1911 -1.2489
  816MOL0     C10032   7.710   1.919  11.196  0.1108  0.0365  0.5784
  816MOL0     O10033   7.836   1.878  11.216  0.0873 -0.0475 -0.5536
  816MOL0     C10034   7.926   1.855  11.111  0.3867 -0.4953  0.0045
  816MOL0     C10035   8.059   1.885  11.176  0.4407  0.1257  0.3206
  816MOL0     C10036   8.172   1.840  11.079 -0.3373  1.1166 -0.2373
  816MOL0     C10037   8.315   1.870  11.147 -0.2724 -0.6877  0.2842
  816MOL0     C10038   8.420   1.827  11.056  0.1975  0.6226  0.6752
  816MOL0     C10039   8.548   1.883  11.108  0.4767 -0.2676 -0.7051
  816MOL0     C10040   8.675   1.824  11.056  1.0388  0.0011 -0.3384
  816MOL0     C10041   8.702   1.882  10.920 -0.3484 -1.3461 -0.0322
  816MOL0     N10042   8.837   1.849  10.870 -0.3568  0.4052 -0.3611
  816MOL0     C10043   8.858   1.718  10.841  0.3470 -0.0852  0.2947
  816MOL0     C10044   8.992   1.717  10.822 -0.1145  0.3719 -0.3028
  816MOL0     C10045   9.073   1.591  10.802 -0.7565  0.6402  0.5623
  816MOL0     C10046   9.219   1.621  10.768  0.0617  0.0622 -0.6050
  816MOL0     C10047   9.313   1.495  10.759 -0.5481  0.3162 -1.2566
  816MOL0     C10048   9.447   1.535  10.695 -0.8471 -0.0106 -0.3024
  816MOL0     O10049   9.526   1.409  10.685  0.2985 -0.4123 -0.0612
  816MOL0     C10050   9.656   1.416  10.634 -0.7175  0.1414  0.5415
  816MOL0     C10051   9.762   1.355  10.701  0.3980 -0.0822  0.5528
  816MOL0     C10052   9.899   1.369  10.668  0.5094 -0.0041  0.6230
  816MOL0     C10053   9.933   1.451  10.555 -0.5213  1.0708 -0.4435
  816MOL0     C10054  10.076   1.462  10.506 -0.0107  0.1139  0.3792
  816MOL0     O10055  10.104   1.560  10.414  0.1057  0.1879 -0.4360
  816MOL0     C10056  10.231   1.574  10.362  0.3072 -0.0092 -0.5919
  816MOL0     C10057  10.298   1.678  10.406  0.7476 -0.6583 -0.3323
  816MOL0     C10058  10.422   1.706  10.356 -0.4682  0.1419 -0.1296
  816MOL0     C10059  10.466   1.631  10.245 -0.2684 -0.5073 -0.1694
  816MOL0     O10060  10.589   1.637  10.198 -0.6725 -0.9361  0.5644
  816MOL0     C10061  10.696   1.656  10.299 -0.2312 -0.0569 -0.0463
  816MOL0     C10062  10.833   1.611  10.258  0.1445  0.0446  0.1603
  816MOL0     C10063  10.945   1.640  10.358  0.1017 -0.7671 -0.4969
  816MOL0     C10064  11.090   1.605  10.304  0.2879  1.5193 -0.1633
  816MOL0     C10065  11.210   1.704  10.367  0.4927 -0.0763  0.4657
  816MOL0     C10066  11.343   1.636  10.346  0.2855 -0.2135  0.3930
  816MOL0     C10067  11.444   1.726  10.280  0.3996 -0.0585 -0.5519
  816MOL0     C10068  11.596   1.687  10.305  0.1342  0.5586  0.0665
  816MOL0    Cl10069  11.680   1.756  10.433  0.0089 -0.0728  0.6751
  816MOL0     C10070  10.391   1.531  10.189  0.0852  0.1577 -0.0639
  816MOL0     C10071  10.270   1.502  10.254  0.7248 -0.3087  0.8105
  816MOL0     O10072  10.160   1.382  10.557 -0.1849  0.8310  0.7143
  816MOL0     C10073   9.817   1.507  10.481 -0.1710  0.5420 -0.0713
  816MOL0     C10074   9.689   1.490  10.521  0.0469  0.0766 -0.8777
  816MOL0     N10075   9.047   1.846  10.827 -0.1347 -0.5987 -0.3331
  816MOL0     N10076   8.948   1.928  10.851  0.3072  0.2250 -0.0071
  816MOL0     C10077   7.639   1.989  11.296 -0.4692  0.2794 -0.2063
  816MOL0     C10078   7.502   2.017  11.267 -0.8113 -0.5155  0.1253
  816MOL0     C10079   7.139   2.162  11.019 -0.7430 -0.2385  0.4595
  816MOL0     C10080   7.116   2.293  10.954  0.0736 -0.0439  0.0200
  816MOL0     C10081   6.987   2.351  10.956 -0.2853 -0.4430  0.1369
  816MOL0     C10082   6.875   2.264  10.968 -0.3341 -0.6646 -0.3120
  816MOL0     O10083   6.748   2.298  10.940 -0.3887  0.3529 -1.0942
  816MOL0     C10084   6.715   2.426  10.903  0.5259 -0.0573  0.0876
  816MOL0     C10085   6.559   2.428  10.888  0.1406 -0.0981  0.2565
  816MOL0     C10086   6.513   2.578  10.858  0.2116  0.2009  0.7169
  816MOL0     C10087   6.360   2.601  10.843 -1.1268  0.1407  1.2007
  816MOL0     C10088   6.277   2.491  10.792 -0.2636 -0.0452  0.1037
  816MOL0     C10089   6.224   2.385  10.756  0.4699 -0.4243 -0.3278
  816MOL0     C10090   6.899   2.137  11.020  0.0392  0.3470 -0.0869
  816MOL0     C10091   7.024   2.091  11.052  0.3610 -0.4049 -0.3164
  816MOL0     C10092   7.025   1.950  11.103  0.1350 -0.1893 -0.2585
  816MOL0     H10093   7.468   1.936  10.949  0.7054  0.7055 -0.2868
  816MOL0     H10094   7.703   1.852  10.979 -1.5250 -0.1798 -1.7041
  816MOL0     H10095   7.914   1.757  11.065  0.2855 -1.1629  1.3900
  816MOL0     H10096   7.909   1.934  11.037 -0.1961 -0.3028  0.3354
  816MOL0     H10097   8.072   1.820  11.263  1.3299  1.2057  1.0134
  816MOL0     H10098   8.062   1.990  11.207  0.1929  0.1365  0.3130
  816MOL0     H10099   8.157   1.897  10.987 -2.2266  0.4806 -0.3702
  816MOL0     H10100   8.158   1.732  11.061 -0.5487  1.0539  0.2644
  816MOL0     H10101   8.328   1.976  11.173  0.5961  0.0268 -2.7076
  816MOL0     H10102   8.330   1.823  11.245  0.9051  1.4371  1.1957
  816MOL0     H10103   8.413   1.719  11.066  2.7208  0.3791  0.6495
  816MOL0     H10104   8.406   1.858  10.952  0.6188  0.3977  0.5492
  816MOL0     H10105   8.542   1.987  11.073  2.1675  0.1204  0.0546
  816MOL0     H10106   8.554   1.890  11.217  1.0409  3.3488 -0.8240
  816MOL0     H10107   8.672   1.715  11.060  3.4222 -0.2966 -3.2322
  816MOL0     H10108   8.755   1.853  11.125  1.7489  1.0363 -1.5802
  816MOL0     H10109   8.627   1.851  10.846 -0.9103  0.1732 -0.1384
  816MOL0     H10110   8.683   1.990  10.923 -1.5384 -1.5280  3.7049
  816MOL0     H10111   8.792   1.632  10.838  0.2625 -0.0034 -0.5605
  816MOL0     H10112   9.066   1.527  10.890  0.1505 -1.4129 -0.7911
  816MOL0     H10113   9.027   1.540  10.718  2.3385  0.2659 -1.0595
  816MOL0     H10114   9.235   1.690  10.685  5.5793  0.2523  0.2629
  816MOL0     H10115   9.260   1.674  10.855  0.7881 -0.4262 -0.6483
  816MOL0     H10116   9.256   1.424  10.699 -0.5705  0.0193 -0.8911
  816MOL0     H10117   9.342   1.466  10.861  0.3981 -1.0059 -1.8767
  816MOL0     H10118   9.498   1.605  10.762  0.7196  1.5763 -2.9911
  816MOL0     H10119   9.437   1.579  10.595 -1.3526 -2.0031 -1.1790
  816MOL0     H10120   9.721   1.303  10.787  0.6413 -1.3188 -0.0702
  816MOL0     H10121   9.969   1.317  10.732 -2.5416  0.1305  4.4202
  816MOL0     H10122  10.265   1.732  10.494  1.2856 -0.1913 -0.4150
  816MOL0     H10123  10.482   1.790  10.391 -1.6374  0.8179  0.3156
  816MOL0     H10124  10.716   1.762  10.319  2.2588 -0.4288 -0.1971
  816MOL0     H10125  10.666   1.604  10.390 -1.0634  0.4403 -0.0247
  816MOL0     H10126  10.826   1.506  10.227  0.4188  0.8630 -3.0678
  816MOL0     H10127  10.850   1.658  10.160 -1.3261 -0.7506 -0.5036
  816MOL0     H10128  10.941   1.746  10.385  2.7013 -0.5934 -0.5568
  816MOL0     H10129  10.921   1.576  10.443 -0.5139 -0.9511 -0.7999
  816MOL0     H10130  11.086   1.613  10.195  0.4682  0.2122 -0.2733
  816MOL0     H10131  11.111   1.501  10.328 -1.5106  1.0160 -0.6182
  816MOL0     H10132  11.205   1.716  10.476 -0.7472 -1.8812  0.6590
  816MOL0     H10133  11.197   1.800  10.317  0.6239 -0.6570 -0.7156
  816MOL0     H10134  11.379   1.604  10.445 -0.7799  0.6937  1.0934
  816MOL0     H10135  11.342   1.542  10.289 -1.0880 -0.8017  1.3464
  816MOL0     H10136  11.425   1.832  10.302 -0.2655 -0.0193 -1.2311
  816MOL0     H10137  11.423   1.723  10.173 -0.2487  0.9925 -0.4724
  816MOL0     H10138  11.598   1.578  10.311 -3.3399  0.3768 -0.2004
  816MOL0     H10139  11.648   1.712  10.212  0.7499  1.3625  0.6190
  816MOL0     H10140  10.422   1.464  10.109  0.6496  0.1177  0.1833
  816MOL0     H10141  10.198   1.425  10.229  1.2757 -1.1005  1.5839
  816MOL0     H10142   9.841   1.575  10.400 -0.5477  0.4009 -0.3031
  816MOL0     H10143   9.616   1.536  10.455 -1.2011 -2.5859 -1.4706
  816MOL0     H10144   7.693   2.011  11.388  0.4911  1.3792 -1.0064
  816MOL0     H10145   7.433   2.064  11.336 -0.0056 -0.5575  0.9919
  816MOL0     H10146   7.198   2.362  10.932 -0.4494  2.2354  4.2403
  816MOL0     H10147   6.985   2.459  10.943 -0.4060 -0.2619  1.6009
  816MOL0     H10148   6.764   2.446  10.807  3.6070 -3.5992  0.6846
  816MOL0     H10149   6.748   2.495  10.981  0.2523  0.4103 -0.2045
  816MOL0     H10150   6.519   2.385  10.980 -1.0134 -5.1794 -2.3014
  816MOL0     H10151   6.523   2.373  10.801 -1.5186  1.8798 -0.3777
  816MOL0     H10152   6.549   2.612  10.760 -1.2623  2.0513  0.7693
  816MOL0     H10153   6.554   2.642  10.937 -1.1248  1.0887  0.7287
  816MOL0     H10154   6.323   2.624  10.944 -0.3759 -1.6706  1.9199
  816MOL0     H10155   6.351   2.689  10.778 -1.3244  0.6042  1.8477
  816MOL0     H10156   6.179   2.291  10.732  0.5690 -1.1920  2.2011
  816MOL0     H10157   6.808   2.080  11.037  1.1345 -1.0546  1.3653
  816MOL0     H10158   7.035   1.949  11.212 -1.2446  1.2964 -0.0810
  816MOL0     H10159   6.933   1.899  11.073 -0.3394  0.8618 -0.6254
  816MOL0     H10160   7.105   1.889  11.060 -0.2647  0.9415 -2.7251
  817MOL0     O10161   5.468   1.178   4.491 -0.7169  0.0285  0.8354
  817MOL0     C10162   5.401   1.111   4.413  0.9133 -0.1351  0.3222
  817MOL0     O10163   5.447   1.052   4.297  0.2919 -0.8460  0.0748
  817MOL0     C10164   5.578   1.028   4.295 -0.4836 -0.1767  1.6927
  817MOL0     C10165   5.669   1.136   4.259  0.1761  0.1045 -0.5952
  817MOL0     C10166   5.808   1.121   4.249  0.1605 -0.6190  0.7450
  817MOL0     C10167   5.859   0.996   4.268  0.2443  0.6250  0.0788
  817MOL0     O10168   5.993   0.964   4.254 -0.3690  0.5297 -0.0830
  817MOL0     C10169   6.087   1.068   4.255 -0.6389  0.4504  0.8695
  817MOL0     C10170   6.230   0.996   4.234  0.2082 -0.3345 -0.5965
  817MOL0     C10171   6.345   1.089   4.263  0.5177  0.2827 -0.5491
  817MOL0     C10172   6.481   1.025   4.247  0.1035 -0.1090  0.1732
  817MOL0     C10173   6.595   1.132   4.256  0.2842  0.2873  0.4313
  817MOL0     C10174   6.727   1.075   4.201 -0.2185 -0.2575  0.7420
  817MOL0     C10175   6.856   1.161   4.213  0.1466  0.3888  0.1434
  817MOL0     C10176   6.855   1.276   4.103 -0.1364 -0.6767 -0.7051
  817MOL0     N10177   6.985   1.314   4.056  0.0833 -0.6347 -0.0393
  817MOL0     C10178   7.086   1.244   3.985  0.8096 -0.8205 -0.1603
  817MOL0     C10179   7.189   1.325   3.977 -0.1549  0.1453 -0.3727
  817MOL0     C10180   7.329   1.289   3.921 -0.0874  0.6381  0.5023
  817MOL0     C10181   7.319   1.264   3.766 -0.8455 -0.2528  1.0781
  817MOL0     C10182   7.407   1.143   3.726  0.4796  0.2149 -0.5114
  817MOL0     C10183   7.420   1.130   3.572  0.3608  0.3667 -0.3971
  817MOL0     O10184   7.497   1.229   3.505  0.3621 -0.5592  0.6647
  817MOL0     C10185   7.634   1.218   3.520 -0.3755 -0.1025 -0.0557
  817MOL0     C10186   7.694   1.336   3.576 -0.5416  0.2403  0.1355
  817MOL0     C10187   7.833   1.344   3.605 -0.0174  0.1369 -0.3898
  817MOL0     C10188   7.910   1.232   3.578  0.2846  0.5420 -0.1290
  817MOL0     C10189   8.055   1.232   3.604  0.1230 -0.6775 -0.1854
  817MOL0     O10190   8.111   1.358   3.612  0.0329  0.6114  0.4876
  817MOL0     C10191   8.244   1.364   3.642 -0.8343 -0.2041  0.3526
  817MOL0     C10192   8.340   1.318   3.549  0.7815  0.4933 -0.1729
  817MOL0     C10193   8.472   1.319   3.585 -1.7585 -0.6654 -0.2565
  817MOL0     C10194   8.512   1.371   3.715  0.6529  0.5005  0.4675
  817MOL0     O10195   8.646   1.369   3.756  0.3695  0.0252 -0.4506
  817MOL0     C10196   8.745   1.315   3.667 -0.2210  0.1465  0.2716
  817MOL0     C10197   8.789   1.406   3.545  0.2524  0.2256 -1.0394
  817MOL0     C10198   8.873   1.529   3.598  1.0922  0.5132 -0.3618
  817MOL0     C10199   8.942   1.610   3.487  0.0483  0.3321 -0.3533
  817MOL0     C10200   9.015   1.733   3.526 -0.9435  0.3084 -0.7292
  817MOL0     C10201   8.927   1.837   3.591 -1.2024  0.2048  0.2158
  817MOL0     C10202   9.007   1.970   3.608  0.4516  0.1990  0.5726
  817MOL0     C10203   9.007   2.040   3.464  0.8579 -0.2471  0.4910
  817MOL0    Cl10204   8.853   2.132   3.431  0.5799  0.0341  0.4648
  817MOL0     C10205   8.414   1.425   3.799 -0.7527 -0.3954  0.1730
  817MOL0     C10206   8.277   1.416   3.765 -0.2044  0.3546 -0.0103
  817MOL0     O10207   8.110   1.124   3.607  0.0387  0.1068  0.1176
  817MOL0     C10208   7.859   1.118   3.523 -0.5207  0.2465  0.1415
  817MOL0     C10209   7.723   1.108   3.492 -0.1139  0.0909  0.7374
  817MOL0     N10210   7.159   1.446   4.029  0.2558 -0.5563  0.4496
  817MOL0     N10211   7.027   1.443   4.069 -0.2436 -0.4868  0.3232
  817MOL0     C10212   5.768   0.886   4.293  0.1294  0.4536  0.7794
  817MOL0     C10213   5.634   0.901   4.314  0.4961 -1.0956 -1.7130
  817MOL0     C10214   5.255   1.130   4.429 -0.7355  0.1730  0.5953
  817MOL0     C10215   5.202   1.220   4.523 -0.1049 -0.2575  0.0380
  817MOL0     C10216   5.068   1.250   4.528  0.0769  0.5001  0.7010
  817MOL0     C10217   4.976   1.186   4.449  0.4908 -0.7625 -0.5637
  817MOL0     O10218   4.841   1.202   4.463  0.8111  0.5959 -0.1190
  817MOL0     C10219   4.771   1.270   4.356 -0.2751 -0.4725 -0.3992
  817MOL0     C10220   4.797   1.422   4.342  0.4091 -0.4111  0.5547
  817MOL0     C10221   4.804   1.461   4.192  0.5484 -0.1882  0.1477
  817MOL0     C10222   4.815   1.617   4.176 -0.2517 -0.0677  0.4627
  817MOL0     C10223   4.914   1.691   4.259 -0.3643  0.2608  0.5501
  817MOL0     C10224   4.994   1.744   4.329  0.6481 -0.4628 -0.7658
  817MOL0     C10225   5.027   1.087   4.362  0.1936  0.4092  1.0651
  817MOL0     C10226   5.165   1.055   4.346  0.4884 -0.8146  0.8939
  817MOL0     C10227   5.194   0.952   4.247 -0.8607 -0.0333 -0.2695
  817MOL0     H10228   5.623   1.233   4.242 -0.0186  0.3572  1.2440
  817MOL0     H10229   5.868   1.205   4.216 -0.1515 -1.3052 -1.8413
  817MOL0     H10230   6.066   1.130   4.167 -2.4621  1.3276  1.8891
  817MOL0     H10231   6.092   1.128   4.346 -1.1849  2.3726 -0.3061
  817MOL0     H10232   6.233   0.965   4.130  1.3515 -0.7265 -0.4681
  817MOL0     H10233   6.234   0.906   4.297 -1.0765  0.7509  1.1301
  817MOL0     H10234   6.331   1.131   4.363 -4.3811 -1.3179 -0.3194
  817MOL0     H10235   6.340   1.171   4.191 -1.6762 -0.3332 -1.1606
  817MOL0     H10236   6.490   0.953   4.329 -0.2446 -1.5109 -0.9790
  817MOL0     H10237   6.473   0.971   4.153 -0.4332 -1.8092  1.1636
  817MOL0     H10238   6.583   1.218   4.190 -0.5919 -0.0134  0.1776
  817MOL0     H10239   6.622   1.164   4.357  2.2470 -2.4675  0.8830
  817MOL0     H10240   6.740   0.990   4.268 -1.1862 -0.9663  0.0623
  817MOL0     H10241   6.724   1.048   4.095 -0.1587 -2.7926  1.3362
  817MOL0     H10242   6.936   1.086   4.207 -1.5546 -1.6648  1.5405
  817MOL0     H10243   6.861   1.206   4.313 -2.1803  1.8119 -0.3067
  817MOL0     H10244   6.779   1.261   4.025 -3.3511  1.3220  1.7529
  817MOL0     H10245   6.823   1.362   4.162  0.5577 -1.8396  1.4532
  817MOL0     H10246   7.084   1.139   3.957  0.7562 -0.4952 -1.4246
  817MOL0     H10247   7.397   1.375   3.915  1.3557 -0.5238 -4.4830
  817MOL0     H10248   7.372   1.207   3.979 -2.4570 -0.8723  0.2693
  817MOL0     H10249   7.211   1.245   3.758 -1.1335  1.1757  1.2146
  817MOL0     H10250   7.337   1.355   3.708 -0.9812 -0.4675  0.6941
  817MOL0     H10251   7.357   1.057   3.772 -0.7326  0.1534 -1.8405
  817MOL0     H10252   7.505   1.158   3.770 -0.8139  1.4497  2.1741
  817MOL0     H10253   7.322   1.131   3.524  0.9969 -0.1711 -1.7792
  817MOL0     H10254   7.461   1.034   3.539  4.8766  1.2427  1.8478
  817MOL0     H10255   7.621   1.414   3.595 -1.5896 -0.1655 -1.9131
  817MOL0     H10256   7.863   1.439   3.649  1.2875  1.0144 -2.9727
  817MOL0     H10257   8.308   1.285   3.451 -4.5464 -0.6916  1.6178
  817MOL0     H10258   8.549   1.278   3.520 -0.2930  1.8386 -0.2315
  817MOL0     H10259   8.828   1.304   3.738 -1.9948 -2.1594  2.1859
  817MOL0     H10260   8.727   1.215   3.626 -1.2056  0.5073 -0.2089
  817MOL0     H10261   8.854   1.352   3.476 -0.1724 -0.2049 -1.1080
  817MOL0     H10262   8.700   1.444   3.494  0.2162  1.2579 -0.2404
  817MOL0     H10263   8.807   1.595   3.655 -2.0125 -1.4529 -1.4209
  817MOL0     H10264   8.947   1.498   3.672  0.2456  1.2873  0.8534
  817MOL0     H10265   8.870   1.634   3.408 -1.5949 -0.5887  0.7996
  817MOL0     H10266   9.013   1.546   3.434 -0.8685 -1.2692  0.2834
  817MOL0     H10267   9.060   1.782   3.440 -1.4647  3.3977  0.6311
  817MOL0     H10268   9.098   1.718   3.595 -1.5414  3.0405  0.7161
  817MOL0     H10269   8.835   1.855   3.535 -1.1713  1.4266  0.5239
  817MOL0     H10270   8.891   1.804   3.689 -0.3953 -0.5501  0.2692
  817MOL0     H10271   9.111   1.941   3.624  0.1700 -1.3240 -0.1324
  817MOL0     H10272   8.964   2.036   3.684  1.5960  3.6696 -1.5473
  817MOL0     H10273   9.087   2.114   3.467 -0.3559  1.1362 -0.1223
  817MOL0     H10274   9.030   1.968   3.385  1.0050 -2.3294  2.3285
  817MOL0     H10275   8.448   1.461   3.895 -1.0934  1.6484 -0.4209
  817MOL0     H10276   8.205   1.444   3.842  2.1604  1.3541  1.9983
  817MOL0     H10277   7.918   1.029   3.502 -3.6550 -2.6031  2.4047
  817MOL0     H10278   7.678   1.019   3.451 -0.1736 -0.3440  1.7190
  817MOL0     H10279   5.816   0.790   4.309 -0.7068 -0.5727 -2.2477
  817MOL0     H10280   5.568   0.821   4.348 -0.1075 -0.3226 -0.9891
  817MOL0     H10281   5.263   1.269   4.599 -2.3220 -0.6969  2.2204
  817MOL0     H10282   5.024   1.313   4.604  0.7683  0.1011  1.4527
  817MOL0     H10283   4.665   1.252   4.377  0.0658 -0.3875  1.6175
  817MOL0     H10284   4.804   1.214   4.268  3.9749  0.2769  0.4950
  817MOL0     H10285   4.896   1.446   4.380  0.9637 -0.8740 -0.5549
  817MOL0     H10286   4.726   1.482   4.400  0.5088 -0.9097  1.1952
  817MOL0     H10287   4.710   1.429   4.146  0.6463 -1.0717  0.5523
  817MOL0     H10288   4.888   1.413   4.142 -0.2467  0.5829 -2.0595
  817MOL0     H10289   4.839   1.634   4.071  1.7279  1.6033  1.1248
  817MOL0     H10290   4.721   1.666   4.202 -0.6797 -0.0988 -0.9263
  817MOL0     H10291   5.074   1.775   4.394  2.4638 -2.2507 -2.0276
  817MOL0     H10292   4.954   1.028   4.309 -0.3567 -0.4306  2.7089
  817MOL0     H10293   5.250   0.996   4.164  1.4779 -0.4183  1.0381
  817MOL0     H10294   5.258   0.882   4.302 -2.7676 -1.4163  0.3225
  817MOL0     H10295   5.110   0.893   4.208 -0.8593  0.4312 -0.9890
  818MOL0     O10296   5.495   2.576   8.051 -0.8578  0.7893  0.5573
  818MOL0     C10297   5.525   2.628   8.158  0.6721  0.4057 -0.6755
  818MOL0     O10298   5.651   2.683   8.199  0.4023  0.2659  0.0915
  818MOL0     C10299   5.754   2.695   8.112  0.0809 -0.2477 -0.9605
  818MOL0     C10300   5.871   2.713   8.192 -0.1135 -0.1217  0.0103
  818MOL0     C10301   5.990   2.725   8.128 -0.3965 -0.2059 -0.2922
  818MOL0     C10302   6.001   2.750   7.987 -0.2655 -0.2093 -0.6436
  818MOL0     O10303   6.122   2.777   7.928  0.2326 -0.4937  0.0462
  818MOL0     C10304   6.232   2.823   8.009 -0.1768  0.2863  0.1268
  818MOL0     C10305   6.347   2.846   7.920 -0.4559  0.3944  0.0182
  818MOL0     C10306   6.459   2.897   8.006 -0.0181  0.2006  0.3620
  818MOL0     C10307   6.592   2.905   7.924 -0.3312  0.0999  0.5953
  818MOL0     C10308   6.593   2.996   7.806  0.2994  0.1368 -0.3876
  818MOL0     C10309   6.723   2.989   7.716 -0.7525  0.2686  0.7536
  818MOL0     C10310   6.728   3.102   7.615  0.5608 -0.7352 -0.1094
  818MOL0     C10311   6.865   3.114   7.550 -0.0218  0.3467 -0.0773
  818MOL0     N10312   6.864   3.173   7.415  0.5432  0.0771 -0.3283
  818MOL0     C10313   6.838   3.300   7.376  0.3669  0.0085 -0.5856
  818MOL0     C10314   6.886   3.311   7.255  0.3557  0.2267 -0.1151
  818MOL0     C10315   6.903   3.435   7.179 -0.2716 -0.7873  0.0628
  818MOL0     C10316   7.049   3.461   7.139  0.1467 -0.2539  1.0898
  818MOL0     C10317   7.053   3.579   7.039  0.4793  0.0568 -1.2687
  818MOL0     C10318   7.079   3.718   7.101  0.0647 -0.2409  0.7314
  818MOL0     O10319   7.096   3.805   6.990  0.8541 -0.6896  0.3275
  818MOL0     C10320   7.225   3.828   6.942 -0.9970 -0.4460  0.3722
  818MOL0     C10321   7.234   3.917   6.837  0.2932  0.3514  0.1495
  818MOL0     C10322   7.368   3.962   6.788  0.3576 -0.9113  0.3695
  818MOL0     C10323   7.481   3.926   6.859 -0.0379  0.4941 -0.3278
  818MOL0     C10324   7.614   3.995   6.832  0.5853  0.4406 -0.2550
  818MOL0     O10325   7.718   3.939   6.888  0.2401  0.5549  0.1888
  818MOL0     C10326   7.843   4.003   6.881 -1.1166  0.1814 -0.0635
  818MOL0     C10327   7.958   3.937   6.837  0.3677 -0.2512  0.7516
  818MOL0     C10328   8.076   4.002   6.837 -0.6725  0.1200  0.4249
  818MOL0     C10329   8.084   4.131   6.883 -0.4027  0.2165  0.0070
  818MOL0     O10330   8.211   4.188   6.881 -0.4043  0.1307 -0.3682
  818MOL0     C10331   8.233   4.331   6.868  0.5536  0.4238  0.2933
  818MOL0     C10332   8.377   4.349   6.866  0.4858 -0.4298 -0.1435
  818MOL0     C10333   8.416   4.493   6.857 -1.1542  0.0212  0.7226
  818MOL0     C10334   8.572   4.492   6.888 -0.5238  0.2121  0.7972
  818MOL0     C10335   8.604   4.644   6.884  0.2629  0.2473  0.6197
  818MOL0     C10336   8.757   4.668   6.908 -0.6708  1.5711 -0.6069
  818MOL0     C10337   8.833   4.615   7.032  0.2903  0.0396 -1.0142
  818MOL0     C10338   8.983   4.651   7.003 -0.1713  0.4227  0.0151
  818MOL0    Cl10339   9.102   4.592   7.120 -0.1199  0.2721 -0.3176
  818MOL0     C10340   7.976   4.206   6.924  0.0550 -0.6344 -0.0024
  818MOL0     C10341   7.851   4.138   6.930  0.1532 -0.0677  0.8728
  818MOL0     O10342   7.617   4.089   6.764 -0.4343  0.3279  0.4433
  818MOL0     C10343   7.469   3.824   6.960 -0.5917 -0.2881 -0.1436
  818MOL0     C10344   7.343   3.774   6.993 -0.2224 -0.4905 -0.1480
  818MOL0     N10345   6.933   3.194   7.208 -0.9303 -0.2304 -0.4143
  818MOL0     N10346   6.922   3.113   7.308 -0.3349  0.1829 -0.6038
  818MOL0     C10347   5.889   2.723   7.912 -0.3937 -0.3924 -0.1979
  818MOL0     C10348   5.767   2.691   7.971 -0.0765  0.1502 -0.0923
  818MOL0     C10349   5.412   2.642   8.263 -0.7272 -0.0824 -0.6640
  818MOL0     C10350   5.442   2.696   8.387  0.1495 -0.1714  0.4258
  818MOL0     C10351   5.348   2.709   8.490 -0.3207 -0.1764  0.4717
  818MOL0     C10352   5.216   2.667   8.468 -0.8572  0.2983  0.5382
  818MOL0     O10353   5.124   2.665   8.569  0.5855  0.0392  0.5242
  818MOL0     C10354   5.136   2.775   8.658 -0.7521 -0.1366 -0.0504
  818MOL0     C10355   5.002   2.823   8.700  0.0149  0.2074  0.0797
  818MOL0     C10356   4.934   2.886   8.573  0.5507  1.0408  0.4889
  818MOL0     C10357   4.800   2.936   8.611  0.8320 -0.5655 -0.3898
  818MOL0     C10358   4.707   2.827   8.625 -0.1231 -0.0575 -0.8479
  818MOL0     C10359   4.626   2.738   8.629  0.6360 -0.0593 -0.3768
  818MOL0     C10360   5.178   2.627   8.342  0.4440 -0.0992  0.3766
  818MOL0     C10361   5.276   2.615   8.239  0.1515 -0.2512 -0.0934
  818MOL0     C10362   5.218   2.581   8.103  0.5734  0.5293  0.0391
  818MOL0     H10363   5.866   2.719   8.300 -1.1580 -1.1249  0.0341
  818MOL0     H10364   6.080   2.728   8.189 -0.8209 -2.1510  0.4927
  818MOL0     H10365   6.206   2.918   8.057 -4.3334 -0.7816  0.3875
  818MOL0     H10366   6.250   2.746   8.084 -2.3792  0.8732  1.3628
  818MOL0     H10367   6.320   2.916   7.840  1.6157  1.2387 -0.0172
  818MOL0     H10368   6.389   2.752   7.883 -4.5895 -1.0068 -1.5893
  818MOL0     H10369   6.476   2.831   8.092  1.2078  0.6748  0.5046
  818MOL0     H10370   6.439   2.999   8.040 -1.0325  0.5523 -1.1991
  818MOL0     H10371   6.674   2.931   7.991  1.5049 -1.7705 -0.7731
  818MOL0     H10372   6.629   2.808   7.888  0.4195 -0.2325  2.1984
  818MOL0     H10373   6.506   2.976   7.743  0.9337 -1.4256 -0.8339
  818MOL0     H10374   6.586   3.096   7.850  0.0855 -1.2197  2.9915
  818MOL0     H10375   6.813   3.000   7.777  1.1276 -1.8563 -1.4044
  818MOL0     H10376   6.747   2.896   7.663  1.0741  0.1302  1.7387
  818MOL0     H10377   6.707   3.196   7.668  1.3192 -0.1592 -0.8152
  818MOL0     H10378   6.649   3.091   7.540 -1.0047  0.6728  1.2316
  818MOL0     H10379   6.941   3.158   7.616 -0.4759  0.1572  0.5784
  818MOL0     H10380   6.895   3.011   7.527 -0.3519  0.5913 -1.7914
  818MOL0     H10381   6.795   3.378   7.438  0.0217 -0.6034 -0.0392
  818MOL0     H10382   6.828   3.436   7.099  0.1120  1.1460 -0.3231
  818MOL0     H10383   6.881   3.518   7.246 -0.7352  0.7631 -1.8989
  818MOL0     H10384   7.110   3.477   7.228  1.3288 -0.2562  0.3114
  818MOL0     H10385   7.089   3.374   7.085  1.1037  1.0943 -0.4558
  818MOL0     H10386   6.961   3.584   6.980  0.5439 -2.3427 -1.6471
  818MOL0     H10387   7.124   3.551   6.961 -0.6489 -2.0317 -1.6191
  818MOL0     H10388   7.163   3.709   7.171  1.3614 -2.7516 -0.9688
  818MOL0     H10389   6.989   3.755   7.151  0.2194 -0.4288  1.1545
  818MOL0     H10390   7.144   3.944   6.784 -0.3168 -4.2679 -1.6089
  818MOL0     H10391   7.368   4.035   6.708 -1.2068  1.3629  2.2856
  818MOL0     H10392   7.943   3.836   6.801 -1.0874 -0.5078  1.9805
  818MOL0     H10393   8.167   3.954   6.802 -1.6655  0.5292 -3.1573
  818MOL0     H10394   8.187   4.365   6.774 -0.9716 -0.6926  0.5978
  818MOL0     H10395   8.195   4.385   6.955 -2.1452 -1.5411  0.4393
  818MOL0     H10396   8.417   4.322   6.965  2.0729  0.1745 -0.5815
  818MOL0     H10397   8.427   4.282   6.796 -2.4901 -1.8395 -1.0653
  818MOL0     H10398   8.392   4.527   6.755  2.5797  0.0818 -0.2936
  818MOL0     H10399   8.360   4.558   6.925 -2.8746  0.5858 -1.0988
  818MOL0     H10400   8.625   4.437   6.809 -1.1950 -0.4492  0.8011
  818MOL0     H10401   8.594   4.444   6.983 -2.7525 -1.4050  0.5592
  818MOL0     H10402   8.551   4.699   6.963 -1.9320 -2.3085  1.0678
  818MOL0     H10403   8.583   4.682   6.784 -0.1630 -2.6137 -0.4804
  818MOL0     H10404   8.812   4.610   6.833  0.3202 -2.3552  2.8094
  818MOL0     H10405   8.778   4.775   6.897  3.2377  1.0352  0.3986
  818MOL0     H10406   8.821   4.506   7.040  1.1108  0.0985  2.1891
  818MOL0     H10407   8.794   4.659   7.123 -1.5655 -0.9902 -1.2669
  818MOL0     H10408   9.013   4.618   6.903  2.8565  0.0895  0.9235
  818MOL0     H10409   9.001   4.758   7.015 -0.0418  0.4319 -0.2622
  818MOL0     H10410   7.988   4.306   6.963 -0.1293 -1.2550  1.7174
  818MOL0     H10411   7.768   4.190   6.976  0.7421  2.3901 -0.6454
  818MOL0     H10412   7.551   3.775   7.011  1.3956  1.8930 -1.0773
  818MOL0     H10413   7.334   3.690   7.061  1.6855 -1.2766 -0.8170
  818MOL0     H10414   5.901   2.733   7.804  1.9351  1.1777  0.1328
  818MOL0     H10415   5.681   2.673   7.908  1.5782 -3.0706 -1.7380
  818MOL0     H10416   5.543   2.730   8.408  1.4822 -3.4733  0.0096
  818MOL0     H10417   5.374   2.746   8.589  0.4026 -0.0277  0.2303
  818MOL0     H10418   5.199   2.854   8.616  0.4241 -2.2312 -2.5304
  818MOL0     H10419   5.189   2.743   8.748 -0.5657  2.7803  0.9797
  818MOL0     H10420   4.999   2.897   8.781 -1.1826  2.4241 -1.8697
  818MOL0     H10421   4.943   2.739   8.737 -1.9313  2.3607  2.2024
  818MOL0     H10422   4.921   2.798   8.509  1.0727  0.9154  0.5492
  818MOL0     H10423   4.987   2.960   8.513  1.5392  3.2904  3.8384
  818MOL0     H10424   4.811   2.984   8.708 -2.6046 -1.3398  0.4999
  818MOL0     H10425   4.757   3.007   8.540 -1.0978  1.5886  2.6738
  818MOL0     H10426   4.552   2.661   8.632 -0.3785  0.8648 -0.7071
  818MOL0     H10427   5.071   2.621   8.323  0.6024  0.7852 -0.9961
  818MOL0     H10428   5.254   2.654   8.030 -1.0532 -0.9724 -2.4069
  818MOL0     H10429   5.251   2.484   8.064 -2.5558 -1.2184  1.3388
  818MOL0     H10430   5.109   2.581   8.104  0.5721  0.8622  0.7684
  819MOL0     O10431   6.825   1.838   5.189  0.2912 -0.1662 -0.8301
  819MOL0     C10432   6.796   1.724   5.156  0.3645  0.0522 -0.7421
  819MOL0     O10433   6.880   1.619   5.178 -0.3653  0.1157  0.1559
  819MOL0     C10434   7.015   1.634   5.201 -0.4276  0.3176  0.2169
  819MOL0     C10435   7.086   1.537   5.266  0.2052 -0.2461 -0.0112
  819MOL0     C10436   7.225   1.539   5.287  0.2633  0.3325 -0.7051
  819MOL0     C10437   7.290   1.645   5.234  0.1683  0.8680 -0.2458
  819MOL0     O10438   7.422   1.657   5.260 -0.1641 -0.1755 -0.1138
  819MOL0     C10439   7.504   1.679   5.145  0.1528  0.6956 -0.0249
  819MOL0     C10440   7.658   1.652   5.160 -0.5866 -0.2946  0.2483
  819MOL0     C10441   7.739   1.776   5.208 -0.5947  0.5243  0.4258
  819MOL0     C10442   7.896   1.741   5.240  0.1578  0.1317 -0.1342
  819MOL0     C10443   7.979   1.873   5.272  0.3614  0.0500  0.1856
  819MOL0     C10444   8.122   1.843   5.318  0.8179 -0.2009  0.1529
  819MOL0     C10445   8.210   1.819   5.198 -0.3713  0.6415 -0.0958
  819MOL0     C10446   8.331   1.732   5.229 -0.3970 -0.1063  0.2690
  819MOL0     N10447   8.440   1.729   5.125 -0.6129  0.2811  0.6057
  819MOL0     C10448   8.546   1.811   5.122  0.2117  0.2746  0.2640
  819MOL0     C10449   8.641   1.741   5.061 -0.1071 -0.6054  0.1227
  819MOL0     C10450   8.784   1.778   5.031 -0.1593 -0.1150 -0.0161
  819MOL0     C10451   8.875   1.804   5.159 -0.1475 -0.9547  0.6454
  819MOL0     C10452   9.017   1.833   5.126 -1.2707  0.1996  0.9003
  819MOL0     C10453   9.110   1.823   5.246  0.1356  0.1095 -0.2595
  819MOL0     O10454   9.233   1.898   5.236 -0.2114 -0.6797  0.0738
  819MOL0     C10455   9.339   1.830   5.176 -0.4472 -0.4321 -0.1452
  819MOL0     C10456   9.369   1.697   5.211  0.0867 -0.2597  0.8051
  819MOL0     C10457   9.473   1.620   5.159  0.4952 -0.2968 -0.4302
  819MOL0     C10458   9.554   1.676   5.061 -0.0525 -0.5722  0.2837
  819MOL0     C10459   9.650   1.597   4.977 -0.0247 -0.1171 -0.3711
  819MOL0     O10460   9.759   1.658   4.908  0.2432 -0.5186 -0.0774
  819MOL0     C10461   9.813   1.610   4.794 -0.2406 -0.3171  0.0293
  819MOL0     C10462   9.933   1.671   4.757  0.3029  0.0469 -1.0498
  819MOL0     C10463  10.005   1.611   4.645 -0.4077 -0.5009  0.7474
  819MOL0     C10464   9.946   1.514   4.562 -0.1388 -0.1061 -0.4547
  819MOL0     O10465  10.001   1.464   4.442  0.2809  0.1570 -0.4210
  819MOL0     C10466  10.151   1.454   4.442  0.1965  0.4398  0.4639
  819MOL0     C10467  10.192   1.350   4.339  0.0990 -0.7208 -0.2723
  819MOL0     C10468  10.337   1.339   4.300  0.3509  0.1747 -1.0202
  819MOL0     C10469  10.373   1.216   4.203  0.3147 -0.2127 -0.2811
  819MOL0     C10470  10.516   1.214   4.150 -0.3899  0.0856  0.3974
  819MOL0     C10471  10.546   1.326   4.044  0.2348 -0.2538 -0.3326
  819MOL0     C10472  10.694   1.314   4.008  0.1276  1.0677  0.0967
  819MOL0     C10473  10.740   1.441   3.951 -0.3520 -0.6729  0.6632
  819MOL0    Cl10474  10.903   1.430   3.893 -0.1900 -0.1327  0.2994
  819MOL0     C10475   9.819   1.466   4.603  0.8264  0.2581  0.0137
  819MOL0     C10476   9.755   1.516   4.715 -0.2892  0.5739  0.5850
  819MOL0     O10477   9.613   1.479   4.958 -0.0599 -0.1082  0.1680
  819MOL0     C10478   9.537   1.813   5.028  0.5978 -0.4395 -0.0636
  819MOL0     C10479   9.429   1.881   5.087  0.4160 -0.5402 -0.1743
  819MOL0     N10480   8.590   1.624   5.017 -0.8099  0.0858 -0.1403
  819MOL0     N10481   8.476   1.611   5.071 -0.5985  0.1932  0.3052
  819MOL0     C10482   7.223   1.745   5.157 -0.6401 -0.0362  0.0530
  819MOL0     C10483   7.088   1.738   5.134  0.0900  0.0183 -0.0631
  819MOL0     C10484   6.657   1.695   5.106  0.1363  0.0660 -0.0637
  819MOL0     C10485   6.618   1.557   5.096  0.8123  0.5269  0.0547
  819MOL0     C10486   6.485   1.524   5.059  0.1799  0.2319  0.2210
  819MOL0     C10487   6.396   1.622   5.007  0.1910  0.5992 -0.1294
  819MOL0     O10488   6.267   1.600   4.964 -0.3111  0.3232  0.2366
  819MOL0     C10489   6.214   1.476   5.013  0.3118  0.5814 -0.3082
  819MOL0     C10490   6.076   1.451   4.946  0.4253  0.0823 -0.2181
  819MOL0     C10491   6.009   1.329   5.000 -0.2800  0.3079 -1.0828
  819MOL0     C10492   5.888   1.288   4.915 -0.0500 -0.1455 -1.1835
  819MOL0     C10493   5.767   1.372   4.925 -0.2079 -0.1322 -0.5023
  819MOL0     C10494   5.673   1.436   4.931 -0.5410 -0.1059 -0.3925
  819MOL0     C10495   6.437   1.749   5.011  0.4439 -0.2413  1.2703
  819MOL0     C10496   6.561   1.791   5.055  0.1252 -0.0230 -0.3936
  819MOL0     C10497   6.589   1.946   5.055 -0.3336 -0.0954  0.0216
  819MOL0     H10498   7.032   1.459   5.319 -1.0863  1.0540  0.6837
  819MOL0     H10499   7.282   1.470   5.349 -2.9300 -1.1443  0.8552
  819MOL0     H10500   7.457   1.620   5.066 -3.6321  2.2585  0.8812
  819MOL0     H10501   7.487   1.783   5.116 -2.7021  0.0993 -0.7594
  819MOL0     H10502   7.697   1.611   5.066 -1.3841 -0.9699  0.2016
  819MOL0     H10503   7.672   1.568   5.229 -0.3201 -2.0595 -1.8219
  819MOL0     H10504   7.699   1.814   5.303 -1.5912  1.5559 -0.3720
  819MOL0     H10505   7.733   1.856   5.133 -0.0816 -1.6131 -2.0467
  819MOL0     H10506   7.888   1.682   5.332 -1.7622  2.2760  1.1814
  819MOL0     H10507   7.961   1.680   5.176  3.2514  1.4437  1.5260
  819MOL0     H10508   7.976   1.943   5.188  0.4068 -1.1393 -0.8364
  819MOL0     H10509   7.930   1.929   5.352  2.1517 -0.4012  1.6573
  819MOL0     H10510   8.153   1.943   5.353 -1.1511  0.4699  0.1157
  819MOL0     H10511   8.134   1.770   5.399  3.1593 -1.6460 -1.3980
  819MOL0     H10512   8.250   1.910   5.152  2.0768  0.4501  1.4838
  819MOL0     H10513   8.145   1.766   5.127 -0.1516  0.6455 -0.2990
  819MOL0     H10514   8.364   1.770   5.326 -3.2737  0.1997  1.2288
  819MOL0     H10515   8.301   1.629   5.250 -1.7317  0.6171  2.2616
  819MOL0     H10516   8.559   1.910   5.165 -2.3269  0.9244 -0.3298
  819MOL0     H10517   8.820   1.692   4.974 -0.7917  2.5442 -4.9620
  819MOL0     H10518   8.787   1.863   4.963 -0.2971 -0.8881 -1.0197
  819MOL0     H10519   8.833   1.889   5.214 -1.5123 -2.8790  2.7467
  819MOL0     H10520   8.866   1.717   5.224 -1.6267 -0.0548  1.6904
  819MOL0     H10521   9.017   1.930   5.074  2.2063 -0.7519 -1.1510
  819MOL0     H10522   9.048   1.766   5.046  0.3389 -0.1737  1.7959
  819MOL0     H10523   9.132   1.717   5.258 -0.7581  0.0730  1.2850
  819MOL0     H10524   9.060   1.859   5.336  0.3860  1.6124 -0.6748
  819MOL0     H10525   9.313   1.661   5.296  0.0665 -0.4233  0.7245
  819MOL0     H10526   9.485   1.520   5.201 -1.2948 -0.7910 -0.9762
  819MOL0     H10527   9.960   1.751   4.825 -3.3765  0.7047 -0.1875
  819MOL0     H10528  10.106   1.648   4.630 -0.2871 -0.8547  0.6672
  819MOL0     H10529  10.203   1.550   4.436  0.4623  0.2048 -2.1589
  819MOL0     H10530  10.191   1.412   4.535  0.3634  2.2564  1.2504
  819MOL0     H10531  10.156   1.256   4.382  1.1677 -0.3528  1.5155
  819MOL0     H10532  10.134   1.364   4.247  0.7791  3.0074 -0.2737
  819MOL0     H10533  10.376   1.432   4.259  1.0449  0.4216  0.1601
  819MOL0     H10534  10.384   1.325   4.398 -3.2094  2.0497  1.1414
  819MOL0     H10535  10.310   1.214   4.113  1.2322  0.2011 -0.9420
  819MOL0     H10536  10.349   1.127   4.262 -2.5736 -0.8862 -2.2468
  819MOL0     H10537  10.543   1.120   4.101 -0.3001  1.6909 -2.8952
  819MOL0     H10538  10.576   1.237   4.239  0.7827 -0.4488 -0.2345
  819MOL0     H10539  10.479   1.319   3.958  0.7453  1.4933 -0.9083
  819MOL0     H10540  10.536   1.426   4.087 -0.1037  0.1344 -1.2755
  819MOL0     H10541  10.703   1.241   3.926 -0.1529  1.5747 -0.3957
  819MOL0     H10542  10.758   1.281   4.090  2.6772  4.3754 -0.3495
  819MOL0     H10543  10.677   1.472   3.867 -0.7035  1.4653  1.6420
  819MOL0     H10544  10.720   1.516   4.029 -0.1128 -1.3462  1.3888
  819MOL0     H10545   9.769   1.403   4.530  0.4457 -1.8273  1.9372
  819MOL0     H10546   9.656   1.476   4.734 -0.0582  0.0493  0.6966
  819MOL0     H10547   9.592   1.865   4.951 -0.0332 -1.6979 -1.4079
  819MOL0     H10548   9.412   1.988   5.074  0.2205 -0.4563  0.7096
  819MOL0     H10549   7.275   1.837   5.129  0.2543 -0.6561 -0.3712
  819MOL0     H10550   7.046   1.822   5.080  0.7103  2.4195  2.8777
  819MOL0     H10551   6.688   1.478   5.121  0.7272  0.4180 -0.0474
  819MOL0     H10552   6.463   1.418   5.071  1.8477  0.1187  3.2392
  819MOL0     H10553   6.197   1.489   5.120  0.6002  1.8287 -0.4037
  819MOL0     H10554   6.278   1.390   4.988 -2.3038 -1.3028 -0.9942
  819MOL0     H10555   6.103   1.434   4.842  3.2133 -1.6334  0.6859
  819MOL0     H10556   6.016   1.542   4.959  0.0865  0.2878 -2.6943
  819MOL0     H10557   5.978   1.351   5.103  1.6362  0.7662 -0.5672
  819MOL0     H10558   6.076   1.242   5.002 -1.3469 -0.6525  3.0756
  819MOL0     H10559   5.915   1.272   4.810 -2.8650 -0.9900 -1.8545
  819MOL0     H10560   5.853   1.196   4.962 -0.8745  1.4714  1.6320
  819MOL0     H10561   5.591   1.505   4.943  0.3636  0.9619 -0.1490
  819MOL0     H10562   6.369   1.829   4.983  0.5348 -0.8349 -0.8664
  819MOL0     H10563   6.563   1.984   5.155  2.6367  1.1617  0.4063
  819MOL0     H10564   6.692   1.972   5.031  0.7211 -1.7969  2.3289
  819MOL0     H10565   6.519   1.984   4.980  1.0495 -0.6048 -1.5601
  820MOL0     O10566   4.399   1.926   9.516 -0.2769 -0.4243 -0.5877
  820MOL0     C10567   4.311   1.843   9.542 -0.3313  0.6127  0.0862
  820MOL0     O10568   4.316   1.707   9.518 -0.0796 -0.5928  0.0053
  820MOL0     C10569   4.437   1.647   9.490  0.3380 -0.4308 -0.1336
  820MOL0     C10570   4.422   1.543   9.399 -0.4903 -0.4570  0.0750
  820MOL0     C10571   4.529   1.464   9.374 -0.1158 -0.3429 -0.3821
  820MOL0     C10572   4.655   1.484   9.431  0.0077  0.2441 -0.0538
  820MOL0     O10573   4.759   1.387   9.415 -0.3094 -0.3322  0.6936
  820MOL0     C10574   4.891   1.419   9.444 -0.2640  0.3278 -0.0838
  820MOL0     C10575   4.984   1.304   9.402  0.6701 -0.0734 -0.4379
  820MOL0     C10576   5.136   1.330   9.429 -0.6682 -0.4250  0.7059
  820MOL0     C10577   5.192   1.288   9.570  0.0168  0.1102  0.3414
  820MOL0     C10578   5.341   1.331   9.600  1.6460  0.4885 -0.2358
  820MOL0     C10579   5.441   1.277   9.515  0.0691 -0.4074  0.3796
  820MOL0     C10580   5.576   1.300   9.583 -0.0799 -0.4370 -0.4102
  820MOL0     C10581   5.686   1.251   9.487  0.2784  0.1256 -0.7735
  820MOL0     N10582   5.825   1.285   9.529  0.8440 -0.1259  0.6074
  820MOL0     C10583   5.933   1.201   9.543 -0.3809 -0.6267 -0.0591
  820MOL0     C10584   6.031   1.292   9.556 -0.0080  0.8042 -0.5525
  820MOL0     C10585   6.177   1.275   9.554  0.0081 -0.3811  0.2574
  820MOL0     C10586   6.226   1.173   9.664  0.4024 -0.8033  0.2635
  820MOL0     C10587   6.378   1.149   9.670 -0.0147 -0.0165  0.2426
  820MOL0     C10588   6.432   1.075   9.546 -0.1508 -0.1960  0.0222
  820MOL0     O10589   6.574   1.064   9.572  0.3881 -0.0556 -0.5095
  820MOL0     C10590   6.626   0.948   9.629 -0.1224 -0.7773 -0.1566
  820MOL0     C10591   6.765   0.937   9.613  0.0465  0.8949  0.3836
  820MOL0     C10592   6.837   0.840   9.687 -0.5275 -0.5321  0.5914
  820MOL0     C10593   6.762   0.749   9.760  0.5826  0.2140 -0.5660
  820MOL0     C10594   6.835   0.638   9.839 -0.5202  0.0484  0.2645
  820MOL0     O10595   6.968   0.651   9.861  0.3917  0.2077  0.8220
  820MOL0     C10596   7.024   0.550   9.936  0.5738 -0.0380  0.2791
  820MOL0     C10597   7.156   0.520   9.916  0.2428  0.4892 -0.2081
  820MOL0     C10598   7.230   0.428   9.997 -0.2429 -0.3318  0.3680
  820MOL0     C10599   7.168   0.350  10.094  0.2378  0.4088  0.0231
  820MOL0     O10600   7.220   0.246  10.168 -0.1797 -0.9108 -0.4623
  820MOL0     C10601   7.351   0.214  10.141 -0.6860  1.0298  0.7612
  820MOL0     C10602   7.401   0.087  10.214 -0.2908 -0.6232  0.0718
  820MOL0     C10603   7.550   0.098  10.243 -0.7572 -0.1846  0.2832
  820MOL0     C10604   7.618  -0.039  10.240 -0.9021 -0.4855  0.3926
  820MOL0     C10605   7.741  -0.025  10.331  0.2409  0.9353 -0.3392
  820MOL0     C10606   7.843  -0.133  10.289  0.3237  0.1293 -0.2936
  820MOL0     C10607   7.985  -0.115  10.326 -0.6456 -0.4495  0.6558
  820MOL0     C10608   8.004  -0.057  10.466  0.0731 -0.7070 -0.1597
  820MOL0    Cl10609   7.948  -0.187  10.587  0.3527 -0.0681  0.0641
  820MOL0     C10610   7.039   0.389  10.128  0.0197 -0.9961  0.2374
  820MOL0     C10611   6.972   0.487  10.051  0.6985 -0.3275 -0.1145
  820MOL0     O10612   6.774   0.537   9.860 -0.1779 -0.3509 -0.3802
  820MOL0     C10613   6.617   0.749   9.759  0.2141 -0.5053 -1.1025
  820MOL0     C10614   6.549   0.858   9.707  0.0013 -0.5437  0.6812
  820MOL0     N10615   5.985   1.422   9.551  0.0277 -0.7574  0.3771
  820MOL0     N10616   5.860   1.413   9.530 -0.5659  0.1101 -0.1280
  820MOL0     C10617   4.668   1.594   9.524  1.0366  0.1560 -0.3888
  820MOL0     C10618   4.563   1.681   9.547  0.3476 -0.5864 -0.3555
  820MOL0     C10619   4.172   1.896   9.550 -1.0144  0.0758 -0.1469
  820MOL0     C10620   4.063   1.829   9.485 -1.4597  0.1451 -0.5743
  820MOL0     C10621   3.935   1.874   9.495 -0.1789 -0.2941  0.3438
  820MOL0     C10622   3.904   1.986   9.561  0.8488  0.2099  0.0640
  820MOL0     O10623   3.774   2.030   9.575 -0.4035 -0.2331 -0.0132
  820MOL0     C10624   3.699   1.989   9.691  0.2182  0.5657  0.4903
  820MOL0     C10625   3.656   2.115   9.767  0.8398  0.0330 -0.3234
  820MOL0     C10626   3.575   2.215   9.685  0.4072  0.4379  0.4592
  820MOL0     C10627   3.458   2.150   9.611 -0.2182  0.5351 -0.2186
  820MOL0     C10628   3.352   2.089   9.696 -0.1335  0.4746 -0.6142
  820MOL0     C10629   3.246   2.049   9.750 -1.3862  1.3365 -0.3048
  820MOL0     C10630   4.006   2.056   9.623  0.3694  0.0529  0.0927
  820MOL0     C10631   4.142   2.018   9.620  0.1944 -0.3803  0.3753
  820MOL0     C10632   4.249   2.106   9.698 -0.5053  0.9321 -0.4764
  820MOL0     H10633   4.320   1.533   9.364 -2.0795  4.1411  2.5036
  820MOL0     H10634   4.520   1.381   9.304  2.4244 -0.5171 -0.6142
  820MOL0     H10635   4.916   1.516   9.400 -1.0018  0.9765  0.8755
  820MOL0     H10636   4.897   1.424   9.554  0.7184  1.2950 -0.1625
  820MOL0     H10637   4.960   1.295   9.296 -1.2559  3.5207 -0.4669
  820MOL0     H10638   4.959   1.207   9.446  1.1901 -1.5068 -3.0911
  820MOL0     H10639   5.157   1.436   9.414  2.5089 -1.0094  0.3093
  820MOL0     H10640   5.197   1.290   9.347 -0.9269  1.5816 -0.5169
  820MOL0     H10641   5.125   1.326   9.648 -1.6601 -1.7219 -0.1225
  820MOL0     H10642   5.189   1.179   9.573 -3.6044  0.0448 -0.3793
  820MOL0     H10643   5.347   1.440   9.605 -2.2286  0.7760  1.4828
  820MOL0     H10644   5.365   1.296   9.701  0.0411 -1.1214 -0.3522
  820MOL0     H10645   5.417   1.170   9.517  3.1998 -1.2476 -0.8079
  820MOL0     H10646   5.444   1.308   9.410  2.0804 -0.3744  0.4055
  820MOL0     H10647   5.579   1.260   9.684  0.7371  0.3256 -0.1223
  820MOL0     H10648   5.586   1.407   9.600  1.0676 -0.8325  1.6593
  820MOL0     H10649   5.679   1.142   9.487  1.6175  0.0258 -1.5288
  820MOL0     H10650   5.678   1.283   9.383  0.8084 -0.9123 -1.1394
  820MOL0     H10651   5.922   1.093   9.539 -0.7733 -0.7981  3.1426
  820MOL0     H10652   6.223   1.261   9.456  2.7952  2.2360  1.0175
  820MOL0     H10653   6.218   1.370   9.591  0.6202 -0.8181  0.7225
  820MOL0     H10654   6.190   1.200   9.764  0.5111  0.7292 -0.0990
  820MOL0     H10655   6.176   1.078   9.640 -0.1361 -0.2028 -1.0513
  820MOL0     H10656   6.407   1.097   9.761  0.9391  1.9272  1.1172
  820MOL0     H10657   6.418   1.251   9.676 -0.0813 -0.0611  1.8503
  820MOL0     H10658   6.416   1.127   9.452 -1.4714  1.0372  0.8884
  820MOL0     H10659   6.387   0.977   9.528  0.0434  0.1767 -2.9758
  820MOL0     H10660   6.819   1.013   9.557  0.5041  1.1758  1.1834
  820MOL0     H10661   6.944   0.847   9.674 -0.7273 -2.4200 -3.7426
  820MOL0     H10662   7.201   0.562   9.827 -2.1100 -0.7624 -2.1189
  820MOL0     H10663   7.335   0.412   9.975  0.3853 -1.4524  3.5811
  820MOL0     H10664   7.373   0.209  10.034  2.3183 -1.0343  1.3714
  820MOL0     H10665   7.416   0.293  10.180  1.0029 -1.1635  2.6462
  820MOL0     H10666   7.356   0.075  10.313 -1.4492 -0.4281 -0.4225
  820MOL0     H10667   7.399  -0.010  10.164  2.7612 -1.9550  2.2027
  820MOL0     H10668   7.599   0.175  10.182 -0.2458  1.4035  2.5497
  820MOL0     H10669   7.559   0.140  10.344 -2.1367  1.2207 -0.1499
  820MOL0     H10670   7.635  -0.066  10.135 -1.3987  2.8480 -0.6433
  820MOL0     H10671   7.558  -0.115  10.291  0.0469 -0.2235  1.9399
  820MOL0     H10672   7.722  -0.025  10.439  1.5394  0.0266 -0.0850
  820MOL0     H10673   7.776   0.075  10.305 -0.3774  1.5138  0.9824
  820MOL0     H10674   7.803  -0.215  10.349 -0.6385  0.4342 -0.5053
  820MOL0     H10675   7.834  -0.146  10.181 -2.6531 -0.3504 -0.0858
  820MOL0     H10676   8.035  -0.044  10.260  0.0073  1.0320  2.6315
  820MOL0     H10677   8.042  -0.208  10.327 -0.6095 -0.4275  0.5683
  820MOL0     H10678   8.111  -0.035  10.460  0.3580 -1.4678  1.4969
  820MOL0     H10679   7.945   0.032  10.492  1.1331  0.2056 -0.8200
  820MOL0     H10680   6.986   0.339  10.208  0.7443 -1.4933  0.4187
  820MOL0     H10681   6.866   0.506  10.067 -0.1039  0.4163 -4.8026
  820MOL0     H10682   6.566   0.670   9.814  2.5854 -0.3009  1.6614
  820MOL0     H10683   6.442   0.870   9.724  0.2023 -0.0027  1.5824
  820MOL0     H10684   4.758   1.610   9.582  1.8837 -1.7568 -1.0973
  820MOL0     H10685   4.577   1.768   9.611  4.7375 -2.2198  1.2998
  820MOL0     H10686   4.071   1.735   9.432 -3.8253 -0.6587  0.3495
  820MOL0     H10687   3.858   1.819   9.442  2.3242 -0.4301 -3.5401
  820MOL0     H10688   3.766   1.940   9.762 -0.4657 -1.7455 -0.3808
  820MOL0     H10689   3.618   1.917   9.675 -0.6758  1.5843  0.2415
  820MOL0     H10690   3.737   2.167   9.820 -0.2795  1.6811 -0.1510
  820MOL0     H10691   3.597   2.070   9.847  0.5201 -1.1169 -1.1834
  820MOL0     H10692   3.646   2.257   9.614 -0.8717  0.9046 -0.5746
  820MOL0     H10693   3.534   2.296   9.747  0.7400  1.4172 -0.5758
  820MOL0     H10694   3.416   2.229   9.549  0.4114  0.1028 -1.2084
  820MOL0     H10695   3.493   2.078   9.536  0.1437  0.6853 -0.1983
  820MOL0     H10696   3.152   2.017   9.788 -1.5494 -0.3178 -1.9919
  820MOL0     H10697   3.990   2.157   9.661 -0.0890  0.4957 -1.2050
  820MOL0     H10698   4.306   2.171   9.631  0.2995  0.3618 -0.3617
  820MOL0     H10699   4.201   2.166   9.776  0.5940  2.0663 -0.6293
  820MOL0     H10700   4.328   2.050   9.749  0.0717  2.5124  0.4660
  821MOL0     O10701   5.778   8.957   9.341 -0.4197  0.8522 -0.6865
  821MOL0     C10702   5.869   8.882   9.310 -0.8722 -1.0385  0.4654
  821MOL0     O10703   5.852   8.772   9.230  0.7735  0.0949  0.2618
  821MOL0     C10704   5.719   8.742   9.204 -0.7313  0.8489  0.5965
  821MOL0     C10705   5.672   8.746   9.070 -0.0977  0.4340  0.2472
  821MOL0     C10706   5.540   8.709   9.041  0.5559  0.0265 -0.1752
  821MOL0     C10707   5.468   8.635   9.137 -0.0243 -0.1947  0.6915
  821MOL0     O10708   5.347   8.584   9.125 -0.0986  0.7530 -0.4555
  821MOL0     C10709   5.282   8.592   9.002  0.3463  0.6974 -0.0115
  821MOL0     C10710   5.147   8.507   9.010 -0.0389 -0.7316 -0.4744
  821MOL0     C10711   5.117   8.458   8.871 -0.2379 -0.2902  0.3018
  821MOL0     C10712   4.984   8.392   8.882  0.4904  0.3901  0.4863
  821MOL0     C10713   4.915   8.338   8.763  0.5242 -0.7910 -0.0266
  821MOL0     C10714   4.988   8.227   8.688 -0.1214 -0.6844 -0.9568
  821MOL0     C10715   4.942   8.186   8.554 -0.5088 -0.1031 -0.8786
  821MOL0     C10716   5.007   8.058   8.504  0.4982 -0.3101  0.2721
  821MOL0     N10717   5.154   8.055   8.526 -0.2674 -0.4440 -0.2269
  821MOL0     C10718   5.240   8.126   8.447 -0.1285 -0.2221 -0.0841
  821MOL0     C10719   5.362   8.098   8.487 -0.2508  0.2271 -0.8109
  821MOL0     C10720   5.483   8.163   8.420  0.7467  0.0342 -0.2261
  821MOL0     C10721   5.597   8.171   8.513  0.6589 -0.3041 -0.2928
  821MOL0     C10722   5.723   8.221   8.456  0.3746  0.0575  0.3893
  821MOL0     C10723   5.845   8.206   8.554  0.0422 -0.4491  0.7762
  821MOL0     O10724   5.954   8.278   8.505  0.3072 -0.0707  1.1874
  821MOL0     C10725   6.063   8.295   8.578  0.5290 -0.2754 -0.4391
  821MOL0     C10726   6.144   8.400   8.535 -1.4900 -0.1270 -0.2797
  821MOL0     C10727   6.249   8.446   8.613 -0.1447 -0.0811  0.3736
  821MOL0     C10728   6.295   8.371   8.726  0.5247  0.9010  0.5235
  821MOL0     C10729   6.422   8.404   8.791  0.9107  0.4096  0.1580
  821MOL0     O10730   6.512   8.488   8.731  0.4407 -0.4594  0.3081
  821MOL0     C10731   6.632   8.487   8.799  1.2677  0.1594 -0.2403
  821MOL0     C10732   6.660   8.581   8.903 -0.2342  0.9062  0.2424
  821MOL0     C10733   6.788   8.571   8.966 -0.6189 -0.1826 -0.0513
  821MOL0     C10734   6.885   8.473   8.936 -0.1972 -0.1959 -0.4056
  821MOL0     O10735   6.991   8.449   9.011 -0.3097  0.1684  0.7456
  821MOL0     C10736   7.045   8.548   9.096 -0.4397  0.6229 -0.8436
  821MOL0     C10737   7.175   8.506   9.168  0.7149 -0.1837  0.2057
  821MOL0     C10738   7.150   8.396   9.258 -0.7657 -0.9368  0.2189
  821MOL0     C10739   7.272   8.366   9.340 -0.4188 -0.2068 -0.7676
  821MOL0     C10740   7.252   8.257   9.455  0.2882 -0.4755  0.4268
  821MOL0     C10741   7.382   8.202   9.509 -0.4155 -0.9297 -0.6865
  821MOL0     C10742   7.447   8.305   9.602  1.1857  0.5221 -0.0471
  821MOL0     C10743   7.594   8.270   9.632  0.2073  0.1371  0.5685
  821MOL0    Cl10744   7.612   8.109   9.725 -0.2494 -0.1386 -0.2275
  821MOL0     C10745   6.851   8.384   8.836  0.8184  0.9242  0.6048
  821MOL0     C10746   6.728   8.385   8.767 -0.3661 -0.2234  0.0216
  821MOL0     O10747   6.439   8.348   8.901 -0.4052  0.5841 -0.3392
  821MOL0     C10748   6.209   8.269   8.772 -0.3052 -0.6904  0.3024
  821MOL0     C10749   6.095   8.233   8.701 -0.3868  0.1697 -0.8799
  821MOL0     N10750   5.362   8.004   8.586  0.3258  0.7592 -0.5429
  821MOL0     N10751   5.235   7.968   8.590  0.3405 -0.7608 -0.1581
  821MOL0     C10752   5.515   8.633   9.268  0.5774 -0.1651  0.5412
  821MOL0     C10753   5.633   8.694   9.302  0.2435 -0.0690 -1.8801
  821MOL0     C10754   6.007   8.900   9.363  0.1876 -0.1611  0.4577
  821MOL0     C10755   6.115   8.808   9.305  0.7605 -0.2324 -0.2234
  821MOL0     C10756   6.249   8.830   9.332 -0.6504  1.1839  0.1048
  821MOL0     C10757   6.279   8.930   9.426 -0.0853 -0.1774  1.0443
  821MOL0     O10758   6.412   8.977   9.452  0.9018  0.2686 -0.0727
  821MOL0     C10759   6.519   8.887   9.470  0.0826  0.3556  0.1685
  821MOL0     C10760   6.651   8.917   9.398 -0.5150  0.2846 -0.6938
  821MOL0     C10761   6.767   8.828   9.446  0.5708 -0.3053 -0.5805
  821MOL0     C10762   6.889   8.854   9.353 -0.1062  0.4112  0.2631
  821MOL0     C10763   7.014   8.791   9.399 -0.8778 -0.1277  0.1963
  821MOL0     C10764   7.116   8.743   9.429  0.1741  0.6631  0.6414
  821MOL0     C10765   6.183   9.010   9.483  0.3128  0.6937  0.1555
  821MOL0     C10766   6.051   8.987   9.459  0.5293  0.0225  0.5467
  821MOL0     C10767   5.962   9.078   9.542 -0.3290  0.0844 -0.5198
  821MOL0     H10768   5.734   8.800   8.999  1.6907 -1.8813 -0.0744
  821MOL0     H10769   5.501   8.741   8.944  0.1961 -1.4079 -0.5317
  821MOL0     H10770   5.254   8.693   8.971  0.5837  0.8926  0.4012
  821MOL0     H10771   5.342   8.547   8.922 -1.0469  0.2931 -0.8580
  821MOL0     H10772   5.064   8.571   9.039 -1.5230 -2.8977  0.2544
  821MOL0     H10773   5.157   8.424   9.080  0.4890 -0.2828  0.0011
  821MOL0     H10774   5.197   8.392   8.837 -0.6597 -0.4232 -0.4508
  821MOL0     H10775   5.119   8.552   8.815 -0.9294  0.6923  1.8638
  821MOL0     H10776   4.990   8.313   8.958 -1.1198 -0.6716 -0.4432
  821MOL0     H10777   4.919   8.473   8.915 -2.6186 -1.0140 -1.7123
  821MOL0     H10778   4.811   8.312   8.786 -0.1619  1.7087 -0.0149
  821MOL0     H10779   4.899   8.416   8.688 -2.5070  0.4624  1.7101
  821MOL0     H10780   5.094   8.253   8.679  0.1494 -0.4284  1.8584
  821MOL0     H10781   4.982   8.143   8.759 -1.1650  0.5539  0.4933
  821MOL0     H10782   4.954   8.275   8.493 -3.5338  0.8076 -0.3076
  821MOL0     H10783   4.835   8.172   8.573 -0.5980  2.4078  1.1129
  821MOL0     H10784   4.973   7.983   8.575  2.8448  1.0152  3.0625
  821MOL0     H10785   4.981   8.030   8.402 -2.3875  1.1353  0.5179
  821MOL0     H10786   5.205   8.201   8.378  0.5685  3.5061  3.2713
  821MOL0     H10787   5.506   8.114   8.325  1.6410 -1.6477  0.8117
  821MOL0     H10788   5.467   8.270   8.401  2.4411  0.5685  1.1664
  821MOL0     H10789   5.577   8.246   8.590  6.4262  0.4857  0.8885
  821MOL0     H10790   5.621   8.078   8.566 -0.6119 -0.4757  0.0112
  821MOL0     H10791   5.708   8.329   8.450 -1.1400  0.1388  3.6919
  821MOL0     H10792   5.730   8.178   8.355 -0.7470 -0.9700  0.7236
  821MOL0     H10793   5.873   8.101   8.550  0.3040 -0.3887  0.9440
  821MOL0     H10794   5.815   8.228   8.658  0.4118 -2.2978  1.2992
  821MOL0     H10795   6.122   8.451   8.442  0.5937  1.9180  0.2276
  821MOL0     H10796   6.304   8.526   8.565  2.4220 -1.8297  0.1817
  821MOL0     H10797   6.595   8.658   8.943  0.8053  1.8274  0.1980
  821MOL0     H10798   6.813   8.637   9.048 -2.4624  1.6781 -0.9109
  821MOL0     H10799   7.070   8.638   9.038  2.0410 -1.6248 -3.6345
  821MOL0     H10800   6.972   8.571   9.174  1.1720 -2.1155  1.6920
  821MOL0     H10801   7.246   8.477   9.089 -1.2012  0.7788 -2.0049
  821MOL0     H10802   7.205   8.598   9.218 -2.3375  0.9502  0.1724
  821MOL0     H10803   7.065   8.420   9.322 -0.0011  0.1063  0.8611
  821MOL0     H10804   7.126   8.306   9.201  0.0859  1.8351 -5.1511
  821MOL0     H10805   7.295   8.456   9.396 -0.5122  0.5579 -1.9135
  821MOL0     H10806   7.359   8.354   9.275  0.0762 -0.4337 -0.0667
  821MOL0     H10807   7.200   8.176   9.403  0.8905  0.3094 -1.4858
  821MOL0     H10808   7.185   8.297   9.531  0.2062 -1.6146  0.9781
  821MOL0     H10809   7.355   8.114   9.569 -3.6783 -0.8873 -1.8530
  821MOL0     H10810   7.457   8.177   9.433  0.7287  1.0132 -0.2585
  821MOL0     H10811   7.395   8.298   9.698  0.9313 -1.0448 -0.2688
  821MOL0     H10812   7.424   8.401   9.554 -2.4121  0.0604  0.4787
  821MOL0     H10813   7.636   8.252   9.533  0.6421 -0.9949  0.9345
  821MOL0     H10814   7.657   8.353   9.664  0.2770  0.9188 -1.4835
  821MOL0     H10815   6.917   8.306   8.799 -1.8269 -0.6192 -1.2125
  821MOL0     H10816   6.713   8.321   8.681 -0.0443 -1.1528  0.6490
  821MOL0     H10817   6.238   8.214   8.861  1.7259 -0.8578 -0.4059
  821MOL0     H10818   6.030   8.164   8.754 -1.7141  2.3129  0.3988
  821MOL0     H10819   5.455   8.597   9.350  0.2597 -2.0028 -0.4361
  821MOL0     H10820   5.662   8.692   9.406  2.2572 -3.0426 -2.3709
  821MOL0     H10821   6.089   8.728   9.237  2.1421  0.2447 -1.3630
  821MOL0     H10822   6.316   8.758   9.287 -0.2413  1.1491  0.7521
  821MOL0     H10823   6.492   8.784   9.444 -1.1788 -0.4284  3.8616
  821MOL0     H10824   6.543   8.877   9.576 -0.1087 -1.4194  0.0888
  821MOL0     H10825   6.681   9.021   9.416  1.1704 -0.1854 -0.6372
  821MOL0     H10826   6.641   8.897   9.291 -1.1896  3.9369 -1.4437
  821MOL0     H10827   6.745   8.721   9.437  1.6104 -0.6864  0.9947
  821MOL0     H10828   6.783   8.857   9.550 -0.0998 -0.9311 -0.2879
  821MOL0     H10829   6.856   8.802   9.263 -0.7995 -0.6706  1.1012
  821MOL0     H10830   6.903   8.962   9.349  1.6550  0.1899  0.0317
  821MOL0     H10831   7.205   8.690   9.454  0.2701 -0.4766 -1.8058
  821MOL0     H10832   6.223   9.097   9.534  3.4646 -0.6534  0.1747
  821MOL0     H10833   5.854   9.072   9.530 -0.3939  2.9173 -2.4753
  821MOL0     H10834   5.974   9.076   9.651  0.0422  2.5122 -0.4440
  821MOL0     H10835   5.968   9.184   9.515  0.3454  0.5823  1.3855
  822MOL0     O10836   0.939   3.695   0.748  0.3568 -0.1953  0.0562
  822MOL0     C10837   0.878   3.797   0.705 -0.3564 -0.6036  0.1872
  822MOL0     O10838   0.760   3.793   0.635 -1.0833  0.5428  0.2559
  822MOL0     C10839   0.728   3.673   0.575  0.9644  0.1992  0.1353
  822MOL0     C10840   0.640   3.585   0.631 -0.1443  0.4724 -0.0789
  822MOL0     C10841   0.601   3.472   0.566 -0.0161  0.0665  0.4117
  822MOL0     C10842   0.633   3.448   0.436 -0.2957 -0.1971 -0.6433
  822MOL0     O10843   0.586   3.341   0.366 -0.5469 -0.5479  0.2303
  822MOL0     C10844   0.672   3.273   0.277  0.3315  0.1519  0.0677
  822MOL0     C10845   0.628   3.270   0.134 -0.6750  0.4415  0.1351
  822MOL0     C10846   0.695   3.154   0.055 -0.4326 -0.6024 -0.2688
  822MOL0     C10847   0.703   3.178  -0.090  0.3886  0.0365 -0.7172
  822MOL0     C10848   0.714   3.055  -0.183 -0.5228 -0.2766 -0.0504
  822MOL0     C10849   0.842   2.970  -0.157  0.3485 -0.8104 -0.3033
  822MOL0     C10850   0.974   3.038  -0.159 -0.2837 -0.0081  0.6540
  822MOL0     C10851   0.997   3.122  -0.282 -0.7218 -0.2185 -0.1127
  822MOL0     N10852   1.133   3.189  -0.274 -0.2265  0.3060  0.5199
  822MOL0     C10853   1.256   3.126  -0.254 -0.0574 -0.5482  0.3362
  822MOL0     C10854   1.345   3.230  -0.266 -0.1146 -0.0972  0.1422
  822MOL0     C10855   1.492   3.215  -0.241  0.0833 -0.5617  1.0424
  822MOL0     C10856   1.533   3.312  -0.131  0.2754  0.2667 -0.1069
  822MOL0     C10857   1.684   3.305  -0.091  1.1214 -1.0613 -0.2737
  822MOL0     C10858   1.702   3.411   0.017  0.0822 -1.3514  0.5786
  822MOL0     O10859   1.813   3.364   0.093 -0.1754 -0.8875  0.0266
  822MOL0     C10860   1.940   3.376   0.029  0.2474 -0.1813 -0.4090
  822MOL0     C10861   1.988   3.433  -0.089  0.6929  0.0444  0.1385
  822MOL0     C10862   2.123   3.427  -0.129  0.1650  0.3702  0.2857
  822MOL0     C10863   2.210   3.354  -0.048 -0.3753 -0.4709  0.2843
  822MOL0     C10864   2.360   3.341  -0.081  0.2041 -0.0018 -0.5678
  822MOL0     O10865   2.396   3.376  -0.209  0.0043  0.8452  1.0407
  822MOL0     C10866   2.524   3.375  -0.249 -0.2375  0.3207  0.3826
  822MOL0     C10867   2.636   3.310  -0.196 -0.0745 -0.6274  0.3658
  822MOL0     C10868   2.766   3.318  -0.255  0.0940 -0.5483  0.6223
  822MOL0     C10869   2.774   3.393  -0.376 -1.3654  1.2202  0.8442
  822MOL0     O10870   2.881   3.403  -0.456 -0.3029 -0.7645  0.1033
  822MOL0     C10871   3.011   3.371  -0.402  0.0795  0.1158  0.2329
  822MOL0     C10872   3.113   3.400  -0.504  0.0201 -0.2793  0.7224
  822MOL0     C10873   3.257   3.404  -0.466  0.4239  0.1545 -0.7377
  822MOL0     C10874   3.306   3.518  -0.377  0.6751  0.2588  0.2322
  822MOL0     C10875   3.443   3.497  -0.331 -0.1299 -0.3563  0.4668
  822MOL0     C10876   3.513   3.613  -0.255 -0.2423 -0.1536  0.0426
  822MOL0     C10877   3.593   3.702  -0.352  0.0942 -0.0569  0.2279
  822MOL0     C10878   3.708   3.781  -0.278 -0.6020  0.9406  0.1273
  822MOL0    Cl10879   3.798   3.881  -0.386  0.5492 -0.1507  0.1838
  822MOL0     C10880   2.662   3.461  -0.430 -0.6509  0.7932  0.3081
  822MOL0     C10881   2.544   3.462  -0.356 -0.3045  0.3151  0.4524
  822MOL0     O10882   2.430   3.322   0.012 -1.2888 -0.0373  0.5468
  822MOL0     C10883   2.161   3.298   0.068  0.3096 -0.4121 -0.2609
  822MOL0     C10884   2.028   3.302   0.107  0.4233  0.5393  0.3480
  822MOL0     N10885   1.273   3.344  -0.287  0.3877 -0.3875 -0.0708
  822MOL0     N10886   1.146   3.323  -0.293  0.0503 -0.6418 -0.0605
  822MOL0     C10887   0.721   3.541   0.375  0.8609  0.1492 -0.1250
  822MOL0     C10888   0.768   3.652   0.443 -0.5496 -0.3465  0.0173
  822MOL0     C10889   0.924   3.933   0.743 -1.2136  0.2726  0.0397
  822MOL0     C10890   0.910   4.036   0.649  0.7775  0.7178 -0.1172
  822MOL0     C10891   0.943   4.164   0.687  1.3645  0.5969 -0.0794
  822MOL0     C10892   0.996   4.193   0.808 -0.2533  0.4592  0.3453
  822MOL0     O10893   1.015   4.318   0.846 -0.3972 -0.6122 -0.5226
  822MOL0     C10894   1.157   4.342   0.866 -0.1642 -0.4629 -0.4628
  822MOL0     C10895   1.196   4.462   0.771  0.3426  1.1408  0.4928
  822MOL0     C10896   1.108   4.586   0.791 -0.3742 -0.0986  0.2015
  822MOL0     C10897   1.156   4.700   0.701 -0.6452  0.5809  1.1708
  822MOL0     C10898   1.281   4.752   0.754 -0.1730  0.3413 -0.7475
  822MOL0     C10899   1.389   4.794   0.794  0.9676 -0.7275  0.3615
  822MOL0     C10900   1.003   4.092   0.898  0.5544 -1.5843  0.8845
  822MOL0     C10901   0.973   3.962   0.870 -0.0010 -0.4905  0.5009
  822MOL0     C10902   1.000   3.854   0.968 -0.1664  0.1118 -0.8971
  822MOL0     H10903   0.606   3.607   0.732  1.1061  1.9222  0.0829
  822MOL0     H10904   0.528   3.406   0.612  0.3985  0.1614  1.2224
  822MOL0     H10905   0.771   3.320   0.277 -0.3224  1.5823  0.0044
  822MOL0     H10906   0.672   3.169   0.309 -2.1240  0.5501  1.6307
  822MOL0     H10907   0.642   3.358   0.071  0.0740 -0.1723 -0.5807
  822MOL0     H10908   0.522   3.241   0.130 -0.1477 -1.6455  0.3040
  822MOL0     H10909   0.644   3.060   0.080  0.4201 -0.8375  0.6516
  822MOL0     H10910   0.793   3.130   0.097 -1.2289  0.9695  2.8090
  822MOL0     H10911   0.614   3.234  -0.116 -0.2107  0.2433  1.5461
  822MOL0     H10912   0.792   3.239  -0.109 -0.4132  1.2539 -0.6831
  822MOL0     H10913   0.615   3.009  -0.169 -2.4272  3.6793  0.7073
  822MOL0     H10914   0.722   3.096  -0.284 -2.8771  0.1298 -0.1386
  822MOL0     H10915   0.828   2.919  -0.061 -0.1527 -2.5810 -1.2807
  822MOL0     H10916   0.842   2.890  -0.232 -2.6414 -0.9569 -0.2563
  822MOL0     H10917   1.050   2.959  -0.165  0.1525  0.5311 -2.6342
  822MOL0     H10918   0.980   3.107  -0.075 -4.1629  2.8895 -1.1493
  822MOL0     H10919   0.993   3.059  -0.371 -1.3329 -1.2532  0.6311
  822MOL0     H10920   0.921   3.200  -0.281 -0.8233 -0.2749 -1.3672
  822MOL0     H10921   1.279   3.024  -0.227  2.3119  0.1381  1.1381
  822MOL0     H10922   1.520   3.113  -0.213  1.2651 -0.3438  0.7395
  822MOL0     H10923   1.548   3.239  -0.332 -0.5054 -6.1675 -1.2400
  822MOL0     H10924   1.520   3.413  -0.172  1.4404  0.3472 -0.3271
  822MOL0     H10925   1.465   3.293  -0.047  1.3042  0.3025  0.7490
  822MOL0     H10926   1.749   3.318  -0.178  0.3987  0.7876 -0.5849
  822MOL0     H10927   1.701   3.215  -0.031 -0.2056 -0.2953  1.3282
  822MOL0     H10928   1.616   3.419   0.084 -0.2797 -1.6224  0.1434
  822MOL0     H10929   1.706   3.511  -0.028 -4.4655 -0.6074  1.3520
  822MOL0     H10930   1.921   3.491  -0.152  2.4532  1.7355 -0.2848
  822MOL0     H10931   2.148   3.470  -0.225 -4.3924 -1.3335 -1.9833
  822MOL0     H10932   2.634   3.261  -0.099  1.6907 -2.0827 -0.2843
  822MOL0     H10933   2.854   3.270  -0.215  0.9482  0.3576 -0.1029
  822MOL0     H10934   3.023   3.429  -0.310  0.3228  0.7140 -0.1702
  822MOL0     H10935   3.005   3.266  -0.371 -0.1100  0.3202  0.8925
  822MOL0     H10936   3.100   3.318  -0.575  0.6581  1.5065 -1.5872
  822MOL0     H10937   3.087   3.495  -0.551  1.5881 -0.8440 -1.4444
  822MOL0     H10938   3.269   3.307  -0.418 -2.2487  0.3671  0.5084
  822MOL0     H10939   3.319   3.406  -0.556 -2.0221 -0.4084 -2.5023
  822MOL0     H10940   3.241   3.532  -0.290  1.5286 -2.1587  1.3531
  822MOL0     H10941   3.314   3.613  -0.431  2.5388 -0.0609 -0.1264
  822MOL0     H10942   3.508   3.472  -0.415 -2.8362 -1.8835 -1.2948
  822MOL0     H10943   3.451   3.410  -0.266  1.3883  0.1196  0.9724
  822MOL0     H10944   3.445   3.672  -0.193  0.9865 -1.1925  2.5629
  822MOL0     H10945   3.584   3.574  -0.181  2.0960  2.3347 -0.7318
  822MOL0     H10946   3.530   3.773  -0.406  0.0420 -2.5110 -3.2598
  822MOL0     H10947   3.634   3.637  -0.430  0.4236  2.1021 -1.4731
  822MOL0     H10948   3.660   3.827  -0.191 -1.6339  0.1219  0.0207
  822MOL0     H10949   3.778   3.709  -0.233 -1.7345 -1.0304 -1.1122
  822MOL0     H10950   2.656   3.518  -0.522 -2.0947  0.9823  0.4899
  822MOL0     H10951   2.455   3.515  -0.389  0.5830  0.7452 -1.3494
  822MOL0     H10952   2.230   3.246   0.135 -0.3792 -1.2971 -0.2221
  822MOL0     H10953   1.983   3.257   0.195  0.1347 -0.3932 -0.2582
  822MOL0     H10954   0.754   3.513   0.276 -1.1790 -0.0253 -0.8161
  822MOL0     H10955   0.822   3.727   0.385 -2.2772  0.9895  0.0380
  822MOL0     H10956   0.866   4.025   0.550 -1.1027 -0.1602  0.7722
  822MOL0     H10957   0.921   4.240   0.613  1.3279 -0.4920 -1.2154
  822MOL0     H10958   1.226   4.259   0.850  0.8841  0.5199 -1.1142
  822MOL0     H10959   1.167   4.371   0.971 -2.6821 -1.4800  0.1471
  822MOL0     H10960   1.184   4.428   0.668  2.6214 -0.7581  0.7642
  822MOL0     H10961   1.298   4.496   0.788 -0.0427  1.2958  2.8423
  822MOL0     H10962   1.115   4.611   0.897 -2.0163 -2.2055  0.8905
  822MOL0     H10963   1.003   4.573   0.763 -0.6140  0.2273  0.9521
  822MOL0     H10964   1.183   4.667   0.601  3.6795 -0.4345  2.4557
  822MOL0     H10965   1.075   4.774   0.701 -1.6765 -0.4697 -0.7610
  822MOL0     H10966   1.485   4.815   0.839  1.2832  0.8914 -0.9779
  822MOL0     H10967   1.036   4.140   0.990  0.3703  0.6081 -0.1301
  822MOL0     H10968   1.072   3.782   0.929 -0.1135 -1.1276  1.3409
  822MOL0     H10969   1.059   3.900   1.048  2.1354 -1.1487 -1.7658
  822MOL0     H10970   0.907   3.807   1.000 -0.9448  1.0637 -1.6786
  823MOL0     O10971   6.178   0.401   8.934  0.3939  0.5097 -0.1725
  823MOL0     C10972   6.171   0.321   9.035 -0.2420 -0.1486  0.5446
  823MOL0     O10973   6.269   0.241   9.076  0.1091  0.6718 -0.2169
  823MOL0     C10974   6.396   0.276   9.036  0.7220  0.4880  0.1569
  823MOL0     C10975   6.458   0.382   9.091 -0.8815  0.1519  0.0096
  823MOL0     C10976   6.574   0.428   9.035 -0.3228  0.1110  0.7193
  823MOL0     C10977   6.643   0.354   8.942  0.2682  0.0029 -0.2346
  823MOL0     O10978   6.770   0.395   8.909 -0.1634  0.0935 -0.4129
  823MOL0     C10979   6.884   0.315   8.961  0.4245 -0.9930 -0.0467
  823MOL0     C10980   6.963   0.247   8.850  0.7561 -0.0509 -0.3339
  823MOL0     C10981   6.991   0.340   8.732  0.9958 -0.6979 -0.3713
  823MOL0     C10982   7.074   0.266   8.628  0.3688  0.0363 -0.6036
  823MOL0     C10983   7.109   0.354   8.512  0.0748 -0.4307 -0.0774
  823MOL0     C10984   7.148   0.273   8.385  0.0256 -0.1180  0.2690
  823MOL0     C10985   7.202   0.369   8.274  0.0006  0.2183 -0.1167
  823MOL0     C10986   7.217   0.305   8.134  0.3201 -0.1136 -0.2055
  823MOL0     N10987   7.099   0.224   8.098  0.1530 -0.2326  0.1935
  823MOL0     C10988   7.104   0.093   8.048 -0.5594 -0.4158 -0.1281
  823MOL0     C10989   6.972   0.051   8.027  0.1006  0.1266 -0.3389
  823MOL0     C10990   6.942  -0.078   7.976  0.2956 -1.0554  0.7148
  823MOL0     C10991   6.893  -0.080   7.832 -0.1729 -0.9582  1.0275
  823MOL0     C10992   6.836  -0.221   7.809 -0.9331  0.0103  0.2619
  823MOL0     C10993   6.797  -0.259   7.663  0.0319  0.3338 -0.9034
  823MOL0     O10994   6.890  -0.214   7.568 -0.5891  0.3446  0.5169
  823MOL0     C10995   7.022  -0.255   7.580 -1.1052  0.0884  0.0164
  823MOL0     C10996   7.066  -0.383   7.629 -0.4456 -0.6410  0.2364
  823MOL0     C10997   7.197  -0.418   7.625 -0.6379  0.4091  0.1149
  823MOL0     C10998   7.304  -0.328   7.584  0.0703  0.0172  0.1480
  823MOL0     C10999   7.450  -0.357   7.599 -0.1368  0.8543  0.0373
  823MOL0     O11000   7.530  -0.256   7.584 -0.4475 -0.3681  0.1806
  823MOL0     C11001   7.660  -0.249   7.622  0.6306 -0.2558  0.0278
  823MOL0     C11002   7.688  -0.261   7.762 -0.0316 -0.6275 -0.2823
  823MOL0     C11003   7.812  -0.221   7.814 -0.4835 -1.2486  0.3348
  823MOL0     C11004   7.913  -0.169   7.728  1.6319 -0.9970  0.4022
  823MOL0     O11005   8.035  -0.138   7.782 -0.2253 -0.3420  0.2931
  823MOL0     C11006   8.144  -0.133   7.686  0.3492  0.0144 -0.3051
  823MOL0     C11007   8.274  -0.138   7.779  1.2215  0.5095  0.8674
  823MOL0     C11008   8.400  -0.136   7.692  0.1558 -0.1928  1.3700
  823MOL0     C11009   8.512  -0.117   7.783 -0.1790  0.4244 -0.0202
  823MOL0     C11010   8.636  -0.116   7.690 -0.2115 -0.4534  0.1565
  823MOL0     C11011   8.761  -0.119   7.764 -0.0022  0.1531 -0.1133
  823MOL0     C11012   8.879  -0.111   7.663 -0.7017  0.9532 -0.5017
  823MOL0     C11013   8.994  -0.027   7.721 -0.0969  0.3803 -0.5191
  823MOL0    Cl11014   9.121  -0.001   7.605  0.3702 -0.2829  0.0231
  823MOL0     C11015   7.880  -0.154   7.586 -0.5080  0.4350  0.1360
  823MOL0     C11016   7.758  -0.200   7.531  0.1672  0.1309  0.0223
  823MOL0     O11017   7.482  -0.473   7.626  0.2772 -0.2317  0.2880
  823MOL0     C11018   7.260  -0.199   7.535 -0.2187  0.4004  0.6136
  823MOL0     C11019   7.128  -0.168   7.536  0.2091  0.5208 -0.2905
  823MOL0     N11020   6.894   0.165   8.058  0.0661 -0.2484 -0.5454
  823MOL0     N11021   6.969   0.261   8.093  0.1634  0.5943 -0.0028
  823MOL0     C11022   6.591   0.229   8.904  0.0225  0.3616 -0.8931
  823MOL0     C11023   6.463   0.188   8.941  0.1360  0.6421  0.1964
  823MOL0     C11024   6.034   0.304   9.079  0.0949 -0.1618 -0.5452
  823MOL0     C11025   5.927   0.290   8.980 -0.7958 -0.8962  0.4147
  823MOL0     C11026   5.791   0.274   9.020 -0.3098 -0.0326  0.2574
  823MOL0     C11027   5.750   0.286   9.148 -0.0716 -0.1965 -0.0920
  823MOL0     O11028   5.620   0.259   9.175  0.1007  0.0012  0.0549
  823MOL0     C11029   5.567   0.287   9.305 -0.2663 -0.7087  0.1622
  823MOL0     C11030   5.416   0.268   9.276  0.9623 -0.2129 -0.0765
  823MOL0     C11031   5.370   0.123   9.301  0.1024 -1.7947  0.5127
  823MOL0     C11032   5.217   0.118   9.292 -0.2315  0.2493  0.3872
  823MOL0     C11033   5.158   0.144   9.427  0.6285  0.3034 -0.6415
  823MOL0     C11034   5.110   0.161   9.534 -0.0020  0.3097 -0.1166
  823MOL0     C11035   5.858   0.313   9.241  0.4441  0.4081 -0.3749
  823MOL0     C11036   5.996   0.314   9.215 -0.2321  0.3259  0.2551
  823MOL0     C11037   6.101   0.359   9.321 -0.0445  0.0999 -0.5773
  823MOL0     H11038   6.406   0.422   9.178  1.0931  1.3830  0.6916
  823MOL0     H11039   6.617   0.522   9.069 -2.1734  1.9094 -1.6065
  823MOL0     H11040   6.954   0.379   9.016  0.0783 -1.6935  1.2534
  823MOL0     H11041   6.845   0.250   9.040  1.4288 -2.0086 -0.3633
  823MOL0     H11042   6.892   0.174   8.811 -0.6142  2.1694 -2.2892
  823MOL0     H11043   7.047   0.186   8.884 -1.6118 -1.4882  3.5992
  823MOL0     H11044   7.035   0.434   8.766  0.8811 -1.0100  0.6796
  823MOL0     H11045   6.894   0.368   8.689  0.1855 -1.5708  0.8196
  823MOL0     H11046   7.169   0.241   8.677 -0.6193 -1.7305  0.5470
  823MOL0     H11047   7.027   0.173   8.596  0.4520  0.1023 -0.9196
  823MOL0     H11048   7.022   0.408   8.475  0.8737  0.4666 -0.7022
  823MOL0     H11049   7.177   0.436   8.539 -3.8929  2.7396  1.2244
  823MOL0     H11050   7.222   0.194   8.401  0.4070  0.0404 -0.6726
  823MOL0     H11051   7.060   0.222   8.344 -1.6466  2.0039  1.0149
  823MOL0     H11052   7.295   0.415   8.307 -0.0500  1.1875 -1.2724
  823MOL0     H11053   7.131   0.452   8.263  2.3214  2.2039 -0.9663
  823MOL0     H11054   7.227   0.386   8.062  1.4959 -2.4956 -2.9292
  823MOL0     H11055   7.308   0.244   8.137 -1.7496 -3.4511  0.7931
  823MOL0     H11056   7.194   0.032   8.046  1.3754  2.2925 -1.1138
  823MOL0     H11057   7.022  -0.151   7.987  0.4272 -0.5889  3.4871
  823MOL0     H11058   6.855  -0.116   8.032 -1.2989 -2.9437 -2.6950
  823MOL0     H11059   6.815  -0.005   7.814 -0.0100 -0.5818  1.8373
  823MOL0     H11060   6.969  -0.044   7.762 -1.8572  1.7650  0.4319
  823MOL0     H11061   6.745  -0.231   7.870 -0.0183 -1.5263  1.4358
  823MOL0     H11062   6.904  -0.293   7.854 -0.6302  1.0400  1.5455
  823MOL0     H11063   6.698  -0.225   7.632  0.9397  2.0366 -2.0626
  823MOL0     H11064   6.801  -0.368   7.659  2.3789  0.2634  1.0034
  823MOL0     H11065   6.993  -0.456   7.663 -2.8928  1.1161 -0.8884
  823MOL0     H11066   7.229  -0.514   7.665  1.1578  1.3074  0.9160
  823MOL0     H11067   7.615  -0.302   7.831  1.6650 -1.2995  1.1933
  823MOL0     H11068   7.824  -0.219   7.922 -1.7025  2.0883  0.5339
  823MOL0     H11069   8.140  -0.218   7.617  3.7435  0.1306 -0.8138
  823MOL0     H11070   8.153  -0.045   7.622 -0.3357  1.7502  1.8657
  823MOL0     H11071   8.277  -0.054   7.848 -0.0652 -1.2747  3.2494
  823MOL0     H11072   8.259  -0.225   7.844  0.0033 -2.1145 -2.6061
  823MOL0     H11073   8.399  -0.238   7.652  2.4200 -0.3768  1.6387
  823MOL0     H11074   8.389  -0.058   7.616  1.5579 -0.1295  1.2012
  823MOL0     H11075   8.517  -0.205   7.848  1.0308 -1.2570 -2.2536
  823MOL0     H11076   8.503  -0.021   7.834  3.1099  0.2890  1.0897
  823MOL0     H11077   8.626  -0.021   7.638  3.2637 -0.3530 -0.5688
  823MOL0     H11078   8.625  -0.188   7.608  1.0263 -1.4291  0.8037
  823MOL0     H11079   8.763  -0.029   7.824 -1.3027 -0.4073  0.8093
  823MOL0     H11080   8.764  -0.214   7.818  1.0588  0.0431 -0.3447
  823MOL0     H11081   8.849  -0.071   7.566 -0.9361  0.3952 -0.6647
  823MOL0     H11082   8.914  -0.212   7.641 -1.5499  0.7247 -0.8848
  823MOL0     H11083   8.957   0.073   7.748 -3.5399 -0.9556  0.2416
  823MOL0     H11084   9.043  -0.075   7.806 -0.3926 -0.0256 -0.5745
  823MOL0     H11085   7.950  -0.096   7.526  0.4684 -1.7146 -0.9077
  823MOL0     H11086   7.730  -0.173   7.429  1.2791 -1.3027 -0.6993
  823MOL0     H11087   7.333  -0.125   7.506 -0.5636  0.2111 -0.7795
  823MOL0     H11088   7.100  -0.074   7.488 -0.3444 -0.6979 -2.5065
  823MOL0     H11089   6.661   0.174   8.842 -0.3035  1.2649 -2.1148
  823MOL0     H11090   6.424   0.093   8.905  0.4767  0.2468  0.8501
  823MOL0     H11091   5.958   0.289   8.876  0.1851  2.0626  0.5889
  823MOL0     H11092   5.710   0.253   8.952 -1.5190  2.6971  0.7212
  823MOL0     H11093   5.591   0.390   9.334  0.8718 -0.1155 -2.5200
  823MOL0     H11094   5.610   0.220   9.380  2.0143  2.4238  1.8712
  823MOL0     H11095   5.398   0.296   9.172  0.7584 -0.6506 -0.1651
  823MOL0     H11096   5.353   0.341   9.328  1.7106  1.4162 -1.3646
  823MOL0     H11097   5.404   0.079   9.395  2.0855 -1.2871  0.0900
  823MOL0     H11098   5.413   0.070   9.215 -0.4155  1.0077 -1.6447
  823MOL0     H11099   5.173   0.186   9.219  1.4191  1.6715  0.6719
  823MOL0     H11100   5.191   0.013   9.272  0.7320 -0.1646  1.1997
  823MOL0     H11101   5.056   0.178   9.625 -1.8518 -1.9063 -0.7208
  823MOL0     H11102   5.835   0.336   9.344  3.6509  1.4562  0.2143
  823MOL0     H11103   6.050   0.420   9.396 -0.8147 -0.2933 -0.7690
  823MOL0     H11104   6.154   0.272   9.360  3.3745  1.4976 -1.7564
  823MOL0     H11105   6.170   0.420   9.263  0.1880 -0.1943 -0.6151
  824MOL0     O11106   5.051   7.328   0.360 -0.6509 -0.7273  0.2622
  824MOL0     C11107   4.945   7.325   0.302 -0.8864  0.1480  0.8062
  824MOL0     O11108   4.933   7.304   0.162  0.2555 -0.1498 -0.0565
  824MOL0     C11109   5.044   7.252   0.089 -0.7476  0.0122 -1.2981
  824MOL0     C11110   5.052   7.123   0.041 -0.0468  0.0932  0.9617
  824MOL0     C11111   5.154   7.085  -0.050 -0.0298 -0.2209 -0.3189
  824MOL0     C11112   5.250   7.177  -0.084  0.0589 -0.3567  0.3246
  824MOL0     O11113   5.355   7.124  -0.158 -0.4167 -0.2696  0.5387
  824MOL0     C11114   5.422   7.218  -0.244  0.1659  0.5928  0.2204
  824MOL0     C11115   5.533   7.137  -0.319 -0.3208 -0.0953 -0.3614
  824MOL0     C11116   5.606   7.212  -0.432  0.2579  0.2452 -0.3833
  824MOL0     C11117   5.713   7.127  -0.507  0.8934  0.0318 -0.6463
  824MOL0     C11118   5.771   7.218  -0.612 -0.6498 -1.2242  0.5880
  824MOL0     C11119   5.845   7.150  -0.726 -0.5634 -0.4193 -0.2828
  824MOL0     C11120   5.873   7.237  -0.847  0.2429  0.6359 -0.5932
  824MOL0     C11121   5.991   7.197  -0.936 -0.1472  0.8751  0.4660
  824MOL0     N11122   6.134   7.220  -0.885  0.1864  0.0483  0.6208
  824MOL0     C11123   6.196   7.344  -0.879 -0.2761 -0.1471  0.2112
  824MOL0     C11124   6.303   7.317  -0.801  0.2886 -0.1348 -0.3265
  824MOL0     C11125   6.397   7.432  -0.762 -0.0998  0.5455 -0.2656
  824MOL0     C11126   6.329   7.528  -0.657  0.9007  0.0969 -0.0156
  824MOL0     C11127   6.255   7.462  -0.534 -0.0754 -0.1799  0.6227
  824MOL0     C11128   6.359   7.389  -0.437  0.1856 -0.1544  0.1075
  824MOL0     O11129   6.474   7.464  -0.415  0.0702  1.1851  0.9075
  824MOL0     C11130   6.567   7.417  -0.327 -0.9295 -0.4173 -0.0420
  824MOL0     C11131   6.559   7.295  -0.260  0.4948 -0.0626 -0.2170
  824MOL0     C11132   6.657   7.259  -0.168  0.1319 -0.2493  0.8723
  824MOL0     C11133   6.776   7.339  -0.143  1.4867  0.1473  0.5515
  824MOL0     C11134   6.880   7.293  -0.056 -0.0550 -0.4177  0.7520
  824MOL0     O11135   6.886   7.159  -0.047 -0.8620 -0.7573 -0.5580
  824MOL0     C11136   7.000   7.095  -0.001 -0.2534  0.3788  0.2410
  824MOL0     C11137   7.134   7.144   0.007  0.1730  0.2600 -0.4250
  824MOL0     C11138   7.235   7.058   0.041 -0.6474  0.3287  0.5089
  824MOL0     C11139   7.212   6.920   0.064  0.5915  0.2142 -0.1193
  824MOL0     O11140   7.316   6.835   0.064  0.3308 -0.0383 -0.0247
  824MOL0     C11141   7.295   6.695   0.062 -0.8042  1.1935 -0.7514
  824MOL0     C11142   7.432   6.617   0.054  0.0062  0.4076 -0.2702
  824MOL0     C11143   7.524   6.628   0.179 -0.4288 -0.3633  0.4267
  824MOL0     C11144   7.671   6.609   0.127 -0.4830 -0.5451 -0.3055
  824MOL0     C11145   7.775   6.606   0.241  0.4024 -0.6518 -0.9461
  824MOL0     C11146   7.767   6.736   0.331  0.0480  0.6262 -0.4499
  824MOL0     C11147   7.801   6.872   0.251  0.3119 -0.0952 -0.1101
  824MOL0     C11148   7.943   6.879   0.201 -0.5819 -0.1778 -0.3305
  824MOL0    Cl11149   7.988   7.053   0.195 -0.1113  0.3892 -0.3080
  824MOL0     C11150   7.079   6.873   0.069 -0.0735 -0.2595 -0.0735
  824MOL0     C11151   6.975   6.961   0.034 -0.2912  0.6686  0.3439
  824MOL0     O11152   6.967   7.377  -0.019  0.1190 -0.5901 -0.2679
  824MOL0     C11153   6.777   7.471  -0.192  0.0672  0.2822 -0.5584
  824MOL0     C11154   6.672   7.511  -0.279  0.5403  0.0618 -0.0968
  824MOL0     N11155   6.294   7.181  -0.748 -0.2030 -0.6140  0.5547
  824MOL0     N11156   6.190   7.125  -0.803  0.0345 -0.7729 -0.3237
  824MOL0     C11157   5.250   7.309  -0.026 -0.1343 -0.4872  0.1852
  824MOL0     C11158   5.144   7.342   0.068  0.5983  0.3701  0.9746
  824MOL0     C11159   4.816   7.318   0.384  0.4435 -0.4006 -0.4817
  824MOL0     C11160   4.686   7.315   0.316  0.6399 -0.3646  0.4224
  824MOL0     C11161   4.574   7.275   0.388 -0.1942  0.2730 -0.1024
  824MOL0     C11162   4.559   7.279   0.529 -0.1160  0.0116  0.3087
  824MOL0     O11163   4.429   7.259   0.573  0.3694 -0.2339  0.0329
  824MOL0     C11164   4.422   7.248   0.716 -1.2952  0.5993  1.0068
  824MOL0     C11165   4.294   7.179   0.752 -0.9017 -0.0147  0.2154
  824MOL0     C11166   4.275   7.033   0.680 -0.7122 -0.6349 -0.2294
  824MOL0     C11167   4.399   6.945   0.690  0.2466 -0.4831 -0.3455
  824MOL0     C11168   4.425   6.883   0.825  0.9488 -0.1922  0.7061
  824MOL0     C11169   4.450   6.840   0.933  0.2178  0.4259  0.1346
  824MOL0     C11170   4.684   7.297   0.594  0.2674 -0.1372  0.3672
  824MOL0     C11171   4.809   7.307   0.527  0.4021  0.1024  0.0470
  824MOL0     C11172   4.936   7.312   0.611  0.1653  0.1239 -0.1054
  824MOL0     H11173   4.975   7.053   0.071 -2.1072  1.9454  0.3184
  824MOL0     H11174   5.170   6.987  -0.092  0.3121 -1.7101  2.9968
  824MOL0     H11175   5.357   7.256  -0.323  0.4158 -1.9206 -1.3230
  824MOL0     H11176   5.473   7.289  -0.178  1.6436 -1.2924  1.2136
  824MOL0     H11177   5.488   7.054  -0.375  0.3272  0.0988 -1.1949
  824MOL0     H11178   5.602   7.095  -0.245  0.1434  3.5780  1.5356
  824MOL0     H11179   5.660   7.293  -0.381 -2.2220  0.3437  2.3432
  824MOL0     H11180   5.532   7.261  -0.495  0.4275  1.5330  0.3666
  824MOL0     H11181   5.792   7.086  -0.444  0.3432 -0.4767 -0.2721
  824MOL0     H11182   5.646   7.052  -0.550  0.2084  0.0070  0.4265
  824MOL0     H11183   5.694   7.283  -0.655 -0.7262 -0.6299  1.6159
  824MOL0     H11184   5.838   7.294  -0.571  0.7180 -1.2720 -1.3598
  824MOL0     H11185   5.946   7.128  -0.692 -1.1905 -1.3862  1.0336
  824MOL0     H11186   5.801   7.054  -0.753  1.5913 -1.1794 -1.2176
  824MOL0     H11187   5.884   7.339  -0.809 -1.3379  0.7141 -0.2594
  824MOL0     H11188   5.784   7.243  -0.911 -0.0723  1.1281 -0.1262
  824MOL0     H11189   5.980   7.089  -0.946 -0.2634  0.6286  2.6052
  824MOL0     H11190   5.986   7.251  -1.030  0.4804  2.5344  1.3378
  824MOL0     H11191   6.169   7.441  -0.919  3.1866  0.9418  0.2202
  824MOL0     H11192   6.477   7.375  -0.714 -0.4501 -0.0421 -0.3584
  824MOL0     H11193   6.432   7.487  -0.850 -1.6372  2.6122  0.3435
  824MOL0     H11194   6.392   7.600  -0.605 -0.7751 -0.5108  3.1279
  824MOL0     H11195   6.247   7.584  -0.702  0.5699 -1.5350 -1.5565
  824MOL0     H11196   6.175   7.391  -0.558 -2.1019  1.5514  1.9683
  824MOL0     H11197   6.211   7.544  -0.477 -0.5698  1.0930 -1.5047
  824MOL0     H11198   6.392   7.290  -0.470 -0.6295 -1.1621  2.1242
  824MOL0     H11199   6.305   7.384  -0.342  0.6226  1.4081  0.4685
  824MOL0     H11200   6.472   7.230  -0.266 -1.2867  1.6567  3.4893
  824MOL0     H11201   6.651   7.158  -0.129 -0.4735 -1.4169 -1.9704
  824MOL0     H11202   7.163   7.247  -0.011 -0.2087  0.3434 -0.5583
  824MOL0     H11203   7.335   7.097   0.057  0.0297 -1.5667  1.1871
  824MOL0     H11204   7.246   6.679   0.159  1.1560  0.7105  0.2036
  824MOL0     H11205   7.231   6.655  -0.017  0.5419 -3.2998  0.1520
  824MOL0     H11206   7.417   6.510   0.035  0.8165  0.2783 -0.1968
  824MOL0     H11207   7.469   6.651  -0.044 -1.6192 -0.5542 -1.2720
  824MOL0     H11208   7.505   6.726   0.223 -1.9198 -0.7788  0.7803
  824MOL0     H11209   7.498   6.552   0.254 -2.2441  0.9821  1.2302
  824MOL0     H11210   7.711   6.689   0.064 -1.1299 -0.8586 -1.1311
  824MOL0     H11211   7.672   6.519   0.065  1.6792 -1.3265  0.7349
  824MOL0     H11212   7.880   6.594   0.213  1.4258  1.4950  1.5399
  824MOL0     H11213   7.762   6.519   0.305 -1.5169 -1.6870 -2.6294
  824MOL0     H11214   7.665   6.737   0.371  1.1134 -0.0689  2.5228
  824MOL0     H11215   7.828   6.726   0.421 -1.9161 -1.2525  0.7461
  824MOL0     H11216   7.789   6.954   0.322 -0.7749 -0.5967  0.3000
  824MOL0     H11217   7.746   6.878   0.157  0.9112 -0.5012 -0.4944
  824MOL0     H11218   8.012   6.820   0.262 -1.2484 -0.0847  0.5405
  824MOL0     H11219   7.943   6.838   0.100  0.9452 -0.6704 -0.1533
  824MOL0     H11220   7.066   6.771   0.102  1.5600  0.4513  3.1932
  824MOL0     H11221   6.879   6.912   0.027 -0.1144  0.0227  2.0449
  824MOL0     H11222   6.856   7.539  -0.161 -1.2176  0.4514  2.7579
  824MOL0     H11223   6.664   7.610  -0.322  1.1197 -0.1096 -0.6043
  824MOL0     H11224   5.341   7.367  -0.039 -0.1531  0.2780  2.8376
  824MOL0     H11225   5.143   7.441   0.112 -0.4010  0.0130  1.7904
  824MOL0     H11226   4.673   7.322   0.208  0.2112 -0.8362  0.4439
  824MOL0     H11227   4.481   7.250   0.339  0.5633 -0.4647 -1.1868
  824MOL0     H11228   4.428   7.352   0.749 -0.2177  1.1515 -0.7752
  824MOL0     H11229   4.501   7.193   0.767  0.1471  1.3247 -0.3581
  824MOL0     H11230   4.211   7.249   0.735 -0.7272  0.7701  2.3199
  824MOL0     H11231   4.306   7.166   0.860  0.9911 -0.8865 -0.0563
  824MOL0     H11232   4.240   7.053   0.578 -1.1647  1.5838  0.2933
  824MOL0     H11233   4.196   6.976   0.729  0.1821 -1.2924  0.4860
  824MOL0     H11234   4.392   6.866   0.615  0.2920  0.6315 -1.5486
  824MOL0     H11235   4.479   7.011   0.656 -0.7866  0.5632 -0.8133
  824MOL0     H11236   4.465   6.801   1.031  1.6431  0.5048 -0.0414
  824MOL0     H11237   4.686   7.302   0.702  1.2930  0.2093  0.3386
  824MOL0     H11238   5.005   7.229   0.591  0.6181  0.0225  1.6873
  824MOL0     H11239   4.996   7.402   0.593 -0.3839  0.5408  0.1462
  824MOL0     H11240   4.918   7.298   0.718  0.9604  0.3877  0.0717
  825MOL0     O11241   0.816   6.151  11.103  0.9370 -0.0241  0.1104
  825MOL0     C11242   0.766   6.066  11.173 -0.0025 -0.0590  0.1771
  825MOL0     O11243   0.834   5.957  11.231 -0.2618  1.0192  0.1658
  825MOL0     C11244   0.970   5.973  11.276 -0.0038  0.2183  0.3399
  825MOL0     C11245   1.026   6.096  11.320  0.0316 -0.5274  0.3201
  825MOL0     C11246   1.165   6.099  11.341  0.0785 -0.8837 -0.7900
  825MOL0     C11247   1.243   5.983  11.332 -0.5853 -0.3821  1.1270
  825MOL0     O11248   1.383   5.990  11.340  0.0031 -0.7926  0.0617
  825MOL0     C11249   1.465   5.961  11.219  0.5694 -1.1587 -0.2775
  825MOL0     C11250   1.614   5.942  11.265 -0.2382  0.2485  0.5909
  825MOL0     C11251   1.703   5.875  11.149 -0.2667 -0.0852  0.1974
  825MOL0     C11252   1.847   5.836  11.211  0.0322  0.0387 -0.0972
  825MOL0     C11253   1.958   5.827  11.106  0.7041  0.6854  0.2239
  825MOL0     C11254   2.103   5.816  11.160 -0.1797 -0.7326 -0.6924
  825MOL0     C11255   2.143   5.929  11.263 -0.3110  0.1702 -0.3281
  825MOL0     C11256   2.285   5.920  11.324 -0.2691 -0.3009  0.8263
  825MOL0     N11257   2.301   5.814  11.427  0.0669  0.1512 -0.0283
  825MOL0     C11258   2.389   5.815  11.533 -0.0866  0.1446 -0.3331
  825MOL0     C11259   2.346   5.707  11.614  0.3769 -1.0498 -0.9321
  825MOL0     C11260   2.418   5.668  11.737 -0.0093 -0.8464 -0.4181
  825MOL0     C11261   2.565   5.623  11.704  0.4112  0.5054 -0.7383
  825MOL0     C11262   2.624   5.555  11.826  0.0262 -0.1429  0.9512
  825MOL0     C11263   2.779   5.538  11.798  0.2701 -0.2650 -0.5221
  825MOL0     O11264   2.821   5.481  11.930 -0.3364 -0.6723  0.5203
  825MOL0     C11265   2.960   5.465  11.941 -0.6391  0.2275  0.6699
  825MOL0     C11266   3.067   5.523  11.864 -0.4491 -0.2048  0.2063
  825MOL0     C11267   3.201   5.481  11.899 -0.1534  0.1016  0.9208
  825MOL0     C11268   3.228   5.375  11.986 -0.8689 -0.6011 -0.4767
  825MOL0     C11269   3.378   5.333  11.999 -0.5837  0.0918 -0.4350
  825MOL0     O11270   3.476   5.404  11.936  0.0255  0.9443 -0.4482
  825MOL0     C11271   3.604   5.382  11.978  0.2697  0.6508 -0.4564
  825MOL0     C11272   3.641   5.367  12.114 -0.1356  0.0082 -0.1956
  825MOL0     C11273   3.773   5.357  12.157 -0.3825 -0.6172  0.7021
  825MOL0     C11274   3.873   5.350  12.058 -0.0115 -0.1632 -0.1685
  825MOL0     O11275   3.994   5.393  12.109  0.6910 -0.2136 -0.5921
  825MOL0     C11276   4.092   5.439  12.019 -0.1663  0.8528 -0.9592
  825MOL0     C11277   4.225   5.439  12.096 -0.3274 -0.2386 -0.5325
  825MOL0     C11278   4.229   5.537  12.232 -0.7022 -0.3486  0.7783
  825MOL0     C11279   4.316   5.470  12.336 -0.3885  1.4097 -0.4704
  825MOL0     C11280   4.456   5.476  12.279 -0.3250 -0.3841 -0.3838
  825MOL0     C11281   4.565   5.463  12.387  0.2365  0.6037  0.1644
  825MOL0     C11282   4.705   5.501  12.332 -0.7992  0.4626  0.1131
  825MOL0     C11283   4.804   5.498  12.457 -0.7612  0.7830 -0.3325
  825MOL0    Cl11284   4.970   5.461  12.412  0.1826 -0.1182 -0.2932
  825MOL0     C11285   3.838   5.345  11.918 -0.4751  0.5642 -1.0918
  825MOL0     C11286   3.708   5.367  11.881  0.1829  0.1083  0.7716
  825MOL0     O11287   3.394   5.235  12.081 -0.4282 -0.3985  0.5146
  825MOL0     C11288   3.125   5.309  12.056 -0.0448 -0.4118  0.7611
  825MOL0     C11289   3.003   5.365  12.036  0.6320  0.3432 -0.2900
  825MOL0     N11290   2.232   5.652  11.568 -0.5140 -0.0195  0.2910
  825MOL0     N11291   2.206   5.713  11.454 -0.1728  0.0981  0.2813
  825MOL0     C11292   1.177   5.864  11.295 -1.0115  0.4363 -0.1468
  825MOL0     C11293   1.045   5.855  11.274 -0.5168  0.9543  0.5812
  825MOL0     C11294   0.624   6.074  11.178  0.0828  0.4154 -0.0725
  825MOL0     C11295   0.568   6.007  11.288  1.0082 -0.7723  0.3743
  825MOL0     C11296   0.432   6.013  11.314 -0.0411  0.3886  0.1963
  825MOL0     C11297   0.347   6.084  11.228 -0.6213  0.4574 -0.7689
  825MOL0     O11298   0.209   6.082  11.231  0.0465 -0.1070 -0.3950
  825MOL0     C11299   0.157   6.078  11.363 -0.1300 -0.0477 -0.8164
  825MOL0     C11300   0.014   6.105  11.347  0.0075  0.1243  0.3702
  825MOL0     C11301  -0.059   5.987  11.276  0.6703  0.1236 -1.1267
  825MOL0     C11302  -0.206   6.017  11.263  1.0365  0.0701 -0.6206
  825MOL0     C11303  -0.280   5.898  11.220 -0.6924  1.1281 -1.4097
  825MOL0     C11304  -0.366   5.815  11.200 -0.6412  0.7274  0.0897
  825MOL0     C11305   0.394   6.139  11.114  0.1592  0.2959 -0.7567
  825MOL0     C11306   0.530   6.124  11.084 -0.3081  0.0173 -0.2410
  825MOL0     C11307   0.573   6.196  10.962  0.0405 -0.5922  0.2178
  825MOL0     H11308   0.975   6.191  11.330 -0.1770 -0.2303 -2.7146
  825MOL0     H11309   1.214   6.192  11.368 -3.7949  0.7257  1.5433
  825MOL0     H11310   1.423   5.874  11.168 -1.8487 -1.5261  2.0644
  825MOL0     H11311   1.459   6.045  11.149 -2.0263 -2.7020 -2.0703
  825MOL0     H11312   1.620   5.876  11.351 -0.8441 -1.8398 -0.8890
  825MOL0     H11313   1.664   6.029  11.307 -0.6044  0.2218  1.0938
  825MOL0     H11314   1.714   5.946  11.067  4.4401  1.1409  1.5305
  825MOL0     H11315   1.649   5.792  11.102 -2.0028  1.9019 -1.4781
  825MOL0     H11316   1.871   5.914  11.284 -0.4314 -1.4125  1.6712
  825MOL0     H11317   1.840   5.751  11.279 -0.7149  0.8288  0.8541
  825MOL0     H11318   1.937   5.736  11.049  1.0617  0.1030  1.0060
  825MOL0     H11319   1.947   5.910  11.035  1.5653  0.0979 -0.6238
  825MOL0     H11320   2.110   5.716  11.204 -0.6784 -1.1185 -1.4728
  825MOL0     H11321   2.173   5.824  11.076  2.1127 -0.5091  1.1268
  825MOL0     H11322   2.074   5.935  11.348  0.2202  1.2834  0.0385
  825MOL0     H11323   2.139   6.029  11.219 -2.4006 -0.1076 -0.8774
  825MOL0     H11324   2.360   5.909  11.245 -1.8281 -1.0537 -0.6088
  825MOL0     H11325   2.304   6.016  11.374 -2.2324 -1.0257  3.1919
  825MOL0     H11326   2.459   5.894  11.560 -0.2257  0.5113 -1.0237
  825MOL0     H11327   2.415   5.747  11.812 -2.7434 -2.0813  0.9253
  825MOL0     H11328   2.356   5.592  11.786 -1.4363  0.2500 -0.4768
  825MOL0     H11329   2.571   5.549  11.624 -1.4342 -1.4091  0.7716
  825MOL0     H11330   2.627   5.710  11.680  2.6007 -0.7030  0.2752
  825MOL0     H11331   2.577   5.457  11.837 -0.0445 -0.2335 -0.0413
  825MOL0     H11332   2.611   5.625  11.908  0.8813  1.2533 -0.0696
  825MOL0     H11333   2.827   5.636  11.788  1.5547 -0.9978 -1.9339
  825MOL0     H11334   2.804   5.472  11.715  0.0654 -0.6708 -0.2655
  825MOL0     H11335   3.055   5.589  11.779  1.2838 -1.5293 -1.1354
  825MOL0     H11336   3.270   5.540  11.839 -0.7784 -2.0563 -2.1695
  825MOL0     H11337   3.559   5.388  12.182 -0.6896  0.4187 -0.9690
  825MOL0     H11338   3.785   5.351  12.265 -5.3166  0.9381  1.6045
  825MOL0     H11339   4.108   5.366  11.939  1.5731 -1.9889  1.7204
  825MOL0     H11340   4.076   5.538  11.977 -1.0111 -0.1669 -3.1926
  825MOL0     H11341   4.236   5.334  12.121 -1.3458 -0.7984 -2.2315
  825MOL0     H11342   4.301   5.477  12.026  0.0587  1.8454  0.9044
  825MOL0     H11343   4.262   5.637  12.205  0.1971 -1.3161 -2.1182
  825MOL0     H11344   4.127   5.549  12.271 -1.3517  0.0846 -0.9325
  825MOL0     H11345   4.284   5.368  12.358 -1.5809  2.3281  2.6110
  825MOL0     H11346   4.314   5.533  12.426  1.4185 -0.3675  0.8912
  825MOL0     H11347   4.474   5.577  12.241 -1.0166  1.1394  3.0060
  825MOL0     H11348   4.469   5.402  12.199  0.9902 -0.0290 -0.5162
  825MOL0     H11349   4.544   5.522  12.477  0.6615 -0.8616  1.2606
  825MOL0     H11350   4.561   5.357  12.412 -3.5049  0.2354 -1.2618
  825MOL0     H11351   4.693   5.604  12.298 -2.8706  0.4149  0.6049
  825MOL0     H11352   4.741   5.430  12.258  0.4772  1.5097 -0.3233
  825MOL0     H11353   4.805   5.603  12.489 -1.1275  0.3731  1.0489
  825MOL0     H11354   4.767   5.435  12.538  1.8292 -0.5342 -0.0473
  825MOL0     H11355   3.917   5.347  11.844  1.9713 -1.2977  1.2408
  825MOL0     H11356   3.670   5.375  11.780  1.5688  0.1224  0.2428
  825MOL0     H11357   3.136   5.240  12.139 -0.3559 -0.5951  0.6519
  825MOL0     H11358   2.919   5.321  12.090  0.3214 -0.0056 -1.0442
  825MOL0     H11359   1.225   5.767  11.294  0.7919  1.2161  1.8527
  825MOL0     H11360   1.011   5.756  11.245  0.3788  0.4692  1.1517
  825MOL0     H11361   0.626   5.959  11.366  1.8617 -0.9178 -0.3209
  825MOL0     H11362   0.403   5.959  11.403  2.0058  0.1001  0.7466
  825MOL0     H11363   0.198   6.152  11.433 -1.6452  0.2098 -0.1573
  825MOL0     H11364   0.174   5.977  11.401 -0.7232 -0.0573 -0.5635
  825MOL0     H11365   0.009   6.200  11.293  1.9723  1.7372  2.7567
  825MOL0     H11366  -0.026   6.128  11.446  1.5082  1.8803  0.6256
  825MOL0     H11367  -0.047   5.892  11.331 -0.9362 -0.4787 -1.7771
  825MOL0     H11368  -0.016   5.974  11.176  2.3417 -2.0521 -0.2063
  825MOL0     H11369  -0.252   6.042  11.359  1.0229 -5.2463  1.0629
  825MOL0     H11370  -0.217   6.098  11.191  0.6628  1.1916  0.6564
  825MOL0     H11371  -0.446   5.748  11.174 -0.8890  0.4162  1.5463
  825MOL0     H11372   0.333   6.195  11.044 -1.4900 -0.7977 -0.2386
  825MOL0     H11373   0.661   6.260  10.974  1.4199 -2.0552 -1.4999
  825MOL0     H11374   0.596   6.115  10.891 -2.5395 -0.3283 -1.0516
  825MOL0     H11375   0.492   6.259  10.923 -0.8231 -0.1802  2.5631
  826MOL0     O11376   2.229   9.317   0.944  0.3208  0.3709  0.4957
  826MOL0     C11377   2.143   9.400   0.963  0.1279 -0.0696  0.5958
  826MOL0     O11378   2.159   9.522   1.030 -0.2597  0.7120  0.4932
  826MOL0     C11379   2.283   9.583   1.030  0.1510 -0.3110 -0.9749
  826MOL0     C11380   2.386   9.566   0.936 -0.0396 -0.1487  0.3773
  826MOL0     C11381   2.512   9.623   0.951  0.5724  0.8509  0.5320
  826MOL0     C11382   2.548   9.693   1.066  0.6665 -0.9813 -1.4841
  826MOL0     O11383   2.663   9.763   1.095  0.0571 -0.2666  0.2760
  826MOL0     C11384   2.727   9.822   0.976  0.2197  0.0321  0.0106
  826MOL0     C11385   2.802   9.945   1.024  0.0837 -0.6890  0.0309
  826MOL0     C11386   2.944   9.911   1.087  0.1940 -0.2652 -0.1786
  826MOL0     C11387   3.056   9.896   0.979  0.1471  0.1103  0.4839
  826MOL0     C11388   3.189   9.923   1.042 -0.6339 -0.1420 -0.5560
  826MOL0     C11389   3.228   9.854   1.176  0.0677  0.2012  0.5486
  826MOL0     C11390   3.373   9.843   1.215 -0.5775  0.3899  0.0835
  826MOL0     C11391   3.445   9.739   1.134 -0.5639  0.2948 -0.2205
  826MOL0     N11392   3.591   9.752   1.153 -0.1414 -0.5406 -0.0916
  826MOL0     C11393   3.660   9.832   1.072  0.1967  0.0709  0.8999
  826MOL0     C11394   3.786   9.819   1.123 -0.2635 -0.1677 -0.4162
  826MOL0     C11395   3.922   9.877   1.070 -0.0115 -0.0207 -0.3119
  826MOL0     C11396   4.012   9.763   1.033 -0.0732 -0.8438  0.1269
  826MOL0     C11397   3.987   9.723   0.882  0.1759 -0.6822  0.8124
  826MOL0     C11398   4.083   9.610   0.851 -0.0197 -0.1233 -0.1245
  826MOL0     O11399   4.222   9.643   0.867 -0.0493 -0.3431 -0.6524
  826MOL0     C11400   4.327   9.563   0.829  1.0088 -0.0547 -0.3280
  826MOL0     C11401   4.454   9.613   0.849  0.2896 -0.0382 -1.2155
  826MOL0     C11402   4.568   9.546   0.802  0.1384 -0.8475  0.4018
  826MOL0     C11403   4.555   9.419   0.731  0.8111  0.0108 -0.6369
  826MOL0     C11404   4.683   9.360   0.674  0.0722  0.2282 -0.0399
  826MOL0     O11405   4.804   9.435   0.689  0.0390  0.3893 -0.2113
  826MOL0     C11406   4.927   9.365   0.675 -0.4434  0.6966 -0.0045
  826MOL0     C11407   4.942   9.252   0.753 -0.2289  0.0606  0.5224
  826MOL0     C11408   5.070   9.188   0.750 -0.5471  0.3586 -0.2095
  826MOL0     C11409   5.180   9.243   0.685 -0.8081  0.1355  0.5347
  826MOL0     O11410   5.305   9.184   0.689 -0.1314 -0.1742  0.2479
  826MOL0     C11411   5.320   9.039   0.702  0.4273 -0.6076  0.0654
  826MOL0     C11412   5.453   8.994   0.663 -0.4020  0.2172 -0.4101
  826MOL0     C11413   5.484   9.042   0.517 -0.5590  0.2893  1.0473
  826MOL0     C11414   5.600   8.966   0.455 -0.1822  0.2884 -0.1350
  826MOL0     C11415   5.640   9.024   0.323  0.0918  0.0003 -0.1493
  826MOL0     C11416   5.749   8.940   0.250 -0.0062 -0.1117 -0.3337
  826MOL0     C11417   5.778   9.000   0.110  0.0484  0.0373 -0.7059
  826MOL0     C11418   5.914   8.940   0.060  0.1121 -0.2223  0.1646
  826MOL0    Cl11419   5.979   9.035  -0.078  0.0323 -0.2067  0.2001
  826MOL0     C11420   5.159   9.348   0.605 -0.5517  0.8635  0.3736
  826MOL0     C11421   5.035   9.409   0.591  0.3424 -0.0204  0.6743
  826MOL0     O11422   4.663   9.245   0.636  0.0001 -0.2164 -0.0058
  826MOL0     C11423   4.424   9.380   0.705  0.9242  0.1934  0.3635
  826MOL0     C11424   4.310   9.446   0.748  0.4867  1.0131 -0.4253
  826MOL0     N11425   3.784   9.734   1.236 -0.5202  0.2670  0.1207
  826MOL0     N11426   3.667   9.695   1.256 -0.3318 -0.1026  0.7598
  826MOL0     C11427   2.458   9.686   1.172 -0.3733 -0.2508  0.0540
  826MOL0     C11428   2.328   9.638   1.153 -0.2870  0.5483 -0.4959
  826MOL0     C11429   2.009   9.366   0.926 -0.1564 -0.3349 -0.7841
  826MOL0     C11430   1.967   9.231   0.935 -0.1107  0.5090 -0.1381
  826MOL0     C11431   1.839   9.190   0.911 -0.1221  0.0109 -0.0479
  826MOL0     C11432   1.732   9.283   0.886 -0.0855  0.4847  0.4080
  826MOL0     O11433   1.599   9.240   0.882 -0.0484 -0.6032  0.2102
  826MOL0     C11434   1.529   9.231   1.009 -1.0099  1.1640 -0.1338
  826MOL0     C11435   1.388   9.196   0.976 -0.2103 -0.2181  0.2797
  826MOL0     C11436   1.372   9.074   0.884 -0.2240  0.0654  0.3234
  826MOL0     C11437   1.224   9.050   0.855 -0.6508 -0.5049  0.0604
  826MOL0     C11438   1.159   8.970   0.961 -0.2294  0.4652 -0.5464
  826MOL0     C11439   1.091   8.907   1.031 -0.0323 -0.7011 -0.9592
  826MOL0     C11440   1.770   9.415   0.872 -0.2120  0.2972 -0.6427
  826MOL0     C11441   1.907   9.462   0.888 -0.5479 -0.5305 -0.9548
  826MOL0     C11442   1.937   9.614   0.864  0.4011 -0.1401 -1.0543
  826MOL0     H11443   2.367   9.500   0.851 -0.0905 -1.5428  1.4403
  826MOL0     H11444   2.587   9.600   0.876  0.3939  1.4657  0.1663
  826MOL0     H11445   2.801   9.758   0.928 -0.1749 -0.0801 -0.4534
  826MOL0     H11446   2.651   9.845   0.901  0.8098  2.8095  0.1560
  826MOL0     H11447   2.740   9.994   1.099  1.3302 -2.0201  2.0028
  826MOL0     H11448   2.813  10.007   0.935 -1.3722  0.5699  0.6761
  826MOL0     H11449   2.949   9.827   1.157  1.3021  1.0731  1.4128
  826MOL0     H11450   2.967   9.999   1.148  0.3339 -1.1191  1.0214
  826MOL0     H11451   3.033   9.801   0.930 -2.3515  0.9257 -0.1057
  826MOL0     H11452   3.046   9.970   0.899  0.1190 -2.6348 -2.2409
  826MOL0     H11453   3.277   9.903   0.981  2.5405  0.3613  3.4359
  826MOL0     H11454   3.175  10.030   1.059 -1.5628 -0.1801 -1.0128
  826MOL0     H11455   3.173   9.906   1.255 -1.9974  0.4058 -0.9464
  826MOL0     H11456   3.193   9.751   1.176  0.7793 -0.0478  0.3867
  826MOL0     H11457   3.387   9.811   1.319  2.0216 -1.7912 -0.8354
  826MOL0     H11458   3.412   9.945   1.205 -3.3697  1.4222 -1.3322
  826MOL0     H11459   3.412   9.639   1.163  0.6153 -0.0292  0.0697
  826MOL0     H11460   3.418   9.758   1.030 -1.5082 -0.8835 -0.2144
  826MOL0     H11461   3.635   9.887   0.982  1.0533  0.1948  0.7296
  826MOL0     H11462   3.902   9.943   0.985  3.4356  1.1090 -0.3786
  826MOL0     H11463   3.966   9.927   1.156  2.1020 -3.0473  0.5365
  826MOL0     H11464   4.117   9.795   1.042  0.7676 -2.7239 -1.9356
  826MOL0     H11465   4.019   9.679   1.102  4.8773 -0.4446  0.5022
  826MOL0     H11466   4.003   9.812   0.820  1.0575 -3.8916 -4.1571
  826MOL0     H11467   3.890   9.677   0.860 -2.0728  2.5289  3.2317
  826MOL0     H11468   4.062   9.584   0.746 -0.6378  1.9349 -0.5452
  826MOL0     H11469   4.060   9.519   0.908 -0.9197 -1.4655 -2.4755
  826MOL0     H11470   4.478   9.694   0.916  0.3425 -0.8539 -0.2150
  826MOL0     H11471   4.663   9.591   0.827  0.0150 -2.0317  3.3215
  826MOL0     H11472   4.860   9.223   0.818  0.3029 -0.1773  1.1057
  826MOL0     H11473   5.103   9.117   0.826 -0.0536  1.1005  0.2907
  826MOL0     H11474   5.294   9.036   0.809 -1.6076  0.1893 -0.3613
  826MOL0     H11475   5.240   8.984   0.651 -0.9708  1.2172  0.1625
  826MOL0     H11476   5.528   9.030   0.734 -1.5899 -2.6606  2.5746
  826MOL0     H11477   5.459   8.885   0.673 -2.0858  0.2379  1.3203
  826MOL0     H11478   5.397   9.019   0.456 -0.5982  1.6238  0.5592
  826MOL0     H11479   5.511   9.148   0.523 -0.5094  0.2997  0.7080
  826MOL0     H11480   5.574   8.862   0.434 -0.4798  0.5943 -1.3606
  826MOL0     H11481   5.686   8.963   0.524  1.0470 -0.6120 -1.6226
  826MOL0     H11482   5.677   9.126   0.338  2.3191 -0.8806  0.8969
  826MOL0     H11483   5.545   9.022   0.269 -0.2348  0.7248  0.3892
  826MOL0     H11484   5.839   8.932   0.312 -0.0343  0.4317 -0.2174
  826MOL0     H11485   5.718   8.837   0.231 -1.8940  0.2872  0.3185
  826MOL0     H11486   5.784   9.108   0.122 -2.7215 -0.0219  3.6170
  826MOL0     H11487   5.691   8.973   0.049 -0.3594 -0.9185  0.2407
  826MOL0     H11488   5.989   8.942   0.139 -0.0713 -0.3582  0.3453
  826MOL0     H11489   5.883   8.842   0.023  1.5442 -0.1598 -1.3040
  826MOL0     H11490   5.247   9.387   0.555  0.6630 -1.0269  0.9126
  826MOL0     H11491   5.013   9.497   0.532  0.4435 -1.8223 -2.2470
  826MOL0     H11492   4.409   9.291   0.646  4.0799  0.3025 -0.8188
  826MOL0     H11493   4.212   9.415   0.712  0.3744 -0.7696  1.2401
  826MOL0     H11494   2.488   9.739   1.261  2.1701  2.0790 -1.9991
  826MOL0     H11495   2.262   9.642   1.239 -1.2128 -0.0158 -1.1499
  826MOL0     H11496   2.037   9.153   0.962 -0.7428 -0.0940 -0.1976
  826MOL0     H11497   1.815   9.084   0.918 -1.3090  0.2990  0.4839
  826MOL0     H11498   1.528   9.317   1.075 -2.3220 -1.6456  3.9012
  826MOL0     H11499   1.578   9.142   1.051  0.4022  1.1250 -1.7284
  826MOL0     H11500   1.350   9.282   0.920  1.4995 -1.3083 -2.8051
  826MOL0     H11501   1.330   9.188   1.069  0.0035  2.1319  0.6529
  826MOL0     H11502   1.406   8.988   0.941 -1.1731 -0.9855 -0.6495
  826MOL0     H11503   1.436   9.082   0.795  0.2412 -2.8932  0.2935
  826MOL0     H11504   1.179   9.146   0.827  1.2547 -0.2917 -2.6632
  826MOL0     H11505   1.217   8.997   0.760  2.0491  2.9533 -2.3255
  826MOL0     H11506   1.017   8.855   1.088 -0.9070  2.1128  0.6512
  826MOL0     H11507   1.701   9.494   0.847 -1.9103  0.3016  3.3756
  826MOL0     H11508   2.029   9.622   0.806 -0.1957 -0.6971 -2.0974
  826MOL0     H11509   1.844   9.648   0.818 -0.8066 -2.8500 -0.8606
  826MOL0     H11510   1.950   9.669   0.958 -3.3159  2.2035 -1.7180
  827MOL0     O11511  10.339   6.824  10.488 -0.9258  0.4898 -0.0135
  827MOL0     C11512  10.315   6.828  10.372  0.0433 -0.1059  0.0129
  827MOL0     O11513  10.400   6.831  10.271 -0.2895 -0.2459  1.3907
  827MOL0     C11514  10.536   6.863  10.295 -0.3148  0.5011  1.2816
  827MOL0     C11515  10.587   6.985  10.259 -0.8835 -0.2062  0.3204
  827MOL0     C11516  10.725   7.011  10.270  0.0134 -0.0635 -0.6531
  827MOL0     C11517  10.808   6.914  10.334 -0.6261 -0.0536 -0.0415
  827MOL0     O11518  10.939   6.943  10.364  0.2024  0.2040  0.3054
  827MOL0     C11519  11.039   6.846  10.391  0.3420  0.1522 -0.0698
  827MOL0     C11520  11.160   6.913  10.428  0.0864 -0.7802  0.5564
  827MOL0     C11521  11.241   6.987  10.324  0.3077 -0.9594  0.5515
  827MOL0     C11522  11.366   7.042  10.399 -0.1409  0.6700  0.5233
  827MOL0     C11523  11.454   7.120  10.302  0.0925 -0.0749  0.2207
  827MOL0     C11524  11.595   7.128  10.353 -0.3042 -0.2511  0.6836
  827MOL0     C11525  11.678   7.198  10.252 -0.4793 -0.1369  0.2758
  827MOL0     C11526  11.824   7.216  10.313  0.3648  0.3951 -0.0530
  827MOL0     N11527  11.924   7.270  10.213  0.1656  0.0443  0.3043
  827MOL0     C11528  12.002   7.379  10.236 -0.1090  0.0414 -0.0455
  827MOL0     C11529  12.090   7.381  10.129 -0.5802 -0.0174 -1.0013
  827MOL0     C11530  12.201   7.474  10.101 -0.3714  0.5105  0.0315
  827MOL0     C11531  12.342   7.408  10.115  0.6580 -0.7729 -0.0445
  827MOL0     C11532  12.423   7.509  10.180  0.4250 -0.7889 -0.2086
  827MOL0     C11533  12.575   7.477  10.188 -0.1993  0.4337 -0.2576
  827MOL0     O11534  12.619   7.431  10.054  0.3636  0.3942  0.7601
  827MOL0     C11535  12.739   7.380  10.039 -1.1845  1.2303  0.0224
  827MOL0     C11536  12.835   7.376  10.141  0.0712 -0.2423  0.3597
  827MOL0     C11537  12.968   7.334  10.119  0.0465  0.3797 -0.1044
  827MOL0     C11538  13.005   7.288   9.992 -0.4021  0.3876  0.0087
  827MOL0     C11539  13.141   7.247   9.970  0.1393 -1.3787 -0.9714
  827MOL0     O11540  13.185   7.246   9.842  0.3487  0.7985  0.3866
  827MOL0     C11541  13.313   7.207   9.802 -0.7289 -0.1083 -1.0076
  827MOL0     C11542  13.425   7.196   9.879  0.4536 -0.1343 -0.2323
  827MOL0     C11543  13.548   7.156   9.827  0.3202  0.1205 -0.7395
  827MOL0     C11544  13.560   7.113   9.699 -0.6617  0.5401 -0.6948
  827MOL0     O11545  13.683   7.075   9.646  0.6768 -0.2094 -0.1530
  827MOL0     C11546  13.747   7.179   9.577  0.6240 -0.0296 -0.8103
  827MOL0     C11547  13.843   7.135   9.463  0.6293  0.3131 -0.1002
  827MOL0     C11548  13.908   7.244   9.380  0.2840 -0.4296 -0.3240
  827MOL0     C11549  14.005   7.181   9.269 -0.9700  0.3729 -0.0118
  827MOL0     C11550  14.047   7.255   9.151 -0.5518 -0.8458  0.3452
  827MOL0     C11551  14.152   7.368   9.187 -0.1004  0.8505  0.8447
  827MOL0     C11552  14.191   7.438   9.056  0.7046 -0.6371  0.9840
  827MOL0     C11553  14.306   7.528   9.066 -0.6618 -0.6060  0.2856
  827MOL0    Cl11554  14.335   7.585   8.897  0.1390 -0.4194 -0.1182
  827MOL0     C11555  13.445   7.112   9.624  0.1335  0.1206  0.6573
  827MOL0     C11556  13.326   7.171   9.666 -0.1310 -0.3148  0.3500
  827MOL0     O11557  13.202   7.219  10.070  0.1859 -0.8226  0.3426
  827MOL0     C11558  12.906   7.281   9.891  0.6631 -0.2955  0.2955
  827MOL0     C11559  12.774   7.323   9.914  0.8469 -0.7962  0.0321
  827MOL0     N11560  12.061   7.268  10.046 -0.9539 -0.6109  0.4834
  827MOL0     N11561  11.961   7.210  10.096 -0.2180  0.3130  0.5649
  827MOL0     C11562  10.751   6.795  10.381 -0.6386 -0.2958  0.1408
  827MOL0     C11563  10.618   6.765  10.360  0.3465 -0.3441 -0.1128
  827MOL0     C11564  10.171   6.828  10.326 -0.6156  0.2313  0.0629
  827MOL0     C11565  10.146   6.873  10.190 -0.3700  0.4563 -0.4353
  827MOL0     C11566  10.022   6.883  10.133  0.4399  0.8998  0.4379
  827MOL0     C11567   9.913   6.826  10.196  0.3237  0.6253 -0.5036
  827MOL0     O11568   9.796   6.807  10.125 -0.7485 -0.2293  0.5179
  827MOL0     C11569   9.679   6.752  10.179  0.1739 -0.3810  0.3662
  827MOL0     C11570   9.566   6.739  10.079  0.3157 -0.1619 -0.3775
  827MOL0     C11571   9.447   6.665  10.147 -0.3677 -0.2294  0.2837
  827MOL0     C11572   9.354   6.609  10.035 -0.2446 -0.0004 -0.4320
  827MOL0     C11573   9.242   6.542  10.101  0.1743  0.0197  0.5555
  827MOL0     C11574   9.142   6.499  10.170  0.2421  0.2488 -0.4713
  827MOL0     C11575   9.929   6.785  10.331 -0.5574  0.9385  0.5977
  827MOL0     C11576  10.056   6.786  10.396  0.2126 -0.4590  0.1809
  827MOL0     C11577  10.064   6.749  10.542 -0.2803 -0.4017  0.1448
  827MOL0     H11578  10.519   7.059  10.216 -1.1070  0.5427  1.8830
  827MOL0     H11579  10.763   7.111  10.248  0.6434 -0.2697 -0.5390
  827MOL0     H11580  11.012   6.776  10.471  2.7589 -0.4099  0.3479
  827MOL0     H11581  11.064   6.788  10.302 -0.6644  1.3396 -1.1628
  827MOL0     H11582  11.231   6.848  10.481  2.3801  1.0623 -0.1130
  827MOL0     H11583  11.135   6.986  10.505  0.0179  0.3364 -0.5019
  827MOL0     H11584  11.188   7.067  10.273 -1.1464 -0.9092  2.0755
  827MOL0     H11585  11.270   6.916  10.245 -2.8795  0.8307 -2.4857
  827MOL0     H11586  11.338   7.108  10.481  0.3338  2.1810 -0.4789
  827MOL0     H11587  11.426   6.953  10.421  0.1452  0.6200 -0.3866
  827MOL0     H11588  11.455   7.068  10.206  0.4654 -0.0845  0.2271
  827MOL0     H11589  11.413   7.222  10.294 -4.5157 -1.5045  2.1595
  827MOL0     H11590  11.596   7.187  10.445 -0.3773 -0.4041  0.7817
  827MOL0     H11591  11.646   7.036  10.383  0.1219  0.4996  2.3435
  827MOL0     H11592  11.633   7.296  10.235  1.5898  0.9944  1.0680
  827MOL0     H11593  11.690   7.142  10.159  1.6894  1.2886 -0.3766
  827MOL0     H11594  11.819   7.288  10.394  1.7885  0.9763 -0.4490
  827MOL0     H11595  11.864   7.122  10.353 -0.2647 -0.1677 -0.7186
  827MOL0     H11596  12.002   7.446  10.321 -1.7979 -1.0428  0.8622
  827MOL0     H11597  12.185   7.512  10.000 -0.0608 -0.2832 -0.3243
  827MOL0     H11598  12.187   7.552  10.177  1.1971 -0.1265  1.0332
  827MOL0     H11599  12.337   7.320  10.181 -1.7981 -1.3695 -0.8888
  827MOL0     H11600  12.371   7.376  10.015 -0.0503 -0.4898 -0.3510
  827MOL0     H11601  12.387   7.527  10.282  3.6691  2.2864  0.6012
  827MOL0     H11602  12.405   7.605  10.132  0.9629 -0.2048  0.7233
  827MOL0     H11603  12.594   7.391  10.254 -2.9628 -0.0451  0.0192
  827MOL0     H11604  12.630   7.563  10.227  3.9179 -2.7465  1.9314
  827MOL0     H11605  12.817   7.411  10.242 -0.2987  0.4053  0.0808
  827MOL0     H11606  13.041   7.355  10.197 -1.1764 -0.6686  1.3639
  827MOL0     H11607  13.421   7.230   9.982 -0.4384 -0.2041 -0.2372
  827MOL0     H11608  13.634   7.150   9.893  0.2165 -0.9907 -0.6838
  827MOL0     H11609  13.672   7.242   9.528 -0.1539 -1.7746 -1.9643
  827MOL0     H11610  13.803   7.244   9.645  0.2645 -0.9239  0.3685
  827MOL0     H11611  13.924   7.085   9.517 -1.0345 -0.3127  1.9562
  827MOL0     H11612  13.798   7.059   9.399 -0.7018  2.6536 -2.0814
  827MOL0     H11613  13.838   7.307   9.323  1.7563  0.7461 -0.8967
  827MOL0     H11614  13.965   7.314   9.441  1.0191 -1.6855  0.4601
  827MOL0     H11615  13.961   7.087   9.236  0.7281 -1.0661  1.5271
  827MOL0     H11616  14.096   7.143   9.318 -0.7448  1.1877  0.2287
  827MOL0     H11617  13.963   7.305   9.101  0.7094 -1.1078 -2.1873
  827MOL0     H11618  14.078   7.185   9.073  0.6708 -1.6244  1.4883
  827MOL0     H11619  14.094   7.439   9.248 -0.5443  2.4514 -1.3307
  827MOL0     H11620  14.234   7.332   9.250 -0.4535  0.9264  1.3547
  827MOL0     H11621  14.102   7.493   9.023  2.2921  0.1782 -2.3515
  827MOL0     H11622  14.209   7.362   8.978  1.3122  1.8023 -1.3931
  827MOL0     H11623  14.299   7.614   9.132  0.5020 -0.3724  0.1330
  827MOL0     H11624  14.391   7.465   9.094 -0.3329 -0.1269  0.3658
  827MOL0     H11625  13.447   7.072   9.523  1.3988 -2.1966  1.5320
  827MOL0     H11626  13.237   7.181   9.604 -0.4275  1.1262  0.9731
  827MOL0     H11627  12.916   7.239   9.791 -2.7099  1.4238 -0.9495
  827MOL0     H11628  12.714   7.330   9.823  2.7948 -2.0628 -1.4233
  827MOL0     H11629  10.809   6.728  10.444 -1.1798 -1.3240 -0.4243
  827MOL0     H11630  10.581   6.667  10.390 -3.9695  0.9470 -0.6481
  827MOL0     H11631  10.229   6.902  10.127  0.6779 -0.3688  0.5181
  827MOL0     H11632  10.007   6.918  10.031  0.3562  2.0168  0.8192
  827MOL0     H11633   9.638   6.821  10.253 -0.6429 -0.6545  0.1786
  827MOL0     H11634   9.696   6.649  10.212 -3.5047 -0.4799  2.4949
  827MOL0     H11635   9.604   6.682   9.994  1.9310  0.7747 -0.3173
  827MOL0     H11636   9.534   6.835  10.038 -1.3238 -0.4572  0.1312
  827MOL0     H11637   9.387   6.744  10.193 -0.2332  0.4546 -0.6877
  827MOL0     H11638   9.482   6.591  10.220 -0.8209 -1.4910 -0.7273
  827MOL0     H11639   9.333   6.680   9.954 -0.7001  1.5154  0.9507
  827MOL0     H11640   9.402   6.532   9.975 -0.2177 -0.5082  0.2282
  827MOL0     H11641   9.053   6.464  10.218  0.6391 -0.4416 -0.2257
  827MOL0     H11642   9.849   6.739  10.388  0.0776  0.8598  1.4524
  827MOL0     H11643   9.969   6.708  10.577 -2.3645  3.3734 -0.5872
  827MOL0     H11644  10.136   6.667  10.551  0.4642  0.3332  0.9483
  827MOL0     H11645  10.091   6.836  10.602  0.4038  0.0759 -0.8230
  828MOL0     O11646   7.143   8.072  10.592  0.1102  0.0150  0.8630
  828MOL0     C11647   7.128   8.164  10.672  0.0203 -0.5026  0.7970
  828MOL0     O11648   7.016   8.251  10.686  0.1637  0.7687 -0.4102
  828MOL0     C11649   6.897   8.225  10.611  0.1103  0.5133 -0.5776
  828MOL0     C11650   6.908   8.238  10.475 -0.0890  0.2631  0.4134
  828MOL0     C11651   6.804   8.197  10.393 -0.2596  0.0469  0.8258
  828MOL0     C11652   6.686   8.139  10.434 -0.9584  0.1749 -0.0404
  828MOL0     O11653   6.598   8.065  10.353  0.2095  0.5463 -0.1746
  828MOL0     C11654   6.609   8.056  10.208 -0.8619  0.2252  0.0186
  828MOL0     C11655   6.688   7.930  10.170  0.4535  1.0294  0.8359
  828MOL0     C11656   6.833   7.930  10.202  0.4066  0.9502  0.0083
  828MOL0     C11657   6.922   7.810  10.175  0.0443  0.5337 -0.1664
  828MOL0     C11658   7.052   7.798  10.273  0.7789 -0.0549  0.6790
  828MOL0     C11659   7.139   7.926  10.256 -0.4961  0.3053 -0.3249
  828MOL0     C11660   7.263   7.907  10.336 -0.3376 -0.7226 -0.5895
  828MOL0     C11661   7.344   8.030  10.335 -0.3305  0.6174  0.9124
  828MOL0     N11662   7.468   8.016  10.410 -0.6863  0.4874  0.7408
  828MOL0     C11663   7.561   8.122  10.415  0.0446  0.6926 -0.3232
  828MOL0     C11664   7.678   8.066  10.458 -0.4061  0.1460  0.0378
  828MOL0     C11665   7.798   8.142  10.496 -0.1423 -0.0394  0.2373
  828MOL0     C11666   7.936   8.062  10.498 -0.4213  0.2479 -0.0541
  828MOL0     C11667   7.936   7.943  10.596 -0.3837 -0.4153  0.5322
  828MOL0     C11668   8.076   7.875  10.616  0.5836  0.6659  0.1189
  828MOL0     O11669   8.163   7.973  10.664 -0.2757 -0.1306 -0.5446
  828MOL0     C11670   8.293   7.943  10.700  1.1234 -0.3849 -0.3212
  828MOL0     C11671   8.381   8.035  10.765  0.5749  0.9215  0.6144
  828MOL0     C11672   8.509   7.995  10.804 -1.1676  1.0617 -0.0942
  828MOL0     C11673   8.558   7.864  10.778 -0.8847 -1.0986 -0.2001
  828MOL0     C11674   8.692   7.813  10.808 -0.0998  0.0626  0.3148
  828MOL0     O11675   8.709   7.672  10.816 -0.4402 -0.1741 -0.2486
  828MOL0     C11676   8.834   7.620  10.841  0.1537  0.3266 -0.1311
  828MOL0     C11677   8.959   7.677  10.805  0.0212  0.9399 -0.3022
  828MOL0     C11678   9.073   7.595  10.818  0.0278  0.3641 -0.8267
  828MOL0     C11679   9.072   7.471  10.880 -0.2331  0.1895  0.3813
  828MOL0     O11680   9.192   7.408  10.905 -0.3594 -0.7955  0.6583
  828MOL0     C11681   9.202   7.293  10.981  0.2670 -0.6242 -0.9199
  828MOL0     C11682   9.339   7.265  11.035  0.0067  0.4676  0.1850
  828MOL0     C11683   9.432   7.228  10.918  0.9340 -0.1351 -0.5399
  828MOL0     C11684   9.587   7.242  10.949  1.1830 -0.0931 -0.7138
  828MOL0     C11685   9.638   7.385  10.963 -0.8134 -0.3759 -0.5469
  828MOL0     C11686   9.798   7.379  10.958  0.7590  0.3610  0.3669
  828MOL0     C11687   9.854   7.384  11.101  0.8939 -0.2720  0.2286
  828MOL0     C11688  10.007   7.358  11.117  0.4570 -0.0031  0.3167
  828MOL0    Cl11689  10.085   7.510  11.055  0.1838 -0.1025  0.3702
  828MOL0     C11690   8.950   7.415  10.903  0.8071 -0.9645  0.0052
  828MOL0     C11691   8.829   7.487  10.884  0.0098  1.0111 -0.4672
  828MOL0     O11692   8.778   7.903  10.832 -0.0122 -0.7612  0.1496
  828MOL0     C11693   8.467   7.774  10.715  0.3680  0.2225 -0.5645
  828MOL0     C11694   8.340   7.815  10.681  0.4061  1.4228 -0.6626
  828MOL0     N11695   7.651   7.930  10.475 -0.9941  0.0352 -0.2259
  828MOL0     N11696   7.530   7.899  10.450 -0.7858  0.2321  0.7412
  828MOL0     C11697   6.676   8.122  10.572  0.1468  0.1101 -0.3916
  828MOL0     C11698   6.778   8.157  10.660 -0.3106  0.0523  0.4262
  828MOL0     C11699   7.237   8.199  10.767  0.6682  0.1313 -0.1997
  828MOL0     C11700   7.361   8.246  10.721 -0.8690  0.6645 -0.2497
  828MOL0     C11701   7.469   8.277  10.809 -0.4221 -0.4066 -0.1565
  828MOL0     C11702   7.450   8.269  10.943 -0.4725 -0.2795 -0.2026
  828MOL0     O11703   7.555   8.284  11.039 -0.1816  0.1233  0.2033
  828MOL0     C11704   7.682   8.347  11.005 -0.1319  0.8855  0.3518
  828MOL0     C11705   7.785   8.249  10.948 -1.0841  0.1973 -0.1108
  828MOL0     C11706   7.915   8.332  10.920  0.4593  0.3233  0.9136
  828MOL0     C11707   8.046   8.250  10.908  0.0218  0.0375 -0.3175
  828MOL0     C11708   8.165   8.330  10.866 -0.5194 -0.1906 -0.0630
  828MOL0     C11709   8.260   8.389  10.833 -0.0017 -0.4817 -0.1204
  828MOL0     C11710   7.325   8.241  10.987 -0.6558  0.0421 -0.3403
  828MOL0     C11711   7.220   8.196  10.910  0.8016  0.3068  0.6456
  828MOL0     C11712   7.087   8.155  10.973  0.0626  0.8189  0.2830
  828MOL0     H11713   7.004   8.276  10.441 -1.2311  0.2489 -3.3137
  828MOL0     H11714   6.808   8.215  10.286  1.5460 -1.4505  0.5930
  828MOL0     H11715   6.509   8.040  10.167  1.0648 -2.2591 -4.4562
  828MOL0     H11716   6.655   8.138  10.152 -0.6051 -0.5298 -0.9038
  828MOL0     H11717   6.671   7.918  10.062 -1.3742  2.0905  0.9731
  828MOL0     H11718   6.642   7.845  10.221  0.1063  1.6692  1.6113
  828MOL0     H11719   6.839   7.955  10.308  2.6085 -2.4528  0.8643
  828MOL0     H11720   6.884   8.003  10.139  0.4788  1.1820  0.3371
  828MOL0     H11721   6.861   7.719  10.178  0.4760  0.1924 -1.3209
  828MOL0     H11722   6.957   7.802  10.072  0.7617  1.0089  0.0288
  828MOL0     H11723   7.017   7.774  10.373  0.4478  0.2679  0.6428
  828MOL0     H11724   7.104   7.706  10.245 -0.5581 -1.1363  1.6412
  828MOL0     H11725   7.166   7.958  10.155  2.5969 -0.0875  0.2906
  828MOL0     H11726   7.080   8.011  10.292 -1.4322  0.7346 -2.6572
  828MOL0     H11727   7.320   7.828  10.286 -0.8756  1.2890 -4.8242
  828MOL0     H11728   7.238   7.879  10.439  0.4207  0.0560 -0.1781
  828MOL0     H11729   7.365   8.054  10.231  1.8075 -2.8490  0.3871
  828MOL0     H11730   7.292   8.113  10.384  1.6316  2.3323  0.2562
  828MOL0     H11731   7.555   8.224  10.379  0.4877  0.4869 -0.9841
  828MOL0     H11732   7.811   8.231  10.434  0.9313 -0.9878 -0.9667
  828MOL0     H11733   7.785   8.180  10.598 -1.7683 -0.5149  0.2508
  828MOL0     H11734   7.941   8.020  10.397 -0.4362 -1.4278  0.6116
  828MOL0     H11735   8.020   8.130  10.517  1.2511 -2.1755  1.7894
  828MOL0     H11736   7.869   7.863  10.563 -0.1374 -1.3018  2.0634
  828MOL0     H11737   7.898   7.977  10.693  1.1524  0.1212  0.9766
  828MOL0     H11738   8.101   7.832  10.519 -0.5558 -2.6234  1.1641
  828MOL0     H11739   8.058   7.794  10.688  0.6618 -0.1632 -0.7771
  828MOL0     H11740   8.349   8.137  10.785  1.6201  1.0856  1.5328
  828MOL0     H11741   8.564   8.062  10.869  2.0919 -1.1769 -0.3087
  828MOL0     H11742   8.973   7.780  10.774 -0.4642  1.8792  2.3401
  828MOL0     H11743   9.166   7.640  10.787 -0.7688  1.0585 -2.3146
  828MOL0     H11744   9.135   7.299  11.068  0.9123 -1.3986 -0.3603
  828MOL0     H11745   9.164   7.213  10.917 -0.9397 -0.3935 -0.5280
  828MOL0     H11746   9.364   7.360  11.084  3.4757  0.2979 -0.9352
  828MOL0     H11747   9.345   7.187  11.111 -0.8923  0.0545 -0.1608
  828MOL0     H11748   9.413   7.124  10.889 -0.9984 -0.5851  1.9964
  828MOL0     H11749   9.412   7.302  10.839  1.5879 -0.6824 -1.2346
  828MOL0     H11750   9.646   7.191  10.872  0.9414  0.4182 -1.2447
  828MOL0     H11751   9.605   7.194  11.045 -0.7778  0.8351  0.1721
  828MOL0     H11752   9.606   7.432  11.056  2.2716  0.9694 -0.0105
  828MOL0     H11753   9.619   7.449  10.876  2.9269 -1.5445 -2.4587
  828MOL0     H11754   9.822   7.286  10.905 -2.2333  0.6105 -1.7033
  828MOL0     H11755   9.837   7.464  10.901  1.3266  0.1719  0.4637
  828MOL0     H11756   9.796   7.307  11.154  0.1121 -0.3779 -0.7496
  828MOL0     H11757   9.845   7.489  11.128  1.0322 -0.1448 -0.2065
  828MOL0     H11758  10.033   7.333  11.221  0.9401  0.9843  0.4513
  828MOL0     H11759  10.034   7.272  11.055 -1.4276 -2.3675  2.5528
  828MOL0     H11760   8.934   7.313  10.938 -0.7172 -0.3073  1.4077
  828MOL0     H11761   8.726   7.455  10.893  0.5123 -0.4237  0.3624
  828MOL0     H11762   8.495   7.670  10.702  1.2511  0.1664  1.4181
  828MOL0     H11763   8.275   7.733  10.654  3.5569 -1.8198  0.8728
  828MOL0     H11764   6.588   8.071  10.610  1.2662 -1.2500  0.4584
  828MOL0     H11765   6.760   8.143  10.766 -0.5392 -1.4665  0.2125
  828MOL0     H11766   7.380   8.246  10.615  1.2084  0.3542  0.0803
  828MOL0     H11767   7.563   8.312  10.767 -0.5778 -0.6231 -0.6924
  828MOL0     H11768   7.728   8.384  11.097 -0.3803 -0.9812  1.2707
  828MOL0     H11769   7.665   8.430  10.936 -0.0038  0.1390 -0.6013
  828MOL0     H11770   7.747   8.189  10.865 -2.3852 -1.2746  1.4890
  828MOL0     H11771   7.800   8.177  11.029  2.7579  1.0725  0.1739
  828MOL0     H11772   7.933   8.394  11.008  1.8286  0.2977  0.6849
  828MOL0     H11773   7.908   8.382  10.823 -0.3712 -1.1048  0.1961
  828MOL0     H11774   8.064   8.189  10.998  0.1107 -1.7174 -1.4803
  828MOL0     H11775   8.029   8.168  10.838  1.9738 -1.5307  0.9245
  828MOL0     H11776   8.353   8.433  10.807 -0.0505 -0.9088 -1.0694
  828MOL0     H11777   7.328   8.230  11.095  0.0685  2.0951 -0.1028
  828MOL0     H11778   7.010   8.232  10.977  0.0573  0.7829  1.7388
  828MOL0     H11779   7.033   8.070  10.932  0.8990  0.4683 -0.1260
  828MOL0     H11780   7.109   8.138  11.079 -0.0360  2.2293  0.5499
  829MOL0     O11781   9.959   8.169   0.088 -0.6526  0.4374  0.2162
  829MOL0     C11782   9.911   8.250   0.014  0.4193 -0.0734 -0.7130
  829MOL0     O11783   9.968   8.368  -0.027 -0.5219 -0.0216 -0.2102
  829MOL0     C11784  10.075   8.428   0.028  0.1525  0.8306 -0.5490
  829MOL0     C11785  10.148   8.513  -0.053 -0.5126 -1.0951 -0.5116
  829MOL0     C11786  10.258   8.586  -0.003  0.1163 -0.3251 -0.2500
  829MOL0     C11787  10.294   8.577   0.130  0.3813  0.4166 -0.2566
  829MOL0     O11788  10.406   8.637   0.182 -0.1968  0.2346 -1.3800
  829MOL0     C11789  10.494   8.711   0.090 -0.0826 -0.8059  0.2032
  829MOL0     C11790  10.623   8.735   0.187 -0.4960  0.4970 -0.1439
  829MOL0     C11791  10.712   8.831   0.119  0.0158  0.1653  0.0906
  829MOL0     C11792  10.819   8.879   0.212 -0.0735 -0.7524  0.5271
  829MOL0     C11793  10.908   8.978   0.144 -0.6023  0.0215 -0.4088
  829MOL0     C11794  11.003   9.029   0.243 -1.1707 -0.6332  0.7870
  829MOL0     C11795  11.071   9.150   0.181 -0.5630 -0.8491 -1.0234
  829MOL0     C11796  11.196   9.190   0.270  0.0621 -0.1388 -0.7263
  829MOL0     N11797  11.183   9.215   0.414 -0.3924 -0.6528 -0.0785
  829MOL0     C11798  11.177   9.121   0.516 -1.0631 -0.2360 -0.1252
  829MOL0     C11799  11.159   9.201   0.624 -0.4440  0.5159  1.4547
  829MOL0     C11800  11.148   9.155   0.762  0.3242  0.0481  0.7776
  829MOL0     C11801  11.010   9.090   0.778 -0.2299 -0.1942  0.2780
  829MOL0     C11802  10.894   9.196   0.763 -0.8736  0.2357 -0.3526
  829MOL0     C11803  10.860   9.233   0.905 -0.3721  0.4185 -0.0184
  829MOL0     O11804  10.806   9.122   0.976  0.2571  0.1996  0.8469
  829MOL0     C11805  10.665   9.098   0.983 -0.2097 -1.2076  0.5396
  829MOL0     C11806  10.616   8.994   1.071 -0.3431 -0.8607  0.2011
  829MOL0     C11807  10.482   8.958   1.063 -0.5734 -0.1498 -0.4090
  829MOL0     C11808  10.395   9.019   0.977  0.6816 -0.1734  0.2077
  829MOL0     C11809  10.255   8.968   0.970 -0.5037  0.0729  0.0831
  829MOL0     O11810  10.214   8.884   1.068  0.3255  0.6463 -0.3152
  829MOL0     C11811  10.093   8.817   1.062  0.2436 -0.0219  0.6787
  829MOL0     C11812  10.090   8.679   1.090 -0.0534  0.0457  0.3870
  829MOL0     C11813   9.975   8.615   1.113  0.4871 -0.1527 -0.6613
  829MOL0     C11814   9.849   8.682   1.096  0.4068  0.4704 -1.2786
  829MOL0     O11815   9.725   8.621   1.104 -0.4634  0.1632 -0.3944
  829MOL0     C11816   9.728   8.479   1.108  0.0937 -0.0355  0.4127
  829MOL0     C11817   9.589   8.422   1.102 -0.3617  0.1921 -0.0118
  829MOL0     C11818   9.489   8.473   1.205 -0.2577  0.0634  0.9273
  829MOL0     C11819   9.358   8.397   1.210 -0.6216  0.2256  0.7568
  829MOL0     C11820   9.282   8.433   1.338  0.3487  0.8470  0.4110
  829MOL0     C11821   9.129   8.412   1.315  0.3537 -0.3380 -0.1291
  829MOL0     C11822   9.045   8.457   1.433  0.2324  0.2487 -0.0937
  829MOL0     C11823   8.898   8.413   1.418  0.6222 -0.1944 -0.1974
  829MOL0    Cl11824   8.808   8.511   1.533  0.1199 -0.1231 -0.1767
  829MOL0     C11825   9.854   8.820   1.075 -1.0218  0.1053 -0.2357
  829MOL0     C11826   9.979   8.886   1.053  0.1471  0.5987 -0.0622
  829MOL0     O11827  10.180   9.012   0.883 -0.7942  0.0132 -0.2296
  829MOL0     C11828  10.439   9.122   0.895  0.4989  0.2594  0.0862
  829MOL0     C11829  10.574   9.156   0.889  0.3451 -0.4833 -0.8473
  829MOL0     N11830  11.172   9.333   0.593  0.8156 -0.5778 -0.4025
  829MOL0     N11831  11.199   9.337   0.474 -1.4786 -0.4041  0.3834
  829MOL0     C11832  10.216   8.500   0.217 -0.4217  0.4776 -0.3555
  829MOL0     C11833  10.114   8.415   0.160  0.5691 -0.4383 -0.9774
  829MOL0     C11834   9.779   8.209  -0.041 -0.1781 -0.3565 -0.2101
  829MOL0     C11835   9.691   8.139   0.035  0.6856  0.0103 -0.2059
  829MOL0     C11836   9.559   8.121  -0.010  0.0854 -0.9500 -0.0663
  829MOL0     C11837   9.516   8.160  -0.138 -0.5653  0.2127  0.1954
  829MOL0     O11838   9.395   8.127  -0.189 -0.3457  0.0725 -0.5090
  829MOL0     C11839   9.300   8.084  -0.098 -0.1981  0.4946  0.4245
  829MOL0     C11840   9.166   8.083  -0.166 -0.0984 -0.4286 -0.3574
  829MOL0     C11841   9.169   8.006  -0.301  0.5840  0.2377  0.3688
  829MOL0     C11842   9.201   8.096  -0.416  0.0299  0.2462 -0.4601
  829MOL0     C11843   9.153   8.051  -0.539  0.5373 -0.0951  0.0656
  829MOL0     C11844   9.090   8.023  -0.641  0.2195 -0.0918 -0.1057
  829MOL0     C11845   9.610   8.227  -0.219 -0.7903 -0.2419 -0.0572
  829MOL0     C11846   9.742   8.256  -0.172  0.2960  0.3323 -0.6590
  829MOL0     C11847   9.832   8.321  -0.278  0.7586  0.0045 -0.2673
  829MOL0     H11848  10.135   8.516  -0.161  1.7569  0.3791 -0.8015
  829MOL0     H11849  10.317   8.651  -0.066 -0.5331  0.4058 -0.1243
  829MOL0     H11850  10.531   8.659   0.000  0.8299 -1.3663  0.8759
  829MOL0     H11851  10.441   8.801   0.060 -2.1603 -1.0925  2.6693
  829MOL0     H11852  10.673   8.640   0.209 -1.7041 -0.1386 -0.0763
  829MOL0     H11853  10.593   8.771   0.286 -1.5201 -0.6340 -0.0243
  829MOL0     H11854  10.654   8.920   0.090 -2.4686 -1.2732  0.3938
  829MOL0     H11855  10.755   8.783   0.031  1.2126  1.4614 -0.0754
  829MOL0     H11856  10.781   8.931   0.301  0.0970  1.4423 -0.6100
  829MOL0     H11857  10.887   8.797   0.237  1.5631  0.1219 -0.9206
  829MOL0     H11858  10.957   8.923   0.063 -3.8867 -1.7185 -1.3986
  829MOL0     H11859  10.843   9.051   0.095 -0.5099 -1.8670 -3.6088
  829MOL0     H11860  10.966   9.062   0.340 -0.6014  1.5403  0.3134
  829MOL0     H11861  11.072   8.947   0.266 -1.5516 -1.5977 -1.2738
  829MOL0     H11862  11.001   9.233   0.169  0.3956  0.0923 -0.3723
  829MOL0     H11863  11.112   9.118   0.085  0.7205 -0.3537 -0.6729
  829MOL0     H11864  11.274   9.115   0.256 -0.9413 -1.7959  1.8801
  829MOL0     H11865  11.233   9.282   0.223 -1.1348  0.3058 -0.8379
  829MOL0     H11866  11.194   9.015   0.503  0.6900 -0.2052  1.6100
  829MOL0     H11867  11.227   9.083   0.787 -0.9641 -0.9047  2.2882
  829MOL0     H11868  11.170   9.241   0.827  2.7610  2.5262 -2.9282
  829MOL0     H11869  10.991   9.014   0.702 -3.9622  0.1618  0.6444
  829MOL0     H11870  11.014   9.046   0.878  0.6840 -1.0429 -0.1225
  829MOL0     H11871  10.808   9.148   0.716 -0.3354 -1.7295  0.5186
  829MOL0     H11872  10.918   9.290   0.713  2.0359 -0.5536 -0.6403
  829MOL0     H11873  10.795   9.321   0.900 -0.7849  0.4662  3.5343
  829MOL0     H11874  10.954   9.267   0.950  0.9974 -1.7454 -1.0780
  829MOL0     H11875  10.676   8.953   1.152 -0.1375 -2.6771 -0.8079
  829MOL0     H11876  10.448   8.885   1.135  1.0928 -0.4012  0.1754
  829MOL0     H11877  10.188   8.635   1.103  0.6383  1.9844  2.4249
  829MOL0     H11878   9.980   8.509   1.136  0.0707 -0.1229 -0.4122
  829MOL0     H11879   9.793   8.444   1.027  3.3851  0.8214  2.4570
  829MOL0     H11880   9.763   8.447   1.206 -5.1159 -2.5395  1.7898
  829MOL0     H11881   9.553   8.457   1.004  3.7973  1.9878 -1.1211
  829MOL0     H11882   9.603   8.314   1.095  0.7986  0.2930  0.5449
  829MOL0     H11883   9.537   8.440   1.297  0.2753 -1.8282  0.0309
  829MOL0     H11884   9.470   8.580   1.193 -0.9842 -0.3012 -2.3261
  829MOL0     H11885   9.379   8.289   1.205  2.7323  0.7987  0.0996
  829MOL0     H11886   9.304   8.417   1.117  1.1549  1.8946  0.0216
  829MOL0     H11887   9.293   8.541   1.347 -1.2006  1.1031 -0.4455
  829MOL0     H11888   9.312   8.380   1.429 -5.1389 -0.9125  1.5472
  829MOL0     H11889   9.103   8.478   1.232 -2.5446 -1.1692 -0.0009
  829MOL0     H11890   9.113   8.307   1.289 -2.6127 -0.3420  1.2568
  829MOL0     H11891   9.059   8.565   1.429  0.2631  0.2291 -0.6470
  829MOL0     H11892   9.081   8.410   1.525  1.1820 -0.9031 -1.0236
  829MOL0     H11893   8.870   8.424   1.312  3.3374 -0.7097 -1.0496
  829MOL0     H11894   8.881   8.308   1.441 -0.8908 -0.0280 -0.4755
  829MOL0     H11895   9.770   8.888   1.073  0.3774  1.9064 -0.4604
  829MOL0     H11896   9.984   8.991   1.026  0.8925  0.8112  0.8569
  829MOL0     H11897  10.372   9.185   0.837  1.2043 -0.0475 -1.0971
  829MOL0     H11898  10.605   9.247   0.838 -1.9046  1.0093  0.2395
  829MOL0     H11899  10.235   8.486   0.323  0.7495  0.1945 -0.5857
  829MOL0     H11900  10.056   8.371   0.241 -1.1001  0.1042 -1.8350
  829MOL0     H11901   9.726   8.104   0.132  0.9454  1.1554  0.1247
  829MOL0     H11902   9.496   8.058   0.052 -0.3368  0.2266  0.7296
  829MOL0     H11903   9.288   8.160  -0.020 -1.2986 -0.5113  1.2716
  829MOL0     H11904   9.325   7.985  -0.061 -1.0416  0.3040  0.5012
  829MOL0     H11905   9.111   8.178  -0.172  0.3724 -0.1040  0.3701
  829MOL0     H11906   9.108   8.013  -0.106  2.0233 -3.7363 -1.8693
  829MOL0     H11907   9.073   7.957  -0.321  0.9706 -0.4481  0.1379
  829MOL0     H11908   9.243   7.925  -0.297 -0.1074 -0.5603 -1.4402
  829MOL0     H11909   9.171   8.197  -0.389 -0.2866  0.0961 -0.2334
  829MOL0     H11910   9.311   8.093  -0.413  0.0968  1.4590  2.5959
  829MOL0     H11911   9.033   7.980  -0.722 -1.9857 -0.7108  1.6756
  829MOL0     H11912   9.582   8.261  -0.318  1.9041  1.2250 -0.4123
  829MOL0     H11913   9.926   8.267  -0.292  1.3007  0.8547  0.0742
  829MOL0     H11914   9.771   8.328  -0.369 -2.2899  1.2380  1.7135
  829MOL0     H11915   9.847   8.425  -0.251  1.4402 -0.1163 -0.1764
  830MOL0     O11916  10.092   4.480   8.610 -0.1179 -0.1756 -0.4498
  830MOL0     C11917  10.060   4.426   8.501  0.3267  0.7498 -1.1457
  830MOL0     O11918  10.145   4.411   8.393 -0.1926  0.2679 -0.1307
  830MOL0     C11919  10.256   4.486   8.373 -0.3941 -0.9755  0.3584
  830MOL0     C11920  10.379   4.428   8.337  0.2868  0.6254 -0.1463
  830MOL0     C11921  10.485   4.509   8.315  0.7499 -0.0973 -0.3098
  830MOL0     C11922  10.482   4.645   8.330 -0.6577  0.7358 -0.9618
  830MOL0     O11923  10.588   4.725   8.314 -0.2905  0.1416  0.0679
  830MOL0     C11924  10.715   4.679   8.363 -0.0695  0.4812 -0.6004
  830MOL0     C11925  10.815   4.770   8.288  0.6811 -0.3013 -0.7233
  830MOL0     C11926  10.954   4.714   8.309 -0.9044 -0.9025 -0.1719
  830MOL0     C11927  11.047   4.802   8.226 -0.3746 -0.0326  0.6963
  830MOL0     C11928  11.193   4.743   8.236  0.8063  1.0093 -0.5467
  830MOL0     C11929  11.284   4.851   8.171  0.4173 -0.3795  0.2391
  830MOL0     C11930  11.422   4.790   8.150 -0.7003  0.0034  0.3498
  830MOL0     C11931  11.515   4.897   8.080 -0.0427  0.0574 -1.4706
  830MOL0     N11932  11.652   4.848   8.092 -0.0607  0.7284 -0.6838
  830MOL0     C11933  11.738   4.907   8.184  0.9453  0.1595  0.6093
  830MOL0     C11934  11.849   4.831   8.181  1.1375  0.3797 -0.4518
  830MOL0     C11935  11.970   4.851   8.262  0.7769  0.2784  0.3210
  830MOL0     C11936  12.094   4.839   8.170  0.5015  0.4759  0.2444
  830MOL0     C11937  12.216   4.902   8.244  0.1998  0.3191  0.7481
  830MOL0     C11938  12.343   4.840   8.185  0.3866  0.5619  0.9625
  830MOL0     O11939  12.460   4.922   8.221  0.0776  0.0564 -0.1147
  830MOL0     C11940  12.579   4.883   8.167 -0.4473 -0.4292 -0.2451
  830MOL0     C11941  12.597   4.789   8.060  0.1698 -0.1178  0.5704
  830MOL0     C11942  12.722   4.753   8.009 -0.4339  0.0716 -0.1749
  830MOL0     C11943  12.832   4.800   8.074 -0.0471 -0.2533 -0.7195
  830MOL0     C11944  12.975   4.779   8.036 -0.0171  0.6775 -0.7541
  830MOL0     O11945  13.009   4.652   7.987 -0.3316 -0.6285 -0.0674
  830MOL0     C11946  13.126   4.619   7.931 -0.6865  0.8729  0.4199
  830MOL0     C11947  13.255   4.685   7.954 -0.1846 -0.0366 -0.3616
  830MOL0     C11948  13.361   4.649   7.876 -0.0138  0.4546  1.1115
  830MOL0     C11949  13.356   4.552   7.781  0.1889  0.2092 -0.6947
  830MOL0     O11950  13.473   4.553   7.699 -0.5671  0.0969  0.3834
  830MOL0     C11951  13.473   4.457   7.588 -0.1421 -0.2633  0.0728
  830MOL0     C11952  13.559   4.498   7.466  0.1194  0.0601  0.2418
  830MOL0     C11953  13.709   4.511   7.499  0.5478  0.3090 -0.0395
  830MOL0     C11954  13.745   4.646   7.551 -0.1723 -0.4800 -0.8630
  830MOL0     C11955  13.893   4.675   7.535 -1.4436  0.6525  0.3613
  830MOL0     C11956  13.918   4.816   7.592 -1.0018  0.1062  0.7780
  830MOL0     C11957  14.026   4.900   7.527  0.2203  0.0785  0.3343
  830MOL0     C11958  14.160   4.833   7.484  0.4994  0.5051 -0.0247
  830MOL0    Cl11959  14.232   4.753   7.623  0.0950 -0.2614 -0.0938
  830MOL0     C11960  13.241   4.468   7.772 -0.4941  0.1646 -0.2697
  830MOL0     C11961  13.128   4.507   7.841  0.7835  0.0568  0.4594
  830MOL0     O11962  13.053   4.877   8.041 -1.1197 -0.1130  0.0115
  830MOL0     C11963  12.817   4.897   8.169  0.2997  0.0251 -1.2004
  830MOL0     C11964  12.693   4.937   8.222 -0.2521 -0.2486  0.5337
  830MOL0     N11965  11.845   4.743   8.077  0.1407 -0.1330  0.7781
  830MOL0     N11966  11.725   4.750   8.031 -0.2620  0.1678 -0.5538
  830MOL0     C11967  10.370   4.709   8.369 -0.0143  0.4792  0.1955
  830MOL0     C11968  10.253   4.631   8.389  0.0424 -0.2403 -1.2737
  830MOL0     C11969   9.921   4.366   8.494  0.2524 -0.2620  0.1062
  830MOL0     C11970   9.853   4.368   8.369  0.1743  1.0199 -0.1448
  830MOL0     C11971   9.734   4.298   8.354  0.0182  0.8373  0.4883
  830MOL0     C11972   9.670   4.238   8.463  0.9590 -0.7027 -0.5214
  830MOL0     O11973   9.546   4.176   8.441 -0.0685  0.3653  0.1951
  830MOL0     C11974   9.564   4.046   8.387  0.6788  0.3988  0.2291
  830MOL0     C11975   9.430   3.994   8.336  0.6720  0.1766 -0.1514
  830MOL0     C11976   9.337   3.941   8.454  0.1576 -0.2870 -0.7734
  830MOL0     C11977   9.398   3.814   8.515  0.4954 -0.4356  0.6828
  830MOL0     C11978   9.400   3.701   8.418  0.5345  0.0466 -0.4246
  830MOL0     C11979   9.383   3.605   8.353  0.8008 -0.6863  0.2405
  830MOL0     C11980   9.722   4.260   8.595  0.5451  0.1280  0.1227
  830MOL0     C11981   9.848   4.319   8.607  0.1436  1.2065 -0.1788
  830MOL0     C11982   9.898   4.333   8.754  0.3635 -0.2234  0.2848
  830MOL0     H11983  10.395   4.321   8.325  1.1484  0.5487  1.4222
  830MOL0     H11984  10.581   4.473   8.279  0.5548  0.4116 -1.3837
  830MOL0     H11985  10.707   4.709   8.467 -1.3283  1.8386 -1.0659
  830MOL0     H11986  10.735   4.571   8.352  1.4397  0.6572  0.1239
  830MOL0     H11987  10.811   4.866   8.341 -1.1361 -0.8902  0.2798
  830MOL0     H11988  10.782   4.770   8.184  0.7213 -0.7105 -0.7357
  830MOL0     H11989  10.958   4.611   8.272 -1.8336 -1.1884  0.5042
  830MOL0     H11990  10.976   4.716   8.416  0.3397  0.4934 -0.4054
  830MOL0     H11991  11.026   4.785   8.120  1.9766 -0.5314  0.2605
  830MOL0     H11992  11.040   4.908   8.253 -1.3308  0.2529 -0.5762
  830MOL0     H11993  11.226   4.722   8.338  1.5168  1.2382 -0.7265
  830MOL0     H11994  11.196   4.647   8.184 -0.7014  0.2099  0.7527
  830MOL0     H11995  11.241   4.874   8.073  1.6859 -2.3889 -0.8744
  830MOL0     H11996  11.286   4.948   8.222 -1.6690  0.1818 -0.6389
  830MOL0     H11997  11.408   4.704   8.084 -0.7027  0.2638  0.0046
  830MOL0     H11998  11.468   4.737   8.233 -1.5191 -1.6945 -0.2468
  830MOL0     H11999  11.486   4.906   7.975  1.6757  0.1792 -1.9587
  830MOL0     H12000  11.508   4.995   8.129 -0.0124  1.5137 -4.2231
  830MOL0     H12001  11.713   4.996   8.240 -2.0763 -0.6075  0.6498
  830MOL0     H12002  11.969   4.951   8.306  0.4497  0.5698 -0.3445
  830MOL0     H12003  11.970   4.767   8.333 -0.3678 -0.5433 -0.6055
  830MOL0     H12004  12.108   4.734   8.143 -0.9560  0.4851 -0.6720
  830MOL0     H12005  12.082   4.889   8.073 -2.7638  0.2046  0.4189
  830MOL0     H12006  12.213   4.885   8.352 -2.1007  0.7059  0.8058
  830MOL0     H12007  12.221   5.010   8.226 -2.1550  0.5155  0.8965
  830MOL0     H12008  12.334   4.836   8.076 -3.3724 -2.4882  1.1967
  830MOL0     H12009  12.356   4.735   8.213  3.5973  0.1586 -1.5042
  830MOL0     H12010  12.513   4.738   8.015  1.0021 -2.4100  1.4903
  830MOL0     H12011  12.730   4.687   7.923 -2.5144  2.5165 -2.4227
  830MOL0     H12012  13.278   4.750   8.038 -0.3925 -1.0554  0.5052
  830MOL0     H12013  13.456   4.700   7.871  2.1364 -3.2576 -2.5095
  830MOL0     H12014  13.512   4.362   7.627 -1.0992 -0.4261  0.6406
  830MOL0     H12015  13.373   4.437   7.549 -0.2659 -3.4117  1.7004
  830MOL0     H12016  13.548   4.430   7.381 -0.4971  2.0316 -1.3319
  830MOL0     H12017  13.521   4.594   7.428 -1.6947 -0.6467  0.1684
  830MOL0     H12018  13.738   4.436   7.573  0.1707 -0.3989 -0.5923
  830MOL0     H12019  13.770   4.510   7.408  0.6961  1.3944  0.0285
  830MOL0     H12020  13.714   4.661   7.655 -2.4707 -1.3725 -1.3474
  830MOL0     H12021  13.689   4.718   7.491 -1.4943 -0.4025  0.4078
  830MOL0     H12022  13.932   4.674   7.432 -0.4006  3.6303  0.6167
  830MOL0     H12023  13.958   4.602   7.584  0.6058  1.7357 -0.6194
  830MOL0     H12024  13.832   4.881   7.580 -0.8403  0.4298  1.3655
  830MOL0     H12025  13.941   4.814   7.699  2.0041 -0.5067  0.2242
  830MOL0     H12026  14.052   4.987   7.588 -3.2757  1.2374  0.4037
  830MOL0     H12027  13.982   4.939   7.435 -0.8757 -2.4072 -0.2816
  830MOL0     H12028  14.132   4.753   7.416 -0.0774  1.1006 -0.5032
  830MOL0     H12029  14.232   4.902   7.438  1.1998 -0.3443 -0.2172
  830MOL0     H12030  13.240   4.392   7.694 -0.2634  1.7798 -1.9048
  830MOL0     H12031  13.034   4.457   7.822  1.8770 -0.6518 -4.3382
  830MOL0     H12032  12.897   4.956   8.211 -0.0277  0.0818 -0.6442
  830MOL0     H12033  12.700   5.007   8.305  0.6358 -0.9943  1.1268
  830MOL0     H12034  10.371   4.816   8.387  1.5887  0.6630 -0.7245
  830MOL0     H12035  10.158   4.680   8.407  0.8921  0.7406  0.7386
  830MOL0     H12036   9.888   4.419   8.279 -0.4189 -0.8130 -1.4537
  830MOL0     H12037   9.691   4.299   8.254  0.0541  2.1021  0.4693
  830MOL0     H12038   9.608   3.990   8.470  0.0246 -1.9554 -0.9207
  830MOL0     H12039   9.637   4.041   8.306 -0.4489  2.6762 -1.0455
  830MOL0     H12040   9.456   3.915   8.265  3.3198  1.2367 -0.4822
  830MOL0     H12041   9.399   4.072   8.267  0.5695  0.7959  0.5783
  830MOL0     H12042   9.232   3.927   8.427  0.2125  0.0257 -1.1538
  830MOL0     H12043   9.324   4.011   8.538 -1.2050 -3.9311  2.3429
  830MOL0     H12044   9.497   3.845   8.551 -0.0619  1.7338  0.4808
  830MOL0     H12045   9.335   3.805   8.603 -0.9461  0.9634 -0.1447
  830MOL0     H12046   9.372   3.528   8.279  2.5934 -2.3472  1.5783
  830MOL0     H12047   9.668   4.213   8.677 -0.4397 -0.5309 -0.8646
  830MOL0     H12048   9.825   4.281   8.817 -0.9558 -0.7681 -1.5688
  830MOL0     H12049   9.991   4.280   8.774 -1.0950 -2.6596  1.0082
  830MOL0     H12050   9.909   4.439   8.778 -4.2616  0.2513  1.2924
  831MOL0     O12051   4.882   6.902   8.119  0.1021  0.0154  0.8415
  831MOL0     C12052   4.879   6.821   8.027  0.1573  0.3523  0.3234
  831MOL0     O12053   4.974   6.807   7.928  0.1800  0.5813 -0.1015
  831MOL0     C12054   5.077   6.902   7.918 -0.0927 -0.1056 -0.0637
  831MOL0     C12055   5.206   6.855   7.896 -0.1540  0.6775  0.3056
  831MOL0     C12056   5.318   6.932   7.865  0.3126 -0.5163  0.8077
  831MOL0     C12057   5.305   7.070   7.884 -0.4576 -0.1884 -0.1698
  831MOL0     O12058   5.398   7.164   7.876  0.1809  1.0464 -0.0665
  831MOL0     C12059   5.533   7.126   7.894 -0.3580 -0.1684 -0.0320
  831MOL0     C12060   5.583   7.224   8.009 -0.7253 -0.2567  0.3404
  831MOL0     C12061   5.575   7.373   7.963  0.5436 -0.9768  1.3816
  831MOL0     C12062   5.624   7.474   8.056 -0.6289 -0.3893  0.1882
  831MOL0     C12063   5.773   7.491   8.071 -0.3132 -0.6631  0.5471
  831MOL0     C12064   5.851   7.512   7.946  0.4713  0.9694  0.0225
  831MOL0     C12065   5.995   7.550   7.977  0.0681  0.1609  0.1349
  831MOL0     C12066   6.087   7.586   7.858  0.0736  0.2412  0.1063
  831MOL0     N12067   6.219   7.654   7.904  0.2274  0.0590  0.8903
  831MOL0     C12068   6.240   7.790   7.894  0.0370 -0.3936  0.3232
  831MOL0     C12069   6.369   7.797   7.935  0.1572 -0.2636  0.1264
  831MOL0     C12070   6.445   7.927   7.949  0.4389  0.0037  0.5104
  831MOL0     C12071   6.595   7.911   7.914 -0.5946  0.0722 -0.3670
  831MOL0     C12072   6.676   7.896   8.038 -0.1268 -0.0640  0.7668
  831MOL0     C12073   6.820   7.943   8.008 -0.6675 -0.9173 -0.0050
  831MOL0     O12074   6.906   7.865   8.086  0.0246  0.9260 -0.8064
  831MOL0     C12075   7.043   7.905   8.087 -0.7031 -0.6983  0.0294
  831MOL0     C12076   7.103   7.985   7.991  0.0801 -0.4840 -0.7888
  831MOL0     C12077   7.236   8.010   8.003  0.3393  0.6389  0.3763
  831MOL0     C12078   7.317   7.950   8.098 -0.3324  0.1987 -0.7039
  831MOL0     C12079   7.458   7.990   8.109 -0.4213  0.2238  0.6537
  831MOL0     O12080   7.502   8.099   8.046 -0.6098  0.3288 -0.2346
  831MOL0     C12081   7.621   8.149   8.100 -0.0566 -1.4183  0.0938
  831MOL0     C12082   7.635   8.209   8.223 -0.2868  0.6520 -0.1816
  831MOL0     C12083   7.757   8.261   8.258 -0.2739  0.5992  0.4664
  831MOL0     C12084   7.859   8.267   8.162 -0.3146 -0.6717 -0.4366
  831MOL0     O12085   7.990   8.313   8.187 -0.6817 -0.1238 -0.2926
  831MOL0     C12086   8.008   8.426   8.263  0.3892 -0.8264 -0.2108
  831MOL0     C12087   8.147   8.439   8.322 -0.9112  0.3531  0.4430
  831MOL0     C12088   8.180   8.310   8.402 -0.6745 -0.2519 -0.5384
  831MOL0     C12089   8.324   8.332   8.454  0.4984 -0.8998 -0.6251
  831MOL0     C12090   8.321   8.403   8.587 -0.3710 -0.0183  0.0066
  831MOL0     C12091   8.453   8.415   8.659 -0.4850  0.2951 -0.4819
  831MOL0     C12092   8.569   8.463   8.570  0.5985  0.2209 -0.1926
  831MOL0     C12093   8.560   8.614   8.525  0.2277  0.6196 -0.3411
  831MOL0    Cl12094   8.430   8.646   8.401 -0.3736  0.1749  0.7733
  831MOL0     C12095   7.842   8.216   8.037  0.0996  0.0417 -0.2459
  831MOL0     C12096   7.726   8.150   8.010  0.4239 -0.2068  0.2537
  831MOL0     O12097   7.531   7.920   8.176  0.0178  0.5157 -0.6504
  831MOL0     C12098   7.260   7.863   8.192 -0.0635 -1.1996 -0.6044
  831MOL0     C12099   7.122   7.853   8.192  0.0892  0.6447  0.7095
  831MOL0     N12100   6.418   7.674   7.964  0.1028  0.9219 -0.2209
  831MOL0     N12101   6.327   7.588   7.946  0.2708  0.2994 -0.0641
  831MOL0     C12102   5.173   7.117   7.908 -1.1353 -0.4020 -0.9723
  831MOL0     C12103   5.058   7.037   7.927 -0.0046  0.6063 -0.0462
  831MOL0     C12104   4.770   6.720   8.024 -0.0843  0.0837 -0.9032
  831MOL0     C12105   4.759   6.640   7.905 -0.5764 -0.4304 -0.4949
  831MOL0     C12106   4.658   6.542   7.898 -0.6790 -0.8954 -0.6600
  831MOL0     C12107   4.572   6.518   7.999  0.7276  0.4781 -0.6281
  831MOL0     O12108   4.469   6.423   8.004 -0.5699  0.3870 -0.4324
  831MOL0     C12109   4.380   6.417   7.894  0.4112 -0.4728  0.1502
  831MOL0     C12110   4.258   6.338   7.943 -0.3044  0.5175  0.3938
  831MOL0     C12111   4.159   6.318   7.834 -0.3047  0.2612  0.0913
  831MOL0     C12112   4.087   6.181   7.829  0.0020 -0.1179 -0.1785
  831MOL0     C12113   4.035   6.157   7.962 -0.0976  0.1442 -0.1090
  831MOL0     C12114   3.980   6.137   8.067 -0.9298  0.1165  0.0095
  831MOL0     C12115   4.593   6.582   8.119 -0.3538  0.1486 -0.1584
  831MOL0     C12116   4.683   6.684   8.137 -0.2407 -0.7541 -0.8355
  831MOL0     C12117   4.704   6.749   8.270  0.5010 -0.5862  0.0070
  831MOL0     H12118   5.217   6.747   7.885  2.5043  1.0344 -1.4286
  831MOL0     H12119   5.415   6.893   7.839  1.4146  2.4285  0.0578
  831MOL0     H12120   5.548   7.024   7.930  0.7099 -0.6408 -1.6867
  831MOL0     H12121   5.593   7.137   7.803  2.0425  2.4580  1.7111
  831MOL0     H12122   5.685   7.200   8.041 -0.9660 -1.3284  0.3531
  831MOL0     H12123   5.527   7.223   8.103 -1.3696 -0.4611 -0.0337
  831MOL0     H12124   5.472   7.406   7.953  1.4343  1.2446 -2.6648
  831MOL0     H12125   5.605   7.388   7.859 -0.7944 -0.9690  0.9832
  831MOL0     H12126   5.570   7.566   8.032 -4.3084 -2.3644  0.2134
  831MOL0     H12127   5.588   7.453   8.158 -0.3629 -0.9955  0.1631
  831MOL0     H12128   5.795   7.579   8.131  2.4528 -1.8664  1.4677
  831MOL0     H12129   5.811   7.406   8.128 -0.2362 -0.1320  1.3067
  831MOL0     H12130   5.842   7.430   7.874  2.2537  0.7602 -0.0205
  831MOL0     H12131   5.803   7.601   7.906 -0.9684  0.5685  0.7853
  831MOL0     H12132   6.039   7.458   8.017 -2.2737  0.5678  4.1742
  831MOL0     H12133   6.004   7.625   8.055 -0.3121  1.8242 -1.3626
  831MOL0     H12134   6.110   7.497   7.798  2.3035  1.4342 -0.9393
  831MOL0     H12135   6.029   7.652   7.793  1.6489 -0.0334 -1.6790
  831MOL0     H12136   6.167   7.867   7.871 -1.4024 -1.4935  1.0970
  831MOL0     H12137   6.408   7.998   7.875 -0.6303 -1.5593 -0.5062
  831MOL0     H12138   6.420   7.975   8.044  1.2910  0.2369  0.6225
  831MOL0     H12139   6.608   7.825   7.847  0.8104 -1.1212  1.3483
  831MOL0     H12140   6.631   7.998   7.858 -0.7131 -0.7012 -1.6948
  831MOL0     H12141   6.680   7.793   8.074  0.4368  0.1943  1.4939
  831MOL0     H12142   6.629   7.958   8.115 -1.0586 -2.2530  2.0469
  831MOL0     H12143   6.832   8.044   8.049 -3.3247 -1.1061  1.4525
  831MOL0     H12144   6.847   7.925   7.904 -0.5841  0.0057 -0.1535
  831MOL0     H12145   7.046   8.019   7.905 -0.4592 -0.7304 -0.5368
  831MOL0     H12146   7.281   8.079   7.933  1.3400  0.1011  0.4661
  831MOL0     H12147   7.554   8.213   8.295 -0.1803  4.4427 -0.0440
  831MOL0     H12148   7.774   8.288   8.362  1.4811  0.8101  0.1637
  831MOL0     H12149   7.986   8.509   8.195  2.5272  1.0483  1.2437
  831MOL0     H12150   7.932   8.433   8.342 -2.5023  3.4624 -2.9303
  831MOL0     H12151   8.227   8.450   8.248  0.5822 -0.8213  1.7909
  831MOL0     H12152   8.151   8.526   8.388 -3.9954 -0.2530  1.5976
  831MOL0     H12153   8.116   8.298   8.490 -0.9498 -0.2937 -0.7427
  831MOL0     H12154   8.170   8.225   8.334 -2.5029  0.3696 -1.1089
  831MOL0     H12155   8.388   8.392   8.389  1.1426 -0.8456  0.0488
  831MOL0     H12156   8.371   8.236   8.475 -1.1089 -1.3920  0.9676
  831MOL0     H12157   8.263   8.356   8.667  0.2728  0.1034  0.5647
  831MOL0     H12158   8.286   8.505   8.569  0.9039 -0.1080 -3.7964
  831MOL0     H12159   8.454   8.479   8.747 -1.7350 -0.1652 -0.1079
  831MOL0     H12160   8.476   8.314   8.695 -0.6220  0.0815 -0.9744
  831MOL0     H12161   8.595   8.386   8.497 -2.2343 -1.0026 -0.0078
  831MOL0     H12162   8.654   8.472   8.639 -0.0690 -0.8372  0.8032
  831MOL0     H12163   8.538   8.669   8.617 -1.2776  0.2048 -0.4304
  831MOL0     H12164   8.655   8.655   8.486  0.9811 -0.1264  0.6627
  831MOL0     H12165   7.926   8.212   7.969  0.5632  1.6425  0.1736
  831MOL0     H12166   7.704   8.106   7.914 -2.4599  2.5938 -0.5644
  831MOL0     H12167   7.314   7.819   8.275 -1.5117  0.7501  1.4925
  831MOL0     H12168   7.073   7.782   8.258  0.5462 -1.2210 -0.8514
  831MOL0     H12169   5.179   7.225   7.920  2.3740 -0.3730 -1.8005
  831MOL0     H12170   4.962   7.081   7.953  0.0129  0.8116 -0.3249
  831MOL0     H12171   4.829   6.647   7.823 -0.3187  3.7368 -0.1405
  831MOL0     H12172   4.644   6.498   7.799 -0.5496 -1.0513 -0.6108
  831MOL0     H12173   4.422   6.369   7.805  0.1310  1.1372 -0.8939
  831MOL0     H12174   4.344   6.513   7.854  1.4406 -0.3883 -0.6187
  831MOL0     H12175   4.219   6.388   8.032 -0.8105  1.0788 -0.1263
  831MOL0     H12176   4.314   6.250   7.976 -0.2012  1.0215  1.5725
  831MOL0     H12177   4.208   6.319   7.736  1.7777 -0.3596  1.0640
  831MOL0     H12178   4.083   6.396   7.848 -2.4308 -1.1605 -2.7424
  831MOL0     H12179   3.999   6.158   7.767  0.9842 -2.1129 -0.9115
  831MOL0     H12180   4.162   6.107   7.799  0.0250  0.1386 -0.7600
  831MOL0     H12181   3.930   6.120   8.160 -0.9868 -0.7945 -0.1825
  831MOL0     H12182   4.551   6.553   8.215  2.2495  0.7586  1.2524
  831MOL0     H12183   4.809   6.762   8.297  0.7780 -4.5521  1.4988
  831MOL0     H12184   4.667   6.852   8.270  0.3728 -0.6096 -1.3798
  831MOL0     H12185   4.658   6.700   8.356 -0.0531  2.2342  1.4095
  832MOL0     O12186  10.188   7.464   1.508 -0.3585 -0.3814  0.1288
  832MOL0     C12187  10.103   7.388   1.555  0.1300  0.5160  0.6809
  832MOL0     O12188  10.095   7.330   1.676  0.3579  0.2281  1.0679
  832MOL0     C12189  10.212   7.309   1.738  0.3117 -0.3552  0.7768
  832MOL0     C12190  10.334   7.290   1.672 -0.4578 -0.0620 -0.7803
  832MOL0     C12191  10.454   7.256   1.743  1.4277 -0.6101  0.0766
  832MOL0     C12192  10.450   7.250   1.889  0.3587 -0.1510 -0.7880
  832MOL0     O12193  10.563   7.234   1.958 -0.1632 -0.4904 -0.1721
  832MOL0     C12194  10.596   7.098   1.978  0.7025  0.6135  0.1993
  832MOL0     C12195  10.738   7.096   2.034 -0.5259  0.1316  0.4723
  832MOL0     C12196  10.807   6.975   2.062  0.8041  0.7718  0.3775
  832MOL0     C12197  10.809   6.952   2.212 -0.0855 -1.1049 -0.3381
  832MOL0     C12198  10.848   6.807   2.240  0.2478 -0.1438  0.2732
  832MOL0     C12199  10.874   6.784   2.393  0.2923  0.6119 -0.5680
  832MOL0     C12200  10.915   6.646   2.434 -0.5648  0.8812  0.2767
  832MOL0     C12201  10.810   6.529   2.409  0.3053  0.1191  0.2654
  832MOL0     N12202  10.677   6.564   2.470 -0.1391  0.8253 -0.2421
  832MOL0     C12203  10.558   6.601   2.402 -0.9637 -0.3111  0.0724
  832MOL0     C12204  10.486   6.637   2.510 -0.6293 -0.6929 -0.1364
  832MOL0     C12205  10.341   6.685   2.498  0.0080 -0.1367  0.0754
  832MOL0     C12206  10.232   6.572   2.522 -0.5451 -0.1960 -0.4440
  832MOL0     C12207  10.088   6.612   2.498  0.1175  0.2907 -0.1376
  832MOL0     C12208   9.991   6.503   2.534 -0.2278 -0.1976 -0.0096
  832MOL0     O12209   9.862   6.574   2.524  0.3739 -0.4270 -0.4570
  832MOL0     C12210   9.742   6.495   2.557  0.3329 -0.8677 -0.3113
  832MOL0     C12211   9.747   6.359   2.614 -0.0887 -0.4202 -0.6011
  832MOL0     C12212   9.613   6.305   2.649 -0.9017 -0.0693  0.0285
  832MOL0     C12213   9.496   6.374   2.616  0.2130  0.7847  0.1678
  832MOL0     C12214   9.372   6.314   2.660  0.1558  0.3491 -0.1790
  832MOL0     O12215   9.260   6.384   2.621  0.0230  0.2879  0.3901
  832MOL0     C12216   9.137   6.328   2.639 -0.2204  0.6116 -0.1514
  832MOL0     C12217   9.045   6.404   2.714 -0.3133  0.6700  0.0933
  832MOL0     C12218   8.913   6.357   2.724  0.3138 -0.8882  0.2378
  832MOL0     C12219   8.871   6.247   2.652 -0.1038 -0.3497 -0.7619
  832MOL0     O12220   8.751   6.193   2.679 -0.0049 -0.3839  0.0714
  832MOL0     C12221   8.728   6.051   2.667 -0.0575 -0.5725  0.3290
  832MOL0     C12222   8.623   6.014   2.770  0.0524 -0.6484 -0.6184
  832MOL0     C12223   8.494   6.101   2.762 -0.4519  0.3913 -0.5208
  832MOL0     C12224   8.380   6.027   2.819  0.0672  0.0180  0.4116
  832MOL0     C12225   8.276   6.142   2.850 -0.3094  0.1933  0.2480
  832MOL0     C12226   8.146   6.070   2.891 -0.5818 -0.4534 -0.1100
  832MOL0     C12227   8.049   6.181   2.933 -0.1423  0.9652 -0.1463
  832MOL0     C12228   7.929   6.142   3.011 -0.2218  1.0182 -0.2773
  832MOL0    Cl12229   7.845   6.003   2.929  0.0218 -0.5143 -0.2485
  832MOL0     C12230   8.962   6.181   2.573 -0.1665  0.3250  0.6660
  832MOL0     C12231   9.096   6.212   2.574  0.4003  0.5878  0.1879
  832MOL0     O12232   9.374   6.219   2.741 -0.0301  0.2640 -0.1438
  832MOL0     C12233   9.500   6.497   2.558 -0.0379 -0.5873  0.2031
  832MOL0     C12234   9.618   6.559   2.531 -0.5759  0.7013  0.2665
  832MOL0     N12235  10.551   6.609   2.625  0.0531 -0.2973 -0.3340
  832MOL0     N12236  10.665   6.580   2.596  0.2882  0.7302 -0.0984
  832MOL0     C12237  10.325   7.265   1.954  0.0017 -0.6317 -0.5992
  832MOL0     C12238  10.216   7.306   1.871 -0.2209  0.7640  0.0014
  832MOL0     C12239   9.990   7.343   1.465  0.8698 -0.5089 -0.0958
  832MOL0     C12240   9.865   7.315   1.534 -0.4426 -1.1963  0.4041
  832MOL0     C12241   9.748   7.284   1.461  0.4218 -0.1083 -0.3416
  832MOL0     C12242   9.765   7.257   1.321 -0.7667  0.0865  0.5203
  832MOL0     O12243   9.661   7.239   1.234  0.1366  0.1154  0.9184
  832MOL0     C12244   9.537   7.174   1.276  0.8123  0.2026  0.1002
  832MOL0     C12245   9.448   7.158   1.160  0.4436  0.1004  0.4577
  832MOL0     C12246   9.424   7.291   1.084 -0.5141 -0.1579  0.3790
  832MOL0     C12247   9.364   7.403   1.172  0.4776 -1.1856  0.0109
  832MOL0     C12248   9.239   7.364   1.246 -0.0656 -0.0670  1.1540
  832MOL0     C12249   9.154   7.333   1.319  0.7098 -0.5670 -0.6759
  832MOL0     C12250   9.888   7.268   1.260 -0.9014 -0.2760  0.4287
  832MOL0     C12251  10.006   7.305   1.325  0.2970  0.7179 -0.2070
  832MOL0     C12252  10.133   7.295   1.245  0.6578 -0.1105 -0.1158
  832MOL0     H12253  10.325   7.301   1.564  3.8390 -0.0614 -1.3041
  832MOL0     H12254  10.546   7.256   1.685 -0.0883  0.0652 -2.5214
  832MOL0     H12255  10.531   7.054   2.055 -0.8008  0.0786 -1.3063
  832MOL0     H12256  10.599   7.039   1.886  0.7371  0.8167  0.0693
  832MOL0     H12257  10.742   7.159   2.124  2.3437  1.1826 -0.2705
  832MOL0     H12258  10.801   7.146   1.960 -0.8133 -1.7449 -1.0877
  832MOL0     H12259  10.903   6.977   2.009  0.7628  0.0863  0.2675
  832MOL0     H12260  10.752   6.900   2.005 -0.5743  1.5741  0.6028
  832MOL0     H12261  10.882   7.024   2.249 -1.1323  0.6483 -1.5280
  832MOL0     H12262  10.713   6.969   2.263 -0.3028 -3.8114  0.3464
  832MOL0     H12263  10.779   6.731   2.203  1.1525 -0.4694 -0.8140
  832MOL0     H12264  10.933   6.779   2.178  1.3693 -0.6576  1.9794
  832MOL0     H12265  10.943   6.862   2.428  0.8501 -0.1335  0.0366
  832MOL0     H12266  10.779   6.803   2.443 -1.4349 -0.9133 -3.0652
  832MOL0     H12267  10.940   6.647   2.541 -0.6115  0.0649  0.2993
  832MOL0     H12268  11.011   6.625   2.387  0.0644  1.5138  1.2372
  832MOL0     H12269  10.801   6.503   2.303 -0.5086 -0.5843  0.4956
  832MOL0     H12270  10.837   6.439   2.465 -0.0670 -0.0629  0.1568
  832MOL0     H12271  10.520   6.600   2.300  1.0989  0.7396 -0.7594
  832MOL0     H12272  10.319   6.770   2.563 -1.3036 -1.0947  0.9187
  832MOL0     H12273  10.331   6.723   2.396 -1.2213 -1.9613 -0.5389
  832MOL0     H12274  10.244   6.485   2.457 -1.6133 -0.4187 -0.3627
  832MOL0     H12275  10.242   6.534   2.624 -1.4514 -0.3777 -0.4121
  832MOL0     H12276  10.060   6.631   2.394 -0.2533 -1.3852 -0.3761
  832MOL0     H12277  10.068   6.700   2.560 -0.1126  2.3387 -2.9111
  832MOL0     H12278  10.014   6.473   2.637 -1.5770  2.2966  1.1004
  832MOL0     H12279   9.998   6.415   2.470  0.0073  1.9110 -3.1220
  832MOL0     H12280   9.836   6.303   2.641 -0.3863 -0.3984  0.4913
  832MOL0     H12281   9.594   6.214   2.704  0.9312  0.7512  2.1790
  832MOL0     H12282   9.084   6.489   2.767  0.3634 -1.5525  3.4734
  832MOL0     H12283   8.851   6.401   2.801  2.1935  1.0205  0.7579
  832MOL0     H12284   8.694   6.032   2.565 -3.7348  5.3279 -0.0177
  832MOL0     H12285   8.823   5.998   2.680 -0.4860 -1.7069 -0.9646
  832MOL0     H12286   8.606   5.906   2.769 -0.7510 -0.5290 -0.7498
  832MOL0     H12287   8.673   6.024   2.867 -0.2467  1.8748 -0.6568
  832MOL0     H12288   8.521   6.195   2.811 -0.3384  2.3370 -3.9817
  832MOL0     H12289   8.470   6.117   2.656 -2.3831 -4.2895 -1.0061
  832MOL0     H12290   8.412   5.962   2.901  0.6302  0.0495  0.2197
  832MOL0     H12291   8.338   5.959   2.745  2.0688  0.4507 -1.1985
  832MOL0     H12292   8.267   6.202   2.759 -1.2793 -0.7876 -0.3321
  832MOL0     H12293   8.325   6.203   2.926  3.1956 -0.2478 -1.4509
  832MOL0     H12294   8.106   6.018   2.804 -0.1649 -0.7113 -0.1482
  832MOL0     H12295   8.167   5.999   2.971  0.1621 -1.4677 -1.1813
  832MOL0     H12296   8.031   6.241   2.843  0.1378  1.8082  0.3537
  832MOL0     H12297   8.098   6.252   3.000  0.5232 -0.3887  0.8405
  832MOL0     H12298   7.971   6.116   3.108  0.0993  3.8601  0.4242
  832MOL0     H12299   7.868   6.231   3.032 -0.1872  0.5626  2.0323
  832MOL0     H12300   8.935   6.095   2.513  0.6433  1.4911 -1.4712
  832MOL0     H12301   9.166   6.156   2.513 -0.0032 -1.9930  1.9013
  832MOL0     H12302   9.408   6.550   2.541 -0.3256 -1.6386 -1.7857
  832MOL0     H12303   9.610   6.662   2.499 -0.5113  0.3131 -1.0660
  832MOL0     H12304  10.311   7.266   2.061 -1.8120  1.0547 -0.7990
  832MOL0     H12305  10.127   7.330   1.928  0.5330 -0.2726  1.7328
  832MOL0     H12306   9.859   7.350   1.637  2.9313 -1.4568  0.8031
  832MOL0     H12307   9.661   7.282   1.525 -1.2027  0.9877 -2.3876
  832MOL0     H12308   9.497   7.244   1.350 -1.7708  3.3074 -3.8146
  832MOL0     H12309   9.545   7.075   1.321 -0.1803 -0.2433 -0.6724
  832MOL0     H12310   9.360   7.102   1.193 -0.2520 -0.0394 -1.5271
  832MOL0     H12311   9.498   7.090   1.090 -0.2762 -0.9267  0.9268
  832MOL0     H12312   9.352   7.271   1.004  0.1180  2.8319 -1.0465
  832MOL0     H12313   9.515   7.325   1.033 -2.7109  0.0188 -3.9109
  832MOL0     H12314   9.450   7.444   1.227  0.0146  0.2208 -0.2720
  832MOL0     H12315   9.328   7.488   1.113 -0.9524 -0.0540  2.3582
  832MOL0     H12316   9.074   7.301   1.383  0.4316 -2.0216 -1.6905
  832MOL0     H12317   9.891   7.247   1.154  0.5116 -1.8957  0.7484
  832MOL0     H12318  10.108   7.232   1.159 -1.7095 -1.1608  1.2357
  832MOL0     H12319  10.154   7.397   1.210  1.0399 -0.2349 -0.2575
  832MOL0     H12320  10.213   7.253   1.306  2.1060 -0.9661 -2.4737
  833MOL0     O12321   6.004   1.882  10.963 -0.1899 -0.3783 -0.0579
  833MOL0     C12322   6.022   2.004  10.975  0.0291 -0.3613 -0.6612
  833MOL0     O12323   6.140   2.063  10.997  0.0044  0.2526  0.1945
  833MOL0     C12324   6.255   2.005  11.042  0.0368 -0.8983  0.7211
  833MOL0     C12325   6.369   2.087  11.047  0.0100 -0.0968 -0.5254
  833MOL0     C12326   6.486   2.044  11.108  0.4148  0.5604 -0.3958
  833MOL0     C12327   6.499   1.913  11.161  0.7508 -0.6201  1.0001
  833MOL0     O12328   6.620   1.885  11.220  0.6334 -0.2227 -0.1463
  833MOL0     C12329   6.620   1.792  11.326 -0.1440  0.0566  0.3262
  833MOL0     C12330   6.762   1.781  11.379 -0.4032 -0.1831 -0.5440
  833MOL0     C12331   6.820   1.912  11.433  0.3957  0.2443 -0.2085
  833MOL0     C12332   6.944   1.872  11.517  0.3332 -0.2084 -0.0960
  833MOL0     C12333   6.961   1.970  11.627 -0.5824 -0.2477 -0.8363
  833MOL0     C12334   7.082   1.934  11.707  0.3919  0.8184  0.0606
  833MOL0     C12335   7.125   2.055  11.797  0.8135 -0.5358  1.3860
  833MOL0     C12336   7.265   2.047  11.843  0.3067 -0.0341 -0.3383
  833MOL0     N12337   7.279   1.938  11.946  0.5988 -0.1065  0.7736
  833MOL0     C12338   7.377   1.846  11.920  0.0643  0.3031 -1.1746
  833MOL0     C12339   7.380   1.771  12.029  0.5819  0.4828 -0.3631
  833MOL0     C12340   7.476   1.655  12.041 -0.4597  0.4500 -0.3042
  833MOL0     C12341   7.433   1.512  12.016  0.2910  0.8536 -0.1107
  833MOL0     C12342   7.546   1.405  11.996 -1.1482 -0.1446 -0.5929
  833MOL0     C12343   7.650   1.430  11.892 -0.8203 -0.2548  0.1295
  833MOL0     O12344   7.758   1.502  11.952 -0.4350 -0.6610 -0.9159
  833MOL0     C12345   7.885   1.486  11.904  0.0028 -0.4993  0.1194
  833MOL0     C12346   7.928   1.384  11.815 -0.1586 -0.2339 -0.4685
  833MOL0     C12347   8.060   1.376  11.788 -0.0358 -0.1640 -1.0556
  833MOL0     C12348   8.158   1.470  11.843  0.4469  0.0102  0.6075
  833MOL0     C12349   8.299   1.456  11.806  1.1055  0.5510  0.4884
  833MOL0     O12350   8.378   1.559  11.844  0.3285 -0.8743 -0.7660
  833MOL0     C12351   8.518   1.568  11.854 -0.6185 -0.7245 -0.0082
  833MOL0     C12352   8.608   1.496  11.777  0.6110  0.2674 -0.2215
  833MOL0     C12353   8.742   1.525  11.793  0.0283 -0.4915 -0.2190
  833MOL0     C12354   8.792   1.623  11.878  0.1339 -0.3165 -0.4368
  833MOL0     O12355   8.918   1.676  11.876 -0.1314 -0.3233  0.1400
  833MOL0     C12356   9.014   1.569  11.853 -0.5684 -0.8316  0.3585
  833MOL0     C12357   9.150   1.615  11.901  0.0966 -0.7129 -0.7935
  833MOL0     C12358   9.248   1.495  11.904  0.1224  0.6320  0.5370
  833MOL0     C12359   9.382   1.533  11.967 -0.5175 -0.3735 -0.4535
  833MOL0     C12360   9.497   1.435  11.928  0.2079 -0.1253 -0.4337
  833MOL0     C12361   9.608   1.451  12.023  0.9371  0.0483  0.2863
  833MOL0     C12362   9.747   1.380  11.989 -0.1101 -0.6720 -0.0313
  833MOL0     C12363   9.854   1.401  12.096  0.9561 -0.1482 -0.4810
  833MOL0    Cl12364   9.871   1.574  12.113  0.1240 -0.1548 -0.0544
  833MOL0     C12365   8.703   1.688  11.953  0.0465 -0.4835 -1.2180
  833MOL0     C12366   8.561   1.663  11.949  0.2796  0.5460  0.1121
  833MOL0     O12367   8.341   1.351  11.755 -0.1247 -0.2288  0.2662
  833MOL0     C12368   8.107   1.566  11.930  0.5956  0.0025  1.2377
  833MOL0     C12369   7.976   1.575  11.958 -0.1298 -0.2270 -0.3656
  833MOL0     N12370   7.278   1.812  12.116 -0.5736  0.3811  0.4345
  833MOL0     N12371   7.205   1.910  12.059  0.6817  0.1354 -0.4840
  833MOL0     C12372   6.394   1.826  11.142 -0.5944  0.5022 -0.6903
  833MOL0     C12373   6.281   1.869  11.076 -0.5490 -0.4536  0.5070
  833MOL0     C12374   5.912   2.095  10.934  1.2344 -0.0079 -0.4652
  833MOL0     C12375   5.947   2.223  10.882 -0.3166  1.0353  0.6202
  833MOL0     C12376   5.858   2.312  10.823 -0.2605  0.1196 -0.6285
  833MOL0     C12377   5.725   2.277  10.815  0.5157  0.5184 -0.8163
  833MOL0     O12378   5.631   2.366  10.765 -0.8652 -0.1633  0.6539
  833MOL0     C12379   5.508   2.324  10.706  0.6316 -0.2301 -0.7627
  833MOL0     C12380   5.392   2.336  10.817  0.2010  0.0868  0.0330
  833MOL0     C12381   5.373   2.484  10.868  0.5691 -0.2886  0.5824
  833MOL0     C12382   5.241   2.492  10.949  0.1223  0.5477 -0.1231
  833MOL0     C12383   5.225   2.635  10.981  0.1164  0.3654  0.5043
  833MOL0     C12384   5.245   2.756  11.007  0.2543 -0.2772 -0.0667
  833MOL0     C12385   5.684   2.158  10.881  0.6480 -0.5316  0.8859
  833MOL0     C12386   5.773   2.064  10.937  0.9700 -0.1614  0.3607
  833MOL0     C12387   5.707   1.937  10.996  0.7866  0.6430 -0.7382
  833MOL0     H12388   6.364   2.185  11.001 -3.7498  0.3893  0.5590
  833MOL0     H12389   6.570   2.111  11.122  2.7941 -2.0946 -1.0118
  833MOL0     H12390   6.546   1.814  11.403  0.6726  0.3321  1.0481
  833MOL0     H12391   6.594   1.700  11.272 -0.6355 -0.2614  1.0881
  833MOL0     H12392   6.830   1.735  11.306  1.6506  0.6427  0.7495
  833MOL0     H12393   6.753   1.701  11.454 -0.0349 -1.1816 -1.5318
  833MOL0     H12394   6.739   1.955  11.493 -1.3596 -1.9516 -0.8444
  833MOL0     H12395   6.848   1.977  11.350  1.1020  0.8168  0.4672
  833MOL0     H12396   6.930   1.778  11.570  0.1765  0.7362  1.5990
  833MOL0     H12397   7.031   1.872  11.451  0.6555 -1.8809  0.2727
  833MOL0     H12398   6.978   2.071  11.587 -0.8678  1.2709  2.4918
  833MOL0     H12399   6.873   1.975  11.691 -1.4122 -1.1024 -1.8787
  833MOL0     H12400   7.046   1.856  11.774 -2.1018  0.1605 -1.9204
  833MOL0     H12401   7.163   1.897  11.644 -0.2137  1.4954 -1.1487
  833MOL0     H12402   7.061   2.067  11.884  2.0362 -0.8820  2.3569
  833MOL0     H12403   7.114   2.146  11.736 -2.8774  0.0358  2.6489
  833MOL0     H12404   7.320   2.018  11.753 -0.8781 -0.3426 -0.9760
  833MOL0     H12405   7.303   2.137  11.894 -2.1911  1.9172 -1.6617
  833MOL0     H12406   7.437   1.827  11.832 -0.1017 -0.9416 -1.0366
  833MOL0     H12407   7.558   1.682  11.974 -0.7914  1.4651 -0.3277
  833MOL0     H12408   7.523   1.647  12.140 -1.1936 -0.3558 -0.0048
  833MOL0     H12409   7.374   1.478  12.101 -0.3336  2.2284  0.0352
  833MOL0     H12410   7.374   1.506  11.924 -0.4234 -1.7013  0.4480
  833MOL0     H12411   7.504   1.313  11.955  1.5535 -2.0134  0.5133
  833MOL0     H12412   7.594   1.388  12.093  0.3305  2.9052 -0.6705
  833MOL0     H12413   7.615   1.492  11.809 -1.3372  1.7998  1.8154
  833MOL0     H12414   7.680   1.334  11.848 -1.9061  0.4076 -2.2280
  833MOL0     H12415   7.867   1.311  11.762  1.8479 -0.7954 -2.1431
  833MOL0     H12416   8.087   1.299  11.717 -2.3834 -1.1947 -0.9068
  833MOL0     H12417   8.573   1.422  11.706 -3.4325  1.4337  0.2626
  833MOL0     H12418   8.806   1.481  11.718 -0.8469  1.8642 -2.5012
  833MOL0     H12419   8.992   1.474  11.904  1.3874 -0.5497  1.8684
  833MOL0     H12420   9.024   1.539  11.748  3.0892  0.9435  0.0581
  833MOL0     H12421   9.192   1.703  11.850 -0.3780  2.1800  3.3529
  833MOL0     H12422   9.137   1.672  11.993  1.3099 -0.5272 -0.7120
  833MOL0     H12423   9.202   1.411  11.956 -0.1292  0.7530  0.5100
  833MOL0     H12424   9.259   1.450  11.804  0.5548 -0.8407  1.2187
  833MOL0     H12425   9.367   1.541  12.075 -0.2120  1.8177 -0.5258
  833MOL0     H12426   9.410   1.636  11.942  3.5188  0.1851  4.6078
  833MOL0     H12427   9.538   1.452  11.828  0.6850 -0.3373 -0.2742
  833MOL0     H12428   9.453   1.336  11.937 -2.2546  0.9988  0.9275
  833MOL0     H12429   9.632   1.558  12.020  1.6714 -0.0991  0.4869
  833MOL0     H12430   9.568   1.421  12.120 -1.4832 -1.0725 -0.9744
  833MOL0     H12431   9.783   1.407  11.890 -1.2088 -2.5039 -0.9957
  833MOL0     H12432   9.732   1.271  11.986  4.5854 -1.6038  1.7957
  833MOL0     H12433   9.816   1.360  12.190  0.2088  1.9280  0.1834
  833MOL0     H12434   9.951   1.357  12.071  0.8281 -0.6841 -0.0548
  833MOL0     H12435   8.724   1.771  12.020 -1.4071 -1.5265  0.6409
  833MOL0     H12436   8.487   1.718  12.007  0.8244  0.3626  0.9917
  833MOL0     H12437   8.176   1.640  11.969  0.4321 -0.5026  2.5481
  833MOL0     H12438   7.944   1.649  12.031  4.0951 -0.1213  1.6970
  833MOL0     H12439   6.406   1.719  11.157  1.5558  0.9403  1.3632
  833MOL0     H12440   6.201   1.797  11.065 -0.6319 -0.6295  1.9823
  833MOL0     H12441   6.048   2.262  10.895  0.0486 -0.5240  3.3177
  833MOL0     H12442   5.907   2.398  10.779 -0.7239  0.9459  0.4272
  833MOL0     H12443   5.521   2.224  10.664  1.1491  0.5967 -2.7056
  833MOL0     H12444   5.480   2.390  10.623 -1.4617 -0.1589 -0.0463
  833MOL0     H12445   5.409   2.271  10.903  1.4753 -2.0237 -1.7097
  833MOL0     H12446   5.299   2.297  10.775 -0.5828  0.4465  1.3724
  833MOL0     H12447   5.370   2.557  10.787  1.5762 -0.8585  0.0109
  833MOL0     H12448   5.456   2.508  10.936  1.9215  0.5330 -1.2835
  833MOL0     H12449   5.157   2.463  10.886 -1.4298  2.5816  0.9237
  833MOL0     H12450   5.257   2.436  11.043  0.1124  2.1833  0.8863
  833MOL0     H12451   5.251   2.861  11.026 -2.6790 -0.0730  0.2617
  833MOL0     H12452   5.578   2.140  10.894  0.4040  1.7369  2.6268
  833MOL0     H12453   5.669   1.875  10.915  0.8732 -1.7252  0.9547
  833MOL0     H12454   5.782   1.884  11.056  0.9365  1.0055 -0.6006
  833MOL0     H12455   5.621   1.958  11.059 -0.0441 -2.3360 -0.7401
  834MOL0     O12456   6.330   2.856   0.051 -0.0239 -0.6697 -0.5022
  834MOL0     C12457   6.411   2.820  -0.035 -0.3135  0.5280  0.1066
  834MOL0     O12458   6.403   2.845  -0.171 -0.0405  0.8529  0.0368
  834MOL0     C12459   6.296   2.913  -0.227 -0.2600 -0.2606 -0.4260
  834MOL0     C12460   6.164   2.908  -0.185  0.0022  0.3180 -1.2438
  834MOL0     C12461   6.054   2.967  -0.243  0.5430 -0.2254  0.3242
  834MOL0     C12462   6.067   3.033  -0.366 -0.7209  0.2373  0.3369
  834MOL0     O12463   5.963   3.101  -0.426 -1.0607 -0.1479 -0.3510
  834MOL0     C12464   5.901   3.210  -0.348  0.1636 -0.0350  1.3918
  834MOL0     C12465   5.869   3.334  -0.437  0.3509  0.3043 -0.3221
  834MOL0     C12466   5.984   3.382  -0.531 -0.6349  0.3846  1.0480
  834MOL0     C12467   6.009   3.302  -0.661 -0.0185 -0.8532  0.1873
  834MOL0     C12468   5.883   3.271  -0.744 -0.0375  0.3776 -0.1898
  834MOL0     C12469   5.918   3.251  -0.894  0.0141  0.7292 -0.2689
  834MOL0     C12470   5.793   3.197  -0.969 -0.7304 -0.6845  0.5211
  834MOL0     C12471   5.822   3.202  -1.118  0.0633 -0.3354 -0.2589
  834MOL0     N12472   5.890   3.078  -1.155  0.8757  0.5670  0.9278
  834MOL0     C12473   6.023   3.070  -1.154  0.5393 -0.4293 -0.2006
  834MOL0     C12474   6.048   2.939  -1.173 -0.2087 -0.2041  0.0603
  834MOL0     C12475   6.182   2.876  -1.190 -0.2078 -0.6850  0.1451
  834MOL0     C12476   6.253   2.844  -1.060 -0.0748 -0.0422  0.1486
  834MOL0     C12477   6.334   2.957  -1.011 -0.0519  0.4904  0.0142
  834MOL0     C12478   6.400   2.923  -0.882 -0.9917 -0.3010  0.1343
  834MOL0     O12479   6.521   3.003  -0.876  0.1948 -0.0739  0.2911
  834MOL0     C12480   6.615   2.967  -0.779 -1.0378  0.4118 -0.4895
  834MOL0     C12481   6.586   2.900  -0.664  0.2891  0.6431  0.4644
  834MOL0     C12482   6.687   2.849  -0.580  0.6399 -0.1806  0.2461
  834MOL0     C12483   6.823   2.858  -0.617  1.1704 -0.0393 -0.5249
  834MOL0     C12484   6.926   2.790  -0.535 -0.2137  0.0790 -0.3799
  834MOL0     O12485   7.054   2.815  -0.571 -0.0264  0.4804 -0.6116
  834MOL0     C12486   7.154   2.754  -0.488 -0.2327  0.5052 -0.4968
  834MOL0     C12487   7.157   2.731  -0.350  0.0973 -0.4405 -0.0087
  834MOL0     C12488   7.268   2.680  -0.287 -0.0186  0.5936  0.0509
  834MOL0     C12489   7.378   2.653  -0.368 -0.3968 -0.0400 -0.6444
  834MOL0     O12490   7.496   2.603  -0.323  0.4889  0.2306  0.9588
  834MOL0     C12491   7.502   2.571  -0.183 -0.4379  0.8215 -0.2316
  834MOL0     C12492   7.629   2.505  -0.147  0.1620  0.3714 -0.1484
  834MOL0     C12493   7.644   2.358  -0.182  0.0252 -0.2585  0.6729
  834MOL0     C12494   7.782   2.305  -0.142  0.3606 -0.0247  2.2219
  834MOL0     C12495   7.801   2.293   0.005  0.1763  0.2630 -0.0531
  834MOL0     C12496   7.932   2.233   0.037 -0.3946 -0.0752  0.5778
  834MOL0     C12497   7.951   2.206   0.178 -1.2338 -0.9281 -0.7208
  834MOL0     C12498   7.915   2.326   0.272  0.1890 -0.7289  0.0443
  834MOL0    Cl12499   8.037   2.461   0.252  0.4695 -0.2908  0.5096
  834MOL0     C12500   7.375   2.667  -0.507  0.7467 -0.1517  0.0078
  834MOL0     C12501   7.263   2.720  -0.563 -0.4399 -0.3715 -0.5119
  834MOL0     O12502   6.888   2.720  -0.444  0.1902 -0.0984  0.1716
  834MOL0     C12503   6.854   2.938  -0.731 -0.5889  0.1579 -0.6395
  834MOL0     C12504   6.752   2.991  -0.810 -0.0047 -0.3006 -0.1362
  834MOL0     N12505   5.928   2.871  -1.188  0.3696  0.1446 -0.3956
  834MOL0     N12506   5.831   2.957  -1.175 -0.0423  0.0806  0.6144
  834MOL0     C12507   6.197   3.044  -0.422  0.8173 -0.4435 -0.5532
  834MOL0     C12508   6.305   2.980  -0.351 -0.7581 -0.0415 -1.3159
  834MOL0     C12509   6.550   2.763  -0.002  0.5279  0.1613 -0.1601
  834MOL0     C12510   6.643   2.746  -0.109  0.3807 -0.1816  0.3947
  834MOL0     C12511   6.768   2.684  -0.093  0.5789 -0.1297 -1.0499
  834MOL0     C12512   6.796   2.635   0.034  1.1221 -1.6078 -0.1392
  834MOL0     O12513   6.911   2.564   0.052  0.2302 -0.5531 -0.1163
  834MOL0     C12514   6.923   2.440  -0.025 -0.0700 -0.0186  0.2548
  834MOL0     C12515   7.004   2.337   0.061  0.1619 -0.0070 -0.6216
  834MOL0     C12516   7.155   2.372   0.069  0.2018  0.6709 -0.6976
  834MOL0     C12517   7.226   2.306   0.189  0.1489  0.4705 -0.4123
  834MOL0     C12518   7.375   2.308   0.183  0.1864  0.5336  0.0019
  834MOL0     C12519   7.494   2.341   0.183  0.3187  0.8936 -0.0845
  834MOL0     C12520   6.715   2.671   0.141  0.5067 -0.0720 -0.0071
  834MOL0     C12521   6.586   2.722   0.129  0.2744 -0.3800 -0.5071
  834MOL0     C12522   6.506   2.732   0.254 -0.1657 -1.1407 -0.0684
  834MOL0     H12523   6.150   2.852  -0.093 -0.7142  1.2114 -0.7955
  834MOL0     H12524   5.953   2.950  -0.206  0.4493  0.5422  0.4457
  834MOL0     H12525   5.807   3.181  -0.300 -1.6301  0.4369 -1.5903
  834MOL0     H12526   5.975   3.248  -0.278  3.0204 -1.7954 -0.4449
  834MOL0     H12527   5.824   3.416  -0.381  0.0217  0.0881 -0.2632
  834MOL0     H12528   5.790   3.307  -0.509  0.1127  0.6966 -0.2098
  834MOL0     H12529   6.077   3.387  -0.473 -0.6228  0.5522  1.0128
  834MOL0     H12530   5.968   3.487  -0.558 -0.6258  0.7905  2.5457
  834MOL0     H12531   6.077   3.369  -0.716  0.8973  0.8378  3.1498
  834MOL0     H12532   6.068   3.211  -0.650  1.3539 -0.4343 -2.6766
  834MOL0     H12533   5.837   3.188  -0.690  0.4724 -0.2568 -0.7037
  834MOL0     H12534   5.811   3.353  -0.736  0.0685  0.4304  0.2628
  834MOL0     H12535   5.947   3.347  -0.938 -1.1759  2.7192  2.9272
  834MOL0     H12536   6.002   3.183  -0.909 -0.4523  0.3413 -1.2033
  834MOL0     H12537   5.701   3.251  -0.945  0.7940  2.0553  0.5235
  834MOL0     H12538   5.797   3.093  -0.936  1.8826  0.4906  4.5539
  834MOL0     H12539   5.728   3.236  -1.162  0.2974  3.6873  1.9274
  834MOL0     H12540   5.904   3.266  -1.152  0.8672 -1.2305 -0.0630
  834MOL0     H12541   6.093   3.152  -1.164 -0.7502  1.1477  2.6073
  834MOL0     H12542   6.168   2.788  -1.253  0.9202 -0.2415 -0.7709
  834MOL0     H12543   6.244   2.933  -1.261 -0.6791 -0.2156  0.1053
  834MOL0     H12544   6.173   2.811  -0.993 -0.9951 -0.1287 -0.9680
  834MOL0     H12545   6.317   2.758  -1.085  0.6293  1.0337 -2.0207
  834MOL0     H12546   6.275   3.050  -1.006  1.5582  1.4932  2.2424
  834MOL0     H12547   6.405   2.978  -1.091  0.2286  0.7159  0.3188
  834MOL0     H12548   6.424   2.817  -0.872  1.1943  0.2019  0.7703
  834MOL0     H12549   6.335   2.957  -0.801 -1.6294 -2.3044  0.4996
  834MOL0     H12550   6.483   2.876  -0.637 -0.6397 -0.5973 -3.4669
  834MOL0     H12551   6.658   2.801  -0.487  0.9276  0.2550  0.5619
  834MOL0     H12552   7.068   2.759  -0.295 -1.2986  2.2360 -3.2492
  834MOL0     H12553   7.268   2.665  -0.179  0.2886 -0.8413 -0.1344
  834MOL0     H12554   7.489   2.658  -0.118 -0.7993  0.6857 -0.1167
  834MOL0     H12555   7.420   2.500  -0.171  0.1969 -0.5178 -2.9968
  834MOL0     H12556   7.718   2.559  -0.182 -1.5611  0.7745 -4.6441
  834MOL0     H12557   7.624   2.518  -0.039  0.4740 -1.5863  0.1324
  834MOL0     H12558   7.559   2.295  -0.154 -0.6608 -0.3545 -1.4245
  834MOL0     H12559   7.628   2.353  -0.290  1.5698  2.4667  0.2244
  834MOL0     H12560   7.856   2.373  -0.186  0.4470 -1.4287  0.0413
  834MOL0     H12561   7.804   2.211  -0.194  2.4953  1.8618 -0.6011
  834MOL0     H12562   7.725   2.220   0.035 -0.7628  0.5185 -1.7199
  834MOL0     H12563   7.790   2.388   0.057  0.1523  1.0191 -1.4096
  834MOL0     H12564   7.949   2.140  -0.018 -0.0140  1.1252 -1.4305
  834MOL0     H12565   8.009   2.303   0.003 -1.2507  0.2420 -0.8251
  834MOL0     H12566   8.057   2.182   0.193 -0.6962  0.7743 -1.5612
  834MOL0     H12567   7.889   2.122   0.210 -1.9245 -0.4087 -0.6651
  834MOL0     H12568   7.815   2.362   0.248  0.7537  0.1031 -1.1913
  834MOL0     H12569   7.920   2.282   0.372  2.5257 -0.9537 -0.1201
  834MOL0     H12570   7.461   2.634  -0.565  0.6159 -0.1230 -0.2005
  834MOL0     H12571   7.261   2.739  -0.670  0.5372  2.4432 -0.1079
  834MOL0     H12572   6.958   2.948  -0.760 -0.1796 -0.2034  0.6642
  834MOL0     H12573   6.775   3.048  -0.900 -0.8114 -0.1986 -0.2827
  834MOL0     H12574   6.207   3.087  -0.521 -2.4091 -0.1623 -0.8573
  834MOL0     H12575   6.400   2.990  -0.403 -1.3584  4.3682 -2.0073
  834MOL0     H12576   6.622   2.790  -0.205  1.0310  1.0885  0.8198
  834MOL0     H12577   6.853   2.674  -0.159  0.4890  0.2834 -1.2280
  834MOL0     H12578   6.973   2.469  -0.118 -0.8701  0.3165 -0.0798
  834MOL0     H12579   6.826   2.396  -0.051 -0.6112  2.1181 -1.7350
  834MOL0     H12580   6.985   2.235   0.026 -0.6371 -0.6168  1.4184
  834MOL0     H12581   6.971   2.336   0.166  3.0160 -1.4277  0.3683
  834MOL0     H12582   7.165   2.481   0.075 -0.0082  0.6209  1.5727
  834MOL0     H12583   7.208   2.335  -0.019 -2.1390  0.9805 -2.3294
  834MOL0     H12584   7.190   2.362   0.276 -2.1562 -0.4364 -0.7084
  834MOL0     H12585   7.191   2.204   0.208  0.5969  0.4526  0.3592
  834MOL0     H12586   7.591   2.379   0.160  1.4679  0.3024  3.2895
  834MOL0     H12587   6.762   2.633   0.231  0.8241 -3.0428 -1.2915
  834MOL0     H12588   6.562   2.686   0.336 -0.1975 -1.9870 -0.5099
  834MOL0     H12589   6.493   2.839   0.275  0.7159 -0.5083 -2.5000
  834MOL0     H12590   6.415   2.671   0.244 -1.0136 -0.5244  2.7476
  835MOL0     O12591  11.306  10.537  11.145 -0.8479 -1.5119 -0.1716
  835MOL0     C12592  11.247  10.632  11.091 -0.3535  0.6817 -0.6550
  835MOL0     O12593  11.306  10.756  11.059 -0.4981 -0.6462 -0.1302
  835MOL0     C12594  11.442  10.783  11.058 -0.4095 -0.3467  0.0260
  835MOL0     C12595  11.534  10.684  11.029 -0.0143  0.0453 -0.1228
  835MOL0     C12596  11.671  10.702  11.008  1.5986 -0.4111 -0.4291
  835MOL0     C12597  11.724  10.828  11.039  0.7774 -0.5504  0.2660
  835MOL0     O12598  11.857  10.871  11.039 -0.0462 -0.3326 -0.6521
  835MOL0     C12599  11.957  10.778  11.019 -0.7740  0.6019  0.5513
  835MOL0     C12600  11.987  10.741  10.865 -0.0664  0.2310 -0.3931
  835MOL0     C12601  12.094  10.622  10.862 -0.0393 -0.6275  0.0014
  835MOL0     C12602  12.240  10.683  10.873  0.4239  1.2580  0.1010
  835MOL0     C12603  12.347  10.563  10.865  1.1380 -0.6285 -0.9065
  835MOL0     C12604  12.484  10.595  10.852 -0.1795 -0.2288  0.3033
  835MOL0     C12605  12.567  10.463  10.824 -0.1822 -0.6551  0.6169
  835MOL0     C12606  12.691  10.489  10.747  0.5079 -0.5743  0.0448
  835MOL0     N12607  12.749  10.364  10.699 -0.7590  0.4090 -0.0079
  835MOL0     C12608  12.781  10.256  10.768  0.2472 -0.2514  0.2394
  835MOL0     C12609  12.851  10.179  10.677 -0.0762  0.2263  0.2918
  835MOL0     C12610  12.909  10.038  10.697 -0.4175 -0.1772 -0.5680
  835MOL0     C12611  13.059  10.048  10.729 -0.3374 -0.1286 -0.5759
  835MOL0     C12612  13.138  10.121  10.619 -0.5436  0.2020 -0.5170
  835MOL0     C12613  13.288  10.144  10.657  0.3939 -0.2332  0.0415
  835MOL0     O12614  13.352  10.013  10.645  0.4072 -0.1304  0.5920
  835MOL0     C12615  13.482  10.000  10.622  0.2400 -0.4801  1.2144
  835MOL0     C12616  13.562   9.919  10.700  0.0066  1.0255 -0.7507
  835MOL0     C12617  13.700   9.901  10.670 -0.0232  0.1532  0.2517
  835MOL0     C12618  13.767   9.976  10.570  0.2173  0.4010  0.4570
  835MOL0     C12619  13.912   9.970  10.542  1.0425 -0.6861 -0.3763
  835MOL0     O12620  13.990   9.869  10.589 -0.5008  0.0861  0.1502
  835MOL0     C12621  14.126   9.872  10.550  0.4120  0.4620  0.1902
  835MOL0     C12622  14.167   9.892  10.414  1.4453 -0.9116 -0.0503
  835MOL0     C12623  14.297   9.874  10.365  0.4662  0.8012  0.4853
  835MOL0     C12624  14.398   9.849  10.450 -0.1743  0.0070 -0.6224
  835MOL0     O12625  14.530   9.838  10.410  0.6899 -0.6679 -0.3423
  835MOL0     C12626  14.551   9.721  10.330  0.8052  0.4003  0.2467
  835MOL0     C12627  14.609   9.616  10.422  0.6919 -0.6930  0.3749
  835MOL0     C12628  14.732   9.651  10.502  0.4769 -0.0926 -0.1026
  835MOL0     C12629  14.732   9.582  10.640 -0.0501  0.5528 -0.0820
  835MOL0     C12630  14.868   9.593  10.715  0.3733 -0.1022 -0.0695
  835MOL0     C12631  14.852   9.530  10.858 -0.7150 -0.7652  0.1569
  835MOL0     C12632  14.987   9.532  10.924 -0.4026 -1.0438  0.2850
  835MOL0     C12633  15.083   9.425  10.886 -0.4068  0.7255 -0.3402
  835MOL0    Cl12634  15.002   9.266  10.916  0.0520 -0.3581  0.1893
  835MOL0     C12635  14.368   9.828  10.584  0.2128  0.0071 -0.3217
  835MOL0     C12636  14.232   9.838  10.634  0.2742  1.0461  0.2691
  835MOL0     O12637  13.949  10.065  10.480  0.1582  0.0678 -0.4860
  835MOL0     C12638  13.685  10.060  10.499  0.7987 -0.0370 -1.0934
  835MOL0     C12639  13.545  10.074  10.521 -0.2720 -0.1746 -0.6735
  835MOL0     N12640  12.863  10.251  10.559 -0.0185 -0.8597  0.3198
  835MOL0     N12641  12.809  10.361  10.576 -0.0039  0.1168 -0.1974
  835MOL0     C12642  11.630  10.940  11.074  0.3223  1.6746  0.0704
  835MOL0     C12643  11.487  10.918  11.081  0.3256  0.1721  0.1367
  835MOL0     C12644  11.101  10.637  11.110 -1.0188  0.9364  1.2829
  835MOL0     C12645  11.039  10.752  11.163 -1.0861 -0.2835  0.1869
  835MOL0     C12646  10.894  10.758  11.163  0.1391  0.7546 -0.0912
  835MOL0     C12647  10.812  10.651  11.132 -0.2997 -1.1114 -0.5510
  835MOL0     O12648  10.677  10.660  11.152 -0.7647  0.0979 -0.3120
  835MOL0     C12649  10.609  10.721  11.045 -0.9973 -0.5166 -0.1585
  835MOL0     C12650  10.457  10.727  11.071 -0.1394 -0.2277 -1.0149
  835MOL0     C12651  10.387  10.589  11.077  0.1105 -0.3126  0.5001
  835MOL0     C12652  10.237  10.607  11.059 -0.6298  0.0570 -0.5849
  835MOL0     C12653  10.160  10.480  11.076 -0.8378  0.1714  0.2344
  835MOL0     C12654  10.110  10.369  11.077 -0.1037  0.5695 -0.2867
  835MOL0     C12655  10.882  10.537  11.096  0.1544  0.8587  0.0348
  835MOL0     C12656  11.016  10.530  11.076  0.1954 -0.6002 -0.1427
  835MOL0     C12657  11.072  10.406  11.020  0.3153  0.0645  0.7916
  835MOL0     H12658  11.495  10.584  11.011 -1.4346 -0.0814  3.0122
  835MOL0     H12659  11.724  10.609  10.991 -2.0227 -2.5736 -0.8918
  835MOL0     H12660  12.050  10.806  11.069  1.3004 -1.2880 -1.9568
  835MOL0     H12661  11.928  10.685  11.068 -1.5754  0.0680 -0.8740
  835MOL0     H12662  12.015  10.841  10.832 -1.3478  1.3533  1.6914
  835MOL0     H12663  11.899  10.708  10.809  0.4711  2.8854 -3.0869
  835MOL0     H12664  12.095  10.561  10.771  0.6846 -1.7088  0.7068
  835MOL0     H12665  12.076  10.547  10.940  2.9507 -0.5801  0.8609
  835MOL0     H12666  12.255  10.763  10.800  0.2998 -1.8785 -3.7352
  835MOL0     H12667  12.244  10.727  10.973  0.2014  1.7048 -0.0855
  835MOL0     H12668  12.334  10.512  10.961  0.1750 -0.2999 -0.8505
  835MOL0     H12669  12.316  10.501  10.781  1.9743  1.4969 -2.9119
  835MOL0     H12670  12.495  10.672  10.775  0.8796  1.5935  2.1601
  835MOL0     H12671  12.517  10.650  10.941  2.3200 -1.9404  0.5475
  835MOL0     H12672  12.511  10.390  10.764  0.3286 -2.1412  1.8919
  835MOL0     H12673  12.596  10.419  10.920  1.9651  2.7958  1.7237
  835MOL0     H12674  12.662  10.544  10.658 -1.2959 -2.8079 -0.8414
  835MOL0     H12675  12.759  10.554  10.803 -0.6672  2.3069 -1.6729
  835MOL0     H12676  12.768  10.246  10.876  0.6478 -0.6400  0.2574
  835MOL0     H12677  12.852   9.988  10.776 -2.6967 -0.7189 -2.4505
  835MOL0     H12678  12.887   9.989  10.601  1.4263  1.3663 -1.8369
  835MOL0     H12679  13.068  10.095  10.827  0.5755 -0.6321 -0.3992
  835MOL0     H12680  13.110   9.954  10.756 -0.2207  0.5049  1.6030
  835MOL0     H12681  13.097  10.222  10.614 -3.5729 -0.7848  1.7066
  835MOL0     H12682  13.140  10.067  10.524  3.8827 -1.2559  0.1720
  835MOL0     H12683  13.308  10.185  10.756  2.4967 -0.6353 -0.1840
  835MOL0     H12684  13.321  10.216  10.582 -0.6159 -1.4333 -1.6415
  835MOL0     H12685  13.511   9.857  10.774 -1.7357  1.4490 -1.5424
  835MOL0     H12686  13.763   9.837  10.730 -0.8431 -3.5542 -2.4906
  835MOL0     H12687  14.098   9.925  10.337  3.9678  1.4239 -1.4937
  835MOL0     H12688  14.321   9.879  10.259 -2.5714 -1.9939 -0.4871
  835MOL0     H12689  14.462   9.688  10.276  0.6388 -0.3154  0.9464
  835MOL0     H12690  14.624   9.748  10.253 -0.3430  1.6014 -0.4661
  835MOL0     H12691  14.525   9.592  10.488 -0.3896  0.4435 -0.5366
  835MOL0     H12692  14.619   9.525  10.362 -2.2688 -1.0875  0.2905
  835MOL0     H12693  14.813   9.606  10.443  0.4560 -0.7127  0.3340
  835MOL0     H12694  14.742   9.760  10.505  0.2894 -0.0133 -1.6662
  835MOL0     H12695  14.695   9.478  10.642 -2.6967  1.3987 -0.5655
  835MOL0     H12696  14.667   9.640  10.706  0.7683  0.1014  1.1615
  835MOL0     H12697  14.887   9.699  10.731  2.2848 -0.4018 -0.1070
  835MOL0     H12698  14.952   9.552  10.659  0.1796 -0.1380 -0.3336
  835MOL0     H12699  14.788   9.596  10.916 -0.2083 -0.6411  0.5893
  835MOL0     H12700  14.804   9.432  10.861  2.4684 -2.5710 -1.8039
  835MOL0     H12701  14.986   9.555  11.031  0.4617  0.4959 -0.0027
  835MOL0     H12702  15.040   9.619  10.883 -0.0403 -1.2853  0.2353
  835MOL0     H12703  15.108   9.429  10.780  1.0487 -1.9298 -0.1960
  835MOL0     H12704  15.169   9.435  10.952 -0.5671  4.4088 -0.5123
  835MOL0     H12705  14.438   9.805  10.664 -2.7437 -0.6862  2.2476
  835MOL0     H12706  14.216   9.815  10.738 -0.2944 -0.6978 -0.1676
  835MOL0     H12707  13.715  10.109  10.407  0.1510 -2.8244 -2.9327
  835MOL0     H12708  13.486  10.134  10.453 -0.4038  3.7133  2.4411
  835MOL0     H12709  11.660  11.044  11.077  1.3534  1.4318 -0.9482
  835MOL0     H12710  11.415  10.999  11.091  1.3596  1.0988  0.2333
  835MOL0     H12711  11.105  10.832  11.194 -2.5683  1.0019  0.1349
  835MOL0     H12712  10.841  10.848  11.195  0.2136  0.2016  1.6862
  835MOL0     H12713  10.638  10.666  10.955 -0.6899 -1.2942  0.4026
  835MOL0     H12714  10.649  10.823  11.035 -1.8026  0.0361  1.7200
  835MOL0     H12715  10.404  10.796  11.004 -1.5580 -0.6582 -0.3767
  835MOL0     H12716  10.448  10.772  11.170 -4.6425  0.9347 -1.7331
  835MOL0     H12717  10.413  10.548  11.175  1.6027 -0.7750 -0.0591
  835MOL0     H12718  10.415  10.516  11.001 -0.8047 -0.4863  0.3120
  835MOL0     H12719  10.210  10.679  11.137 -0.6431 -0.1609 -0.3866
  835MOL0     H12720  10.226  10.664  10.966  0.1917  1.2973  0.0416
  835MOL0     H12721  10.062  10.273  11.084 -1.6151  1.3887  1.4433
  835MOL0     H12722  10.824  10.457  11.050 -0.9941 -0.0048  2.7381
  835MOL0     H12723  11.102  10.331  11.094 -0.3364  0.6659  1.6875
  835MOL0     H12724  10.993  10.359  10.961  0.5666 -4.7735  3.7502
  835MOL0     H12725  11.159  10.429  10.957  1.0620  3.5092  2.7960
  836MOL0     O12726   0.105  10.401   0.128 -0.0178  0.1963 -0.3845
  836MOL0     C12727   0.099  10.274   0.114 -0.8252  0.1842  0.0508
  836MOL0     O12728   0.204  10.186   0.108  0.1404  0.0235  0.4223
  836MOL0     C12729   0.329  10.221   0.153  0.5208 -0.4180  0.6709
  836MOL0     C12730   0.419  10.125   0.130  0.2295  0.6013 -0.8133
  836MOL0     C12731   0.550  10.138   0.159  0.3954  0.6973  0.1088
  836MOL0     C12732   0.594  10.247   0.239  0.8076  0.6618  0.3612
  836MOL0     O12733   0.724  10.243   0.281 -0.4106  0.0695 -0.0137
  836MOL0     C12734   0.770  10.276   0.408  0.0268  0.7200 -0.3028
  836MOL0     C12735   0.926  10.246   0.423  0.8373 -0.9167 -0.3672
  836MOL0     C12736   0.976  10.099   0.393  0.0853  0.2444  0.6998
  836MOL0     C12737   1.126  10.094   0.416 -0.1873 -0.4903 -0.9531
  836MOL0     C12738   1.186   9.959   0.376  0.3472 -0.0756 -0.8289
  836MOL0     C12739   1.330   9.946   0.428  0.2251 -0.2849  0.5621
  836MOL0     C12740   1.378   9.814   0.374  0.1457 -0.5812 -0.5144
  836MOL0     C12741   1.424   9.812   0.232 -0.0087 -0.1016 -0.3531
  836MOL0     N12742   1.549   9.877   0.216 -0.8294 -0.7108  1.0551
  836MOL0     C12743   1.675   9.823   0.242 -0.8637  0.5096 -0.1889
  836MOL0     C12744   1.769   9.915   0.201 -0.7786  0.7860 -0.5016
  836MOL0     C12745   1.926   9.892   0.200  0.3162  0.5952 -0.8525
  836MOL0     C12746   2.012  10.018   0.193 -0.6224  0.7112 -0.2662
  836MOL0     C12747   2.159   9.982   0.148  1.2002 -0.5910  0.2696
  836MOL0     C12748   2.251   9.930   0.259 -0.5221 -0.6510  0.5514
  836MOL0     O12749   2.381   9.939   0.195  0.1307  0.2752 -0.1697
  836MOL0     C12750   2.497   9.922   0.273  0.0256 -0.7543  0.5648
  836MOL0     C12751   2.628   9.933   0.216  0.8677  0.1765  0.5278
  836MOL0     C12752   2.749   9.923   0.290 -0.6561 -1.1059 -0.1123
  836MOL0     C12753   2.741   9.904   0.429 -0.8046 -0.0629 -0.1013
  836MOL0     C12754   2.862   9.900   0.517 -0.4892  0.3536 -0.5339
  836MOL0     O12755   2.981   9.930   0.452  0.5546  0.6850  0.4088
  836MOL0     C12756   3.106   9.905   0.503  0.3803  0.4932 -0.7576
  836MOL0     C12757   3.143   9.841   0.622  0.2715 -0.2507  0.5246
  836MOL0     C12758   3.279   9.818   0.651 -0.6376 -0.0830  0.6816
  836MOL0     C12759   3.376   9.843   0.555 -0.4529 -0.0553 -0.2977
  836MOL0     O12760   3.506   9.789   0.587 -0.2318 -0.1474  0.0368
  836MOL0     C12761   3.571   9.744   0.466  0.0178 -0.0002  0.2166
  836MOL0     C12762   3.700   9.681   0.520  0.1272 -0.4201 -0.1795
  836MOL0     C12763   3.789   9.656   0.401 -0.8324  0.4876 -0.0433
  836MOL0     C12764   3.900   9.559   0.433 -0.1394 -0.0967  0.0460
  836MOL0     C12765   3.999   9.559   0.315 -0.2659  0.8249 -0.3291
  836MOL0     C12766   4.110   9.465   0.352 -0.4718  0.9079 -0.1739
  836MOL0     C12767   4.225   9.461   0.251 -0.1605 -1.1289 -0.0710
  836MOL0     C12768   4.337   9.362   0.299 -0.3363 -0.2805  0.2464
  836MOL0    Cl12769   4.281   9.200   0.327 -0.5096  0.0442  0.0497
  836MOL0     C12770   3.338   9.911   0.444 -0.1256 -0.0536 -0.1100
  836MOL0     C12771   3.203   9.933   0.415 -0.1083  0.7154  0.0827
  836MOL0     O12772   2.845   9.864   0.635 -0.9297  0.1622 -0.4385
  836MOL0     C12773   2.616   9.903   0.487  0.0590 -0.0376 -0.2894
  836MOL0     C12774   2.499   9.908   0.415 -0.4565 -0.6514 -0.7464
  836MOL0     N12775   1.703  10.026   0.157  0.4114 -0.7243  0.2320
  836MOL0     N12776   1.577  10.002   0.168  0.1416 -0.6568 -0.5319
  836MOL0     C12777   0.499  10.349   0.269 -0.1830  1.0637 -0.5488
  836MOL0     C12778   0.371  10.344   0.213 -0.3686 -0.2670 -0.0183
  836MOL0     C12779  -0.027  10.206   0.102 -0.3261 -0.6781 -0.1621
  836MOL0     C12780  -0.135  10.288   0.091  1.3917 -0.7243 -0.6224
  836MOL0     C12781  -0.270  10.241   0.088  0.0957 -0.3426  0.6072
  836MOL0     C12782  -0.292  10.109   0.093  0.4406 -0.3405  0.2155
  836MOL0     O12783  -0.428  10.076   0.090 -0.1612  0.8548 -0.1891
  836MOL0     C12784  -0.473   9.947   0.133 -0.2498  0.0830 -0.1019
  836MOL0     C12785  -0.446   9.904   0.281  0.5599  0.1996  0.9182
  836MOL0     C12786  -0.485  10.010   0.383  0.2001 -0.4560  0.5313
  836MOL0     C12787  -0.441   9.961   0.516 -0.6991  0.1970  0.3670
  836MOL0     C12788  -0.477  10.067   0.612 -0.2850  0.2035  0.2337
  836MOL0     C12789  -0.514  10.155   0.685  0.2371 -0.0077  0.2516
  836MOL0     C12790  -0.182  10.020   0.101 -0.8013  0.1239 -0.1532
  836MOL0     C12791  -0.048  10.070   0.118  0.1247 -0.1992  0.7987
  836MOL0     C12792   0.043   9.955   0.135 -0.1140  0.6176 -0.0897
  836MOL0     H12793   0.395  10.033   0.079  2.0492 -0.7060  0.5655
  836MOL0     H12794   0.623  10.060   0.139  0.2372  0.4111  0.6181
  836MOL0     H12795   0.743  10.382   0.416 -0.8445  0.4910 -0.0695
  836MOL0     H12796   0.712  10.217   0.480  1.5422 -2.0489 -1.2348
  836MOL0     H12797   0.947  10.258   0.530  0.3462 -2.1532 -0.1053
  836MOL0     H12798   0.983  10.317   0.363 -1.1662 -0.7052 -2.1171
  836MOL0     H12799   0.949  10.067   0.292 -0.1833  1.1740  0.4706
  836MOL0     H12800   0.919  10.032   0.458 -1.2014 -1.0796 -1.6589
  836MOL0     H12801   1.177  10.183   0.379 -0.8380  0.2294 -0.1458
  836MOL0     H12802   1.142  10.102   0.524 -1.9201 -2.2017 -0.5201
  836MOL0     H12803   1.123   9.878   0.414  0.9283 -0.6393 -1.0488
  836MOL0     H12804   1.178   9.960   0.266 -4.8707 -0.7156 -0.7269
  836MOL0     H12805   1.393  10.026   0.389 -1.1045 -0.0487 -1.2530
  836MOL0     H12806   1.336   9.946   0.537  0.3106  0.0966  0.5587
  836MOL0     H12807   1.293   9.745   0.377  0.4508 -0.9475  2.6019
  836MOL0     H12808   1.453   9.772   0.442 -0.6520 -0.3938  0.5016
  836MOL0     H12809   1.429   9.711   0.191  1.9389  0.3924 -1.5054
  836MOL0     H12810   1.353   9.860   0.164  1.0326  0.2351 -1.2500
  836MOL0     H12811   1.688   9.720   0.273 -1.1203  0.3227 -0.6864
  836MOL0     H12812   1.953   9.826   0.282  1.7109 -0.5785 -2.1946
  836MOL0     H12813   1.947   9.830   0.112 -0.6579  2.9555 -2.9000
  836MOL0     H12814   1.961  10.090   0.128 -0.7384  2.4887  1.6621
  836MOL0     H12815   2.017  10.056   0.296  1.6776 -2.8292  1.0903
  836MOL0     H12816   2.195  10.075   0.104 -2.0689 -0.2788 -2.1161
  836MOL0     H12817   2.151   9.913   0.063  0.0604 -2.1114  1.5393
  836MOL0     H12818   2.226   9.826   0.284  2.4331 -1.2680  1.3363
  836MOL0     H12819   2.252   9.995   0.346  0.1841 -0.4576  0.4013
  836MOL0     H12820   2.626   9.946   0.108 -0.1463  2.3868  0.7472
  836MOL0     H12821   2.843   9.929   0.236 -0.2518 -0.5970  0.6313
  836MOL0     H12822   3.066   9.802   0.689 -1.1472  0.1509 -0.8108
  836MOL0     H12823   3.308   9.757   0.736 -2.6765 -0.8151  0.9053
  836MOL0     H12824   3.511   9.674   0.408  1.7403 -1.7595  0.4746
  836MOL0     H12825   3.601   9.833   0.410  0.7335  0.1821  0.8697
  836MOL0     H12826   3.743   9.765   0.575  1.1424  0.5477 -2.3225
  836MOL0     H12827   3.687   9.585   0.571  0.2520 -1.0409 -1.2762
  836MOL0     H12828   3.734   9.610   0.317  2.4775  0.3484 -2.3227
  836MOL0     H12829   3.814   9.753   0.357 -1.0574  0.1865 -0.8640
  836MOL0     H12830   3.869   9.456   0.453 -1.7123  0.7374  2.3262
  836MOL0     H12831   3.947   9.595   0.525 -0.8474 -2.4775  1.4479
  836MOL0     H12832   4.041   9.651   0.272  0.6537  0.2213 -0.7284
  836MOL0     H12833   3.946   9.514   0.230 -1.1891 -3.0605  2.0743
  836MOL0     H12834   4.148   9.509   0.445  1.8503  4.9757 -2.7100
  836MOL0     H12835   4.071   9.365   0.367  3.1473 -0.8030 -1.0061
  836MOL0     H12836   4.266   9.561   0.237  1.2377 -1.6263  0.3106
  836MOL0     H12837   4.174   9.422   0.162 -0.0349 -1.4477 -0.0045
  836MOL0     H12838   4.404   9.347   0.214 -0.1331 -0.0895  0.3706
  836MOL0     H12839   4.384   9.408   0.386 -1.1911 -0.8322  1.0241
  836MOL0     H12840   3.412   9.950   0.373 -0.3041  2.1477  0.8414
  836MOL0     H12841   3.198   9.985   0.320  3.0923 -0.6957 -1.0207
  836MOL0     H12842   2.608   9.894   0.594 -1.0732 -0.7931 -0.4315
  836MOL0     H12843   2.411   9.892   0.477 -2.5050  2.1361 -2.6655
  836MOL0     H12844   0.545  10.438   0.312 -0.6852  1.5646 -1.0325
  836MOL0     H12845   0.306  10.431   0.225  1.5274  1.4644 -1.5860
  836MOL0     H12846  -0.127  10.396   0.079  1.1510 -0.5655  0.5178
  836MOL0     H12847  -0.357  10.306   0.095  0.0781 -0.3045  0.0441
  836MOL0     H12848  -0.417   9.884   0.064 -0.3549  0.0112 -0.1218
  836MOL0     H12849  -0.578   9.936   0.103 -0.3586  1.6062 -0.3725
  836MOL0     H12850  -0.340   9.882   0.294  0.4342 -0.7064  0.4389
  836MOL0     H12851  -0.499   9.815   0.316 -0.7508  2.0118  4.0179
  836MOL0     H12852  -0.588  10.044   0.367  0.4579  1.7526  2.9780
  836MOL0     H12853  -0.434  10.103   0.359  0.1331 -0.3566  0.7808
  836MOL0     H12854  -0.481   9.864   0.548 -0.3261  0.5515  1.9753
  836MOL0     H12855  -0.332   9.953   0.514 -0.6385  0.9684  0.3684
  836MOL0     H12856  -0.551  10.238   0.743 -0.8906  0.7450 -1.4403
  836MOL0     H12857  -0.207   9.914   0.098 -0.3441  0.0416 -2.0051
  836MOL0     H12858   0.002   9.869   0.189 -1.2227 -1.6390 -4.1181
  836MOL0     H12859   0.056   9.915   0.034 -3.7683 -2.7995  0.5228
  836MOL0     H12860   0.138   9.985   0.180  0.0423 -3.2170  2.6518
  837MOL0     O12861   7.916   5.503  10.756  0.1165  0.0590 -0.3908
  837MOL0     C12862   7.869   5.416  10.686  0.1933 -0.3485 -0.1964
  837MOL0     O12863   7.931   5.348  10.581  0.3253 -0.6957  0.4136
  837MOL0     C12864   8.061   5.370  10.532  0.0917  0.2704  0.1347
  837MOL0     C12865   8.108   5.272  10.447 -1.1299 -0.2090  0.3107
  837MOL0     C12866   8.247   5.283  10.419  0.1223  0.4278  0.2078
  837MOL0     C12867   8.321   5.393  10.444 -0.6447  0.9264 -0.4834
  837MOL0     O12868   8.448   5.420  10.395 -0.1702  0.0542  0.1332
  837MOL0     C12869   8.514   5.325  10.303 -0.1730  0.5381 -0.6115
  837MOL0     C12870   8.674   5.336  10.300  0.3333 -0.0849 -0.4341
  837MOL0     C12871   8.724   5.481  10.271  1.0611  0.1054  1.1762
  837MOL0     C12872   8.867   5.500  10.287 -0.3042  0.4787 -0.1031
  837MOL0     C12873   8.901   5.628  10.227  0.7039  0.4913 -0.4690
  837MOL0     C12874   9.049   5.650  10.252 -0.9781 -1.0087 -0.3636
  837MOL0     C12875   9.100   5.752  10.151 -0.2170 -0.6331  0.5148
  837MOL0     C12876   9.119   5.690  10.009 -0.1372  0.4112 -0.3485
  837MOL0     N12877   9.244   5.614  10.001 -0.3104 -0.1822  0.2296
  837MOL0     C12878   9.362   5.665   9.949  0.5580 -0.5528 -0.1655
  837MOL0     C12879   9.437   5.553   9.924 -0.0402  0.6312 -0.3381
  837MOL0     C12880   9.566   5.552   9.867  0.6426  0.2639  0.6668
  837MOL0     C12881   9.689   5.556   9.965 -0.2767 -0.8246 -0.0475
  837MOL0     C12882   9.695   5.428  10.053 -0.1627  0.7597 -0.9120
  837MOL0     C12883   9.820   5.426  10.139 -0.1466 -0.3260  0.0309
  837MOL0     O12884   9.944   5.417  10.063  0.3352  1.3799  0.1106
  837MOL0     C12885  10.061   5.390  10.130  0.4334 -0.0436  0.4218
  837MOL0     C12886  10.080   5.399  10.272  0.4274  1.1382 -0.0914
  837MOL0     C12887  10.211   5.380  10.320  0.0788 -1.0770  0.0459
  837MOL0     C12888  10.319   5.347  10.244 -0.5847  0.1932  0.4836
  837MOL0     C12889  10.454   5.337  10.300 -0.8630 -0.2282  0.0544
  837MOL0     O12890  10.551   5.283  10.215  0.0901  0.3711 -0.3317
  837MOL0     C12891  10.679   5.270  10.263 -0.0845 -0.5614  0.2892
  837MOL0     C12892  10.711   5.225  10.392 -0.2784  0.1367  0.5427
  837MOL0     C12893  10.844   5.212  10.432  0.7535 -0.5795  1.3520
  837MOL0     C12894  10.943   5.231  10.336 -0.7590  0.0622 -0.7686
  837MOL0     O12895  11.072   5.221  10.373 -0.2255  0.3501 -0.2505
  837MOL0     C12896  11.153   5.338  10.361  0.2473  0.0567 -0.0779
  837MOL0     C12897  11.247   5.366  10.479 -0.5902 -1.3195  0.0527
  837MOL0     C12898  11.350   5.471  10.453  1.1271  0.1100  0.3806
  837MOL0     C12899  11.451   5.469  10.562  0.6595  0.8383 -0.5088
  837MOL0     C12900  11.538   5.590  10.543  0.4031  0.0275 -0.6137
  837MOL0     C12901  11.639   5.599  10.652 -0.8755  0.4295  0.1587
  837MOL0     C12902  11.720   5.731  10.654 -0.1038 -0.2240  0.1856
  837MOL0     C12903  11.637   5.857  10.697  0.3529 -0.1013  0.2487
  837MOL0    Cl12904  11.741   5.991  10.700  0.1560 -0.0046  0.3795
  837MOL0     C12905  10.920   5.272  10.203 -0.4452  0.0648  0.1558
  837MOL0     C12906  10.783   5.286  10.171 -0.6406 -0.0104 -0.3712
  837MOL0     O12907  10.478   5.390  10.409  0.2295  0.0537 -1.0731
  837MOL0     C12908  10.297   5.340  10.107 -0.3773 -0.3396  0.8093
  837MOL0     C12909  10.174   5.373  10.052  0.0060 -0.2253  0.3865
  837MOL0     N12910   9.360   5.443   9.949 -0.5521 -0.0922 -0.3093
  837MOL0     N12911   9.254   5.477  10.011  0.1921 -0.2679  0.7507
  837MOL0     C12912   8.259   5.498  10.519  0.1771  0.2913  0.1261
  837MOL0     C12913   8.131   5.484  10.559  0.4487 -0.3737 -0.9886
  837MOL0     C12914   7.722   5.380  10.697 -0.0390  0.0746  0.0176
  837MOL0     C12915   7.638   5.365  10.579  0.0912  0.0380  0.4833
  837MOL0     C12916   7.507   5.321  10.594  0.4822  0.1215 -0.2422
  837MOL0     C12917   7.451   5.282  10.715 -0.8870 -0.4013  1.0527
  837MOL0     O12918   7.329   5.224  10.720 -0.0905 -0.7265  0.2842
  837MOL0     C12919   7.222   5.316  10.679 -0.7506 -0.0213 -0.5659
  837MOL0     C12920   7.139   5.363  10.798 -0.4326 -0.9227  0.4107
  837MOL0     C12921   7.060   5.255  10.872  0.0643 -0.3311 -0.0997
  837MOL0     C12922   7.112   5.239  11.014  0.0318 -0.9170  0.0276
  837MOL0     C12923   7.050   5.145  11.109  0.8633  0.4447  0.3155
  837MOL0     C12924   7.010   5.060  11.183 -0.0091  0.4433 -0.1404
  837MOL0     C12925   7.526   5.312  10.827 -0.8548 -0.0983 -0.0700
  837MOL0     C12926   7.655   5.367  10.823  0.0907  0.2515 -0.2867
  837MOL0     C12927   7.724   5.396  10.952  0.5861  0.9785 -0.5386
  837MOL0     H12928   8.059   5.180  10.417  0.0869 -1.1267  1.0235
  837MOL0     H12929   8.278   5.201  10.355 -0.8385  1.0272 -1.0619
  837MOL0     H12930   8.491   5.227  10.345  0.0196  0.1651 -1.3723
  837MOL0     H12931   8.479   5.336  10.200  1.2265  1.9693 -0.9798
  837MOL0     H12932   8.718   5.259  10.235 -0.7988 -2.3192  1.2812
  837MOL0     H12933   8.721   5.310  10.396 -0.0459  1.2516  0.1313
  837MOL0     H12934   8.674   5.550  10.339 -1.3810  0.9455 -1.2966
  837MOL0     H12935   8.689   5.504  10.170  3.4236 -1.4005 -0.1069
  837MOL0     H12936   8.893   5.483  10.392  2.7316  2.8838 -0.3236
  837MOL0     H12937   8.921   5.420  10.234 -2.7108  0.6338 -3.0619
  837MOL0     H12938   8.865   5.624  10.124 -0.1254 -1.7540 -0.1389
  837MOL0     H12939   8.839   5.706  10.273  1.2090  0.0650  0.9837
  837MOL0     H12940   9.066   5.683  10.355 -0.2402  0.7521 -1.0094
  837MOL0     H12941   9.107   5.558  10.248  0.0872 -0.4120  0.8233
  837MOL0     H12942   9.198   5.781  10.192 -1.0618  0.1433  2.0834
  837MOL0     H12943   9.039   5.842  10.149 -0.5849 -0.8912  0.0124
  837MOL0     H12944   9.029   5.633   9.982  0.1523 -0.8156  1.1954
  837MOL0     H12945   9.128   5.762   9.927  3.7769 -0.0839 -0.5112
  837MOL0     H12946   9.389   5.765   9.918  4.2961 -0.8366  1.5948
  837MOL0     H12947   9.578   5.464   9.803  0.7578  1.3209 -0.8025
  837MOL0     H12948   9.575   5.638   9.800  0.3071 -0.7349 -0.7047
  837MOL0     H12949   9.781   5.565   9.906 -1.7452 -0.3937 -2.3966
  837MOL0     H12950   9.671   5.641  10.032  0.2716 -0.0876 -0.8175
  837MOL0     H12951   9.697   5.344   9.984  3.1749  1.7806 -2.2586
  837MOL0     H12952   9.607   5.410  10.116  1.4177 -1.9859  0.7299
  837MOL0     H12953   9.810   5.349  10.216  0.2063  0.9687  1.4125
  837MOL0     H12954   9.820   5.521  10.192  0.2226  0.8535 -1.9507
  837MOL0     H12955   9.998   5.432  10.334 -1.6995 -0.9160 -1.6202
  837MOL0     H12956  10.210   5.399  10.427 -0.7245  0.8382 -0.2604
  837MOL0     H12957  10.644   5.215  10.476 -3.6347 -0.3469 -1.9525
  837MOL0     H12958  10.866   5.186  10.535 -1.7744 -0.7969  1.9024
  837MOL0     H12959  11.234   5.308  10.295  1.8244  2.4633  0.6003
  837MOL0     H12960  11.109   5.428  10.317 -4.2779 -2.1201 -0.5550
  837MOL0     H12961  11.190   5.380  10.571  1.4764  2.3061  0.9886
  837MOL0     H12962  11.300   5.272  10.496  0.4177 -0.6738  0.5814
  837MOL0     H12963  11.401   5.451  10.358  3.9789 -1.6224  2.1313
  837MOL0     H12964  11.296   5.564  10.431  1.1924 -0.1623 -1.0704
  837MOL0     H12965  11.509   5.376  10.564 -0.0999  0.3705  0.8907
  837MOL0     H12966  11.412   5.472  10.664  2.8355  1.6177  0.3658
  837MOL0     H12967  11.468   5.673  10.560  0.3396  0.3681 -2.3177
  837MOL0     H12968  11.588   5.599  10.445 -0.2661  0.4066 -0.9267
  837MOL0     H12969  11.588   5.592  10.749 -1.8586  2.5597 -0.1392
  837MOL0     H12970  11.709   5.515  10.654 -0.5775  0.6589 -0.5235
  837MOL0     H12971  11.747   5.740  10.548 -0.1925 -0.5227  0.1362
  837MOL0     H12972  11.813   5.722  10.712  1.2325 -0.1215 -1.8148
  837MOL0     H12973  11.553   5.885  10.633  0.3157 -0.8102 -0.0248
  837MOL0     H12974  11.597   5.836  10.796  1.9202  1.3207  1.2356
  837MOL0     H12975  10.996   5.292  10.128 -2.7467  0.8733 -2.1101
  837MOL0     H12976  10.769   5.325  10.071  0.4077 -2.0119 -1.3672
  837MOL0     H12977  10.373   5.321  10.032 -2.0354  3.3909 -2.1466
  837MOL0     H12978  10.160   5.374   9.944  0.2510 -1.9176  0.3193
  837MOL0     H12979   8.314   5.588  10.544 -0.3244  0.4516  0.6757
  837MOL0     H12980   8.100   5.572  10.615 -0.1665 -0.5097 -1.1027
  837MOL0     H12981   7.676   5.392  10.481  0.6195 -0.1507  0.6334
  837MOL0     H12982   7.457   5.307  10.498  2.0685  2.3822 -1.5058
  837MOL0     H12983   7.151   5.273  10.607  0.4483 -1.8575 -0.7115
  837MOL0     H12984   7.272   5.401  10.632  4.8799 -2.3285  0.4649
  837MOL0     H12985   7.059   5.433  10.773 -1.0023 -1.4299  0.7729
  837MOL0     H12986   7.209   5.419  10.861 -0.8496 -2.6591  2.5539
  837MOL0     H12987   7.072   5.163  10.814  1.9824  0.8772 -1.7206
  837MOL0     H12988   6.952   5.272  10.871 -0.1421 -1.5195  0.2147
  837MOL0     H12989   7.218   5.215  11.006  0.2222 -0.3847  0.8235
  837MOL0     H12990   7.096   5.336  11.063  1.7450  0.1347 -1.4026
  837MOL0     H12991   6.967   4.997  11.259  0.0978  0.8048  0.2199
  837MOL0     H12992   7.497   5.290  10.930 -1.0465 -0.5240 -0.2126
  837MOL0     H12993   7.742   5.502  10.972  0.4912  0.4403  3.3541
  837MOL0     H12994   7.667   5.340  11.027  0.3099  0.0654 -1.4134
  837MOL0     H12995   7.816   5.340  10.969  0.5064  0.7339 -0.9220
  838MOL0     O12996   0.109   9.042   3.825  0.0548  0.2449 -0.4888
  838MOL0     C12997   0.142   8.973   3.923 -0.2144  0.3033  0.3368
  838MOL0     O12998   0.254   8.974   3.985  0.2660  0.6339 -0.2144
  838MOL0     C12999   0.366   9.009   3.909  0.3458  0.2312 -0.2132
  838MOL0     C13000   0.470   9.068   3.984 -0.4776  0.3096  0.5036
  838MOL0     C13001   0.593   9.095   3.934 -0.1642 -0.7965  0.3984
  838MOL0     C13002   0.620   9.077   3.796  0.5564 -0.2385 -0.3308
  838MOL0     O13003   0.753   9.105   3.748  0.2818 -0.0779  0.1524
  838MOL0     C13004   0.816   9.220   3.808 -0.0762  1.3945 -0.2138
  838MOL0     C13005   0.934   9.266   3.727 -0.2542  0.1926 -0.3633
  838MOL0     C13006   1.062   9.169   3.723  0.6909  0.7525 -0.4968
  838MOL0     C13007   1.169   9.222   3.632 -0.4233 -0.3354  0.1790
  838MOL0     C13008   1.281   9.110   3.624 -0.4441 -0.1757 -0.3505
  838MOL0     C13009   1.394   9.158   3.533 -0.3387  0.1654 -0.0114
  838MOL0     C13010   1.355   9.164   3.384 -0.3964 -0.6044 -0.3733
  838MOL0     C13011   1.471   9.159   3.286  0.0163 -0.2615  0.2976
  838MOL0     N13012   1.581   9.247   3.330 -0.1581  0.3682 -0.6278
  838MOL0     C13013   1.591   9.385   3.322 -0.5309  0.0798 -0.0659
  838MOL0     C13014   1.717   9.419   3.362  0.4921  0.0611 -0.8261
  838MOL0     C13015   1.772   9.555   3.371  0.7520 -0.0964 -0.6042
  838MOL0     C13016   1.749   9.602   3.523 -0.7120  0.2550  0.2345
  838MOL0     C13017   1.854   9.721   3.549  0.3404 -0.6572 -0.1143
  838MOL0     C13018   2.000   9.657   3.583  0.4265 -0.5729  0.5051
  838MOL0     O13019   2.084   9.765   3.628 -0.2433 -0.8755  0.2163
  838MOL0     C13020   2.203   9.726   3.683  0.0621  0.2265  0.7030
  838MOL0     C13021   2.246   9.592   3.717  0.6625 -0.0367  0.0969
  838MOL0     C13022   2.379   9.572   3.762 -0.8912 -0.6507  0.0709
  838MOL0     C13023   2.474   9.672   3.776 -0.9340  0.3450  0.0947
  838MOL0     C13024   2.607   9.647   3.836 -0.3443  0.9320 -0.4768
  838MOL0     O13025   2.629   9.508   3.863  0.3287 -0.2701 -0.4911
  838MOL0     C13026   2.760   9.478   3.890  0.1520  1.3154 -0.3695
  838MOL0     C13027   2.864   9.503   3.796  0.9261 -0.5547 -0.2320
  838MOL0     C13028   2.992   9.470   3.824  0.0203 -0.6074 -0.0509
  838MOL0     C13029   3.025   9.405   3.948  0.5916 -0.7436 -0.4937
  838MOL0     O13030   3.158   9.368   3.987  0.3127  0.6566 -0.0414
  838MOL0     C13031   3.261   9.438   3.928  0.2399  0.0186  0.2408
  838MOL0     C13032   3.319   9.354   3.822 -0.4752  0.7357 -0.2312
  838MOL0     C13033   3.422   9.256   3.881 -0.6746 -0.7669  0.2759
  838MOL0     C13034   3.484   9.170   3.770 -0.5976 -0.1977 -0.5246
  838MOL0     C13035   3.562   9.055   3.839  0.2667 -0.1548  0.6047
  838MOL0     C13036   3.609   8.964   3.726 -0.5169 -0.4829 -0.3841
  838MOL0     C13037   3.679   8.842   3.785  0.3209 -0.7848  0.0531
  838MOL0     C13038   3.733   8.755   3.676 -0.0090  0.4901  0.0716
  838MOL0    Cl13039   3.584   8.673   3.593 -0.4039 -0.4587 -0.0302
  838MOL0     C13040   2.922   9.360   4.032  0.3856 -0.7141 -0.2970
  838MOL0     C13041   2.791   9.400   4.003  1.1591 -0.0218 -0.0130
  838MOL0     O13042   2.694   9.741   3.836 -0.0911 -0.1319 -0.1808
  838MOL0     C13043   2.432   9.800   3.750 -0.0303  0.0461  0.4040
  838MOL0     C13044   2.300   9.822   3.700 -0.7296 -0.3933  0.8508
  838MOL0     N13045   1.790   9.303   3.361  0.0326  0.6624 -0.2376
  838MOL0     N13046   1.708   9.203   3.351  0.4004  0.2280 -0.0184
  838MOL0     C13047   0.521   9.025   3.718 -0.6381  0.0396 -0.3194
  838MOL0     C13048   0.394   8.993   3.770 -0.4718 -0.7112 -0.2051
  838MOL0     C13049   0.030   8.879   3.966  0.7067 -0.1450  0.3856
  838MOL0     C13050  -0.081   8.864   3.876 -1.0680  0.5956  0.3607
  838MOL0     C13051  -0.188   8.791   3.903  0.9578  0.1968 -0.2382
  838MOL0     C13052  -0.198   8.731   4.027 -0.2728  0.4673  0.3082
  838MOL0     O13053  -0.309   8.657   4.044 -0.0962  0.1868  0.1202
  838MOL0     C13054  -0.325   8.587   4.169 -0.0967  0.1548  0.1035
  838MOL0     C13055  -0.471   8.534   4.180  0.4871 -0.7344  0.7238
  838MOL0     C13056  -0.532   8.459   4.059 -0.4592  0.0064  0.4658
  838MOL0     C13057  -0.686   8.449   4.080  0.7225 -0.5684 -0.3596
  838MOL0     C13058  -0.764   8.393   3.970 -0.2558  0.7122  1.4735
  838MOL0     C13059  -0.817   8.342   3.870 -0.1971  0.7030  1.3903
  838MOL0     C13060  -0.090   8.742   4.117  0.4531 -0.6993  0.1198
  838MOL0     C13061   0.020   8.820   4.092 -0.8621  0.7945  0.4260
  838MOL0     C13062   0.122   8.833   4.199  0.2893  0.4506 -0.1373
  838MOL0     H13063   0.461   9.090   4.090  2.2969  1.6899  0.5205
  838MOL0     H13064   0.661   9.132   4.010  1.4862 -2.7223 -0.0490
  838MOL0     H13065   0.747   9.305   3.817  0.9481  2.1953  0.2601
  838MOL0     H13066   0.841   9.195   3.912 -0.2307  0.9939 -0.2703
  838MOL0     H13067   0.974   9.360   3.766  0.0262 -0.6265  1.4032
  838MOL0     H13068   0.894   9.283   3.626  1.2649 -1.0689 -1.2165
  838MOL0     H13069   1.022   9.077   3.680  0.6408  1.1272 -1.2602
  838MOL0     H13070   1.114   9.149   3.817  2.0319 -2.7116 -1.8155
  838MOL0     H13071   1.125   9.221   3.532  2.8427 -0.7840 -1.3885
  838MOL0     H13072   1.190   9.324   3.665 -1.5055  0.2360 -0.7971
  838MOL0     H13073   1.326   9.073   3.716  0.8653 -2.7425 -1.9147
  838MOL0     H13074   1.228   9.031   3.569 -0.8346  0.7798 -1.3982
  838MOL0     H13075   1.444   9.251   3.565 -0.2550 -0.0001  0.3394
  838MOL0     H13076   1.473   9.083   3.535 -0.5112 -0.0030  0.9514
  838MOL0     H13077   1.298   9.257   3.376 -0.0797 -0.1943  1.5619
  838MOL0     H13078   1.288   9.082   3.359  0.8432 -3.2021  3.8411
  838MOL0     H13079   1.513   9.058   3.281  2.5706  0.6661  1.3115
  838MOL0     H13080   1.429   9.189   3.190 -1.6302  0.9074  1.3348
  838MOL0     H13081   1.512   9.457   3.303  1.0694  1.7137 -0.8630
  838MOL0     H13082   1.879   9.551   3.350  0.7866  0.4213 -0.5392
  838MOL0     H13083   1.728   9.629   3.305 -0.7400  1.0948  1.5841
  838MOL0     H13084   1.646   9.639   3.532 -0.8722 -0.3249  0.8607
  838MOL0     H13085   1.767   9.513   3.584  0.0747  1.5059  1.8676
  838MOL0     H13086   1.822   9.781   3.635  1.7143  1.3146 -0.8836
  838MOL0     H13087   1.853   9.790   3.464  3.4003 -1.2424 -0.7226
  838MOL0     H13088   2.039   9.620   3.488  0.1556  4.3571 -1.8861
  838MOL0     H13089   1.985   9.586   3.665 -3.0712  1.1244  1.5624
  838MOL0     H13090   2.179   9.508   3.701  1.9218 -1.8283  3.1415
  838MOL0     H13091   2.392   9.468   3.792  0.7064 -0.8931 -1.3374
  838MOL0     H13092   2.850   9.556   3.703 -0.6317  0.7070  0.6847
  838MOL0     H13093   3.063   9.484   3.743  0.3298  2.1619  0.6057
  838MOL0     H13094   3.233   9.539   3.897  0.7969 -0.6595 -2.7714
  838MOL0     H13095   3.334   9.464   4.006  1.7367 -1.2003 -0.6880
  838MOL0     H13096   3.243   9.296   3.769  0.6772  0.1031 -1.2602
  838MOL0     H13097   3.365   9.423   3.750  0.0185  0.1480 -0.4892
  838MOL0     H13098   3.509   9.311   3.918 -0.8249 -0.6236  0.4221
  838MOL0     H13099   3.374   9.194   3.957 -0.7011 -2.2498 -0.9100
  838MOL0     H13100   3.544   9.228   3.699 -1.3498 -1.6595 -2.4493
  838MOL0     H13101   3.408   9.125   3.705 -1.4712 -0.1575  0.4486
  838MOL0     H13102   3.499   8.999   3.909  0.9881 -2.3960 -0.4572
  838MOL0     H13103   3.647   9.103   3.890  1.0445  0.1823 -0.9261
  838MOL0     H13104   3.523   8.928   3.668 -0.1601  1.7256 -2.4514
  838MOL0     H13105   3.687   9.016   3.670 -0.8727 -0.1435 -0.5704
  838MOL0     H13106   3.604   8.785   3.841 -3.2041  1.7686 -1.6834
  838MOL0     H13107   3.754   8.875   3.857  0.6030  0.7262 -0.8970
  838MOL0     H13108   3.792   8.789   3.591  1.2398 -2.8261 -0.5465
  838MOL0     H13109   3.796   8.681   3.728 -1.5456  0.4646  2.0243
  838MOL0     H13110   2.943   9.302   4.121  0.0797  2.2805  1.8645
  838MOL0     H13111   2.712   9.365   4.069  0.6191 -1.5336 -1.3737
  838MOL0     H13112   2.498   9.885   3.763 -1.5409  1.2722  0.3134
  838MOL0     H13113   2.274   9.923   3.668  0.3491  0.2782  2.0039
  838MOL0     H13114   0.528   9.011   3.610  0.1889 -0.4007 -0.2130
  838MOL0     H13115   0.319   8.968   3.695  0.4224 -1.0810 -0.9901
  838MOL0     H13116  -0.076   8.911   3.778  3.4170 -3.4750 -1.8499
  838MOL0     H13117  -0.270   8.786   3.832  0.0117 -1.7904  0.9208
  838MOL0     H13118  -0.300   8.647   4.257 -1.3824 -0.8278  1.1940
  838MOL0     H13119  -0.259   8.500   4.168 -0.4319 -0.1023  0.0803
  838MOL0     H13120  -0.539   8.614   4.211  2.7048  0.3321  3.2230
  838MOL0     H13121  -0.478   8.477   4.273  0.4125 -0.9565  0.5831
  838MOL0     H13122  -0.503   8.358   4.029 -0.5634  0.2874 -0.6062
  838MOL0     H13123  -0.520   8.520   3.969  0.5911 -0.0548  0.5518
  838MOL0     H13124  -0.696   8.390   4.171 -0.9684  1.3123  0.7686
  838MOL0     H13125  -0.735   8.543   4.108  0.3166 -0.8329 -0.1643
  838MOL0     H13126  -0.849   8.271   3.797  2.0950 -2.8336  3.5294
  838MOL0     H13127  -0.092   8.681   4.207  1.7075  0.1814  0.7921
  838MOL0     H13128   0.107   8.794   4.300  1.8139 -0.1017 -0.0957
  838MOL0     H13129   0.203   8.769   4.164 -1.2531 -1.3719 -0.4978
  838MOL0     H13130   0.149   8.939   4.210 -2.1854  1.0470  0.7785
  839MOL0     O13131   0.512   8.365   5.690 -0.0513  0.8250 -0.5255
  839MOL0     C13132   0.497   8.259   5.755 -0.0475  0.0136  0.9454
  839MOL0     O13133   0.604   8.181   5.796  0.6974  0.9673 -0.1831
  839MOL0     C13134   0.733   8.177   5.742 -0.9617  0.1601  0.0520
  839MOL0     C13135   0.767   8.224   5.618 -0.4768 -0.8840  0.0459
  839MOL0     C13136   0.903   8.220   5.576  0.7108 -0.4485 -0.5288
  839MOL0     C13137   0.996   8.145   5.646  0.0382  0.6123 -0.2714
  839MOL0     O13138   1.118   8.106   5.617 -0.0618  0.3679 -0.2651
  839MOL0     C13139   1.194   8.195   5.544 -0.6923 -0.0438 -0.0124
  839MOL0     C13140   1.224   8.326   5.607  0.0364  0.3380 -0.2264
  839MOL0     C13141   1.330   8.317   5.720  0.1026 -0.4493  0.9630
  839MOL0     C13142   1.455   8.234   5.673 -0.3980 -0.6267 -0.3511
  839MOL0     C13143   1.590   8.256   5.753  0.4201 -0.2887  0.6492
  839MOL0     C13144   1.706   8.173   5.701  0.1054 -0.5158 -0.5465
  839MOL0     C13145   1.836   8.184   5.796 -0.4600 -0.3984  0.6256
  839MOL0     C13146   1.962   8.110   5.730 -0.3534  0.3983  0.0457
  839MOL0     N13147   2.077   8.078   5.820 -0.7604 -0.5014  0.6975
  839MOL0     C13148   2.184   8.166   5.854  0.2456 -0.4254 -0.4712
  839MOL0     C13149   2.263   8.092   5.942  0.8167 -0.4688 -0.4580
  839MOL0     C13150   2.384   8.157   5.995 -0.0785  0.5764 -0.1929
  839MOL0     C13151   2.504   8.074   5.974  0.1090  0.1159 -0.0871
  839MOL0     C13152   2.557   8.061   5.827  0.5806  0.1271  0.0993
  839MOL0     C13153   2.697   8.002   5.819 -0.3908  0.3897  0.4785
  839MOL0     O13154   2.730   8.010   5.678  0.1709  0.2650 -0.0459
  839MOL0     C13155   2.863   7.991   5.648  0.1380 -0.3334  0.7287
  839MOL0     C13156   2.913   8.031   5.522  0.7084 -0.5794  0.2840
  839MOL0     C13157   3.052   8.015   5.492  0.8022  0.8334 -0.0027
  839MOL0     C13158   3.140   7.957   5.581  0.7398  0.3027 -0.3316
  839MOL0     C13159   3.281   7.946   5.559 -0.4083 -0.3380  0.8408
  839MOL0     O13160   3.351   7.885   5.659 -0.6793  0.0348  0.2925
  839MOL0     C13161   3.481   7.861   5.633 -1.1223  0.2264  0.6541
  839MOL0     C13162   3.571   7.952   5.687 -0.1150  0.5981  0.4964
  839MOL0     C13163   3.706   7.939   5.675  0.9972  0.6635  0.0224
  839MOL0     C13164   3.752   7.826   5.605 -0.8401  0.5238  0.1751
  839MOL0     O13165   3.884   7.814   5.580 -0.7331  0.9453  0.3363
  839MOL0     C13166   3.931   7.842   5.446 -0.7660 -0.0007  0.5926
  839MOL0     C13167   4.078   7.791   5.428 -0.2032  0.3770  0.3459
  839MOL0     C13168   4.167   7.838   5.537 -0.0391  0.9174  0.5259
  839MOL0     C13169   4.219   7.980   5.517  0.6475  0.0467 -0.4228
  839MOL0     C13170   4.338   8.015   5.607 -1.2204  0.7576  0.4711
  839MOL0     C13171   4.313   8.019   5.757 -0.6521 -0.3497  0.5878
  839MOL0     C13172   4.442   8.075   5.828 -0.2351 -0.2528 -0.1172
  839MOL0     C13173   4.401   8.113   5.968  0.3743  0.0313  0.2795
  839MOL0    Cl13174   4.404   7.969   6.072 -0.1014  0.1291 -0.1145
  839MOL0     C13175   3.665   7.724   5.569 -0.2695  0.5430  0.8570
  839MOL0     C13176   3.531   7.737   5.587 -0.1660  0.4499  0.3039
  839MOL0     O13177   3.318   7.962   5.446  0.1934  0.5076  0.3108
  839MOL0     C13178   3.084   7.923   5.702  0.7445 -0.0963 -0.8368
  839MOL0     C13179   2.953   7.938   5.740  0.9805 -0.3431  0.3031
  839MOL0     N13180   2.213   7.964   5.956 -0.1361 -0.5040  0.0308
  839MOL0     N13181   2.112   7.954   5.867  0.0195 -0.1294 -0.3911
  839MOL0     C13182   0.962   8.097   5.770 -0.0882 -0.6736 -0.4076
  839MOL0     C13183   0.833   8.119   5.820 -0.6321 -0.5343 -0.6425
  839MOL0     C13184   0.370   8.221   5.819  0.1316  0.4976  0.2460
  839MOL0     C13185   0.371   8.153   5.942 -0.3221  0.1979 -0.9315
  839MOL0     C13186   0.258   8.130   6.015  1.0323 -0.4913  0.0042
  839MOL0     C13187   0.130   8.164   5.965 -0.8112  0.6066  0.7042
  839MOL0     O13188   0.024   8.121   6.043 -0.1577 -0.4984 -0.4400
  839MOL0     C13189  -0.064   8.231   6.066  0.8305 -0.1369  0.1125
  839MOL0     C13190  -0.195   8.200   5.992 -0.8343  0.2221 -0.0739
  839MOL0     C13191  -0.288   8.318   5.998 -0.1893 -0.4485 -0.2007
  839MOL0     C13192  -0.249   8.438   5.903  0.1841  0.6701  0.3533
  839MOL0     C13193  -0.219   8.370   5.773  0.3226 -0.1542  1.1091
  839MOL0     C13194  -0.192   8.328   5.663 -0.1440 -0.2267 -0.1326
  839MOL0     C13195   0.126   8.224   5.838 -0.9078  0.2165  0.3337
  839MOL0     C13196   0.240   8.248   5.761 -0.5534 -0.6712 -0.0700
  839MOL0     C13197   0.215   8.323   5.630 -0.8883  0.0176 -0.1888
  839MOL0     H13198   0.694   8.267   5.549 -0.1441  1.6363  1.1520
  839MOL0     H13199   0.944   8.258   5.483  0.0887 -0.4804 -0.8158
  839MOL0     H13200   1.290   8.156   5.510 -1.4566 -1.5790 -0.4913
  839MOL0     H13201   1.140   8.212   5.451 -1.8989  2.6695  1.0653
  839MOL0     H13202   1.134   8.374   5.645  0.1694  1.5411 -1.3756
  839MOL0     H13203   1.272   8.389   5.532  1.3593 -1.6246 -1.1358
  839MOL0     H13204   1.289   8.255   5.800 -2.0875 -0.2553  0.0837
  839MOL0     H13205   1.343   8.413   5.771 -2.0160  0.1451  0.4824
  839MOL0     H13206   1.439   8.126   5.669 -1.9357 -0.4153 -0.3386
  839MOL0     H13207   1.482   8.267   5.573 -3.1789  0.5295 -0.8062
  839MOL0     H13208   1.616   8.362   5.751 -1.6236  0.2822  1.6377
  839MOL0     H13209   1.557   8.235   5.855 -3.4038 -1.0292 -0.5726
  839MOL0     H13210   1.667   8.071   5.707  2.0780 -1.3267 -0.5756
  839MOL0     H13211   1.723   8.189   5.594 -0.9037  0.3034 -0.6007
  839MOL0     H13212   1.819   8.152   5.899  0.6131  3.2989  2.1186
  839MOL0     H13213   1.853   8.292   5.800 -1.0165 -0.3070  0.6172
  839MOL0     H13214   1.929   8.016   5.684  1.7280 -0.9706  1.2107
  839MOL0     H13215   2.009   8.170   5.652  2.5037 -0.5898  0.8940
  839MOL0     H13216   2.198   8.270   5.826 -1.8888 -0.3830 -1.5390
  839MOL0     H13217   2.387   8.263   5.969  0.8483  0.1648 -1.9321
  839MOL0     H13218   2.376   8.178   6.102 -0.7481  2.6838 -0.6061
  839MOL0     H13219   2.582   8.106   6.044  0.9239 -1.2780 -0.3154
  839MOL0     H13220   2.488   7.972   6.011 -2.4867  0.5350  0.1213
  839MOL0     H13221   2.555   8.161   5.781  1.8369  0.2732  0.3072
  839MOL0     H13222   2.491   7.990   5.777  0.0711  0.9181 -0.3757
  839MOL0     H13223   2.706   7.898   5.852  0.5162 -1.0303 -3.6902
  839MOL0     H13224   2.770   8.058   5.879  1.9229 -1.3783 -0.5215
  839MOL0     H13225   2.849   8.090   5.457 -0.7440  0.6761  2.7011
  839MOL0     H13226   3.087   8.050   5.396  1.2969 -0.7442 -0.4133
  839MOL0     H13227   3.532   8.046   5.725  1.5230  1.3791  0.3324
  839MOL0     H13228   3.781   8.010   5.708  0.8744  1.3561 -1.1470
  839MOL0     H13229   3.868   7.789   5.375  1.4765 -1.3268 -0.5267
  839MOL0     H13230   3.915   7.947   5.419  1.2921 -0.0977 -1.3855
  839MOL0     H13231   4.085   7.682   5.437 -0.2849  0.3771  0.4119
  839MOL0     H13232   4.114   7.828   5.332  0.7129  2.4361  1.4248
  839MOL0     H13233   4.120   7.823   5.635 -0.2849 -1.7003  0.0603
  839MOL0     H13234   4.258   7.778   5.537 -0.1823  0.6894 -0.0793
  839MOL0     H13235   4.142   8.045   5.560 -0.2487 -2.2148  1.6555
  839MOL0     H13236   4.235   8.006   5.412 -0.2802  0.7000 -0.4131
  839MOL0     H13237   4.391   8.108   5.582 -0.7503  0.5870  0.8179
  839MOL0     H13238   4.422   7.945   5.596  0.0802  1.5374  4.1679
  839MOL0     H13239   4.234   8.093   5.777  1.2100  1.9825 -0.1718
  839MOL0     H13240   4.283   7.920   5.791 -4.0325  1.2236  2.7609
  839MOL0     H13241   4.486   8.159   5.774  2.4655 -2.2487 -1.2035
  839MOL0     H13242   4.522   8.001   5.827  1.6299  1.6368 -1.8347
  839MOL0     H13243   4.472   8.188   6.005  2.3714 -1.8469  0.4446
  839MOL0     H13244   4.298   8.150   5.965 -0.0056 -1.0819 -1.7002
  839MOL0     H13245   3.719   7.640   5.525  0.8892  1.1660  1.0585
  839MOL0     H13246   3.459   7.661   5.560  0.2435  0.5902 -1.2750
  839MOL0     H13247   3.141   7.870   5.778 -2.4495  3.2280  4.4182
  839MOL0     H13248   2.910   7.894   5.830  0.2484 -1.2072 -0.4476
  839MOL0     H13249   1.044   8.046   5.817  1.5575  0.4475 -1.9314
  839MOL0     H13250   0.809   8.094   5.923  1.6596  0.3981  0.1821
  839MOL0     H13251   0.468   8.124   5.979  0.0167  0.9954 -1.1657
  839MOL0     H13252   0.257   8.083   6.113  0.8255 -0.1188  0.1824
  839MOL0     H13253  -0.022   8.326   6.033 -0.2239  0.1887 -0.3463
  839MOL0     H13254  -0.074   8.236   6.175  0.8420  1.4149  0.0723
  839MOL0     H13255  -0.234   8.116   6.051  0.7543 -0.0706  0.6243
  839MOL0     H13256  -0.161   8.158   5.898 -0.7058 -0.7275  0.3831
  839MOL0     H13257  -0.296   8.359   6.099  4.7013  1.9597 -0.4952
  839MOL0     H13258  -0.388   8.290   5.966 -0.8425  1.3068  0.1658
  839MOL0     H13259  -0.339   8.500   5.891 -1.1205 -1.4617 -1.9367
  839MOL0     H13260  -0.167   8.503   5.933 -2.2822  2.8192  3.1259
  839MOL0     H13261  -0.186   8.299   5.560 -1.0950 -0.5377 -0.1101
  839MOL0     H13262   0.035   8.258   5.791  0.8390  1.4589 -2.3663
  839MOL0     H13263   0.217   8.252   5.547  1.7482  0.7914 -0.9149
  839MOL0     H13264   0.116   8.368   5.637 -1.0077 -0.4775  1.9798
  839MOL0     H13265   0.291   8.394   5.595 -0.3518 -0.5994 -0.3174
  840MOL0     O13266   9.454   2.534   2.150 -0.0512 -0.4442 -0.1354
  840MOL0     C13267   9.419   2.476   2.044 -0.2803 -0.6048  0.1635
  840MOL0     O13268   9.489   2.495   1.930  0.0121 -0.6960 -0.2930
  840MOL0     C13269   9.613   2.540   1.946 -1.3906  0.1809 -0.3437
  840MOL0     C13270   9.718   2.453   1.907 -0.1493 -0.4145 -0.6853
  840MOL0     C13271   9.850   2.495   1.916 -0.2676 -0.4139  1.4246
  840MOL0     C13272   9.883   2.624   1.953  0.4316 -0.2747  0.0495
  840MOL0     O13273  10.006   2.688   1.949  0.1208 -0.2143 -0.0064
  840MOL0     C13274  10.128   2.606   1.950  0.6137  0.0230  0.2638
  840MOL0     C13275  10.166   2.554   1.808 -0.1370  0.5731  0.5932
  840MOL0     C13276  10.278   2.450   1.811  0.6956  0.1061 -0.0458
  840MOL0     C13277  10.343   2.431   1.670  0.0940 -0.5461 -0.1814
  840MOL0     C13278  10.464   2.519   1.642 -0.2733  0.7805 -0.2761
  840MOL0     C13279  10.597   2.457   1.704  0.3232  0.2611  0.1386
  840MOL0     C13280  10.720   2.551   1.677  0.7269  0.9980  0.0201
  840MOL0     C13281  10.850   2.483   1.643  0.8754  0.1123  0.6210
  840MOL0     N13282  10.922   2.434   1.757 -0.0203 -0.2199  0.4076
  840MOL0     C13283  11.028   2.498   1.811  0.1429  0.3384 -0.0307
  840MOL0     C13284  11.043   2.455   1.940  0.2603 -0.4105  0.6313
  840MOL0     C13285  11.149   2.491   2.037 -0.2405 -0.0307 -0.7992
  840MOL0     C13286  11.291   2.437   2.007 -0.5303 -0.3654 -0.2874
  840MOL0     C13287  11.293   2.279   2.010  0.2231 -0.0686 -1.2762
  840MOL0     C13288  11.423   2.220   1.950  0.1838 -0.4267 -0.3149
  840MOL0     O13289  11.515   2.232   2.061  0.4053  0.0427  0.1723
  840MOL0     C13290  11.646   2.206   2.039  0.5214 -0.3677  0.0548
  840MOL0     C13291  11.695   2.151   1.922 -0.0070  0.4402  0.4271
  840MOL0     C13292  11.819   2.091   1.930  0.4193  0.0876  0.0357
  840MOL0     C13293  11.905   2.097   2.037  0.1779 -0.0843  0.6008
  840MOL0     C13294  12.051   2.040   2.039 -0.4620 -0.4763  0.0011
  840MOL0     O13295  12.082   1.980   1.923  0.3312 -0.7956 -0.3842
  840MOL0     C13296  12.215   1.966   1.891 -0.5113 -0.7678 -0.9011
  840MOL0     C13297  12.312   2.061   1.922  0.6587  0.4865  0.0544
  840MOL0     C13298  12.441   2.046   1.872  0.4990  0.4309  0.6690
  840MOL0     C13299  12.484   1.938   1.793  0.7123  0.2747 -0.5059
  840MOL0     O13300  12.610   1.929   1.766 -0.1481 -0.1434  0.1164
  840MOL0     C13301  12.653   1.850   1.646 -0.2439 -0.5760 -0.2602
  840MOL0     C13302  12.801   1.887   1.624 -0.9622 -0.4807  0.0567
  840MOL0     C13303  12.811   2.032   1.566 -0.5099 -0.4703  0.1996
  840MOL0     C13304  12.960   2.050   1.523 -0.8251 -0.5172  0.3470
  840MOL0     C13305  12.981   2.205   1.501 -0.1062  0.3715 -0.6456
  840MOL0     C13306  13.095   2.250   1.411 -0.6174 -1.0197 -0.0312
  840MOL0     C13307  13.230   2.198   1.460 -0.4595 -0.1486 -0.6631
  840MOL0     C13308  13.293   2.284   1.570 -0.5110  0.5623 -0.0733
  840MOL0    Cl13309  13.448   2.219   1.642  0.3951  0.5461  0.1574
  840MOL0     C13310  12.393   1.839   1.769  0.8834 -0.2907 -0.2153
  840MOL0     C13311  12.258   1.849   1.813 -0.0380 -0.0050  0.0266
  840MOL0     O13312  12.134   2.064   2.128 -0.0442 -0.7975  0.6725
  840MOL0     C13313  11.866   2.169   2.153  0.1919  0.1644  0.2278
  840MOL0     C13314  11.734   2.216   2.149 -0.9257 -1.3009 -0.2687
  840MOL0     N13315  10.952   2.342   1.951 -0.0417  0.3128 -0.4081
  840MOL0     N13316  10.877   2.341   1.845  0.1847 -0.3113 -0.3939
  840MOL0     C13317   9.788   2.713   1.999  1.2789  0.0725  0.1025
  840MOL0     C13318   9.648   2.676   1.989  0.0482  0.1450 -0.0575
  840MOL0     C13319   9.276   2.424   2.030  0.0971 -0.7413 -0.3676
  840MOL0     C13320   9.232   2.399   1.896  0.1981 -0.1284 -0.6700
  840MOL0     C13321   9.097   2.372   1.866 -0.5223 -0.0994 -0.3240
  840MOL0     C13322   9.017   2.325   1.971  0.1490  0.5801  0.5371
  840MOL0     O13323   8.887   2.281   1.960 -0.1760 -0.5935  0.2137
  840MOL0     C13324   8.823   2.290   1.827  0.2835 -0.4971 -0.3515
  840MOL0     C13325   8.887   2.180   1.740 -0.3799  0.6457 -0.5567
  840MOL0     C13326   8.820   2.174   1.604 -0.0781 -0.4889  0.1040
  840MOL0     C13327   8.881   2.062   1.523  0.1031  0.0291  0.2706
  840MOL0     C13328   8.898   2.090   1.381  1.0758  0.1584 -0.4826
  840MOL0     C13329   8.916   2.109   1.264 -0.6624  0.6193  0.2061
  840MOL0     C13330   9.053   2.331   2.100  0.1529  0.6153 -0.4720
  840MOL0     C13331   9.187   2.384   2.130 -0.1867  0.2138 -0.5493
  840MOL0     C13332   9.231   2.370   2.274 -0.4125  0.4884  0.2570
  840MOL0     H13333   9.673   2.359   1.876 -0.6967 -0.3002 -0.2526
  840MOL0     H13334   9.937   2.432   1.902 -0.6542 -0.7667  0.5575
  840MOL0     H13335  10.205   2.670   1.992 -2.6343  1.5410  4.6775
  840MOL0     H13336  10.112   2.529   2.026 -3.2777 -1.2452 -1.5726
  840MOL0     H13337  10.192   2.625   1.730  0.0106 -1.2226 -1.0793
  840MOL0     H13338  10.081   2.505   1.759 -1.8201 -1.7599  5.2008
  840MOL0     H13339  10.244   2.355   1.853  1.0017  1.1493  2.8092
  840MOL0     H13340  10.348   2.483   1.889  1.2275  1.6717 -1.1369
  840MOL0     H13341  10.387   2.332   1.662  0.7414 -0.1622 -1.6531
  840MOL0     H13342  10.258   2.443   1.602 -0.3965  0.9016  0.6311
  840MOL0     H13343  10.480   2.511   1.534  2.2202 -3.4089  0.1560
  840MOL0     H13344  10.440   2.622   1.668  1.0001  0.2895  3.3494
  840MOL0     H13345  10.590   2.441   1.812  2.2046 -1.1205  0.1017
  840MOL0     H13346  10.615   2.367   1.645  1.4410  2.7252 -3.7127
  840MOL0     H13347  10.730   2.614   1.766  2.0777  2.4286 -1.0944
  840MOL0     H13348  10.706   2.609   1.585  2.1024 -0.4895 -1.1908
  840MOL0     H13349  10.828   2.395   1.582 -2.0024  1.7365 -0.8746
  840MOL0     H13350  10.903   2.558   1.584  1.2872 -1.0050 -0.4643
  840MOL0     H13351  11.093   2.573   1.767  1.3204 -1.3348 -1.2593
  840MOL0     H13352  11.163   2.599   2.045  1.3425 -0.2698  0.3031
  840MOL0     H13353  11.122   2.442   2.131  4.1646 -1.4432 -0.0325
  840MOL0     H13354  11.321   2.468   1.906 -0.7247  0.0139 -0.2310
  840MOL0     H13355  11.367   2.469   2.078 -0.6100 -0.8631  0.0292
  840MOL0     H13356  11.210   2.237   1.952  1.0517 -1.4040 -1.5275
  840MOL0     H13357  11.262   2.250   2.111  2.5118  0.5076 -0.3602
  840MOL0     H13358  11.453   2.277   1.862  1.9798  0.4268  0.8134
  840MOL0     H13359  11.397   2.119   1.917  0.5911 -0.1873 -1.4013
  840MOL0     H13360  11.628   2.138   1.837  0.7190 -0.7891  0.0110
  840MOL0     H13361  11.858   2.029   1.850  1.4610  0.4409  0.2610
  840MOL0     H13362  12.298   2.152   1.980  1.2023  0.8229 -0.3338
  840MOL0     H13363  12.515   2.124   1.885  0.6291  0.7786 -1.6527
  840MOL0     H13364  12.637   1.746   1.677  1.2410  0.3173  4.3596
  840MOL0     H13365  12.595   1.877   1.558  0.4256 -0.9597 -0.8267
  840MOL0     H13366  12.846   1.881   1.724 -0.3832  2.8327  0.1120
  840MOL0     H13367  12.837   1.812   1.554 -0.5119 -0.2531  0.0405
  840MOL0     H13368  12.740   2.052   1.485  0.1352  1.6891  0.1109
  840MOL0     H13369  12.790   2.103   1.646 -0.1767  1.0612 -1.0263
  840MOL0     H13370  12.983   2.004   1.426 -0.0792 -0.4424  0.4772
  840MOL0     H13371  13.035   2.015   1.595  1.6539 -0.7091 -2.1450
  840MOL0     H13372  13.003   2.244   1.601  3.7283  0.3323 -1.3078
  840MOL0     H13373  12.893   2.263   1.473  0.5964  2.2064  0.7594
  840MOL0     H13374  13.082   2.223   1.305 -1.2875  2.3291 -0.9296
  840MOL0     H13375  13.083   2.359   1.412  2.9451 -0.5169  0.2317
  840MOL0     H13376  13.304   2.200   1.379  2.1826 -0.2001  1.6148
  840MOL0     H13377  13.212   2.095   1.493  1.1314  0.0069  0.8089
  840MOL0     H13378  13.296   2.383   1.526 -4.7625 -0.4383 -3.2625
  840MOL0     H13379  13.221   2.286   1.653 -0.4221 -0.5370  0.0526
  840MOL0     H13380  12.420   1.754   1.707  0.9289  0.6328 -1.5086
  840MOL0     H13381  12.181   1.781   1.777 -1.3517 -0.5196  3.4683
  840MOL0     H13382  11.934   2.168   2.238 -0.5050  0.1395  0.7937
  840MOL0     H13383  11.690   2.271   2.232 -2.1390 -0.8780 -1.1614
  840MOL0     H13384   9.820   2.813   2.025 -1.6699  1.6444 -1.7121
  840MOL0     H13385   9.563   2.738   2.017  0.0551  0.1763 -0.1062
  840MOL0     H13386   9.294   2.411   1.808 -0.9722  2.3838 -1.2622
  840MOL0     H13387   9.066   2.368   1.762  0.4216 -1.0796 -0.5892
  840MOL0     H13388   8.836   2.392   1.790 -1.9509  0.0793  0.2794
  840MOL0     H13389   8.715   2.272   1.835  0.0087  1.1489 -0.0456
  840MOL0     H13390   8.864   2.092   1.801  1.3473 -0.1645 -1.0324
  840MOL0     H13391   8.995   2.190   1.731 -0.5297  1.8331 -1.2064
  840MOL0     H13392   8.825   2.270   1.552  1.3031  0.7546  2.3181
  840MOL0     H13393   8.714   2.151   1.616 -0.8570  2.3018 -0.7239
  840MOL0     H13394   8.979   2.035   1.562 -0.1812 -1.1589  0.1844
  840MOL0     H13395   8.817   1.974   1.516 -3.5254  2.4237  0.9728
  840MOL0     H13396   8.943   2.118   1.161 -2.1535 -1.6234 -0.4655
  840MOL0     H13397   9.001   2.299   2.190  1.3515 -1.4928 -0.4635
  840MOL0     H13398   9.153   2.330   2.339  0.5790  0.4819  1.4923
  840MOL0     H13399   9.309   2.297   2.294 -2.2656 -0.9683  2.7011
  840MOL0     H13400   9.258   2.474   2.296 -2.3848  1.8525 -3.0012
  841MOL0     O13401   4.283   0.602   0.030 -0.0576  0.8764 -0.4605
  841MOL0     C13402   4.248   0.712   0.029  0.5522 -1.0188 -0.6016
  841MOL0     O13403   4.315   0.809   0.085 -0.5212 -0.0944 -0.5588
  841MOL0     C13404   4.449   0.793   0.104 -0.5612 -0.5873 -0.4394
  841MOL0     C13405   4.487   0.717   0.222 -0.4213 -0.6076  0.8627
  841MOL0     C13406   4.626   0.706   0.250  0.1336  0.2810 -0.8023
  841MOL0     C13407   4.730   0.766   0.174 -0.0916 -0.2282 -0.6908
  841MOL0     O13408   4.864   0.746   0.203  0.6271  0.1911 -0.0944
  841MOL0     C13409   4.951   0.860   0.209  0.0169 -0.6036  0.4162
  841MOL0     C13410   5.084   0.846   0.288 -0.0585 -0.3164 -0.6695
  841MOL0     C13411   5.077   0.775   0.423  0.3289  0.0229  0.2582
  841MOL0     C13412   5.217   0.738   0.460 -0.2356 -0.2196  0.3290
  841MOL0     C13413   5.225   0.715   0.607  0.0440 -0.4423 -0.1955
  841MOL0     C13414   5.349   0.631   0.646 -0.7045  0.3117  0.2727
  841MOL0     C13415   5.383   0.644   0.794  0.1724 -0.2916 -0.4490
  841MOL0     C13416   5.459   0.772   0.824 -0.7542 -0.7574 -0.5848
  841MOL0     N13417   5.601   0.763   0.794 -0.0770  0.2742 -0.0541
  841MOL0     C13418   5.699   0.728   0.886  0.1147 -0.2575  0.2710
  841MOL0     C13419   5.817   0.762   0.833 -0.1366 -1.0573  0.3474
  841MOL0     C13420   5.948   0.741   0.903  0.6273  0.4580 -1.1396
  841MOL0     C13421   6.065   0.708   0.807  0.2081 -0.9256  0.5449
  841MOL0     C13422   6.185   0.651   0.889  0.1929 -0.9984 -0.0869
  841MOL0     C13423   6.270   0.762   0.956 -0.3910  0.9443 -0.0572
  841MOL0     O13424   6.367   0.699   1.044  0.0664  0.3953 -0.0062
  841MOL0     C13425   6.487   0.644   0.999  0.6396  0.3512  0.0517
  841MOL0     C13426   6.523   0.645   0.864 -0.1269  0.2352  0.8390
  841MOL0     C13427   6.635   0.566   0.824  0.2776  0.2315 -0.2665
  841MOL0     C13428   6.718   0.494   0.909 -0.3132 -0.6327  0.1833
  841MOL0     C13429   6.835   0.429   0.866 -0.1919  0.2354  0.0605
  841MOL0     O13430   6.908   0.367   0.958 -0.4650  0.2653  0.0157
  841MOL0     C13431   7.036   0.319   0.935 -0.1483  0.2979  0.9681
  841MOL0     C13432   7.146   0.357   1.013  0.3021 -0.5165  0.2430
  841MOL0     C13433   7.271   0.303   0.989  0.2695 -0.4910  0.2521
  841MOL0     C13434   7.288   0.205   0.892  0.0122 -0.2598  0.2464
  841MOL0     O13435   7.415   0.162   0.874  0.5327 -0.3694  0.0954
  841MOL0     C13436   7.460   0.093   0.757  0.5727  0.1730  0.6295
  841MOL0     C13437   7.606   0.037   0.781  0.5524 -0.6259 -0.0497
  841MOL0     C13438   7.628  -0.032   0.910  0.5459  0.0903  0.1851
  841MOL0     C13439   7.517  -0.132   0.945  0.4980 -0.1692 -0.1364
  841MOL0     C13440   7.549  -0.203   1.081  0.2025 -1.0515  1.4879
  841MOL0     C13441   7.433  -0.297   1.107 -0.3863 -0.0905  0.2767
  841MOL0     C13442   7.430  -0.335   1.262 -0.0129  0.3651  0.2480
  841MOL0     C13443   7.306  -0.408   1.301 -0.5435 -0.4798 -0.5391
  841MOL0    Cl13444   7.298  -0.408   1.487 -0.1923  0.2538 -0.0489
  841MOL0     C13445   7.181   0.166   0.821  0.2124  0.1960 -0.2952
  841MOL0     C13446   7.052   0.212   0.848  0.3121  0.4658  0.2052
  841MOL0     O13447   6.862   0.438   0.747 -0.5906 -0.2236 -0.1404
  841MOL0     C13448   6.688   0.511   1.046  0.3613  0.5814 -0.1441
  841MOL0     C13449   6.578   0.587   1.086  0.2502 -0.6318 -0.1590
  841MOL0     N13450   5.796   0.815   0.705 -0.2515  0.6015  0.3055
  841MOL0     N13451   5.667   0.824   0.691  0.5096  0.6562  0.2729
  841MOL0     C13452   4.683   0.834   0.060  0.1238  0.3958 -1.1617
  841MOL0     C13453   4.548   0.844   0.026 -0.4422  0.1151 -0.9943
  841MOL0     C13454   4.106   0.737  -0.015 -0.7867  1.3667  0.1886
  841MOL0     C13455   4.019   0.627  -0.022  0.4014  0.5016 -0.7827
  841MOL0     C13456   3.896   0.636  -0.081 -0.1337 -0.4507 -0.1561
  841MOL0     C13457   3.847   0.756  -0.123 -0.4874  0.5212 -0.3856
  841MOL0     O13458   3.727   0.774  -0.175 -0.0399 -0.0631 -0.5386
  841MOL0     C13459   3.618   0.695  -0.124 -0.5662 -0.6363 -0.4943
  841MOL0     C13460   3.481   0.771  -0.135  0.2773  0.1580 -0.7078
  841MOL0     C13461   3.431   0.763  -0.283  0.3021  0.4909 -0.2341
  841MOL0     C13462   3.283   0.823  -0.293 -0.3073  0.4749 -0.6917
  841MOL0     C13463   3.226   0.825  -0.432 -0.9039 -0.0845  0.4557
  841MOL0     C13464   3.169   0.818  -0.538 -0.3001 -0.3417 -0.6620
  841MOL0     C13465   3.928   0.869  -0.103  1.3360  0.3284 -0.1978
  841MOL0     C13466   4.059   0.865  -0.054  0.1945 -0.1338 -0.4959
  841MOL0     C13467   4.130   1.000  -0.048  0.1251  0.5044 -0.5848
  841MOL0     H13468   4.420   0.677   0.297 -0.8410 -2.6812 -0.5467
  841MOL0     H13469   4.655   0.638   0.330  1.6296  1.9063  0.1191
  841MOL0     H13470   4.972   0.880   0.104 -0.5453  1.3273  0.6190
  841MOL0     H13471   4.888   0.943   0.245 -1.2022 -2.2315  2.3036
  841MOL0     H13472   5.131   0.943   0.305  2.2981 -1.8316  2.6264
  841MOL0     H13473   5.144   0.785   0.219 -2.4881 -1.8598 -1.5482
  841MOL0     H13474   5.008   0.691   0.423  0.3830 -0.1001 -2.0460
  841MOL0     H13475   5.041   0.856   0.487  0.2638 -0.2050  0.5101
  841MOL0     H13476   5.241   0.653   0.396  0.8989  0.1741  0.2151
  841MOL0     H13477   5.293   0.811   0.431 -0.1032 -0.5578 -0.1944
  841MOL0     H13478   5.230   0.813   0.656  2.2666 -0.2293 -0.7292
  841MOL0     H13479   5.133   0.666   0.639  0.1846 -0.6579 -0.1185
  841MOL0     H13480   5.338   0.525   0.621  0.5261  0.0057  0.9187
  841MOL0     H13481   5.431   0.677   0.589 -3.1131  3.8833 -0.6572
  841MOL0     H13482   5.442   0.558   0.828 -0.7507  0.0537  2.2372
  841MOL0     H13483   5.293   0.643   0.856 -0.0127  4.0016 -0.3868
  841MOL0     H13484   5.416   0.863   0.780 -1.2952  1.0740  3.2991
  841MOL0     H13485   5.455   0.783   0.933  1.9731  0.4662 -0.5350
  841MOL0     H13486   5.678   0.687   0.984  0.0662  0.2423  0.4711
  841MOL0     H13487   5.967   0.831   0.963  1.3024 -0.2776 -0.2191
  841MOL0     H13488   5.929   0.671   0.985 -3.4073  2.0335 -0.4802
  841MOL0     H13489   6.029   0.631   0.739 -1.2587 -0.8850  1.2419
  841MOL0     H13490   6.093   0.797   0.749 -0.6991 -0.9540  0.0566
  841MOL0     H13491   6.234   0.590   0.813 -3.3789 -1.4628 -2.2686
  841MOL0     H13492   6.168   0.577   0.967 -0.1466 -0.6465  0.1813
  841MOL0     H13493   6.210   0.828   1.021 -0.6373  0.0381  0.6501
  841MOL0     H13494   6.324   0.815   0.877  0.2612  3.2025  1.7892
  841MOL0     H13495   6.469   0.707   0.793 -0.6000 -0.4235  0.6143
  841MOL0     H13496   6.661   0.559   0.719 -0.9141 -2.9636 -0.4468
  841MOL0     H13497   7.134   0.433   1.090  0.1434 -0.4630  0.1668
  841MOL0     H13498   7.358   0.346   1.037  1.0210 -0.0368 -1.4455
  841MOL0     H13499   7.385   0.015   0.739 -0.4968  1.4195 -0.6020
  841MOL0     H13500   7.463   0.161   0.671  0.3833  0.8804  1.1642
  841MOL0     H13501   7.639  -0.027   0.699  0.0500  1.0451 -1.6260
  841MOL0     H13502   7.681   0.117   0.776  0.1016 -0.0783  1.4555
  841MOL0     H13503   7.722  -0.088   0.909 -0.5623 -1.8559 -0.7668
  841MOL0     H13504   7.633   0.040   0.993 -2.1900 -0.1688  0.6569
  841MOL0     H13505   7.501  -0.207   0.867  1.5524  0.9007 -1.4049
  841MOL0     H13506   7.418  -0.086   0.934 -0.1846 -1.6881 -0.6383
  841MOL0     H13507   7.565  -0.120   1.150  1.0655  2.6575 -2.7334
  841MOL0     H13508   7.645  -0.255   1.079  2.0800  2.1687  0.3453
  841MOL0     H13509   7.338  -0.248   1.081 -1.0732 -1.6552 -0.2705
  841MOL0     H13510   7.444  -0.382   1.039  2.0640 -0.5130  1.0848
  841MOL0     H13511   7.438  -0.249   1.330  0.6532 -0.2774  1.0056
  841MOL0     H13512   7.514  -0.404   1.272 -1.3171 -1.5980 -1.5630
  841MOL0     H13513   7.224  -0.344   1.265 -0.2676  0.0364 -0.2595
  841MOL0     H13514   7.300  -0.505   1.251 -2.5262 -1.4081  1.3251
  841MOL0     H13515   7.191   0.092   0.742 -1.1708 -0.4162  0.0689
  841MOL0     H13516   6.973   0.170   0.787  0.2177  0.6551  0.1985
  841MOL0     H13517   6.749   0.462   1.122 -0.5558 -0.9237 -0.3338
  841MOL0     H13518   6.541   0.599   1.188 -0.5774  0.3207 -0.5531
  841MOL0     H13519   4.743   0.887  -0.013  0.8904 -2.6419 -2.8997
  841MOL0     H13520   4.527   0.899  -0.065  0.4195 -0.5150 -1.5983
  841MOL0     H13521   4.034   0.532   0.029  1.1634  1.7595  1.5061
  841MOL0     H13522   3.832   0.549  -0.090 -1.9449  0.5272  2.2115
  841MOL0     H13523   3.634   0.675  -0.017 -2.3370 -0.7673 -0.2161
  841MOL0     H13524   3.607   0.601  -0.179 -1.9790 -0.4132 -0.6258
  841MOL0     H13525   3.493   0.875  -0.103  0.8829  0.1738 -0.9783
  841MOL0     H13526   3.408   0.726  -0.067 -1.1349  3.2004 -0.0314
  841MOL0     H13527   3.431   0.660  -0.318 -3.0443  0.2723  0.0592
  841MOL0     H13528   3.496   0.825  -0.346  0.1765  0.6416 -0.2182
  841MOL0     H13529   3.216   0.753  -0.243 -3.3122  0.5342 -4.2426
  841MOL0     H13530   3.278   0.923  -0.248  1.0109  0.6237 -0.8449
  841MOL0     H13531   3.115   0.818  -0.631  1.4795 -0.1112 -1.7477
  841MOL0     H13532   3.881   0.965  -0.121  1.1492  0.5272  1.2415
  841MOL0     H13533   4.154   1.020   0.057 -2.5716 -0.9696  0.4182
  841MOL0     H13534   4.218   1.001  -0.114 -0.4996 -1.2220 -1.5084
  841MOL0     H13535   4.065   1.074  -0.094 -1.0089  0.6125  1.0905
  842MOL0     O13536   2.761   6.110   2.046 -0.6664  0.0544 -0.2047
  842MOL0     C13537   2.740   6.226   2.080 -0.0842 -0.4487 -0.4290
  842MOL0     O13538   2.807   6.290   2.180  0.6435 -0.1286  1.0744
  842MOL0     C13539   2.906   6.226   2.249  0.5777  0.6600  0.3401
  842MOL0     C13540   3.041   6.255   2.226  0.2601 -0.1390 -0.4221
  842MOL0     C13541   3.145   6.187   2.294 -0.2253  0.0899 -1.0456
  842MOL0     C13542   3.112   6.091   2.388  1.3685 -0.0104 -0.1429
  842MOL0     O13543   3.206   6.026   2.467 -0.1709  0.4475 -0.4453
  842MOL0     C13544   3.230   5.888   2.440  0.2061 -0.2809 -0.8848
  842MOL0     C13545   3.331   5.863   2.326 -0.2938 -0.6357  0.0416
  842MOL0     C13546   3.480   5.885   2.361  0.3945  0.1321 -0.4378
  842MOL0     C13547   3.568   5.853   2.243 -0.3358 -0.5574  0.2169
  842MOL0     C13548   3.698   5.916   2.264  0.5309 -0.3517  0.3042
  842MOL0     C13549   3.774   5.854   2.384  0.7104 -0.1467 -0.1148
  842MOL0     C13550   3.931   5.864   2.370 -0.2014 -0.7943 -0.2573
  842MOL0     C13551   3.989   6.002   2.364  0.0210  0.1007 -1.0532
  842MOL0     N13552   4.136   6.003   2.358  0.4459  0.3767  0.3285
  842MOL0     C13553   4.227   5.993   2.461 -0.2054 -0.8180  0.3506
  842MOL0     C13554   4.354   5.981   2.398  0.7836  0.4695  0.1886
  842MOL0     C13555   4.493   5.978   2.455 -0.8754  0.5553  0.1739
  842MOL0     C13556   4.525   6.124   2.493  0.1560 -0.4513  0.6359
  842MOL0     C13557   4.553   6.208   2.368 -0.0044 -0.8009  0.4196
  842MOL0     C13558   4.494   6.348   2.394  0.2400  0.5277  0.4129
  842MOL0     O13559   4.562   6.420   2.495 -0.1692  0.6714 -0.1838
  842MOL0     C13560   4.694   6.463   2.472 -0.4691  0.3639 -0.8399
  842MOL0     C13561   4.767   6.489   2.588 -0.2754  0.0716 -0.3326
  842MOL0     C13562   4.899   6.532   2.591  0.1871  0.0750  0.7542
  842MOL0     C13563   4.965   6.550   2.465  0.1349  0.6809 -0.8964
  842MOL0     C13564   5.106   6.595   2.462 -0.0836  0.5665 -0.5780
  842MOL0     O13565   5.187   6.556   2.356 -0.1762  0.3340 -0.0341
  842MOL0     C13566   5.327   6.562   2.361  1.1570 -0.4841 -0.3491
  842MOL0     C13567   5.398   6.512   2.468 -0.1580  0.3479 -0.1578
  842MOL0     C13568   5.538   6.521   2.467 -0.0750  0.2742  0.3655
  842MOL0     C13569   5.610   6.575   2.365 -0.1695 -1.5045  0.6089
  842MOL0     O13570   5.734   6.610   2.368  0.2190 -0.6435  0.0510
  842MOL0     C13571   5.786   6.641   2.501  0.2720  0.2612  0.0272
  842MOL0     C13572   5.915   6.719   2.505 -0.4640 -0.0651 -0.0655
  842MOL0     C13573   6.032   6.636   2.449 -0.5709 -0.1517  0.0644
  842MOL0     C13574   6.175   6.696   2.491  0.5379 -0.0106 -0.2433
  842MOL0     C13575   6.282   6.599   2.434 -0.1679  0.6488 -1.0581
  842MOL0     C13576   6.423   6.665   2.420  0.5871  0.1852 -0.3051
  842MOL0     C13577   6.529   6.561   2.362 -0.0762 -0.0248 -0.8672
  842MOL0     C13578   6.618   6.511   2.471 -0.7486  0.1942  0.9056
  842MOL0    Cl13579   6.748   6.415   2.390 -0.0089 -0.0230  0.1244
  842MOL0     C13580   5.537   6.608   2.250 -0.2160  0.4467  0.1346
  842MOL0     C13581   5.392   6.597   2.243 -0.2451 -0.1768  0.0946
  842MOL0     O13582   5.137   6.668   2.555  0.4051  0.0728  0.7438
  842MOL0     C13583   4.891   6.531   2.347  0.4113  0.5885 -0.4858
  842MOL0     C13584   4.756   6.491   2.353 -0.2629 -0.2777  0.2074
  842MOL0     N13585   4.318   5.969   2.261 -0.9828  1.0201  0.9229
  842MOL0     N13586   4.194   5.986   2.238 -0.1006 -0.0757 -0.2720
  842MOL0     C13587   2.974   6.061   2.413 -0.3205  1.3419 -0.7251
  842MOL0     C13588   2.870   6.132   2.349 -0.0874 -0.1421  1.1936
  842MOL0     C13589   2.630   6.301   2.013  0.8193 -0.2383 -0.0549
  842MOL0     C13590   2.531   6.227   1.938 -0.4139 -0.3390  0.6764
  842MOL0     C13591   2.417   6.289   1.885 -1.0006  0.1092  0.2817
  842MOL0     C13592   2.397   6.426   1.910 -0.0859  0.4800  0.1617
  842MOL0     O13593   2.284   6.482   1.841  0.9129 -0.4415  1.2120
  842MOL0     C13594   2.214   6.598   1.892  0.0779  0.1774 -0.5034
  842MOL0     C13595   2.135   6.547   2.017  0.7326 -0.3800 -0.0094
  842MOL0     C13596   2.019   6.440   1.992 -0.7560  0.6303 -0.0236
  842MOL0     C13597   1.903   6.510   1.921  1.3743  0.3108 -0.6948
  842MOL0     C13598   1.777   6.424   1.925  0.5840  0.5169  0.5125
  842MOL0     C13599   1.673   6.355   1.941 -0.2206 -0.7262  0.5439
  842MOL0     C13600   2.493   6.501   1.976  0.6251 -0.1055  0.2360
  842MOL0     C13601   2.612   6.434   2.017  0.1543 -0.5740 -1.0690
  842MOL0     C13602   2.713   6.528   2.074 -0.5817  0.0417  0.3185
  842MOL0     H13603   3.054   6.340   2.159 -1.3546 -0.3712 -1.0687
  842MOL0     H13604   3.251   6.206   2.284  0.0116  0.3796  1.4157
  842MOL0     H13605   3.265   5.841   2.532 -1.2317 -0.2537 -0.3136
  842MOL0     H13606   3.136   5.837   2.417 -1.6358  2.1946  0.6988
  842MOL0     H13607   3.306   5.920   2.236 -0.1525  1.8078  1.4701
  842MOL0     H13608   3.325   5.755   2.308  1.4022 -0.2953 -3.1690
  842MOL0     H13609   3.511   5.828   2.449 -0.4536  1.0827  0.5058
  842MOL0     H13610   3.497   5.988   2.393 -0.7536 -0.0373  0.8116
  842MOL0     H13611   3.583   5.745   2.238 -2.4860 -0.8974  0.5022
  842MOL0     H13612   3.532   5.902   2.152  2.0435  1.2334  0.1289
  842MOL0     H13613   3.763   5.918   2.176 -2.0276 -2.3385 -1.7762
  842MOL0     H13614   3.686   6.024   2.281  1.0984 -0.4016  1.0848
  842MOL0     H13615   3.741   5.910   2.473  0.2567 -0.6756  0.0580
  842MOL0     H13616   3.757   5.746   2.387  0.6048 -0.1231  0.1941
  842MOL0     H13617   3.975   5.813   2.284  2.3002 -1.5032  1.3527
  842MOL0     H13618   3.974   5.813   2.456  2.4619 -1.1250 -1.6921
  842MOL0     H13619   3.944   6.048   2.276 -2.8447  2.1100  1.2622
  842MOL0     H13620   3.961   6.066   2.449  4.4992  0.1414  0.6679
  842MOL0     H13621   4.220   6.005   2.568  1.8297  3.5445  0.2181
  842MOL0     H13622   4.494   5.906   2.537 -0.7753 -0.4972 -0.7159
  842MOL0     H13623   4.557   5.940   2.374 -0.5518  1.4847 -0.0119
  842MOL0     H13624   4.441   6.166   2.549 -0.1016 -0.5574  0.3282
  842MOL0     H13625   4.599   6.125   2.574  1.5664 -1.5849 -0.5840
  842MOL0     H13626   4.501   6.172   2.279  0.3736 -0.0833 -0.0995
  842MOL0     H13627   4.660   6.221   2.349  0.1306 -0.2386  1.4588
  842MOL0     H13628   4.387   6.335   2.414 -0.2438 -0.5776 -2.3799
  842MOL0     H13629   4.494   6.410   2.305 -0.1274  0.6108  0.4688
  842MOL0     H13630   4.716   6.478   2.683 -0.7049  3.5216 -0.0166
  842MOL0     H13631   4.957   6.538   2.682  0.7101  0.5370  0.4058
  842MOL0     H13632   5.344   6.462   2.548 -1.7932 -1.2165 -2.1217
  842MOL0     H13633   5.601   6.501   2.554  1.3532 -0.5215 -0.8048
  842MOL0     H13634   5.709   6.703   2.548  2.0038  0.3605  3.0320
  842MOL0     H13635   5.799   6.554   2.566 -0.7005  0.9165  1.1343
  842MOL0     H13636   5.908   6.813   2.449  0.3110  0.1030  0.1028
  842MOL0     H13637   5.927   6.742   2.611 -0.4922 -0.9060  0.1275
  842MOL0     H13638   6.018   6.534   2.487 -0.5342  0.2633  1.2285
  842MOL0     H13639   6.021   6.639   2.340 -0.0760  0.1084  0.0187
  842MOL0     H13640   6.181   6.704   2.600 -0.4080 -1.1740 -0.0909
  842MOL0     H13641   6.176   6.795   2.445 -2.2800  0.7836  1.2222
  842MOL0     H13642   6.238   6.565   2.340 -1.5652 -1.6086  0.3230
  842MOL0     H13643   6.277   6.506   2.491  1.3272  1.8215  1.1181
  842MOL0     H13644   6.410   6.749   2.351 -1.8020  1.8378  1.9740
  842MOL0     H13645   6.468   6.707   2.510  3.2950 -2.5013 -0.2791
  842MOL0     H13646   6.584   6.615   2.285 -1.1691  0.8677 -1.0330
  842MOL0     H13647   6.470   6.478   2.321 -1.8484 -0.2297  1.7961
  842MOL0     H13648   6.678   6.578   2.533  2.6048 -3.0196  1.5264
  842MOL0     H13649   6.566   6.441   2.537  0.2661 -1.4386  0.0611
  842MOL0     H13650   5.598   6.645   2.169  2.0294 -1.6854  0.7133
  842MOL0     H13651   5.328   6.631   2.163 -1.9313  0.3470  1.6062
  842MOL0     H13652   4.934   6.545   2.249  0.8941  1.2071 -0.1924
  842MOL0     H13653   4.701   6.479   2.260 -0.2996 -1.5132  0.3687
  842MOL0     H13654   2.945   5.990   2.490 -1.1051 -0.7321 -2.8470
  842MOL0     H13655   2.765   6.114   2.370 -0.1246  1.0334  2.1082
  842MOL0     H13656   2.533   6.119   1.939 -3.3528 -0.5091 -1.0742
  842MOL0     H13657   2.352   6.227   1.824  1.1624 -0.4496 -1.5781
  842MOL0     H13658   2.150   6.642   1.815  1.4801  0.8834 -1.3141
  842MOL0     H13659   2.285   6.670   1.933 -1.3130  0.2646  1.9279
  842MOL0     H13660   2.088   6.633   2.065 -1.5539 -0.0385 -2.6273
  842MOL0     H13661   2.206   6.500   2.086 -0.4920  1.1024  2.3502
  842MOL0     H13662   1.995   6.391   2.087  0.9588 -0.1011  0.0910
  842MOL0     H13663   2.060   6.361   1.928  2.4638  1.7987  0.3961
  842MOL0     H13664   1.872   6.603   1.970  0.8753 -0.2145 -0.0008
  842MOL0     H13665   1.926   6.542   1.819  3.1862  0.8771 -0.1375
  842MOL0     H13666   1.596   6.285   1.967  0.0091 -1.3953 -0.4814
  842MOL0     H13667   2.488   6.610   1.978  2.5402  0.1219 -2.4560
  842MOL0     H13668   2.817   6.516   2.043 -0.4973  0.2182  0.5253
  842MOL0     H13669   2.692   6.632   2.047 -0.6524 -0.0075  0.1826
  842MOL0     H13670   2.698   6.519   2.182  2.4866 -0.3995  0.7854
  843MOL0     O13671   9.991   4.414   3.435  0.0212  0.0871 -0.4296
  843MOL0     C13672   9.932   4.424   3.327 -0.0654  0.2208 -0.4225
  843MOL0     O13673   9.995   4.419   3.203  0.1320 -0.7572 -0.3918
  843MOL0     C13674  10.127   4.402   3.194  0.5577  0.6353  0.1197
  843MOL0     C13675  10.184   4.299   3.119 -0.0608  0.4997 -0.1627
  843MOL0     C13676  10.320   4.272   3.115 -0.9072 -0.1179  0.3591
  843MOL0     C13677  10.408   4.371   3.166 -0.5052  0.5233  0.1947
  843MOL0     O13678  10.546   4.363   3.146  0.4822  0.4456 -0.3541
  843MOL0     C13679  10.629   4.411   3.257 -0.1398  0.5712  0.7199
  843MOL0     C13680  10.775   4.396   3.219 -0.2478 -0.3449 -0.5436
  843MOL0     C13681  10.801   4.399   3.069 -0.8233  0.4075  1.4002
  843MOL0     C13682  10.953   4.404   3.027 -0.5507  0.3102 -0.0083
  843MOL0     C13683  11.018   4.277   3.065 -0.5161  0.4781 -0.2041
  843MOL0     C13684  11.156   4.288   3.004  0.1960 -0.0601  0.3412
  843MOL0     C13685  11.227   4.160   3.025 -0.4444  0.1333 -0.4929
  843MOL0     C13686  11.362   4.165   2.947  0.0946 -0.0045 -0.1527
  843MOL0     N13687  11.427   4.035   2.956  0.6342 -0.6762 -0.1855
  843MOL0     C13688  11.558   4.010   3.004  0.1221  0.2785  0.4670
  843MOL0     C13689  11.598   3.892   2.968  0.6172  0.1050  0.0441
  843MOL0     C13690  11.731   3.831   3.001 -0.1099  0.2982 -0.9217
  843MOL0     C13691  11.727   3.744   3.126 -0.4009  0.7270  0.0964
  843MOL0     C13692  11.850   3.718   3.204 -0.7683  0.1768 -0.0545
  843MOL0     C13693  11.952   3.621   3.146  0.8470 -0.3102  0.5610
  843MOL0     O13694  12.081   3.659   3.190 -0.3913  0.5245  0.8760
  843MOL0     C13695  12.179   3.553   3.207  0.1090  0.1235  0.1344
  843MOL0     C13696  12.157   3.417   3.183  0.3405 -0.1687  0.4408
  843MOL0     C13697  12.252   3.321   3.227 -0.0986 -0.5524  0.7161
  843MOL0     C13698  12.380   3.364   3.279  0.3557 -0.2199 -0.7339
  843MOL0     C13699  12.487   3.266   3.316  0.0263  0.7498  0.0226
  843MOL0     O13700  12.590   3.305   3.388 -0.7451 -0.2411  0.0154
  843MOL0     C13701  12.676   3.201   3.429  0.0796  0.1310 -0.0758
  843MOL0     C13702  12.623   3.096   3.514  0.3035  0.2023  1.4215
  843MOL0     C13703  12.718   3.008   3.567  0.5353  0.0229  0.2743
  843MOL0     C13704  12.854   3.007   3.540  0.1832  1.1000  0.4177
  843MOL0     O13705  12.950   2.917   3.565 -0.3047 -0.6959 -0.1753
  843MOL0     C13706  12.932   2.824   3.680  0.4643  0.2473  0.4286
  843MOL0     C13707  13.046   2.725   3.682 -0.0548  0.4636  0.1188
  843MOL0     C13708  13.186   2.777   3.719  0.8780 -0.3120  0.2679
  843MOL0     C13709  13.284   2.666   3.752 -0.2005  0.0426  0.6190
  843MOL0     C13710  13.422   2.706   3.798 -0.0435  0.2158 -0.0674
  843MOL0     C13711  13.423   2.772   3.938  0.1567 -0.5952  0.4027
  843MOL0     C13712  13.561   2.790   3.983  0.3453 -0.7252  1.2544
  843MOL0     C13713  13.645   2.887   3.905 -0.3388 -0.8267 -0.9507
  843MOL0    Cl13714  13.722   2.794   3.775  0.2373  0.4544 -0.2584
  843MOL0     C13715  12.898   3.105   3.460 -0.4059 -0.3908  0.0233
  843MOL0     C13716  12.812   3.205   3.407  0.5108 -0.7496 -0.8324
  843MOL0     O13717  12.463   3.151   3.272  0.5206  0.2751  0.0186
  843MOL0     C13718  12.390   3.505   3.312  0.2148 -0.0972 -0.8824
  843MOL0     C13719  12.286   3.591   3.280 -0.0248  0.5430 -0.5395
  843MOL0     N13720  11.489   3.829   2.904  0.4668  0.1365  0.4794
  843MOL0     N13721  11.393   3.919   2.896 -0.6716 -0.2035 -0.3837
  843MOL0     C13722  10.350   4.482   3.226  0.4633  0.6110 -0.2210
  843MOL0     C13723  10.210   4.495   3.245 -0.7538 -0.1174 -0.0476
  843MOL0     C13724   9.783   4.418   3.325  0.3812  0.2125 -0.5300
  843MOL0     C13725   9.717   4.368   3.206  0.0717 -0.3446  0.4272
  843MOL0     C13726   9.573   4.363   3.191  0.7442 -0.5173  0.5524
  843MOL0     C13727   9.497   4.425   3.288  0.0878  1.1129 -0.1500
  843MOL0     O13728   9.365   4.427   3.282 -0.1921 -0.3256  0.2156
  843MOL0     C13729   9.292   4.540   3.344  0.5613 -0.0219 -0.6420
  843MOL0     C13730   9.181   4.578   3.258  0.3590 -0.0911  0.5690
  843MOL0     C13731   9.111   4.697   3.328 -0.4722 -0.0697  0.3858
  843MOL0     C13732   8.982   4.747   3.247 -0.1272 -0.2525 -0.9591
  843MOL0     C13733   9.028   4.825   3.124  0.1154  1.0134  0.4870
  843MOL0     C13734   9.067   4.874   3.025  0.0512  0.3607 -0.0942
  843MOL0     C13735   9.561   4.467   3.406 -0.8793 -0.2608 -0.5613
  843MOL0     C13736   9.699   4.470   3.433 -0.1762  0.3872  0.2056
  843MOL0     C13737   9.756   4.539   3.560 -0.3813 -0.4702 -0.6854
  843MOL0     H13738  10.112   4.232   3.072  0.3154  0.4175 -0.6296
  843MOL0     H13739  10.369   4.187   3.069  2.6258  2.7612 -1.7790
  843MOL0     H13740  10.605   4.518   3.263 -2.1499  0.2117 -0.0152
  843MOL0     H13741  10.605   4.351   3.344  0.4774  1.2096  1.3410
  843MOL0     H13742  10.818   4.305   3.262 -0.0662  0.0515  0.1430
  843MOL0     H13743  10.838   4.474   3.263 -0.5341  0.3422 -1.3299
  843MOL0     H13744  10.751   4.488   3.028  0.0870 -0.6967 -2.5809
  843MOL0     H13745  10.756   4.314   3.017 -1.5909  1.8412 -0.4109
  843MOL0     H13746  10.951   4.417   2.918 -1.7910 -1.2853 -0.2179
  843MOL0     H13747  10.993   4.493   3.075 -1.9496  2.2992 -2.2979
  843MOL0     H13748  11.017   4.268   3.174  1.7131  0.6544 -0.1182
  843MOL0     H13749  10.965   4.195   3.015 -0.6203  0.4510 -0.0476
  843MOL0     H13750  11.150   4.311   2.897  0.0146  2.7423  0.8641
  843MOL0     H13751  11.214   4.368   3.052 -3.1469  1.4047  2.2738
  843MOL0     H13752  11.167   4.081   2.979  0.8771  0.1733 -2.3667
  843MOL0     H13753  11.245   4.139   3.131 -2.1762 -0.2211 -0.2406
  843MOL0     H13754  11.353   4.190   2.840  0.7729 -1.1480 -0.4902
  843MOL0     H13755  11.429   4.240   2.990  4.2507 -3.1405 -0.5319
  843MOL0     H13756  11.627   4.073   3.060  1.5500 -2.3256  1.8356
  843MOL0     H13757  11.769   3.772   2.918  3.2748 -0.0225  0.6559
  843MOL0     H13758  11.809   3.907   3.014 -1.7332  2.0579 -1.0289
  843MOL0     H13759  11.654   3.789   3.194  0.8114  2.1617  0.4946
  843MOL0     H13760  11.677   3.653   3.092  1.0361 -1.4364  3.2533
  843MOL0     H13761  11.832   3.666   3.298  0.7963 -0.3674 -0.0263
  843MOL0     H13762  11.895   3.811   3.239  0.0951  0.5510 -2.0094
  843MOL0     H13763  11.937   3.612   3.038 -1.0588 -3.2784  0.9613
  843MOL0     H13764  11.922   3.527   3.193 -1.3060 -0.1360 -0.3583
  843MOL0     H13765  12.067   3.386   3.132  1.6118 -0.5299 -1.6915
  843MOL0     H13766  12.240   3.215   3.205 -0.1165 -0.4366  0.1599
  843MOL0     H13767  12.518   3.085   3.538  0.3983  0.3135  1.9045
  843MOL0     H13768  12.688   2.926   3.631 -2.6183 -0.5879 -1.7671
  843MOL0     H13769  12.940   2.877   3.776  0.1601 -1.1219  1.2256
  843MOL0     H13770  12.839   2.768   3.679  1.0381 -0.8011  1.9474
  843MOL0     H13771  13.014   2.640   3.743  0.3743  1.0606  1.1848
  843MOL0     H13772  13.050   2.674   3.585  1.2598  0.5657  0.1052
  843MOL0     H13773  13.209   2.851   3.642 -2.3816  0.5846  0.0067
  843MOL0     H13774  13.160   2.844   3.801 -3.5667  1.1463 -2.0202
  843MOL0     H13775  13.294   2.616   3.655 -2.3760  0.0620  0.3217
  843MOL0     H13776  13.230   2.602   3.822 -1.6509 -0.3649 -0.7878
  843MOL0     H13777  13.452   2.786   3.729  1.7005  1.1314  1.6358
  843MOL0     H13778  13.476   2.612   3.787 -0.0410  0.2078  0.0110
  843MOL0     H13779  13.378   2.871   3.937  2.5388  0.5562 -0.3330
  843MOL0     H13780  13.370   2.713   4.014  1.0607  0.7887  2.1829
  843MOL0     H13781  13.607   2.693   4.007  1.6584  0.0512  2.0092
  843MOL0     H13782  13.555   2.846   4.077 -0.4809 -0.9857  1.3688
  843MOL0     H13783  13.581   2.971   3.876 -0.3284  0.0261  1.2632
  843MOL0     H13784  13.729   2.915   3.969 -0.2333 -1.6363 -0.7228
  843MOL0     H13785  13.003   3.098   3.433  0.4090 -1.6037  3.1233
  843MOL0     H13786  12.860   3.274   3.339 -0.2792  0.5282 -0.1453
  843MOL0     H13787  12.464   3.546   3.380 -1.0132 -1.0423  1.1438
  843MOL0     H13788  12.298   3.688   3.327  1.2113  0.2995 -0.3055
  843MOL0     H13789  10.406   4.564   3.271 -0.1129  2.6219 -2.9184
  843MOL0     H13790  10.181   4.587   3.294 -0.7076 -0.4827  0.6711
  843MOL0     H13791   9.772   4.331   3.120 -1.4441 -1.0777 -0.2731
  843MOL0     H13792   9.520   4.341   3.099  0.5541  0.4624  0.4159
  843MOL0     H13793   9.359   4.626   3.353 -1.3198  1.6580 -1.8465
  843MOL0     H13794   9.251   4.519   3.443  3.3596  0.4990  0.7462
  843MOL0     H13795   9.110   4.495   3.256  2.2502 -1.8106  1.4063
  843MOL0     H13796   9.207   4.599   3.154 -2.6755 -1.8485 -0.6767
  843MOL0     H13797   9.178   4.780   3.354 -1.3861  0.8482 -0.1093
  843MOL0     H13798   9.081   4.653   3.423  3.5274 -2.5426  0.7143
  843MOL0     H13799   8.930   4.656   3.215 -4.0349  0.7793  1.8584
  843MOL0     H13800   8.917   4.801   3.316 -1.5749 -0.7854 -1.8660
  843MOL0     H13801   9.099   4.914   2.930 -0.8709  1.4816  0.0468
  843MOL0     H13802   9.498   4.511   3.483  0.1955  0.8041 -0.2679
  843MOL0     H13803   9.845   4.599   3.539 -0.1788 -1.3116 -2.4841
  843MOL0     H13804   9.678   4.599   3.606 -0.2340  0.2774 -1.3804
  843MOL0     H13805   9.789   4.469   3.637  2.1772  2.5146  1.1575
  844MOL0     O13806   1.167   2.076   4.570  0.0027 -0.4277 -0.0769
  844MOL0     C13807   1.120   1.975   4.627 -0.7651 -0.2452  0.5556
  844MOL0     O13808   1.187   1.852   4.642  0.7537  0.4943  0.3489
  844MOL0     C13809   1.328   1.853   4.639  0.2203 -0.0115  0.0379
  844MOL0     C13810   1.400   1.927   4.728 -0.4873 -0.5581  0.4758
  844MOL0     C13811   1.541   1.939   4.717 -0.1986 -0.5985 -0.3898
  844MOL0     C13812   1.615   1.867   4.625  0.6664 -0.5127  0.4041
  844MOL0     O13813   1.751   1.882   4.615 -0.8531 -0.2402  0.0773
  844MOL0     C13814   1.835   1.806   4.527 -0.0314  0.3047 -0.4107
  844MOL0     C13815   1.856   1.674   4.600  0.0841 -0.6140  0.2215
  844MOL0     C13816   1.964   1.591   4.533 -0.2471  0.1021 -0.2863
  844MOL0     C13817   2.099   1.631   4.608 -0.1487  0.2578  0.9676
  844MOL0     C13818   2.218   1.557   4.560 -0.1795  0.2081  0.1292
  844MOL0     C13819   2.339   1.600   4.636 -0.3785  0.4286 -0.5841
  844MOL0     C13820   2.465   1.521   4.577 -0.3266  1.3459  0.6724
  844MOL0     C13821   2.584   1.561   4.654 -0.2874 -0.4813  0.2342
  844MOL0     N13822   2.711   1.514   4.593  0.8885 -0.1636  0.3698
  844MOL0     C13823   2.765   1.536   4.461 -0.2758 -0.4302 -0.0951
  844MOL0     C13824   2.887   1.480   4.465  0.5633 -0.3119 -0.4439
  844MOL0     C13825   2.989   1.496   4.363  0.5473  0.2899  0.3989
  844MOL0     C13826   2.994   1.376   4.267 -0.2196  0.0480 -0.7397
  844MOL0     C13827   3.104   1.283   4.298  0.1426 -0.3168 -0.2994
  844MOL0     C13828   3.096   1.159   4.211  0.7144 -0.8499  0.2283
  844MOL0     O13829   3.219   1.087   4.231 -0.2193  0.1558  0.5316
  844MOL0     C13830   3.314   1.099   4.134 -0.6041 -0.2181 -0.0960
  844MOL0     C13831   3.399   0.990   4.106  1.0898  0.4018 -0.0166
  844MOL0     C13832   3.495   1.006   4.008  0.0709 -0.1095  0.4956
  844MOL0     C13833   3.515   1.133   3.940 -1.1906 -0.3435  1.0957
  844MOL0     C13834   3.615   1.161   3.830  0.5500  0.2451  0.6258
  844MOL0     O13835   3.623   1.292   3.789 -0.0244 -0.7085  0.3073
  844MOL0     C13836   3.729   1.316   3.698 -0.7546 -0.0524 -0.2624
  844MOL0     C13837   3.856   1.315   3.753 -0.4405 -0.1897  0.2728
  844MOL0     C13838   3.971   1.340   3.674  0.0041 -1.0994 -0.2376
  844MOL0     C13839   3.955   1.340   3.539 -0.2142 -0.4942  0.2748
  844MOL0     O13840   4.064   1.357   3.453  0.3633  0.0210 -1.1099
  844MOL0     C13841   4.093   1.236   3.377  0.1125  0.1851 -0.0490
  844MOL0     C13842   4.142   1.277   3.240  0.0340 -1.0793  0.4104
  844MOL0     C13843   4.031   1.346   3.154  1.1260  0.2835 -0.7813
  844MOL0     C13844   3.948   1.242   3.082 -0.1939 -0.2220  0.1744
  844MOL0     C13845   3.840   1.295   2.987  0.0045  0.2768 -0.8905
  844MOL0     C13846   3.726   1.368   3.060 -0.1744  0.2931 -0.1595
  844MOL0     C13847   3.605   1.304   2.991  1.2123  0.8881 -0.7766
  844MOL0     C13848   3.475   1.374   3.037  0.6945  0.5921  0.8831
  844MOL0    Cl13849   3.460   1.552   2.973  0.2452 -0.0190  0.1951
  844MOL0     C13850   3.824   1.339   3.481  0.8968 -0.5183 -0.1906
  844MOL0     C13851   3.711   1.337   3.561 -0.7121 -0.0976  0.5722
  844MOL0     O13852   3.679   1.061   3.784  0.1408  0.4525 -0.2690
  844MOL0     C13853   3.432   1.233   3.977 -0.6736 -0.2528  0.5330
  844MOL0     C13854   3.338   1.225   4.070  0.5175 -0.1671  0.8631
  844MOL0     N13855   2.903   1.419   4.591  0.5444 -0.5965 -0.4388
  844MOL0     N13856   2.799   1.439   4.659 -0.4121 -0.1944 -0.0605
  844MOL0     C13857   1.543   1.789   4.535 -0.3813  1.4783 -0.7584
  844MOL0     C13858   1.401   1.778   4.547 -0.5560  0.7616 -0.4687
  844MOL0     C13859   0.972   1.971   4.650 -0.5255  0.3795 -0.0038
  844MOL0     C13860   0.889   2.055   4.573 -0.0190  0.9425  0.1117
  844MOL0     C13861   0.751   2.056   4.574 -0.3288  0.1431 -0.7965
  844MOL0     C13862   0.686   1.970   4.669 -0.5563  0.2273 -0.1253
  844MOL0     O13863   0.549   1.971   4.695  0.2561 -0.2074 -0.5673
  844MOL0     C13864   0.468   2.053   4.607 -0.3004  0.5102 -0.0900
  844MOL0     C13865   0.322   2.038   4.648 -0.6069  0.4344 -0.0106
  844MOL0     C13866   0.301   2.101   4.794 -0.2608  0.6011  0.3903
  844MOL0     C13867   0.165   2.165   4.809 -0.2981  0.2245  0.1557
  844MOL0     C13868   0.070   2.053   4.803  0.3747  0.5523 -0.3722
  844MOL0     C13869  -0.016   1.968   4.817 -0.2156  0.1359  0.0764
  844MOL0     C13870   0.765   1.887   4.757  0.2659  0.9732  0.0269
  844MOL0     C13871   0.905   1.882   4.743 -0.0246 -0.8017  0.5501
  844MOL0     C13872   0.976   1.792   4.837 -0.0670  0.1306 -0.4171
  844MOL0     H13873   1.353   1.978   4.812 -0.1208 -0.0436  0.3762
  844MOL0     H13874   1.592   2.005   4.787 -0.7381 -0.2692 -0.3042
  844MOL0     H13875   1.784   1.787   4.432  3.0337  1.4098 -2.4339
  844MOL0     H13876   1.925   1.854   4.489  0.4809 -1.3639 -1.4431
  844MOL0     H13877   1.763   1.618   4.589 -0.8814  1.0996 -1.0384
  844MOL0     H13878   1.880   1.702   4.703 -0.0566 -1.0815  0.3848
  844MOL0     H13879   1.975   1.601   4.425  3.3190  2.8747  0.1665
  844MOL0     H13880   1.934   1.488   4.556 -0.4077  0.3936  0.8780
  844MOL0     H13881   2.107   1.738   4.587  0.4533 -0.0320 -0.3265
  844MOL0     H13882   2.085   1.627   4.717  0.6212 -2.0576  1.0370
  844MOL0     H13883   2.196   1.451   4.576 -1.4075  0.3156 -0.7391
  844MOL0     H13884   2.236   1.580   4.454 -0.5663 -0.0349  0.0077
  844MOL0     H13885   2.354   1.703   4.603 -0.2153  0.5023 -0.2772
  844MOL0     H13886   2.317   1.582   4.741 -3.0899 -3.2542 -1.5707
  844MOL0     H13887   2.478   1.547   4.471 -0.0080 -1.5937 -0.0992
  844MOL0     H13888   2.454   1.412   4.583 -2.5404  1.2818 -2.0759
  844MOL0     H13889   2.583   1.670   4.662 -1.6547 -0.4712  0.2382
  844MOL0     H13890   2.585   1.504   4.748  1.2661 -1.5327 -0.3784
  844MOL0     H13891   2.707   1.588   4.386  1.2025 -1.5163 -2.0993
  844MOL0     H13892   2.960   1.582   4.301 -0.9825  0.8669  1.8311
  844MOL0     H13893   3.086   1.528   4.402  0.9355  0.3678 -0.5985
  844MOL0     H13894   2.900   1.321   4.278 -0.1761  0.3828  2.2232
  844MOL0     H13895   3.009   1.397   4.161  0.6904 -0.0953 -0.6484
  844MOL0     H13896   3.090   1.243   4.399  0.7555 -0.5079 -0.2817
  844MOL0     H13897   3.200   1.336   4.302 -1.5285  2.8866  0.3938
  844MOL0     H13898   3.073   1.185   4.108  0.5771  1.7904  0.8490
  844MOL0     H13899   3.016   1.093   4.247 -1.7315  1.1975 -1.1437
  844MOL0     H13900   3.386   0.894   4.155  2.6985 -0.4392 -1.1868
  844MOL0     H13901   3.567   0.927   3.988  0.8140  0.5046  0.7036
  844MOL0     H13902   3.862   1.300   3.860  3.2973 -1.2253  0.0851
  844MOL0     H13903   4.064   1.359   3.727  0.4671 -0.0150 -1.3931
  844MOL0     H13904   4.173   1.177   3.422 -0.2225 -1.9230 -2.0416
  844MOL0     H13905   4.007   1.170   3.369 -1.8087  2.6109 -0.8115
  844MOL0     H13906   4.217   1.356   3.254  0.1477 -1.3319  1.2916
  844MOL0     H13907   4.182   1.192   3.183 -0.2043  0.3440 -2.0295
  844MOL0     H13908   3.969   1.422   3.202  2.0229  0.1022  0.7705
  844MOL0     H13909   4.084   1.405   3.079  1.6244  0.4889 -0.2831
  844MOL0     H13910   3.901   1.186   3.163  1.7355  0.2961  1.7210
  844MOL0     H13911   4.006   1.171   3.021  0.3111 -1.4589  2.0088
  844MOL0     H13912   3.807   1.214   2.921 -2.4268 -1.5098  2.2631
  844MOL0     H13913   3.888   1.366   2.919 -2.3004  0.6924 -2.1973
  844MOL0     H13914   3.723   1.355   3.168  0.2043  1.7079  0.0468
  844MOL0     H13915   3.726   1.475   3.036 -0.9925  0.6467  1.2708
  844MOL0     H13916   3.599   1.197   3.014 -2.0128  0.9926 -0.6300
  844MOL0     H13917   3.612   1.316   2.882  0.5790  5.2309 -0.5325
  844MOL0     H13918   3.390   1.338   2.977  0.0855  4.1278 -0.6402
  844MOL0     H13919   3.453   1.363   3.143  1.5106 -0.1097  0.9818
  844MOL0     H13920   3.816   1.345   3.373  1.7694  1.2594 -0.1981
  844MOL0     H13921   3.609   1.342   3.523 -1.0910  1.9497  1.7510
  844MOL0     H13922   3.443   1.329   3.927 -0.9285 -0.5147 -0.0450
  844MOL0     H13923   3.267   1.306   4.086  2.1459  1.4659  0.2278
  844MOL0     H13924   1.605   1.721   4.478  1.5398  0.8364  1.8831
  844MOL0     H13925   1.358   1.703   4.482  0.0500  2.2604 -2.6983
  844MOL0     H13926   0.943   2.107   4.494  1.0611 -0.0138  0.1861
  844MOL0     H13927   0.699   2.127   4.510  0.8970  1.5657 -0.2741
  844MOL0     H13928   0.487   2.027   4.502 -0.3429 -1.8347  0.4251
  844MOL0     H13929   0.487   2.159   4.623 -2.2032  0.5881  2.2379
  844MOL0     H13930   0.289   1.934   4.655  0.2272  0.1552 -0.0833
  844MOL0     H13931   0.257   2.097   4.582 -1.4095  1.7377  1.8427
  844MOL0     H13932   0.380   2.173   4.818 -0.3257  0.4897  0.9442
  844MOL0     H13933   0.317   2.030   4.876  2.7036 -1.0296 -1.4215
  844MOL0     H13934   0.159   2.219   4.904  1.9173  0.4447  0.2162
  844MOL0     H13935   0.159   2.233   4.724 -4.6663  1.1261  0.9804
  844MOL0     H13936  -0.100   1.901   4.818  0.2755 -0.6631  3.6049
  844MOL0     H13937   0.725   1.821   4.832  1.3174  0.9091  0.5498
  844MOL0     H13938   1.039   1.729   4.773 -0.3065 -0.2865 -0.2493
  844MOL0     H13939   1.036   1.855   4.903  3.1450 -1.1042 -1.9502
  844MOL0     H13940   0.912   1.729   4.900 -0.5417 -0.0035 -1.0207
  845MOL0     O13941   1.144   4.577   0.322  0.3298  0.2348 -1.1334
  845MOL0     C13942   1.098   4.584   0.212 -0.6327  0.1657  0.0308
  845MOL0     O13943   1.170   4.641   0.111 -0.2921  0.3292 -0.2373
  845MOL0     C13944   1.278   4.721   0.138  1.1199 -0.6885  0.3074
  845MOL0     C13945   1.279   4.862   0.114 -0.2354 -0.5635  0.0854
  845MOL0     C13946   1.391   4.939   0.135 -0.9405  0.7829  0.0854
  845MOL0     C13947   1.513   4.881   0.170 -0.3180 -0.0509  0.5071
  845MOL0     O13948   1.612   4.977   0.181 -0.5881 -0.3847  0.9022
  845MOL0     C13949   1.747   4.935   0.161  0.7788 -0.4564 -0.6815
  845MOL0     C13950   1.825   5.066   0.163  0.4445 -0.2688  0.3254
  845MOL0     C13951   1.962   5.062   0.090  0.0843  0.2102 -0.5291
  845MOL0     C13952   2.044   5.174   0.144 -0.1823  0.8485 -0.8185
  845MOL0     C13953   2.187   5.173   0.087  0.3719  0.0779  0.4631
  845MOL0     C13954   2.274   5.287   0.144  0.1944 -0.3201 -0.0668
  845MOL0     C13955   2.344   5.253   0.270 -0.4676  0.0180 -0.4241
  845MOL0     C13956   2.476   5.170   0.251  1.5340  0.1333 -0.1987
  845MOL0     N13957   2.535   5.124   0.380  0.8594 -0.1623 -0.0515
  845MOL0     C13958   2.619   5.014   0.389  0.8986  0.2418  0.3658
  845MOL0     C13959   2.671   5.018   0.516  0.3810 -0.3987  0.0497
  845MOL0     C13960   2.755   4.918   0.573 -0.7776  0.0146  0.2161
  845MOL0     C13961   2.908   4.967   0.589 -0.0948  0.5332  0.6466
  845MOL0     C13962   3.000   4.848   0.625 -0.4089 -0.4798  0.3765
  845MOL0     C13963   3.137   4.885   0.678  0.2036 -0.1184 -1.0719
  845MOL0     O13964   3.197   4.760   0.703 -0.7584 -0.4739  0.0684
  845MOL0     C13965   3.334   4.762   0.740  0.5415  0.2095 -0.3717
  845MOL0     C13966   3.414   4.876   0.759  0.2924 -0.1752  0.3069
  845MOL0     C13967   3.550   4.860   0.781  0.2193 -0.4393  0.4003
  845MOL0     C13968   3.616   4.743   0.790  0.3996  0.0109 -0.7361
  845MOL0     C13969   3.763   4.747   0.811  0.4487 -0.5667 -0.3326
  845MOL0     O13970   3.836   4.855   0.769 -0.2535 -0.0081  0.2985
  845MOL0     C13971   3.972   4.870   0.781  0.0562 -0.3793  0.1816
  845MOL0     C13972   4.017   4.993   0.738  0.3190 -0.6533  0.3202
  845MOL0     C13973   4.148   5.026   0.740 -0.9776 -0.1886 -0.0897
  845MOL0     C13974   4.236   4.941   0.791 -0.4892  0.2993  0.7554
  845MOL0     O13975   4.371   4.973   0.784 -0.1446 -0.5834 -0.1789
  845MOL0     C13976   4.422   5.082   0.710  1.0116  0.1502 -0.5776
  845MOL0     C13977   4.567   5.111   0.740 -0.0231  0.1477  0.7327
  845MOL0     C13978   4.638   5.187   0.620  0.3569  1.3053  0.3386
  845MOL0     C13979   4.779   5.230   0.654 -0.2387  0.6258 -0.6315
  845MOL0     C13980   4.816   5.363   0.609  0.1850  0.1432  0.3504
  845MOL0     C13981   4.930   5.427   0.687  0.0886  0.6219 -0.2089
  845MOL0     C13982   4.943   5.571   0.639 -0.9161 -0.5321 -0.3350
  845MOL0     C13983   4.819   5.654   0.673 -0.5650 -0.2821 -0.9317
  845MOL0    Cl13984   4.870   5.826   0.709  0.6168 -0.0981 -0.0557
  845MOL0     C13985   4.198   4.822   0.847  1.0645  0.3412  0.1203
  845MOL0     C13986   4.057   4.784   0.848 -0.2287 -0.4132 -0.4236
  845MOL0     O13987   3.809   4.643   0.861  0.5608  0.1753 -0.1166
  845MOL0     C13988   3.535   4.627   0.781 -0.6765  0.1256 -0.6868
  845MOL0     C13989   3.401   4.642   0.760 -0.0382  0.1677  0.1641
  845MOL0     N13990   2.596   5.112   0.589 -0.1835  0.1110  0.0596
  845MOL0     N13991   2.530   5.192   0.505 -0.0349  0.0423  1.3741
  845MOL0     C13992   1.513   4.742   0.197 -0.1907 -0.4216  0.0529
  845MOL0     C13993   1.397   4.659   0.179 -0.2188 -0.1258  0.2360
  845MOL0     C13994   0.963   4.519   0.175 -0.2503 -0.0396  0.3631
  845MOL0     C13995   0.910   4.544   0.055  0.2200 -0.0785 -0.5645
  845MOL0     C13996   0.791   4.486   0.015 -0.1185 -0.4213  0.2930
  845MOL0     C13997   0.705   4.420   0.099  0.0248 -0.2837 -1.3689
  845MOL0     O13998   0.584   4.376   0.065  0.3200 -0.0072 -0.2296
  845MOL0     C13999   0.516   4.276   0.137  0.4678  0.4756  0.3726
  845MOL0     C14000   0.397   4.218   0.059  0.2981 -0.2118 -0.5841
  845MOL0     C14001   0.289   4.324   0.036 -0.3234 -0.6320 -0.3244
  845MOL0     C14002   0.159   4.276  -0.028  0.6056  0.1540 -0.1561
  845MOL0     C14003   0.034   4.340   0.014  0.7473  0.4677  0.3614
  845MOL0     C14004  -0.083   4.392   0.033  0.0293  0.4287 -0.6446
  845MOL0     C14005   0.760   4.389   0.223  0.3108  0.6840 -0.4381
  845MOL0     C14006   0.884   4.444   0.264  0.0740  0.3860 -0.4573
  845MOL0     C14007   0.914   4.437   0.415 -0.0848 -0.2760  0.3052
  845MOL0     H14008   1.189   4.907   0.075  0.3514 -0.0686 -0.7301
  845MOL0     H14009   1.379   5.043   0.106 -1.4740  0.5643 -0.5036
  845MOL0     H14010   1.789   4.865   0.234 -1.6688 -0.4895  0.7856
  845MOL0     H14011   1.766   4.897   0.061  3.5619  1.5184 -1.0256
  845MOL0     H14012   1.837   5.084   0.271 -2.7056  0.6801  0.6314
  845MOL0     H14013   1.768   5.148   0.118 -0.2498 -0.4849  0.7914
  845MOL0     H14014   1.943   5.059  -0.018  0.3996 -0.2134 -0.5756
  845MOL0     H14015   2.006   4.966   0.119 -0.7384  0.5364  2.0013
  845MOL0     H14016   1.996   5.268   0.115 -0.6608  0.7699 -0.2988
  845MOL0     H14017   2.039   5.170   0.253 -2.0380 -3.7447 -0.8429
  845MOL0     H14018   2.245   5.080   0.089  1.4922  0.7005 -1.2567
  845MOL0     H14019   2.172   5.188  -0.020 -1.2304 -1.1101  0.4785
  845MOL0     H14020   2.337   5.331   0.067  0.9073 -1.6740 -0.2732
  845MOL0     H14021   2.201   5.365   0.168 -2.0069 -2.5292  0.8218
  845MOL0     H14022   2.271   5.194   0.327  2.2703 -2.0762  1.1807
  845MOL0     H14023   2.363   5.346   0.325 -0.8915 -0.4809  0.6044
  845MOL0     H14024   2.438   5.076   0.209  4.6041 -0.2250 -2.4774
  845MOL0     H14025   2.548   5.207   0.179  0.6903 -1.6094 -2.0158
  845MOL0     H14026   2.632   4.943   0.308  0.7178  1.5442 -0.8349
  845MOL0     H14027   2.716   4.897   0.673 -2.9791  0.5882 -0.4825
  845MOL0     H14028   2.771   4.825   0.518  0.4471 -0.5005  1.3883
  845MOL0     H14029   2.945   4.997   0.491 -2.7689 -1.3927 -1.0773
  845MOL0     H14030   2.914   5.045   0.666 -0.6306  1.4479 -0.2180
  845MOL0     H14031   3.016   4.794   0.530  0.2136  0.3228  0.0215
  845MOL0     H14032   2.953   4.774   0.690 -1.3384 -3.1404 -2.9932
  845MOL0     H14033   3.120   4.957   0.758 -0.6557  0.1586 -1.4921
  845MOL0     H14034   3.188   4.943   0.600  0.3854  1.4525  0.1634
  845MOL0     H14035   3.379   4.977   0.740  0.6318 -0.1415 -0.1758
  845MOL0     H14036   3.598   4.957   0.772  0.0828 -0.0940  2.7726
  845MOL0     H14037   3.948   5.067   0.699 -0.1301 -1.5914 -0.7155
  845MOL0     H14038   4.178   5.106   0.673  1.2729 -1.9633 -1.3497
  845MOL0     H14039   4.415   5.070   0.601  4.2443  1.1317 -0.9958
  845MOL0     H14040   4.365   5.165   0.753 -3.5749 -3.3210  0.8833
  845MOL0     H14041   4.582   5.170   0.831 -2.0800  1.6006  0.2028
  845MOL0     H14042   4.619   5.017   0.762 -1.9436 -1.0518  0.3071
  845MOL0     H14043   4.640   5.129   0.528 -2.5788 -2.1437  2.1785
  845MOL0     H14044   4.577   5.274   0.593 -1.7552 -0.1524  0.2201
  845MOL0     H14045   4.857   5.166   0.613  0.0769  1.6508 -1.6714
  845MOL0     H14046   4.790   5.217   0.762  0.3766  1.7652 -0.5486
  845MOL0     H14047   4.729   5.427   0.626  0.8740  0.5775  2.6895
  845MOL0     H14048   4.846   5.367   0.504 -1.0450  2.2013  0.0394
  845MOL0     H14049   4.905   5.425   0.793 -3.8716  0.2297 -1.0207
  845MOL0     H14050   5.021   5.369   0.665 -1.9344 -1.1563 -5.2406
  845MOL0     H14051   4.965   5.577   0.532  0.2827  0.8592 -0.0479
  845MOL0     H14052   5.022   5.621   0.696 -2.0911  0.6911  0.2886
  845MOL0     H14053   4.740   5.633   0.600  0.9535 -1.3903 -2.3213
  845MOL0     H14054   4.765   5.620   0.762 -0.8264  0.1603 -0.9156
  845MOL0     H14055   4.263   4.752   0.897 -0.3162 -2.3526 -1.6481
  845MOL0     H14056   4.027   4.696   0.903 -0.0434  0.5422  1.2967
  845MOL0     H14057   3.578   4.530   0.800 -0.4149  0.2190 -0.7993
  845MOL0     H14058   3.347   4.548   0.752  1.3888 -0.6464 -0.2366
  845MOL0     H14059   1.604   4.688   0.222 -0.0841 -1.0623 -1.5975
  845MOL0     H14060   1.394   4.553   0.198 -0.7748 -0.0020  0.8458
  845MOL0     H14061   0.962   4.604  -0.018  2.1577  1.4617  1.9257
  845MOL0     H14062   0.754   4.502  -0.086 -0.6486 -1.9464  0.2067
  845MOL0     H14063   0.475   4.310   0.233  0.1189 -0.5203  0.5778
  845MOL0     H14064   0.584   4.196   0.169  1.5177 -0.2908 -3.3286
  845MOL0     H14065   0.357   4.133   0.115  0.0881  0.6400  0.5998
  845MOL0     H14066   0.426   4.176  -0.038 -0.2745  0.3771 -1.0214
  845MOL0     H14067   0.331   4.407  -0.021  1.3640  0.4078  2.2456
  845MOL0     H14068   0.271   4.363   0.137 -0.8796 -1.8223  0.0638
  845MOL0     H14069   0.173   4.267  -0.136 -1.3471  0.6286 -0.5038
  845MOL0     H14070   0.144   4.173   0.005 -2.9409  0.0115 -1.7075
  845MOL0     H14071  -0.183   4.431   0.029 -0.1590 -0.1454 -3.5895
  845MOL0     H14072   0.702   4.331   0.295  1.3936 -0.7825 -0.7007
  845MOL0     H14073   0.840   4.377   0.468 -1.0287 -0.5073 -1.2250
  845MOL0     H14074   1.017   4.409   0.443  0.8061  2.7390  0.3636
  845MOL0     H14075   0.897   4.540   0.447  0.1287  0.5272 -1.9865
  846MOL0     O14076   0.572   8.483   7.311 -0.0480  0.6236 -0.4288
  846MOL0     C14077   0.631   8.586   7.274  0.0898  0.3678  0.9468
  846MOL0     O14078   0.754   8.579   7.219 -0.2197  0.0369 -0.3390
  846MOL0     C14079   0.846   8.488   7.265  0.4898 -0.0447 -0.3988
  846MOL0     C14080   0.888   8.394   7.173 -0.3953 -0.1915 -0.1468
  846MOL0     C14081   0.992   8.303   7.198 -0.1419 -0.8952 -0.6221
  846MOL0     C14082   1.061   8.320   7.321 -0.3680  0.6055 -0.1555
  846MOL0     O14083   1.170   8.246   7.336 -0.1783  0.1921 -1.0400
  846MOL0     C14084   1.162   8.169   7.457  0.0218 -0.5802 -0.0967
  846MOL0     C14085   1.292   8.094   7.478  0.3682  0.1341 -0.1597
  846MOL0     C14086   1.321   7.982   7.380  0.8068  0.0134  0.6879
  846MOL0     C14087   1.473   7.956   7.370  0.0606 -0.7690 -0.4114
  846MOL0     C14088   1.526   7.871   7.483  0.3784 -0.3093  0.4978
  846MOL0     C14089   1.675   7.852   7.451 -0.1059  0.6269  0.1343
  846MOL0     C14090   1.744   7.740   7.542  0.0928  0.0141 -0.2261
  846MOL0     C14091   1.677   7.601   7.524  1.1537  0.4455 -0.9706
  846MOL0     N14092   1.762   7.505   7.599  0.1078 -0.0775  0.7241
  846MOL0     C14093   1.860   7.427   7.544  0.8550  0.4110  0.7521
  846MOL0     C14094   1.874   7.317   7.617 -1.0142  0.3194 -0.0348
  846MOL0     C14095   1.953   7.190   7.596  1.0647 -0.6390  0.4824
  846MOL0     C14096   2.110   7.207   7.595  0.7942 -0.5199  0.2418
  846MOL0     C14097   2.176   7.071   7.589  0.7763  1.1397  0.3455
  846MOL0     C14098   2.325   7.094   7.574 -0.5279 -0.0762  0.1857
  846MOL0     O14099   2.379   6.965   7.545 -0.9172  0.1007 -0.5646
  846MOL0     C14100   2.521   6.946   7.572  0.2354 -0.2292 -0.4803
  846MOL0     C14101   2.615   7.048   7.571 -0.5263 -0.7021 -0.2062
  846MOL0     C14102   2.750   7.022   7.579  0.0139  0.3925 -0.2466
  846MOL0     C14103   2.797   6.882   7.585  0.1521 -0.4109 -0.6508
  846MOL0     C14104   2.935   6.840   7.605 -0.3001 -0.4450 -0.2993
  846MOL0     O14105   2.956   6.699   7.604 -0.8550 -0.3204  0.2897
  846MOL0     C14106   3.086   6.647   7.624 -0.2953 -0.6218  0.0066
  846MOL0     C14107   3.167   6.617   7.518  0.4451  0.2511  0.5642
  846MOL0     C14108   3.299   6.561   7.530 -0.1436  0.3898 -0.6579
  846MOL0     C14109   3.345   6.544   7.663  0.0961 -0.9749 -1.0388
  846MOL0     O14110   3.469   6.507   7.700 -0.0977 -0.1985 -0.2631
  846MOL0     C14111   3.587   6.580   7.644  0.1816  0.0232  0.1412
  846MOL0     C14112   3.698   6.596   7.741  0.1215  0.2247  0.0113
  846MOL0     C14113   3.737   6.741   7.758 -0.0016 -0.5605 -0.6581
  846MOL0     C14114   3.864   6.759   7.842  0.3157 -0.1660  0.1018
  846MOL0     C14115   3.902   6.902   7.877  0.8294 -0.6678  0.8549
  846MOL0     C14116   4.053   6.926   7.910 -0.4476  0.1875  1.2338
  846MOL0     C14117   4.092   7.070   7.922 -0.5847 -0.2460  0.2379
  846MOL0     C14118   4.118   7.150   7.793  0.1059 -0.2240 -0.3808
  846MOL0    Cl14119   4.167   7.317   7.829  0.8681 -0.1229  0.1788
  846MOL0     C14120   3.262   6.566   7.771  1.0440  0.0773  0.0017
  846MOL0     C14121   3.127   6.616   7.751 -1.2645 -0.7424 -0.3983
  846MOL0     O14122   3.031   6.917   7.618  0.6355 -0.1083  0.2227
  846MOL0     C14123   2.697   6.782   7.569 -0.8319  0.3285 -0.4658
  846MOL0     C14124   2.570   6.814   7.559  0.6337 -0.4689  0.0237
  846MOL0     N14125   1.790   7.323   7.727  0.3347 -0.1767 -0.6908
  846MOL0     N14126   1.719   7.430   7.705 -0.1344  0.6016  0.3489
  846MOL0     C14127   1.012   8.401   7.423 -0.3429 -0.3966 -0.5460
  846MOL0     C14128   0.913   8.489   7.390  1.2603 -1.1475 -0.1998
  846MOL0     C14129   0.557   8.711   7.264 -0.0610 -0.2222 -0.5411
  846MOL0     C14130   0.433   8.714   7.206  0.1711  0.0663 -0.4595
  846MOL0     C14131   0.353   8.829   7.201 -0.8589 -0.0581 -0.6471
  846MOL0     C14132   0.395   8.952   7.247 -0.0750  0.3184 -0.5703
  846MOL0     O14133   0.306   9.056   7.263  0.5423 -0.0085 -0.3872
  846MOL0     C14134   0.359   9.185   7.308  0.0416  0.5906  0.3059
  846MOL0     C14135   0.248   9.275   7.346  0.5050 -0.2006  0.0061
  846MOL0     C14136   0.191   9.328   7.215  0.4460  0.2820 -0.1038
  846MOL0     C14137   0.083   9.439   7.235  0.3510 -0.7669 -0.1293
  846MOL0     C14138   0.116   9.544   7.329 -0.5507 -0.6467  0.7682
  846MOL0     C14139   0.144   9.633   7.406 -0.1063  0.7009  0.1305
  846MOL0     C14140   0.532   8.953   7.295  0.4396  0.1903  0.2705
  846MOL0     C14141   0.612   8.839   7.301 -1.0619 -0.3789 -1.1631
  846MOL0     C14142   0.754   8.871   7.346 -0.7293 -0.2604 -0.5524
  846MOL0     H14143   0.839   8.390   7.077 -4.0195 -0.1819  1.5287
  846MOL0     H14144   1.011   8.230   7.120 -0.9462 -2.2004  0.3510
  846MOL0     H14145   1.155   8.229   7.547 -0.3065 -1.9217  0.7989
  846MOL0     H14146   1.079   8.098   7.446  0.1479 -0.9267  1.0943
  846MOL0     H14147   1.298   8.052   7.578  2.2720 -0.9767 -0.7043
  846MOL0     H14148   1.372   8.166   7.460  0.4757  0.2130  0.5993
  846MOL0     H14149   1.284   8.013   7.281  2.3804 -1.5133 -0.4410
  846MOL0     H14150   1.271   7.894   7.421  0.2872 -0.0679 -0.0954
  846MOL0     H14151   1.490   7.915   7.270  0.6148  3.0271 -2.0381
  846MOL0     H14152   1.528   8.049   7.362  0.8091 -1.2479 -0.9486
  846MOL0     H14153   1.517   7.923   7.579  0.6584 -1.1563  0.9987
  846MOL0     H14154   1.473   7.777   7.499  2.2114 -1.2394  1.4090
  846MOL0     H14155   1.694   7.824   7.347  3.0256  0.4176  0.6509
  846MOL0     H14156   1.730   7.946   7.459  2.7912 -0.6319 -2.7546
  846MOL0     H14157   1.735   7.762   7.649 -0.9092  1.7833 -0.6351
  846MOL0     H14158   1.849   7.729   7.514 -0.9905 -1.6168 -4.3181
  846MOL0     H14159   1.575   7.611   7.562  1.7167  1.3611  0.3561
  846MOL0     H14160   1.670   7.570   7.419 -2.4206 -2.1413 -0.1442
  846MOL0     H14161   1.907   7.452   7.450 -1.1860  1.4224 -0.0747
  846MOL0     H14162   1.935   7.118   7.676  1.6003 -1.7587 -0.3637
  846MOL0     H14163   1.907   7.145   7.507 -0.0178 -0.7033  1.0617
  846MOL0     H14164   2.131   7.270   7.509 -0.2925 -1.6038 -0.8676
  846MOL0     H14165   2.131   7.255   7.691 -1.3534 -0.3553  0.6791
  846MOL0     H14166   2.131   7.004   7.515  0.2303  2.0694 -0.1803
  846MOL0     H14167   2.167   7.011   7.680  3.9184 -0.0009  0.0520
  846MOL0     H14168   2.367   7.135   7.666  0.1839  1.1050 -0.6463
  846MOL0     H14169   2.343   7.159   7.488 -0.8397 -0.4568 -0.1771
  846MOL0     H14170   2.586   7.151   7.554  3.3548  0.1111 -3.7307
  846MOL0     H14171   2.826   7.099   7.574  1.2501 -0.6980  1.1503
  846MOL0     H14172   3.134   6.648   7.419 -1.0197  1.9412  1.5224
  846MOL0     H14173   3.358   6.535   7.442  0.6334 -2.4857  0.5665
  846MOL0     H14174   3.624   6.525   7.556  0.7491  0.1897  0.2729
  846MOL0     H14175   3.556   6.679   7.608  1.5022 -0.0570 -1.3270
  846MOL0     H14176   3.673   6.548   7.837 -0.9205 -0.6213 -0.6572
  846MOL0     H14177   3.780   6.530   7.710  1.7410  1.1195  2.1248
  846MOL0     H14178   3.749   6.799   7.666 -1.2371  1.7515  0.5241
  846MOL0     H14179   3.657   6.785   7.818  0.3586 -1.0563  0.1960
  846MOL0     H14180   3.934   6.705   7.776 -1.0789 -1.7730 -0.1449
  846MOL0     H14181   3.857   6.696   7.931  2.9161 -0.1592  0.3793
  846MOL0     H14182   3.841   6.942   7.959 -0.1741  1.0625 -0.6599
  846MOL0     H14183   3.865   6.964   7.795  0.2977  0.0680  1.6284
  846MOL0     H14184   4.078   6.878   8.005 -0.0530 -2.3569 -0.0632
  846MOL0     H14185   4.109   6.873   7.832 -1.0477  0.7245  0.4269
  846MOL0     H14186   4.175   7.083   7.992  0.3507 -2.8334 -0.2986
  846MOL0     H14187   4.012   7.113   7.984  1.7058  1.0202  2.5355
  846MOL0     H14188   4.201   7.092   7.751 -0.5436 -2.7098  1.5597
  846MOL0     H14189   4.028   7.148   7.732 -2.0087  3.3774  2.1954
  846MOL0     H14190   3.284   6.545   7.875  0.1291 -0.1333  0.1640
  846MOL0     H14191   3.066   6.647   7.835 -2.9498 -0.7294 -1.5606
  846MOL0     H14192   2.715   6.676   7.575  2.5620  0.8080 -0.1750
  846MOL0     H14193   2.487   6.747   7.538  0.9014  0.0128 -2.9251
  846MOL0     H14194   1.065   8.407   7.518 -0.2688  2.5429 -0.6949
  846MOL0     H14195   0.887   8.561   7.467 -1.2692 -1.8630 -0.2746
  846MOL0     H14196   0.402   8.620   7.162 -1.6190  0.1845  0.4610
  846MOL0     H14197   0.253   8.826   7.157 -0.3041 -0.8004 -1.9057
  846MOL0     H14198   0.417   9.226   7.225 -0.4822  0.1142 -0.2997
  846MOL0     H14199   0.416   9.171   7.401  3.0498  0.9802 -1.3655
  846MOL0     H14200   0.297   9.359   7.396  2.6618  0.3351 -2.7387
  846MOL0     H14201   0.176   9.232   7.416  1.8465  0.1892  1.6879
  846MOL0     H14202   0.144   9.245   7.162 -0.4206  0.2685  0.6600
  846MOL0     H14203   0.267   9.375   7.152 -0.8659  3.1539  0.2497
  846MOL0     H14204   0.064   9.484   7.137 -0.7123 -0.3220  0.2639
  846MOL0     H14205  -0.011   9.392   7.264 -1.4346  0.9385 -2.6583
  846MOL0     H14206   0.167   9.709   7.479 -0.9597 -0.4524  1.6597
  846MOL0     H14207   0.559   9.041   7.352  0.1745 -0.7477  1.9210
  846MOL0     H14208   0.817   8.938   7.286  1.6467 -0.7942  1.2150
  846MOL0     H14209   0.749   8.905   7.450  1.4813 -2.8216  0.4901
  846MOL0     H14210   0.806   8.776   7.332 -1.6284 -0.7647 -0.5250
  847MOL0     O14211  11.291   2.132   9.051 -0.5994  0.7640 -0.4175
  847MOL0     C14212  11.205   2.099   9.136  0.4222 -0.1972  0.3771
  847MOL0     O14213  11.223   2.086   9.273 -0.0496  0.4206 -0.3862
  847MOL0     C14214  11.335   2.125   9.342  0.3275  0.5982  0.4670
  847MOL0     C14215  11.466   2.109   9.288  0.4334 -0.3901  0.0806
  847MOL0     C14216  11.574   2.136   9.376 -0.2630 -0.2063 -0.5815
  847MOL0     C14217  11.554   2.211   9.495  0.2618  0.5005 -0.4870
  847MOL0     O14218  11.650   2.245   9.584 -0.0495 -0.3216 -0.1078
  847MOL0     C14219  11.790   2.240   9.549 -0.6357 -0.2256  0.4120
  847MOL0     C14220  11.875   2.312   9.646  0.3271  0.0499 -0.0453
  847MOL0     C14221  12.029   2.291   9.620  0.0840  0.8233 -0.3430
  847MOL0     C14222  12.095   2.193   9.725  0.3107 -1.0657  0.3687
  847MOL0     C14223  12.242   2.212   9.723 -0.1454  0.3087  0.0651
  847MOL0     C14224  12.326   2.107   9.805 -0.2881 -0.6587 -0.4023
  847MOL0     C14225  12.476   2.110   9.783  0.0217  0.6222  0.1668
  847MOL0     C14226  12.536   2.236   9.838 -0.5589 -0.0292 -0.6223
  847MOL0     N14227  12.681   2.205   9.868  0.3181  0.4752 -0.6819
  847MOL0     C14228  12.775   2.196   9.779 -0.2536 -0.6435  0.3062
  847MOL0     C14229  12.885   2.166   9.854  0.6335  0.8026  1.1450
  847MOL0     C14230  13.018   2.128   9.789 -0.2236  0.1958 -0.2342
  847MOL0     C14231  13.101   2.036   9.881 -0.4204  0.4432 -0.4404
  847MOL0     C14232  13.234   1.996   9.813 -0.1279  0.2174  0.5619
  847MOL0     C14233  13.320   1.907   9.909 -0.6966  0.6455  0.1624
  847MOL0     O14234  13.439   1.858   9.842  0.0634 -0.4754  0.3214
  847MOL0     C14235  13.540   1.815   9.922  0.1693  0.4591 -0.1118
  847MOL0     C14236  13.670   1.828   9.882 -0.2912  0.1426 -0.5915
  847MOL0     C14237  13.775   1.772   9.966  0.8506 -0.8238 -0.6621
  847MOL0     C14238  13.739   1.715  10.092  1.1200 -0.8011  0.0794
  847MOL0     C14239  13.848   1.661  10.180 -0.4102  0.0224 -0.0311
  847MOL0     O14240  13.976   1.707  10.163  0.3664  0.0980  0.5484
  847MOL0     C14241  14.081   1.642  10.226  0.1822  0.4076 -0.8184
  847MOL0     C14242  14.105   1.509  10.226  0.4955  0.4007  0.7931
  847MOL0     C14243  14.228   1.463  10.266 -0.0147 -0.9690 -0.2997
  847MOL0     C14244  14.325   1.546  10.325  0.8872 -0.2722  0.0655
  847MOL0     O14245  14.452   1.506  10.362  0.0926 -0.1165  0.0750
  847MOL0     C14246  14.517   1.430  10.257  0.7761 -0.0584 -0.8439
  847MOL0     C14247  14.662   1.398  10.304  0.6962  0.8355 -0.2153
  847MOL0     C14248  14.741   1.527  10.298  1.0326  0.3142 -0.7553
  847MOL0     C14249  14.880   1.513  10.355  0.5843  0.2003 -0.2198
  847MOL0     C14250  14.976   1.434  10.253  0.4284 -0.5190 -0.9851
  847MOL0     C14251  15.119   1.436  10.303  0.4776  0.0161  0.0102
  847MOL0     C14252  15.197   1.316  10.264  0.3739  0.1878  0.3722
  847MOL0     C14253  15.323   1.352  10.175 -0.5094  0.2425  0.1185
  847MOL0    Cl14254  15.386   1.205  10.103 -0.1094 -0.6220  0.2509
  847MOL0     C14255  14.298   1.686  10.321  0.3351 -0.0952  0.0523
  847MOL0     C14256  14.178   1.733  10.281 -0.9620 -0.0337  1.0048
  847MOL0     O14257  13.807   1.568  10.250 -0.4722  0.6297 -0.0389
  847MOL0     C14258  13.606   1.719  10.131 -0.4127  0.1596  0.1673
  847MOL0     C14259  13.507   1.761  10.047 -0.1604  0.3418  0.9434
  847MOL0     N14260  12.852   2.162   9.993 -0.4478  0.3976  1.2348
  847MOL0     N14261  12.723   2.175   9.998  0.1936  0.9374  0.5468
  847MOL0     C14262  11.421   2.238   9.528  0.8916  0.4491 -0.1464
  847MOL0     C14263  11.318   2.186   9.465  0.0618  0.4667  0.1917
  847MOL0     C14264  11.064   2.077   9.089 -0.6786  0.0167 -0.3566
  847MOL0     C14265  10.961   2.069   9.188  0.2580 -0.3528  0.0572
  847MOL0     C14266  10.824   2.049   9.151  0.1966 -0.9732  0.3582
  847MOL0     C14267  10.787   2.037   9.015 -0.2024 -0.3571  0.1178
  847MOL0     O14268  10.652   2.030   8.991 -0.0473  0.4884 -0.2954
  847MOL0     C14269  10.595   2.011   8.855 -0.6411 -0.3255 -0.2433
  847MOL0     C14270  10.443   2.036   8.847 -0.4087  0.0140  0.0940
  847MOL0     C14271  10.365   1.939   8.940 -0.0621 -0.0864  0.5720
  847MOL0     C14272  10.214   1.966   8.958  1.0389 -0.4985  0.3082
  847MOL0     C14273  10.159   1.840   9.010 -0.9664  0.1438 -0.0676
  847MOL0     C14274  10.115   1.733   9.051 -0.1526  0.0535 -0.1342
  847MOL0     C14275  10.895   2.035   8.922 -0.4673  0.1702  0.1983
  847MOL0     C14276  11.027   2.055   8.949 -0.3781 -0.2169 -0.3055
  847MOL0     C14277  11.119   2.056   8.834 -0.0094 -0.0741  0.4593
  847MOL0     H14278  11.482   2.065   9.190 -0.5119  0.9501 -0.7120
  847MOL0     H14279  11.678   2.114   9.353  1.1531  0.9989  3.7638
  847MOL0     H14280  11.824   2.136   9.546 -2.3387 -0.8264 -2.1302
  847MOL0     H14281  11.809   2.285   9.451 -0.6171 -0.4995  0.2884
  847MOL0     H14282  11.845   2.281   9.747  0.2594  1.8190  0.5156
  847MOL0     H14283  11.846   2.417   9.653 -1.6056 -0.4671  0.3913
  847MOL0     H14284  12.077   2.389   9.621  1.1502  0.3217  0.7027
  847MOL0     H14285  12.044   2.253   9.518  0.0295  0.6925 -0.3037
  847MOL0     H14286  12.067   2.226   9.826  1.8405  4.0244 -0.5569
  847MOL0     H14287  12.062   2.092   9.699 -1.7731  0.0029 -1.4972
  847MOL0     H14288  12.281   2.193   9.623  0.4742  2.3727 -0.1156
  847MOL0     H14289  12.273   2.313   9.750  4.7067 -1.5736  2.9518
  847MOL0     H14290  12.303   2.122   9.911 -0.5652  1.5742 -0.7294
  847MOL0     H14291  12.286   2.007   9.784 -1.6933 -0.3727  0.7309
  847MOL0     H14292  12.502   2.103   9.677  1.7689 -0.8206  0.6540
  847MOL0     H14293  12.534   2.032   9.832  0.8735  0.7878 -0.5497
  847MOL0     H14294  12.538   2.324   9.773  0.8412 -1.3837 -2.5233
  847MOL0     H14295  12.488   2.264   9.932  0.2689 -0.8556  0.0651
  847MOL0     H14296  12.757   2.198   9.672  0.8085  0.1543  0.1270
  847MOL0     H14297  13.010   2.065   9.699 -1.8071  0.5098 -0.3546
  847MOL0     H14298  13.066   2.222   9.762 -0.2718  0.7453  1.5423
  847MOL0     H14299  13.132   2.089   9.972 -2.5458  0.3487  0.3792
  847MOL0     H14300  13.042   1.947   9.904 -0.4812  0.7832  0.8013
  847MOL0     H14301  13.286   2.085   9.778  0.5472 -1.1727 -2.2172
  847MOL0     H14302  13.205   1.934   9.728 -2.2667  0.4433  1.0636
  847MOL0     H14303  13.260   1.846   9.977  0.2429 -0.1400  0.3102
  847MOL0     H14304  13.372   1.975   9.977  1.7985  0.5049 -1.5021
  847MOL0     H14305  13.692   1.881   9.790 -1.5379 -1.0590 -1.6358
  847MOL0     H14306  13.881   1.780   9.945  0.7546 -0.1616 -0.9004
  847MOL0     H14307  14.040   1.435  10.180  0.2659  1.8401 -1.3161
  847MOL0     H14308  14.234   1.355  10.255 -1.8233 -1.1779  0.4222
  847MOL0     H14309  14.474   1.331  10.239  0.9707 -0.5081  0.9886
  847MOL0     H14310  14.515   1.478  10.159 -4.2585 -1.4242 -1.6868
  847MOL0     H14311  14.649   1.357  10.405 -0.3540  0.3216 -0.5434
  847MOL0     H14312  14.716   1.324  10.244  0.0470 -0.2733  0.5303
  847MOL0     H14313  14.740   1.561  10.194 -1.6293  3.8429  0.2487
  847MOL0     H14314  14.692   1.600  10.363  0.4050  0.2497 -1.1465
  847MOL0     H14315  14.876   1.466  10.453 -0.5068 -0.6189 -0.6313
  847MOL0     H14316  14.919   1.612  10.378  0.9089  0.0777 -0.2325
  847MOL0     H14317  14.964   1.475  10.153  1.5644 -3.7149 -2.5807
  847MOL0     H14318  14.946   1.328  10.255  0.9723 -0.7163  2.3519
  847MOL0     H14319  15.182   1.518  10.265  0.8412  0.4334  1.4464
  847MOL0     H14320  15.099   1.430  10.410 -3.3886  1.2418 -0.4946
  847MOL0     H14321  15.141   1.250  10.197  3.9308 -0.2982 -2.4754
  847MOL0     H14322  15.232   1.258  10.350  1.9416 -3.0087 -2.1951
  847MOL0     H14323  15.302   1.417  10.090  1.0494  1.9048  0.9430
  847MOL0     H14324  15.403   1.400  10.232 -0.4015 -0.9067  0.9792
  847MOL0     H14325  14.375   1.756  10.352 -0.1178  1.2160 -1.6222
  847MOL0     H14326  14.153   1.839  10.277  0.5348  0.3213 -1.1382
  847MOL0     H14327  13.587   1.688  10.233 -1.3237 -1.7193 -0.5276
  847MOL0     H14328  13.408   1.738  10.085 -1.0157 -0.7278 -1.6667
  847MOL0     H14329  11.396   2.277   9.626 -0.2675  1.1576 -0.7006
  847MOL0     H14330  11.222   2.174   9.514 -0.7745  0.1531 -1.4432
  847MOL0     H14331  10.994   2.081   9.291  0.8316  1.3349 -0.2849
  847MOL0     H14332  10.749   2.046   9.229  1.3034 -0.1143  1.4924
  847MOL0     H14333  10.623   1.910   8.822 -1.0179 -1.3937  2.4126
  847MOL0     H14334  10.637   2.085   8.787 -0.4854 -1.9275 -1.9791
  847MOL0     H14335  10.414   2.015   8.744  0.3654  1.0056 -0.3440
  847MOL0     H14336  10.426   2.139   8.882 -1.0830 -0.0496 -0.0425
  847MOL0     H14337  10.406   1.948   9.041  0.1711  1.5413  0.3598
  847MOL0     H14338  10.384   1.839   8.900  0.8265  0.8824 -1.5861
  847MOL0     H14339  10.195   2.047   9.029  1.0925 -1.7255  1.7749
  847MOL0     H14340  10.163   1.986   8.864 -1.3778  0.1097  1.6847
  847MOL0     H14341  10.083   1.635   9.079 -0.3735  0.5041  1.2714
  847MOL0     H14342  10.860   2.030   8.819 -1.0525  2.9826  0.1770
  847MOL0     H14343  11.187   1.970   8.836  0.3292  0.1908  1.7854
  847MOL0     H14344  11.055   2.040   8.747 -0.7993  0.6980  0.8914
  847MOL0     H14345  11.165   2.153   8.814 -1.0814  0.3212 -0.1332
  848MOL0     O14346   5.116   8.083   7.738  1.2189 -0.4010  0.8063
  848MOL0     C14347   5.102   8.060   7.621 -0.8836  0.1270 -0.6312
  848MOL0     O14348   5.205   8.060   7.525  0.1019  0.7324 -0.0118
  848MOL0     C14349   5.334   8.100   7.560 -0.6673  0.1470 -0.2158
  848MOL0     C14350   5.416   8.012   7.635 -0.5752  0.0020  0.5025
  848MOL0     C14351   5.551   8.045   7.658 -0.2534 -0.1479 -0.2645
  848MOL0     C14352   5.607   8.161   7.622 -0.0784 -1.4489  0.3373
  848MOL0     O14353   5.733   8.201   7.666  0.4543 -0.0136  0.4034
  848MOL0     C14354   5.749   8.328   7.718 -0.1388  0.3684 -0.6463
  848MOL0     C14355   5.875   8.321   7.811  0.2902 -0.4022 -0.3972
  848MOL0     C14356   6.004   8.318   7.735 -0.0705  0.3250  1.5603
  848MOL0     C14357   6.123   8.280   7.816 -0.3010 -0.4123 -0.0276
  848MOL0     C14358   6.261   8.304   7.763  1.0229  0.0398  0.4032
  848MOL0     C14359   6.307   8.450   7.780  0.2699  0.8069  0.2498
  848MOL0     C14360   6.448   8.474   7.732 -0.0547  0.0922  1.0424
  848MOL0     C14361   6.479   8.617   7.773  0.1796  0.4883 -0.0265
  848MOL0     N14362   6.623   8.633   7.769 -0.1504 -0.0514 -0.1592
  848MOL0     C14363   6.699   8.662   7.656  0.2973 -0.5235  0.9010
  848MOL0     C14364   6.826   8.681   7.700 -0.3077  0.5404  0.6017
  848MOL0     C14365   6.957   8.714   7.638  0.2670  0.3101  0.1360
  848MOL0     C14366   7.088   8.668   7.713 -0.3224  0.0267  0.0750
  848MOL0     C14367   7.105   8.512   7.712 -0.3170  0.5090  0.4612
  848MOL0     C14368   7.222   8.442   7.779 -0.3161  0.1331  0.6827
  848MOL0     O14369   7.337   8.466   7.695  0.1156  0.2176 -0.2748
  848MOL0     C14370   7.451   8.481   7.766  0.6891  0.2663  0.3546
  848MOL0     C14371   7.488   8.610   7.815  0.1147  0.4039 -0.3433
  848MOL0     C14372   7.622   8.633   7.858 -0.1467  0.9256  0.3434
  848MOL0     C14373   7.717   8.529   7.838 -0.0450 -0.3738  0.0169
  848MOL0     C14374   7.860   8.555   7.867 -0.1493  0.4769 -0.4683
  848MOL0     O14375   7.953   8.468   7.835  0.0701 -0.0160 -0.2668
  848MOL0     C14376   8.089   8.506   7.832  0.2989  0.2518  0.1960
  848MOL0     C14377   8.136   8.611   7.746 -0.5638 -0.3590 -0.9303
  848MOL0     C14378   8.272   8.652   7.749  1.1583  0.4617  0.6435
  848MOL0     C14379   8.359   8.582   7.825 -0.7144  0.2606 -0.3044
  848MOL0     O14380   8.492   8.621   7.831 -0.4407 -0.7326 -0.5781
  848MOL0     C14381   8.580   8.538   7.760  0.1247 -0.3409  0.2581
  848MOL0     C14382   8.718   8.594   7.788 -0.2220 -0.1110 -0.3460
  848MOL0     C14383   8.813   8.512   7.709  0.6420  0.0606  0.2409
  848MOL0     C14384   8.957   8.548   7.740  0.5595 -0.0257 -0.0302
  848MOL0     C14385   9.049   8.465   7.652 -0.8265  0.1766 -0.0545
  848MOL0     C14386   9.204   8.491   7.666  0.7472  0.6737  0.0860
  848MOL0     C14387   9.278   8.383   7.589  0.4086 -0.0353  0.4420
  848MOL0     C14388   9.429   8.404   7.597  0.2160 -0.0133 -0.8099
  848MOL0    Cl14389   9.483   8.571   7.591 -0.0907 -0.0362  0.1958
  848MOL0     C14390   8.316   8.482   7.908  0.1231  0.5067 -0.6833
  848MOL0     C14391   8.181   8.437   7.910  0.4105  0.1953 -0.2987
  848MOL0     O14392   7.885   8.670   7.908  0.4102 -0.5265 -0.8092
  848MOL0     C14393   7.677   8.398   7.797  0.7098 -0.2047 -0.5506
  848MOL0     C14394   7.540   8.378   7.763 -0.2654 -0.4130  0.4426
  848MOL0     N14395   6.824   8.657   7.832  0.5715  0.7872  0.2414
  848MOL0     N14396   6.700   8.631   7.876 -0.7572 -0.6418  0.0655
  848MOL0     C14397   5.526   8.251   7.542  1.0444 -0.0058  0.0738
  848MOL0     C14398   5.392   8.214   7.513  0.6875  0.7815  0.1801
  848MOL0     C14399   4.970   8.018   7.580 -0.4044  0.5772 -0.3484
  848MOL0     C14400   4.949   8.033   7.439  0.3368  0.5379 -0.3780
  848MOL0     C14401   4.822   8.010   7.383 -0.3109 -0.4416 -0.7795
  848MOL0     C14402   4.716   7.957   7.460  0.9636 -0.0906  0.0007
  848MOL0     O14403   4.600   7.940   7.396 -0.0604 -0.5309  0.2439
  848MOL0     C14404   4.481   7.887   7.456 -0.1266  0.3465  0.6839
  848MOL0     C14405   4.387   7.994   7.513 -0.0301 -0.3613  0.1081
  848MOL0     C14406   4.245   7.932   7.519  0.7266  0.0035 -0.3121
  848MOL0     C14407   4.194   7.962   7.379 -0.7937 -0.2896  1.1012
  848MOL0     C14408   4.069   7.898   7.332  0.6929 -0.0936  0.6634
  848MOL0     C14409   3.960   7.844   7.297  0.0599  0.1499  0.6714
  848MOL0     C14410   4.739   7.931   7.592  0.6413  0.8862 -0.0938
  848MOL0     C14411   4.862   7.957   7.654  0.0994 -0.6810 -0.4237
  848MOL0     C14412   4.876   7.933   7.796  0.2875  0.2258  0.3556
  848MOL0     H14413   5.383   7.917   7.675  1.0774 -0.1983  1.4750
  848MOL0     H14414   5.614   7.980   7.719  0.8638  1.7752  0.7339
  848MOL0     H14415   5.753   8.403   7.639 -1.3982  0.0597 -1.0249
  848MOL0     H14416   5.659   8.359   7.773  1.3495  0.4009  1.9049
  848MOL0     H14417   5.865   8.226   7.863 -0.3995  0.0989  0.3911
  848MOL0     H14418   5.871   8.405   7.881 -4.6500  2.2324 -3.2595
  848MOL0     H14419   6.028   8.419   7.701  1.8972  0.4371  3.1725
  848MOL0     H14420   5.989   8.258   7.645 -0.0346  1.6559  0.6385
  848MOL0     H14421   6.118   8.332   7.912  0.1889 -2.1199  0.9786
  848MOL0     H14422   6.114   8.172   7.834  1.4892 -0.4412  0.9476
  848MOL0     H14423   6.323   8.240   7.826  0.2974  0.9023  2.0432
  848MOL0     H14424   6.265   8.278   7.657  0.2581 -0.0443  0.3902
  848MOL0     H14425   6.234   8.505   7.719  0.6876  1.1094  0.0172
  848MOL0     H14426   6.295   8.490   7.881 -0.9403  1.6486 -0.1920
  848MOL0     H14427   6.455   8.463   7.623 -0.8896 -0.9333  1.0773
  848MOL0     H14428   6.521   8.402   7.771  0.7788  0.2067 -0.2328
  848MOL0     H14429   6.436   8.686   7.700 -0.0565 -1.1562 -1.5208
  848MOL0     H14430   6.438   8.632   7.874 -1.7983  2.8768 -1.0944
  848MOL0     H14431   6.661   8.663   7.554  0.4044 -0.8668  0.8539
  848MOL0     H14432   6.949   8.675   7.537 -0.2462  1.3561 -0.2352
  848MOL0     H14433   6.969   8.821   7.616 -0.1030 -0.0150 -1.8299
  848MOL0     H14434   7.178   8.714   7.671  0.7444 -2.4151 -0.4820
  848MOL0     H14435   7.070   8.695   7.818  2.3772  1.0364  0.3532
  848MOL0     H14436   7.120   8.472   7.612  0.0122 -3.8410  2.0430
  848MOL0     H14437   7.010   8.475   7.752 -0.2913  1.2527  1.2675
  848MOL0     H14438   7.212   8.333   7.784  4.0247 -0.5267 -0.8923
  848MOL0     H14439   7.244   8.476   7.881 -1.5553 -1.2297  1.4462
  848MOL0     H14440   7.414   8.689   7.823  0.0859  0.2119  2.1199
  848MOL0     H14441   7.647   8.735   7.885 -0.7820  1.2874 -0.3997
  848MOL0     H14442   8.059   8.665   7.692 -1.3467  0.1362  0.6532
  848MOL0     H14443   8.316   8.733   7.691 -0.7571  1.0928 -0.0071
  848MOL0     H14444   8.578   8.436   7.801  0.4488 -0.2881  0.4151
  848MOL0     H14445   8.564   8.528   7.653 -0.6213 -0.5464  0.3806
  848MOL0     H14446   8.722   8.701   7.764 -2.6342  0.7444  2.5189
  848MOL0     H14447   8.741   8.593   7.895  0.5017  0.2803 -0.4865
  848MOL0     H14448   8.792   8.407   7.731 -1.8035  0.6982  1.3087
  848MOL0     H14449   8.804   8.523   7.601  3.0305 -3.6605 -0.5180
  848MOL0     H14450   8.973   8.522   7.845  2.0606 -3.5780 -0.9855
  848MOL0     H14451   8.964   8.657   7.743 -1.3746  0.1156  2.0363
  848MOL0     H14452   9.031   8.483   7.545 -1.3934  0.9022  0.1591
  848MOL0     H14453   9.032   8.358   7.666 -0.9961  0.5737  3.7856
  848MOL0     H14454   9.222   8.588   7.621 -1.3501  1.1662  0.1963
  848MOL0     H14455   9.239   8.478   7.769 -1.5463 -0.5357  0.7867
  848MOL0     H14456   9.251   8.393   7.483  0.1377  1.1961  0.6086
  848MOL0     H14457   9.243   8.286   7.623  0.8257 -0.2636  0.2247
  848MOL0     H14458   9.468   8.360   7.689  0.4758  0.9243 -0.4612
  848MOL0     H14459   9.481   8.363   7.510  1.7989 -0.9657  0.5420
  848MOL0     H14460   8.391   8.418   7.954 -0.1622 -0.0656 -1.0034
  848MOL0     H14461   8.145   8.355   7.971 -1.0355  1.9182  1.3116
  848MOL0     H14462   7.749   8.317   7.787  1.6989  0.6187 -0.1734
  848MOL0     H14463   7.508   8.280   7.727  0.9431 -0.2912 -1.0487
  848MOL0     H14464   5.556   8.341   7.492  0.6597 -0.4735 -1.0321
  848MOL0     H14465   5.334   8.278   7.447  2.7197  1.2328 -1.2665
  848MOL0     H14466   5.021   8.074   7.368 -0.3830 -1.0228 -2.0911
  848MOL0     H14467   4.814   8.017   7.275 -3.0881 -0.3449 -0.6385
  848MOL0     H14468   4.501   7.822   7.542  0.6699  0.7661  0.8217
  848MOL0     H14469   4.431   7.828   7.379  0.9689  0.8136 -0.4047
  848MOL0     H14470   4.390   8.086   7.453 -1.1137  0.5946  1.4399
  848MOL0     H14471   4.415   8.026   7.613 -1.9024  0.1259  0.5112
  848MOL0     H14472   4.185   7.998   7.583  1.0355  0.2593 -0.2823
  848MOL0     H14473   4.251   7.825   7.540 -0.6529 -0.1317 -0.5367
  848MOL0     H14474   4.184   8.069   7.359  0.3085 -0.2069  0.8899
  848MOL0     H14475   4.262   7.916   7.307 -2.0241  1.1015 -1.0334
  848MOL0     H14476   3.861   7.810   7.271  1.3209 -1.9646 -1.8305
  848MOL0     H14477   4.660   7.892   7.656  1.4085 -1.3920 -0.4523
  848MOL0     H14478   4.835   8.010   7.862  0.1475  1.3580 -1.0014
  848MOL0     H14479   4.811   7.848   7.817 -1.2108  0.5558 -2.4557
  848MOL0     H14480   4.977   7.900   7.824 -0.0764  0.3272  1.8548
  849MOL0     O14481  10.029   1.594   9.332 -0.5114 -1.3644 -0.4997
  849MOL0     C14482  10.028   1.685   9.413  0.2142  0.1384  0.1303
  849MOL0     O14483  10.133   1.760   9.456 -0.9363  0.2119 -0.0427
  849MOL0     C14484  10.250   1.724   9.393 -0.4072 -0.5675  0.4447
  849MOL0     C14485  10.309   1.593   9.391 -0.2311  0.8957 -0.2775
  849MOL0     C14486  10.440   1.582   9.342  0.3131  0.2273 -0.5890
  849MOL0     C14487  10.518   1.692   9.285  0.5243 -0.2001 -0.2082
  849MOL0     O14488  10.639   1.680   9.223  0.2151  0.4195 -0.5408
  849MOL0     C14489  10.708   1.555   9.230  0.7457  0.1922  0.0745
  849MOL0     C14490  10.817   1.554   9.121  0.1448 -0.0837 -0.4354
  849MOL0     C14491  10.758   1.580   8.980  0.4706  0.1554  0.0768
  849MOL0     C14492  10.873   1.613   8.880 -0.0471  0.2193 -1.0315
  849MOL0     C14493  10.812   1.626   8.736  0.1553  0.0671 -0.0558
  849MOL0     C14494  10.929   1.657   8.639  0.0888 -0.3102 -0.0757
  849MOL0     C14495  10.899   1.644   8.489  0.0476  0.3466 -0.1385
  849MOL0     C14496  10.770   1.709   8.451 -0.1046 -0.1176  0.0604
  849MOL0     N14497  10.791   1.854   8.450 -0.2514  0.2798  0.0479
  849MOL0     C14498  10.888   1.923   8.382  0.3233  0.3343 -0.2862
  849MOL0     C14499  10.886   2.042   8.431 -0.1344 -0.0882 -0.2418
  849MOL0     C14500  10.972   2.166   8.397  0.1356  0.1657  0.7851
  849MOL0     C14501  11.111   2.173   8.456  0.0206 -0.5063 -0.1956
  849MOL0     C14502  11.201   2.053   8.440  0.2060  0.0714  0.2583
  849MOL0     C14503  11.348   2.079   8.472 -0.4589  0.6303  0.3958
  849MOL0     O14504  11.376   2.102   8.604  0.6436  0.0429 -0.0284
  849MOL0     C14505  11.506   2.101   8.644 -0.2668 -0.5536 -0.7853
  849MOL0     C14506  11.515   2.129   8.779  0.6756  0.7007 -0.0969
  849MOL0     C14507  11.631   2.147   8.854 -0.3361 -0.3566 -0.0866
  849MOL0     C14508  11.754   2.161   8.775 -0.1316  1.2514 -0.2795
  849MOL0     C14509  11.882   2.193   8.846  0.4127  0.8194 -0.4811
  849MOL0     O14510  11.994   2.175   8.771  0.2668  0.7275  0.7888
  849MOL0     C14511  12.121   2.198   8.829 -0.3594  0.5767 -1.1120
  849MOL0     C14512  12.224   2.106   8.812 -0.3434  0.3845  0.4027
  849MOL0     C14513  12.345   2.126   8.860  0.0844 -0.3566  0.6804
  849MOL0     C14514  12.383   2.244   8.925 -0.0256  1.0867 -0.5954
  849MOL0     O14515  12.510   2.244   8.975  0.2422 -0.3798 -0.0303
  849MOL0     C14516  12.561   2.367   9.033  0.5525  0.0900  0.7576
  849MOL0     C14517  12.707   2.356   9.040 -0.3636  0.2824  0.0942
  849MOL0     C14518  12.780   2.389   8.909 -0.6483  0.0916 -0.1456
  849MOL0     C14519  12.933   2.355   8.924  0.1589  0.4161 -0.5336
  849MOL0     C14520  12.993   2.340   8.780  0.4190  0.0513 -0.0414
  849MOL0     C14521  13.128   2.273   8.795 -0.7357  0.0493  0.0187
  849MOL0     C14522  13.185   2.262   8.652  0.6976  0.3972 -0.1521
  849MOL0     C14523  13.310   2.178   8.636  0.3890 -1.3601  0.3313
  849MOL0    Cl14524  13.438   2.279   8.703 -0.4409 -0.0797 -0.0919
  849MOL0     C14525  12.283   2.337   8.952  0.6230 -0.9039  0.4331
  849MOL0     C14526  12.149   2.317   8.905 -0.0715  1.6505  0.2092
  849MOL0     O14527  11.880   2.233   8.962  0.0408 -0.2063  0.0875
  849MOL0     C14528  11.745   2.125   8.637  0.0380 -0.0681 -0.2725
  849MOL0     C14529  11.628   2.085   8.577 -0.5343 -0.5964 -0.0177
  849MOL0     N14530  10.786   2.041   8.532 -0.4085 -0.4450  0.3981
  849MOL0     N14531  10.722   1.936   8.533 -0.3404  0.7153  0.4533
  849MOL0     C14532  10.462   1.818   9.292  0.5217 -0.5588 -0.2351
  849MOL0     C14533  10.331   1.831   9.347  0.3558  0.0259  0.6790
  849MOL0     C14534   9.907   1.691   9.496  0.7135  0.2721  0.0308
  849MOL0     C14535   9.916   1.645   9.629 -0.7760  1.2188 -0.8263
  849MOL0     C14536   9.806   1.627   9.705 -0.4051  0.3044  0.4566
  849MOL0     C14537   9.683   1.676   9.650 -0.5480  0.1900  0.2869
  849MOL0     O14538   9.571   1.672   9.734  0.6124 -0.0896 -0.1304
  849MOL0     C14539   9.492   1.557   9.718 -0.4367  0.1612  0.3616
  849MOL0     C14540   9.533   1.461   9.828  0.5818 -1.0350  0.8980
  849MOL0     C14541   9.460   1.497   9.961  0.1678  0.4751  0.1339
  849MOL0     C14542   9.547   1.463  10.073 -0.6409 -0.4458  0.0545
  849MOL0     C14543   9.663   1.548  10.105  0.9922  0.2620 -0.3132
  849MOL0     C14544   9.762   1.603  10.131  0.3806 -1.3428  0.3588
  849MOL0     C14545   9.670   1.716   9.521 -0.3093 -0.8831  0.4284
  849MOL0     C14546   9.786   1.729   9.441 -0.2108 -0.1631 -0.2225
  849MOL0     C14547   9.770   1.790   9.297 -0.4440  0.2481 -0.2699
  849MOL0     H14548  10.243   1.517   9.429  1.2417 -0.1491  0.2718
  849MOL0     H14549  10.475   1.479   9.339  0.6971  0.3696 -1.1122
  849MOL0     H14550  10.744   1.534   9.331 -1.1705 -0.3618  0.6918
  849MOL0     H14551  10.641   1.471   9.207  1.5843 -0.7225  0.8659
  849MOL0     H14552  10.870   1.458   9.129  0.5338  0.1968  0.4466
  849MOL0     H14553  10.883   1.636   9.151 -2.0274  0.3780  3.8098
  849MOL0     H14554  10.693   1.669   8.981  0.3193  0.0458  1.2672
  849MOL0     H14555  10.705   1.490   8.947 -3.4028  1.7682  1.2984
  849MOL0     H14556  10.920   1.706   8.913 -0.2931 -0.6016  1.9170
  849MOL0     H14557  10.945   1.531   8.889  1.0342  1.2314 -0.2633
  849MOL0     H14558  10.752   1.545   8.693  2.4413 -1.2281 -0.9883
  849MOL0     H14559  10.746   1.712   8.750 -2.0279 -1.1583 -2.0552
  849MOL0     H14560  10.967   1.756   8.667  0.5562 -0.9815  1.8487
  849MOL0     H14561  11.012   1.589   8.660  0.9322  0.6974 -0.0485
  849MOL0     H14562  10.884   1.543   8.452 -1.8267 -0.4006  2.3534
  849MOL0     H14563  10.987   1.691   8.444  1.1942 -0.3768  1.2950
  849MOL0     H14564  10.739   1.670   8.353  1.2838 -1.6022  0.1641
  849MOL0     H14565  10.690   1.678   8.519 -0.8264  0.4235 -0.5211
  849MOL0     H14566  10.937   1.885   8.293 -1.0078 -1.2595 -0.3925
  849MOL0     H14567  10.992   2.160   8.290 -1.6820 -1.2278  0.4670
  849MOL0     H14568  10.905   2.252   8.415  1.2671  0.7784  2.2828
  849MOL0     H14569  11.165   2.261   8.418 -0.8861  0.1567  0.0019
  849MOL0     H14570  11.096   2.194   8.562 -1.5812 -1.1766 -0.2723
  849MOL0     H14571  11.177   2.002   8.347 -1.9963  1.3016  0.0949
  849MOL0     H14572  11.160   1.988   8.517 -2.1382  1.4011  0.2088
  849MOL0     H14573  11.392   2.153   8.404  2.7507 -0.2223  1.3681
  849MOL0     H14574  11.404   1.987   8.453 -0.2154  0.6770  0.8831
  849MOL0     H14575  11.418   2.115   8.826  1.0287  0.0698  0.4663
  849MOL0     H14576  11.633   2.156   8.962  1.6528  0.3419 -0.1438
  849MOL0     H14577  12.218   2.016   8.752 -0.9153  1.1641 -0.7599
  849MOL0     H14578  12.422   2.051   8.841 -1.4568 -1.3446 -2.3786
  849MOL0     H14579  12.535   2.447   8.963 -1.8122 -1.6945 -0.5403
  849MOL0     H14580  12.503   2.391   9.123  2.2483  1.9732  1.4157
  849MOL0     H14581  12.753   2.434   9.101 -0.4688  0.7122 -0.3716
  849MOL0     H14582  12.736   2.258   9.080 -1.5206  0.8229  2.4550
  849MOL0     H14583  12.741   2.324   8.830  1.9459 -1.2887 -0.3925
  849MOL0     H14584  12.777   2.493   8.875 -1.0868 -0.5687 -2.2748
  849MOL0     H14585  12.948   2.261   8.977  1.5389  1.2395  0.5885
  849MOL0     H14586  12.978   2.439   8.978  0.9252  0.1737 -0.7738
  849MOL0     H14587  12.991   2.439   8.734 -3.7910 -1.1735 -3.1397
  849MOL0     H14588  12.922   2.279   8.724 -1.0318  1.0810  0.6248
  849MOL0     H14589  13.182   2.344   8.859 -2.0807 -2.0928  3.8628
  849MOL0     H14590  13.132   2.175   8.843  1.8121 -0.0417 -0.2507
  849MOL0     H14591  13.196   2.360   8.605 -0.9045 -0.7764 -3.2675
  849MOL0     H14592  13.106   2.217   8.591  2.0478 -1.3203 -0.7273
  849MOL0     H14593  13.298   2.077   8.675  0.1424 -2.2561 -1.9222
  849MOL0     H14594  13.322   2.175   8.527 -3.1045  0.4258 -0.2453
  849MOL0     H14595  12.306   2.420   9.018 -0.0359  0.5220 -1.0548
  849MOL0     H14596  12.063   2.383   8.916 -1.3213  0.2745 -0.8860
  849MOL0     H14597  11.836   2.133   8.578  1.0016 -0.6165  1.0855
  849MOL0     H14598  11.628   2.051   8.474 -1.3976 -0.9849  0.1021
  849MOL0     H14599  10.499   1.913   9.256 -0.2611  1.5105  3.8369
  849MOL0     H14600  10.280   1.926   9.356 -0.6076 -0.2745 -1.1510
  849MOL0     H14601  10.000   1.597   9.677 -0.9573 -0.6901 -2.3137
  849MOL0     H14602   9.815   1.579   9.802 -0.3395 -1.9082 -0.5795
  849MOL0     H14603   9.503   1.521   9.616 -0.3862  0.4697  0.2593
  849MOL0     H14604   9.386   1.583   9.731 -0.2479  1.2795 -0.2296
  849MOL0     H14605   9.641   1.461   9.845  0.7599  0.2486 -0.0738
  849MOL0     H14606   9.516   1.355   9.810  0.2022 -0.9930  1.0014
  849MOL0     H14607   9.372   1.433   9.968  0.8887 -0.4325  1.3629
  849MOL0     H14608   9.426   1.601   9.966 -2.4084 -0.2521 -0.7777
  849MOL0     H14609   9.478   1.459  10.157 -1.0419  1.1093 -0.1791
  849MOL0     H14610   9.582   1.360  10.061  2.8387  0.8276 -2.5935
  849MOL0     H14611   9.851   1.652  10.167 -0.4954  0.1994  0.5199
  849MOL0     H14612   9.572   1.747   9.485 -1.4183 -0.7594  3.3385
  849MOL0     H14613   9.675   1.844   9.293 -1.4563 -1.4314 -5.2262
  849MOL0     H14614   9.856   1.850   9.266  0.5338 -0.7169  0.4718
  849MOL0     H14615   9.755   1.700   9.238  1.2308 -0.7198  0.7044
  850MOL0     O14616   7.313   2.927   1.065  0.1581  0.5394 -0.7731
  850MOL0     C14617   7.255   3.032   1.068 -0.2923  0.1704 -0.1299
  850MOL0     O14618   7.316   3.153   1.100  0.2559 -0.7005 -0.0865
  850MOL0     C14619   7.444   3.154   1.151 -0.5195  0.6220 -1.1092
  850MOL0     C14620   7.483   3.091   1.271  0.2755 -0.4904 -0.0135
  850MOL0     C14621   7.612   3.105   1.326  0.3231 -0.3328  0.0418
  850MOL0     C14622   7.709   3.190   1.262  1.3636 -0.0274  0.3459
  850MOL0     O14623   7.832   3.197   1.310  0.2164  0.4092 -0.3567
  850MOL0     C14624   7.927   3.282   1.240 -0.0960  0.0340  0.0929
  850MOL0     C14625   8.051   3.295   1.320 -0.0922 -0.7785  0.3162
  850MOL0     C14626   8.151   3.181   1.286  0.3520 -0.5355  0.2678
  850MOL0     C14627   8.274   3.191   1.375  0.2702  0.2435  0.3417
  850MOL0     C14628   8.366   3.289   1.303 -0.3318  0.1687  0.0564
  850MOL0     C14629   8.489   3.317   1.394 -0.2396 -0.5012 -0.1796
  850MOL0     C14630   8.589   3.207   1.396 -0.1978  0.1792 -0.0504
  850MOL0     C14631   8.640   3.172   1.542 -0.9023 -0.5227  0.6268
  850MOL0     N14632   8.721   3.270   1.621  0.4143  0.1021  0.0949
  850MOL0     C14633   8.820   3.232   1.718  0.4268 -0.2736  0.0306
  850MOL0     C14634   8.898   3.334   1.716  0.1101  0.1428  0.9053
  850MOL0     C14635   9.032   3.334   1.791 -0.4925  0.0186 -0.0944
  850MOL0     C14636   9.157   3.295   1.693 -0.6516  0.5044 -0.6224
  850MOL0     C14637   9.203   3.387   1.582  0.2623 -0.7233 -0.7364
  850MOL0     C14638   9.334   3.454   1.620  0.0651  0.3245  0.6645
  850MOL0     O14639   9.421   3.463   1.509 -0.6295 -0.0391 -0.2314
  850MOL0     C14640   9.542   3.524   1.507  0.5524  0.0809  0.2083
  850MOL0     C14641   9.595   3.613   1.603  0.7592 -0.3720  0.3980
  850MOL0     C14642   9.726   3.659   1.595 -0.4313  0.3026  0.0226
  850MOL0     C14643   9.808   3.623   1.483  0.6164 -0.2856  0.3421
  850MOL0     C14644   9.942   3.687   1.484  0.4884 -0.3620  0.1714
  850MOL0     O14645  10.031   3.638   1.382  0.6872 -0.3891  0.1230
  850MOL0     C14646  10.162   3.681   1.370  1.0277 -0.3426  0.0204
  850MOL0     C14647  10.174   3.761   1.259  0.4706 -0.2000  0.1744
  850MOL0     C14648  10.294   3.820   1.237 -1.0066  1.4872 -0.4385
  850MOL0     C14649  10.403   3.816   1.335  0.9870  0.7207 -0.4603
  850MOL0     O14650  10.525   3.881   1.312 -0.1461  0.3854  0.8739
  850MOL0     C14651  10.597   3.839   1.197  0.1592  0.0771  0.5359
  850MOL0     C14652  10.701   3.737   1.241  0.1319  0.2311  0.6646
  850MOL0     C14653  10.790   3.706   1.118 -0.3852  0.2634 -0.1926
  850MOL0     C14654  10.924   3.784   1.131 -0.3518 -0.1120  0.0630
  850MOL0     C14655  10.984   3.792   0.984  1.1228 -1.5779 -0.8303
  850MOL0     C14656  11.086   3.908   0.977 -0.3704 -1.1224 -0.6495
  850MOL0     C14657  11.132   3.906   0.837  0.5632  0.0854  0.1159
  850MOL0     C14658  11.207   4.036   0.805 -0.5032  0.2795 -0.3884
  850MOL0    Cl14659  11.365   4.060   0.886  0.4049  0.0252 -0.0695
  850MOL0     C14660  10.391   3.726   1.441  0.2151  0.6232 -0.7466
  850MOL0     C14661  10.265   3.659   1.457 -0.3336  0.3627 -0.4782
  850MOL0     O14662   9.974   3.770   1.568 -0.3740  0.0075 -0.0804
  850MOL0     C14663   9.756   3.539   1.384  0.1817  0.3124  0.0974
  850MOL0     C14664   9.620   3.491   1.402  0.9220 -0.2872 -0.5293
  850MOL0     N14665   8.859   3.426   1.622 -0.3305 -0.0730  0.1189
  850MOL0     N14666   8.756   3.389   1.569  0.4172  0.2925  0.2558
  850MOL0     C14667   7.666   3.256   1.140 -0.1994 -0.2129  0.0929
  850MOL0     C14668   7.533   3.244   1.098 -0.8008  0.5256  0.6445
  850MOL0     C14669   7.110   3.030   1.038  0.2424  1.1849 -0.3481
  850MOL0     C14670   7.042   2.901   1.038  0.4731  0.4816 -0.3980
  850MOL0     C14671   6.903   2.884   1.018  0.6132  0.4749  0.3396
  850MOL0     C14672   6.817   2.992   1.005 -0.2774 -0.7699  0.4000
  850MOL0     O14673   6.681   2.972   0.999 -0.5095  0.4054  0.1740
  850MOL0     C14674   6.584   3.080   0.973 -0.6003  0.3923 -0.0182
  850MOL0     C14675   6.581   3.122   0.829  0.2633 -0.2740 -0.6081
  850MOL0     C14676   6.545   3.009   0.733  0.4395  0.2785  0.3503
  850MOL0     C14677   6.410   2.952   0.765 -0.8232  0.1202 -0.2489
  850MOL0     C14678   6.357   2.866   0.657 -0.3886  0.2327 -0.2024
  850MOL0     C14679   6.321   2.790   0.570 -0.3824 -0.2038  0.2389
  850MOL0     C14680   6.885   3.117   1.007  0.0983  0.5937  0.1658
  850MOL0     C14681   7.025   3.143   1.026  0.9035  0.3258  0.0067
  850MOL0     C14682   7.070   3.290   1.035 -0.0331 -1.2649 -0.2514
  850MOL0     H14683   7.413   3.029   1.326 -3.2659  1.7466 -1.6432
  850MOL0     H14684   7.642   3.062   1.421  0.1034 -2.0116 -0.6159
  850MOL0     H14685   7.952   3.250   1.138  0.8280  0.7043  0.0867
  850MOL0     H14686   7.882   3.381   1.228 -2.0744 -0.9318 -0.8276
  850MOL0     H14687   8.032   3.291   1.428  0.8839 -0.4103  0.5099
  850MOL0     H14688   8.090   3.392   1.289 -1.7648  0.2961  1.3775
  850MOL0     H14689   8.169   3.179   1.178  3.1063 -1.1170  0.6545
  850MOL0     H14690   8.103   3.085   1.307 -0.3014 -0.3820 -0.4747
  850MOL0     H14691   8.246   3.226   1.475 -0.1279  0.6492  0.0912
  850MOL0     H14692   8.322   3.092   1.380 -0.7425 -0.3217 -0.6582
  850MOL0     H14693   8.412   3.252   1.211 -1.0555  0.4072 -0.4063
  850MOL0     H14694   8.320   3.382   1.268 -2.5672 -1.0509 -0.4326
  850MOL0     H14695   8.550   3.405   1.371  1.5525 -1.7291 -0.2547
  850MOL0     H14696   8.452   3.340   1.495 -2.5777  1.4069 -1.3604
  850MOL0     H14697   8.676   3.237   1.337  2.0997 -0.6492  2.6958
  850MOL0     H14698   8.548   3.114   1.355  1.5005  0.4262 -2.4878
  850MOL0     H14699   8.555   3.159   1.609 -0.8223  1.0810  1.0722
  850MOL0     H14700   8.684   3.072   1.534  0.0011 -0.1009  0.1039
  850MOL0     H14701   8.831   3.131   1.755  1.2930 -1.4088 -3.0676
  850MOL0     H14702   9.059   3.431   1.834 -2.0057  1.0207 -1.3382
  850MOL0     H14703   9.023   3.258   1.870 -2.9088 -0.0811 -0.3923
  850MOL0     H14704   9.241   3.256   1.750 -1.1924 -1.2876 -0.9988
  850MOL0     H14705   9.106   3.210   1.646  0.7747  0.0838 -1.4720
  850MOL0     H14706   9.134   3.464   1.549 -0.4326 -0.7975  0.4984
  850MOL0     H14707   9.221   3.315   1.500 -1.5788 -0.6897 -1.2076
  850MOL0     H14708   9.391   3.398   1.695 -0.6900 -1.1115  0.1921
  850MOL0     H14709   9.303   3.555   1.649 -2.0304 -0.5636  1.7623
  850MOL0     H14710   9.548   3.653   1.692  0.3453  0.1514 -0.0466
  850MOL0     H14711   9.762   3.720   1.677  1.1020 -1.2396  0.5699
  850MOL0     H14712  10.084   3.781   1.200 -1.1687 -0.3925  2.4738
  850MOL0     H14713  10.316   3.882   1.151  1.2235 -1.6612 -2.3366
  850MOL0     H14714  10.532   3.787   1.127  0.4409 -0.0781  0.3901
  850MOL0     H14715  10.636   3.930   1.150 -4.3583  0.3708 -3.4120
  850MOL0     H14716  10.759   3.784   1.320  0.4926 -0.1202  0.6113
  850MOL0     H14717  10.656   3.640   1.267 -0.6001  0.4959  0.4326
  850MOL0     H14718  10.813   3.599   1.117 -0.8308  0.1487  0.7823
  850MOL0     H14719  10.728   3.738   1.034  0.0725  2.2490  0.1725
  850MOL0     H14720  10.991   3.737   1.203 -0.6496 -1.1519 -0.3329
  850MOL0     H14721  10.909   3.888   1.164  0.4359  0.3493 -0.9426
  850MOL0     H14722  10.897   3.810   0.921 -0.1878  0.0083  1.2833
  850MOL0     H14723  11.038   3.701   0.959  4.3391 -0.2652  0.7164
  850MOL0     H14724  11.054   4.005   1.016  0.1308 -1.3872  0.4585
  850MOL0     H14725  11.175   3.869   1.028 -1.0776  0.0249  1.6104
  850MOL0     H14726  11.041   3.900   0.777 -1.0109  0.5049  2.3552
  850MOL0     H14727  11.188   3.815   0.811 -0.2520 -1.4011  3.1084
  850MOL0     H14728  11.219   4.044   0.697 -2.2788  0.0688 -0.6351
  850MOL0     H14729  11.140   4.118   0.834 -0.8704 -0.4731  0.9877
  850MOL0     H14730  10.475   3.715   1.508  0.1243 -1.0871 -0.8589
  850MOL0     H14731  10.244   3.591   1.539 -1.5873  0.0059 -1.0682
  850MOL0     H14732   9.814   3.523   1.294  1.6334  1.8844  0.6990
  850MOL0     H14733   9.575   3.430   1.325  0.8233  0.2301 -0.8903
  850MOL0     H14734   7.738   3.317   1.087  0.5541  0.4993  1.8327
  850MOL0     H14735   7.510   3.316   1.020  0.8332  1.0689  0.6397
  850MOL0     H14736   7.100   2.810   1.050 -1.9917 -1.0466  0.7002
  850MOL0     H14737   6.859   2.785   1.027  0.6854  0.5929  2.5383
  850MOL0     H14738   6.606   3.163   1.041 -1.8826 -0.3753  1.4060
  850MOL0     H14739   6.485   3.041   0.999 -1.1289  2.2340  0.9128
  850MOL0     H14740   6.684   3.137   0.793  1.4630 -2.6971  1.4594
  850MOL0     H14741   6.521   3.212   0.814 -0.4559 -0.2074  2.1006
  850MOL0     H14742   6.627   2.937   0.726  1.0581  0.9417  0.6411
  850MOL0     H14743   6.525   3.050   0.634  0.0132 -3.2795 -1.1848
  850MOL0     H14744   6.415   2.881   0.848 -3.5638  1.9412  1.6086
  850MOL0     H14745   6.335   3.029   0.782 -0.6909  0.2785 -0.3742
  850MOL0     H14746   6.287   2.734   0.485  1.9676  2.8968 -3.0398
  850MOL0     H14747   6.829   3.210   1.007  1.0057  1.1479  0.3933
  850MOL0     H14748   7.134   3.327   0.955  1.7449 -3.2050  0.2057
  850MOL0     H14749   6.988   3.362   1.047 -0.0278 -1.2497 -0.3045
  850MOL0     H14750   7.130   3.298   1.126  3.2541  4.9181 -2.3700
  851MOL0     O14751  10.925   4.513   4.650 -0.1987 -0.7452  0.1851
  851MOL0     C14752  10.873   4.532   4.540  1.6027 -0.2188  0.0901
  851MOL0     O14753  10.935   4.523   4.417  0.2302 -0.5217  0.0754
  851MOL0     C14754  11.066   4.520   4.420  0.4804  0.3041 -0.7357
  851MOL0     C14755  11.143   4.619   4.481 -0.2135  0.3811 -0.7007
  851MOL0     C14756  11.286   4.593   4.481  0.0264  1.1845 -0.4894
  851MOL0     C14757  11.343   4.485   4.400 -0.5253 -0.3177  0.2533
  851MOL0     O14758  11.482   4.461   4.384 -0.2831  0.0629 -0.9754
  851MOL0     C14759  11.578   4.531   4.464 -0.1961  0.3292 -0.1330
  851MOL0     C14760  11.588   4.456   4.597 -0.0281  0.8091  0.1314
  851MOL0     C14761  11.590   4.305   4.580  0.5565 -0.6563  0.2756
  851MOL0     C14762  11.656   4.236   4.696  0.6073 -0.3147  0.2502
  851MOL0     C14763  11.661   4.084   4.661  0.4657  0.3689  0.3228
  851MOL0     C14764  11.733   3.997   4.767 -0.2664 -0.0267  0.9580
  851MOL0     C14765  11.868   4.046   4.819  0.1589 -0.1453  0.1786
  851MOL0     C14766  11.981   4.015   4.724 -0.1075 -0.2475  0.2471
  851MOL0     N14767  12.103   4.072   4.782  0.5585 -0.9366 -0.2502
  851MOL0     C14768  12.170   4.054   4.895  0.4630 -0.0393 -1.2205
  851MOL0     C14769  12.287   4.116   4.878 -0.3538 -0.0955 -0.0099
  851MOL0     C14770  12.399   4.128   4.976  0.2484 -0.3795 -0.3511
  851MOL0     C14771  12.524   4.054   4.925 -0.4478 -0.2469  0.4589
  851MOL0     C14772  12.647   4.119   4.977 -0.3188  0.4720 -0.0669
  851MOL0     C14773  12.775   4.041   4.976  0.0486 -1.0636  0.3890
  851MOL0     O14774  12.795   3.987   5.103  0.0967  0.3813  0.5522
  851MOL0     C14775  12.910   3.982   5.172 -0.6866 -0.4052  0.5729
  851MOL0     C14776  13.004   4.084   5.156  0.5897  0.2408  0.9451
  851MOL0     C14777  13.126   4.082   5.225 -0.3001  0.2946 -0.4945
  851MOL0     C14778  13.157   3.983   5.313  0.1653 -0.0134  0.1422
  851MOL0     C14779  13.278   3.969   5.398  0.4118  0.3637  0.6153
  851MOL0     O14780  13.385   4.051   5.375 -0.2541 -0.1591  0.9722
  851MOL0     C14781  13.511   4.019   5.417  0.0998  0.0707 -1.0030
  851MOL0     C14782  13.570   4.102   5.504 -0.4394  0.1022  0.8984
  851MOL0     C14783  13.692   4.066   5.554 -0.3800 -0.8996  0.0790
  851MOL0     C14784  13.763   3.957   5.507 -0.7436  0.5848  0.0124
  851MOL0     O14785  13.882   3.934   5.584  0.3283  0.0485  0.6448
  851MOL0     C14786  13.900   3.798   5.625 -0.2485  0.1791  0.6075
  851MOL0     C14787  13.787   3.744   5.711  0.6513 -0.3992 -0.8379
  851MOL0     C14788  13.822   3.616   5.766 -0.0082  0.8125  0.3093
  851MOL0     C14789  13.724   3.565   5.876  0.3161 -0.3497  1.0717
  851MOL0     C14790  13.768   3.438   5.957  0.6577 -0.1809  0.1390
  851MOL0     C14791  13.688   3.422   6.084 -0.7197  0.6910 -0.5070
  851MOL0     C14792  13.755   3.303   6.159  0.5701 -0.4597 -0.0520
  851MOL0     C14793  13.889   3.344   6.236  0.5183  0.2860  0.2163
  851MOL0    Cl14794  13.981   3.200   6.297 -0.1172 -0.2070  0.0396
  851MOL0     C14795  13.709   3.869   5.419 -0.2073 -0.4529  0.5676
  851MOL0     C14796  13.576   3.901   5.374  0.1633 -0.3047  1.2671
  851MOL0     O14797  13.269   3.874   5.487 -0.6881 -0.4719  0.0104
  851MOL0     C14798  13.061   3.876   5.324 -0.3963  1.2569  0.1780
  851MOL0     C14799  12.945   3.865   5.250  0.2105 -0.1240  0.1946
  851MOL0     N14800  12.284   4.172   4.751  0.0790 -0.0148  0.0508
  851MOL0     N14801  12.173   4.149   4.694  0.0371 -0.7792 -0.2592
  851MOL0     C14802  11.263   4.403   4.325  0.0784 -0.7551  0.1778
  851MOL0     C14803  11.127   4.420   4.345  0.2019 -0.3856  0.4059
  851MOL0     C14804  10.729   4.577   4.545 -0.3507  0.8618  0.7671
  851MOL0     C14805  10.708   4.685   4.459 -0.0270 -0.7733 -0.8829
  851MOL0     C14806  10.587   4.742   4.454  0.0919 -0.0418 -0.6384
  851MOL0     C14807  10.482   4.713   4.548  0.4684 -0.1573  1.8537
  851MOL0     O14808  10.360   4.777   4.527  0.6245 -0.5152  0.5300
  851MOL0     C14809  10.256   4.752   4.623  0.3990 -0.2429 -0.2330
  851MOL0     C14810  10.137   4.841   4.596 -0.1015  0.4077 -0.6230
  851MOL0     C14811  10.070   4.831   4.459 -0.2475  0.3997 -0.3495
  851MOL0     C14812   9.932   4.891   4.452  0.4461  0.2773 -0.6114
  851MOL0     C14813   9.828   4.809   4.505  0.9403  0.1099  0.9697
  851MOL0     C14814   9.742   4.748   4.563  0.1517 -0.1433  0.1964
  851MOL0     C14815  10.506   4.607   4.631  0.5960  0.1829  0.0279
  851MOL0     C14816  10.626   4.537   4.632  0.2861 -0.7683  0.3354
  851MOL0     C14817  10.650   4.418   4.719  0.3134  0.0430  0.3048
  851MOL0     H14818  11.108   4.712   4.524  2.7657  1.9193 -1.2952
  851MOL0     H14819  11.357   4.650   4.541 -0.1775 -0.0216  0.9579
  851MOL0     H14820  11.673   4.530   4.409 -1.3909 -0.8921 -2.2538
  851MOL0     H14821  11.571   4.638   4.485  1.9285  0.0986  2.2861
  851MOL0     H14822  11.510   4.473   4.671 -0.0950  2.6390 -0.2933
  851MOL0     H14823  11.688   4.484   4.632  1.8208  0.2755 -4.0977
  851MOL0     H14824  11.631   4.289   4.479 -1.0860 -0.0965 -0.5203
  851MOL0     H14825  11.485   4.276   4.572  0.4391 -0.4006  0.8737
  851MOL0     H14826  11.753   4.281   4.715 -0.2441  1.2076  1.1773
  851MOL0     H14827  11.577   4.243   4.771  0.1067  2.5267 -0.4208
  851MOL0     H14828  11.558   4.049   4.649  1.2913 -1.9842 -0.4439
  851MOL0     H14829  11.713   4.073   4.565  0.3082  2.3026 -0.0266
  851MOL0     H14830  11.662   3.997   4.851 -2.7562  0.6224 -1.0106
  851MOL0     H14831  11.746   3.896   4.730 -1.4478  0.5002 -1.0298
  851MOL0     H14832  11.886   4.002   4.918  1.7274  1.0914  0.4896
  851MOL0     H14833  11.873   4.153   4.843  0.4687  0.1932 -1.3141
  851MOL0     H14834  11.996   3.909   4.701 -0.0507 -0.2280  0.1909
  851MOL0     H14835  11.959   4.057   4.625  0.3541  3.6404  1.6060
  851MOL0     H14836  12.138   3.997   4.982 -0.1935 -0.5391 -1.7773
  851MOL0     H14837  12.423   4.234   4.990 -2.6011  0.1610  0.9924
  851MOL0     H14838  12.365   4.085   5.070  1.1594  0.9791  0.6510
  851MOL0     H14839  12.512   3.949   4.954 -2.0345 -0.3399 -0.4044
  851MOL0     H14840  12.547   4.053   4.818  1.0050 -3.0815  0.7022
  851MOL0     H14841  12.632   4.156   5.079  2.0202  3.1717 -0.5789
  851MOL0     H14842  12.654   4.208   4.915 -0.8916  0.3613 -0.2954
  851MOL0     H14843  12.854   4.105   4.938 -1.5294  1.6772  1.4239
  851MOL0     H14844  12.771   3.956   4.907  2.8739 -2.1263  1.3931
  851MOL0     H14845  12.990   4.168   5.089 -0.5696  1.2610  2.4015
  851MOL0     H14846  13.193   4.167   5.213 -0.2586  0.3120 -0.1458
  851MOL0     H14847  13.513   4.192   5.523 -1.3631 -0.4823  0.9564
  851MOL0     H14848  13.742   4.128   5.627 -1.0890 -0.7816  0.4729
  851MOL0     H14849  13.902   3.735   5.536  0.8840 -2.2629  2.2274
  851MOL0     H14850  13.996   3.790   5.677 -1.1428 -3.4609  1.9739
  851MOL0     H14851  13.781   3.826   5.782  0.8598 -1.2606  0.2032
  851MOL0     H14852  13.692   3.732   5.657 -0.1679  1.1115  0.1979
  851MOL0     H14853  13.833   3.538   5.690  1.2075  0.1400  1.1455
  851MOL0     H14854  13.925   3.618   5.803  0.4295 -1.3439 -0.6674
  851MOL0     H14855  13.626   3.544   5.831  1.1047  1.7394 -1.9417
  851MOL0     H14856  13.719   3.651   5.943  1.8882 -0.0874  0.8777
  851MOL0     H14857  13.873   3.456   5.982  0.4360  3.1278 -0.8387
  851MOL0     H14858  13.753   3.347   5.898  0.3421 -0.3845  0.5258
  851MOL0     H14859  13.711   3.502   6.154  3.2864 -2.2670  1.9528
  851MOL0     H14860  13.580   3.412   6.069 -1.1673  2.3550  1.2833
  851MOL0     H14861  13.776   3.223   6.087  1.2124 -2.2473  2.0460
  851MOL0     H14862  13.685   3.259   6.230 -0.8066 -1.2346 -1.7954
  851MOL0     H14863  13.940   3.402   6.158  2.2412 -1.0854  0.2710
  851MOL0     H14864  13.862   3.407   6.321 -1.8522  1.2216 -1.1085
  851MOL0     H14865  13.761   3.785   5.374 -3.2791 -2.8418  1.1404
  851MOL0     H14866  13.532   3.836   5.298  2.8273 -1.9568  1.0126
  851MOL0     H14867  13.069   3.781   5.375 -1.5310  1.0432 -0.0238
  851MOL0     H14868  12.883   3.776   5.252  2.6920 -1.9491  2.8462
  851MOL0     H14869  11.289   4.319   4.262 -0.2897 -1.9874  1.6182
  851MOL0     H14870  11.068   4.339   4.304 -2.2791  1.4253  0.1882
  851MOL0     H14871  10.780   4.724   4.389 -1.7834  2.9487 -0.8488
  851MOL0     H14872  10.572   4.818   4.378 -1.0962 -0.9679 -1.3602
  851MOL0     H14873  10.289   4.776   4.724 -1.3151 -1.4624  0.6663
  851MOL0     H14874  10.226   4.647   4.618  0.5014 -0.3060  0.4861
  851MOL0     H14875  10.156   4.948   4.614  1.7830  0.0070 -0.0062
  851MOL0     H14876  10.058   4.822   4.670 -0.3446  2.2766 -0.3310
  851MOL0     H14877  10.060   4.728   4.424 -2.3005  0.8623 -1.2671
  851MOL0     H14878  10.135   4.883   4.388  2.1483 -0.4305  1.1082
  851MOL0     H14879   9.944   4.991   4.495 -0.8350  0.5323 -0.8045
  851MOL0     H14880   9.922   4.890   4.343  1.5177 -0.2527 -0.7172
  851MOL0     H14881   9.677   4.704   4.636  1.3426 -2.6716 -0.1512
  851MOL0     H14882  10.422   4.581   4.696  0.2636 -1.0177 -0.8364
  851MOL0     H14883  10.557   4.397   4.772  1.6223  0.9949  3.1273
  851MOL0     H14884  10.689   4.332   4.664  0.8302 -0.0167  0.7568
  851MOL0     H14885  10.727   4.438   4.794  1.7175  1.5612 -1.4380
  852MOL0     O14886   8.989   5.801   2.633  0.5536 -0.2394  0.5487
  852MOL0     C14887   9.052   5.694   2.628  0.1893 -0.1972  0.0248
  852MOL0     O14888   9.162   5.671   2.562 -0.3716 -0.0427 -0.3897
  852MOL0     C14889   9.214   5.771   2.490  0.3154  0.2404 -0.4402
  852MOL0     C14890   9.211   5.760   2.354  0.6701 -0.5376  0.8817
  852MOL0     C14891   9.267   5.865   2.273 -0.5638  0.2012 -0.1501
  852MOL0     C14892   9.346   5.963   2.333 -0.4640  0.0629 -0.2910
  852MOL0     O14893   9.413   6.043   2.238  0.9587  0.0311 -0.0330
  852MOL0     C14894   9.548   6.084   2.265  0.2681 -0.1350 -0.3366
  852MOL0     C14895   9.558   6.237   2.205  0.5937  0.3714  0.2716
  852MOL0     C14896   9.689   6.314   2.230 -0.8020 -0.2296  0.0570
  852MOL0     C14897   9.804   6.267   2.145  1.4489 -0.1642  0.1773
  852MOL0     C14898   9.935   6.256   2.222 -0.3319 -0.0092  0.7459
  852MOL0     C14899  10.053   6.220   2.134 -1.0895  0.3062 -0.1675
  852MOL0     C14900  10.187   6.220   2.216 -0.2175  0.1713 -0.1224
  852MOL0     C14901  10.321   6.185   2.146  0.4751  0.3582  0.1627
  852MOL0     N14902  10.350   6.292   2.051  0.8908 -0.4125 -0.5100
  852MOL0     C14903  10.314   6.296   1.917  0.0496 -0.1472  0.0152
  852MOL0     C14904  10.343   6.413   1.869 -0.5928  0.3076  0.5353
  852MOL0     C14905  10.311   6.468   1.730  0.0178 -0.0778  0.7080
  852MOL0     C14906  10.174   6.431   1.679  0.3811  1.1666  0.0074
  852MOL0     C14907  10.137   6.484   1.544  1.0214  0.4545  0.4762
  852MOL0     C14908   9.995   6.458   1.504  0.0364  1.0959  0.1121
  852MOL0     O14909   9.913   6.541   1.593 -0.2487 -0.0256 -0.0038
  852MOL0     C14910   9.791   6.490   1.616  0.2966  0.2945 -0.9784
  852MOL0     C14911   9.701   6.477   1.517 -0.5624 -0.0910 -0.3939
  852MOL0     C14912   9.569   6.436   1.559  0.2617  0.1695 -0.3844
  852MOL0     C14913   9.528   6.411   1.688 -1.5571  0.1534  0.0032
  852MOL0     C14914   9.395   6.382   1.711  0.2251  0.2618 -0.0998
  852MOL0     O14915   9.348   6.339   1.830 -0.3389 -0.1631 -0.4498
  852MOL0     C14916   9.214   6.339   1.866 -0.3201 -0.3456  1.4140
  852MOL0     C14917   9.180   6.247   1.959  0.0336 -0.0460 -1.1175
  852MOL0     C14918   9.052   6.223   1.998 -0.5325  0.2804  0.4583
  852MOL0     C14919   8.944   6.288   1.942 -0.2856 -0.3694 -0.6292
  852MOL0     O14920   8.812   6.291   1.972  0.6630 -0.4875 -0.5556
  852MOL0     C14921   8.766   6.221   2.093 -0.0412 -0.2860  0.8474
  852MOL0     C14922   8.611   6.224   2.079  0.0355  0.6255  0.8449
  852MOL0     C14923   8.550   6.150   2.197  0.0887  0.5871  0.1715
  852MOL0     C14924   8.585   6.002   2.218  0.7814 -0.0350  0.2578
  852MOL0     C14925   8.486   5.960   2.321  0.9096  0.2805 -0.0460
  852MOL0     C14926   8.503   5.805   2.347 -0.1837  0.0388  0.6885
  852MOL0     C14927   8.409   5.760   2.459  0.6765  0.3703 -0.1103
  852MOL0     C14928   8.263   5.807   2.455 -0.4432  0.8511  0.5662
  852MOL0    Cl14929   8.183   5.756   2.611  0.2134 -0.0172  0.8163
  852MOL0     C14930   8.975   6.371   1.835  0.4013 -0.5080 -0.1203
  852MOL0     C14931   9.112   6.400   1.802  1.3228 -1.2499  0.8612
  852MOL0     O14932   9.320   6.386   1.615 -0.0372 -0.0077  0.8177
  852MOL0     C14933   9.625   6.432   1.791  0.4259  0.3078  0.8495
  852MOL0     C14934   9.752   6.475   1.752 -0.1695  0.3355  0.8526
  852MOL0     N14935  10.409   6.484   1.960  0.1492 -0.4744  0.5822
  852MOL0     N14936  10.407   6.413   2.070 -0.3530  1.0625 -0.0377
  852MOL0     C14937   9.353   5.970   2.471  0.3015 -0.4844 -0.6963
  852MOL0     C14938   9.284   5.873   2.549 -0.4002  0.4410 -1.2535
  852MOL0     C14939   8.996   5.577   2.711  0.7120  0.5209 -0.1880
  852MOL0     C14940   9.086   5.487   2.762  0.6493 -0.7565 -0.1474
  852MOL0     C14941   9.045   5.384   2.845 -0.4810  0.0203 -0.7166
  852MOL0     C14942   8.917   5.380   2.887  0.3129  0.6021 -0.9589
  852MOL0     O14943   8.894   5.274   2.978 -0.1413 -0.4998  0.1754
  852MOL0     C14944   8.758   5.237   3.000  0.0875  0.0780 -0.3110
  852MOL0     C14945   8.774   5.097   3.066 -0.1471 -0.7867 -0.5593
  852MOL0     C14946   8.641   5.028   3.104 -0.2862  0.4952  0.8136
  852MOL0     C14947   8.579   4.954   2.981  0.2691 -0.3041 -0.7534
  852MOL0     C14948   8.442   4.899   3.012  0.9130 -0.3962 -0.2979
  852MOL0     C14949   8.320   4.872   3.028  0.2991 -0.3371  0.2704
  852MOL0     C14950   8.825   5.460   2.840 -0.5635 -1.4242  0.6025
  852MOL0     C14951   8.857   5.560   2.742 -0.0645  1.0085  0.0362
  852MOL0     C14952   8.743   5.640   2.683  0.9528 -0.2790  0.5986
  852MOL0     H14953   9.160   5.676   2.308 -0.8086  0.9810 -0.3379
  852MOL0     H14954   9.262   5.844   2.167  1.5842 -0.4811 -0.1590
  852MOL0     H14955   9.566   6.093   2.372  3.5862 -2.3052 -0.5388
  852MOL0     H14956   9.625   6.017   2.225  0.1390 -0.6441  0.2570
  852MOL0     H14957   9.486   6.290   2.268  0.5896 -0.4239  0.9504
  852MOL0     H14958   9.529   6.253   2.101  3.0105  2.5762 -0.1641
  852MOL0     H14959   9.713   6.311   2.336  1.1091  0.8315 -0.2943
  852MOL0     H14960   9.665   6.420   2.216  0.9731  0.4307  1.6283
  852MOL0     H14961   9.778   6.168   2.107  0.2336 -0.7310  2.3455
  852MOL0     H14962   9.816   6.327   2.054 -0.5324  0.9356  0.5708
  852MOL0     H14963   9.961   6.352   2.268  3.3652 -0.8421  0.6944
  852MOL0     H14964   9.923   6.177   2.296 -3.9065 -1.2476 -0.8898
  852MOL0     H14965  10.041   6.121   2.090  0.8284 -0.2927  0.5424
  852MOL0     H14966  10.069   6.287   2.049 -0.1855  0.7123  0.3073
  852MOL0     H14967  10.169   6.144   2.293 -2.3857  1.8412  1.1345
  852MOL0     H14968  10.192   6.313   2.273 -0.3025 -0.2863  0.6442
  852MOL0     H14969  10.397   6.174   2.225 -0.1796 -3.5503  0.4178
  852MOL0     H14970  10.307   6.090   2.094 -0.1917  0.4439  0.1743
  852MOL0     H14971  10.267   6.211   1.869  1.1504 -1.0621  0.5159
  852MOL0     H14972  10.301   6.577   1.735 -1.5151  0.1322 -3.2740
  852MOL0     H14973  10.395   6.452   1.662  0.9264 -1.6216  2.1206
  852MOL0     H14974  10.168   6.322   1.671  1.3342  1.1903 -1.3430
  852MOL0     H14975  10.104   6.462   1.757  0.0599 -1.3773  0.8413
  852MOL0     H14976  10.190   6.423   1.469  1.3074 -0.4990  1.4288
  852MOL0     H14977  10.173   6.584   1.520  0.1857  0.3936 -1.1702
  852MOL0     H14978   9.970   6.353   1.514  1.2553  0.9191  1.8968
  852MOL0     H14979   9.959   6.495   1.408 -0.5237  2.2776  0.7499
  852MOL0     H14980   9.731   6.511   1.419  1.8422  1.6547  0.8517
  852MOL0     H14981   9.503   6.436   1.474 -0.4835 -1.4189  0.1624
  852MOL0     H14982   9.258   6.208   2.023 -1.5241  0.2757  1.1182
  852MOL0     H14983   9.046   6.148   2.076 -0.3534  0.5105  0.6960
  852MOL0     H14984   8.805   6.120   2.078 -0.4270 -0.1207 -1.8106
  852MOL0     H14985   8.806   6.263   2.185 -1.7014 -0.4626  1.6940
  852MOL0     H14986   8.563   6.321   2.063 -0.8001  0.2419  0.9954
  852MOL0     H14987   8.573   6.166   1.994 -0.3214  2.1143 -0.0446
  852MOL0     H14988   8.574   6.206   2.288 -1.4527  1.1929  0.2394
  852MOL0     H14989   8.441   6.151   2.184  0.0052  0.8657  0.8781
  852MOL0     H14990   8.684   5.998   2.263  1.0847  3.6686  0.2806
  852MOL0     H14991   8.567   5.947   2.126 -4.3323  0.6451  0.5414
  852MOL0     H14992   8.383   5.984   2.291  0.3088 -1.0372  0.8465
  852MOL0     H14993   8.502   6.017   2.413 -0.5409  1.4207 -0.4567
  852MOL0     H14994   8.480   5.750   2.256  0.5169  1.3484 -0.3119
  852MOL0     H14995   8.600   5.783   2.392 -0.5678  0.0627  1.5472
  852MOL0     H14996   8.446   5.785   2.559  1.5829 -0.2737 -0.2762
  852MOL0     H14997   8.411   5.651   2.453  0.2977  0.4457 -3.6064
  852MOL0     H14998   8.258   5.914   2.433 -0.7534  0.3245 -2.3864
  852MOL0     H14999   8.216   5.761   2.367 -0.3156 -0.6060  1.2297
  852MOL0     H15000   8.891   6.422   1.790  1.7258  0.8647 -1.1056
  852MOL0     H15001   9.138   6.468   1.721  1.5292  0.2877  2.1675
  852MOL0     H15002   9.607   6.417   1.896  0.3089 -3.3939  0.4189
  852MOL0     H15003   9.828   6.494   1.828 -2.2124  2.4634  2.5155
  852MOL0     H15004   9.408   6.047   2.524  1.5735 -1.7214 -0.1730
  852MOL0     H15005   9.295   5.874   2.657 -1.7946  3.6452 -1.0269
  852MOL0     H15006   9.188   5.484   2.726  0.5732  1.3039 -0.6560
  852MOL0     H15007   9.120   5.312   2.880  2.1453  1.2343 -3.3752
  852MOL0     H15008   8.706   5.217   2.906 -1.8722 -1.6864  1.0342
  852MOL0     H15009   8.704   5.312   3.058 -2.0157 -0.7575 -1.0827
  852MOL0     H15010   8.829   5.125   3.156  0.2820 -0.4163 -0.9284
  852MOL0     H15011   8.820   5.024   2.998  2.8110 -0.7184  1.2186
  852MOL0     H15012   8.571   5.102   3.146 -1.5881 -1.6732  2.6611
  852MOL0     H15013   8.675   4.968   3.188  2.2109  0.6805  0.0149
  852MOL0     H15014   8.563   5.021   2.896 -0.0742 -0.6512 -0.9668
  852MOL0     H15015   8.650   4.876   2.949 -1.1877 -1.8736 -0.3105
  852MOL0     H15016   8.216   4.853   3.045 -0.2254  0.9343 -1.2636
  852MOL0     H15017   8.719   5.454   2.863 -0.7484  0.5538  0.4407
  852MOL0     H15018   8.663   5.663   2.754  2.1340  0.1756  1.8247
  852MOL0     H15019   8.771   5.741   2.652  3.2781 -1.2975 -0.9407
  852MOL0     H15020   8.707   5.580   2.599  2.4970  2.3406 -2.1093
  853MOL0     O15021   2.350   5.867   6.412 -0.0160  0.4237  0.3800
  853MOL0     C15022   2.359   5.806   6.517 -0.6725 -0.1411 -0.2279
  853MOL0     O15023   2.471   5.789   6.588  0.0787 -0.5540 -0.2538
  853MOL0     C15024   2.558   5.894   6.582 -0.0790  0.7765 -0.1482
  853MOL0     C15025   2.558   6.002   6.663  0.7920 -1.2806 -0.6772
  853MOL0     C15026   2.658   6.092   6.660 -0.6282  0.0551 -0.3964
  853MOL0     C15027   2.774   6.069   6.581  1.2257  0.0879  0.7942
  853MOL0     O15028   2.874   6.156   6.581 -0.7116  0.1232  0.1719
  853MOL0     C15029   2.870   6.287   6.643  1.0269  0.3581  0.4255
  853MOL0     C15030   2.989   6.365   6.587 -0.4830 -0.3281 -0.1291
  853MOL0     C15031   3.132   6.299   6.607 -0.3170 -0.2224  0.2375
  853MOL0     C15032   3.244   6.413   6.595 -1.0408  0.1070  0.0470
  853MOL0     C15033   3.381   6.359   6.622 -0.1350 -0.0376 -0.4208
  853MOL0     C15034   3.416   6.251   6.515 -0.0360  0.0414  0.1958
  853MOL0     C15035   3.561   6.204   6.517  0.6437 -0.2932 -0.1699
  853MOL0     C15036   3.608   6.120   6.394 -0.2132  0.0149 -0.2301
  853MOL0     N15037   3.751   6.148   6.372  0.5433  1.1357  0.5895
  853MOL0     C15038   3.854   6.112   6.452  0.6889  1.1514  0.2193
  853MOL0     C15039   3.965   6.174   6.399  0.9368  0.4338 -0.9695
  853MOL0     C15040   4.104   6.146   6.458  0.1549  0.2068 -0.2710
  853MOL0     C15041   4.221   6.219   6.404 -0.7906  0.0582 -0.1602
  853MOL0     C15042   4.360   6.184   6.463 -0.2053 -0.1058 -0.2885
  853MOL0     C15043   4.470   6.253   6.383 -0.5353 -0.3723  0.0513
  853MOL0     O15044   4.594   6.188   6.402  0.5310  0.1978  0.8912
  853MOL0     C15045   4.694   6.217   6.489 -0.2754  0.0509 -1.5657
  853MOL0     C15046   4.820   6.156   6.485  1.0408 -0.3788  0.0296
  853MOL0     C15047   4.919   6.206   6.568 -0.2512 -0.5912  0.6196
  853MOL0     C15048   4.895   6.318   6.654  0.4294 -0.3059  0.2050
  853MOL0     C15049   5.005   6.370   6.737  0.1541 -0.0303 -0.3880
  853MOL0     O15050   5.131   6.320   6.712 -0.2650  0.9826 -0.1960
  853MOL0     C15051   5.254   6.390   6.729  0.9037 -0.1168 -0.8859
  853MOL0     C15052   5.267   6.523   6.765 -0.1675  0.1002 -0.0332
  853MOL0     C15053   5.397   6.567   6.808 -0.2690  0.2578 -0.8405
  853MOL0     C15054   5.512   6.490   6.791  0.7779  0.0488  0.1872
  853MOL0     O15055   5.632   6.543   6.833  0.2069 -0.0238 -0.9239
  853MOL0     C15056   5.721   6.566   6.721  0.4161  0.0240  1.1269
  853MOL0     C15057   5.861   6.625   6.759 -0.8530  0.1844 -0.0389
  853MOL0     C15058   5.852   6.762   6.823 -0.2338 -0.0372  0.2734
  853MOL0     C15059   6.000   6.798   6.865 -0.2867  0.1788 -0.7990
  853MOL0     C15060   6.033   6.946   6.881  0.3270  1.0800 -0.1769
  853MOL0     C15061   5.944   7.019   6.986  0.2698  0.8005 -0.1187
  853MOL0     C15062   5.933   6.963   7.129  0.1017  0.6462 -0.1328
  853MOL0     C15063   6.061   6.939   7.212  0.3472  0.0536 -0.0873
  853MOL0    Cl15064   6.022   6.875   7.368  0.2628  0.1863  0.1396
  853MOL0     C15065   5.498   6.361   6.745 -0.2761  0.3296 -0.7858
  853MOL0     C15066   5.369   6.313   6.717 -0.5658  0.0428  0.5693
  853MOL0     O15067   4.978   6.450   6.825 -0.0468  0.0836  0.4341
  853MOL0     C15068   4.760   6.369   6.663  0.2671 -0.8193 -0.1314
  853MOL0     C15069   4.665   6.316   6.584 -0.4215 -0.2009  0.1623
  853MOL0     N15070   3.928   6.258   6.300  0.2166  0.5922  0.8379
  853MOL0     N15071   3.797   6.232   6.278  0.3421 -0.1420 -0.6041
  853MOL0     C15072   2.777   5.952   6.514 -0.4978  0.4965 -0.9083
  853MOL0     C15073   2.676   5.862   6.511  0.5334 -0.7970  0.1921
  853MOL0     C15074   2.233   5.753   6.580  0.0080 -0.1508  0.7347
  853MOL0     C15075   2.236   5.622   6.641 -0.0197 -0.4601 -0.5357
  853MOL0     C15076   2.131   5.586   6.731 -0.4337 -0.1194  0.3140
  853MOL0     C15077   2.013   5.659   6.729  0.3168  0.3041 -0.5316
  853MOL0     O15078   1.914   5.608   6.808 -0.1741  0.0983  0.1431
  853MOL0     C15079   1.786   5.667   6.804  1.1658 -0.4993 -0.4445
  853MOL0     C15080   1.678   5.584   6.889  0.3089  0.3495  0.3992
  853MOL0     C15081   1.542   5.657   6.880  0.2814  0.6797 -0.0053
  853MOL0     C15082   1.450   5.599   6.984 -0.2874  0.3162  1.1038
  853MOL0     C15083   1.397   5.470   6.944  0.4306 -0.5028  0.8695
  853MOL0     C15084   1.345   5.366   6.942  1.1920 -0.2307 -0.4707
  853MOL0     C15085   2.004   5.776   6.656 -0.0532  0.0134 -0.6503
  853MOL0     C15086   2.117   5.830   6.585  0.6712  0.7258 -0.0133
  853MOL0     C15087   2.105   5.977   6.539  0.4214 -0.0852  0.5384
  853MOL0     H15088   2.472   6.021   6.727  0.7292  2.3187 -1.6228
  853MOL0     H15089   2.653   6.183   6.719 -3.6365 -0.6796  0.6768
  853MOL0     H15090   2.779   6.339   6.611 -0.5223 -2.5380 -0.2340
  853MOL0     H15091   2.874   6.284   6.752  1.6806  1.1029  0.4282
  853MOL0     H15092   2.974   6.460   6.640 -2.4095 -0.2155 -0.7893
  853MOL0     H15093   2.979   6.396   6.483  3.3674 -1.1620 -0.9090
  853MOL0     H15094   3.152   6.222   6.532  0.5921  0.7559 -0.5572
  853MOL0     H15095   3.129   6.256   6.707 -0.6451  2.2210  1.3514
  853MOL0     H15096   3.238   6.466   6.500  0.4074  2.9815  1.4452
  853MOL0     H15097   3.220   6.491   6.668 -1.7471 -0.1734  0.1228
  853MOL0     H15098   3.453   6.441   6.617  2.0568 -1.7129  1.5542
  853MOL0     H15099   3.388   6.312   6.720  2.0905  2.6191  0.8344
  853MOL0     H15100   3.347   6.167   6.529  1.6927 -1.7396 -1.5678
  853MOL0     H15101   3.399   6.295   6.417 -0.2496 -1.9457 -0.7020
  853MOL0     H15102   3.563   6.139   6.605  1.6319 -0.1435 -0.0685
  853MOL0     H15103   3.630   6.287   6.532  2.7798 -1.3685 -3.0289
  853MOL0     H15104   3.608   6.012   6.409  0.0307  0.2552  1.7326
  853MOL0     H15105   3.543   6.150   6.311  0.1923 -0.0178 -0.5640
  853MOL0     H15106   3.863   6.045   6.538  0.6851 -1.0986 -1.4339
  853MOL0     H15107   4.103   6.160   6.566  1.6443 -0.6236 -0.1226
  853MOL0     H15108   4.116   6.040   6.435 -1.8881  0.0256 -0.6802
  853MOL0     H15109   4.220   6.187   6.300 -1.9225  0.9659 -0.4450
  853MOL0     H15110   4.212   6.327   6.416  4.7227  0.5558  2.9281
  853MOL0     H15111   4.383   6.077   6.461  2.7685  0.4437 -0.3802
  853MOL0     H15112   4.360   6.223   6.565  0.6148  2.7427 -1.2903
  853MOL0     H15113   4.469   6.360   6.407  2.6077 -0.4199  0.7866
  853MOL0     H15114   4.456   6.238   6.275  0.1303 -4.7588  0.3973
  853MOL0     H15115   4.827   6.087   6.402  2.5823 -0.2423  0.0053
  853MOL0     H15116   5.016   6.159   6.583  0.8554  1.3970  0.0346
  853MOL0     H15117   5.179   6.587   6.770 -0.3011 -0.1509  1.9378
  853MOL0     H15118   5.396   6.663   6.859  0.6895 -1.3088  2.3942
  853MOL0     H15119   5.743   6.471   6.672 -1.3899 -0.0589  0.4251
  853MOL0     H15120   5.665   6.632   6.655  1.2845 -0.0292  0.3079
  853MOL0     H15121   5.914   6.556   6.824  2.2644  0.2075 -2.3460
  853MOL0     H15122   5.920   6.627   6.667 -0.2613  0.1782  0.3417
  853MOL0     H15123   5.807   6.826   6.746  0.2483 -2.0252 -1.7823
  853MOL0     H15124   5.795   6.751   6.916  2.0189 -1.6404  1.5847
  853MOL0     H15125   6.072   6.753   6.796 -0.3460 -0.1470 -0.6532
  853MOL0     H15126   6.013   6.752   6.964 -0.7823 -0.3301 -0.9582
  853MOL0     H15127   6.029   6.994   6.783 -4.7050  1.0010 -0.2288
  853MOL0     H15128   6.133   6.965   6.923 -0.3017 -1.7352  3.0142
  853MOL0     H15129   5.977   7.123   6.993 -0.2937  0.9294  0.8792
  853MOL0     H15130   5.839   7.016   6.956 -0.0491  1.4967  0.8761
  853MOL0     H15131   5.871   6.873   7.122 -0.9347  1.3387 -0.0383
  853MOL0     H15132   5.873   7.030   7.192 -2.1299 -2.3246  1.1443
  853MOL0     H15133   6.114   6.861   7.157  0.5703  0.5726 -0.6160
  853MOL0     H15134   6.111   7.036   7.224  3.1650 -1.4973  2.0617
  853MOL0     H15135   5.586   6.300   6.731 -0.4020  0.5226 -2.6544
  853MOL0     H15136   5.354   6.207   6.700 -0.6264 -0.2712  2.3999
  853MOL0     H15137   4.736   6.445   6.737  0.3738  0.0979 -1.0164
  853MOL0     H15138   4.562   6.346   6.600 -0.6198 -1.3398  1.1729
  853MOL0     H15139   2.871   5.934   6.463  0.2193  0.8910  0.2580
  853MOL0     H15140   2.676   5.769   6.454 -2.5387 -2.0569  1.9717
  853MOL0     H15141   2.330   5.571   6.621 -0.3472 -0.9648 -0.8101
  853MOL0     H15142   2.145   5.497   6.792 -0.7695  0.5492  1.4021
  853MOL0     H15143   1.755   5.692   6.703  2.1761 -1.7583 -1.0948
  853MOL0     H15144   1.795   5.768   6.844 -1.6624 -0.3361 -0.0345
  853MOL0     H15145   1.715   5.572   6.991  2.0758 -3.9092 -0.5289
  853MOL0     H15146   1.685   5.485   6.843  0.4428 -0.0776  1.3146
  853MOL0     H15147   1.505   5.636   6.779 -0.7781  0.6597  0.3669
  853MOL0     H15148   1.547   5.763   6.904  3.5508  0.7338 -0.5211
  853MOL0     H15149   1.497   5.595   7.083  1.7298  2.2019  0.2844
  853MOL0     H15150   1.365   5.666   6.998 -1.5599 -0.9155 -0.3743
  853MOL0     H15151   1.307   5.266   6.930 -0.2088  0.1651  0.4493
  853MOL0     H15152   1.907   5.824   6.662 -0.2477 -0.4958  0.9417
  853MOL0     H15153   2.199   6.032   6.548 -0.2495  2.8105 -5.2258
  853MOL0     H15154   2.085   5.976   6.432  0.7195  0.2298  0.4757
  853MOL0     H15155   2.025   6.023   6.598  0.9535  0.6297  0.7268
  854MOL0     O15156   8.516   3.818  10.209 -0.0556 -0.4367  0.6153
  854MOL0     C15157   8.515   3.923  10.270  0.4943  1.4372  0.2496
  854MOL0     O15158   8.604   3.947  10.371 -0.1963  0.7347 -1.0263
  854MOL0     C15159   8.673   3.845  10.438 -0.4932  0.2720  0.3293
  854MOL0     C15160   8.670   3.704  10.418 -0.6955  0.9242 -0.8731
  854MOL0     C15161   8.743   3.610  10.501  0.2887 -0.1087  0.3991
  854MOL0     C15162   8.829   3.659  10.605 -0.0996 -0.6242 -0.8505
  854MOL0     O15163   8.919   3.576  10.674 -0.1720 -0.2147 -0.2015
  854MOL0     C15164   8.926   3.602  10.816 -0.7207  0.3197 -0.3933
  854MOL0     C15165   8.961   3.471  10.883  0.1172  0.1499  0.2069
  854MOL0     C15166   9.093   3.398  10.829 -0.5723 -0.6159  0.1673
  854MOL0     C15167   9.217   3.481  10.832 -0.9906  0.1906 -0.2024
  854MOL0     C15168   9.338   3.398  10.778  0.7291  0.5349 -0.7655
  854MOL0     C15169   9.366   3.287  10.872 -0.8189 -0.2808 -0.3022
  854MOL0     C15170   9.503   3.219  10.840 -0.7432  0.1242  0.7875
  854MOL0     C15171   9.631   3.294  10.880 -0.5641 -0.0689 -0.6297
  854MOL0     N15172   9.752   3.217  10.848  0.5421 -0.1345  0.0690
  854MOL0     C15173   9.766   3.084  10.886  0.0888 -0.3016  0.3952
  854MOL0     C15174   9.886   3.052  10.825  0.0437 -0.4045  0.0428
  854MOL0     C15175   9.959   2.921  10.854 -0.0682 -0.2816  0.7599
  854MOL0     C15176  10.108   2.938  10.846 -0.5794  0.5280  0.1359
  854MOL0     C15177  10.177   2.807  10.846  0.0266 -0.4451 -0.0708
  854MOL0     C15178  10.327   2.827  10.883 -0.1683 -0.1060  1.3933
  854MOL0     O15179  10.394   2.703  10.876 -0.4916 -0.0406  0.3951
  854MOL0     C15180  10.535   2.707  10.888 -0.2408 -0.0948 -0.0067
  854MOL0     C15181  10.597   2.585  10.879 -0.3481 -0.0435  0.8207
  854MOL0     C15182  10.742   2.580  10.885  0.4207  0.3451 -0.2215
  854MOL0     C15183  10.824   2.686  10.915 -0.4815 -0.1859 -0.0976
  854MOL0     C15184  10.974   2.667  10.931 -0.4192 -0.1236  0.1261
  854MOL0     O15185  11.042   2.773  10.939  0.0349 -0.3295  0.6169
  854MOL0     C15186  11.174   2.757  10.945 -0.5037  0.3585  0.1279
  854MOL0     C15187  11.250   2.676  10.857 -0.6138  0.0519  0.0448
  854MOL0     C15188  11.384   2.673  10.869  0.1023 -0.3183 -0.1849
  854MOL0     C15189  11.456   2.744  10.969  1.1006  1.2507  0.0769
  854MOL0     O15190  11.594   2.740  10.966 -0.8240  0.0320 -0.0084
  854MOL0     C15191  11.655   2.714  11.090  1.0670  0.7975  0.0657
  854MOL0     C15192  11.814   2.706  11.058  0.9353  0.9723  0.0964
  854MOL0     C15193  11.887   2.609  11.148  0.0640 -0.4144  0.1529
  854MOL0     C15194  12.032   2.600  11.106  0.8020  0.6326  0.6862
  854MOL0     C15195  12.116   2.491  11.180 -0.1303  0.0616 -0.3080
  854MOL0     C15196  12.264   2.499  11.121  0.2006 -0.4181  0.0768
  854MOL0     C15197  12.354   2.401  11.195 -0.1392 -0.4921  0.9107
  854MOL0     C15198  12.497   2.423  11.150  0.3620 -0.6617 -0.3772
  854MOL0    Cl15199  12.610   2.325  11.250 -0.4753  0.2155  0.1583
  854MOL0     C15200  11.377   2.811  11.062 -0.6959  0.6997  0.4295
  854MOL0     C15201  11.243   2.816  11.045 -0.5002 -0.1782 -0.1986
  854MOL0     O15202  11.017   2.553  10.929 -1.3075  0.2939  0.1702
  854MOL0     C15203  10.758   2.811  10.927  0.7256 -0.4221  0.4101
  854MOL0     C15204  10.614   2.816  10.917 -0.6822 -0.1478 -0.0101
  854MOL0     N15205   9.932   3.160  10.749 -0.1597  0.5237 -0.5495
  854MOL0     N15206   9.844   3.252  10.759 -0.4358 -0.9278 -0.4827
  854MOL0     C15207   8.821   3.793  10.631 -0.2196 -0.1288 -0.0288
  854MOL0     C15208   8.750   3.887  10.546  0.6293  0.6114  0.0797
  854MOL0     C15209   8.405   4.015  10.246  0.4240  0.1495 -0.7429
  854MOL0     C15210   8.355   4.010  10.109 -0.7546 -0.5965  0.2179
  854MOL0     C15211   8.242   4.097  10.083  0.1162  0.5624  0.1624
  854MOL0     C15212   8.185   4.172  10.189 -0.4271 -0.4038  0.9439
  854MOL0     O15213   8.078   4.254  10.168  0.0965 -0.7364 -0.5947
  854MOL0     C15214   7.990   4.231  10.053 -0.1341 -0.0631  0.2696
  854MOL0     C15215   7.868   4.315  10.079  0.5869 -0.5300 -0.9876
  854MOL0     C15216   7.768   4.295   9.966 -0.8806  0.7644  0.4026
  854MOL0     C15217   7.637   4.356   9.989  0.7587 -1.0126  1.1750
  854MOL0     C15218   7.548   4.291  10.082  0.1888  0.1317  0.9302
  854MOL0     C15219   7.471   4.237  10.152  0.7787 -0.6103 -0.5199
  854MOL0     C15220   8.225   4.165  10.317 -0.7787 -0.3220 -0.6597
  854MOL0     C15221   8.342   4.095  10.347 -0.2815  0.4394 -0.2592
  854MOL0     C15222   8.382   4.116  10.491 -0.3487 -0.3956 -0.4854
  854MOL0     H15223   8.609   3.649  10.347  0.0126 -1.3258  0.1775
  854MOL0     H15224   8.751   3.504  10.480  0.3291 -0.6368  2.8110
  854MOL0     H15225   9.004   3.676  10.837 -1.4978  1.1183 -0.2457
  854MOL0     H15226   8.829   3.639  10.853 -2.3349 -1.3226 -2.6980
  854MOL0     H15227   8.877   3.402  10.872  0.0406  0.3540 -0.5448
  854MOL0     H15228   8.973   3.492  10.989  3.0167  2.1436 -0.3841
  854MOL0     H15229   9.078   3.372  10.723  1.1887  1.2468 -0.6154
  854MOL0     H15230   9.104   3.302  10.880  2.9495 -1.3014 -1.5212
  854MOL0     H15231   9.215   3.565  10.762 -0.0253  0.9609  0.6767
  854MOL0     H15232   9.249   3.516  10.930 -1.9308  0.0494  0.1680
  854MOL0     H15233   9.312   3.361  10.679 -2.4735  1.5557 -0.4314
  854MOL0     H15234   9.419   3.470  10.766  0.4535  1.3948  1.8284
  854MOL0     H15235   9.364   3.326  10.974 -2.5155 -3.0832  0.8678
  854MOL0     H15236   9.294   3.205  10.862 -1.9230  0.9062 -3.1227
  854MOL0     H15237   9.496   3.206  10.732  0.1039  1.5128  0.5396
  854MOL0     H15238   9.516   3.121  10.888  0.1768 -0.7706 -1.1891
  854MOL0     H15239   9.638   3.392  10.832 -0.7411 -0.8331 -2.2710
  854MOL0     H15240   9.619   3.300  10.989 -0.3568 -0.3973 -0.5892
  854MOL0     H15241   9.708   3.014  10.946  0.1749 -1.9465 -1.3454
  854MOL0     H15242   9.943   2.894  10.959 -0.1220  1.1488  1.1435
  854MOL0     H15243   9.926   2.846  10.781 -0.2417  1.0262 -0.5499
  854MOL0     H15244  10.144   2.997  10.761  0.1230 -2.1766 -1.5696
  854MOL0     H15245  10.128   2.995  10.937  1.3002 -0.5910  0.4853
  854MOL0     H15246  10.169   2.755  10.751 -0.1228  1.4502 -1.1339
  854MOL0     H15247  10.119   2.744  10.915 -0.0403  0.0800  0.3633
  854MOL0     H15248  10.335   2.872  10.982  0.7287 -2.9225  2.7140
  854MOL0     H15249  10.374   2.897  10.812 -0.7095 -0.9756  0.1453
  854MOL0     H15250  10.543   2.493  10.860  1.8516 -1.8546  2.8032
  854MOL0     H15251  10.789   2.484  10.865 -3.1035 -1.8394  1.0556
  854MOL0     H15252  11.201   2.632  10.771 -2.2348 -1.5293  1.6920
  854MOL0     H15253  11.450   2.621  10.800 -1.5231  0.7162 -2.6438
  854MOL0     H15254  11.632   2.801  11.153 -0.2328 -0.1864  1.0175
  854MOL0     H15255  11.615   2.624  11.138  2.4803  0.6024  0.9289
  854MOL0     H15256  11.817   2.664  10.957 -3.2961  0.1865  0.1239
  854MOL0     H15257  11.860   2.805  11.050 -0.6975  1.7012 -0.5569
  854MOL0     H15258  11.887   2.647  11.250 -0.4541 -1.4768  0.5689
  854MOL0     H15259  11.835   2.512  11.151 -0.2050 -0.2523  1.0121
  854MOL0     H15260  12.083   2.697  11.116  2.6699  0.1313 -2.5878
  854MOL0     H15261  12.023   2.581  10.999 -2.3326 -0.5369  1.0653
  854MOL0     H15262  12.068   2.392  11.177 -1.0023  0.4867 -2.7026
  854MOL0     H15263  12.113   2.518  11.286 -1.2543  3.1436 -1.0180
  854MOL0     H15264  12.265   2.485  11.012  1.0215  2.3899 -0.3493
  854MOL0     H15265  12.303   2.601  11.120  0.4776 -0.5211  0.3620
  854MOL0     H15266  12.321   2.301  11.166 -2.8009  0.6628 -0.4655
  854MOL0     H15267  12.351   2.420  11.303  0.0798 -1.2949  1.0619
  854MOL0     H15268  12.497   2.396  11.044 -3.0473  0.9137 -0.9309
  854MOL0     H15269  12.524   2.529  11.148  0.6958 -0.7506 -2.2342
  854MOL0     H15270  11.418   2.845  11.157 -1.8104 -0.0930  1.2258
  854MOL0     H15271  11.187   2.861  11.127  1.4002  1.1081  0.4670
  854MOL0     H15272  10.821   2.889  10.969  1.2952  0.2380 -1.5799
  854MOL0     H15273  10.565   2.913  10.924 -3.2607 -1.3989  0.3247
  854MOL0     H15274   8.864   3.829  10.724 -0.2178 -0.2637  0.0214
  854MOL0     H15275   8.750   3.992  10.572  1.1244  1.0780 -1.6490
  854MOL0     H15276   8.395   3.950  10.028  0.2559 -1.4686  1.3382
  854MOL0     H15277   8.212   4.122   9.982  0.2120  1.6863  0.4059
  854MOL0     H15278   7.958   4.127  10.046  0.9531 -0.3748 -0.1516
  854MOL0     H15279   8.033   4.256   9.956  0.7266 -0.7458  0.4680
  854MOL0     H15280   7.889   4.419  10.104  0.8432 -0.8670  0.2608
  854MOL0     H15281   7.811   4.277  10.164 -0.8047  1.4292 -0.9910
  854MOL0     H15282   7.758   4.188   9.943  4.6324 -0.0151  0.2778
  854MOL0     H15283   7.813   4.357   9.887 -0.3716  1.6154  1.3430
  854MOL0     H15284   7.665   4.455  10.025 -0.4097 -0.5191  0.7925
  854MOL0     H15285   7.583   4.373   9.894  1.5122  0.1594  0.9321
  854MOL0     H15286   7.388   4.196  10.207 -0.0623 -0.3023 -1.5331
  854MOL0     H15287   8.162   4.212  10.392 -0.2780 -3.0631  1.6124
  854MOL0     H15288   8.304   4.173  10.544 -0.5904 -0.6930 -0.5144
  854MOL0     H15289   8.392   4.017  10.538  0.2405 -0.5226 -0.8759
  854MOL0     H15290   8.476   4.171  10.489 -0.7157  0.3852  1.3908
  855MOL0     O15291   1.328   7.987   8.399 -0.8722  0.5988  0.8995
  855MOL0     C15292   1.280   8.058   8.481  0.2796  1.3218  0.1808
  855MOL0     O15293   1.310   8.188   8.503 -0.0010  0.6499  0.9459
  855MOL0     C15294   1.437   8.232   8.451  0.5354  0.6650  0.1876
  855MOL0     C15295   1.526   8.266   8.545  0.5752  0.3585  0.4945
  855MOL0     C15296   1.642   8.318   8.513 -0.3266  0.3441  0.0917
  855MOL0     C15297   1.686   8.346   8.385 -0.4065  0.8893  0.0161
  855MOL0     O15298   1.817   8.380   8.347 -0.3474 -0.0948 -0.5445
  855MOL0     C15299   1.920   8.340   8.441  0.5986 -0.4149 -0.4002
  855MOL0     C15300   2.063   8.344   8.376 -0.1300 -0.7631  0.5207
  855MOL0     C15301   2.085   8.230   8.275  0.5616  0.0244  0.0725
  855MOL0     C15302   2.222   8.225   8.203 -0.0515  0.2243  0.0582
  855MOL0     C15303   2.220   8.140   8.080  0.6958 -0.3598  0.8004
  855MOL0     C15304   2.331   8.169   7.971  0.2268 -0.0806 -0.0728
  855MOL0     C15305   2.471   8.157   8.037  0.1043 -0.4478  0.1548
  855MOL0     C15306   2.507   8.016   8.080  0.9649  0.1974 -0.4173
  855MOL0     N15307   2.519   7.937   7.960  0.2248  0.0301  0.2985
  855MOL0     C15308   2.633   7.917   7.879  0.4790 -0.1816 -0.0348
  855MOL0     C15309   2.588   7.829   7.788  0.9904  0.2311 -0.5923
  855MOL0     C15310   2.659   7.783   7.667 -0.8331  0.0296  0.5129
  855MOL0     C15311   2.805   7.725   7.696 -0.6990  0.1276 -0.3705
  855MOL0     C15312   2.888   7.707   7.575  0.1653  0.2987  0.1257
  855MOL0     C15313   2.972   7.821   7.521  0.2450  0.1440 -1.1487
  855MOL0     O15314   3.104   7.814   7.589  0.0279  0.7112 -0.6755
  855MOL0     C15315   3.209   7.859   7.516  0.3075  0.2570  1.3131
  855MOL0     C15316   3.332   7.799   7.518 -0.4004  0.2754  0.5368
  855MOL0     C15317   3.443   7.855   7.445 -0.8733 -0.3555 -1.0994
  855MOL0     C15318   3.438   7.983   7.377  0.3344 -0.2470  0.5300
  855MOL0     C15319   3.562   8.046   7.317  0.1167 -0.5472  0.5056
  855MOL0     O15320   3.556   8.163   7.257  0.1295 -1.1525  0.2573
  855MOL0     C15321   3.657   8.232   7.199 -0.6458 -1.3995  0.8081
  855MOL0     C15322   3.793   8.189   7.190  0.1336 -0.3859 -0.9126
  855MOL0     C15323   3.885   8.262   7.125  0.1468  0.8661 -0.3742
  855MOL0     C15324   3.848   8.392   7.079 -1.1159  1.2293 -0.1535
  855MOL0     O15325   3.938   8.472   7.007  0.5674  0.0592  0.3685
  855MOL0     C15326   4.027   8.408   6.919  0.3319  0.3140  0.6032
  855MOL0     C15327   4.052   8.508   6.807 -0.4324 -0.2706 -0.2447
  855MOL0     C15328   4.177   8.479   6.719 -0.1241  0.1762 -0.3764
  855MOL0     C15329   4.138   8.463   6.574 -0.7733  0.6523 -0.4902
  855MOL0     C15330   4.250   8.498   6.470  0.2601 -0.0597 -0.0613
  855MOL0     C15331   4.197   8.517   6.329  0.6991  0.4889  0.3525
  855MOL0     C15332   4.122   8.389   6.262  0.4562  0.9550  0.1000
  855MOL0     C15333   4.062   8.423   6.119  0.0273  0.4721 -0.0948
  855MOL0    Cl15334   3.921   8.541   6.127 -0.1183  0.5292 -0.3716
  855MOL0     C15335   3.722   8.435   7.083 -0.1503  0.0636 -0.6036
  855MOL0     C15336   3.630   8.358   7.156  0.8096  1.0685 -0.3107
  855MOL0     O15337   3.661   7.977   7.328 -0.2503  0.0248 -0.6047
  855MOL0     C15338   3.309   8.041   7.371  0.3357 -0.2498 -0.1499
  855MOL0     C15339   3.203   7.981   7.443 -0.0110 -0.4112  0.2458
  855MOL0     N15340   2.462   7.784   7.826  0.5847  0.1315  0.0265
  855MOL0     N15341   2.430   7.846   7.930  1.1052 -0.0391 -0.0592
  855MOL0     C15342   1.590   8.309   8.282 -0.5352 -0.2639 -0.5472
  855MOL0     C15343   1.460   8.258   8.316  0.3067 -0.7343 -0.4154
  855MOL0     C15344   1.173   7.984   8.559  0.2489  0.1537 -0.7570
  855MOL0     C15345   1.119   7.859   8.512  0.0937  0.0629 -0.7165
  855MOL0     C15346   1.018   7.781   8.567  0.0142 -0.8502  0.1543
  855MOL0     C15347   0.958   7.833   8.680 -0.6911 -0.2192  0.4470
  855MOL0     O15348   0.867   7.768   8.746  0.8459  0.1069 -0.6545
  855MOL0     C15349   0.735   7.788   8.728  0.4531  0.2449  0.1621
  855MOL0     C15350   0.652   7.675   8.796 -0.8042 -0.4275 -0.7707
  855MOL0     C15351   0.506   7.679   8.753  0.8284 -0.5361  0.1661
  855MOL0     C15352   0.450   7.541   8.755  0.8550  0.6185 -0.5940
  855MOL0     C15353   0.300   7.548   8.746 -0.7195 -0.1042  0.9492
  855MOL0     C15354   0.181   7.564   8.739 -0.0069 -0.6307 -0.7203
  855MOL0     C15355   0.992   7.963   8.723 -0.4877  0.4597 -0.6604
  855MOL0     C15356   1.094   8.033   8.667 -0.7688 -0.1240  0.8218
  855MOL0     C15357   1.117   8.178   8.717  0.8316  0.7434 -0.0092
  855MOL0     H15358   1.512   8.231   8.647  3.6698 -1.1233  0.5326
  855MOL0     H15359   1.712   8.330   8.596 -0.3689  3.2151 -0.1677
  855MOL0     H15360   1.919   8.398   8.533  0.4724 -1.9342  0.5970
  855MOL0     H15361   1.901   8.241   8.484  0.9865  1.0837  3.6227
  855MOL0     H15362   2.138   8.341   8.456 -1.4471  0.0953  1.8224
  855MOL0     H15363   2.074   8.439   8.323 -2.2186  0.8032  2.7139
  855MOL0     H15364   2.006   8.235   8.200  0.9215 -0.6933 -0.3693
  855MOL0     H15365   2.065   8.138   8.332  0.0915 -0.0371 -0.1825
  855MOL0     H15366   2.242   8.330   8.181 -1.1896  0.4173 -0.1315
  855MOL0     H15367   2.308   8.197   8.264 -2.0650 -4.0454  1.3134
  855MOL0     H15368   2.224   8.035   8.109 -2.1063 -0.4359  1.1908
  855MOL0     H15369   2.125   8.147   8.026  0.2479  2.1162  1.7537
  855MOL0     H15370   2.324   8.099   7.887 -0.3887 -2.0015  1.4906
  855MOL0     H15371   2.326   8.265   7.919 -1.0163 -0.3583 -0.4980
  855MOL0     H15372   2.473   8.215   8.130  1.1962  0.3775 -0.3593
  855MOL0     H15373   2.542   8.196   7.963  0.5889 -2.4035 -0.4746
  855MOL0     H15374   2.601   8.003   8.135 -0.1238  2.3948  2.2004
  855MOL0     H15375   2.434   7.981   8.153  1.0068 -0.4020 -0.6556
  855MOL0     H15376   2.731   7.964   7.878  0.1598  0.5213  0.2968
  855MOL0     H15377   2.587   7.707   7.635 -0.0984 -1.4802  2.2385
  855MOL0     H15378   2.652   7.869   7.600  1.1410 -0.3674 -0.2679
  855MOL0     H15379   2.854   7.793   7.765 -1.4553 -0.4791  0.7973
  855MOL0     H15380   2.779   7.639   7.758  1.0649 -0.5871 -0.5498
  855MOL0     H15381   2.826   7.658   7.499 -0.0043  2.2698 -1.0786
  855MOL0     H15382   2.957   7.625   7.596 -1.2146 -0.9191  0.0175
  855MOL0     H15383   2.929   7.921   7.532 -0.8656 -0.2581 -1.7339
  855MOL0     H15384   2.980   7.805   7.413  0.2830 -1.9360 -0.8639
  855MOL0     H15385   3.349   7.698   7.556  2.0991  0.1095 -0.8330
  855MOL0     H15386   3.539   7.806   7.453 -0.2048  1.0781  0.1296
  855MOL0     H15387   3.834   8.100   7.236 -2.8105 -1.3498  0.0154
  855MOL0     H15388   3.987   8.224   7.130  0.1445  1.0181  2.0432
  855MOL0     H15389   4.122   8.384   6.966  0.1504  1.0552  1.3734
  855MOL0     H15390   3.988   8.316   6.875  1.2090  0.3711 -0.3198
  855MOL0     H15391   3.955   8.521   6.757 -0.7183  3.5069  0.9631
  855MOL0     H15392   4.074   8.603   6.857 -0.2607  0.6241 -1.9444
  855MOL0     H15393   4.253   8.557   6.729 -0.4031  0.4538 -0.3940
  855MOL0     H15394   4.234   8.393   6.756  0.8201  0.9879  0.1022
  855MOL0     H15395   4.052   8.525   6.550 -2.2797 -1.8780 -2.0698
  855MOL0     H15396   4.094   8.364   6.564 -1.5506  0.6452  2.1389
  855MOL0     H15397   4.323   8.417   6.481  0.8512  0.6037  1.0900
  855MOL0     H15398   4.293   8.593   6.503 -0.9926  0.4591  0.1085
  855MOL0     H15399   4.137   8.606   6.311 -0.8177 -0.9918 -2.7529
  855MOL0     H15400   4.283   8.538   6.265  1.4904  1.9388  1.8172
  855MOL0     H15401   4.036   8.357   6.322 -0.3853  1.6450 -0.7111
  855MOL0     H15402   4.200   8.312   6.268 -0.1769  0.3407  0.7258
  855MOL0     H15403   4.142   8.468   6.059  1.9130 -1.9873  0.4179
  855MOL0     H15404   4.024   8.328   6.083 -1.2711 -0.0634  2.4707
  855MOL0     H15405   3.694   8.530   7.037 -0.0221 -0.1667 -1.1682
  855MOL0     H15406   3.528   8.394   7.147 -0.2906 -1.7949 -0.3087
  855MOL0     H15407   3.288   8.133   7.318 -2.1391 -1.3126 -1.1727
  855MOL0     H15408   3.114   8.041   7.425  0.3264  0.1393  0.3677
  855MOL0     H15409   1.619   8.340   8.182  2.7164 -1.7852 -0.1655
  855MOL0     H15410   1.387   8.235   8.239 -0.6609  2.5753 -0.6523
  855MOL0     H15411   1.154   7.838   8.411 -2.4848  0.5399 -1.8021
  855MOL0     H15412   0.981   7.686   8.528 -0.4570 -0.8284  0.5445
  855MOL0     H15413   0.716   7.773   8.621  0.3743  0.2508  0.1756
  855MOL0     H15414   0.704   7.885   8.767  1.9931  1.2455 -0.9442
  855MOL0     H15415   0.667   7.680   8.904  3.7351 -2.6425 -1.0596
  855MOL0     H15416   0.704   7.584   8.766 -1.4278 -1.5342  1.2863
  855MOL0     H15417   0.499   7.716   8.651  0.0403 -2.9049 -0.6940
  855MOL0     H15418   0.456   7.748   8.822 -0.2484 -1.9662  0.8590
  855MOL0     H15419   0.487   7.483   8.671  0.4138 -1.5858  0.6594
  855MOL0     H15420   0.484   7.491   8.847  1.2795 -1.3491 -1.7708
  855MOL0     H15421   0.076   7.586   8.742  0.6208  3.0087 -1.6453
  855MOL0     H15422   0.948   8.000   8.816 -1.8404 -1.6420 -0.4001
  855MOL0     H15423   1.062   8.192   8.811 -0.4973  0.3440 -0.6909
  855MOL0     H15424   1.222   8.163   8.741  0.9314  0.1462 -0.7866
  855MOL0     H15425   1.091   8.251   8.640  0.9531  0.3534 -0.4206
  856MOL0     O15426  10.427   4.789  10.660  0.1375  0.5439 -0.1955
  856MOL0     C15427  10.313   4.748  10.641  0.3801  0.0707 -0.4014
  856MOL0     O15428  10.272   4.623  10.686  0.9999  0.2832 -0.4414
  856MOL0     C15429  10.344   4.554  10.778  0.1407 -0.5916  0.2379
  856MOL0     C15430  10.455   4.490  10.738  0.7340 -0.5609 -0.2949
  856MOL0     C15431  10.537   4.420  10.826 -0.1012 -0.3573 -0.5800
  856MOL0     C15432  10.497   4.419  10.958  0.5416 -0.5628  1.2131
  856MOL0     O15433  10.574   4.358  11.049  0.5299  0.3369 -0.5009
  856MOL0     C15434  10.512   4.244  11.108 -0.1886  0.1133  0.3211
  856MOL0     C15435  10.624   4.169  11.191 -0.4577  0.6659  0.1521
  856MOL0     C15436  10.729   4.114  11.109  0.4179 -0.1567 -0.3877
  856MOL0     C15437  10.852   4.204  11.097  0.8527 -0.3791  0.1749
  856MOL0     C15438  10.980   4.133  11.099 -0.4254 -0.4194 -1.1176
  856MOL0     C15439  11.095   4.216  11.034 -0.2318  0.3801  0.1035
  856MOL0     C15440  11.222   4.146  11.025 -1.2290 -0.9491 -0.4993
  856MOL0     C15441  11.238   4.073  10.890 -0.3309 -0.0612  0.0590
  856MOL0     N15442  11.367   3.992  10.869  0.0154 -0.4356 -0.2663
  856MOL0     C15443  11.494   4.003  10.931 -0.0705  0.4284 -0.0611
  856MOL0     C15444  11.561   3.894  10.897  0.4285 -0.0137 -0.2854
  856MOL0     C15445  11.711   3.873  10.921 -0.4657 -1.0350  0.1061
  856MOL0     C15446  11.784   3.945  10.808  0.7575  0.2238  0.0297
  856MOL0     C15447  11.807   4.097  10.845  0.1891 -0.6554  0.5282
  856MOL0     C15448  11.920   4.110  10.948 -0.1819  0.1140  0.2044
  856MOL0     O15449  12.049   4.086  10.887 -0.6656 -0.0096 -0.0886
  856MOL0     C15450  12.163   4.127  10.945  0.2665  0.4195 -0.5453
  856MOL0     C15451  12.281   4.090  10.883  0.7888 -0.1668 -0.2904
  856MOL0     C15452  12.400   4.118  10.947 -0.4057  0.6870  0.1145
  856MOL0     C15453  12.411   4.183  11.068  0.4027 -0.8168 -0.4248
  856MOL0     C15454  12.534   4.204  11.137  0.7654  0.6651  0.9971
  856MOL0     O15455  12.522   4.217  11.273 -0.0581 -0.4160  0.3388
  856MOL0     C15456  12.649   4.218  11.339 -0.2702 -0.0532 -0.9784
  856MOL0     C15457  12.685   4.100  11.397 -0.4643  0.0745 -0.7620
  856MOL0     C15458  12.818   4.082  11.444 -0.4053 -0.1290 -0.6657
  856MOL0     C15459  12.905   4.188  11.456 -0.1182 -0.9347  0.0132
  856MOL0     O15460  13.023   4.167  11.522  0.7793  0.0168  0.7197
  856MOL0     C15461  13.119   4.275  11.536  0.8689 -0.2476  0.2395
  856MOL0     C15462  13.116   4.350  11.670 -0.5295 -0.1359  0.4984
  856MOL0     C15463  13.230   4.451  11.666  0.7826 -0.7779 -0.7347
  856MOL0     C15464  13.185   4.579  11.736 -0.8255  0.1964 -0.1906
  856MOL0     C15465  13.315   4.648  11.793  0.0393  1.1216 -0.2666
  856MOL0     C15466  13.425   4.678  11.698  0.2439  0.2806  0.1623
  856MOL0     C15467  13.539   4.749  11.782 -0.2067 -0.1709 -0.0532
  856MOL0     C15468  13.611   4.856  11.700  0.2297  0.4481 -0.4660
  856MOL0    Cl15469  13.702   4.791  11.561 -0.1341 -0.0106 -0.3615
  856MOL0     C15470  12.860   4.311  11.397 -0.3666 -0.2725  0.8830
  856MOL0     C15471  12.735   4.327  11.333 -0.3080 -0.0251  0.4187
  856MOL0     O15472  12.636   4.202  11.074  0.1413 -0.5503  0.3140
  856MOL0     C15473  12.286   4.220  11.125  0.3552  0.1224  0.0787
  856MOL0     C15474  12.166   4.197  11.067 -0.7682 -0.0833 -0.3582
  856MOL0     N15475  11.471   3.799  10.826 -0.2130 -0.4564  0.3202
  856MOL0     N15476  11.367   3.871  10.803 -0.2474  0.4437  0.0400
  856MOL0     C15477  10.369   4.461  10.992 -0.1617  0.4544 -0.1918
  856MOL0     C15478  10.301   4.538  10.903  0.6201  0.6662 -0.5163
  856MOL0     C15479  10.212   4.830  10.563  0.7593 -0.1990 -0.1445
  856MOL0     C15480  10.077   4.785  10.563  0.3934 -0.5067  0.3895
  856MOL0     C15481   9.981   4.854  10.482 -0.1969 -0.1810 -0.2955
  856MOL0     C15482  10.030   4.959  10.403  0.2087  0.1788 -0.1910
  856MOL0     O15483   9.948   5.033  10.320 -0.0149 -0.5686  0.1559
  856MOL0     C15484   9.824   4.966  10.293 -1.0888 -0.0346  0.4231
  856MOL0     C15485   9.767   5.033  10.162 -0.4515 -0.2669 -1.0417
  856MOL0     C15486   9.642   4.959  10.122 -0.0878 -0.3736  0.5116
  856MOL0     C15487   9.638   4.925   9.973 -0.1005  0.3776  0.5404
  856MOL0     C15488   9.516   4.980   9.908 -0.4332 -0.5614 -0.0742
  856MOL0     C15489   9.423   5.039   9.857  0.2385  0.1349  0.7366
  856MOL0     C15490  10.157   5.008  10.409  0.4898  0.2111 -0.3381
  856MOL0     C15491  10.253   4.944  10.488  0.0806  0.2646  0.1580
  856MOL0     C15492  10.388   5.011  10.469  0.4271 -0.0614 -0.2103
  856MOL0     H15493  10.477   4.498  10.632 -0.5946  4.3083 -0.4200
  856MOL0     H15494  10.632   4.381  10.793 -0.9113 -1.4711 -1.6778
  856MOL0     H15495  10.429   4.268  11.176  1.9697 -1.4083  3.7648
  856MOL0     H15496  10.479   4.170  11.034  1.7406 -2.6462  2.0131
  856MOL0     H15497  10.583   4.078  11.236  0.3425  1.3857  2.5405
  856MOL0     H15498  10.663   4.222  11.279  2.1817 -1.9622  0.7306
  856MOL0     H15499  10.686   4.079  11.015 -0.5290  1.3984 -0.5514
  856MOL0     H15500  10.757   4.024  11.165  2.0349  1.9416  2.4632
  856MOL0     H15501  10.830   4.263  11.008 -4.3917  0.2071  1.5061
  856MOL0     H15502  10.857   4.278  11.177 -2.6813 -0.6849  0.8631
  856MOL0     H15503  11.000   4.118  11.205 -2.9824 -1.2728 -0.6910
  856MOL0     H15504  10.975   4.034  11.053 -0.7751 -0.9765  0.0890
  856MOL0     H15505  11.070   4.267  10.940 -0.5881  1.8198  0.9366
  856MOL0     H15506  11.114   4.303  11.098 -1.2031 -0.2432  1.2771
  856MOL0     H15507  11.226   4.063  11.096  2.6539 -2.7249 -2.4865
  856MOL0     H15508  11.307   4.213  11.038 -1.6496 -0.5647  0.3326
  856MOL0     H15509  11.148   4.012  10.876  0.7354 -1.8097  0.5501
  856MOL0     H15510  11.250   4.152  10.815  2.4549 -0.9411 -0.5331
  856MOL0     H15511  11.532   4.073  11.004  1.6696 -1.9081  1.4070
  856MOL0     H15512  11.755   3.898  11.017 -0.6440 -0.8171  0.1315
  856MOL0     H15513  11.733   3.766  10.924  0.1514 -0.8986  0.5187
  856MOL0     H15514  11.876   3.891  10.782  0.5702 -0.4372  0.6954
  856MOL0     H15515  11.731   3.949  10.713 -2.2043 -2.0247  1.3850
  856MOL0     H15516  11.713   4.140  10.882 -1.0177 -3.0340  0.4300
  856MOL0     H15517  11.837   4.157  10.760  3.3178 -0.1981  1.8191
  856MOL0     H15518  11.900   4.045  11.034 -1.6887  0.0306 -0.1773
  856MOL0     H15519  11.910   4.212  10.987 -1.1897 -0.3046  1.0797
  856MOL0     H15520  12.292   4.038  10.788 -0.0704  1.2981 -1.2408
  856MOL0     H15521  12.488   4.085  10.892 -1.4971 -0.4250 -1.0309
  856MOL0     H15522  12.612   4.020  11.396  0.4128 -0.7843  0.6492
  856MOL0     H15523  12.848   3.987  11.488  1.6634  0.4346 -0.7611
  856MOL0     H15524  13.207   4.210  11.540  1.7155  0.8957  0.8555
  856MOL0     H15525  13.126   4.344  11.451 -2.8506 -0.4309 -0.3676
  856MOL0     H15526  13.022   4.405  11.678 -0.2021  0.7554 -1.4113
  856MOL0     H15527  13.136   4.279  11.751 -0.9364  0.6665  1.3276
  856MOL0     H15528  13.320   4.412  11.714  1.4112 -0.5842 -1.7428
  856MOL0     H15529  13.270   4.478  11.568  1.3162 -0.1736 -0.3554
  856MOL0     H15530  13.124   4.553  11.823 -0.1270  0.4652  0.3830
  856MOL0     H15531  13.128   4.638  11.663 -4.2999 -0.9188  1.3977
  856MOL0     H15532  13.353   4.588  11.876 -2.4210 -2.1268 -1.2930
  856MOL0     H15533  13.280   4.738  11.845 -3.6121 -1.5943  2.5096
  856MOL0     H15534  13.463   4.583  11.659  1.0986  0.4058  0.6916
  856MOL0     H15535  13.387   4.746  11.621  0.4693 -0.0453 -0.2395
  856MOL0     H15536  13.609   4.673  11.818  0.0469  1.2875  2.8600
  856MOL0     H15537  13.497   4.802  11.868  1.2968  0.0420  0.5876
  856MOL0     H15538  13.548   4.940  11.668 -0.1998  1.0663  1.8160
  856MOL0     H15539  13.683   4.896  11.772  0.2893 -1.9282  0.8830
  856MOL0     H15540  12.929   4.395  11.392 -0.6992  0.0165 -4.0428
  856MOL0     H15541  12.699   4.419  11.289 -2.8919 -0.1441  2.0988
  856MOL0     H15542  12.286   4.282  11.214 -0.5413  1.2761 -0.6872
  856MOL0     H15543  12.079   4.226  11.126 -0.0012  2.0875 -0.1959
  856MOL0     H15544  10.332   4.450  11.094  1.8172  1.2501  0.6508
  856MOL0     H15545  10.197   4.567  10.920 -0.2395 -2.9389  1.1603
  856MOL0     H15546  10.048   4.699  10.622  0.2451  0.4926  1.8042
  856MOL0     H15547   9.879   4.816  10.483  0.3101 -1.6198 -0.7473
  856MOL0     H15548   9.751   4.966  10.375 -0.8101  1.3937  0.7040
  856MOL0     H15549   9.850   4.864  10.263 -0.5862 -0.0827  1.0026
  856MOL0     H15550   9.840   5.046  10.082 -2.3197  1.8803 -2.5057
  856MOL0     H15551   9.741   5.133  10.197  0.3009 -1.4161  3.6344
  856MOL0     H15552   9.558   5.024  10.150  0.7578  0.6255  0.7834
  856MOL0     H15553   9.637   4.864  10.175  0.7386 -0.2563  0.8098
  856MOL0     H15554   9.730   4.953   9.921 -0.0389  0.1026  0.4967
  856MOL0     H15555   9.624   4.816   9.966  1.2311  0.1322  1.2139
  856MOL0     H15556   9.342   5.094   9.814  1.4535  0.4555 -1.2884
  856MOL0     H15557  10.177   5.089  10.339  1.4618  0.3601  0.0994
  856MOL0     H15558  10.375   5.112  10.430  0.0119 -0.1868 -0.4066
  856MOL0     H15559  10.455   5.016  10.555  0.4431  0.4383 -0.2460
  856MOL0     H15560  10.434   4.951  10.390  0.6493  0.5877 -0.5798
  857MOL0     O15561   9.469   0.943   9.175  0.6222 -0.3710 -1.0655
  857MOL0     C15562   9.358   0.955   9.225  0.3225  0.5026  0.0490
  857MOL0     O15563   9.322   1.033   9.334  0.3314  0.2560 -0.8478
  857MOL0     C15564   9.425   1.087   9.410  0.2517  0.3707 -0.3465
  857MOL0     C15565   9.479   1.015   9.512  0.2935  0.2236 -0.5070
  857MOL0     C15566   9.582   1.057   9.592 -0.1039 -0.3757  0.7088
  857MOL0     C15567   9.631   1.182   9.572 -0.1167  0.1877 -0.5071
  857MOL0     O15568   9.741   1.221   9.645 -0.4040 -0.5182 -0.2723
  857MOL0     C15569   9.857   1.262   9.556 -0.2640 -0.1636 -0.2652
  857MOL0     C15570   9.977   1.279   9.657 -0.2083 -0.1934  0.1856
  857MOL0     C15571  10.112   1.330   9.592  0.1015  0.3430  0.3216
  857MOL0     C15572  10.231   1.247   9.655  0.1924 -0.4175  0.2999
  857MOL0     C15573  10.362   1.285   9.590 -0.6680  0.4402  0.5099
  857MOL0     C15574  10.475   1.195   9.630  0.0738 -0.5008 -0.6430
  857MOL0     C15575  10.473   1.058   9.566 -0.8802 -0.3235 -0.3503
  857MOL0     C15576  10.490   1.059   9.415 -1.4404 -0.6537  0.2974
  857MOL0     N15577  10.623   1.118   9.366 -0.6563 -0.4859 -0.3806
  857MOL0     C15578  10.750   1.082   9.407 -0.3812  0.3953  0.1021
  857MOL0     C15579  10.837   1.178   9.349  0.0160 -1.0970  0.1921
  857MOL0     C15580  10.989   1.180   9.372 -0.8573  0.4890  0.4577
  857MOL0     C15581  11.028   1.312   9.428  0.2314  0.0344 -0.4903
  857MOL0     C15582  11.181   1.339   9.428  0.0241 -0.0453 -0.2214
  857MOL0     C15583  11.257   1.267   9.547  1.2250 -0.9223 -0.2426
  857MOL0     O15584  11.371   1.340   9.581 -0.4377 -0.3888  0.2780
  857MOL0     C15585  11.491   1.302   9.525  0.4199  0.3466  0.4103
  857MOL0     C15586  11.495   1.211   9.421  0.6850  0.2869  0.1746
  857MOL0     C15587  11.604   1.197   9.341 -0.3769  0.0080  0.7186
  857MOL0     C15588  11.717   1.274   9.372  0.2693  0.3802 -0.0131
  857MOL0     C15589  11.844   1.249   9.297 -0.3439  0.0296  0.1893
  857MOL0     O15590  11.953   1.338   9.312  0.5816  0.1688 -0.0317
  857MOL0     C15591  12.067   1.319   9.255  0.0823 -0.5606  0.3182
  857MOL0     C15592  12.142   1.202   9.274  0.2466 -0.1043  1.3713
  857MOL0     C15593  12.266   1.179   9.213  0.6512  0.1108 -0.7483
  857MOL0     C15594  12.320   1.282   9.135 -0.0188  0.0613  0.3322
  857MOL0     O15595  12.440   1.277   9.069  0.4004 -0.7343 -0.0972
  857MOL0     C15596  12.525   1.161   9.071 -0.1600 -0.6233  0.0661
  857MOL0     C15597  12.621   1.156   9.185 -0.0133 -0.1897 -0.1487
  857MOL0     C15598  12.703   1.290   9.190 -0.5191 -0.2809  0.5505
  857MOL0     C15599  12.794   1.277   9.313 -0.5050 -1.1533 -0.1400
  857MOL0     C15600  12.873   1.397   9.333  0.7808 -0.0702 -0.1757
  857MOL0     C15601  12.982   1.409   9.215  0.3310  0.5794  0.3862
  857MOL0     C15602  13.068   1.532   9.222 -0.8464  0.2273  0.0277
  857MOL0     C15603  13.039   1.640   9.114 -0.0500  0.0044  0.3220
  857MOL0    Cl15604  13.031   1.581   8.941  0.0458 -0.5519  0.2598
  857MOL0     C15605  12.247   1.402   9.120 -0.1952 -0.7744 -0.2474
  857MOL0     C15606  12.122   1.429   9.179 -0.3461 -0.1638  1.0168
  857MOL0     O15607  11.831   1.153   9.219 -0.1106 -0.5623  0.3458
  857MOL0     C15608  11.723   1.353   9.487  0.3398  0.1759 -0.2130
  857MOL0     C15609  11.602   1.365   9.567 -0.2902  0.1393 -0.3976
  857MOL0     N15610  10.762   1.258   9.267  0.5641  0.0010  0.2373
  857MOL0     N15611  10.637   1.231   9.286  0.1419 -0.4998 -0.6092
  857MOL0     C15612   9.579   1.264   9.472  0.9631 -0.2242 -0.3606
  857MOL0     C15613   9.477   1.216   9.384  0.5141  0.4065  0.1078
  857MOL0     C15614   9.259   0.862   9.167 -0.2616 -0.6261 -0.9740
  857MOL0     C15615   9.236   0.872   9.030 -0.6004  0.6718  0.2491
  857MOL0     C15616   9.129   0.803   8.976 -0.3398  0.0598  0.0055
  857MOL0     C15617   9.056   0.708   9.054 -0.0140 -0.4137 -0.5272
  857MOL0     O15618   8.959   0.639   8.986 -0.1781 -0.7270  0.0767
  857MOL0     C15619   8.883   0.540   9.048  0.2396  0.4342 -0.2977
  857MOL0     C15620   8.821   0.442   8.940 -0.6815 -0.7517 -0.1376
  857MOL0     C15621   8.732   0.520   8.839 -0.0502  0.0812 -0.8380
  857MOL0     C15622   8.641   0.428   8.767 -0.3826 -0.4081 -0.6074
  857MOL0     C15623   8.530   0.386   8.857  0.2802 -0.0446  0.8793
  857MOL0     C15624   8.442   0.346   8.924  0.0229  0.2721  0.0497
  857MOL0     C15625   9.088   0.695   9.186 -0.4502  0.6444  0.3758
  857MOL0     C15626   9.185   0.771   9.248 -0.7236 -0.5823  0.3542
  857MOL0     C15627   9.195   0.763   9.395  0.4679  0.3884  0.0480
  857MOL0     H15628   9.440   0.914   9.523  0.8174  0.0502 -0.2544
  857MOL0     H15629   9.640   0.990   9.655  0.7866 -2.0405 -1.7590
  857MOL0     H15630   9.867   1.186   9.478  1.4543 -1.7045  1.3547
  857MOL0     H15631   9.842   1.357   9.504  0.1129  1.0739  1.8004
  857MOL0     H15632   9.988   1.194   9.725 -1.1112  0.3683  1.0533
  857MOL0     H15633   9.945   1.364   9.718 -2.3634 -1.9745  1.6836
  857MOL0     H15634  10.134   1.435   9.615  0.9570  0.3543 -0.5428
  857MOL0     H15635  10.101   1.310   9.486  0.6567  1.8307 -0.0408
  857MOL0     H15636  10.243   1.252   9.763 -1.0299  0.8538  0.4088
  857MOL0     H15637  10.209   1.141   9.635  1.9145 -0.9404  0.9817
  857MOL0     H15638  10.362   1.287   9.480  0.5407 -1.3042  0.4328
  857MOL0     H15639  10.387   1.388   9.615  1.4442  0.1429 -0.1704
  857MOL0     H15640  10.569   1.238   9.591  1.4756 -0.1706  2.7685
  857MOL0     H15641  10.491   1.196   9.738  1.6288 -1.5206 -0.8258
  857MOL0     H15642  10.379   1.009   9.591 -1.5092  0.3438 -1.3023
  857MOL0     H15643  10.554   1.011   9.621 -0.3531 -0.5887 -1.3305
  857MOL0     H15644  10.473   0.959   9.376 -0.6738 -0.9217  0.6258
  857MOL0     H15645  10.413   1.119   9.364 -0.3198  0.6001  0.0207
  857MOL0     H15646  10.777   1.005   9.478 -2.0172 -1.1164 -0.8256
  857MOL0     H15647  11.026   1.092   9.426  0.7832 -1.4777 -3.4514
  857MOL0     H15648  11.037   1.178   9.274  0.2487  0.5434  0.9831
  857MOL0     H15649  10.984   1.392   9.368  0.5843  0.5295 -0.0957
  857MOL0     H15650  10.992   1.329   9.530 -0.9867  0.4116 -0.9658
  857MOL0     H15651  11.179   1.445   9.454 -2.4811  0.4719 -2.1182
  857MOL0     H15652  11.227   1.326   9.330 -0.9099  2.2076 -1.0286
  857MOL0     H15653  11.273   1.160   9.529  0.9343 -0.9082 -0.5977
  857MOL0     H15654  11.198   1.281   9.639  5.3980  1.7264  2.3718
  857MOL0     H15655  11.413   1.152   9.382 -0.8084  1.6943  1.0521
  857MOL0     H15656  11.595   1.136   9.251 -3.2436  0.1357  0.8219
  857MOL0     H15657  12.095   1.124   9.334 -2.2598  0.9978  0.9697
  857MOL0     H15658  12.331   1.093   9.227  0.0170 -0.8797 -3.2939
  857MOL0     H15659  12.472   1.065   9.072 -0.3916 -0.5184  1.7524
  857MOL0     H15660  12.582   1.177   8.979 -2.0328  0.6434 -0.9375
  857MOL0     H15661  12.571   1.147   9.283  3.3149 -1.9464  1.5725
  857MOL0     H15662  12.683   1.066   9.178 -0.0174 -0.0772 -1.9669
  857MOL0     H15663  12.762   1.297   9.099 -0.1988 -1.3931  0.6629
  857MOL0     H15664  12.631   1.373   9.190 -0.9761 -0.5408 -3.1092
  857MOL0     H15665  12.863   1.194   9.296  0.3195 -0.2639 -1.3431
  857MOL0     H15666  12.734   1.257   9.402 -1.3150 -2.0881 -0.8702
  857MOL0     H15667  12.929   1.407   9.426  2.7181  0.7665 -1.3546
  857MOL0     H15668  12.808   1.484   9.325  0.3177 -0.2042  1.7093
  857MOL0     H15669  13.056   1.329   9.224  0.7399  1.1557  2.6303
  857MOL0     H15670  12.935   1.403   9.116  0.2373 -1.0329  0.4960
  857MOL0     H15671  13.173   1.500   9.220 -1.6753 -2.9207  0.6910
  857MOL0     H15672  13.058   1.584   9.318 -0.6980 -2.1452  1.4063
  857MOL0     H15673  12.943   1.689   9.135  1.0203  1.4821  2.2127
  857MOL0     H15674  13.108   1.726   9.121 -1.1501  1.2013 -2.2394
  857MOL0     H15675  12.290   1.484   9.064 -1.6166  0.3430  0.2404
  857MOL0     H15676  12.068   1.522   9.163  0.2923 -0.0627 -0.8735
  857MOL0     H15677  11.811   1.399   9.530 -1.3082 -0.0127  3.8765
  857MOL0     H15678  11.602   1.420   9.660 -2.2892  2.4484 -1.6541
  857MOL0     H15679   9.625   1.361   9.456  2.2149 -0.6263  0.6022
  857MOL0     H15680   9.421   1.278   9.315 -0.8873 -1.1919 -0.2396
  857MOL0     H15681   9.297   0.948   8.983 -0.8562  1.1748  0.7102
  857MOL0     H15682   9.101   0.821   8.873  1.5913 -0.4537 -0.6666
  857MOL0     H15683   8.795   0.592   9.085  0.3894  0.6085 -0.1887
  857MOL0     H15684   8.934   0.486   9.128 -0.0090  1.1386  0.3446
  857MOL0     H15685   8.771   0.361   8.994 -1.4456  1.3016  2.4272
  857MOL0     H15686   8.902   0.398   8.882  0.5182 -0.0047  0.9216
  857MOL0     H15687   8.798   0.573   8.770 -0.3174 -0.1168 -1.2508
  857MOL0     H15688   8.673   0.589   8.900  1.5231  0.3156  0.5012
  857MOL0     H15689   8.593   0.482   8.685  0.6012  1.1317 -0.2106
  857MOL0     H15690   8.689   0.336   8.733  0.6679  0.1737 -0.7152
  857MOL0     H15691   8.349   0.317   8.970  0.6277 -0.6050  0.7609
  857MOL0     H15692   9.022   0.629   9.241 -0.4269  0.4177  0.1311
  857MOL0     H15693   9.287   0.805   9.438  1.2921 -0.9940 -0.2936
  857MOL0     H15694   9.116   0.826   9.436  1.0789  0.9798  0.3265
  857MOL0     H15695   9.188   0.659   9.429 -0.1514 -1.2381 -4.4464
  858MOL0     O15696   2.378   4.604   3.060 -0.4954 -0.1390  0.2360
  858MOL0     C15697   2.273   4.543   3.040 -0.1037 -0.5623  0.0384
  858MOL0     O15698   2.263   4.406   3.028 -0.0734  0.5000 -0.5442
  858MOL0     C15699   2.382   4.328   3.030  0.3048 -0.9722 -0.1278
  858MOL0     C15700   2.395   4.220   3.117  0.9523  0.0481  0.1529
  858MOL0     C15701   2.511   4.139   3.106  0.2060  0.1748  0.5118
  858MOL0     C15702   2.617   4.178   3.013  0.0549  0.2643 -0.7578
  858MOL0     O15703   2.730   4.107   2.996 -0.5857  0.4724 -0.6985
  858MOL0     C15704   2.799   4.059   3.117 -0.2117  0.7030  0.2329
  858MOL0     C15705   2.902   4.162   3.156 -0.4313  0.3376  0.5424
  858MOL0     C15706   3.036   4.166   3.077 -0.2118 -1.0383  0.3993
  858MOL0     C15707   3.147   4.256   3.132  0.7141 -0.2035  0.0614
  858MOL0     C15708   3.274   4.269   3.037  1.2024  0.0967 -0.6858
  858MOL0     C15709   3.371   4.161   3.077 -0.6094  0.0844 -0.8570
  858MOL0     C15710   3.515   4.222   3.059  0.5894  0.1541 -0.1344
  858MOL0     C15711   3.628   4.143   3.109  0.7431  0.5909 -0.1773
  858MOL0     N15712   3.750   4.180   3.040  0.0337  0.4846 -1.2470
  858MOL0     C15713   3.826   4.293   3.065 -0.3609  0.3568  0.2217
  858MOL0     C15714   3.928   4.279   2.982 -0.0607  0.5290 -0.2625
  858MOL0     C15715   4.033   4.389   2.964  0.0944  0.1672  0.1888
  858MOL0     C15716   4.136   4.362   3.072 -0.1054 -0.5576  0.0817
  858MOL0     C15717   4.237   4.259   3.031  0.2196  0.5900  0.0020
  858MOL0     C15718   4.333   4.243   3.154 -0.9045  0.3297 -0.0088
  858MOL0     O15719   4.414   4.358   3.167  0.4892 -0.0480  0.2410
  858MOL0     C15720   4.528   4.345   3.238  0.4236 -0.3526 -0.8707
  858MOL0     C15721   4.641   4.424   3.203 -0.1880  0.3703  0.5111
  858MOL0     C15722   4.763   4.410   3.265  0.3141  0.1565 -0.5456
  858MOL0     C15723   4.787   4.312   3.359  0.9906 -0.1928 -0.1941
  858MOL0     C15724   4.920   4.305   3.410 -0.1394  0.2159  0.4796
  858MOL0     O15725   5.018   4.388   3.360  0.5068  0.5135  0.2179
  858MOL0     C15726   5.145   4.400   3.410 -0.3992 -0.6550 -0.4897
  858MOL0     C15727   5.171   4.395   3.551  0.0013 -0.1805 -0.0963
  858MOL0     C15728   5.287   4.428   3.605  0.0219 -0.5003 -0.3264
  858MOL0     C15729   5.405   4.453   3.516  0.2525 -0.8570  0.0554
  858MOL0     O15730   5.523   4.481   3.579 -0.3045 -0.8032 -0.3193
  858MOL0     C15731   5.639   4.512   3.495  0.0685  0.7952 -0.1697
  858MOL0     C15732   5.747   4.587   3.567 -0.2715  0.7429  0.4633
  858MOL0     C15733   5.851   4.632   3.462 -0.8783  0.5688  0.0504
  858MOL0     C15734   5.959   4.722   3.519 -0.4893 -0.6509  0.4118
  858MOL0     C15735   6.035   4.648   3.632  0.0595  0.3190 -0.2515
  858MOL0     C15736   6.151   4.738   3.676  0.6431 -0.3545  0.4411
  858MOL0     C15737   6.292   4.688   3.639  0.0150 -0.3467 -0.1720
  858MOL0     C15738   6.315   4.664   3.489  0.1672  0.6549 -0.9560
  858MOL0    Cl15739   6.484   4.693   3.451  0.3877  0.2375 -0.3400
  858MOL0     C15740   5.385   4.437   3.379 -0.1094 -0.5204  0.1265
  858MOL0     C15741   5.258   4.410   3.330 -0.1296  0.0863  0.3200
  858MOL0     O15742   4.937   4.217   3.494  0.3258 -0.3359  0.4133
  858MOL0     C15743   4.684   4.221   3.391  0.0328  0.0943 -0.2632
  858MOL0     C15744   4.551   4.248   3.342 -0.0962 -0.1169  0.4885
  858MOL0     N15745   3.913   4.167   2.901 -0.6288 -0.0013  0.6374
  858MOL0     N15746   3.805   4.111   2.932 -0.3802  0.0343 -0.6014
  858MOL0     C15747   2.602   4.290   2.928 -0.1809  0.2050 -0.5510
  858MOL0     C15748   2.485   4.367   2.939  1.0243  0.2339 -0.0386
  858MOL0     C15749   2.147   4.616   3.025 -0.1774 -1.1012 -0.6801
  858MOL0     C15750   2.033   4.562   2.950 -0.1818  0.0447 -0.2642
  858MOL0     C15751   1.907   4.632   2.938 -0.6859 -0.0703 -0.0132
  858MOL0     C15752   1.886   4.745   3.006  0.5411 -0.3606 -0.0797
  858MOL0     O15753   1.766   4.816   2.995 -0.3691  0.2169 -0.2102
  858MOL0     C15754   1.770   4.958   3.021 -0.1660 -0.1224  0.1179
  858MOL0     C15755   1.717   4.987   3.167 -0.3597  0.5555 -0.4967
  858MOL0     C15756   1.568   4.952   3.183  0.6519 -0.4079 -0.6809
  858MOL0     C15757   1.520   4.986   3.328  0.4464 -0.6354  0.1058
  858MOL0     C15758   1.505   5.129   3.366 -0.1601  0.3024 -0.3124
  858MOL0     C15759   1.520   5.244   3.412  0.0112 -0.1710 -0.2237
  858MOL0     C15760   1.990   4.793   3.090 -0.4286  0.8218  0.9560
  858MOL0     C15761   2.124   4.737   3.101  0.3578  0.7374  0.1981
  858MOL0     C15762   2.218   4.788   3.208 -0.0859 -0.4880 -0.7000
  858MOL0     H15763   2.311   4.195   3.181  1.8416  0.6056  1.5902
  858MOL0     H15764   2.514   4.051   3.170  0.9156  0.8859  1.4819
  858MOL0     H15765   2.734   4.034   3.202  0.8875 -0.3505  0.7844
  858MOL0     H15766   2.843   3.962   3.094 -0.5842  1.1829 -3.0518
  858MOL0     H15767   2.922   4.149   3.263 -0.3316 -0.2071  0.4573
  858MOL0     H15768   2.864   4.263   3.136  0.0710  1.2802  3.7465
  858MOL0     H15769   3.019   4.226   2.987  0.1063  0.6659  1.4319
  858MOL0     H15770   3.085   4.070   3.056  0.2766 -0.4110 -1.5793
  858MOL0     H15771   3.096   4.353   3.128 -2.6758 -1.8078  0.3387
  858MOL0     H15772   3.171   4.235   3.236 -0.3384 -1.7323  0.0177
  858MOL0     H15773   3.251   4.253   2.931  0.2472  1.0550 -0.6396
  858MOL0     H15774   3.304   4.373   3.051  0.8361  0.3586 -1.7703
  858MOL0     H15775   3.354   4.135   3.183 -0.4612 -1.3343 -1.1533
  858MOL0     H15776   3.365   4.067   3.022  1.1925  0.8849 -2.5206
  858MOL0     H15777   3.515   4.316   3.116  0.1594  0.4128 -0.5464
  858MOL0     H15778   3.533   4.236   2.952  1.2451 -3.2187 -0.5576
  858MOL0     H15779   3.632   4.125   3.217  2.0621 -1.4671 -0.5239
  858MOL0     H15780   3.609   4.042   3.072  0.9219  0.0600  1.1258
  858MOL0     H15781   3.802   4.362   3.145  1.1874 -0.1111  1.1256
  858MOL0     H15782   4.061   4.388   2.858 -1.0284 -0.1641 -0.1205
  858MOL0     H15783   3.988   4.483   2.996 -0.9092 -0.9322  2.2196
  858MOL0     H15784   4.182   4.461   3.087 -2.7509  1.0631 -1.5842
  858MOL0     H15785   4.084   4.334   3.163  0.0174 -2.3782 -0.3638
  858MOL0     H15786   4.291   4.289   2.940 -2.5181  4.3749 -0.6356
  858MOL0     H15787   4.175   4.171   3.011 -1.0655  1.0781  1.6076
  858MOL0     H15788   4.403   4.160   3.143 -1.5717 -0.1689 -0.5338
  858MOL0     H15789   4.279   4.236   3.249  1.2470  2.5200  1.5147
  858MOL0     H15790   4.635   4.492   3.118  1.3128  1.2122  1.0563
  858MOL0     H15791   4.842   4.470   3.221  1.3189  2.5212  3.8769
  858MOL0     H15792   5.088   4.379   3.620  0.8103 -1.7388  0.5550
  858MOL0     H15793   5.303   4.431   3.713  0.5928 -1.1818 -0.3857
  858MOL0     H15794   5.677   4.412   3.472 -3.5493 -1.2094  1.5585
  858MOL0     H15795   5.601   4.577   3.415  0.6057 -1.1932 -2.1410
  858MOL0     H15796   5.695   4.670   3.615 -2.5071 -0.6426  0.5677
  858MOL0     H15797   5.778   4.522   3.650 -4.9397  0.4677  2.2886
  858MOL0     H15798   5.906   4.548   3.420 -1.3658 -0.5258  1.5259
  858MOL0     H15799   5.803   4.676   3.374  1.9042 -2.1689 -3.1348
  858MOL0     H15800   5.929   4.812   3.573  1.6304  0.0306  0.5653
  858MOL0     H15801   6.026   4.755   3.439 -1.8592  2.0728  0.2495
  858MOL0     H15802   6.071   4.551   3.596  0.9365 -0.8708  3.4543
  858MOL0     H15803   5.979   4.627   3.723  2.4484 -1.8626  0.8223
  858MOL0     H15804   6.139   4.841   3.642  1.5412 -0.5127 -0.4112
  858MOL0     H15805   6.149   4.757   3.783  0.9622  0.2346  0.3442
  858MOL0     H15806   6.305   4.595   3.695 -1.9033  1.4415  3.6920
  858MOL0     H15807   6.361   4.762   3.680  0.8933 -0.9934 -0.4554
  858MOL0     H15808   6.285   4.562   3.464  2.3472 -0.3520  0.2037
  858MOL0     H15809   6.275   4.740   3.421  1.2296 -0.5596 -3.0432
  858MOL0     H15810   5.460   4.450   3.302  1.1049  0.8412  1.4722
  858MOL0     H15811   5.247   4.409   3.222  1.5901  1.0852  0.0927
  858MOL0     H15812   4.696   4.136   3.458  2.1207  1.4570  1.2515
  858MOL0     H15813   4.479   4.169   3.360 -1.6162  1.1179  0.0077
  858MOL0     H15814   2.678   4.319   2.857  0.6890 -1.8777 -0.5512
  858MOL0     H15815   2.464   4.456   2.880  1.0164  0.3312  0.1091
  858MOL0     H15816   2.024   4.460   2.914 -1.4650 -0.8177  2.2451
  858MOL0     H15817   1.824   4.600   2.875 -1.4690  2.0687 -0.1527
  858MOL0     H15818   1.704   5.016   2.955  1.3526  3.4878  1.5414
  858MOL0     H15819   1.872   4.995   3.007 -0.4791  0.4456 -0.7822
  858MOL0     H15820   1.748   5.088   3.196 -1.3849  0.4848  0.9733
  858MOL0     H15821   1.762   4.925   3.245  0.2502  1.7601  0.1424
  858MOL0     H15822   1.546   4.848   3.157 -1.5869 -0.4123  0.9338
  858MOL0     H15823   1.504   5.017   3.121 -1.0846 -0.9415  0.4627
  858MOL0     H15824   1.428   4.930   3.349 -0.2301  0.4375  0.1237
  858MOL0     H15825   1.597   4.945   3.393  0.1640  0.5209  1.2132
  858MOL0     H15826   1.532   5.343   3.450  2.1932 -0.2153 -0.6488
  858MOL0     H15827   1.973   4.881   3.150  0.4297  0.4191  1.8106
  858MOL0     H15828   2.158   4.843   3.281  1.3338  0.8880 -0.4967
  858MOL0     H15829   2.269   4.707   3.261 -1.5891 -1.2248 -0.3396
  858MOL0     H15830   2.289   4.859   3.164 -1.8834  0.5218 -2.0586
  859MOL0     O15831  11.181   4.937   7.825  0.0979 -0.2759 -0.7873
  859MOL0     C15832  11.101   5.018   7.779 -0.0296 -0.4339  0.3686
  859MOL0     O15833  11.130   5.152   7.777  0.5892 -0.1619  0.0161
  859MOL0     C15834  11.228   5.191   7.860 -0.2781  0.1520 -0.7177
  859MOL0     C15835  11.201   5.190   8.001 -0.5634 -0.0400 -0.6715
  859MOL0     C15836  11.305   5.220   8.088  0.2188 -0.2487  0.4481
  859MOL0     C15837  11.437   5.254   8.043  0.2351 -0.5093 -0.4650
  859MOL0     O15838  11.534   5.283   8.141  0.3718 -0.0350  0.2756
  859MOL0     C15839  11.651   5.351   8.090  0.6064 -0.6667  0.7596
  859MOL0     C15840  11.739   5.376   8.203  0.2817 -0.8198 -0.5131
  859MOL0     C15841  11.859   5.483   8.187 -0.1523  0.6638  0.5106
  859MOL0     C15842  11.948   5.480   8.311 -0.1872  0.3283  0.6492
  859MOL0     C15843  12.081   5.542   8.299 -0.9246 -0.4283 -0.1431
  859MOL0     C15844  12.139   5.543   8.446 -0.6223 -0.2458 -0.2278
  859MOL0     C15845  12.283   5.571   8.443 -0.2041 -0.3702 -0.4020
  859MOL0     C15846  12.338   5.605   8.585 -0.4165 -0.2849 -0.1690
  859MOL0     N15847  12.471   5.673   8.582 -0.2919 -0.3180  0.6215
  859MOL0     C15848  12.576   5.628   8.508  0.7144  0.2374 -0.3698
  859MOL0     C15849  12.687   5.705   8.540 -0.0019  0.5226 -0.0938
  859MOL0     C15850  12.821   5.712   8.468  0.3917  0.3600  0.3959
  859MOL0     C15851  12.935   5.667   8.561 -0.6464  0.1609  0.3807
  859MOL0     C15852  12.947   5.745   8.700 -0.2709  0.3280 -0.1409
  859MOL0     C15853  13.073   5.723   8.777  0.4233 -0.1017  0.2528
  859MOL0     O15854  13.175   5.800   8.717 -0.1080  0.2043  0.4753
  859MOL0     C15855  13.303   5.793   8.765 -0.4566  1.6827  0.9674
  859MOL0     C15856  13.400   5.868   8.700  0.2204 -0.0725 -0.5061
  859MOL0     C15857  13.532   5.872   8.749  0.8215 -0.8057  0.3835
  859MOL0     C15858  13.573   5.796   8.863 -0.1236 -1.0985 -0.2193
  859MOL0     C15859  13.708   5.790   8.908  0.2152 -0.5944  0.3635
  859MOL0     O15860  13.801   5.856   8.828  0.1796  0.6620  0.5258
  859MOL0     C15861  13.928   5.841   8.876  1.1639 -0.1205  0.1065
  859MOL0     C15862  13.991   5.955   8.942  0.0550 -0.7787  0.1617
  859MOL0     C15863  14.132   5.945   8.977 -0.2074 -0.2100 -0.4352
  859MOL0     C15864  14.198   5.818   8.969 -0.2436 -0.5531 -0.9615
  859MOL0     O15865  14.325   5.797   9.014  0.4467 -0.4932  0.0137
  859MOL0     C15866  14.409   5.905   9.043 -0.4482 -0.7392 -0.4988
  859MOL0     C15867  14.552   5.865   9.019  0.1454  0.0774 -0.4126
  859MOL0     C15868  14.662   5.955   9.087  0.4562  0.0740  0.0451
  859MOL0     C15869  14.679   5.940   9.240 -0.4822 -0.4449 -1.2274
  859MOL0     C15870  14.781   6.050   9.295 -0.8602 -0.4425 -0.5058
  859MOL0     C15871  14.765   6.047   9.449  0.1323  0.5092  1.2531
  859MOL0     C15872  14.863   6.132   9.525  0.2495  0.0081  0.5660
  859MOL0     C15873  15.005   6.077   9.513  0.8455  0.3473  0.5681
  859MOL0    Cl15874  15.109   6.152   9.632  0.2894 -0.9471  0.4774
  859MOL0     C15875  14.138   5.717   8.895 -0.6384 -0.1623 -0.1293
  859MOL0     C15876  14.006   5.729   8.857  0.0181 -0.2474  0.0581
  859MOL0     O15877  13.734   5.724   9.006 -0.2954  0.5249 -0.1450
  859MOL0     C15878  13.475   5.722   8.931 -0.3805  0.6881  0.3716
  859MOL0     C15879  13.343   5.714   8.877  0.4296 -0.2856 -0.0128
  859MOL0     N15880  12.642   5.803   8.629  0.4562  0.0508 -0.2935
  859MOL0     N15881  12.522   5.771   8.659  0.0059 -0.4829  0.4326
  859MOL0     C15882  11.458   5.264   7.903  0.0616 -0.3379  0.1067
  859MOL0     C15883  11.352   5.232   7.812  0.8007 -0.3813  0.6621
  859MOL0     C15884  10.977   4.966   7.713 -0.2249  0.7700 -0.4990
  859MOL0     C15885  10.942   4.837   7.749  0.5804 -0.1095 -0.4958
  859MOL0     C15886  10.852   4.764   7.685  0.3590  0.2685  0.0780
  859MOL0     C15887  10.767   4.835   7.597  0.3857  0.5667 -0.4310
  859MOL0     O15888  10.653   4.775   7.538  0.0062  0.7116 -0.0838
  859MOL0     C15889  10.580   4.670   7.603 -0.1451 -1.0789  0.0478
  859MOL0     C15890  10.519   4.730   7.732 -0.8291 -0.4544  0.4536
  859MOL0     C15891  10.427   4.850   7.695 -0.2400  0.0285  0.3760
  859MOL0     C15892  10.316   4.835   7.589  0.0415  0.3879 -0.3082
  859MOL0     C15893  10.231   4.964   7.611 -0.0983  0.1129  1.0036
  859MOL0     C15894  10.157   5.058   7.622  0.2864 -0.2346 -0.5541
  859MOL0     C15895  10.789   4.966   7.557 -0.3599  0.3530 -0.0751
  859MOL0     C15896  10.901   5.035   7.613 -0.3651 -0.6745  0.3245
  859MOL0     C15897  10.923   5.179   7.557 -0.0709  0.0414  0.4993
  859MOL0     H15898  11.102   5.167   8.039  0.9219 -2.9197  1.9310
  859MOL0     H15899  11.288   5.211   8.195  0.7784  0.8736  0.6427
  859MOL0     H15900  11.698   5.286   8.015  2.4633 -2.0360  2.9842
  859MOL0     H15901  11.623   5.441   8.036 -2.5759 -1.1314  1.4100
  859MOL0     H15902  11.786   5.283   8.235 -0.4755 -0.6838  1.1176
  859MOL0     H15903  11.681   5.413   8.288 -0.4513 -2.7069 -0.1478
  859MOL0     H15904  11.819   5.583   8.169 -3.4526 -0.4045  1.1673
  859MOL0     H15905  11.910   5.449   8.096 -1.4960 -2.9477  0.9207
  859MOL0     H15906  11.888   5.544   8.375 -0.4094  0.1213  0.6508
  859MOL0     H15907  11.962   5.382   8.358 -0.6384 -0.0504  0.0088
  859MOL0     H15908  12.148   5.479   8.239 -0.5601 -3.1470  2.8408
  859MOL0     H15909  12.085   5.645   8.262  0.9646 -0.5151 -0.3226
  859MOL0     H15910  12.084   5.614   8.508 -0.6599 -1.9468  1.8360
  859MOL0     H15911  12.117   5.451   8.501 -0.6559 -0.5706 -0.7856
  859MOL0     H15912  12.307   5.657   8.379 -0.3635  0.7673  0.9982
  859MOL0     H15913  12.340   5.484   8.409  1.1728 -0.7924  2.6122
  859MOL0     H15914  12.273   5.677   8.636  0.7368  0.8282 -0.2242
  859MOL0     H15915  12.331   5.516   8.648  1.0550 -1.1619 -1.1928
  859MOL0     H15916  12.570   5.549   8.434 -2.9350  2.3710 -2.7034
  859MOL0     H15917  12.809   5.658   8.373 -0.8638 -1.8972  1.7550
  859MOL0     H15918  12.830   5.817   8.437 -0.3826  0.5065  0.6382
  859MOL0     H15919  12.915   5.561   8.579 -0.3954 -0.0176 -0.3746
  859MOL0     H15920  13.029   5.682   8.507 -0.7187  1.6443  0.6096
  859MOL0     H15921  12.861   5.714   8.761 -2.5340  1.6891 -2.4282
  859MOL0     H15922  12.933   5.853   8.688  1.5021  0.4567 -1.3911
  859MOL0     H15923  13.088   5.615   8.786 -2.5843 -0.6480 -0.0548
  859MOL0     H15924  13.054   5.742   8.883  5.1536 -2.9591  1.9210
  859MOL0     H15925  13.370   5.923   8.611 -1.7134  1.0742  0.7672
  859MOL0     H15926  13.606   5.938   8.706 -2.0607  1.1692 -1.9228
  859MOL0     H15927  13.939   6.051   8.937  1.0464 -0.2212  0.2981
  859MOL0     H15928  14.176   6.039   9.011  0.1532 -0.7475  0.6614
  859MOL0     H15929  14.394   5.998   8.987  2.9011 -0.0984 -0.5773
  859MOL0     H15930  14.387   5.926   9.148 -1.0790 -0.7410 -0.6307
  859MOL0     H15931  14.567   5.763   9.055 -0.3323 -0.5905 -2.0172
  859MOL0     H15932  14.576   5.859   8.913  1.8452  2.6252 -0.2811
  859MOL0     H15933  14.757   5.935   9.036  1.6821  2.3203  1.2344
  859MOL0     H15934  14.639   6.062   9.080  0.9617  0.3253  1.7332
  859MOL0     H15935  14.721   5.840   9.257  1.6038  0.1709 -2.2902
  859MOL0     H15936  14.579   5.954   9.281  0.6094 -1.0432  1.8817
  859MOL0     H15937  14.766   6.149   9.252 -1.0045 -0.1408  0.2289
  859MOL0     H15938  14.884   6.023   9.269 -1.1913  0.7522 -3.5422
  859MOL0     H15939  14.666   6.092   9.465 -1.0199 -1.5320  0.3540
  859MOL0     H15940  14.778   5.940   9.470  2.0741  0.5199  0.3148
  859MOL0     H15941  14.825   6.130   9.628 -1.8748  0.4083 -0.1434
  859MOL0     H15942  14.878   6.235   9.490 -1.1105 -0.3610 -1.2782
  859MOL0     H15943  14.991   5.969   9.529  0.1002  0.5454  1.3375
  859MOL0     H15944  15.043   6.110   9.417 -3.1596  4.3975  0.0420
  859MOL0     H15945  14.195   5.629   8.865 -2.3784 -0.5766 -2.4183
  859MOL0     H15946  13.949   5.651   8.806 -1.6175 -0.1853  1.7026
  859MOL0     H15947  13.494   5.663   9.020  0.3014  2.6453  1.6020
  859MOL0     H15948  13.275   5.653   8.934  3.2167 -1.5909  2.1642
  859MOL0     H15949  11.555   5.281   7.857  1.0364  0.3572  2.2645
  859MOL0     H15950  11.358   5.245   7.705  0.8552 -1.3598  0.5442
  859MOL0     H15951  10.991   4.776   7.825 -2.2632  1.2277  2.7077
  859MOL0     H15952  10.825   4.664   7.720 -0.9630  1.0278  1.3374
  859MOL0     H15953  10.638   4.581   7.628  0.1046 -0.7726  0.5771
  859MOL0     H15954  10.509   4.634   7.528 -0.4062 -1.1726  0.3406
  859MOL0     H15955  10.608   4.754   7.790 -0.6840 -1.0241  0.4759
  859MOL0     H15956  10.463   4.661   7.795  1.1881 -0.6570  2.1146
  859MOL0     H15957  10.486   4.936   7.662  2.5805 -1.5650  0.8770
  859MOL0     H15958  10.376   4.869   7.789  3.0731  4.5863  1.5587
  859MOL0     H15959  10.354   4.819   7.488  1.4820 -0.3806  0.3260
  859MOL0     H15960  10.262   4.744   7.618  2.2187 -0.5918  0.9518
  859MOL0     H15961  10.080   5.130   7.638 -1.4822 -1.7140 -1.8654
  859MOL0     H15962  10.715   5.011   7.492  1.2342  2.0937 -0.7961
  859MOL0     H15963  11.031   5.185   7.542 -0.4105 -0.5581 -3.0215
  859MOL0     H15964  10.878   5.190   7.458 -2.7537  2.5885  1.8408
  859MOL0     H15965  10.893   5.264   7.619 -0.4187  0.2058  0.1088
  860MOL0     O15966   0.964   8.755   1.318 -0.2999  0.3866  0.3206
  860MOL0     C15967   0.992   8.691   1.421  0.4169 -0.9886 -0.4204
  860MOL0     O15968   1.119   8.676   1.482  0.5625 -0.1314 -0.0504
  860MOL0     C15969   1.235   8.709   1.417 -0.4130  0.0281 -0.4492
  860MOL0     C15970   1.350   8.740   1.495 -0.1133 -0.3805  0.3329
  860MOL0     C15971   1.477   8.743   1.440 -0.3356  0.7631  0.2552
  860MOL0     C15972   1.491   8.737   1.300  0.0896 -0.4273  0.1670
  860MOL0     O15973   1.616   8.752   1.239 -0.4610  0.0738 -1.0856
  860MOL0     C15974   1.640   8.859   1.151 -0.7627  0.3756 -0.0989
  860MOL0     C15975   1.702   8.989   1.214 -0.3443  0.0524  0.2262
  860MOL0     C15976   1.812   8.950   1.307 -0.2007  0.1794  0.0294
  860MOL0     C15977   1.910   9.064   1.337 -0.6999 -0.5899 -0.0189
  860MOL0     C15978   2.046   9.004   1.400  0.5827 -0.3891  0.0267
  860MOL0     C15979   2.133   8.899   1.327  0.0602 -0.5781 -0.1807
  860MOL0     C15980   2.172   8.936   1.184 -0.0275  0.1789 -0.2165
  860MOL0     C15981   2.248   9.066   1.168 -0.2455  0.4486 -0.3684
  860MOL0     N15982   2.391   9.053   1.211 -0.8752 -1.5030  0.6634
  860MOL0     C15983   2.490   8.993   1.134 -0.0837 -0.3968 -0.0801
  860MOL0     C15984   2.602   8.994   1.211  0.0302 -0.1200  0.3172
  860MOL0     C15985   2.730   8.934   1.158 -0.0727  0.1182 -0.9619
  860MOL0     C15986   2.837   9.042   1.145 -0.3766 -0.1707 -0.9275
  860MOL0     C15987   2.962   8.998   1.053 -0.1777 -0.0747  0.3724
  860MOL0     C15988   3.035   8.878   1.106 -0.0231 -0.5983 -0.1885
  860MOL0     O15989   3.099   8.924   1.226 -0.1148  0.2521  0.0590
  860MOL0     C15990   3.226   8.871   1.259 -0.0748 -0.3123 -0.1568
  860MOL0     C15991   3.284   8.757   1.190 -0.6304  0.3324 -0.4985
  860MOL0     C15992   3.424   8.733   1.222  0.2672  0.2348  1.3743
  860MOL0     C15993   3.496   8.810   1.313  0.7076  0.3299 -0.7820
  860MOL0     C15994   3.636   8.768   1.353  0.8547  0.6544 -0.3565
  860MOL0     O15995   3.685   8.658   1.293  0.0874  0.2221  0.6368
  860MOL0     C15996   3.809   8.618   1.326 -0.3740 -0.1453 -0.3719
  860MOL0     C15997   3.918   8.700   1.323 -0.5518  0.2664  0.4535
  860MOL0     C15998   4.044   8.662   1.374  0.2038  0.7400 -0.7556
  860MOL0     C15999   4.063   8.535   1.442  0.1659 -0.0202  0.8930
  860MOL0     O16000   4.184   8.501   1.494  0.0225  0.0917 -0.0163
  860MOL0     C16001   4.198   8.398   1.593 -0.6839 -0.8040  0.1415
  860MOL0     C16002   4.341   8.374   1.624  0.6249  1.3329 -0.6763
  860MOL0     C16003   4.342   8.263   1.730 -0.5429  0.4555 -0.5277
  860MOL0     C16004   4.484   8.209   1.721 -0.1760  0.8003 -0.6106
  860MOL0     C16005   4.524   8.125   1.845  0.2359 -0.4511 -0.0547
  860MOL0     C16006   4.671   8.054   1.835 -0.1137  0.7409  0.6327
  860MOL0     C16007   4.690   7.949   1.946  1.0081 -0.2425  0.5931
  860MOL0     C16008   4.821   7.882   1.926 -0.7844  0.5339  0.5559
  860MOL0    Cl16009   4.977   7.993   1.907  0.3361 -0.1107  0.1910
  860MOL0     C16010   3.947   8.452   1.442  0.0988  0.6409 -0.0542
  860MOL0     C16011   3.827   8.492   1.381  0.1815 -0.4854 -1.1531
  860MOL0     O16012   3.680   8.830   1.449  0.2672 -0.2722  0.4882
  860MOL0     C16013   3.431   8.914   1.381  0.3688 -0.1878 -0.0374
  860MOL0     C16014   3.297   8.950   1.351  0.1625  0.4588 -0.2492
  860MOL0     N16015   2.576   9.051   1.329 -0.4533  0.0976 -1.1424
  860MOL0     N16016   2.454   9.097   1.326  0.1518  0.2942  0.2148
  860MOL0     C16017   1.382   8.729   1.217  0.3681 -0.2532  0.8892
  860MOL0     C16018   1.257   8.705   1.275 -0.4809  0.5287 -0.3416
  860MOL0     C16019   0.879   8.631   1.496 -0.2790 -0.4583 -0.2694
  860MOL0     C16020   0.904   8.603   1.635 -0.5942 -0.1767 -0.4239
  860MOL0     C16021   0.807   8.554   1.725  0.7166 -0.1466 -0.3801
  860MOL0     C16022   0.672   8.536   1.681  0.4235  1.4246  1.1290
  860MOL0     O16023   0.586   8.473   1.764 -0.7683 -0.0025 -0.6727
  860MOL0     C16024   0.456   8.532   1.783 -0.2140 -0.2022  1.2253
  860MOL0     C16025   0.419   8.500   1.928 -1.1004  0.3533 -0.5115
  860MOL0     C16026   0.325   8.594   2.002 -0.1710 -0.3393  0.2653
  860MOL0     C16027   0.369   8.714   2.079 -0.6846 -0.9993  0.1676
  860MOL0     C16028   0.453   8.796   1.984  1.7095 -0.2148 -0.1847
  860MOL0     C16029   0.516   8.854   1.894 -0.1719 -0.7089 -0.5432
  860MOL0     C16030   0.643   8.560   1.548 -0.0184 -0.0975  0.4766
  860MOL0     C16031   0.739   8.606   1.453 -0.0298  0.8325 -0.6005
  860MOL0     C16032   0.707   8.620   1.300  0.9616 -0.4606 -0.6870
  860MOL0     H16033   1.334   8.739   1.603  1.0137 -2.0744  0.5223
  860MOL0     H16034   1.563   8.757   1.504  0.7341 -2.6324 -0.2014
  860MOL0     H16035   1.711   8.822   1.076 -0.9537  0.4337 -0.3075
  860MOL0     H16036   1.553   8.889   1.093  1.5838  1.2873 -3.4006
  860MOL0     H16037   1.626   9.048   1.267 -1.9467  2.0440 -3.8607
  860MOL0     H16038   1.736   9.049   1.129 -0.7332 -0.9002 -0.6268
  860MOL0     H16039   1.870   8.863   1.275  1.8566  1.3964  0.2561
  860MOL0     H16040   1.758   8.914   1.395 -3.1916 -0.6547 -2.0110
  860MOL0     H16041   1.929   9.128   1.250 -1.6466  1.0374  0.9161
  860MOL0     H16042   1.869   9.124   1.418  0.2761 -1.0472  0.8341
  860MOL0     H16043   2.113   9.088   1.418  2.9290 -2.1530 -0.0377
  860MOL0     H16044   2.005   8.954   1.488 -0.7694 -1.1746 -1.0012
  860MOL0     H16045   2.226   8.886   1.383  2.0972 -2.4952 -3.6608
  860MOL0     H16046   2.075   8.807   1.319 -0.0369 -0.6029  0.7515
  860MOL0     H16047   2.081   8.940   1.124  0.6673 -0.9084 -1.3895
  860MOL0     H16048   2.235   8.859   1.140 -1.1446 -0.4656 -0.7249
  860MOL0     H16049   2.239   9.090   1.061 -1.9074 -0.2662 -0.4197
  860MOL0     H16050   2.192   9.149   1.214  0.0839  0.7684 -0.5371
  860MOL0     H16051   2.483   8.962   1.030 -0.7969 -1.6523  0.3225
  860MOL0     H16052   2.764   8.854   1.224 -0.6117  0.3664 -0.3684
  860MOL0     H16053   2.719   8.892   1.058 -0.0959 -2.3971  0.0361
  860MOL0     H16054   2.793   9.134   1.106  2.1008  1.0484 -1.0487
  860MOL0     H16055   2.872   9.062   1.247 -4.0858 -1.6583  0.8483
  860MOL0     H16056   3.026   9.086   1.038  0.4592 -0.1172  2.5581
  860MOL0     H16057   2.929   8.985   0.949  2.3749  1.8727 -0.8040
  860MOL0     H16058   3.109   8.859   1.027 -1.4303  1.6372 -2.1947
  860MOL0     H16059   2.972   8.790   1.120 -0.2465 -0.4906 -0.4968
  860MOL0     H16060   3.225   8.693   1.126 -1.3094 -3.4126  3.4704
  860MOL0     H16061   3.472   8.653   1.166 -1.7466 -0.2384  0.2297
  860MOL0     H16062   3.894   8.790   1.267 -0.3758 -1.4030 -2.4896
  860MOL0     H16063   4.133   8.723   1.380  0.5590  0.3794 -2.0080
  860MOL0     H16064   4.140   8.423   1.683  0.6389  3.0998  0.1077
  860MOL0     H16065   4.149   8.307   1.557  0.1273 -0.0318 -3.2597
  860MOL0     H16066   4.383   8.331   1.533 -0.9823 -0.1989 -0.7456
  860MOL0     H16067   4.398   8.463   1.654  1.5284  0.9798 -1.3174
  860MOL0     H16068   4.318   8.302   1.829  0.6139  1.4488 -0.6192
  860MOL0     H16069   4.277   8.179   1.704 -0.5323 -0.3183  1.7196
  860MOL0     H16070   4.554   8.293   1.716 -0.7734  1.2648 -4.0483
  860MOL0     H16071   4.494   8.147   1.631 -1.5325 -0.7047  0.2206
  860MOL0     H16072   4.443   8.054   1.864 -0.3864 -0.1126 -1.3350
  860MOL0     H16073   4.526   8.195   1.930  1.4078  1.8185 -1.8376
  860MOL0     H16074   4.696   8.000   1.743 -0.7701 -1.7488  1.8257
  860MOL0     H16075   4.747   8.133   1.838 -0.1984  1.1571 -3.1105
  860MOL0     H16076   4.611   7.876   1.928 -0.5714  1.6034 -0.4497
  860MOL0     H16077   4.686   7.997   2.044 -1.0916  2.0702 -0.4884
  860MOL0     H16078   4.837   7.819   2.014 -0.7989 -0.8033 -0.3719
  860MOL0     H16079   4.802   7.814   1.843 -5.1190  0.7402  1.1672
  860MOL0     H16080   3.947   8.356   1.493 -2.3363 -0.2770 -1.6090
  860MOL0     H16081   3.737   8.431   1.389  0.9296 -1.3664  2.0052
  860MOL0     H16082   3.483   8.971   1.456  3.4196 -0.8898 -1.4656
  860MOL0     H16083   3.252   9.034   1.403  0.6295  1.7734 -1.8832
  860MOL0     H16084   1.396   8.738   1.110 -4.2143 -2.2473 -0.0962
  860MOL0     H16085   1.176   8.688   1.204  1.4779 -3.1749 -1.9271
  860MOL0     H16086   1.002   8.614   1.681 -0.2347 -1.9140 -0.7028
  860MOL0     H16087   0.842   8.520   1.822 -0.4851 -1.8741 -0.5210
  860MOL0     H16088   0.380   8.488   1.718  1.0207  2.5848 -2.3964
  860MOL0     H16089   0.455   8.639   1.761 -0.4827 -0.6055 -0.9532
  860MOL0     H16090   0.510   8.525   1.984 -2.1379  0.4451  1.2224
  860MOL0     H16091   0.392   8.396   1.946  0.2491 -0.3455 -2.2257
  860MOL0     H16092   0.284   8.528   2.080  2.4522 -0.3752  1.7201
  860MOL0     H16093   0.247   8.632   1.936 -0.6527  2.8078  2.3882
  860MOL0     H16094   0.286   8.772   2.119 -0.7319 -0.2416 -0.9584
  860MOL0     H16095   0.441   8.691   2.158 -0.8015  1.0530  0.9243
  860MOL0     H16096   0.572   8.911   1.821 -1.3782 -0.8393 -1.6047
  860MOL0     H16097   0.548   8.525   1.509  1.1731 -2.6571 -0.3607
  860MOL0     H16098   0.667   8.719   1.274  0.4500  0.0607  1.8453
  860MOL0     H16099   0.798   8.592   1.247  0.3104 -1.7949 -1.1384
  860MOL0     H16100   0.628   8.548   1.276  1.3669 -0.5754 -1.7201
  861MOL0     O16101   9.920   8.105   0.404 -0.1363  0.2242 -0.0688
  861MOL0     C16102   9.819   8.042   0.432  0.5468 -0.0241 -0.0372
  861MOL0     O16103   9.822   7.915   0.474 -0.3520 -0.1938 -0.1464
  861MOL0     C16104   9.947   7.861   0.518  0.3436  0.5205  0.7598
  861MOL0     C16105   9.999   7.756   0.441  1.1194 -0.6761  0.4763
  861MOL0     C16106  10.126   7.720   0.457  0.3095  0.6921  0.2529
  861MOL0     C16107  10.195   7.750   0.570  0.5504  0.0154 -0.6317
  861MOL0     O16108  10.316   7.707   0.611 -0.3444  0.4829 -0.4593
  861MOL0     C16109  10.362   7.583   0.562 -0.2926  0.1553 -0.1451
  861MOL0     C16110  10.452   7.514   0.669  0.0078  0.0119  0.7488
  861MOL0     C16111  10.515   7.387   0.604  0.2093  0.6353 -0.0340
  861MOL0     C16112  10.592   7.297   0.696 -0.0298  0.3394 -0.3374
  861MOL0     C16113  10.687   7.368   0.787 -0.4398 -0.1271 -0.2496
  861MOL0     C16114  10.807   7.439   0.724 -0.7115 -0.8033  0.1749
  861MOL0     C16115  10.880   7.355   0.613 -0.0730  0.2215 -0.4675
  861MOL0     C16116  10.960   7.239   0.681 -0.2236  0.0065  0.2298
  861MOL0     N16117  11.056   7.264   0.797  0.4778 -1.1306  0.2857
  861MOL0     C16118  11.026   7.248   0.927  0.3126 -0.6834  0.4711
  861MOL0     C16119  11.142   7.245   0.993 -0.0253 -0.5495 -0.6885
  861MOL0     C16120  11.187   7.226   1.139 -0.2800  0.9513 -0.3168
  861MOL0     C16121  11.253   7.083   1.153  0.7629  0.0331 -0.7537
  861MOL0     C16122  11.285   7.072   1.303 -0.5810 -0.2643 -0.7087
  861MOL0     C16123  11.330   6.926   1.334  0.8207  0.7869 -0.0883
  861MOL0     O16124  11.327   6.915   1.477  1.4989 -0.0991  0.1519
  861MOL0     C16125  11.430   6.929   1.564  0.3255 -0.5315 -0.0705
  861MOL0     C16126  11.409   6.874   1.690  0.0987 -0.1138  0.0864
  861MOL0     C16127  11.503   6.894   1.787  0.1989 -1.0350 -0.6985
  861MOL0     C16128  11.620   6.964   1.766 -0.7559  0.2845  0.2691
  861MOL0     C16129  11.736   6.956   1.865  0.6643  0.1641 -1.0892
  861MOL0     O16130  11.701   6.957   1.994  0.3729  0.6629  0.5710
  861MOL0     C16131  11.799   6.993   2.092  0.6118  0.4943  0.3066
  861MOL0     C16132  11.925   6.926   2.104  0.1517  0.3070 -0.9184
  861MOL0     C16133  12.012   6.962   2.215 -0.5114  0.1680 -0.2093
  861MOL0     C16134  11.980   7.070   2.299  0.2156  0.2326  0.0673
  861MOL0     O16135  12.057   7.123   2.394 -0.3571 -0.8555 -0.3866
  861MOL0     C16136  12.167   7.044   2.427  0.4026  0.2797 -0.2538
  861MOL0     C16137  12.238   7.111   2.543 -0.0159  0.8400 -0.2772
  861MOL0     C16138  12.367   7.032   2.579  0.0314 -0.3611 -0.3330
  861MOL0     C16139  12.466   7.139   2.633 -0.7770  0.3077 -0.2441
  861MOL0     C16140  12.609   7.075   2.641 -0.3264  0.1995 -0.1648
  861MOL0     C16141  12.712   7.168   2.688  0.1014  0.4974 -0.4289
  861MOL0     C16142  12.845   7.092   2.686  0.4214  0.0364  0.2787
  861MOL0     C16143  12.945   7.193   2.738  1.0813  1.5293 -0.6088
  861MOL0    Cl16144  12.939   7.204   2.921  0.0978 -0.3440 -0.1649
  861MOL0     C16145  11.855   7.123   2.282 -0.0254 -0.0351 -1.1562
  861MOL0     C16146  11.768   7.088   2.186  0.6670  0.1502  0.6844
  861MOL0     O16147  11.853   6.979   1.827 -0.4904  0.4976 -0.3621
  861MOL0     C16148  11.639   7.021   1.635  0.1812 -0.0387  0.0149
  861MOL0     C16149  11.539   7.007   1.535 -0.0152 -0.6525  0.1181
  861MOL0     N16150  11.250   7.256   0.900  0.1287 -0.2212  0.3723
  861MOL0     N16151  11.191   7.262   0.787  0.3361  0.2944  0.7782
  861MOL0     C16152  10.141   7.835   0.661  0.7653 -0.1230  0.5495
  861MOL0     C16153  10.026   7.905   0.625  0.5934  0.3094  0.4091
  861MOL0     C16154   9.688   8.086   0.395  0.5764  1.4403 -0.6607
  861MOL0     C16155   9.582   7.997   0.386 -0.1654  0.7211  0.0909
  861MOL0     C16156   9.451   8.028   0.349 -0.0297 -0.0394 -0.1394
  861MOL0     C16157   9.416   8.161   0.342  0.4163 -1.0309  0.3342
  861MOL0     O16158   9.292   8.209   0.331  0.0393  0.1032  0.1372
  861MOL0     C16159   9.190   8.119   0.298 -0.7846  0.3822 -0.7416
  861MOL0     C16160   9.056   8.197   0.290 -0.0234  0.2963  0.9420
  861MOL0     C16161   9.055   8.287   0.168  0.3071  0.1256  0.1960
  861MOL0     C16162   8.915   8.310   0.106  0.7803  0.4335  0.2590
  861MOL0     C16163   8.882   8.194   0.029  0.2432  0.0269 -0.0412
  861MOL0     C16164   8.830   8.110  -0.036 -0.5565  0.5751  0.5574
  861MOL0     C16165   9.518   8.256   0.367  0.1345  0.4723 -0.4588
  861MOL0     C16166   9.659   8.220   0.388  0.5873  0.8979 -0.6111
  861MOL0     C16167   9.760   8.327   0.404 -1.0643 -0.9580 -0.3171
  861MOL0     H16168   9.947   7.724   0.351  1.0383  2.0063 -0.5243
  861MOL0     H16169  10.170   7.649   0.387 -0.9984  1.0848 -1.0161
  861MOL0     H16170  10.277   7.519   0.537 -1.4965  0.6782  2.3541
  861MOL0     H16171  10.420   7.606   0.472  1.3636 -0.5554  0.6943
  861MOL0     H16172  10.385   7.486   0.750 -1.1347  0.8179  0.1032
  861MOL0     H16173  10.525   7.580   0.718 -1.2457  0.9357  1.4350
  861MOL0     H16174  10.588   7.432   0.536  0.3102 -0.0958 -0.4171
  861MOL0     H16175  10.448   7.321   0.549  1.3423 -0.6239  0.0179
  861MOL0     H16176  10.531   7.243   0.769 -1.6571  1.0487 -1.1236
  861MOL0     H16177  10.649   7.221   0.643  1.4392  1.4017 -0.3350
  861MOL0     H16178  10.639   7.440   0.854 -0.3643 -1.0237  0.7947
  861MOL0     H16179  10.725   7.285   0.847 -1.0491  2.1434  3.6420
  861MOL0     H16180  10.777   7.534   0.679  0.8860 -1.3482 -2.2542
  861MOL0     H16181  10.888   7.464   0.794  0.8849  2.4083 -2.4960
  861MOL0     H16182  10.946   7.419   0.553  0.2901 -0.9224 -1.3257
  861MOL0     H16183  10.816   7.299   0.543 -1.2155 -1.0495  1.4915
  861MOL0     H16184  10.897   7.157   0.715 -0.6980  0.2197 -0.1141
  861MOL0     H16185  11.016   7.201   0.596  0.3171 -0.5941  0.8441
  861MOL0     H16186  10.926   7.243   0.967  0.2461  2.1009  0.8733
  861MOL0     H16187  11.248   7.311   1.172  0.2578 -0.5766  3.0061
  861MOL0     H16188  11.098   7.236   1.201 -1.4436 -0.3097 -1.6792
  861MOL0     H16189  11.172   7.014   1.128  0.7444 -0.0126 -0.5613
  861MOL0     H16190  11.335   7.069   1.081 -0.3641 -3.3711 -1.5660
  861MOL0     H16191  11.201   7.095   1.369 -0.2908  0.7523 -0.6825
  861MOL0     H16192  11.369   7.135   1.335  0.2440 -2.7738  2.6642
  861MOL0     H16193  11.429   6.909   1.291  0.7851 -1.0649  0.4823
  861MOL0     H16194  11.254   6.854   1.301 -2.0352  2.7727  1.6953
  861MOL0     H16195  11.311   6.841   1.722 -1.0173 -1.5401 -4.0625
  861MOL0     H16196  11.494   6.860   1.890  0.9247  0.0380 -0.2601
  861MOL0     H16197  11.949   6.847   2.034  1.6288 -1.8424  1.7742
  861MOL0     H16198  12.107   6.911   2.227 -0.6175  0.5110  2.7594
  861MOL0     H16199  12.137   6.943   2.455 -0.8725  0.8291  0.4301
  861MOL0     H16200  12.244   7.039   2.349 -0.3424  1.3348 -1.0825
  861MOL0     H16201  12.253   7.212   2.505 -3.1873  0.6822 -2.3454
  861MOL0     H16202  12.172   7.118   2.631  0.3812 -2.6447  0.4363
  861MOL0     H16203  12.333   6.959   2.654 -0.7135 -0.0046 -0.3157
  861MOL0     H16204  12.412   6.988   2.489  0.0085  1.8890 -1.5026
  861MOL0     H16205  12.431   7.164   2.734 -0.7183 -2.0781  0.4403
  861MOL0     H16206  12.460   7.231   2.575 -2.2552  1.0962  1.0932
  861MOL0     H16207  12.636   7.024   2.548  2.9946  0.7461  0.3817
  861MOL0     H16208  12.601   6.990   2.709  0.3145 -1.1014 -1.6467
  861MOL0     H16209  12.720   7.255   2.622  3.0240  0.8000  0.1713
  861MOL0     H16210  12.684   7.209   2.786  0.6027  0.0966 -0.1063
  861MOL0     H16211  12.869   7.082   2.580 -3.7724  0.8353 -0.8975
  861MOL0     H16212  12.849   6.995   2.736 -0.4834 -2.0130 -3.2589
  861MOL0     H16213  13.040   7.145   2.711  0.3641 -0.0598 -0.3860
  861MOL0     H16214  12.923   7.290   2.693 -1.3724  0.2464 -2.4483
  861MOL0     H16215  11.841   7.205   2.352  0.0654  0.2270 -1.4402
  861MOL0     H16216  11.672   7.138   2.187  1.9170  2.7544  2.7105
  861MOL0     H16217  11.731   7.071   1.608  0.5333 -1.3575 -1.4037
  861MOL0     H16218  11.553   7.064   1.444 -1.4449 -0.7747 -0.1880
  861MOL0     H16219  10.211   7.854   0.742  2.2705 -0.0522 -0.6950
  861MOL0     H16220   9.977   7.985   0.678 -2.9079  1.9014 -4.4860
  861MOL0     H16221   9.588   7.889   0.395 -3.1022  0.4464 -0.2259
  861MOL0     H16222   9.389   7.941   0.333  1.3695 -0.7614 -2.0600
  861MOL0     H16223   9.179   8.056   0.386 -0.9335  2.6031  0.9205
  861MOL0     H16224   9.197   8.053   0.211 -2.4229 -1.3035  0.3399
  861MOL0     H16225   9.044   8.261   0.378  0.7330  2.8275 -0.6821
  861MOL0     H16226   8.979   8.121   0.279  1.0124 -0.5986 -0.5197
  861MOL0     H16227   9.120   8.249   0.089  0.6605 -2.1185  1.4808
  861MOL0     H16228   9.096   8.382   0.204 -0.6603 -0.0260  1.8129
  861MOL0     H16229   8.846   8.332   0.188  0.1701  2.5691 -0.7495
  861MOL0     H16230   8.913   8.400   0.045 -1.4069  0.0498 -0.3360
  861MOL0     H16231   8.789   8.041  -0.108 -0.2618  2.4252 -1.4870
  861MOL0     H16232   9.497   8.363   0.369 -0.1192  0.4117  0.3940
  861MOL0     H16233   9.810   8.311   0.501 -1.7334 -2.5865 -0.2115
  861MOL0     H16234   9.839   8.333   0.329  0.6011 -3.3245  1.1001
  861MOL0     H16235   9.712   8.425   0.396 -1.1549 -1.0845 -1.3966
  862MOL0     O16236  10.389   8.418   4.858 -0.4282 -0.5137 -0.1763
  862MOL0     C16237  10.384   8.525   4.916  0.7112 -0.2642 -0.4983
  862MOL0     O16238  10.492   8.596   4.957  0.2631  0.0588  0.2022
  862MOL0     C16239  10.618   8.548   4.958  0.9878 -0.2101 -0.1120
  862MOL0     C16240  10.715   8.645   4.944 -0.5120 -0.2935 -0.0466
  862MOL0     C16241  10.845   8.615   4.951  0.2191 -0.1141 -0.1240
  862MOL0     C16242  10.891   8.484   4.969  0.0833  0.3402 -0.2004
  862MOL0     O16243  11.028   8.449   4.975 -0.6110 -0.5926 -0.1845
  862MOL0     C16244  11.062   8.349   4.876  0.4246  0.1834  0.2181
  862MOL0     C16245  11.214   8.314   4.866 -0.2872 -0.2530  0.0970
  862MOL0     C16246  11.293   8.428   4.803  0.2542 -0.0990  0.6039
  862MOL0     C16247  11.438   8.401   4.796 -0.8886 -0.6409 -0.1832
  862MOL0     C16248  11.504   8.531   4.758  0.0365  0.5850 -0.2852
  862MOL0     C16249  11.663   8.529   4.736  0.4001  0.1194  0.0499
  862MOL0     C16250  11.735   8.651   4.779 -0.1829 -1.0606  0.3266
  862MOL0     C16251  11.689   8.783   4.709  0.4138 -0.2008 -0.5477
  862MOL0     N16252  11.790   8.890   4.734  0.8523  0.0317  0.0804
  862MOL0     C16253  11.843   8.917   4.856  0.2202  0.1448  0.0784
  862MOL0     C16254  11.963   8.971   4.840 -0.9267 -0.4050 -0.1836
  862MOL0     C16255  12.050   9.029   4.939  0.1013  0.9053 -0.1925
  862MOL0     C16256  12.179   8.949   4.962 -0.3049  0.6446  0.8909
  862MOL0     C16257  12.248   8.992   5.090 -0.7795 -0.7631 -0.4964
  862MOL0     C16258  12.364   8.898   5.130  0.0378 -0.2228  0.7039
  862MOL0     O16259  12.476   8.898   5.031 -0.1230  0.0720 -0.1316
  862MOL0     C16260  12.598   8.933   5.093 -0.6251  0.4387  0.3314
  862MOL0     C16261  12.718   8.865   5.054 -0.2065  0.2022 -0.6950
  862MOL0     C16262  12.849   8.902   5.097 -0.2241 -0.2251  0.4107
  862MOL0     C16263  12.859   8.997   5.205  0.8417  1.3402  0.5545
  862MOL0     C16264  12.990   9.027   5.255 -0.8680  0.1875  0.6964
  862MOL0     O16265  13.108   8.973   5.206  0.7893  0.3152  0.5177
  862MOL0     C16266  13.230   8.996   5.254  0.3368 -0.0843 -0.4998
  862MOL0     C16267  13.261   8.989   5.389 -0.1630  0.2717 -0.0703
  862MOL0     C16268  13.389   8.989   5.434 -0.3471 -1.0449  0.2788
  862MOL0     C16269  13.502   9.000   5.345  0.8196  0.8074 -0.9157
  862MOL0     O16270  13.636   9.012   5.386 -0.1156 -0.2579 -0.5095
  862MOL0     C16271  13.665   8.961   5.513  0.0127 -0.1555  0.0590
  862MOL0     C16272  13.812   8.982   5.545  0.0578 -0.4436  0.5365
  862MOL0     C16273  13.904   8.872   5.468  0.7654 -0.0786  0.9444
  862MOL0     C16274  14.057   8.873   5.517  0.0785  0.0480  0.2362
  862MOL0     C16275  14.119   8.741   5.465 -0.8569  0.4250  0.7751
  862MOL0     C16276  14.266   8.763   5.506  0.2925 -0.2849 -0.0647
  862MOL0     C16277  14.361   8.646   5.463 -0.1489 -0.0491  0.2838
  862MOL0     C16278  14.511   8.664   5.486 -0.1333 -0.9097 -0.3824
  862MOL0    Cl16279  14.553   8.662   5.669 -0.3236  0.0045 -0.2243
  862MOL0     C16280  13.476   8.992   5.200 -1.2475  0.8730 -0.3551
  862MOL0     C16281  13.342   8.997   5.158  0.0885  0.1652 -0.1027
  862MOL0     O16282  12.986   9.106   5.350  0.4050 -0.2077 -0.4146
  862MOL0     C16283  12.743   9.058   5.252 -0.1160 -0.7137 -0.6111
  862MOL0     C16284  12.616   9.032   5.190 -0.8280 -0.9488  0.7043
  862MOL0     N16285  11.979   8.979   4.698 -1.2634 -0.2340 -0.3045
  862MOL0     N16286  11.879   8.933   4.643  0.7966 -0.0175 -0.3541
  862MOL0     C16287  10.788   8.391   4.985 -0.2984  0.4824 -0.2586
  862MOL0     C16288  10.656   8.418   4.974  0.1347  0.5216 -0.0975
  862MOL0     C16289  10.263   8.608   4.907  0.3069 -0.0720  0.7538
  862MOL0     C16290  10.277   8.750   4.942  0.1910  0.2171  0.4902
  862MOL0     C16291  10.159   8.830   4.954 -0.2481 -0.0643  0.2627
  862MOL0     C16292  10.029   8.783   4.931 -0.6759 -0.3831 -0.7542
  862MOL0     O16293   9.926   8.878   4.935 -0.3916  0.6933  0.3634
  862MOL0     C16294   9.800   8.838   4.876  0.0351  0.2020  0.9853
  862MOL0     C16295   9.694   8.938   4.931 -0.2425  0.1251  1.0116
  862MOL0     C16296   9.686   8.912   5.077  0.6189 -0.1753 -0.5836
  862MOL0     C16297   9.589   9.005   5.154 -0.1595 -0.1422 -0.7653
  862MOL0     C16298   9.458   9.025   5.093  0.5892  0.4835 -0.2119
  862MOL0     C16299   9.350   9.046   5.048  0.5899 -0.8119  1.3105
  862MOL0     C16300  10.017   8.656   4.874  0.7234  0.5062 -0.9730
  862MOL0     C16301  10.129   8.567   4.868 -0.4257  0.4671 -0.4245
  862MOL0     C16302  10.107   8.426   4.828  0.0039  0.2166 -0.0071
  862MOL0     H16303  10.675   8.744   4.929  1.7845  0.8293  0.7817
  862MOL0     H16304  10.915   8.699   4.958  1.4931 -1.0128 -1.4379
  862MOL0     H16305  11.023   8.257   4.920  0.8268 -0.0963 -0.0099
  862MOL0     H16306  11.015   8.369   4.779 -3.1855 -2.2331  1.2504
  862MOL0     H16307  11.229   8.226   4.803  0.2907  1.3204 -2.0893
  862MOL0     H16308  11.241   8.300   4.971 -1.5679  2.2317  0.8430
  862MOL0     H16309  11.264   8.514   4.863 -2.4859 -0.4849 -0.0620
  862MOL0     H16310  11.261   8.443   4.700  2.3186  1.0671  0.0835
  862MOL0     H16311  11.472   8.367   4.894  0.1762  0.2019 -0.2411
  862MOL0     H16312  11.463   8.324   4.723  1.9567 -0.3430  0.3514
  862MOL0     H16313  11.449   8.563   4.669 -3.2718  1.5827  1.9222
  862MOL0     H16314  11.485   8.604   4.838  3.4519 -0.4349  1.6855
  862MOL0     H16315  11.695   8.451   4.805  1.2438  1.7528  1.5822
  862MOL0     H16316  11.689   8.503   4.633  0.3330  1.0238 -0.2081
  862MOL0     H16317  11.839   8.642   4.747 -0.7135  0.8434 -2.2116
  862MOL0     H16318  11.736   8.670   4.887  2.0324  1.3256  0.0090
  862MOL0     H16319  11.670   8.765   4.603 -1.8862 -2.0214  0.0873
  862MOL0     H16320  11.597   8.826   4.748  0.8552  0.2533  0.0117
  862MOL0     H16321  11.802   8.896   4.955  1.5185  1.1547  0.8633
  862MOL0     H16322  12.071   9.134   4.915  4.8687  0.6416  1.6300
  862MOL0     H16323  12.010   9.014   5.039  0.3476 -0.3130 -0.2643
  862MOL0     H16324  12.155   8.844   4.978  0.2576  0.5515  1.1686
  862MOL0     H16325  12.245   8.967   4.876 -1.6872 -1.2026 -0.6611
  862MOL0     H16326  12.175   8.998   5.171  0.2239  0.1730  0.3921
  862MOL0     H16327  12.292   9.092   5.091  0.1308 -0.9921  3.7403
  862MOL0     H16328  12.314   8.801   5.126  0.3308 -0.3423 -2.7747
  862MOL0     H16329  12.396   8.931   5.229 -0.9655  2.0437  0.3273
  862MOL0     H16330  12.700   8.785   4.982 -0.2228  1.3036 -1.9472
  862MOL0     H16331  12.940   8.861   5.055 -0.2238  0.7657 -0.6277
  862MOL0     H16332  13.183   8.977   5.463 -0.0591  1.5054  0.2443
  862MOL0     H16333  13.414   8.972   5.539 -0.8738 -0.5933  0.4827
  862MOL0     H16334  13.603   9.009   5.589  1.0096 -0.8506  1.3709
  862MOL0     H16335  13.647   8.853   5.514  0.4398 -0.2703 -1.5521
  862MOL0     H16336  13.832   9.082   5.504  2.2042 -2.0196 -2.7309
  862MOL0     H16337  13.827   8.981   5.654 -0.4785 -3.6881  0.6799
  862MOL0     H16338  13.859   8.773   5.485 -1.1492  0.9188  1.9999
  862MOL0     H16339  13.919   8.898   5.363  0.6629  2.8405  1.5692
  862MOL0     H16340  14.055   8.860   5.625  2.2362 -1.1935  0.1787
  862MOL0     H16341  14.121   8.957   5.489  0.6948 -0.4630  0.0901
  862MOL0     H16342  14.114   8.725   5.357  1.5002 -2.8247  0.9899
  862MOL0     H16343  14.074   8.660   5.524  0.0977  0.2323  1.2547
  862MOL0     H16344  14.299   8.856   5.459  0.1384 -0.4673 -0.5354
  862MOL0     H16345  14.265   8.769   5.616 -0.9485 -1.9916  0.0629
  862MOL0     H16346  14.347   8.622   5.357 -0.9527  0.4644  0.2653
  862MOL0     H16347  14.343   8.548   5.507 -0.7991 -0.9522 -1.8671
  862MOL0     H16348  14.561   8.587   5.427  2.5726  1.6294 -1.6476
  862MOL0     H16349  14.542   8.757   5.437 -1.8526 -0.2824 -0.3424
  862MOL0     H16350  13.563   8.993   5.135 -1.8924 -2.3549 -1.4385
  862MOL0     H16351  13.322   8.978   5.053  0.3617  0.0184 -0.1291
  862MOL0     H16352  12.752   9.143   5.319 -3.8713 -1.2634  0.8617
  862MOL0     H16353  12.531   9.099   5.202 -0.7795 -0.4966 -1.2576
  862MOL0     H16354  10.818   8.293   5.021  1.4173  1.9110  2.5097
  862MOL0     H16355  10.583   8.339   4.985  1.1775 -0.3980  0.3953
  862MOL0     H16356  10.375   8.795   4.945  1.0037 -1.4103 -0.3059
  862MOL0     H16357  10.170   8.934   4.981 -1.3472 -0.0309  0.6568
  862MOL0     H16358   9.774   8.739   4.914  0.7636 -0.7925 -0.9770
  862MOL0     H16359   9.792   8.826   4.768  1.5515 -2.0776  1.0559
  862MOL0     H16360   9.602   8.924   4.872 -0.0715 -2.2834  1.2139
  862MOL0     H16361   9.732   9.037   4.905  1.4726 -1.2089 -1.9940
  862MOL0     H16362   9.780   8.919   5.133 -0.4228  2.6976  1.0238
  862MOL0     H16363   9.639   8.815   5.093  0.4922  0.0483  0.5379
  862MOL0     H16364   9.570   8.967   5.255 -0.4500 -2.0199 -1.4800
  862MOL0     H16365   9.652   9.095   5.159  0.0686 -0.3466  0.3985
  862MOL0     H16366   9.266   9.059   4.983  1.1132  0.8549  0.9334
  862MOL0     H16367   9.919   8.615   4.855  1.0849 -1.8826  1.5846
  862MOL0     H16368  10.002   8.412   4.800  0.5596 -1.1824 -1.5478
  862MOL0     H16369  10.174   8.411   4.742  0.7427 -0.3646  0.6623
  862MOL0     H16370  10.119   8.358   4.912 -0.3858  0.1781  0.0197
  863MOL0     O16371   7.877   0.392   1.599  0.4893 -0.0283  0.0545
  863MOL0     C16372   7.858   0.358   1.484 -0.3119  0.2198  0.4330
  863MOL0     O16373   7.947   0.402   1.386 -0.4351  0.4621  0.0531
  863MOL0     C16374   8.032   0.514   1.396  1.0209  0.5424 -0.0675
  863MOL0     C16375   8.022   0.627   1.477 -0.5790 -0.6170 -0.4200
  863MOL0     C16376   8.104   0.742   1.468  0.5575  0.3041  0.7680
  863MOL0     C16377   8.211   0.744   1.389  0.7121 -0.2657 -0.6464
  863MOL0     O16378   8.284   0.859   1.405  0.1423 -0.2739  0.8344
  863MOL0     C16379   8.392   0.877   1.309  0.0163  0.5353  0.1158
  863MOL0     C16380   8.465   1.000   1.363 -0.0609  0.4854 -0.0372
  863MOL0     C16381   8.618   0.975   1.351  0.4395  0.1166  0.0451
  863MOL0     C16382   8.705   1.109   1.353  0.1740  0.3669 -1.0688
  863MOL0     C16383   8.686   1.198   1.483 -0.8011 -0.6849 -0.5534
  863MOL0     C16384   8.745   1.336   1.469  0.9797 -0.7522 -0.4013
  863MOL0     C16385   8.893   1.343   1.417 -0.8893 -0.3215 -0.2037
  863MOL0     C16386   8.901   1.401   1.273 -0.2736  0.8744 -0.0827
  863MOL0     N16387   9.026   1.366   1.205 -1.2513 -0.6165 -0.9177
  863MOL0     C16388   9.147   1.420   1.237  0.1442  0.3082  0.0547
  863MOL0     C16389   9.228   1.349   1.153 -0.1804  0.0726  0.3970
  863MOL0     C16390   9.386   1.360   1.155  0.0645  0.0232 -0.3582
  863MOL0     C16391   9.456   1.219   1.177 -0.0046 -0.2259 -0.5801
  863MOL0     C16392   9.517   1.154   1.048  0.5126  0.2094  0.0114
  863MOL0     C16393   9.593   1.029   1.081 -0.0444  0.5337 -0.0507
  863MOL0     O16394   9.731   1.049   1.129  0.6794  0.4155  0.0817
  863MOL0     C16395   9.835   1.034   1.034  0.6996  1.4647  1.2154
  863MOL0     C16396   9.954   0.986   1.079 -0.6934  0.7405 -0.8809
  863MOL0     C16397  10.070   0.982   0.994  0.1180  0.1558 -0.4302
  863MOL0     C16398  10.062   1.028   0.860 -1.3945 -0.6346 -0.7013
  863MOL0     C16399  10.180   1.000   0.766  0.6261  0.0152  0.2154
  863MOL0     O16400  10.194   1.060   0.645 -0.1354 -0.1632  0.0561
  863MOL0     C16401  10.300   1.043   0.562  0.4825  0.3448  0.2720
  863MOL0     C16402  10.269   1.058   0.429 -0.9146  0.0017  0.6250
  863MOL0     C16403  10.367   1.053   0.335  0.1820 -0.3474 -0.9706
  863MOL0     C16404  10.501   1.050   0.367  1.2308 -0.1037 -0.6477
  863MOL0     O16405  10.592   1.050   0.262  0.9534  1.0405  0.3541
  863MOL0     C16406  10.725   1.003   0.288 -0.1381  0.0548 -0.4225
  863MOL0     C16407  10.819   1.126   0.283 -1.3002  0.0857 -0.2928
  863MOL0     C16408  10.789   1.245   0.373 -0.1014 -0.1434 -0.0405
  863MOL0     C16409  10.886   1.371   0.327  0.2135  1.0292 -0.1464
  863MOL0     C16410  10.837   1.503   0.392  0.4054 -0.2935  0.2876
  863MOL0     C16411  10.861   1.520   0.533 -0.4497 -0.8129 -1.2051
  863MOL0     C16412  10.839   1.661   0.595 -0.1783  0.1391 -0.2453
  863MOL0     C16413  10.954   1.754   0.561  0.0918  0.2904 -0.8175
  863MOL0    Cl16414  10.920   1.921   0.604  0.5505 -0.2308 -0.3784
  863MOL0     C16415  10.536   1.033   0.503 -0.2504  0.0229 -0.3979
  863MOL0     C16416  10.435   1.028   0.595  1.0620  0.2064  0.1068
  863MOL0     O16417  10.253   0.914   0.816  0.2942  0.8392  0.3340
  863MOL0     C16418   9.938   1.076   0.813 -0.4320  0.0572  0.4772
  863MOL0     C16419   9.827   1.076   0.898  0.5651 -0.4819  0.1594
  863MOL0     N16420   9.152   1.268   1.070 -0.6484 -0.6529  0.0904
  863MOL0     N16421   9.031   1.273   1.109 -0.3274  0.2391 -0.5704
  863MOL0     C16422   8.236   0.628   1.315  0.0884  0.4626  0.8644
  863MOL0     C16423   8.150   0.521   1.311 -0.3164 -0.3012 -0.6492
  863MOL0     C16424   7.741   0.271   1.447 -1.3304  0.6183  0.2670
  863MOL0     C16425   7.701   0.271   1.317  0.1004 -0.5036  0.1900
  863MOL0     C16426   7.587   0.188   1.278  0.2724 -0.4772 -0.6173
  863MOL0     C16427   7.517   0.107   1.371 -0.1134 -0.0637 -0.0061
  863MOL0     O16428   7.409   0.036   1.325  0.0596 -0.0146 -0.2788
  863MOL0     C16429   7.305  -0.015   1.406  0.1395  1.0158 -0.4590
  863MOL0     C16430   7.173  -0.028   1.323 -0.5027 -0.0602  0.0603
  863MOL0     C16431   7.059  -0.042   1.417  0.7666 -0.5629  0.2759
  863MOL0     C16432   6.935  -0.034   1.331  0.7182  0.5708 -0.3218
  863MOL0     C16433   6.880   0.102   1.290 -0.0782  0.3554 -1.2169
  863MOL0     C16434   6.844   0.217   1.282  0.5102  0.0509  0.1586
  863MOL0     C16435   7.566   0.103   1.498 -0.0649 -0.8970 -0.3348
  863MOL0     C16436   7.665   0.195   1.544 -0.7323 -0.5893 -0.2691
  863MOL0     C16437   7.690   0.182   1.692  0.3700 -0.0152 -0.7659
  863MOL0     H16438   7.939   0.621   1.547 -0.1671 -4.5974 -0.0154
  863MOL0     H16439   8.084   0.828   1.531 -0.6402  3.0896 -3.0596
  863MOL0     H16440   8.463   0.795   1.325 -0.6663 -0.1214 -0.1875
  863MOL0     H16441   8.354   0.873   1.207 -1.6877 -2.8457  0.7133
  863MOL0     H16442   8.451   1.026   1.469 -0.8589  3.5954 -0.7918
  863MOL0     H16443   8.443   1.084   1.297 -0.3044 -1.6051 -2.7750
  863MOL0     H16444   8.618   0.926   1.253  0.4498 -0.1933  0.1970
  863MOL0     H16445   8.653   0.898   1.421 -0.6913 -1.1058 -0.6979
  863MOL0     H16446   8.812   1.085   1.358  0.8139  2.5652  5.8978
  863MOL0     H16447   8.676   1.176   1.272  0.2275  1.3100 -0.3205
  863MOL0     H16448   8.580   1.216   1.501 -1.1920  0.1301 -3.1949
  863MOL0     H16449   8.743   1.158   1.567  1.3669  1.8177 -0.7061
  863MOL0     H16450   8.676   1.390   1.402  0.7269  1.5020  1.5501
  863MOL0     H16451   8.741   1.390   1.564 -2.4813 -1.0638 -0.2316
  863MOL0     H16452   8.940   1.245   1.424  1.9924  0.9983  0.1681
  863MOL0     H16453   8.943   1.413   1.484 -2.6979  0.3897  0.4566
  863MOL0     H16454   8.817   1.366   1.212  1.0852 -0.9650 -1.0027
  863MOL0     H16455   8.898   1.510   1.280 -1.4030  0.8505  0.1221
  863MOL0     H16456   9.174   1.483   1.321 -0.9445 -0.3120  0.9039
  863MOL0     H16457   9.426   1.400   1.061 -3.0745  0.1519 -1.7621
  863MOL0     H16458   9.415   1.423   1.240 -1.9576  0.5409  0.0106
  863MOL0     H16459   9.541   1.237   1.243 -1.4490 -1.0146  1.6163
  863MOL0     H16460   9.390   1.146   1.225  0.3126  0.2083  0.5623
  863MOL0     H16461   9.584   1.222   0.995  2.2507 -1.0251  0.5561
  863MOL0     H16462   9.441   1.122   0.976  1.7378  0.9909 -1.7083
  863MOL0     H16463   9.600   0.963   0.994  1.8676 -1.5926  1.5542
  863MOL0     H16464   9.530   0.975   1.153 -2.3452 -0.3590 -2.5811
  863MOL0     H16465   9.973   0.962   1.183 -0.7092 -0.3462 -1.1101
  863MOL0     H16466  10.166   0.945   1.030 -0.8775 -1.0627  1.1073
  863MOL0     H16467  10.165   1.075   0.401 -0.8673 -0.7468 -0.0679
  863MOL0     H16468  10.331   1.053   0.233 -0.5361 -0.2132 -0.7244
  863MOL0     H16469  10.730   0.950   0.384 -2.3543  0.4812 -0.0114
  863MOL0     H16470  10.759   0.937   0.208  0.4588 -1.1198  0.7395
  863MOL0     H16471  10.918   1.093   0.316 -1.2581 -1.2439 -1.6123
  863MOL0     H16472  10.840   1.158   0.180  2.6259  2.1765  0.9553
  863MOL0     H16473  10.686   1.278   0.363  0.1800  1.2689  1.2926
  863MOL0     H16474  10.814   1.226   0.478  3.6519 -3.1178 -1.2384
  863MOL0     H16475  10.894   1.383   0.218  1.6028  1.9317  0.0364
  863MOL0     H16476  10.988   1.342   0.351 -0.3558  0.6221  1.9864
  863MOL0     H16477  10.733   1.522   0.367  0.4775 -0.2412  0.0214
  863MOL0     H16478  10.888   1.585   0.340  0.6692 -1.1855 -0.9025
  863MOL0     H16479  10.788   1.452   0.578 -0.9050 -1.4114 -2.7786
  863MOL0     H16480  10.964   1.487   0.550 -0.5654 -1.6201 -2.0101
  863MOL0     H16481  10.823   1.635   0.700  2.4547 -0.7560  0.0112
  863MOL0     H16482  10.747   1.708   0.557 -0.2860 -0.2318 -0.4494
  863MOL0     H16483  11.043   1.721   0.617  0.0181  1.8505  0.2743
  863MOL0     H16484  10.986   1.759   0.456  1.7653  1.5250 -0.2868
  863MOL0     H16485  10.640   1.046   0.532 -0.2347  0.2706 -0.5576
  863MOL0     H16486  10.460   1.017   0.700 -3.2332 -0.0459  1.2939
  863MOL0     H16487   9.922   1.122   0.716  0.5265 -1.3088 -0.3644
  863MOL0     H16488   9.744   1.135   0.859  0.4336  2.2305  3.9859
  863MOL0     H16489   8.327   0.624   1.255  0.8282 -0.3504  1.9857
  863MOL0     H16490   8.177   0.432   1.255 -1.5805 -1.9073  1.1971
  863MOL0     H16491   7.751   0.338   1.249 -1.4751 -0.0795 -0.5969
  863MOL0     H16492   7.561   0.184   1.173  1.5353 -0.2407 -0.9534
  863MOL0     H16493   7.296   0.054   1.490  1.2709  0.6118  0.0132
  863MOL0     H16494   7.327  -0.111   1.453  0.0123  1.6629  0.9523
  863MOL0     H16495   7.191  -0.122   1.269  0.0924 -0.0349  0.2037
  863MOL0     H16496   7.160   0.059   1.258 -1.2095  2.8937  3.7964
  863MOL0     H16497   7.049   0.039   1.490 -1.9905 -0.3812 -0.1755
  863MOL0     H16498   7.062  -0.134   1.476 -1.4958  0.3570  1.9906
  863MOL0     H16499   6.948  -0.096   1.242  1.6396 -0.8359  0.7654
  863MOL0     H16500   6.859  -0.089   1.387  1.3862 -2.5328 -2.2460
  863MOL0     H16501   6.821   0.321   1.286  0.3379  0.0560 -0.7526
  863MOL0     H16502   7.526   0.029   1.568  1.1030 -0.5439  0.7504
  863MOL0     H16503   7.783   0.133   1.723 -0.5555 -0.0661  2.3495
  863MOL0     H16504   7.687   0.277   1.746 -2.4032 -0.1805 -0.4649
  863MOL0     H16505   7.602   0.129   1.730  0.6649 -1.6382 -2.2256
  864MOL0     O16506   6.107   7.314   9.492 -0.0998  0.1703  0.6559
  864MOL0     C16507   6.022   7.389   9.455 -0.1128 -0.1941  0.0626
  864MOL0     O16508   6.051   7.508   9.389 -0.5881 -0.1342  0.2741
  864MOL0     C16509   6.182   7.536   9.352  0.4943  0.3330 -0.8317
  864MOL0     C16510   6.284   7.568   9.439 -0.4323 -1.1542  0.5687
  864MOL0     C16511   6.414   7.576   9.389  0.4174  0.2978 -0.6963
  864MOL0     C16512   6.438   7.537   9.258 -0.7254  0.2793 -0.3513
  864MOL0     O16513   6.571   7.548   9.222  0.3940 -0.8356  0.3443
  864MOL0     C16514   6.610   7.518   9.091  0.1311 -0.5778  0.5602
  864MOL0     C16515   6.761   7.564   9.062  0.9536  0.1365 -0.0522
  864MOL0     C16516   6.857   7.515   9.162  0.2165  0.6456 -0.3622
  864MOL0     C16517   6.991   7.564   9.128 -0.0148  0.4448 -0.1445
  864MOL0     C16518   7.100   7.521   9.226  0.8306  0.3838  0.3956
  864MOL0     C16519   7.232   7.576   9.178 -0.1026  0.5018  0.5886
  864MOL0     C16520   7.338   7.523   9.277  0.0182  1.0274 -0.6828
  864MOL0     C16521   7.477   7.522   9.224  0.3379 -0.9861 -0.1878
  864MOL0     N16522   7.520   7.661   9.200 -0.2526 -0.9441  0.4379
  864MOL0     C16523   7.562   7.760   9.292  0.5943 -0.5023  0.2203
  864MOL0     C16524   7.606   7.862   9.214  0.0269 -0.2158 -0.3271
  864MOL0     C16525   7.651   8.003   9.260 -0.5214 -0.2112  0.9325
  864MOL0     C16526   7.734   8.076   9.141  0.5297 -0.5076  0.1247
  864MOL0     C16527   7.883   8.018   9.144 -0.0498  0.2187  0.3901
  864MOL0     C16528   7.958   8.060   9.013  0.2636 -0.1048  0.1266
  864MOL0     O16529   8.087   8.003   9.000  0.4965 -0.0381  0.2982
  864MOL0     C16530   8.199   8.079   8.998  0.4200 -0.0224  1.0395
  864MOL0     C16531   8.320   8.020   9.034 -0.4281 -0.4142  0.7660
  864MOL0     C16532   8.447   8.081   9.027  0.9372  0.2817  0.5797
  864MOL0     C16533   8.448   8.215   8.992  0.1651  0.5667  0.4140
  864MOL0     C16534   8.566   8.300   9.026  0.3064  0.4967  0.0484
  864MOL0     O16535   8.564   8.427   8.984  0.5194 -0.1748 -0.0316
  864MOL0     C16536   8.688   8.469   8.947 -0.8744  0.2069  0.5277
  864MOL0     C16537   8.773   8.406   8.853 -0.3653  0.0379 -0.9292
  864MOL0     C16538   8.899   8.455   8.824  0.3211  0.3368  0.4325
  864MOL0     C16539   8.941   8.564   8.890  0.2204 -0.8806 -0.4439
  864MOL0     O16540   9.074   8.593   8.861 -0.0187  0.3980  0.2636
  864MOL0     C16541   9.138   8.688   8.942 -0.1920 -0.9307  0.4730
  864MOL0     C16542   9.284   8.716   8.904  0.6288  1.1736  0.0348
  864MOL0     C16543   9.298   8.786   8.767  0.1631  0.4148  0.8271
  864MOL0     C16544   9.446   8.792   8.714  0.0392 -1.1653  0.8721
  864MOL0     C16545   9.446   8.888   8.596 -0.3724 -1.1070 -0.0205
  864MOL0     C16546   9.580   8.857   8.516  0.3023 -0.3677  0.9780
  864MOL0     C16547   9.590   8.891   8.371 -0.5561 -0.0427  0.4647
  864MOL0     C16548   9.596   9.037   8.352 -0.0268 -0.9369  0.6914
  864MOL0    Cl16549   9.705   9.127   8.469 -0.2599 -0.5278 -0.3032
  864MOL0     C16550   8.858   8.636   8.977  0.0559  0.3603  0.0102
  864MOL0     C16551   8.732   8.590   9.001  0.4028  0.0671  1.1683
  864MOL0     O16552   8.669   8.242   9.064 -0.8897 -0.0371 -1.1236
  864MOL0     C16553   8.330   8.278   8.954 -0.5627  0.2005  0.0653
  864MOL0     C16554   8.205   8.211   8.946 -0.3772 -0.1281 -0.3690
  864MOL0     N16555   7.582   7.828   9.077 -0.2072 -0.3335  0.4102
  864MOL0     N16556   7.535   7.709   9.075  0.2868 -0.3015  0.1108
  864MOL0     C16557   6.337   7.490   9.182 -0.1826  0.2485  0.4154
  864MOL0     C16558   6.207   7.484   9.230 -0.6346  0.1769 -0.7675
  864MOL0     C16559   5.874   7.381   9.505 -0.6040 -0.1062 -0.4004
  864MOL0     C16560   5.785   7.491   9.482  0.7161 -0.7039  0.6870
  864MOL0     C16561   5.650   7.493   9.534  0.0450 -0.0538 -0.1552
  864MOL0     C16562   5.601   7.385   9.599  0.1316  0.5150 -0.1280
  864MOL0     O16563   5.477   7.404   9.650 -0.0091 -0.1866 -0.7625
  864MOL0     C16564   5.394   7.290   9.638  0.5633  0.8483  1.1865
  864MOL0     C16565   5.255   7.327   9.687  0.1546  0.0069 -0.3948
  864MOL0     C16566   5.150   7.221   9.652  0.0811  0.4991 -0.2500
  864MOL0     C16567   5.009   7.259   9.700 -1.7747 -0.4888  0.0224
  864MOL0     C16568   4.918   7.187   9.614  0.2134  0.4570  1.1343
  864MOL0     C16569   4.835   7.125   9.554 -0.2455 -0.7043 -0.2671
  864MOL0     C16570   5.686   7.283   9.622  0.8830  0.4485 -0.2183
  864MOL0     C16571   5.815   7.276   9.579 -0.4176  0.7345 -0.0777
  864MOL0     C16572   5.897   7.156   9.629 -0.5690 -0.4380 -0.0728
  864MOL0     H16573   6.262   7.578   9.545 -1.2298  2.6628  0.1741
  864MOL0     H16574   6.501   7.592   9.452 -1.0942  0.5146  1.4218
  864MOL0     H16575   6.607   7.409   9.076 -2.2006 -0.8245  2.2179
  864MOL0     H16576   6.552   7.564   9.011 -1.1072 -2.1945  0.4598
  864MOL0     H16577   6.769   7.672   9.043  2.8017  0.2332  0.9918
  864MOL0     H16578   6.783   7.525   8.962 -0.3208  0.0074 -0.2997
  864MOL0     H16579   6.847   7.406   9.172  0.6161  0.4445 -1.9348
  864MOL0     H16580   6.843   7.550   9.265  0.8455 -0.5904  0.1717
  864MOL0     H16581   7.021   7.527   9.030  0.0450 -1.3623  0.5239
  864MOL0     H16582   6.986   7.673   9.123 -1.5431  0.3372 -2.9859
  864MOL0     H16583   7.084   7.557   9.329  2.8997 -0.3250  1.0207
  864MOL0     H16584   7.094   7.413   9.236 -0.5331  0.1123 -2.3912
  864MOL0     H16585   7.252   7.553   9.073 -0.4207  1.3883  0.3247
  864MOL0     H16586   7.239   7.684   9.191  1.0662  0.5590 -0.3264
  864MOL0     H16587   7.310   7.420   9.301 -3.1565  2.5524  3.5048
  864MOL0     H16588   7.340   7.584   9.369 -0.4631 -0.5576  0.4161
  864MOL0     H16589   7.544   7.471   9.294  1.6085  0.4190 -0.3323
  864MOL0     H16590   7.476   7.467   9.129 -0.7212  1.0632 -1.4385
  864MOL0     H16591   7.559   7.752   9.400 -3.5567  0.3280  0.3174
  864MOL0     H16592   7.559   8.063   9.266 -0.9937 -0.8215  0.0897
  864MOL0     H16593   7.711   7.997   9.351  1.7175 -1.0774 -0.5200
  864MOL0     H16594   7.700   8.070   9.037  2.8015  0.3703 -0.7274
  864MOL0     H16595   7.736   8.181   9.170  1.6018 -1.2896  3.2441
  864MOL0     H16596   7.898   7.911   9.162  1.1569  0.3815  0.4292
  864MOL0     H16597   7.934   8.070   9.226  0.9638  0.4245 -0.3630
  864MOL0     H16598   7.974   8.168   9.017  1.2425 -0.0831 -2.3338
  864MOL0     H16599   7.891   8.053   8.927  2.1331  0.9771 -1.4945
  864MOL0     H16600   8.316   7.922   9.081 -1.5833 -0.2336  1.0583
  864MOL0     H16601   8.527   8.016   9.062 -0.4834 -3.5069 -2.3836
  864MOL0     H16602   8.749   8.306   8.817  3.9139 -0.7769 -2.0677
  864MOL0     H16603   8.963   8.396   8.759 -0.5365 -0.7446  0.5118
  864MOL0     H16604   9.078   8.778   8.930  2.4936  0.7526 -1.3829
  864MOL0     H16605   9.133   8.669   9.050  2.4878 -0.8230  0.6953
  864MOL0     H16606   9.343   8.777   8.973  2.4895 -0.9762  0.4674
  864MOL0     H16607   9.341   8.623   8.902 -0.3618  0.5633 -0.1163
  864MOL0     H16608   9.241   8.740   8.686 -1.7911  0.5266  2.0706
  864MOL0     H16609   9.253   8.886   8.777  0.3498  0.6369 -0.4068
  864MOL0     H16610   9.480   8.690   8.691  0.3475 -0.7381 -0.6070
  864MOL0     H16611   9.506   8.844   8.790 -1.7140  1.4029  0.6313
  864MOL0     H16612   9.451   8.992   8.627 -0.0868 -0.1382 -2.9848
  864MOL0     H16613   9.355   8.877   8.537 -0.3907  2.9912 -1.0518
  864MOL0     H16614   9.668   8.905   8.559  3.0184 -0.8221 -3.4286
  864MOL0     H16615   9.613   8.754   8.529 -1.0324 -1.0803 -0.7176
  864MOL0     H16616   9.501   8.838   8.334 -1.2264  0.2479  1.6189
  864MOL0     H16617   9.682   8.838   8.344 -0.0507  0.7175  0.6646
  864MOL0     H16618   9.619   9.065   8.249 -0.8889  0.5643  0.8676
  864MOL0     H16619   9.502   9.089   8.376  0.1750  0.2199 -0.8364
  864MOL0     H16620   8.880   8.726   9.034  0.8422  0.6584 -0.7423
  864MOL0     H16621   8.670   8.645   9.071 -1.8711 -2.5313  1.3705
  864MOL0     H16622   8.328   8.383   8.926 -0.9392  0.3429  0.6151
  864MOL0     H16623   8.119   8.262   8.903  0.3229 -0.1773 -1.8759
  864MOL0     H16624   6.358   7.447   9.084  1.2453  1.9256 -0.0607
  864MOL0     H16625   6.127   7.452   9.164 -1.1736  0.0255 -0.0501
  864MOL0     H16626   5.810   7.582   9.429 -0.5712  0.4823  2.0484
  864MOL0     H16627   5.587   7.575   9.502  1.6363  0.3910 -2.3842
  864MOL0     H16628   5.434   7.209   9.700 -0.6708 -2.2367 -1.6950
  864MOL0     H16629   5.392   7.255   9.534 -0.8771  0.7243  1.2331
  864MOL0     H16630   5.235   7.428   9.649 -0.2858 -0.6087 -1.8520
  864MOL0     H16631   5.257   7.341   9.796 -0.9592  1.7340 -0.5437
  864MOL0     H16632   5.183   7.136   9.712 -1.3927  0.8083  1.0673
  864MOL0     H16633   5.158   7.202   9.545  2.0188  0.5585 -0.1532
  864MOL0     H16634   4.974   7.242   9.803 -2.9497  0.6799 -0.1584
  864MOL0     H16635   5.003   7.365   9.675  0.8773  0.4789  2.8431
  864MOL0     H16636   4.777   7.056   9.496 -0.9286 -3.3855  3.2340
  864MOL0     H16637   5.650   7.202   9.684  0.2403  0.0779 -1.0390
  864MOL0     H16638   5.961   7.125   9.546 -0.7745  3.2231 -1.7864
  864MOL0     H16639   5.955   7.201   9.710  0.9501  5.7221 -3.9265
  864MOL0     H16640   5.840   7.069   9.662 -1.9753  0.1934 -0.7481
  865MOL0     O16641   0.927   8.277   7.662 -0.3029 -0.4732  0.6648
  865MOL0     C16642   0.921   8.368   7.750  0.0773 -0.3443  0.0887
  865MOL0     O16643   1.026   8.409   7.821  0.5529  0.0152  0.1642
  865MOL0     C16644   1.136   8.329   7.837  0.1603 -0.1045 -0.1303
  865MOL0     C16645   1.247   8.378   7.775 -0.1399 -0.2205 -0.7818
  865MOL0     C16646   1.372   8.308   7.772 -0.6782  0.0805 -0.0949
  865MOL0     C16647   1.383   8.193   7.857  0.1489 -0.4450  0.6799
  865MOL0     O16648   1.501   8.129   7.892 -0.5396  0.0249  0.9933
  865MOL0     C16649   1.617   8.158   7.809  0.5001  0.0217 -0.2163
  865MOL0     C16650   1.729   8.060   7.857 -0.5869  0.2528 -0.3028
  865MOL0     C16651   1.863   8.093   7.789  0.2851  0.3269  0.6931
  865MOL0     C16652   1.980   8.005   7.823  0.2139  0.1124 -0.2418
  865MOL0     C16653   2.016   7.894   7.717  0.3590 -0.3030  0.1038
  865MOL0     C16654   2.163   7.841   7.727  0.6157  0.4307  0.3176
  865MOL0     C16655   2.205   7.775   7.599  0.3040 -0.5207  0.2838
  865MOL0     C16656   2.164   7.621   7.591  0.2487  0.1359 -0.2729
  865MOL0     N16657   2.237   7.552   7.484 -0.4907 -1.2371  0.8417
  865MOL0     C16658   2.365   7.503   7.486 -0.6451  0.3135  0.4824
  865MOL0     C16659   2.393   7.457   7.367  0.2048  0.6595 -0.8111
  865MOL0     C16660   2.525   7.399   7.319  0.0142  0.4425  0.3666
  865MOL0     C16661   2.626   7.509   7.278 -0.4177  0.2290  0.1662
  865MOL0     C16662   2.752   7.438   7.239  0.5492 -0.2346  0.0341
  865MOL0     C16663   2.851   7.525   7.164 -0.5983  0.2911  0.6744
  865MOL0     O16664   2.967   7.451   7.116  0.7403  0.2116  0.5981
  865MOL0     C16665   3.082   7.521   7.075  0.0659 -0.2074 -0.3591
  865MOL0     C16666   3.114   7.652   7.125 -0.7261  0.2950  0.1783
  865MOL0     C16667   3.225   7.715   7.073 -0.4085  0.6651 -0.3532
  865MOL0     C16668   3.313   7.645   6.988 -0.1886 -0.5860  0.0064
  865MOL0     C16669   3.450   7.701   6.963 -0.0840  0.8417  0.2684
  865MOL0     O16670   3.481   7.827   7.002  0.4020 -0.0258  0.1666
  865MOL0     C16671   3.608   7.878   6.978  0.3486 -0.8148  0.1216
  865MOL0     C16672   3.726   7.815   6.995  0.2958  0.0298  0.6664
  865MOL0     C16673   3.845   7.867   6.949  0.7599  0.1159 -0.0015
  865MOL0     C16674   3.840   7.995   6.884  0.3817 -0.1206 -0.6887
  865MOL0     O16675   3.948   8.063   6.835 -0.5643 -0.3323 -0.2915
  865MOL0     C16676   4.062   7.992   6.792 -0.4393  0.1003  0.5805
  865MOL0     C16677   4.127   8.073   6.681  0.2103 -0.0639  0.1356
  865MOL0     C16678   4.057   8.073   6.545 -0.5553 -0.1789 -0.0324
  865MOL0     C16679   4.069   7.936   6.467  0.3173 -0.2413 -1.0179
  865MOL0     C16680   3.964   7.929   6.356 -0.5485  0.2583 -0.0294
  865MOL0     C16681   4.009   7.996   6.224 -0.3732 -0.3036 -0.9219
  865MOL0     C16682   3.963   7.927   6.094  0.2028 -0.4015  0.3912
  865MOL0     C16683   3.983   8.017   5.965 -0.7888  0.3023 -0.3534
  865MOL0    Cl16684   3.845   8.137   5.961  0.6023  0.3616  0.3633
  865MOL0     C16685   3.717   8.063   6.877 -0.0407 -0.3632 -0.2908
  865MOL0     C16686   3.604   8.013   6.929  0.3641  0.8095  0.2280
  865MOL0     O16687   3.522   7.626   6.892 -0.3276 -0.0224 -0.9125
  865MOL0     C16688   3.274   7.517   6.931  0.0751 -0.7212 -0.4007
  865MOL0     C16689   3.158   7.458   6.980 -0.4771  0.4581 -0.5047
  865MOL0     N16690   2.290   7.484   7.278 -0.2970 -0.3788 -1.3317
  865MOL0     N16691   2.196   7.539   7.356  0.3584 -0.0411  0.7351
  865MOL0     C16692   1.272   8.161   7.935  0.4373  0.3594 -0.3861
  865MOL0     C16693   1.145   8.219   7.919 -0.2813  0.0126  0.4307
  865MOL0     C16694   0.792   8.443   7.768  0.0910 -1.0686 -0.9281
  865MOL0     C16695   0.695   8.435   7.660  0.2444  0.9099  0.5042
  865MOL0     C16696   0.597   8.531   7.650  0.6438 -0.0777  0.0937
  865MOL0     C16697   0.584   8.637   7.736  0.2079 -0.1982  0.1318
  865MOL0     O16698   0.496   8.741   7.731 -0.4754 -0.1724  0.6593
  865MOL0     C16699   0.403   8.743   7.626 -0.0954 -0.5304 -1.2479
  865MOL0     C16700   0.334   8.879   7.625  0.3209 -0.4351  0.0356
  865MOL0     C16701   0.282   8.910   7.766  0.0800  0.2985  0.0702
  865MOL0     C16702   0.167   9.007   7.765  0.2398  0.0178 -0.2277
  865MOL0     C16703   0.100   9.023   7.893 -0.1235 -0.1887 -0.3116
  865MOL0     C16704   0.044   9.037   7.998 -0.1586 -0.2647 -0.5096
  865MOL0     C16705   0.670   8.639   7.853 -0.9282 -0.0215 -0.4314
  865MOL0     C16706   0.774   8.550   7.863 -1.0290 -0.5369 -0.0401
  865MOL0     C16707   0.857   8.580   7.985 -0.4606  0.7182 -0.0254
  865MOL0     H16708   1.240   8.465   7.710  3.5965  1.0878  0.3315
  865MOL0     H16709   1.458   8.344   7.716  0.0251 -0.5529  0.5468
  865MOL0     H16710   1.588   8.148   7.705  1.6068  1.9998 -0.7800
  865MOL0     H16711   1.644   8.262   7.830 -1.5576  0.9594 -1.9078
  865MOL0     H16712   1.689   7.959   7.846  0.0543 -0.3729  2.3898
  865MOL0     H16713   1.746   8.075   7.964 -1.0714  1.2817 -0.3574
  865MOL0     H16714   1.884   8.199   7.804  0.3348  0.4507 -0.1957
  865MOL0     H16715   1.864   8.099   7.680  1.2566 -0.4893  0.6420
  865MOL0     H16716   2.064   8.073   7.807  1.7524 -1.5444  0.5174
  865MOL0     H16717   1.979   7.967   7.925 -2.7620 -1.4710 -0.7545
  865MOL0     H16718   1.944   7.813   7.720  0.0669 -0.1805 -2.1582
  865MOL0     H16719   2.003   7.949   7.624  0.1347  1.1721  0.9662
  865MOL0     H16720   2.216   7.935   7.743 -0.0875  1.2095 -1.6013
  865MOL0     H16721   2.157   7.774   7.813 -1.0417 -0.3540 -0.3467
  865MOL0     H16722   2.313   7.775   7.580  0.5885  0.4469  1.7634
  865MOL0     H16723   2.149   7.829   7.522 -0.6691 -0.3980  1.0663
  865MOL0     H16724   2.185   7.580   7.690  1.1474  3.7385  1.1719
  865MOL0     H16725   2.060   7.613   7.559  1.0501 -2.4276 -2.6919
  865MOL0     H16726   2.426   7.507   7.576 -1.2941 -0.1495  0.9532
  865MOL0     H16727   2.567   7.338   7.400  0.4063  0.8784  0.4910
  865MOL0     H16728   2.499   7.340   7.231 -0.7695  3.3360 -1.4682
  865MOL0     H16729   2.586   7.571   7.197  1.2190  0.8404 -0.2192
  865MOL0     H16730   2.657   7.575   7.360  0.2585  1.4237 -1.0116
  865MOL0     H16731   2.714   7.351   7.186 -2.6458  1.1698 -0.1779
  865MOL0     H16732   2.801   7.403   7.331  0.8706 -0.8267 -0.3557
  865MOL0     H16733   2.868   7.611   7.229 -2.3122  1.9486 -0.9395
  865MOL0     H16734   2.798   7.572   7.081 -2.0656 -1.7446  0.3802
  865MOL0     H16735   3.058   7.707   7.200 -0.2999  0.2986  0.4987
  865MOL0     H16736   3.254   7.810   7.117 -1.3170  0.9812 -0.4138
  865MOL0     H16737   3.733   7.719   7.046  0.7677  0.0891  0.7151
  865MOL0     H16738   3.944   7.826   6.965  0.8078  0.0698 -0.4057
  865MOL0     H16739   4.132   7.969   6.873  0.0808 -1.7688 -0.3433
  865MOL0     H16740   4.035   7.892   6.759  4.0806 -1.0217 -0.4262
  865MOL0     H16741   4.133   8.177   6.716  2.4262  0.5229 -1.7505
  865MOL0     H16742   4.225   8.030   6.660 -0.4158 -1.8624  0.7671
  865MOL0     H16743   3.951   8.100   6.558 -0.3671  0.1482  0.8171
  865MOL0     H16744   4.100   8.149   6.479  2.3547 -2.0044 -0.3964
  865MOL0     H16745   4.036   7.853   6.530 -1.1673 -1.2172 -2.9787
  865MOL0     H16746   4.168   7.912   6.428 -0.1885 -0.4021 -2.2243
  865MOL0     H16747   3.863   7.957   6.388 -0.0671 -0.0074  1.8571
  865MOL0     H16748   3.951   7.823   6.329  1.7965  0.1376 -0.9228
  865MOL0     H16749   3.978   8.101   6.211 -2.3626 -1.0946 -3.4080
  865MOL0     H16750   4.117   7.982   6.217 -0.6381 -2.7396 -0.9276
  865MOL0     H16751   3.857   7.906   6.111 -0.1660  0.5789 -0.5387
  865MOL0     H16752   4.027   7.839   6.085  0.5952 -0.4146  2.7894
  865MOL0     H16753   4.080   8.066   5.953 -1.3282  1.8658  1.2449
  865MOL0     H16754   3.974   7.954   5.877  0.4089  1.2022 -1.1578
  865MOL0     H16755   3.715   8.161   6.830 -0.0426 -0.5115 -0.6035
  865MOL0     H16756   3.502   8.050   6.919  0.1449 -0.1405 -1.3482
  865MOL0     H16757   3.344   7.464   6.866  2.3456  1.7488 -0.1363
  865MOL0     H16758   3.136   7.360   6.939  1.6241 -0.7744  1.1167
  865MOL0     H16759   1.288   8.085   8.011 -2.1048 -0.2803 -0.4056
  865MOL0     H16760   1.069   8.182   7.987  0.7229 -1.0878  0.9816
  865MOL0     H16761   0.695   8.345   7.600 -2.8650  0.7264  0.6346
  865MOL0     H16762   0.526   8.529   7.568 -1.5490 -0.2522  1.8999
  865MOL0     H16763   0.324   8.668   7.636 -3.3567  2.7678  0.0256
  865MOL0     H16764   0.450   8.730   7.527  1.4634 -0.0093 -0.6105
  865MOL0     H16765   0.248   8.870   7.558 -0.1410  2.3292  0.1509
  865MOL0     H16766   0.400   8.957   7.586 -0.1945 -0.5627 -1.1268
  865MOL0     H16767   0.361   8.956   7.826  1.7962 -0.9124 -1.1714
  865MOL0     H16768   0.258   8.815   7.815  1.3541 -1.0624 -1.7937
  865MOL0     H16769   0.195   9.105   7.727 -1.8359  0.1201 -1.7005
  865MOL0     H16770   0.081   8.966   7.712 -1.2542 -0.5289  2.4234
  865MOL0     H16771  -0.008   9.055   8.090 -4.0954 -0.3998 -2.5111
  865MOL0     H16772   0.645   8.725   7.915  0.1703 -0.7687  1.0950
  865MOL0     H16773   0.807   8.640   8.061 -1.5954 -0.3412  0.0923
  865MOL0     H16774   0.891   8.487   8.034  0.9002  1.5481  0.6818
  865MOL0     H16775   0.945   8.634   7.949 -0.9937  1.3825 -0.3467
  866MOL0     O16776   5.424   0.483   6.403  0.1046  0.3523 -0.2870
  866MOL0     C16777   5.379   0.564   6.319  0.8633 -0.2234 -0.3131
  866MOL0     O16778   5.450   0.670   6.261 -0.5547 -0.4590 -0.1733
  866MOL0     C16779   5.588   0.672   6.284  0.3274 -0.2950  0.1546
  866MOL0     C16780   5.639   0.698   6.411 -0.7210 -1.4141 -0.0560
  866MOL0     C16781   5.769   0.714   6.435 -0.4260 -0.0412  0.0394
  866MOL0     C16782   5.865   0.704   6.335  0.7261 -0.1499 -0.3290
  866MOL0     O16783   5.992   0.733   6.370 -0.1895  0.9712 -0.6452
  866MOL0     C16784   6.094   0.661   6.293 -0.4053  0.5202  0.0982
  866MOL0     C16785   6.227   0.669   6.359  0.0677 -0.2019  0.3558
  866MOL0     C16786   6.247   0.545   6.452 -0.2620  0.1968  0.4194
  866MOL0     C16787   6.381   0.534   6.529 -0.1521  0.5031 -0.3262
  866MOL0     C16788   6.495   0.473   6.445  0.0189 -0.0708  0.5236
  866MOL0     C16789   6.618   0.486   6.530  0.6768  0.2719 -0.9019
  866MOL0     C16790   6.741   0.404   6.488 -0.2767 -0.2686 -0.1064
  866MOL0     C16791   6.864   0.400   6.586 -0.0915 -0.1885  0.2467
  866MOL0     N16792   6.972   0.327   6.518  0.5555 -0.7880 -0.2024
  866MOL0     C16793   7.086   0.377   6.479 -0.3080 -0.7111 -0.1988
  866MOL0     C16794   7.161   0.265   6.437  0.5287  0.2687  0.0836
  866MOL0     C16795   7.294   0.273   6.384 -1.0313 -0.2073  0.4433
  866MOL0     C16796   7.294   0.289   6.228  0.3602 -0.9785 -0.6042
  866MOL0     C16797   7.234   0.157   6.167  0.2483  0.7192  0.7450
  866MOL0     C16798   7.339   0.039   6.170 -0.1962  0.4529 -0.2133
  866MOL0     O16799   7.459   0.072   6.100  0.2081 -0.5671  0.3418
  866MOL0     C16800   7.576   0.093   6.167 -0.2365  0.7187 -0.1001
  866MOL0     C16801   7.604   0.119   6.302  0.4312  0.4848  0.5514
  866MOL0     C16802   7.735   0.154   6.339 -0.2706  0.6212 -0.3021
  866MOL0     C16803   7.848   0.157   6.252  0.3594  0.2498  0.8587
  866MOL0     C16804   7.985   0.184   6.297  0.6575 -0.0140  0.0055
  866MOL0     O16805   7.993   0.225   6.427 -0.9700  0.0001 -0.1146
  866MOL0     C16806   8.116   0.263   6.488  0.1869 -0.2056 -0.6251
  866MOL0     C16807   8.233   0.295   6.432 -0.3165 -0.6269  0.4109
  866MOL0     C16808   8.350   0.307   6.509 -0.0642 -0.9278 -0.8292
  866MOL0     C16809   8.348   0.292   6.652  0.3656 -0.1926 -0.4167
  866MOL0     O16810   8.452   0.296   6.747  0.2073  0.1661  0.1838
  866MOL0     C16811   8.587   0.296   6.703 -0.1049  0.6327 -0.5883
  866MOL0     C16812   8.694   0.247   6.807  0.1058 -0.3133  0.6890
  866MOL0     C16813   8.683   0.092   6.851 -0.0682 -0.7307  0.0334
  866MOL0     C16814   8.807   0.011   6.807 -0.7262  0.1513  1.0167
  866MOL0     C16815   8.813  -0.129   6.856  0.3137  0.6644 -1.4527
  866MOL0     C16816   8.915  -0.222   6.778  0.5798 -1.2792  0.0943
  866MOL0     C16817   8.908  -0.214   6.625  0.3346  0.3204 -0.0891
  866MOL0     C16818   8.960  -0.335   6.554 -0.2210 -0.8596 -0.3589
  866MOL0    Cl16819   8.928  -0.317   6.370  0.0591 -0.3543 -0.0506
  866MOL0     C16820   8.217   0.271   6.707 -0.5712  0.4155 -0.0922
  866MOL0     C16821   8.111   0.244   6.631  0.1980 -0.5682  0.2901
  866MOL0     O16822   8.072   0.163   6.221  0.1181 -0.0877 -0.2069
  866MOL0     C16823   7.814   0.124   6.121  0.0658  0.1907  0.7493
  866MOL0     C16824   7.685   0.085   6.084 -0.4136 -0.2244 -0.0466
  866MOL0     N16825   7.077   0.153   6.441 -0.5612 -1.1291  0.1003
  866MOL0     N16826   6.970   0.194   6.497 -0.2805  0.6222 -0.1403
  866MOL0     C16827   5.812   0.676   6.203  0.2457  0.3622  0.0456
  866MOL0     C16828   5.669   0.665   6.176  0.2491  0.3740  0.2997
  866MOL0     C16829   5.232   0.570   6.292  0.2624  0.9042  0.3844
  866MOL0     C16830   5.200   0.641   6.173  1.1933  1.4263  0.2023
  866MOL0     C16831   5.069   0.653   6.126 -0.0256 -0.5837  0.1283
  866MOL0     C16832   4.966   0.602   6.193 -0.1993 -0.4233  0.2915
  866MOL0     O16833   4.840   0.620   6.142 -0.3235 -0.2811  0.4281
  866MOL0     C16834   4.738   0.545   6.209 -0.5127  0.3178 -0.5939
  866MOL0     C16835   4.596   0.582   6.147 -0.3566  0.8301 -0.9112
  866MOL0     C16836   4.535   0.710   6.207  0.1512 -0.6576  0.4113
  866MOL0     C16837   4.611   0.841   6.173 -0.2582  0.0465 -0.6697
  866MOL0     C16838   4.564   0.960   6.240 -0.4888 -0.1243 -0.3619
  866MOL0     C16839   4.530   1.068   6.283  0.3569 -1.1341  0.1740
  866MOL0     C16840   4.994   0.529   6.307 -0.0936  0.7665 -0.2854
  866MOL0     C16841   5.129   0.512   6.366  0.0374  0.4518 -0.1102
  866MOL0     C16842   5.152   0.428   6.495  0.8205  0.6292 -0.5022
  866MOL0     H16843   5.569   0.719   6.492 -0.1866  1.3307 -0.2126
  866MOL0     H16844   5.803   0.760   6.528 -3.5881 -0.8219  1.7017
  866MOL0     H16845   6.056   0.561   6.273 -0.5720  0.8182 -1.1377
  866MOL0     H16846   6.099   0.714   6.197 -0.6441 -1.6016 -1.1339
  866MOL0     H16847   6.237   0.763   6.414  0.8694  0.6141 -1.1089
  866MOL0     H16848   6.309   0.662   6.286  0.5746 -2.2842  1.0612
  866MOL0     H16849   6.223   0.456   6.393  0.1606  0.7252 -0.5661
  866MOL0     H16850   6.167   0.547   6.526  1.6413  1.4176  2.5929
  866MOL0     H16851   6.403   0.636   6.564  1.6300 -0.5542  1.8571
  866MOL0     H16852   6.369   0.484   6.625 -5.4731  0.2726 -0.7834
  866MOL0     H16853   6.475   0.372   6.409  0.0680 -0.6885  2.1400
  866MOL0     H16854   6.511   0.539   6.359  0.0610 -2.1826 -1.1643
  866MOL0     H16855   6.643   0.593   6.531 -0.2608  0.4931  0.0062
  866MOL0     H16856   6.600   0.458   6.634  0.4058 -1.9126 -1.4957
  866MOL0     H16857   6.768   0.453   6.394 -2.2700  1.3893  0.1223
  866MOL0     H16858   6.707   0.303   6.467 -0.5673 -0.3263  0.6238
  866MOL0     H16859   6.896   0.502   6.609 -1.4261  0.1045  0.8807
  866MOL0     H16860   6.849   0.347   6.680  3.2424 -1.4419  0.1862
  866MOL0     H16861   7.114   0.482   6.487  2.3817 -1.1890 -2.0914
  866MOL0     H16862   7.343   0.356   6.435 -1.1189  0.5024 -0.5987
  866MOL0     H16863   7.352   0.183   6.405 -1.2324 -0.2750  0.7147
  866MOL0     H16864   7.228   0.375   6.214  3.1344  1.3329 -0.4485
  866MOL0     H16865   7.388   0.320   6.182  0.0869  2.4436  0.7846
  866MOL0     H16866   7.231   0.188   6.063 -0.2988  0.0128  0.5421
  866MOL0     H16867   7.134   0.122   6.194 -0.0709  0.3424 -0.8393
  866MOL0     H16868   7.291  -0.043   6.116 -0.7021  0.8041 -0.3120
  866MOL0     H16869   7.367   0.006   6.271  0.3526  0.4990 -0.3491
  866MOL0     H16870   7.527   0.124   6.379  3.7772  2.7826  4.1370
  866MOL0     H16871   7.760   0.183   6.441 -1.3247  3.1768 -0.7064
  866MOL0     H16872   8.241   0.300   6.324 -0.5744 -3.7775  0.1667
  866MOL0     H16873   8.446   0.324   6.461 -0.4515  0.4990 -1.1600
  866MOL0     H16874   8.606   0.244   6.609 -0.3006 -1.6818  0.5775
  866MOL0     H16875   8.608   0.402   6.683  2.5204  0.0363 -1.3597
  866MOL0     H16876   8.786   0.253   6.749 -1.9073 -1.3976 -2.9619
  866MOL0     H16877   8.690   0.316   6.892 -0.8991  2.4812 -1.4904
  866MOL0     H16878   8.678   0.088   6.960  2.6008 -1.7262  0.2051
  866MOL0     H16879   8.590   0.049   6.814 -0.0287 -0.3896 -0.4673
  866MOL0     H16880   8.898   0.063   6.841 -1.0503  4.4345 -3.4709
  866MOL0     H16881   8.803   0.017   6.698 -4.3346 -0.9185  0.9747
  866MOL0     H16882   8.712  -0.168   6.839  0.7821 -0.7928 -1.0027
  866MOL0     H16883   8.837  -0.141   6.962  1.9636  0.3008 -1.8493
  866MOL0     H16884   9.016  -0.203   6.815  0.5030 -3.5837  1.7022
  866MOL0     H16885   8.884  -0.323   6.806 -2.9475 -0.4356 -0.3385
  866MOL0     H16886   8.959  -0.123   6.592  0.2660  0.0180 -1.0564
  866MOL0     H16887   8.802  -0.212   6.598 -0.3242 -1.7694  2.0169
  866MOL0     H16888   9.066  -0.358   6.569  0.9700  2.3217 -2.6521
  866MOL0     H16889   8.898  -0.418   6.588 -0.3264 -0.1984  1.1396
  866MOL0     H16890   8.213   0.265   6.815  1.0342 -1.1440 -0.0745
  866MOL0     H16891   8.018   0.239   6.687  0.7367  0.3118  1.3044
  866MOL0     H16892   7.889   0.138   6.043 -1.2875 -0.2223 -0.6903
  866MOL0     H16893   7.664   0.072   5.978 -0.2015 -0.6865 -0.0346
  866MOL0     H16894   5.876   0.656   6.118  0.2836  1.9633 -0.3299
  866MOL0     H16895   5.631   0.649   6.076  0.2875 -1.7776  0.5853
  866MOL0     H16896   5.283   0.680   6.114  2.8934 -1.6603  0.2850
  866MOL0     H16897   5.048   0.701   6.031 -1.5040 -0.1414  0.6563
  866MOL0     H16898   4.739   0.582   6.312  0.0357  0.4268 -0.6345
  866MOL0     H16899   4.750   0.437   6.196 -0.0743  0.4108 -1.0186
  866MOL0     H16900   4.526   0.500   6.160  2.2376 -1.2383  1.1245
  866MOL0     H16901   4.614   0.608   6.042  0.2789  0.2318 -0.9559
  866MOL0     H16902   4.546   0.708   6.316  2.4574  1.6408  0.2896
  866MOL0     H16903   4.430   0.725   6.181 -0.1390 -1.5296  1.0258
  866MOL0     H16904   4.717   0.829   6.199 -0.2943  0.0489 -0.5223
  866MOL0     H16905   4.602   0.865   6.066 -3.2679 -0.4893 -0.6059
  866MOL0     H16906   4.502   1.168   6.312  1.1849 -1.6869  3.2171
  866MOL0     H16907   4.915   0.488   6.370 -0.8475  3.5806  0.7484
  866MOL0     H16908   5.203   0.334   6.475  1.7835  0.7945  1.0143
  866MOL0     H16909   5.208   0.488   6.568  1.3009 -2.7395  2.1518
  866MOL0     H16910   5.054   0.405   6.538  1.8394  0.2203  1.7518
  867MOL0     O16911   5.160   3.454   4.156  0.6958  0.4655 -0.3003
  867MOL0     C16912   5.129   3.579   4.159 -0.1116  0.9213  0.1333
  867MOL0     O16913   5.221   3.676   4.178  0.5428  0.1157  0.7787
  867MOL0     C16914   5.360   3.641   4.202  0.0802  0.7895  0.1484
  867MOL0     C16915   5.450   3.709   4.124 -0.6266 -0.0304  0.1216
  867MOL0     C16916   5.589   3.690   4.148  0.3489 -0.1762  0.1665
  867MOL0     C16917   5.636   3.604   4.247  0.1923  0.6774  1.1173
  867MOL0     O16918   5.772   3.586   4.270  0.0704  0.2790 -0.4128
  867MOL0     C16919   5.818   3.550   4.402 -0.8342  1.0420  0.2090
  867MOL0     C16920   5.970   3.592   4.410 -0.1614  0.4842  0.2661
  867MOL0     C16921   6.057   3.494   4.311 -0.4763 -0.1722  0.0767
  867MOL0     C16922   6.212   3.524   4.325  0.7551  0.4646  0.8470
  867MOL0     C16923   6.302   3.425   4.250  0.1850  0.1445 -0.2188
  867MOL0     C16924   6.322   3.288   4.329 -0.5370 -0.5329  0.0444
  867MOL0     C16925   6.418   3.212   4.245 -0.0835 -0.3762  0.2938
  867MOL0     C16926   6.479   3.091   4.313  0.3053  1.2253  0.6129
  867MOL0     N16927   6.582   3.022   4.229 -0.4415 -0.2436  0.3061
  867MOL0     C16928   6.551   2.922   4.139  0.2043  0.6379  0.0552
  867MOL0     C16929   6.652   2.914   4.048 -0.0572 -0.4211  1.3581
  867MOL0     C16930   6.661   2.834   3.921  0.6865 -0.1187 -0.4776
  867MOL0     C16931   6.805   2.822   3.873  0.2738  0.9036  0.4390
  867MOL0     C16932   6.874   2.684   3.889  0.4907  0.1666 -0.9689
  867MOL0     C16933   7.016   2.686   3.841  0.7938  0.2549  0.3892
  867MOL0     O16934   7.091   2.772   3.917  0.4815  0.3424 -0.1701
  867MOL0     C16935   7.222   2.785   3.892 -0.7545 -0.6146 -0.2279
  867MOL0     C16936   7.304   2.849   3.990  0.0384 -0.6469 -0.5671
  867MOL0     C16937   7.442   2.847   3.977 -0.0332  0.6160  0.5075
  867MOL0     C16938   7.508   2.805   3.863 -0.8027  0.6222  0.1121
  867MOL0     C16939   7.652   2.802   3.855 -0.0744 -0.0163 -0.0503
  867MOL0     O16940   7.710   2.752   3.745  0.0671  0.4404  0.5206
  867MOL0     C16941   7.843   2.771   3.734 -0.3311 -0.2736  0.3950
  867MOL0     C16942   7.882   2.879   3.651  0.3422  0.0347 -0.4264
  867MOL0     C16943   8.006   2.929   3.648 -0.1889 -0.7441 -0.0242
  867MOL0     C16944   8.107   2.858   3.718  0.2564  0.5578 -0.0778
  867MOL0     O16945   8.235   2.900   3.727  0.3422 -0.1939  0.0078
  867MOL0     C16946   8.292   2.959   3.610 -0.5381 -0.1179 -0.0736
  867MOL0     C16947   8.443   2.930   3.593 -0.4020  0.2515 -0.1040
  867MOL0     C16948   8.486   2.779   3.611 -0.0101 -1.3064  1.0467
  867MOL0     C16949   8.632   2.759   3.580 -0.5165 -0.0985  0.3966
  867MOL0     C16950   8.663   2.607   3.577  0.0216  0.3401 -0.7250
  867MOL0     C16951   8.819   2.599   3.600  0.8002  0.2630 -0.9440
  867MOL0     C16952   8.864   2.451   3.583 -0.4936 -0.1254  0.3645
  867MOL0     C16953   9.020   2.427   3.584  0.7534  0.0690  0.7764
  867MOL0    Cl16954   9.086   2.481   3.430 -0.1561 -0.3190 -0.0388
  867MOL0     C16955   8.070   2.745   3.793 -0.0934 -0.5944  0.0349
  867MOL0     C16956   7.940   2.707   3.809  0.1402 -0.5163  0.8264
  867MOL0     O16957   7.709   2.867   3.945  0.5265 -0.6344 -0.3151
  867MOL0     C16958   7.429   2.730   3.768  0.5160  0.0850 -0.5538
  867MOL0     C16959   7.289   2.720   3.785  0.4837  0.1261 -0.4604
  867MOL0     N16960   6.758   2.996   4.106  0.2422  0.7535  0.1161
  867MOL0     N16961   6.713   3.063   4.205 -0.4957  0.0868 -0.3608
  867MOL0     C16962   5.536   3.531   4.322 -0.9329  0.1593  0.5827
  867MOL0     C16963   5.401   3.543   4.299 -0.4641  0.0869  1.0719
  867MOL0     C16964   4.995   3.601   4.099  0.7465  0.2676  0.0649
  867MOL0     C16965   4.981   3.692   3.998  0.0625 -1.3107 -0.4783
  867MOL0     C16966   4.870   3.701   3.922  0.5972 -0.6536 -0.0550
  867MOL0     C16967   4.756   3.626   3.959 -0.7165 -1.0640  0.0450
  867MOL0     O16968   4.649   3.653   3.875 -0.4672  0.3779  0.0617
  867MOL0     C16969   4.532   3.580   3.888  0.1518 -0.0380 -0.2544
  867MOL0     C16970   4.423   3.635   3.798 -0.3552 -0.7166 -0.8967
  867MOL0     C16971   4.283   3.576   3.831 -0.5972  0.5360  1.3161
  867MOL0     C16972   4.192   3.651   3.740 -0.9034 -0.2827 -0.4249
  867MOL0     C16973   4.053   3.643   3.787  0.6173  0.3199 -0.8232
  867MOL0     C16974   3.941   3.622   3.824  0.0477 -0.2112  0.0723
  867MOL0     C16975   4.766   3.547   4.065  0.1662  0.3115  0.4239
  867MOL0     C16976   4.882   3.533   4.140 -0.2982 -1.3914  0.9372
  867MOL0     C16977   4.869   3.438   4.259 -0.3328  0.4329  0.5694
  867MOL0     H16978   5.408   3.770   4.045  0.7061 -1.0796 -1.4629
  867MOL0     H16979   5.650   3.756   4.088 -0.7714  0.7393  0.0002
  867MOL0     H16980   5.770   3.611   4.479 -0.0689 -0.7587  2.2370
  867MOL0     H16981   5.808   3.442   4.417 -0.5935  1.4474  4.3858
  867MOL0     H16982   6.017   3.573   4.507 -0.6603 -1.4543  0.1702
  867MOL0     H16983   5.979   3.697   4.383  0.4488  0.6017  0.8934
  867MOL0     H16984   6.033   3.496   4.204 -1.0535  0.9156  0.2222
  867MOL0     H16985   6.040   3.391   4.343 -1.0713  0.0784  0.5785
  867MOL0     H16986   6.241   3.621   4.285 -1.3554  1.2549  1.0880
  867MOL0     H16987   6.235   3.511   4.432  0.8302 -2.3317  0.5712
  867MOL0     H16988   6.256   3.425   4.151 -1.4059  0.7455  0.4958
  867MOL0     H16989   6.394   3.484   4.240 -1.4531  2.7812 -0.7427
  867MOL0     H16990   6.352   3.306   4.433  2.7620 -0.5063 -0.8219
  867MOL0     H16991   6.223   3.242   4.332 -0.4316 -0.7427  0.3423
  867MOL0     H16992   6.507   3.270   4.219 -1.1833  1.3152  0.1022
  867MOL0     H16993   6.371   3.186   4.149 -0.4733  0.3201  0.2841
  867MOL0     H16994   6.521   3.124   4.409  1.9766 -4.9815  2.4337
  867MOL0     H16995   6.399   3.021   4.334  2.0174 -0.9628  0.1902
  867MOL0     H16996   6.454   2.874   4.131  0.2228  0.7140 -0.7464
  867MOL0     H16997   6.630   2.731   3.934 -1.0065  0.5241  0.9869
  867MOL0     H16998   6.584   2.870   3.852 -0.1784 -0.5020  0.2656
  867MOL0     H16999   6.797   2.850   3.767 -1.4583  0.3778  0.3981
  867MOL0     H17000   6.871   2.899   3.913 -0.1062  0.6499  1.5819
  867MOL0     H17001   6.811   2.602   3.853  0.0819  0.6527 -1.3701
  867MOL0     H17002   6.880   2.661   3.996 -0.6810  0.6629 -0.7867
  867MOL0     H17003   7.008   2.717   3.736 -0.4264 -0.2173  0.3242
  867MOL0     H17004   7.067   2.589   3.845 -0.0625 -0.1817  1.1717
  867MOL0     H17005   7.261   2.895   4.079  0.3999 -0.2083 -0.6148
  867MOL0     H17006   7.490   2.893   4.062 -0.4377  1.3173  0.3607
  867MOL0     H17007   7.799   2.922   3.597  1.9887 -0.5547 -3.6970
  867MOL0     H17008   8.029   3.014   3.585  0.9986 -0.2079  1.0810
  867MOL0     H17009   8.259   2.928   3.510 -0.6931  2.0210 -0.7358
  867MOL0     H17010   8.284   3.068   3.617  3.8709  0.3883 -0.0250
  867MOL0     H17011   8.498   2.973   3.509  3.2480  0.4708  2.1524
  867MOL0     H17012   8.503   2.984   3.667  3.0076 -1.3558 -1.5018
  867MOL0     H17013   8.459   2.750   3.713 -2.3888  1.3195  1.2808
  867MOL0     H17014   8.422   2.724   3.541 -0.9301 -0.2335  1.0236
  867MOL0     H17015   8.683   2.807   3.664  0.6546 -1.2333  0.3549
  867MOL0     H17016   8.661   2.813   3.489  1.1668 -1.7408 -0.0942
  867MOL0     H17017   8.627   2.563   3.483 -1.0776 -1.5344  0.4955
  867MOL0     H17018   8.615   2.554   3.660 -1.7741  3.7093  0.5670
  867MOL0     H17019   8.873   2.661   3.528  1.7931  0.6944  0.1509
  867MOL0     H17020   8.837   2.636   3.701  1.2265 -0.2542 -0.8265
  867MOL0     H17021   8.825   2.429   3.483  1.3235  1.1353 -0.6864
  867MOL0     H17022   8.810   2.384   3.650  0.7577 -1.1123  0.4285
  867MOL0     H17023   9.066   2.478   3.669 -0.2013  0.2545  1.1988
  867MOL0     H17024   9.028   2.318   3.597  2.6810  0.1128  0.2704
  867MOL0     H17025   8.138   2.689   3.856 -1.5183 -0.3877  1.8414
  867MOL0     H17026   7.920   2.627   3.880 -1.8969 -0.9574 -0.1680
  867MOL0     H17027   7.471   2.689   3.677 -3.9155 -2.3294 -1.8286
  867MOL0     H17028   7.242   2.650   3.717  0.9733 -1.2131  0.5325
  867MOL0     H17029   5.568   3.466   4.402 -0.2258 -0.8219 -0.4735
  867MOL0     H17030   5.322   3.497   4.357  0.4522 -2.3742  0.4656
  867MOL0     H17031   5.062   3.759   3.972 -0.7232  0.1140  0.5869
  867MOL0     H17032   4.858   3.768   3.838 -1.5756 -1.8664 -0.7845
  867MOL0     H17033   4.485   3.591   3.986 -2.9346  1.2749 -1.7506
  867MOL0     H17034   4.562   3.476   3.875  0.7962 -0.3209  2.7651
  867MOL0     H17035   4.450   3.620   3.694 -0.2945  2.0257 -1.3270
  867MOL0     H17036   4.416   3.743   3.811 -1.9240 -0.5279 -2.8307
  867MOL0     H17037   4.258   3.583   3.938 -2.2980 -1.2906  1.0841
  867MOL0     H17038   4.288   3.472   3.799  3.3275  1.2999 -1.2139
  867MOL0     H17039   4.225   3.755   3.747 -0.4355 -0.5345  3.3894
  867MOL0     H17040   4.203   3.617   3.637 -3.7824  1.5074 -1.4430
  867MOL0     H17041   3.848   3.583   3.859  0.7843 -4.3995 -2.0629
  867MOL0     H17042   4.680   3.484   4.085  0.2853 -0.5248 -1.5305
  867MOL0     H17043   4.949   3.365   4.277 -1.2736 -0.1136  2.8253
  867MOL0     H17044   4.867   3.497   4.351  1.5873 -0.5293  1.2874
  867MOL0     H17045   4.783   3.371   4.252 -0.7866  0.9318  1.2741
  868MOL0     O17046   5.431   7.776   3.977 -0.1621 -0.3407  0.3122
  868MOL0     C17047   5.391   7.734   3.866  0.1289  0.3533 -0.1907
  868MOL0     O17048   5.456   7.736   3.750  0.1349 -0.5017 -0.0936
  868MOL0     C17049   5.579   7.784   3.751 -0.1210 -0.2026 -0.3501
  868MOL0     C17050   5.697   7.708   3.751  0.9049 -0.2958 -0.2319
  868MOL0     C17051   5.826   7.754   3.755  0.9351 -0.4282  0.4594
  868MOL0     C17052   5.829   7.893   3.757 -0.2033 -0.8253  0.2342
  868MOL0     O17053   5.945   7.964   3.773 -0.0743 -0.7134 -0.0599
  868MOL0     C17054   6.074   7.905   3.795  0.3523  0.6028  0.8004
  868MOL0     C17055   6.167   8.020   3.815 -0.2923 -0.1494 -0.0015
  868MOL0     C17056   6.313   7.987   3.796  0.2934  0.8050 -1.1154
  868MOL0     C17057   6.399   8.108   3.837  0.4704  0.4951  0.7791
  868MOL0     C17058   6.555   8.085   3.819 -0.1616  0.2386 -1.1187
  868MOL0     C17059   6.592   7.969   3.912  0.1921 -0.1255  0.5865
  868MOL0     C17060   6.744   7.976   3.938  1.0266 -0.1777  0.1952
  868MOL0     C17061   6.820   7.850   3.963  0.5297 -0.5545  0.1137
  868MOL0     N17062   6.967   7.879   3.980 -0.3104  0.7067  0.8396
  868MOL0     C17063   7.016   7.942   4.082  0.2726 -0.5470  0.8266
  868MOL0     C17064   7.147   7.968   4.046 -0.0443 -0.6725 -0.0196
  868MOL0     C17065   7.251   8.055   4.113 -0.5217  0.6016 -0.2989
  868MOL0     C17066   7.388   7.987   4.132 -0.5194 -0.4476 -0.6539
  868MOL0     C17067   7.386   7.873   4.226 -0.5516 -0.3629 -1.1070
  868MOL0     C17068   7.511   7.787   4.216  0.2386 -1.4016  0.7768
  868MOL0     O17069   7.605   7.869   4.279 -0.0153 -0.9123  0.4768
  868MOL0     C17070   7.734   7.834   4.299  0.4714  0.0708  0.3466
  868MOL0     C17071   7.789   7.708   4.273 -0.0526  0.0557 -0.2020
  868MOL0     C17072   7.918   7.671   4.310  0.1809  0.0960 -0.5566
  868MOL0     C17073   8.000   7.771   4.372 -0.3320 -0.5662  0.6601
  868MOL0     C17074   8.137   7.743   4.409  1.4784  0.2896  0.6523
  868MOL0     O17075   8.213   7.855   4.428 -0.0767  0.1875 -0.7059
  868MOL0     C17076   8.334   7.842   4.487  0.8729  0.0823  0.4218
  868MOL0     C17077   8.434   7.762   4.434 -0.5467 -0.2645 -0.0241
  868MOL0     C17078   8.561   7.758   4.488 -1.2980  1.2366 -0.2450
  868MOL0     C17079   8.599   7.835   4.596  0.6759  0.0971  0.9384
  868MOL0     O17080   8.727   7.836   4.636 -0.7541  0.5913  0.3251
  868MOL0     C17081   8.778   7.931   4.731 -0.7350  0.3241  0.1907
  868MOL0     C17082   8.929   7.949   4.710 -0.6936 -1.1517 -0.2243
  868MOL0     C17083   8.988   8.023   4.832  0.2880  0.1242 -0.4231
  868MOL0     C17084   9.116   8.097   4.772 -0.0456  0.1570  0.5645
  868MOL0     C17085   9.213   8.175   4.877 -0.2064 -0.6973  0.8830
  868MOL0     C17086   9.346   8.234   4.822 -0.3428 -0.1774 -0.0065
  868MOL0     C17087   9.428   8.310   4.934  0.1260  1.0351  0.7041
  868MOL0     C17088   9.553   8.369   4.873  0.1631 -0.0921  0.1577
  868MOL0    Cl17089   9.652   8.439   5.008 -0.1692 -0.1371  0.1069
  868MOL0     C17090   8.502   7.920   4.645  0.1512 -0.4228  0.6595
  868MOL0     C17091   8.367   7.921   4.594 -0.4655  0.1919 -0.0634
  868MOL0     O17092   8.172   7.620   4.420 -0.4539 -0.2249  0.8391
  868MOL0     C17093   7.941   7.904   4.395 -0.7853 -0.7174  0.2160
  868MOL0     C17094   7.812   7.934   4.355 -1.1580  0.0518  0.3460
  868MOL0     N17095   7.175   7.911   3.924 -0.5091 -1.2938 -0.0067
  868MOL0     N17096   7.068   7.848   3.887  0.0993  0.3062  0.4248
  868MOL0     C17097   5.715   7.976   3.765  0.5271  0.2057  0.7123
  868MOL0     C17098   5.591   7.918   3.762  0.2760 -0.7378  0.0344
  868MOL0     C17099   5.247   7.688   3.849  0.1192  0.3995 -0.0435
  868MOL0     C17100   5.169   7.763   3.760 -0.5081  0.2833  0.4043
  868MOL0     C17101   5.030   7.729   3.750 -0.0175  0.1839 -0.0562
  868MOL0     C17102   4.976   7.626   3.830  0.4846  0.6795  0.3071
  868MOL0     O17103   4.841   7.596   3.841 -0.1930  0.3090  1.0490
  868MOL0     C17104   4.745   7.668   3.759 -0.4888  0.5366  0.3205
  868MOL0     C17105   4.607   7.603   3.775 -0.1653  0.3472  0.6578
  868MOL0     C17106   4.504   7.699   3.723  0.2460  0.0817 -0.1080
  868MOL0     C17107   4.461   7.805   3.820 -0.3047 -0.1342  0.3124
  868MOL0     C17108   4.334   7.872   3.793  0.6825 -0.4402 -0.2549
  868MOL0     C17109   4.232   7.942   3.788 -0.5600 -0.0477  0.1730
  868MOL0     C17110   5.056   7.544   3.903 -0.6473 -1.0210 -0.2368
  868MOL0     C17111   5.193   7.576   3.912  0.2820  0.0897 -0.0374
  868MOL0     C17112   5.271   7.490   4.006 -0.8578  0.4585 -0.1273
  868MOL0     H17113   5.684   7.601   3.736 -2.4896  0.1412 -1.0480
  868MOL0     H17114   5.900   7.679   3.728 -1.2357 -1.9777 -1.6833
  868MOL0     H17115   6.082   7.831   3.875  1.1197  0.4489  0.5915
  868MOL0     H17116   6.103   7.847   3.706  0.7346 -1.3356  2.1276
  868MOL0     H17117   6.144   8.069   3.910 -1.2220  2.1233 -1.3247
  868MOL0     H17118   6.149   8.081   3.726  2.8465 -1.9562 -2.1059
  868MOL0     H17119   6.331   7.955   3.693 -1.3452 -0.4519 -1.0464
  868MOL0     H17120   6.336   7.907   3.867 -1.9256  1.4714  0.4527
  868MOL0     H17121   6.378   8.184   3.761  0.3655 -0.9042 -0.6421
  868MOL0     H17122   6.385   8.141   3.941  1.9105  0.7425  0.9232
  868MOL0     H17123   6.583   8.059   3.716 -0.9856 -0.7982 -1.1072
  868MOL0     H17124   6.600   8.176   3.857 -2.4888  0.4927  1.2868
  868MOL0     H17125   6.530   7.972   4.002 -1.3268  2.0134 -0.4581
  868MOL0     H17126   6.557   7.873   3.873  0.8214 -0.6982  1.3901
  868MOL0     H17127   6.763   8.048   4.018  0.2157  0.6581 -0.3464
  868MOL0     H17128   6.792   8.005   3.844 -0.3789  0.1063 -0.4534
  868MOL0     H17129   6.776   7.814   4.057  0.3966  1.2007  0.7650
  868MOL0     H17130   6.797   7.785   3.879 -1.7183  1.5804 -1.0658
  868MOL0     H17131   6.955   7.975   4.166 -3.8258 -0.5551 -1.8796
  868MOL0     H17132   7.258   8.147   4.054  0.9738  1.9202  1.7837
  868MOL0     H17133   7.207   8.087   4.207  2.2692  1.5084  0.7951
  868MOL0     H17134   7.440   7.963   4.039  3.8625  0.8464  1.1919
  868MOL0     H17135   7.455   8.060   4.177 -2.2939  2.0142 -1.7936
  868MOL0     H17136   7.298   7.810   4.210 -1.2396 -0.2531  1.6565
  868MOL0     H17137   7.372   7.923   4.322  0.5228  0.1205 -1.1901
  868MOL0     H17138   7.552   7.763   4.117  1.6698  5.4235 -0.7807
  868MOL0     H17139   7.489   7.691   4.264 -1.3000 -1.9211 -0.8332
  868MOL0     H17140   7.731   7.625   4.231  0.1292 -0.6824  0.9701
  868MOL0     H17141   7.944   7.567   4.292 -1.8560 -0.5837  0.0583
  868MOL0     H17142   8.412   7.699   4.348  0.9763  0.0654 -0.6858
  868MOL0     H17143   8.634   7.688   4.449 -3.8529 -0.5204 -2.2389
  868MOL0     H17144   8.745   8.035   4.730  3.9154  2.0722 -1.1131
  868MOL0     H17145   8.760   7.891   4.831 -0.9111 -1.4338 -0.5045
  868MOL0     H17146   8.974   7.850   4.705  0.7974 -0.5684  0.8808
  868MOL0     H17147   8.950   8.005   4.618 -1.4347 -0.2905  0.1153
  868MOL0     H17148   8.920   8.101   4.868  3.3741  2.3246  1.1565
  868MOL0     H17149   9.016   7.956   4.913  1.6677  2.8825  1.5296
  868MOL0     H17150   9.085   8.157   4.687 -0.9798 -1.5464 -0.3466
  868MOL0     H17151   9.178   8.021   4.724 -0.8044 -0.2186  0.1650
  868MOL0     H17152   9.242   8.112   4.961  3.2657  0.9629  1.0995
  868MOL0     H17153   9.159   8.262   4.917 -2.5153 -0.0873 -2.9518
  868MOL0     H17154   9.412   8.154   4.789  1.8364  1.4771  0.0966
  868MOL0     H17155   9.314   8.308   4.748 -0.0066  0.4013  0.4142
  868MOL0     H17156   9.455   8.234   5.007 -3.6971 -0.6413  0.6224
  868MOL0     H17157   9.360   8.384   4.976  1.4697  1.5043  2.1047
  868MOL0     H17158   9.617   8.296   4.823  1.2214  0.8407  0.0914
  868MOL0     H17159   9.525   8.447   4.801  2.2712  0.1638 -0.4763
  868MOL0     H17160   8.525   7.991   4.724 -0.0903  1.5618 -0.9707
  868MOL0     H17161   8.296   8.000   4.618 -0.9976 -0.4005  0.3332
  868MOL0     H17162   7.989   7.987   4.445 -1.3781  0.6212 -1.3590
  868MOL0     H17163   7.762   8.029   4.375 -2.0894 -0.8362  2.5343
  868MOL0     H17164   5.704   8.084   3.769 -0.8334  0.2299 -1.6750
  868MOL0     H17165   5.504   7.982   3.759  1.5094  0.9889 -0.2823
  868MOL0     H17166   5.213   7.854   3.719  2.3339  0.9438  4.3551
  868MOL0     H17167   4.975   7.785   3.675  0.9624 -0.2040 -1.0816
  868MOL0     H17168   4.774   7.669   3.653 -4.2909 -1.0470 -0.8946
  868MOL0     H17169   4.732   7.774   3.784 -1.0150  0.1804  1.6168
  868MOL0     H17170   4.583   7.573   3.877 -2.7435 -2.3521 -0.5778
  868MOL0     H17171   4.603   7.515   3.711  1.5810  1.4500 -1.0914
  868MOL0     H17172   4.419   7.636   3.697 -0.6122  1.1062  0.1212
  868MOL0     H17173   4.530   7.742   3.626  0.4638 -0.2547 -0.1991
  868MOL0     H17174   4.457   7.755   3.917 -2.2321 -0.5335  0.0766
  868MOL0     H17175   4.539   7.880   3.829  0.5363 -0.9368 -0.1375
  868MOL0     H17176   4.155   8.015   3.770  0.4141  0.7971 -0.7284
  868MOL0     H17177   5.029   7.453   3.956  2.3385  0.6065  4.7887
  868MOL0     H17178   5.210   7.407   4.042 -0.0388 -0.4068 -0.6797
  868MOL0     H17179   5.362   7.457   3.955 -1.8984 -1.4731 -0.8298
  868MOL0     H17180   5.297   7.547   4.096 -0.1255 -0.0754  0.0037
  869MOL0     O17181   3.368   9.839   4.050  0.0845  0.5114 -0.0820
  869MOL0     C17182   3.306   9.771   4.127  0.3109 -0.1674  0.2685
  869MOL0     O17183   3.355   9.655   4.190 -0.1534 -0.3974  0.6313
  869MOL0     C17184   3.494   9.636   4.192 -0.3584  0.0959  0.0174
  869MOL0     C17185   3.584   9.740   4.222  0.3623 -0.6381 -0.4679
  869MOL0     C17186   3.719   9.715   4.244  0.3380  0.8864 -0.1386
  869MOL0     C17187   3.762   9.582   4.252 -0.0810  0.2289 -0.6028
  869MOL0     O17188   3.891   9.537   4.278  0.7513 -0.1793  1.1333
  869MOL0     C17189   3.993   9.623   4.323 -0.2795 -0.2584  0.5269
  869MOL0     C17190   4.113   9.545   4.358 -0.2824 -0.4752  0.4248
  869MOL0     C17191   4.165   9.471   4.233 -0.6941 -0.2734 -0.0202
  869MOL0     C17192   4.316   9.437   4.244 -0.4938  0.3944  0.4320
  869MOL0     C17193   4.364   9.335   4.143 -0.5398 -0.0508 -0.3703
  869MOL0     C17194   4.478   9.245   4.184 -0.6365  0.3696 -0.5068
  869MOL0     C17195   4.606   9.327   4.181 -0.5331 -0.3093  0.1049
  869MOL0     C17196   4.737   9.255   4.213 -0.3104  0.2740 -0.3273
  869MOL0     N17197   4.858   9.306   4.137 -0.4337 -0.2248  0.7695
  869MOL0     C17198   4.918   9.257   4.022  0.8495 -0.4050  0.1280
  869MOL0     C17199   5.005   9.349   3.981 -1.1125  0.4885 -0.0870
  869MOL0     C17200   5.107   9.335   3.881  0.0078 -0.2916  0.1087
  869MOL0     C17201   5.142   9.185   3.833  0.2175 -0.3053  0.0613
  869MOL0     C17202   5.207   9.096   3.935  0.2356 -0.6355 -0.0467
  869MOL0     C17203   5.332   9.156   4.012  1.0439 -0.0069  0.3302
  869MOL0     O17204   5.397   9.047   4.084  0.2287 -0.8506  0.2752
  869MOL0     C17205   5.532   9.060   4.110  0.7919  0.4672  0.2611
  869MOL0     C17206   5.602   8.944   4.150 -0.0326 -0.2561 -0.0632
  869MOL0     C17207   5.740   8.945   4.195  0.2616  0.3749  0.2145
  869MOL0     C17208   5.806   9.069   4.194 -0.3177 -0.8347  0.7273
  869MOL0     C17209   5.943   9.074   4.230 -0.4844  0.0520 -1.0870
  869MOL0     O17210   5.997   8.964   4.294  0.2668  0.2789 -0.1599
  869MOL0     C17211   6.131   8.955   4.313 -0.0686  0.0264 -0.4874
  869MOL0     C17212   6.234   9.050   4.273 -0.4925 -0.1564 -1.1887
  869MOL0     C17213   6.371   9.013   4.283  1.9788 -0.2054 -0.2064
  869MOL0     C17214   6.408   8.902   4.354 -1.1266 -0.5873  0.9631
  869MOL0     O17215   6.546   8.868   4.369  0.2015 -0.1771  0.2306
  869MOL0     C17216   6.637   8.948   4.291 -0.2386 -0.3689  0.3448
  869MOL0     C17217   6.778   8.893   4.326  0.3658 -0.1530 -0.4130
  869MOL0     C17218   6.807   8.898   4.479  0.3901 -0.8395 -0.2192
  869MOL0     C17219   6.950   8.874   4.513 -0.4967 -0.0081  0.0539
  869MOL0     C17220   6.985   8.848   4.656 -0.1331  0.5443  0.6265
  869MOL0     C17221   6.988   8.967   4.750  0.2324 -0.6908  0.2772
  869MOL0     C17222   7.092   9.069   4.702  0.6251 -0.1725 -0.3754
  869MOL0     C17223   7.142   9.165   4.806 -0.1220  0.1847 -0.0551
  869MOL0    Cl17224   7.262   9.087   4.924  0.1087  0.0350  0.1619
  869MOL0     C17225   6.312   8.808   4.385 -0.3146 -0.7006 -1.1998
  869MOL0     C17226   6.175   8.833   4.373 -0.6791  1.4283  0.0851
  869MOL0     O17227   5.995   9.178   4.195 -0.2383  0.1700 -0.0241
  869MOL0     C17228   5.735   9.182   4.140  0.0054  0.7026  0.4457
  869MOL0     C17229   5.597   9.179   4.109  0.6811 -0.7646 -1.0880
  869MOL0     N17230   4.990   9.460   4.055 -0.4095  0.1406 -0.5168
  869MOL0     N17231   4.903   9.436   4.143  0.4558  0.0612  0.0269
  869MOL0     C17232   3.669   9.481   4.221  0.1807 -0.5102 -0.1072
  869MOL0     C17233   3.539   9.508   4.194  0.3781  0.8761 -0.2602
  869MOL0     C17234   3.157   9.795   4.130 -0.3071 -0.6656  0.1900
  869MOL0     C17235   3.069   9.686   4.152 -0.2501  0.3115  0.5529
  869MOL0     C17236   2.928   9.692   4.146  1.0988  0.0777  0.3794
  869MOL0     C17237   2.876   9.817   4.116  0.1877  0.4661 -0.3302
  869MOL0     O17238   2.743   9.822   4.108 -0.8207  0.4774 -0.7053
  869MOL0     C17239   2.681   9.953   4.096 -0.1758  0.1871 -0.7235
  869MOL0     C17240   2.532   9.911   4.120  0.7505  0.4057 -0.2511
  869MOL0     C17241   2.431  10.032   4.085 -0.0455  0.0504  0.0954
  869MOL0     C17242   2.288  10.000   4.125 -0.4280  0.0537 -0.1013
  869MOL0     C17243   2.237   9.889   4.048  0.8059 -0.2083 -0.2699
  869MOL0     C17244   2.191   9.794   3.997 -1.3160  0.1658  0.4549
  869MOL0     C17245   2.961   9.926   4.101 -0.3223  0.2583 -0.2034
  869MOL0     C17246   3.095   9.927   4.105 -0.7792 -0.0678 -0.2525
  869MOL0     C17247   3.180  10.056   4.109  0.1739 -0.6290  0.8889
  869MOL0     H17248   3.542   9.840   4.212 -0.6522 -0.9595  0.3115
  869MOL0     H17249   3.792   9.793   4.265  3.4910 -2.6492  3.6986
  869MOL0     H17250   4.023   9.697   4.249  1.0685  2.5367  3.6155
  869MOL0     H17251   3.948   9.666   4.413 -0.6791  2.1306 -0.7352
  869MOL0     H17252   4.084   9.475   4.437  0.9085 -4.2012 -2.1682
  869MOL0     H17253   4.184   9.624   4.386 -1.5809  1.2093 -0.8254
  869MOL0     H17254   4.145   9.530   4.143  0.6694 -0.2569 -0.3338
  869MOL0     H17255   4.101   9.384   4.213 -0.5454 -0.3863 -0.0027
  869MOL0     H17256   4.382   9.524   4.247 -1.0663  0.8755 -0.5154
  869MOL0     H17257   4.323   9.386   4.340 -0.1049  0.9722  0.7188
  869MOL0     H17258   4.278   9.270   4.123 -2.8852  2.6272  0.4996
  869MOL0     H17259   4.386   9.389   4.050 -2.0246  4.7520  1.7922
  869MOL0     H17260   4.458   9.201   4.282 -0.5131 -2.7799 -1.7791
  869MOL0     H17261   4.478   9.166   4.109 -3.0321 -1.3154  1.1107
  869MOL0     H17262   4.593   9.421   4.236  1.9716  0.3465 -0.2881
  869MOL0     H17263   4.614   9.359   4.077 -1.5269  0.0132  0.1254
  869MOL0     H17264   4.770   9.281   4.314  1.0632 -1.1667 -0.3615
  869MOL0     H17265   4.728   9.147   4.202 -0.6201  0.3091 -0.4244
  869MOL0     H17266   4.902   9.156   3.986  1.7247 -1.6821  2.9723
  869MOL0     H17267   5.074   9.391   3.793  1.2246  0.5564  0.1612
  869MOL0     H17268   5.200   9.385   3.909 -0.6772  0.6567  0.7585
  869MOL0     H17269   5.047   9.143   3.799 -0.5828  0.2670  1.5010
  869MOL0     H17270   5.201   9.176   3.741 -0.6455 -0.0590 -0.5243
  869MOL0     H17271   5.246   9.010   3.879 -0.2027 -0.3736 -0.7591
  869MOL0     H17272   5.137   9.061   4.011  1.1083 -0.1395  1.0062
  869MOL0     H17273   5.291   9.231   4.080 -2.8934  0.3470 -2.0857
  869MOL0     H17274   5.395   9.197   3.933 -0.9618 -1.5616 -2.2484
  869MOL0     H17275   5.550   8.849   4.153  2.3116 -1.6712 -0.8943
  869MOL0     H17276   5.788   8.853   4.227 -0.3374 -0.4727 -1.2262
  869MOL0     H17277   6.231   9.150   4.230  1.9271  0.2760 -0.4975
  869MOL0     H17278   6.440   9.088   4.245 -0.7616  3.2254  1.0627
  869MOL0     H17279   6.624   8.932   4.183  0.3313 -2.0299  0.4870
  869MOL0     H17280   6.624   9.049   4.330  2.9023  0.1048  0.3842
  869MOL0     H17281   6.788   8.792   4.285 -2.5163 -0.8150  0.2384
  869MOL0     H17282   6.854   8.948   4.271  0.1192  0.6425  0.0310
  869MOL0     H17283   6.791   9.000   4.517  0.7596 -0.1605 -1.7887
  869MOL0     H17284   6.746   8.819   4.524  0.9545 -1.9366 -1.3345
  869MOL0     H17285   7.009   8.952   4.464 -2.8227  2.3318  0.7580
  869MOL0     H17286   6.976   8.780   4.463  0.0662  1.0147 -1.6425
  869MOL0     H17287   7.087   8.807   4.658  0.4860  2.0390  1.2068
  869MOL0     H17288   6.913   8.771   4.684 -1.0454 -0.1445 -3.0612
  869MOL0     H17289   6.885   9.005   4.750  0.2778 -0.4835  1.7685
  869MOL0     H17290   7.016   8.944   4.854 -0.9839  0.8216  0.9875
  869MOL0     H17291   7.047   9.119   4.615  1.6686 -0.3356 -1.0294
  869MOL0     H17292   7.179   9.015   4.662  2.4230  1.1407  1.5511
  869MOL0     H17293   7.191   9.249   4.757 -1.9565  1.3593  0.0014
  869MOL0     H17294   7.056   9.215   4.853 -1.3844 -2.1577  0.2766
  869MOL0     H17295   6.350   8.712   4.419  1.4231  0.6971  1.0660
  869MOL0     H17296   6.101   8.756   4.393  3.0010 -1.7839  2.8188
  869MOL0     H17297   5.779   9.281   4.138  2.1369 -0.1780 -0.3504
  869MOL0     H17298   5.551   9.276   4.097  0.4493 -0.8682 -1.0428
  869MOL0     H17299   3.707   9.382   4.244  0.4476  0.2887  3.6144
  869MOL0     H17300   3.475   9.421   4.187  0.1373  0.6889  2.8653
  869MOL0     H17301   3.110   9.588   4.174 -0.7159 -0.0014  0.0462
  869MOL0     H17302   2.853   9.614   4.151 -0.7670  1.8306  1.4306
  869MOL0     H17303   2.709   9.986   3.995  3.2909 -0.7080 -0.1759
  869MOL0     H17304   2.701  10.026   4.175  2.8999 -0.4225 -0.8297
  869MOL0     H17305   2.528   9.889   4.227 -0.4564  1.1718 -0.1216
  869MOL0     H17306   2.512   9.816   4.069 -2.7359  2.5096 -3.2475
  869MOL0     H17307   2.436  10.060   3.979  0.7051  0.1681  0.1556
  869MOL0     H17308   2.468  10.116   4.144  1.0396 -0.3296 -0.0084
  869MOL0     H17309   2.273   9.979   4.232 -2.2509  2.1658  0.1463
  869MOL0     H17310   2.226  10.088   4.105 -0.7364  0.0962  0.9674
  869MOL0     H17311   2.151   9.713   3.938 -1.5777 -1.0854  2.2645
  869MOL0     H17312   2.921  10.025   4.080 -1.4474 -0.0470  0.4073
  869MOL0     H17313   3.282  10.048   4.148 -1.2315 -0.6815  5.0946
  869MOL0     H17314   3.171  10.085   4.004  1.4464 -2.7395  0.1461
  869MOL0     H17315   3.135  10.134   4.171  0.2117 -1.0306  1.4290
  870MOL0     O17316  10.437   1.544   1.605  0.7927  0.3206 -0.4659
  870MOL0     C17317  10.453   1.614   1.506  0.1285  0.6996 -0.1095
  870MOL0     O17318  10.576   1.637   1.454 -0.0752  0.3530  0.2044
  870MOL0     C17319  10.684   1.589   1.516  0.6734  0.8131  0.1973
  870MOL0     C17320  10.749   1.663   1.615  0.8271 -0.2084 -0.4573
  870MOL0     C17321  10.863   1.614   1.685 -0.3087  0.2218 -0.4157
  870MOL0     C17322  10.922   1.497   1.650 -0.0869  0.0442  0.8623
  870MOL0     O17323  11.045   1.454   1.699 -0.5922 -0.1356 -0.2626
  870MOL0     C17324  11.098   1.521   1.815  0.5885 -0.6520  0.2745
  870MOL0     C17325  11.228   1.436   1.840  0.0633 -0.3119 -0.0853
  870MOL0     C17326  11.351   1.517   1.887 -0.0407 -0.3471 -0.3365
  870MOL0     C17327  11.398   1.636   1.799  0.3191  0.0330  0.8203
  870MOL0     C17328  11.552   1.642   1.777 -0.0586  0.5149  0.4312
  870MOL0     C17329  11.591   1.538   1.663 -0.8482 -0.4101  0.3754
  870MOL0     C17330  11.745   1.544   1.629 -0.1976 -0.0750  0.0834
  870MOL0     C17331  11.806   1.681   1.599  0.4081  0.1528 -0.1465
  870MOL0     N17332  11.946   1.676   1.549  0.6850  0.2055 -0.3261
  870MOL0     C17333  12.004   1.585   1.465 -1.1911  0.4836 -0.6489
  870MOL0     C17334  12.124   1.641   1.428  0.2809 -0.6029 -0.3694
  870MOL0     C17335  12.229   1.602   1.332  1.0675  0.0395  0.0470
  870MOL0     C17336  12.367   1.623   1.391  0.7071  0.2859 -0.5133
  870MOL0     C17337  12.473   1.603   1.284  0.4206 -0.6246  0.1919
  870MOL0     C17338  12.612   1.602   1.342 -0.1721 -0.2975  0.5637
  870MOL0     O17339  12.695   1.611   1.219 -0.0592  0.5458  0.3373
  870MOL0     C17340  12.833   1.620   1.234  0.9182  0.0322  0.3520
  870MOL0     C17341  12.899   1.627   1.353 -0.2280  0.2760  0.2928
  870MOL0     C17342  13.035   1.642   1.359  0.1061 -0.3722  0.0072
  870MOL0     C17343  13.111   1.678   1.244 -0.8408 -1.5760 -1.1259
  870MOL0     C17344  13.259   1.705   1.264  0.6594  0.6063 -0.1804
  870MOL0     O17345  13.312   1.695   1.387  0.2425  0.0413  0.8396
  870MOL0     C17346  13.445   1.726   1.394  0.0143 -0.0900  0.4195
  870MOL0     C17347  13.479   1.862   1.406  0.0475 -0.0205 -0.3944
  870MOL0     C17348  13.607   1.898   1.413 -0.2568  0.2544  0.2981
  870MOL0     C17349  13.715   1.806   1.401  0.0985 -0.6034  1.0350
  870MOL0     O17350  13.840   1.864   1.382  1.1754 -0.5000 -0.1634
  870MOL0     C17351  13.952   1.777   1.354 -0.2752  0.3205 -0.0693
  870MOL0     C17352  14.076   1.861   1.354  0.6101 -0.2361  0.3785
  870MOL0     C17353  14.214   1.777   1.351  0.0722  0.2656  0.5162
  870MOL0     C17354  14.334   1.873   1.382  0.4516  0.0028  0.4251
  870MOL0     C17355  14.472   1.822   1.333 -1.2833  0.1512  0.5436
  870MOL0     C17356  14.589   1.925   1.359  0.0296  0.8239  0.0489
  870MOL0     C17357  14.711   1.849   1.314 -0.1375 -0.1413  0.0306
  870MOL0     C17358  14.839   1.913   1.361 -0.8368 -0.1894  0.1425
  870MOL0    Cl17359  14.898   1.843   1.523 -0.0127 -0.1389  0.2264
  870MOL0     C17360  13.686   1.665   1.386 -0.5021 -0.1536 -0.2077
  870MOL0     C17361  13.552   1.628   1.387  0.4778  0.0091  0.7494
  870MOL0     O17362  13.312   1.743   1.162  0.2435 -0.5800  0.5257
  870MOL0     C17363  13.047   1.693   1.123 -0.5565  0.2409 -0.2449
  870MOL0     C17364  12.912   1.657   1.114  0.5547  0.7974  0.1519
  870MOL0     N17365  12.125   1.767   1.488 -0.2330  0.6975  0.7355
  870MOL0     N17366  12.027   1.786   1.561  0.6740 -0.3627  0.2079
  870MOL0     C17367  10.852   1.417   1.557 -0.1009  0.5583 -0.4569
  870MOL0     C17368  10.739   1.465   1.487  0.7379  0.3173 -0.2192
  870MOL0     C17369  10.340   1.673   1.431 -0.2138 -0.2090 -0.6494
  870MOL0     C17370  10.362   1.729   1.303 -0.3106 -0.1583  0.0245
  870MOL0     C17371  10.263   1.764   1.216  0.6079  0.0386 -0.6853
  870MOL0     C17372  10.129   1.762   1.267  0.0205 -0.1405  0.4134
  870MOL0     O17373  10.028   1.796   1.188  0.0237  0.6537  0.4041
  870MOL0     C17374  10.033   1.906   1.092 -0.0436  0.2229 -0.3272
  870MOL0     C17375  10.071   1.848   0.952 -0.7397 -0.9088 -0.4541
  870MOL0     C17376  10.031   1.944   0.833 -0.3649  0.0333 -0.6084
  870MOL0     C17377  10.043   2.089   0.873 -0.5598  0.1032 -1.1847
  870MOL0     C17378  10.031   2.175   0.755 -1.2401  0.0839 -0.5802
  870MOL0     C17379  10.014   2.252   0.668  0.1758 -0.3055  1.0578
  870MOL0     C17380  10.105   1.718   1.400 -0.2371  0.3617 -0.0785
  870MOL0     C17381  10.211   1.671   1.481  0.6387 -0.1192 -0.5468
  870MOL0     C17382  10.165   1.614   1.610 -0.1823 -0.0836 -0.4464
  870MOL0     H17383  10.718   1.767   1.623  0.4511 -0.3093 -0.5714
  870MOL0     H17384  10.909   1.682   1.756  1.7854 -0.4336 -1.0804
  870MOL0     H17385  11.128   1.623   1.793  1.6069 -1.3742 -1.9056
  870MOL0     H17386  11.023   1.522   1.895 -0.3394  1.3719 -0.5573
  870MOL0     H17387  11.258   1.389   1.746 -0.7158  3.2768 -2.3063
  870MOL0     H17388  11.202   1.367   1.921 -2.5756  1.1190  0.3943
  870MOL0     H17389  11.432   1.447   1.911 -0.9828 -1.9082 -1.4765
  870MOL0     H17390  11.316   1.558   1.982 -1.3275  0.8064 -1.2736
  870MOL0     H17391  11.341   1.635   1.706  0.8704 -3.3221  0.3831
  870MOL0     H17392  11.354   1.723   1.848 -3.7566 -2.3823  1.9260
  870MOL0     H17393  11.570   1.746   1.747  0.4663  0.8296  1.7884
  870MOL0     H17394  11.609   1.609   1.864 -2.3285 -2.9444  0.8052
  870MOL0     H17395  11.566   1.436   1.694  1.9954 -0.8454  1.5242
  870MOL0     H17396  11.531   1.569   1.577  0.8924  1.6803 -0.1682
  870MOL0     H17397  11.760   1.466   1.553 -2.2338 -2.5480  2.0291
  870MOL0     H17398  11.801   1.514   1.718 -1.4191 -0.7066  0.6705
  870MOL0     H17399  11.738   1.723   1.524  1.6844  1.0849 -0.8168
  870MOL0     H17400  11.796   1.737   1.693 -0.2616 -0.6827  0.2930
  870MOL0     H17401  11.963   1.486   1.444 -5.3867  1.7746  0.5662
  870MOL0     H17402  12.220   1.500   1.293 -0.5652  0.8458 -1.8293
  870MOL0     H17403  12.220   1.670   1.247 -1.2964 -0.5522 -0.2382
  870MOL0     H17404  12.371   1.715   1.449  2.2354  0.2751 -0.5506
  870MOL0     H17405  12.399   1.544   1.459 -1.0141  1.5306  1.8896
  870MOL0     H17406  12.461   1.679   1.207 -0.0354 -1.7806 -0.9138
  870MOL0     H17407  12.451   1.507   1.236 -2.0538 -0.2598  0.4955
  870MOL0     H17408  12.632   1.514   1.403 -2.9432 -1.6705 -0.3739
  870MOL0     H17409  12.635   1.679   1.416  1.1096 -2.6178  2.7466
  870MOL0     H17410  12.833   1.600   1.435 -2.0999 -0.9588 -1.5347
  870MOL0     H17411  13.094   1.619   1.447  1.1133 -1.1421 -0.8422
  870MOL0     H17412  13.398   1.933   1.418  0.6409  0.9673 -2.0019
  870MOL0     H17413  13.627   2.001   1.438 -0.6712  0.1178  1.2230
  870MOL0     H17414  13.957   1.706   1.437 -1.6682  0.4446  0.1339
  870MOL0     H17415  13.937   1.712   1.266  1.0871 -3.1272  2.0274
  870MOL0     H17416  14.075   1.925   1.264 -0.7128  1.0143  1.2381
  870MOL0     H17417  14.069   1.923   1.443  0.4007  0.9274 -0.4153
  870MOL0     H17418  14.210   1.692   1.419  1.7116 -0.7350 -0.5682
  870MOL0     H17419  14.225   1.728   1.253 -3.0377 -1.2142  0.7753
  870MOL0     H17420  14.332   1.881   1.491 -0.5792 -2.7711  0.6688
  870MOL0     H17421  14.316   1.971   1.337 -0.7479 -0.0874  0.6807
  870MOL0     H17422  14.461   1.809   1.225 -2.0239  0.0043  0.6292
  870MOL0     H17423  14.487   1.720   1.369 -1.8142  0.0971  0.6237
  870MOL0     H17424  14.586   2.017   1.300  2.2051 -2.3743 -5.9597
  870MOL0     H17425  14.599   1.946   1.466 -1.2534 -1.0906  0.5986
  870MOL0     H17426  14.705   1.840   1.205 -0.0933 -0.8595  0.0830
  870MOL0     H17427  14.706   1.746   1.351 -1.6704 -0.7179 -1.6676
  870MOL0     H17428  14.912   1.889   1.284 -0.4105 -0.8539  0.7404
  870MOL0     H17429  14.813   2.019   1.368  0.0903  0.0167  0.5172
  870MOL0     H17430  13.756   1.584   1.369 -1.3733 -0.5234 -2.2601
  870MOL0     H17431  13.519   1.526   1.369  0.1059  0.0562  1.1510
  870MOL0     H17432  13.095   1.724   1.031  1.4746  0.8006  0.9306
  870MOL0     H17433  12.867   1.648   1.015  0.4899 -0.2854  0.2679
  870MOL0     H17434  10.883   1.314   1.547 -1.7583 -0.3415  2.3872
  870MOL0     H17435  10.678   1.402   1.423 -3.4770  1.7544  1.9487
  870MOL0     H17436  10.461   1.738   1.260 -1.8678  0.5322 -3.8183
  870MOL0     H17437  10.294   1.779   1.113  0.6020 -1.7700 -0.9861
  870MOL0     H17438  10.092   1.995   1.119  0.5578 -0.7220  1.6713
  870MOL0     H17439   9.933   1.949   1.093  0.9889  2.9090  2.0281
  870MOL0     H17440  10.027   1.750   0.931  0.0972 -1.3181 -0.3218
  870MOL0     H17441  10.180   1.841   0.952 -0.8587 -4.9398  0.7011
  870MOL0     H17442   9.924   1.921   0.826 -0.2839 -1.0216  1.0477
  870MOL0     H17443  10.098   1.916   0.751  0.7676  1.2059 -0.1199
  870MOL0     H17444   9.961   2.111   0.941 -1.5271 -1.4923 -1.7828
  870MOL0     H17445  10.136   2.106   0.928 -2.3218  1.4626  1.5873
  870MOL0     H17446   9.987   2.322   0.591 -0.4062  0.1189  1.6400
  870MOL0     H17447  10.003   1.714   1.436 -0.4801 -0.6201 -0.8449
  870MOL0     H17448  10.071   1.655   1.647 -0.3090  1.6428 -2.5302
  870MOL0     H17449  10.149   1.506   1.595 -1.0544  0.4362 -4.0043
  870MOL0     H17450  10.242   1.628   1.687 -0.9613  2.6060 -0.0605
  871MOL0     O17451   4.984   2.225   3.676  0.3589 -0.1568 -0.2334
  871MOL0     C17452   4.989   2.344   3.718 -0.0130 -0.8798 -0.1975
  871MOL0     O17453   4.878   2.419   3.757  0.4524  0.0034  0.0486
  871MOL0     C17454   4.756   2.359   3.731  1.5215  0.4105 -0.1347
  871MOL0     C17455   4.694   2.337   3.603 -0.1758 -0.6281 -0.7574
  871MOL0     C17456   4.564   2.279   3.588  0.2310 -0.2649 -0.6130
  871MOL0     C17457   4.501   2.230   3.707  0.3340  0.6143  0.4276
  871MOL0     O17458   4.377   2.181   3.719 -0.6787 -0.1933 -0.9054
  871MOL0     C17459   4.279   2.223   3.621  0.0549  0.7526 -0.8759
  871MOL0     C17460   4.150   2.135   3.628  0.0561  0.7557 -0.0335
  871MOL0     C17461   4.062   2.178   3.743 -0.6186  0.6814 -0.2743
  871MOL0     C17462   3.923   2.107   3.733 -0.1758  0.5298 -0.8103
  871MOL0     C17463   3.821   2.160   3.838  0.0385  0.1689  0.0996
  871MOL0     C17464   3.684   2.094   3.809  2.0465  0.8863  0.6009
  871MOL0     C17465   3.576   2.156   3.904  0.0590  0.5469  0.1427
  871MOL0     C17466   3.439   2.077   3.884  0.4805  0.8056 -0.0097
  871MOL0     N17467   3.386   2.087   3.750 -0.1364 -0.1858  0.8210
  871MOL0     C17468   3.346   2.208   3.697  0.2961 -0.3050  0.0647
  871MOL0     C17469   3.306   2.176   3.571 -0.3502  0.3343  0.8347
  871MOL0     C17470   3.204   2.239   3.484 -0.3109  0.2339  0.5514
  871MOL0     C17471   3.285   2.320   3.385  0.5873  0.1818 -0.1032
  871MOL0     C17472   3.192   2.426   3.322  0.5465  0.8718  0.2611
  871MOL0     C17473   3.251   2.512   3.212 -0.2729  0.6061 -0.3597
  871MOL0     O17474   3.299   2.441   3.098  0.3692  0.2190  0.0743
  871MOL0     C17475   3.420   2.473   3.048  0.5580 -0.6934  0.3208
  871MOL0     C17476   3.532   2.479   3.122 -0.6979 -0.4671  0.4805
  871MOL0     C17477   3.655   2.509   3.066 -0.5280 -0.4268 -0.5115
  871MOL0     C17478   3.666   2.534   2.924  0.3879  0.1686 -0.2899
  871MOL0     C17479   3.802   2.550   2.864  0.1776  0.0375 -1.3429
  871MOL0     O17480   3.903   2.592   2.950 -0.4491  0.0375  0.2936
  871MOL0     C17481   4.033   2.613   2.914 -0.6682  0.0323  0.1740
  871MOL0     C17482   4.101   2.564   2.801  0.5958 -0.3038 -0.6465
  871MOL0     C17483   4.240   2.587   2.791  0.3748 -0.0271  0.5489
  871MOL0     C17484   4.311   2.652   2.883 -0.3971 -0.2119 -0.2694
  871MOL0     O17485   4.440   2.666   2.840  0.5325 -0.1445 -0.7554
  871MOL0     C17486   4.527   2.752   2.911 -0.9624 -0.0250  0.9805
  871MOL0     C17487   4.669   2.723   2.870  0.3499  0.1300 -0.7725
  871MOL0     C17488   4.763   2.818   2.938  0.0970 -0.4690 -0.3928
  871MOL0     C17489   4.906   2.781   2.916 -0.2051 -0.5350  0.1045
  871MOL0     C17490   5.000   2.904   2.944  0.8530  0.0911  0.1444
  871MOL0     C17491   5.155   2.851   2.941  0.5834  0.3574  0.1700
  871MOL0     C17492   5.256   2.964   2.964 -0.9454 -0.0640 -0.6425
  871MOL0     C17493   5.394   2.895   2.976 -0.6698 -0.4326  0.3529
  871MOL0    Cl17494   5.512   2.996   3.060 -0.0976  0.0135  0.3954
  871MOL0     C17495   4.247   2.693   3.004 -0.2225  0.2708  0.8442
  871MOL0     C17496   4.111   2.672   3.015 -0.0993  1.4268  0.2519
  871MOL0     O17497   3.813   2.527   2.750 -0.2971 -0.3156  0.7707
  871MOL0     C17498   3.547   2.524   2.848 -0.7782  0.3224 -0.4237
  871MOL0     C17499   3.424   2.499   2.916 -1.1083 -0.0252  0.8504
  871MOL0     N17500   3.322   2.035   3.551  1.0213  0.2283  0.2708
  871MOL0     N17501   3.382   1.988   3.652  0.3248  0.6697 -0.5034
  871MOL0     C17502   4.559   2.266   3.828 -1.1989 -0.6316 -0.6206
  871MOL0     C17503   4.681   2.328   3.842  0.2251 -0.2238 -0.4317
  871MOL0     C17504   5.125   2.401   3.720 -0.7904 -0.4997  0.4003
  871MOL0     C17505   5.134   2.541   3.707  0.0794 -0.4278  0.8620
  871MOL0     C17506   5.256   2.602   3.700 -0.7538 -0.6139 -0.3637
  871MOL0     C17507   5.374   2.530   3.727 -0.2158 -0.6626  0.3913
  871MOL0     O17508   5.502   2.591   3.736 -0.8060 -1.0301  1.0964
  871MOL0     C17509   5.507   2.733   3.720  1.2961 -0.4487 -0.1230
  871MOL0     C17510   5.650   2.782   3.750  0.0866 -0.7649  0.1687
  871MOL0     C17511   5.755   2.742   3.644 -0.9398  0.0061  0.4882
  871MOL0     C17512   5.901   2.774   3.709  0.6269 -0.2280  0.9657
  871MOL0     C17513   6.011   2.765   3.610  0.4098  0.6153 -0.4189
  871MOL0     C17514   6.113   2.758   3.548  0.0867  0.7406  0.7450
  871MOL0     C17515   5.368   2.393   3.751  0.2308 -0.3942  0.2015
  871MOL0     C17516   5.246   2.327   3.748 -0.2715  0.0413  0.2669
  871MOL0     C17517   5.245   2.180   3.771 -0.4029  0.3093 -0.3550
  871MOL0     H17518   4.763   2.359   3.522  2.6470 -0.7768  1.4558
  871MOL0     H17519   4.523   2.253   3.492  1.2077  0.1959 -1.1674
  871MOL0     H17520   4.253   2.326   3.645 -2.5933 -0.6215  3.2714
  871MOL0     H17521   4.315   2.209   3.519  0.2550  1.2900 -0.8829
  871MOL0     H17522   4.187   2.031   3.629 -0.7607  0.4422 -0.9483
  871MOL0     H17523   4.088   2.149   3.539 -2.2296 -1.8024  1.0130
  871MOL0     H17524   4.031   2.283   3.745 -1.5666  0.4352  2.4575
  871MOL0     H17525   4.102   2.160   3.843 -1.7176 -0.5403 -0.0275
  871MOL0     H17526   3.877   2.118   3.635 -1.2941  0.5649 -0.3005
  871MOL0     H17527   3.944   2.001   3.751  0.2603  0.8516  0.7406
  871MOL0     H17528   3.846   2.130   3.940 -2.1945  1.9408  1.2520
  871MOL0     H17529   3.814   2.269   3.832 -1.4228  0.1303  0.7095
  871MOL0     H17530   3.654   2.106   3.705  4.3685  0.8301 -0.1434
  871MOL0     H17531   3.693   1.986   3.824 -0.1620  0.6298  0.3441
  871MOL0     H17532   3.556   2.262   3.882 -3.8786 -0.3631 -1.3901
  871MOL0     H17533   3.614   2.145   4.006 -0.9145  2.9860  0.8405
  871MOL0     H17534   3.459   1.974   3.914 -1.2182  0.8336  1.3628
  871MOL0     H17535   3.358   2.117   3.946 -0.1236 -0.1650 -0.1557
  871MOL0     H17536   3.349   2.304   3.749  0.6869 -0.7478  0.8748
  871MOL0     H17537   3.134   2.171   3.436  0.8309  0.9946 -2.3875
  871MOL0     H17538   3.135   2.311   3.530 -0.5188  1.1493 -1.0902
  871MOL0     H17539   3.364   2.382   3.428  0.1293  0.0203  1.0010
  871MOL0     H17540   3.333   2.261   3.307  0.7695  3.1900 -2.4439
  871MOL0     H17541   3.162   2.491   3.404 -2.6454 -1.2137  0.9167
  871MOL0     H17542   3.100   2.375   3.291  0.8707 -0.9763  2.0877
  871MOL0     H17543   3.336   2.570   3.249  1.2026 -0.8147 -1.3616
  871MOL0     H17544   3.176   2.579   3.170  2.1371  2.0734 -2.6065
  871MOL0     H17545   3.527   2.474   3.230 -1.8181  0.1005  0.4649
  871MOL0     H17546   3.748   2.512   3.122 -0.8459  0.0975  0.0001
  871MOL0     H17547   4.046   2.508   2.725 -1.7603  1.6490 -0.5125
  871MOL0     H17548   4.289   2.566   2.696 -0.6668  3.8823 -1.0405
  871MOL0     H17549   4.509   2.858   2.889 -0.2397  0.0251  0.6044
  871MOL0     H17550   4.523   2.741   3.020  1.5852  3.0051  1.5216
  871MOL0     H17551   4.702   2.627   2.910  1.4290  1.3397  1.5260
  871MOL0     H17552   4.679   2.729   2.762 -2.7862 -0.2339 -1.1505
  871MOL0     H17553   4.750   2.920   2.899  2.6433  1.1779  2.6095
  871MOL0     H17554   4.729   2.830   3.041 -1.0192 -2.2240 -0.5271
  871MOL0     H17555   4.935   2.762   2.812 -2.2120  1.5444 -0.9316
  871MOL0     H17556   4.928   2.698   2.983 -2.4543  0.2750  1.9840
  871MOL0     H17557   4.973   2.954   3.037  0.6777 -0.1910  0.2449
  871MOL0     H17558   4.974   2.982   2.871 -2.3283 -1.0591 -0.1209
  871MOL0     H17559   5.158   2.782   3.025 -0.6566  0.0174 -0.0322
  871MOL0     H17560   5.174   2.792   2.851  1.8092  0.0287  0.6373
  871MOL0     H17561   5.234   3.020   3.055 -0.0123 -1.9958  0.8760
  871MOL0     H17562   5.249   3.024   2.873  0.6263  0.8618 -0.1869
  871MOL0     H17563   5.387   2.804   3.037  1.8045 -0.0830  1.3045
  871MOL0     H17564   5.432   2.866   2.878 -0.2581 -2.6001  1.1012
  871MOL0     H17565   4.294   2.757   3.078  2.0442 -0.5452  0.2068
  871MOL0     H17566   4.059   2.720   3.097  1.0516 -0.3892  2.1312
  871MOL0     H17567   3.551   2.546   2.742  0.3164  0.6213 -0.3274
  871MOL0     H17568   3.331   2.512   2.862 -0.2068  3.4598 -0.1387
  871MOL0     H17569   4.509   2.234   3.919 -0.5088  1.2451  0.4701
  871MOL0     H17570   4.724   2.354   3.939  1.4429  3.1912 -1.7344
  871MOL0     H17571   5.046   2.602   3.689 -0.2595 -0.3696  2.5606
  871MOL0     H17572   5.257   2.705   3.666  3.9762 -0.4371 -0.2951
  871MOL0     H17573   5.439   2.785   3.788  2.9315  0.8305  0.6148
  871MOL0     H17574   5.476   2.774   3.624  0.1290 -1.8495 -0.3776
  871MOL0     H17575   5.684   2.747   3.848 -0.4855  0.5950  0.8796
  871MOL0     H17576   5.654   2.891   3.748  2.6582 -0.7879 -2.3549
  871MOL0     H17577   5.741   2.811   3.560  0.1376 -0.5661 -0.1841
  871MOL0     H17578   5.738   2.638   3.616  1.0439 -0.4603  0.8792
  871MOL0     H17579   5.901   2.879   3.740  0.1193 -0.6163  2.3822
  871MOL0     H17580   5.912   2.713   3.799  1.7780  0.6500  1.4378
  871MOL0     H17581   6.215   2.757   3.514 -0.1694 -2.5623 -0.2369
  871MOL0     H17582   5.456   2.334   3.776  2.9178  2.2588 -2.2297
  871MOL0     H17583   5.224   2.124   3.679 -0.6602  0.4763 -0.3992
  871MOL0     H17584   5.343   2.140   3.798 -1.6702 -3.1991 -0.3567
  871MOL0     H17585   5.172   2.147   3.846  2.3275 -3.3719  0.9680
  872MOL0     O17586   7.575   1.738  10.789 -0.0574  0.0754 -0.3137
  872MOL0     C17587   7.544   1.675  10.686 -0.0776  0.0383  0.1089
  872MOL0     O17588   7.414   1.655  10.643  0.3345 -0.0529  0.1990
  872MOL0     C17589   7.309   1.727  10.680  0.5249 -0.8890 -0.8262
  872MOL0     C17590   7.305   1.859  10.735  0.6891  0.2898  0.0986
  872MOL0     C17591   7.178   1.925  10.747 -0.6097  0.6222 -0.0286
  872MOL0     C17592   7.057   1.857  10.712 -0.3835 -0.1593  0.6274
  872MOL0     O17593   6.935   1.928  10.725 -0.3698  0.0048  0.2721
  872MOL0     C17594   6.813   1.867  10.684  0.8772  0.4162  0.3383
  872MOL0     C17595   6.691   1.957  10.706 -0.2220 -0.0994 -0.4010
  872MOL0     C17596   6.558   1.901  10.662  0.4576  0.2229  0.4284
  872MOL0     C17597   6.440   1.991  10.690  0.0621 -0.1100  0.1334
  872MOL0     C17598   6.308   1.935  10.641  0.1265 -0.0092  0.4426
  872MOL0     C17599   6.304   1.909  10.489 -0.5893 -0.4283  0.1198
  872MOL0     C17600   6.173   1.926  10.426 -0.7614  0.3539 -0.3918
  872MOL0     C17601   6.181   1.884  10.278 -0.4315 -0.5188  0.1590
  872MOL0     N17602   6.258   1.970  10.189  0.4338 -0.2976  0.7434
  872MOL0     C17603   6.392   1.961  10.184 -0.8960  0.2227  0.9393
  872MOL0     C17604   6.439   2.038  10.076  0.0871 -0.7587  0.1954
  872MOL0     C17605   6.575   2.057  10.010  0.0457 -0.1628 -1.0237
  872MOL0     C17606   6.646   2.194  10.049 -0.0277  0.3094 -0.4143
  872MOL0     C17607   6.769   2.222   9.972  0.1938  0.2842  0.5938
  872MOL0     C17608   6.883   2.121   9.989  0.9317 -0.6398  0.1137
  872MOL0     O17609   6.991   2.139   9.886  0.7621 -0.0530  0.5143
  872MOL0     C17610   7.118   2.083   9.902  0.5093 -0.1802 -0.0467
  872MOL0     C17611   7.224   2.170   9.886 -0.6597 -0.1154  0.4723
  872MOL0     C17612   7.352   2.125   9.897 -1.6615  0.2449 -0.5443
  872MOL0     C17613   7.380   1.989   9.910  0.4771 -0.5741 -0.5202
  872MOL0     C17614   7.522   1.952   9.919 -0.2510 -0.2749 -0.1080
  872MOL0     O17615   7.614   2.023   9.840  0.1855  0.6793  0.3311
  872MOL0     C17616   7.745   1.971   9.838 -0.6183 -0.1684 -0.5915
  872MOL0     C17617   7.819   1.990   9.948 -1.5172 -0.6109  0.0677
  872MOL0     C17618   7.954   1.944   9.940 -0.8304 -0.0632  0.5545
  872MOL0     C17619   8.011   1.881   9.822 -0.0447  0.2266 -0.4428
  872MOL0     O17620   8.132   1.821   9.809  0.4125 -1.1741 -0.9895
  872MOL0     C17621   8.186   1.773   9.928  0.4910 -0.2282  0.1265
  872MOL0     C17622   8.322   1.709   9.895 -0.7809 -0.1997 -0.7940
  872MOL0     C17623   8.391   1.638  10.007 -0.0285  0.0379  0.3953
  872MOL0     C17624   8.537   1.595   9.987 -0.4289 -0.2398  0.4738
  872MOL0     C17625   8.573   1.506  10.109 -0.8434  0.3085 -0.3166
  872MOL0     C17626   8.723   1.475  10.101  0.0405  0.0656 -0.2221
  872MOL0     C17627   8.817   1.588  10.160  0.2968 -0.8912 -0.0202
  872MOL0     C17628   8.964   1.549  10.162 -0.4548  0.6986 -0.3458
  872MOL0    Cl17629   9.033   1.529   9.998 -0.0319 -0.0697 -0.5549
  872MOL0     C17630   7.922   1.871   9.706 -0.5755  0.6432  0.3480
  872MOL0     C17631   7.792   1.905   9.719  0.7643 -0.2510  0.1710
  872MOL0     O17632   7.543   1.850   9.976  0.4823  0.4201  0.1732
  872MOL0     C17633   7.268   1.903   9.916 -0.2320 -0.7997  0.3721
  872MOL0     C17634   7.139   1.950   9.920  0.5777  0.6609  0.2932
  872MOL0     N17635   6.323   2.076  10.010  0.1179 -0.3602 -0.4095
  872MOL0     N17636   6.220   2.028  10.072 -0.2813 -0.4411  0.1006
  872MOL0     C17637   7.070   1.733  10.649  0.5031 -0.4469  0.4239
  872MOL0     C17638   7.186   1.666  10.641 -0.0111 -0.0987 -0.7487
  872MOL0     C17639   7.646   1.597  10.608  0.5134 -0.7393 -0.0589
  872MOL0     C17640   7.609   1.483  10.547 -0.0030 -0.1576  0.6318
  872MOL0     C17641   7.692   1.428  10.443 -0.4855 -0.5406 -0.0656
  872MOL0     C17642   7.830   1.464  10.436 -0.6412 -0.0289 -0.8330
  872MOL0     O17643   7.906   1.373  10.366 -0.8107  0.0379 -0.3305
  872MOL0     C17644   8.041   1.401  10.340 -0.4952  0.1535  0.3260
  872MOL0     C17645   8.100   1.293  10.245 -0.2098 -0.8751  1.0336
  872MOL0     C17646   8.029   1.294  10.112 -0.4681 -0.4865  0.1058
  872MOL0     C17647   8.107   1.205  10.005  0.3037  0.0535 -0.6743
  872MOL0     C17648   8.227   1.268   9.957 -0.8315 -0.1649  0.0511
  872MOL0     C17649   8.331   1.303   9.905 -0.0953 -0.3843 -0.2276
  872MOL0     C17650   7.873   1.571  10.515 -0.4162 -0.1450 -1.1640
  872MOL0     C17651   7.782   1.646  10.591  0.5346  0.1050  0.0707
  872MOL0     C17652   7.831   1.772  10.653  0.5478 -0.2179  0.1212
  872MOL0     H17653   7.397   1.913  10.752  1.3769 -1.0501  0.7413
  872MOL0     H17654   7.184   2.028  10.781 -1.3920  0.6671 -0.0082
  872MOL0     H17655   6.811   1.845  10.577  0.5651 -0.7197  0.5662
  872MOL0     H17656   6.804   1.772  10.738 -0.2585  0.1724 -0.2471
  872MOL0     H17657   6.717   2.051  10.657 -0.6933  0.6615  0.7675
  872MOL0     H17658   6.686   1.978  10.813 -1.7568 -0.5849 -0.3419
  872MOL0     H17659   6.532   1.803  10.705  0.9910 -1.0853 -2.0438
  872MOL0     H17660   6.570   1.875  10.557  0.2238  1.0400  0.1950
  872MOL0     H17661   6.423   2.005  10.797  0.3491 -2.9102  0.6127
  872MOL0     H17662   6.457   2.087  10.639 -1.0784 -0.9148 -1.9068
  872MOL0     H17663   6.296   1.838  10.689 -3.3374  0.8483  1.5558
  872MOL0     H17664   6.223   1.998  10.667  0.3694  0.1999  0.7253
  872MOL0     H17665   6.368   1.985  10.442 -0.7318 -0.8063 -0.7017
  872MOL0     H17666   6.354   1.813  10.474  0.3232  0.1529 -0.7812
  872MOL0     H17667   6.134   2.028  10.429 -0.8899  0.3332 -1.1303
  872MOL0     H17668   6.103   1.858  10.476  0.3124  0.5778  1.5292
  872MOL0     H17669   6.220   1.782  10.283 -0.6939 -0.5789  2.0811
  872MOL0     H17670   6.076   1.882  10.248 -0.7038 -4.4071  0.8692
  872MOL0     H17671   6.450   1.897  10.249  0.6670 -0.0823 -0.6942
  872MOL0     H17672   6.630   1.968  10.042 -1.2061 -0.7489 -0.4395
  872MOL0     H17673   6.560   2.046   9.902 -1.7746 -0.5236 -0.7760
  872MOL0     H17674   6.582   2.280  10.027 -0.4451  0.6439  1.8747
  872MOL0     H17675   6.674   2.193  10.154  2.1940  1.1610 -0.9549
  872MOL0     H17676   6.795   2.322  10.008  0.1168  0.7113 -0.5173
  872MOL0     H17677   6.737   2.219   9.868  1.1145 -2.4052  0.3125
  872MOL0     H17678   6.847   2.018   9.980  3.0026 -1.2312 -2.8421
  872MOL0     H17679   6.930   2.132  10.087  1.8754  1.2921 -0.5012
  872MOL0     H17680   7.212   2.273   9.854  3.4704 -0.5122 -3.2914
  872MOL0     H17681   7.436   2.193   9.906 -2.3781  1.2605 -1.2258
  872MOL0     H17682   7.788   2.062  10.024  0.0152 -0.5840  0.7162
  872MOL0     H17683   8.018   1.965  10.025 -0.2644  2.0525 -0.3371
  872MOL0     H17684   8.203   1.855   9.999 -0.3994 -0.6514  0.8481
  872MOL0     H17685   8.128   1.694   9.976 -0.5226  0.2989 -0.1971
  872MOL0     H17686   8.307   1.653   9.801 -2.0858  1.0051 -1.3484
  872MOL0     H17687   8.392   1.787   9.866  0.4066 -1.3463 -1.0995
  872MOL0     H17688   8.389   1.718  10.082  0.2586 -1.3860  1.9942
  872MOL0     H17689   8.329   1.555  10.043  0.3171  0.5649  2.3094
  872MOL0     H17690   8.602   1.683   9.988 -0.5840 -0.0601 -1.1908
  872MOL0     H17691   8.554   1.557   9.885  3.4379  1.6992  0.1827
  872MOL0     H17692   8.524   1.414  10.078 -0.0384  0.3974 -1.9835
  872MOL0     H17693   8.541   1.531  10.211  2.2229  1.5141  0.4632
  872MOL0     H17694   8.723   1.387  10.166  0.3556  1.7476  2.1806
  872MOL0     H17695   8.750   1.434  10.003 -1.9400 -4.3341  0.8594
  872MOL0     H17696   8.783   1.633  10.254 -1.2592 -0.1738 -0.8896
  872MOL0     H17697   8.800   1.670  10.089  0.5384 -0.7451  0.0913
  872MOL0     H17698   9.032   1.617  10.214  0.5995 -0.4189 -0.2190
  872MOL0     H17699   8.967   1.453  10.214 -2.9129  1.1750  0.8562
  872MOL0     H17700   7.967   1.814   9.626  1.9634  1.3221  1.1873
  872MOL0     H17701   7.718   1.886   9.643 -0.2288 -1.5601  1.4199
  872MOL0     H17702   7.282   1.797   9.933 -3.4342 -1.4521 -0.4041
  872MOL0     H17703   7.058   1.881   9.940  0.4594  1.0472  1.2044
  872MOL0     H17704   6.984   1.678  10.614  1.6159 -1.5028 -0.7607
  872MOL0     H17705   7.194   1.572  10.587 -1.2414 -0.8452  0.3072
  872MOL0     H17706   7.507   1.449  10.560 -0.2725  1.3772  3.2538
  872MOL0     H17707   7.661   1.342  10.384  0.1293 -0.8856  0.1052
  872MOL0     H17708   8.089   1.397  10.438 -2.9571 -0.9948  1.5842
  872MOL0     H17709   8.064   1.499  10.297 -0.3560  0.2435  0.6020
  872MOL0     H17710   8.093   1.190  10.282 -1.5836 -1.1245  0.1351
  872MOL0     H17711   8.205   1.322  10.232 -0.3936  0.7425  2.7545
  872MOL0     H17712   7.982   1.387  10.079 -2.1085 -2.1018 -2.3991
  872MOL0     H17713   7.948   1.228  10.145 -2.4771  1.6440 -0.3167
  872MOL0     H17714   8.128   1.106  10.047 -0.5415  0.5019  0.9214
  872MOL0     H17715   8.037   1.188   9.923 -1.7100 -1.7976  1.2951
  872MOL0     H17716   8.427   1.342   9.877 -0.2291  0.3256  0.2876
  872MOL0     H17717   7.975   1.602  10.493 -0.4998  0.8094 -0.2717
  872MOL0     H17718   7.850   1.757  10.760 -2.6303 -2.1644  0.5480
  872MOL0     H17719   7.921   1.805  10.600 -0.4899  0.4504 -1.2734
  872MOL0     H17720   7.757   1.852  10.654  1.2105  0.4443 -1.2004
  873MOL0     O17721   1.510   8.592   4.729  0.6176 -0.4961 -0.1182
  873MOL0     C17722   1.430   8.508   4.683  0.7997 -0.4445  0.5364
  873MOL0     O17723   1.455   8.370   4.686  0.2016 -0.3537  0.1831
  873MOL0     C17724   1.567   8.326   4.749 -0.2942  0.1096  0.3534
  873MOL0     C17725   1.556   8.276   4.882 -0.7519  0.0290  0.1604
  873MOL0     C17726   1.671   8.218   4.947 -1.6786  0.0602  0.5011
  873MOL0     C17727   1.799   8.229   4.887  0.3197 -0.5035 -0.1106
  873MOL0     O17728   1.912   8.188   4.951 -0.4858  0.5400  0.2289
  873MOL0     C17729   2.038   8.263   4.943  0.2389  0.3911  0.4007
  873MOL0     C17730   2.148   8.164   4.973 -0.3986 -0.4701 -0.4006
  873MOL0     C17731   2.279   8.230   4.986 -0.5682  0.2801  0.0358
  873MOL0     C17732   2.336   8.259   4.856  0.7366  0.5374  0.6352
  873MOL0     C17733   2.488   8.305   4.856 -0.7650 -1.0938  0.7161
  873MOL0     C17734   2.534   8.310   4.711 -0.2930 -0.2591  0.2898
  873MOL0     C17735   2.669   8.375   4.683 -0.3076 -0.2407  0.2019
  873MOL0     C17736   2.701   8.389   4.538 -0.7734 -0.3055  0.1903
  873MOL0     N17737   2.740   8.252   4.477  0.4834 -0.0923 -0.4390
  873MOL0     C17738   2.653   8.145   4.449 -0.8644 -0.2788 -0.1085
  873MOL0     C17739   2.736   8.052   4.396  0.0406  0.0855 -0.5168
  873MOL0     C17740   2.676   7.934   4.331 -0.3567  0.3246 -0.0621
  873MOL0     C17741   2.612   7.841   4.427  0.7312  0.6145 -0.2817
  873MOL0     C17742   2.711   7.774   4.530  0.3288 -1.0083 -0.8372
  873MOL0     C17743   2.835   7.731   4.470 -0.6353 -0.2728  0.3918
  873MOL0     O17744   2.918   7.679   4.579 -0.6084 -0.1025  0.4545
  873MOL0     C17745   3.050   7.683   4.551 -0.9776 -0.8991  0.4373
  873MOL0     C17746   3.150   7.702   4.649  0.1936 -0.4756  0.4320
  873MOL0     C17747   3.286   7.701   4.619  0.4370  0.5024 -0.3834
  873MOL0     C17748   3.329   7.693   4.484  0.9906 -0.1662 -0.0095
  873MOL0     C17749   3.479   7.690   4.447  0.4007 -0.4015  0.1375
  873MOL0     O17750   3.520   7.668   4.314  0.4796  0.9984 -0.2362
  873MOL0     C17751   3.657   7.646   4.295  0.0727 -0.1625 -0.9726
  873MOL0     C17752   3.709   7.521   4.308 -0.7421  0.0219  0.0608
  873MOL0     C17753   3.844   7.499   4.287 -0.1818 -0.3432  0.6422
  873MOL0     C17754   3.927   7.601   4.258  0.1745 -0.1893 -0.5833
  873MOL0     O17755   4.060   7.583   4.231 -0.2973  0.1128 -0.3595
  873MOL0     C17756   4.142   7.692   4.184 -0.3112 -0.4113 -0.2668
  873MOL0     C17757   4.280   7.662   4.183 -0.6952 -0.4819  0.2663
  873MOL0     C17758   4.342   7.601   4.304  0.3343 -0.0284  0.0901
  873MOL0     C17759   4.488   7.574   4.266 -0.0504  0.0510  0.8454
  873MOL0     C17760   4.569   7.561   4.399  0.0386  0.0412  0.9560
  873MOL0     C17761   4.720   7.543   4.373  0.2586  0.2417  0.1129
  873MOL0     C17762   4.812   7.533   4.500 -0.0874 -0.6051 -1.0006
  873MOL0     C17763   4.957   7.555   4.461  0.4806 -0.3990  0.0986
  873MOL0    Cl17764   5.002   7.423   4.339  0.1705  0.1463 -0.2604
  873MOL0     C17765   3.873   7.733   4.246 -0.9280 -0.5640 -0.2640
  873MOL0     C17766   3.738   7.758   4.262  0.5365  0.0031 -0.7569
  873MOL0     O17767   3.551   7.719   4.532  0.7271 -0.0196  0.2022
  873MOL0     C17768   3.230   7.668   4.385  0.1283 -0.8915  0.2083
  873MOL0     C17769   3.097   7.665   4.417 -1.0888  0.2141  0.6057
  873MOL0     N17770   2.870   8.093   4.400  0.0547 -0.2943  0.4924
  873MOL0     N17771   2.868   8.217   4.444 -0.0562  0.3618  0.6466
  873MOL0     C17772   1.809   8.291   4.764  0.0563 -0.1915  0.3850
  873MOL0     C17773   1.699   8.347   4.693 -0.2974  0.9307  0.5871
  873MOL0     C17774   1.296   8.546   4.625 -0.2251 -0.8445  0.2168
  873MOL0     C17775   1.226   8.440   4.570  0.5759 -0.1253  0.6651
  873MOL0     C17776   1.100   8.454   4.505 -0.4825 -0.2534  0.2508
  873MOL0     C17777   1.055   8.582   4.488 -0.0542  0.1985 -0.4855
  873MOL0     O17778   0.931   8.619   4.429 -0.3948  0.0884 -0.4593
  873MOL0     C17779   0.845   8.513   4.380  0.1652 -0.2626 -0.1932
  873MOL0     C17780   0.711   8.573   4.329 -0.0296 -0.0536 -0.3019
  873MOL0     C17781   0.736   8.641   4.188  0.7459 -0.4250 -0.4881
  873MOL0     C17782   0.604   8.707   4.133 -0.3879  0.1686 -0.0590
  873MOL0     C17783   0.567   8.812   4.226 -0.9359  0.6477  0.1753
  873MOL0     C17784   0.546   8.896   4.309  0.3429  0.0134 -0.0720
  873MOL0     C17785   1.131   8.695   4.544  0.6522  0.0104 -0.3253
  873MOL0     C17786   1.250   8.683   4.617 -0.3863  0.0937 -0.2235
  873MOL0     C17787   1.330   8.795   4.671  1.2339 -0.2011 -0.3260
  873MOL0     H17788   1.462   8.264   4.934 -0.9931 -0.0112 -0.2764
  873MOL0     H17789   1.663   8.186   5.050  2.4143  1.9104  1.5953
  873MOL0     H17790   2.054   8.305   4.843 -1.1101 -1.4321 -0.6472
  873MOL0     H17791   2.030   8.347   5.013 -1.9869  0.7416 -0.1843
  873MOL0     H17792   2.150   8.074   4.910  2.0586 -2.0496  1.7419
  873MOL0     H17793   2.128   8.115   5.069  2.4587  2.6565  2.0306
  873MOL0     H17794   2.345   8.158   5.036  0.2363 -0.6412 -2.2002
  873MOL0     H17795   2.273   8.322   5.044  1.2737 -0.0024  0.7442
  873MOL0     H17796   2.315   8.167   4.800 -0.1310  0.3314  1.2897
  873MOL0     H17797   2.284   8.345   4.814 -1.3474 -1.1302 -0.3650
  873MOL0     H17798   2.500   8.402   4.906 -1.6245 -1.4799  1.6895
  873MOL0     H17799   2.541   8.230   4.916 -0.8957 -0.0420  2.2034
  873MOL0     H17800   2.543   8.207   4.674 -0.3170 -0.3161  0.4435
  873MOL0     H17801   2.459   8.361   4.651 -0.2124  2.4834  2.3501
  873MOL0     H17802   2.740   8.314   4.739 -2.4860 -0.7753  2.5946
  873MOL0     H17803   2.666   8.474   4.730 -3.1203 -0.5870  0.9003
  873MOL0     H17804   2.613   8.440   4.497 -0.4695  0.6564  0.6998
  873MOL0     H17805   2.787   8.455   4.520 -1.3148  0.1394 -0.8242
  873MOL0     H17806   2.546   8.138   4.468 -1.1448  4.3204  1.1386
  873MOL0     H17807   2.599   7.975   4.265 -0.6355  3.0900  1.8065
  873MOL0     H17808   2.739   7.880   4.259  1.7488  3.7202 -1.0170
  873MOL0     H17809   2.526   7.885   4.478 -0.0438 -1.4667  0.3087
  873MOL0     H17810   2.560   7.765   4.369 -0.6371  1.5046 -0.2629
  873MOL0     H17811   2.660   7.689   4.576 -1.1528  1.3102  2.1703
  873MOL0     H17812   2.726   7.840   4.616  0.1723 -2.1049  0.0665
  873MOL0     H17813   2.876   7.817   4.417 -0.5783 -0.5702 -0.0488
  873MOL0     H17814   2.822   7.652   4.396  1.3587 -1.2047  0.9751
  873MOL0     H17815   3.103   7.709   4.746 -2.2077  0.6263 -0.7261
  873MOL0     H17816   3.351   7.729   4.701  0.0862 -1.0236  0.4525
  873MOL0     H17817   3.650   7.433   4.331  2.2954 -1.8324  1.4474
  873MOL0     H17818   3.889   7.401   4.293  1.6166  0.4088 -0.0031
  873MOL0     H17819   4.106   7.727   4.087 -1.3375 -0.8369 -0.0526
  873MOL0     H17820   4.132   7.776   4.253  1.1042  0.2906 -0.8624
  873MOL0     H17821   4.282   7.599   4.094 -1.4152  2.0414 -1.6505
  873MOL0     H17822   4.332   7.755   4.157 -2.3278  0.4045  0.0264
  873MOL0     H17823   4.334   7.652   4.400 -3.5297  0.9873 -0.5691
  873MOL0     H17824   4.292   7.505   4.319  1.3199 -0.5737 -0.0418
  873MOL0     H17825   4.526   7.660   4.211 -0.5353  0.6317  1.3908
  873MOL0     H17826   4.480   7.474   4.221 -2.9410 -0.2533  1.7898
  873MOL0     H17827   4.524   7.475   4.451 -0.3936 -1.2243 -1.3739
  873MOL0     H17828   4.555   7.651   4.460 -0.7340  0.2735  0.4395
  873MOL0     H17829   4.743   7.450   4.320 -0.2505  0.4569 -0.4987
  873MOL0     H17830   4.746   7.635   4.320  2.0247  1.3204  2.6208
  873MOL0     H17831   4.800   7.437   4.550  0.0092  0.4572  1.1801
  873MOL0     H17832   4.784   7.611   4.572 -1.1416 -1.1913 -0.7441
  873MOL0     H17833   4.958   7.651   4.408 -0.8910 -0.8292 -0.7662
  873MOL0     H17834   5.017   7.564   4.552 -0.2593  0.7172  0.5063
  873MOL0     H17835   3.933   7.818   4.214 -0.9828 -1.1677 -2.0842
  873MOL0     H17836   3.693   7.856   4.254 -1.2247 -0.7216 -0.1053
  873MOL0     H17837   3.260   7.657   4.281 -0.8239 -2.3630  0.0563
  873MOL0     H17838   3.028   7.646   4.336  1.2037 -1.9827 -0.9880
  873MOL0     H17839   1.907   8.302   4.718  1.2486 -0.7688  2.6479
  873MOL0     H17840   1.704   8.400   4.599 -1.0864  1.4131  0.8085
  873MOL0     H17841   1.265   8.339   4.581 -1.7344 -0.9941  1.7109
  873MOL0     H17842   1.054   8.366   4.462 -0.0785 -0.8240  0.9594
  873MOL0     H17843   0.834   8.430   4.449  4.3964 -0.0735  1.0096
  873MOL0     H17844   0.888   8.477   4.285  2.2381 -1.3816  1.0977
  873MOL0     H17845   0.684   8.641   4.410  1.3126  1.3201 -0.9571
  873MOL0     H17846   0.640   8.491   4.314  0.5151 -0.3079 -1.6903
  873MOL0     H17847   0.751   8.561   4.116 -0.6617 -0.3954 -0.8529
  873MOL0     H17848   0.821   8.709   4.187  0.5000 -0.1013  0.1024
  873MOL0     H17849   0.614   8.750   4.032  3.2933 -0.6102 -0.1776
  873MOL0     H17850   0.524   8.634   4.146 -0.9015  0.6319 -0.5643
  873MOL0     H17851   0.518   8.980   4.370 -1.0165  1.4790 -2.5174
  873MOL0     H17852   1.087   8.793   4.535  0.5557  0.1968  1.8385
  873MOL0     H17853   1.280   8.891   4.661 -1.2246 -1.3031  0.6752
  873MOL0     H17854   1.351   8.786   4.778  0.2042 -1.1396 -0.1812
  873MOL0     H17855   1.429   8.791   4.625  0.4068 -1.2130 -2.1340
  874MOL0     O17856   5.429   9.031   5.375  0.8412  0.1594 -0.1672
  874MOL0     C17857   5.371   8.925   5.360  0.1417 -0.7119 -0.1638
  874MOL0     O17858   5.432   8.810   5.312 -0.5631  0.6430 -0.1276
  874MOL0     C17859   5.565   8.806   5.312 -0.2637  0.1700 -0.0599
  874MOL0     C17860   5.637   8.872   5.209 -0.2685  0.5507  0.6496
  874MOL0     C17861   5.774   8.867   5.207  0.2078  0.1030  0.2109
  874MOL0     C17862   5.846   8.799   5.303  0.0103  0.4775  0.3728
  874MOL0     O17863   5.983   8.794   5.288  0.8612 -0.2195  0.6800
  874MOL0     C17864   6.030   8.660   5.294  0.1895  0.8680  0.8033
  874MOL0     C17865   6.181   8.656   5.245  0.0666 -0.5548 -0.0821
  874MOL0     C17866   6.275   8.697   5.354 -0.3672  0.0532 -0.5797
  874MOL0     C17867   6.386   8.789   5.304  0.7188 -0.1419 -0.1217
  874MOL0     C17868   6.479   8.848   5.409  0.0585  0.8457  0.7136
  874MOL0     C17869   6.573   8.744   5.456 -0.8741  0.1577 -0.1967
  874MOL0     C17870   6.671   8.812   5.560  0.2208 -0.0834 -0.0961
  874MOL0     C17871   6.755   8.710   5.641 -0.2983  0.3561  0.0873
  874MOL0     N17872   6.831   8.780   5.742 -0.8935 -0.6671 -0.4844
  874MOL0     C17873   6.923   8.878   5.713  0.0279 -0.0556 -0.5593
  874MOL0     C17874   6.948   8.940   5.837  0.1676 -1.0859  0.3050
  874MOL0     C17875   7.046   9.061   5.863  0.2556 -0.4019 -0.6179
  874MOL0     C17876   7.198   9.026   5.886  0.3030  0.1409  0.6335
  874MOL0     C17877   7.248   8.922   5.787  0.5653 -0.3136 -0.0844
  874MOL0     C17878   7.386   8.886   5.815 -0.6457 -0.5889 -0.9513
  874MOL0     O17879   7.446   8.820   5.700  0.7975  0.1208 -0.1427
  874MOL0     C17880   7.584   8.828   5.707  0.1380 -0.7088 -0.7085
  874MOL0     C17881   7.648   8.812   5.583  0.4097 -0.4011  0.4548
  874MOL0     C17882   7.789   8.827   5.571  0.0120 -0.3291 -0.1594
  874MOL0     C17883   7.866   8.841   5.687  0.2401 -0.0311 -0.5126
  874MOL0     C17884   8.015   8.860   5.673  0.1845  0.3288 -1.0173
  874MOL0     O17885   8.069   8.833   5.559 -0.0857 -0.0312  0.5336
  874MOL0     C17886   8.203   8.857   5.533 -0.2008 -0.3182 -0.2692
  874MOL0     C17887   8.300   8.787   5.606 -1.2110  0.6776  0.1917
  874MOL0     C17888   8.435   8.814   5.601 -0.0638 -0.2414  0.1820
  874MOL0     C17889   8.479   8.915   5.515 -0.8079 -0.1368  0.0265
  874MOL0     O17890   8.611   8.936   5.505 -0.5631 -0.3631 -0.3232
  874MOL0     C17891   8.665   9.055   5.440  0.0119  0.1860 -0.2504
  874MOL0     C17892   8.809   9.078   5.465 -0.5128 -0.5451 -0.0145
  874MOL0     C17893   8.890   8.995   5.372 -0.7618 -0.4115  0.1781
  874MOL0     C17894   9.038   8.994   5.428 -0.7785 -0.3858 -0.0763
  874MOL0     C17895   9.093   9.140   5.442  0.9301  0.4987  0.4725
  874MOL0     C17896   9.230   9.149   5.502 -0.4112 -0.2662  0.3386
  874MOL0     C17897   9.272   9.290   5.534 -0.6027 -0.6483 -0.6733
  874MOL0     C17898   9.405   9.296   5.607 -1.3355  0.2804 -0.3379
  874MOL0    Cl17899   9.542   9.261   5.487  0.1606 -0.0683 -0.0683
  874MOL0     C17900   8.388   8.980   5.436 -0.0115  0.2411  0.4433
  874MOL0     C17901   8.249   8.956   5.444 -0.2938  0.0838 -0.1575
  874MOL0     O17902   8.078   8.893   5.780  0.5512 -0.0655  0.3431
  874MOL0     C17903   7.804   8.853   5.806 -0.1560 -0.2749 -0.2932
  874MOL0     C17904   7.664   8.853   5.817 -0.7997  0.8049 -0.2639
  874MOL0     N17905   6.867   8.888   5.931 -0.9397  0.4934  0.0817
  874MOL0     N17906   6.799   8.794   5.876  0.3326 -0.5468  0.2455
  874MOL0     C17907   5.779   8.752   5.415  0.1170  0.0519  0.0412
  874MOL0     C17908   5.641   8.748   5.415 -0.4421  0.1688  0.3588
  874MOL0     C17909   5.225   8.910   5.364 -0.4749  0.6209  0.0915
  874MOL0     C17910   5.152   8.821   5.282 -0.0150  0.2157  1.1241
  874MOL0     C17911   5.014   8.821   5.274  0.9651 -1.0539 -0.5704
  874MOL0     C17912   4.940   8.902   5.368 -0.1571  1.0488 -0.6821
  874MOL0     O17913   4.805   8.910   5.378 -0.3855 -0.1106  0.0526
  874MOL0     C17914   4.731   8.793   5.351 -0.3648  0.6254  1.0568
  874MOL0     C17915   4.617   8.783   5.446  0.6820 -0.3888 -1.0764
  874MOL0     C17916   4.504   8.890   5.422 -0.1013 -0.9153  0.2968
  874MOL0     C17917   4.381   8.846   5.485  0.4751  0.1805  0.8417
  874MOL0     C17918   4.267   8.946   5.470 -0.1213 -0.3834  0.5323
  874MOL0     C17919   4.168   9.010   5.447  0.0914 -0.3277  1.2202
  874MOL0     C17920   5.011   9.005   5.437 -0.0368  0.6563  0.0933
  874MOL0     C17921   5.151   8.996   5.443  0.5829 -0.5578 -0.4036
  874MOL0     C17922   5.209   9.099   5.541  0.3930  0.1876 -0.2491
  874MOL0     H17923   5.589   8.930   5.131  0.6582 -2.1224 -2.0631
  874MOL0     H17924   5.833   8.907   5.126  1.1287 -0.6497  0.4879
  874MOL0     H17925   6.042   8.616   5.394  0.5523  2.1555  1.3503
  874MOL0     H17926   5.970   8.593   5.232  2.9250 -2.1354  1.1296
  874MOL0     H17927   6.194   8.710   5.151  1.7116 -0.2115  0.3247
  874MOL0     H17928   6.206   8.551   5.226  1.1731 -0.2286 -0.4969
  874MOL0     H17929   6.319   8.603   5.387 -3.6590 -1.7433 -0.8141
  874MOL0     H17930   6.225   8.748   5.437 -0.1503 -1.0445  0.2377
  874MOL0     H17931   6.438   8.728   5.229  3.6367  0.3374  1.3505
  874MOL0     H17932   6.340   8.872   5.251 -0.3963 -0.5717  0.1494
  874MOL0     H17933   6.531   8.934   5.366 -0.3625  0.7284 -0.0448
  874MOL0     H17934   6.418   8.882   5.493 -4.4893  0.2328 -2.0067
  874MOL0     H17935   6.528   8.654   5.500  1.5194 -1.7332 -1.3815
  874MOL0     H17936   6.635   8.708   5.373 -0.6258 -2.1170  0.9151
  874MOL0     H17937   6.610   8.874   5.627 -0.6459 -2.0512  1.0290
  874MOL0     H17938   6.731   8.887   5.507  1.3427 -1.6661 -1.1685
  874MOL0     H17939   6.690   8.635   5.686  2.1133 -0.2967  2.8603
  874MOL0     H17940   6.834   8.660   5.584 -1.5781  0.1974 -1.6013
  874MOL0     H17941   6.955   8.906   5.613 -2.2557  2.2056 -0.7577
  874MOL0     H17942   7.037   9.139   5.787 -0.2497  1.4336  1.2086
  874MOL0     H17943   6.999   9.111   5.949 -1.7934 -0.1390 -1.8368
  874MOL0     H17944   7.264   9.113   5.881 -1.7425  1.6961 -1.8447
  874MOL0     H17945   7.209   8.988   5.988  0.7781 -2.0652 -0.1868
  874MOL0     H17946   7.250   8.962   5.685  3.0640  3.1150  1.1292
  874MOL0     H17947   7.197   8.827   5.802 -2.4177  0.7763 -2.1753
  874MOL0     H17948   7.378   8.814   5.897 -3.7092 -0.3358 -0.9144
  874MOL0     H17949   7.454   8.966   5.846 -1.1519 -0.2754 -0.6426
  874MOL0     H17950   7.587   8.797   5.495 -0.0099 -0.2344  0.7151
  874MOL0     H17951   7.834   8.826   5.473 -1.1831 -1.4262 -0.7250
  874MOL0     H17952   8.276   8.702   5.670  0.4599  0.0578  0.0482
  874MOL0     H17953   8.499   8.750   5.661  0.4973  1.4550  1.4855
  874MOL0     H17954   8.654   9.057   5.331  0.7447  1.0788 -0.3271
  874MOL0     H17955   8.612   9.145   5.472 -1.8633 -2.0381  3.5618
  874MOL0     H17956   8.833   9.185   5.455 -0.1546 -0.7495 -1.6897
  874MOL0     H17957   8.839   9.051   5.567  0.0630  1.7338  0.4706
  874MOL0     H17958   8.848   8.894   5.373  0.2784 -0.8562  0.2987
  874MOL0     H17959   8.890   9.048   5.276  0.2602 -0.2410  0.2517
  874MOL0     H17960   9.109   8.935   5.369  2.2976  1.5885  1.4050
  874MOL0     H17961   9.031   8.956   5.530  0.1638 -0.8837 -0.1878
  874MOL0     H17962   9.038   9.199   5.516  1.8486  3.2597 -0.8966
  874MOL0     H17963   9.092   9.181   5.341 -1.6683  0.5656  0.4708
  874MOL0     H17964   9.230   9.087   5.592  0.3938 -0.4737  0.2065
  874MOL0     H17965   9.290   9.104   5.422  0.7717  2.9842 -0.7580
  874MOL0     H17966   9.191   9.341   5.588 -0.1040  0.7003 -1.1547
  874MOL0     H17967   9.276   9.353   5.445  1.3781  0.5052  0.1560
  874MOL0     H17968   9.427   9.398   5.640  2.9068  0.0517 -1.8462
  874MOL0     H17969   9.408   9.223   5.690 -2.3545  0.2392 -0.3258
  874MOL0     H17970   8.424   9.044   5.357  3.4020 -1.6779  0.2778
  874MOL0     H17971   8.173   9.002   5.382 -0.1739 -0.4416 -0.7163
  874MOL0     H17972   7.850   8.882   5.900 -1.5502  4.1685 -0.7646
  874MOL0     H17973   7.623   8.859   5.918 -1.1944  0.8982 -0.4275
  874MOL0     H17974   5.830   8.715   5.503  2.5106  1.7227 -0.5705
  874MOL0     H17975   5.596   8.691   5.496 -0.9184 -0.7653 -0.5322
  874MOL0     H17976   5.209   8.755   5.217 -0.0787 -0.6175  1.8950
  874MOL0     H17977   4.968   8.744   5.212 -0.7303 -1.0550  0.6439
  874MOL0     H17978   4.799   8.708   5.366 -0.5572  0.6607  2.1699
  874MOL0     H17979   4.694   8.785   5.248  0.6781 -0.6586  0.7462
  874MOL0     H17980   4.659   8.796   5.547 -0.8160 -1.0710 -0.3230
  874MOL0     H17981   4.571   8.684   5.440 -0.3427 -0.0518  0.6511
  874MOL0     H17982   4.506   8.897   5.313  0.8021 -0.6613  0.3219
  874MOL0     H17983   4.523   8.990   5.463  1.9264 -0.7551 -0.8648
  874MOL0     H17984   4.353   8.756   5.429 -0.9934  0.5898  0.8720
  874MOL0     H17985   4.393   8.825   5.591 -0.0104 -2.5007  0.4260
  874MOL0     H17986   4.073   9.054   5.421  0.5611 -0.6707 -1.4297
  874MOL0     H17987   4.955   9.079   5.493  2.1233  1.3030  1.5400
  874MOL0     H17988   5.219   9.195   5.490 -0.5563  1.7072  2.2094
  874MOL0     H17989   5.147   9.110   5.631 -0.6566 -0.7134 -0.8241
  874MOL0     H17990   5.308   9.066   5.574  0.2605 -2.2799 -2.0503
  875MOL0     O17991   9.246   3.833   5.279  0.2600 -0.0529  0.0591
  875MOL0     C17992   9.241   3.954   5.288 -0.1765 -0.2859 -0.2341
  875MOL0     O17993   9.307   4.042   5.206  0.4886  0.0615  0.2027
  875MOL0     C17994   9.370   4.004   5.092  0.4868 -0.7973 -0.0326
  875MOL0     C17995   9.492   4.064   5.062 -0.2412  0.3810 -0.1574
  875MOL0     C17996   9.556   4.034   4.937  0.5712 -0.4248  0.3647
  875MOL0     C17997   9.497   3.955   4.837  0.2069  0.2310 -0.5768
  875MOL0     O17998   9.560   3.954   4.709 -0.3568  0.5523  0.0819
  875MOL0     C17999   9.497   3.874   4.606  0.0802  0.4877 -0.1689
  875MOL0     C18000   9.585   3.843   4.485  0.5513  0.5557 -0.8493
  875MOL0     C18001   9.516   3.760   4.372 -0.3164  0.2858  0.1328
  875MOL0     C18002   9.598   3.734   4.243 -0.9009 -0.4204 -0.1571
  875MOL0     C18003   9.710   3.623   4.270 -0.5684  0.6233  0.2280
  875MOL0     C18004   9.765   3.569   4.139 -0.6677  0.2485 -0.5096
  875MOL0     C18005   9.813   3.433   4.190  0.1196  0.3155  0.2358
  875MOL0     C18006   9.898   3.360   4.086  0.7031  0.1439 -0.3345
  875MOL0     N18007  10.049   3.397   4.087 -1.5350 -0.1616  0.0920
  875MOL0     C18008  10.114   3.449   3.977  0.1391 -0.6958 -0.5137
  875MOL0     C18009  10.249   3.443   4.003  0.2794 -0.1858  0.2362
  875MOL0     C18010  10.361   3.492   3.914  0.3512 -0.2069  0.6109
  875MOL0     C18011  10.455   3.588   3.982  0.9435  0.4262 -0.0303
  875MOL0     C18012  10.591   3.608   3.906  1.1509 -0.3326 -0.3372
  875MOL0     C18013  10.680   3.713   3.974 -0.4521 -0.6170  0.9024
  875MOL0     O18014  10.801   3.705   3.900  0.7837  0.1185  0.1178
  875MOL0     C18015  10.901   3.789   3.929 -0.2174  0.1096  0.1333
  875MOL0     C18016  11.021   3.768   3.856  0.3547  0.2500  0.3694
  875MOL0     C18017  11.130   3.859   3.878 -0.2184  1.5514 -0.0601
  875MOL0     C18018  11.122   3.967   3.966  0.1473 -0.1135 -0.0158
  875MOL0     C18019  11.247   4.042   3.993 -0.4562 -0.3242 -0.2797
  875MOL0     O18020  11.366   3.968   3.994 -0.3228 -0.1233  0.5331
  875MOL0     C18021  11.484   4.034   4.002  0.4517 -0.5080 -0.3303
  875MOL0     C18022  11.528   4.129   4.099  0.0599  0.1513 -0.0048
  875MOL0     C18023  11.657   4.176   4.105 -0.3244  0.0290  0.2134
  875MOL0     C18024  11.750   4.139   4.007  0.4931  0.1694 -0.1203
  875MOL0     O18025  11.879   4.190   3.998  0.2627 -0.1391  0.2557
  875MOL0     C18026  11.981   4.112   3.940  0.1075 -0.4725 -0.0214
  875MOL0     C18027  12.002   4.152   3.793  0.3462  0.1153  0.7928
  875MOL0     C18028  12.141   4.105   3.738 -0.2078 -0.7665 -0.3891
  875MOL0     C18029  12.160   4.148   3.591  0.0048 -0.6382  0.2944
  875MOL0     C18030  12.104   4.030   3.499  0.6895 -0.4216 -0.4810
  875MOL0     C18031  12.092   4.065   3.345  0.3456  0.2167  0.7938
  875MOL0     C18032  11.972   4.150   3.321  0.5852 -0.7360  0.1414
  875MOL0     C18033  11.970   4.214   3.182  0.1584 -0.2374 -0.3052
  875MOL0    Cl18034  11.825   4.324   3.170 -0.0388  0.0080  0.5189
  875MOL0     C18035  11.711   4.047   3.911  0.0722 -1.1241 -0.3966
  875MOL0     C18036  11.589   3.991   3.917  0.3400  0.7247  0.6516
  875MOL0     O18037  11.236   4.167   4.012 -0.2720 -0.4413  0.3016
  875MOL0     C18038  11.008   3.981   4.042  0.1283 -0.2172  0.0389
  875MOL0     C18039  10.903   3.890   4.027  0.1041  0.7275  0.5616
  875MOL0     N18040  10.255   3.408   4.136 -0.8214 -0.4185  0.0960
  875MOL0     N18041  10.142   3.379   4.189  0.0181  0.0591  0.3086
  875MOL0     C18042   9.382   3.884   4.877  0.7274  0.4174 -0.1772
  875MOL0     C18043   9.328   3.904   5.003 -0.3079  0.4865 -0.0178
  875MOL0     C18044   9.160   4.010   5.403 -0.3343 -0.5229  0.9200
  875MOL0     C18045   9.082   3.921   5.480 -0.0077  0.7257  0.5563
  875MOL0     C18046   9.005   3.965   5.588  0.1793 -0.0660 -0.6248
  875MOL0     C18047   9.002   4.102   5.614 -0.0947 -0.4121 -0.1412
  875MOL0     O18048   8.911   4.169   5.702  0.3236 -0.0846 -0.0851
  875MOL0     C18049   8.806   4.092   5.765  0.9326  0.3336 -0.0311
  875MOL0     C18050   8.689   4.167   5.821 -0.3727 -0.0132 -0.0973
  875MOL0     C18051   8.582   4.193   5.709 -0.5158  0.4503 -1.1013
  875MOL0     C18052   8.498   4.316   5.740 -0.7024 -0.5568  0.1922
  875MOL0     C18053   8.418   4.300   5.862 -0.3809  0.1012 -0.7940
  875MOL0     C18054   8.379   4.307   5.980  0.7302 -0.2767  0.5793
  875MOL0     C18055   9.062   4.196   5.533  0.8608 -0.2405 -0.3221
  875MOL0     C18056   9.153   4.151   5.435  0.3587 -0.0717 -0.7289
  875MOL0     C18057   9.223   4.258   5.362  0.6961 -0.0994  0.1692
  875MOL0     H18058   9.537   4.137   5.128  0.4895  0.0671 -0.3017
  875MOL0     H18059   9.646   4.087   4.907 -0.5389 -0.6379 -3.9834
  875MOL0     H18060   9.472   3.779   4.654  1.5626  0.7185  1.1574
  875MOL0     H18061   9.412   3.925   4.561  0.3885 -1.4631 -3.2414
  875MOL0     H18062   9.676   3.789   4.512  0.1174 -0.8302 -1.9969
  875MOL0     H18063   9.608   3.942   4.444 -2.5080  1.3951 -0.7856
  875MOL0     H18064   9.426   3.818   4.349 -2.7807 -2.8526  1.1931
  875MOL0     H18065   9.494   3.658   4.405  1.9734 -0.9905 -1.9379
  875MOL0     H18066   9.541   3.686   4.163  0.7420 -1.0520 -0.9928
  875MOL0     H18067   9.635   3.828   4.198  2.1810 -1.7816 -0.7368
  875MOL0     H18068   9.795   3.660   4.327  2.6529 -1.8379 -2.5868
  875MOL0     H18069   9.654   3.553   4.332 -1.3457  0.8071 -0.2521
  875MOL0     H18070   9.694   3.553   4.057 -3.4504  0.1745  1.7708
  875MOL0     H18071   9.851   3.628   4.105 -0.1952  1.0485  1.9298
  875MOL0     H18072   9.728   3.375   4.228  0.9056  0.4684  2.3836
  875MOL0     H18073   9.875   3.435   4.281  3.2320 -0.3356 -1.7085
  875MOL0     H18074   9.886   3.256   4.117 -0.6728  0.2292 -0.5256
  875MOL0     H18075   9.849   3.359   3.989 -2.2519  0.4438  1.0649
  875MOL0     H18076  10.079   3.497   3.887 -2.7673 -1.0459  0.3388
  875MOL0     H18077  10.424   3.410   3.876  0.3575  0.3776 -0.7202
  875MOL0     H18078  10.316   3.547   3.830 -1.3616  0.8095  2.1238
  875MOL0     H18079  10.411   3.687   3.999 -0.6199 -0.3215  0.4068
  875MOL0     H18080  10.475   3.551   4.083 -0.8048 -0.9685 -0.1632
  875MOL0     H18081  10.554   3.656   3.815  0.3237  0.6027  0.4761
  875MOL0     H18082  10.640   3.511   3.893  1.7070 -0.5658  2.7359
  875MOL0     H18083  10.712   3.676   4.072  1.4387 -2.2701 -0.2631
  875MOL0     H18084  10.628   3.809   3.973 -1.7518 -1.2957  0.4656
  875MOL0     H18085  11.025   3.682   3.790 -2.9176 -0.8163  1.3627
  875MOL0     H18086  11.211   3.832   3.811 -1.4685 -3.0794 -0.0583
  875MOL0     H18087  11.457   4.149   4.179 -1.4509 -2.7551 -0.5006
  875MOL0     H18088  11.689   4.235   4.190  2.0861 -1.1896  0.2210
  875MOL0     H18089  12.073   4.142   3.990 -0.2448 -2.2145  1.8373
  875MOL0     H18090  11.967   4.007   3.969  0.5461 -0.2735  0.9501
  875MOL0     H18091  11.924   4.105   3.732 -1.2787  2.5899  0.8478
  875MOL0     H18092  11.995   4.260   3.781  1.4032 -0.0192 -1.5743
  875MOL0     H18093  12.209   4.168   3.795 -1.9095  0.4613  0.3651
  875MOL0     H18094  12.160   3.998   3.752  2.2796 -0.4589 -0.9133
  875MOL0     H18095  12.267   4.154   3.566  0.0788 -2.0754  0.1634
  875MOL0     H18096  12.110   4.241   3.563 -2.4237 -1.6792  0.9181
  875MOL0     H18097  12.001   4.014   3.530  0.6502  2.2239  1.0439
  875MOL0     H18098  12.171   3.944   3.508 -0.7544 -1.8021 -2.1047
  875MOL0     H18099  12.188   4.118   3.339  1.2197 -1.0706  2.5460
  875MOL0     H18100  12.072   3.973   3.290 -2.3415 -0.2949  2.4581
  875MOL0     H18101  11.969   4.227   3.399 -0.3528 -0.6151 -0.0041
  875MOL0     H18102  11.880   4.092   3.330  0.3661 -0.3614  0.3254
  875MOL0     H18103  12.052   4.283   3.161 -2.3238  3.0432 -0.0770
  875MOL0     H18104  11.962   4.137   3.105 -1.7736  1.2340 -1.6649
  875MOL0     H18105  11.786   4.016   3.839  2.1602  0.2844  1.0588
  875MOL0     H18106  11.561   3.917   3.843 -0.4038  1.1677  0.4820
  875MOL0     H18107  10.997   4.056   4.120  0.1009  0.6765 -0.8080
  875MOL0     H18108  10.817   3.903   4.091 -0.9777 -2.4908 -0.0432
  875MOL0     H18109   9.328   3.832   4.799 -0.7040  0.7742  0.5458
  875MOL0     H18110   9.239   3.848   5.028  0.4437 -0.0327  1.5944
  875MOL0     H18111   9.074   3.815   5.458  0.8619  1.1880 -2.4047
  875MOL0     H18112   8.952   3.890   5.646 -1.8239  1.9221  0.2837
  875MOL0     H18113   8.855   4.041   5.848 -1.9620  0.7244  2.0615
  875MOL0     H18114   8.769   4.028   5.685  0.4972 -0.0406  0.4677
  875MOL0     H18115   8.733   4.257   5.864 -1.9014  0.0345  1.4687
  875MOL0     H18116   8.641   4.107   5.899 -0.0231  1.8070  1.5919
  875MOL0     H18117   8.513   4.108   5.717  0.4393 -0.1665  1.7469
  875MOL0     H18118   8.628   4.196   5.610  0.7166  1.5694 -0.5358
  875MOL0     H18119   8.564   4.403   5.744 -0.8704 -0.4569  1.1377
  875MOL0     H18120   8.432   4.328   5.653 -0.6414 -0.4379  0.1625
  875MOL0     H18121   8.323   4.303   6.071  0.5709 -4.0563  0.4865
  875MOL0     H18122   9.047   4.302   5.550 -0.4400 -0.3837 -0.4430
  875MOL0     H18123   9.170   4.283   5.269 -1.8235 -0.8306  1.3458
  875MOL0     H18124   9.238   4.350   5.418  4.4874 -0.9061  0.7351
  875MOL0     H18125   9.326   4.232   5.335  0.9198  0.0571  0.8607
  876MOL0     O18126  10.379  10.137   2.191 -0.0884 -0.4296 -0.0551
  876MOL0     C18127  10.358  10.095   2.307  0.4115 -1.0712  1.2766
  876MOL0     O18128  10.452  10.081   2.404  0.1695  0.3803 -0.0066
  876MOL0     C18129  10.573  10.135   2.393  0.7174 -0.2544 -0.4009
  876MOL0     C18130  10.589  10.271   2.435 -0.6941  0.3896  0.1955
  876MOL0     C18131  10.718  10.319   2.434 -0.5260 -0.1459 -0.7275
  876MOL0     C18132  10.835  10.249   2.390 -0.2152  1.2149  0.0390
  876MOL0     O18133  10.958  10.298   2.378 -0.4003  0.5295  0.4363
  876MOL0     C18134  10.956  10.412   2.295 -0.3712 -0.0298  0.1659
  876MOL0     C18135  11.093  10.474   2.269  0.2591 -0.6424 -0.5671
  876MOL0     C18136  11.192  10.487   2.385  0.5115  0.0991  0.7042
  876MOL0     C18137  11.328  10.549   2.340  0.4587 -0.2276  0.1872
  876MOL0     C18138  11.433  10.561   2.452 -0.3046 -1.0748  0.2444
  876MOL0     C18139  11.487  10.426   2.501 -0.7810  0.7051  0.3686
  876MOL0     C18140  11.628  10.443   2.542 -0.4086 -0.6799 -0.2336
  876MOL0     C18141  11.640  10.529   2.665  0.0945 -0.3207 -0.7015
  876MOL0     N18142  11.783  10.548   2.705  0.1593  0.4850  0.0654
  876MOL0     C18143  11.886  10.571   2.620  0.3482 -0.9973  0.1627
  876MOL0     C18144  11.992  10.588   2.697 -0.2899 -0.7067  0.0136
  876MOL0     C18145  12.123  10.616   2.636  0.0438 -1.1061 -0.4989
  876MOL0     C18146  12.164  10.756   2.637 -0.5710 -0.0176 -0.2100
  876MOL0     C18147  12.189  10.823   2.781 -0.5603 -0.2155  0.5837
  876MOL0     C18148  12.280  10.744   2.881 -0.0024  0.2159  0.2574
  876MOL0     O18149  12.412  10.738   2.817 -0.1732  0.9816  0.3997
  876MOL0     C18150  12.513  10.662   2.875  0.6781  0.5900  0.2739
  876MOL0     C18151  12.515  10.598   3.007  0.2150 -0.3472  0.1392
  876MOL0     C18152  12.627  10.524   3.043  0.1394 -0.1931 -0.3952
  876MOL0     C18153  12.733  10.511   2.960 -0.7879 -0.5102 -0.1891
  876MOL0     C18154  12.845  10.425   3.007  0.0176  0.1635  0.3927
  876MOL0     O18155  12.954  10.425   2.925  0.2831  0.6890  0.4819
  876MOL0     C18156  13.055  10.342   2.956 -1.3742  1.0953  0.2874
  876MOL0     C18157  13.131  10.289   2.851  0.2527 -0.3314 -0.2082
  876MOL0     C18158  13.235  10.206   2.873  0.0854  0.3076 -0.7057
  876MOL0     C18159  13.290  10.191   3.004  0.3084  0.0441  0.0271
  876MOL0     O18160  13.392  10.104   3.013  0.5176  0.3200  0.5067
  876MOL0     C18161  13.385  10.008   3.114  0.0829  1.0440 -0.1447
  876MOL0     C18162  13.457   9.884   3.057 -0.0209  0.6378 -0.2758
  876MOL0     C18163  13.425   9.759   3.138 -0.1366 -0.7969  0.0916
  876MOL0     C18164  13.302   9.686   3.084  0.3920  0.8755  0.7514
  876MOL0     C18165  13.318   9.532   3.063  0.3010 -0.3180  0.6584
  876MOL0     C18166  13.190   9.476   3.010 -0.1993  0.0919  0.1051
  876MOL0     C18167  13.191   9.319   3.018  0.4843  0.6267  0.6535
  876MOL0     C18168  13.046   9.259   3.004 -0.1119 -0.9753 -0.3085
  876MOL0    Cl18169  13.043   9.084   3.026 -0.7148  0.4348 -0.0468
  876MOL0     C18170  13.231  10.259   3.104  0.5566  0.1144  0.3212
  876MOL0     C18171  13.118  10.336   3.084  0.0774  0.3252 -0.3553
  876MOL0     O18172  12.821  10.340   3.096  0.5645  0.7256  0.2399
  876MOL0     C18173  12.743  10.584   2.840 -0.4331  0.1670  0.2248
  876MOL0     C18174  12.631  10.656   2.797  0.4551 -0.5715 -0.5163
  876MOL0     N18175  11.957  10.557   2.832  0.1246 -0.4822  0.5477
  876MOL0     N18176  11.834  10.546   2.830  0.5973  0.7074 -0.1208
  876MOL0     C18177  10.810  10.113   2.364  0.9782 -0.1700  0.5269
  876MOL0     C18178  10.681  10.054   2.375 -0.0671  0.1565  0.6781
  876MOL0     C18179  10.233  10.045   2.346  0.3873  0.3386  0.0342
  876MOL0     C18180  10.146  10.004   2.244  0.3094  0.5054  0.7096
  876MOL0     C18181  10.020   9.949   2.275  0.0410  0.7342 -0.1436
  876MOL0     C18182   9.988   9.933   2.407 -0.4182 -0.7198 -1.0522
  876MOL0     O18183   9.872   9.858   2.443  0.4401 -0.6053  0.1861
  876MOL0     C18184   9.806   9.883   2.567  0.0452  0.3687 -0.2664
  876MOL0     C18185   9.670   9.814   2.572 -0.0039 -0.6430  0.1448
  876MOL0     C18186   9.573   9.874   2.476  1.5422 -0.8078 -0.4926
  876MOL0     C18187   9.553  10.024   2.483 -0.4280 -0.2924 -0.0980
  876MOL0     C18188   9.488  10.084   2.367  0.6621  0.2869 -0.3166
  876MOL0     C18189   9.422  10.143   2.284  0.3016  0.8186  0.1707
  876MOL0     C18190  10.065   9.984   2.504 -0.2025 -0.5043  0.1697
  876MOL0     C18191  10.181  10.046   2.477 -0.4429 -0.7815 -0.7261
  876MOL0     C18192  10.255  10.107   2.596  0.3481  0.5351  0.0682
  876MOL0     H18193  10.512  10.345   2.454  0.6149  1.7681  0.2832
  876MOL0     H18194  10.734  10.422   2.462 -0.1307  0.4202 -2.8093
  876MOL0     H18195  10.904  10.403   2.200 -2.0156 -0.5586  1.0775
  876MOL0     H18196  10.899  10.493   2.343 -1.0613 -1.8996  2.6827
  876MOL0     H18197  11.076  10.574   2.229  1.8656  0.0934  0.4746
  876MOL0     H18198  11.141  10.425   2.184  1.2661  2.0592 -1.6756
  876MOL0     H18199  11.203  10.383   2.418 -0.4813 -0.9463 -1.9801
  876MOL0     H18200  11.132  10.534   2.464  0.0070 -0.6371  0.7709
  876MOL0     H18201  11.374  10.487   2.263 -1.4018 -0.7644 -0.5404
  876MOL0     H18202  11.305  10.651   2.306 -0.7655 -1.2884 -2.3781
  876MOL0     H18203  11.508  10.626   2.406  3.4325 -3.8754  1.8365
  876MOL0     H18204  11.389  10.611   2.539  2.6379  0.0214  1.2173
  876MOL0     H18205  11.423  10.393   2.584  0.6831  1.0291  1.6576
  876MOL0     H18206  11.480  10.350   2.422 -1.7250  0.0578  1.0485
  876MOL0     H18207  11.679  10.493   2.459 -2.5935  0.0843 -1.1968
  876MOL0     H18208  11.681  10.349   2.560  1.8374  0.5359 -0.2127
  876MOL0     H18209  11.593  10.626   2.649 -1.1547 -0.9366 -0.8877
  876MOL0     H18210  11.595  10.482   2.753  2.2750  0.0317  0.6823
  876MOL0     H18211  11.896  10.589   2.513 -0.3560 -1.7189 -0.0386
  876MOL0     H18212  12.191  10.552   2.694 -0.3335 -0.2367  0.9629
  876MOL0     H18213  12.140  10.585   2.532  0.4328  1.5041 -1.2774
  876MOL0     H18214  12.256  10.759   2.578  1.7057 -0.3294  3.0660
  876MOL0     H18215  12.089  10.823   2.593  1.2926  4.0803  2.3362
  876MOL0     H18216  12.100  10.841   2.841  2.1174  5.7739  3.6189
  876MOL0     H18217  12.230  10.923   2.765  0.5336 -0.8030 -0.4750
  876MOL0     H18218  12.234  10.645   2.888 -2.1963  0.9046 -2.6022
  876MOL0     H18219  12.283  10.794   2.978 -0.4424  3.9116 -1.4461
  876MOL0     H18220  12.437  10.602   3.082  0.5614  0.5350  0.4602
  876MOL0     H18221  12.623  10.455   3.126  0.9820  0.8566  0.5574
  876MOL0     H18222  13.099  10.299   2.748  3.7264  0.7211 -1.3250
  876MOL0     H18223  13.285  10.157   2.791 -3.2852 -4.5711 -0.2907
  876MOL0     H18224  13.431  10.036   3.209  1.5229 -3.1328  0.5943
  876MOL0     H18225  13.282   9.988   3.144  0.1978 -1.3732 -1.1877
  876MOL0     H18226  13.418   9.876   2.955  2.5124 -0.7564 -1.2216
  876MOL0     H18227  13.566   9.891   3.054  0.3384 -2.7029  0.7655
  876MOL0     H18228  13.513   9.695   3.128  2.3717  2.6823 -1.8372
  876MOL0     H18229  13.407   9.787   3.242  2.1042  1.8004 -0.1069
  876MOL0     H18230  13.290   9.726   2.983 -1.1318  1.8179  1.2684
  876MOL0     H18231  13.214   9.706   3.146  0.1499  2.1436  0.0349
  876MOL0     H18232  13.362   9.478   3.147  0.7912 -2.2549 -0.7538
  876MOL0     H18233  13.388   9.522   2.980 -2.3985 -1.0598 -1.6970
  876MOL0     H18234  13.103   9.516   3.064 -0.4610  0.0936 -0.3165
  876MOL0     H18235  13.185   9.493   2.902 -0.9565 -2.1689 -0.2593
  876MOL0     H18236  13.242   9.289   3.110  0.4192 -1.0488  0.1757
  876MOL0     H18237  13.253   9.283   2.935  1.5230 -2.1953  2.5100
  876MOL0     H18238  12.980   9.293   3.084 -0.2394 -1.1512 -0.3385
  876MOL0     H18239  13.006   9.276   2.903  0.2253  0.3437 -0.2419
  876MOL0     H18240  13.270  10.242   3.204 -1.3753 -0.0451  1.0934
  876MOL0     H18241  13.069  10.395   3.162 -1.0658 -0.2327 -0.6275
  876MOL0     H18242  12.828  10.577   2.773 -0.8202  0.4387 -0.3041
  876MOL0     H18243  12.643  10.702   2.699  0.7893 -0.6496 -0.5136
  876MOL0     H18244  10.900  10.064   2.329 -0.0708 -1.5102 -0.3896
  876MOL0     H18245  10.679   9.945   2.383  1.5822 -0.1117 -1.6330
  876MOL0     H18246  10.178  10.021   2.142  0.4598  0.4460  0.7478
  876MOL0     H18247   9.956   9.922   2.192 -2.5636 -1.0172  2.2359
  876MOL0     H18248   9.803   9.992   2.576 -3.7502  0.4605 -0.9762
  876MOL0     H18249   9.865   9.838   2.648 -0.8056  0.2623  0.2991
  876MOL0     H18250   9.626   9.824   2.671 -0.9989  0.1494 -0.3630
  876MOL0     H18251   9.670   9.707   2.550  1.1940 -0.2388 -2.1331
  876MOL0     H18252   9.472   9.839   2.500  0.5748 -0.2752 -3.3322
  876MOL0     H18253   9.600   9.856   2.372  0.9406 -1.6532 -0.5147
  876MOL0     H18254   9.494  10.043   2.573  1.4955 -0.7131  1.3148
  876MOL0     H18255   9.641  10.087   2.500  0.0188 -1.4136  2.1361
  876MOL0     H18256   9.357  10.185   2.210 -0.1947  0.3290  0.3242
  876MOL0     H18257  10.039   9.982   2.610  1.0415  1.3061  0.5542
  876MOL0     H18258  10.348  10.050   2.609  0.2524  0.4737  0.4881
  876MOL0     H18259  10.289  10.210   2.582  1.4197  0.0273 -1.4422
  876MOL0     H18260  10.208  10.090   2.693  3.8725 -1.6533  1.5872
  877MOL0     O18261   4.422   9.198   6.815 -0.0445 -0.2579 -0.1435
  877MOL0     C18262   4.474   9.252   6.718  0.1771 -0.6764  0.4748
  877MOL0     O18263   4.413   9.333   6.629  0.2050  0.7021  0.3660
  877MOL0     C18264   4.283   9.372   6.641  0.1640  0.4051  0.0625
  877MOL0     C18265   4.237   9.505   6.623 -1.2465 -0.1059  0.5538
  877MOL0     C18266   4.106   9.531   6.618  0.4191  0.7291 -0.0897
  877MOL0     C18267   4.015   9.433   6.643  0.0853 -0.2320  0.1877
  877MOL0     O18268   3.882   9.470   6.643 -0.1808 -0.3397 -0.1392
  877MOL0     C18269   3.828   9.541   6.526  0.5740 -0.0870 -0.2212
  877MOL0     C18270   3.682   9.560   6.535  0.1172  0.0461  0.9710
  877MOL0     C18271   3.618   9.435   6.471 -0.6610 -1.2379 -0.5262
  877MOL0     C18272   3.460   9.447   6.495 -0.4640  0.2803 -0.0588
  877MOL0     C18273   3.385   9.559   6.416  0.0549  0.4629  0.4662
  877MOL0     C18274   3.231   9.542   6.445  0.0948  0.2978 -0.4640
  877MOL0     C18275   3.156   9.441   6.368  0.2261  0.6767  0.4521
  877MOL0     C18276   3.112   9.490   6.219  0.3154 -0.3686 -0.4950
  877MOL0     N18277   3.223   9.514   6.131 -0.4119  0.0730 -0.2296
  877MOL0     C18278   3.316   9.416   6.104  0.1715  0.4642  0.3340
  877MOL0     C18279   3.407   9.486   6.026  0.9703  0.0060 -0.4783
  877MOL0     C18280   3.522   9.422   5.960 -0.2282  0.5215  0.2538
  877MOL0     C18281   3.612   9.365   6.066  0.6685  0.0443  0.2221
  877MOL0     C18282   3.724   9.294   6.010 -1.2353  0.0083 -0.5729
  877MOL0     C18283   3.819   9.227   6.106 -0.3913  0.3118 -0.4334
  877MOL0     O18284   3.899   9.324   6.177 -0.6355 -0.2877 -0.4420
  877MOL0     C18285   4.034   9.313   6.161  0.9430 -0.0245  0.0771
  877MOL0     C18286   4.109   9.309   6.275  0.6464 -0.1032  0.0687
  877MOL0     C18287   4.252   9.314   6.264  0.4000 -0.1969  0.2552
  877MOL0     C18288   4.318   9.309   6.145 -0.2514 -0.2856  0.0416
  877MOL0     C18289   4.458   9.305   6.125 -0.7096 -0.5789  0.2688
  877MOL0     O18290   4.536   9.266   6.234 -0.4076  0.3083  0.4065
  877MOL0     C18291   4.662   9.235   6.206 -0.0259  0.3914  0.2063
  877MOL0     C18292   4.704   9.100   6.201  0.4147  0.2697 -0.1977
  877MOL0     C18293   4.846   9.062   6.192 -0.1747  0.1028  0.1020
  877MOL0     C18294   4.940   9.167   6.168 -0.2561  0.1953 -0.2595
  877MOL0     O18295   5.073   9.155   6.132  0.1071  0.1838 -0.3451
  877MOL0     C18296   5.114   9.022   6.106  0.0252 -0.5378 -0.3676
  877MOL0     C18297   5.246   9.019   6.027 -0.3448  0.3491  0.4768
  877MOL0     C18298   5.367   9.065   6.120  0.1632 -0.5611  0.0299
  877MOL0     C18299   5.484   9.076   6.026 -0.2981  0.3261 -1.1233
  877MOL0     C18300   5.609   9.095   6.101 -0.8085 -0.1830 -0.4169
  877MOL0     C18301   5.731   9.030   6.028  0.5675 -0.3605 -0.4103
  877MOL0     C18302   5.870   9.073   6.066  0.1973 -0.3904 -0.2199
  877MOL0     C18303   5.973   9.019   5.978  0.1614  0.0991  0.2292
  877MOL0    Cl18304   6.134   9.086   6.038  0.1072  0.6143 -0.4414
  877MOL0     C18305   4.892   9.303   6.169 -0.1770  0.6730 -0.5843
  877MOL0     C18306   4.759   9.339   6.194 -0.0661  0.3897 -0.6759
  877MOL0     O18307   4.502   9.323   6.011 -0.6008  0.1256  0.3478
  877MOL0     C18308   4.232   9.332   6.026  0.1054  0.3694  0.2658
  877MOL0     C18309   4.092   9.339   6.036  0.1342  0.3526  0.1849
  877MOL0     N18310   3.362   9.614   6.004 -0.2138  0.0548 -0.0399
  877MOL0     N18311   3.257   9.632   6.078  1.0359  0.8319 -0.2429
  877MOL0     C18312   4.054   9.297   6.668  0.2356 -0.6329  0.7550
  877MOL0     C18313   4.185   9.266   6.660  0.1140  0.0801 -0.5887
  877MOL0     C18314   4.620   9.234   6.703  0.0476 -0.8413 -0.0549
  877MOL0     C18315   4.671   9.235   6.573  0.0305 -0.1461 -0.0236
  877MOL0     C18316   4.808   9.220   6.546  0.4515  0.5387  0.6943
  877MOL0     C18317   4.900   9.211   6.647  0.8211  0.5091 -0.6720
  877MOL0     O18318   5.035   9.195   6.634 -0.5044 -0.0750  0.3206
  877MOL0     C18319   5.088   9.238   6.506  0.5568  0.7798 -0.7421
  877MOL0     C18320   5.227   9.307   6.534 -1.1159  0.0533  0.4122
  877MOL0     C18321   5.277   9.345   6.398 -0.2988 -0.5756  0.0231
  877MOL0     C18322   5.423   9.317   6.378 -0.7838 -0.2641 -1.0479
  877MOL0     C18323   5.509   9.358   6.495  0.2648  0.2484  1.0222
  877MOL0     C18324   5.570   9.390   6.591 -0.5772 -0.1578  0.2500
  877MOL0     C18325   4.845   9.201   6.778 -0.4759  0.1110  0.0781
  877MOL0     C18326   4.714   9.204   6.809 -0.0149 -0.4004 -0.3404
  877MOL0     C18327   4.668   9.218   6.956  0.5901  0.0744 -0.4721
  877MOL0     H18328   4.306   9.585   6.600 -0.1695 -0.6066  1.9455
  877MOL0     H18329   4.074   9.634   6.606 -0.8829  0.5541  1.5566
  877MOL0     H18330   3.881   9.637   6.518  3.1588 -1.5422 -2.0639
  877MOL0     H18331   3.857   9.497   6.430  1.0309  1.0660 -0.6306
  877MOL0     H18332   3.640   9.645   6.482 -0.9452 -0.5779  0.7862
  877MOL0     H18333   3.655   9.574   6.640  0.8753  1.3599  1.0114
  877MOL0     H18334   3.664   9.344   6.512  1.7992 -0.1540 -0.7485
  877MOL0     H18335   3.637   9.440   6.363  1.4286  0.1799 -0.1577
  877MOL0     H18336   3.410   9.353   6.469 -0.9669  0.4577  0.2496
  877MOL0     H18337   3.454   9.465   6.603  0.9607  0.4821 -0.0021
  877MOL0     H18338   3.407   9.655   6.463 -0.6428  1.9007 -1.9750
  877MOL0     H18339   3.407   9.565   6.309 -0.2492  0.4789  0.4039
  877MOL0     H18340   3.223   9.531   6.554  0.7899 -1.2627 -0.5323
  877MOL0     H18341   3.198   9.643   6.421  0.4395  0.3400 -0.7716
  877MOL0     H18342   3.060   9.414   6.415 -0.3179 -2.4067 -2.0835
  877MOL0     H18343   3.209   9.346   6.375  1.4512  1.4599  3.8499
  877MOL0     H18344   3.049   9.406   6.187  0.6840 -0.1132 -1.9760
  877MOL0     H18345   3.042   9.574   6.212  1.5858  0.6836 -0.9622
  877MOL0     H18346   3.316   9.313   6.138  0.6398  0.0063 -1.0079
  877MOL0     H18347   3.488   9.344   5.892  2.2235 -2.5097  2.2655
  877MOL0     H18348   3.585   9.490   5.902  0.6943  0.1872  0.8564
  877MOL0     H18349   3.665   9.442   6.123 -2.3130  2.7728 -0.4027
  877MOL0     H18350   3.559   9.295   6.131  2.2060  0.1851  1.7073
  877MOL0     H18351   3.780   9.366   5.949 -1.6472  0.2307 -0.6907
  877MOL0     H18352   3.684   9.206   5.959 -0.9053  0.1409 -1.0752
  877MOL0     H18353   3.886   9.152   6.063  0.9054 -0.5069  2.7188
  877MOL0     H18354   3.758   9.180   6.183  1.2913  2.6837  2.5942
  877MOL0     H18355   4.066   9.311   6.375  1.5888 -0.0376  0.4849
  877MOL0     H18356   4.301   9.330   6.360 -3.5738  1.2338  2.2781
  877MOL0     H18357   4.622   9.028   6.204  0.6831 -0.0126  1.2314
  877MOL0     H18358   4.895   8.966   6.201  2.4133  1.0721 -2.2236
  877MOL0     H18359   5.137   8.983   6.205 -0.2421 -3.6957 -1.4409
  877MOL0     H18360   5.045   8.958   6.050 -0.3748  0.8116 -1.4955
  877MOL0     H18361   5.262   8.923   5.977 -1.2786  0.4623 -0.0539
  877MOL0     H18362   5.242   9.094   5.948  2.6930  0.7278  0.5669
  877MOL0     H18363   5.349   9.165   6.162 -3.9049 -1.8634  1.8948
  877MOL0     H18364   5.382   8.996   6.204  0.1256 -0.8595 -0.2085
  877MOL0     H18365   5.465   9.146   5.944  0.6656 -3.6116 -5.0924
  877MOL0     H18366   5.502   8.984   5.969  3.1810  0.0339  0.1812
  877MOL0     H18367   5.598   9.049   6.200 -1.2109  0.6735 -0.0531
  877MOL0     H18368   5.624   9.203   6.110 -0.7784 -0.1905 -0.3818
  877MOL0     H18369   5.724   8.923   6.048 -2.7340 -0.4828 -1.6943
  877MOL0     H18370   5.710   9.050   5.922  1.0035 -1.4838 -0.7225
  877MOL0     H18371   5.887   9.045   6.170 -3.2537 -1.3092  0.2065
  877MOL0     H18372   5.868   9.182   6.061  0.8944 -0.3820 -0.3844
  877MOL0     H18373   5.966   8.911   5.989 -6.0021  0.3659  3.0044
  877MOL0     H18374   5.973   9.053   5.874 -1.1439 -1.5963 -0.3746
  877MOL0     H18375   4.968   9.379   6.154  3.1171 -1.7837  2.0508
  877MOL0     H18376   4.729   9.443   6.200 -0.8182  0.1041  0.9909
  877MOL0     H18377   4.264   9.340   5.923 -1.4886  1.8477 -0.1627
  877MOL0     H18378   4.035   9.361   5.946  0.1500 -0.8048 -0.1234
  877MOL0     H18379   3.978   9.220   6.678 -2.8367  2.3769  2.7785
  877MOL0     H18380   4.218   9.163   6.656  1.7355  0.5932 -3.3353
  877MOL0     H18381   4.604   9.240   6.487  1.8957  1.3824 -1.4908
  877MOL0     H18382   4.840   9.215   6.442 -0.9170  1.9914  0.1527
  877MOL0     H18383   5.026   9.309   6.450  0.0445  0.7555 -0.2024
  877MOL0     H18384   5.100   9.142   6.454  1.2468 -1.5089  3.2586
  877MOL0     H18385   5.294   9.240   6.588  0.2208  0.1032 -1.0880
  877MOL0     H18386   5.214   9.400   6.590 -0.2670 -0.0841  0.8472
  877MOL0     H18387   5.259   9.453   6.399 -0.4096 -0.5768  1.5881
  877MOL0     H18388   5.224   9.298   6.315 -0.1132  1.6357 -1.4415
  877MOL0     H18389   5.445   9.211   6.362  4.0722  0.4930 -0.8778
  877MOL0     H18390   5.462   9.365   6.288 -0.6408 -1.7669 -1.8265
  877MOL0     H18391   5.626   9.430   6.673 -1.6365 -0.8977  1.3716
  877MOL0     H18392   4.910   9.204   6.865 -0.0859 -0.6845 -0.1716
  877MOL0     H18393   4.757   9.222   7.020 -0.0824 -0.5976  0.5209
  877MOL0     H18394   4.603   9.304   6.971  1.0288  0.7135 -1.9447
  877MOL0     H18395   4.611   9.133   6.994  0.0614  1.2230  1.4206
  878MOL0     O18396   3.980  10.633   5.876 -0.3677 -0.0640  0.9571
  878MOL0     C18397   4.000  10.710   5.967 -0.1433 -0.1680 -0.3332
  878MOL0     O18398   4.123  10.747   6.015 -0.4872 -0.7955  0.5093
  878MOL0     C18399   4.221  10.726   5.926 -0.7854  0.5578  0.2525
  878MOL0     C18400   4.330  10.650   5.965  0.2969 -0.3536  0.3322
  878MOL0     C18401   4.439  10.639   5.877 -0.6245 -0.7041 -0.4115
  878MOL0     C18402   4.446  10.712   5.759 -0.6829 -0.4691  0.2980
  878MOL0     O18403   4.558  10.701   5.681  0.6050 -0.9791 -0.4331
  878MOL0     C18404   4.585  10.794   5.570  0.6032 -0.2994  0.2460
  878MOL0     C18405   4.730  10.772   5.518 -0.9839 -0.5745  0.1654
  878MOL0     C18406   4.764  10.854   5.386  0.2429 -0.0824 -0.4461
  878MOL0     C18407   4.916  10.845   5.358 -0.0867  0.1516  0.0632
  878MOL0     C18408   4.953  10.902   5.221  0.3345 -0.1619  0.5689
  878MOL0     C18409   5.102  10.906   5.199 -0.4054  0.2621  0.2932
  878MOL0     C18410   5.130  10.930   5.049 -0.5521  0.3989  0.9806
  878MOL0     C18411   5.265  11.001   5.033  0.1172 -0.2391 -0.1808
  878MOL0     N18412   5.363  10.900   5.068 -0.0222  0.0445  0.7467
  878MOL0     C18413   5.409  10.805   4.979  0.2807 -0.0003 -1.2855
  878MOL0     C18414   5.517  10.747   5.044 -0.0280 -0.5886 -0.2574
  878MOL0     C18415   5.615  10.648   4.994 -0.1563 -0.4926  0.7649
  878MOL0     C18416   5.764  10.703   4.973 -0.3486 -0.6137 -0.4100
  878MOL0     C18417   5.855  10.592   4.915 -1.5320 -0.2277 -0.3465
  878MOL0     C18418   6.002  10.629   4.908  0.0044 -0.3367 -0.3796
  878MOL0     O18419   6.013  10.724   4.814  0.1756  0.4044  0.2034
  878MOL0     C18420   6.131  10.734   4.738 -0.1793  0.8765  1.1277
  878MOL0     C18421   6.268  10.738   4.777 -0.1797  0.6429 -0.4626
  878MOL0     C18422   6.372  10.757   4.682 -0.4434 -0.4105 -0.6775
  878MOL0     C18423   6.341  10.804   4.552  0.0555 -0.0543  0.8540
  878MOL0     C18424   6.450  10.843   4.451 -0.3400 -0.0120  0.7067
  878MOL0     O18425   6.578  10.796   4.475  0.4232 -0.0536 -0.5780
  878MOL0     C18426   6.681  10.851   4.415 -0.2165  0.4114 -0.3093
  878MOL0     C18427   6.703  10.982   4.369  1.0296  0.4321  0.0860
  878MOL0     C18428   6.830  11.014   4.316  0.0954 -0.2025 -0.4470
  878MOL0     C18429   6.930  10.914   4.303  0.1133 -0.5416 -0.2832
  878MOL0     O18430   7.056  10.944   4.261  0.3396  0.0890 -0.3093
  878MOL0     C18431   7.067  11.015   4.135  0.1196 -0.1353 -0.0215
  878MOL0     C18432   7.220  11.031   4.098 -0.2724 -0.1758  0.4055
  878MOL0     C18433   7.234  11.069   3.951 -1.3836  0.9267  0.1241
  878MOL0     C18434   7.370  11.102   3.916  0.3988 -0.4378 -0.3238
  878MOL0     C18435   7.374  11.134   3.763  0.3710  0.2837 -0.4585
  878MOL0     C18436   7.515  11.176   3.714 -0.6685  0.2504  0.1957
  878MOL0     C18437   7.495  11.201   3.566  0.1598 -0.5115 -0.8579
  878MOL0     C18438   7.630  11.213   3.499 -0.0661 -0.7082  0.3079
  878MOL0    Cl18439   7.710  11.360   3.559  0.3411 -0.1806  0.3057
  878MOL0     C18440   6.905  10.786   4.346 -0.1971  0.6737 -0.7730
  878MOL0     C18441   6.777  10.747   4.398 -0.0748  0.4141  0.5024
  878MOL0     O18442   6.410  10.901   4.353 -0.0028 -0.2462  0.9141
  878MOL0     C18443   6.202  10.819   4.516  0.2278  0.2823 -0.7361
  878MOL0     C18444   6.098  10.771   4.602 -0.5615  0.2895  0.0813
  878MOL0     N18445   5.538  10.818   5.160 -0.0131  0.3800 -0.4289
  878MOL0     N18446   5.452  10.907   5.169  0.3304  0.4917  0.1862
  878MOL0     C18447   4.331  10.787   5.717 -0.9197 -0.3945 -0.4740
  878MOL0     C18448   4.225  10.790   5.804  0.3077  0.2521  0.0022
  878MOL0     C18449   3.881  10.760   6.046 -0.0413  1.4913  0.2417
  878MOL0     C18450   3.764  10.687   6.056  0.0028  0.0521  0.1445
  878MOL0     C18451   3.653  10.728   6.137  0.2687  0.3189  0.3005
  878MOL0     C18452   3.650  10.862   6.192 -0.0474 -0.1448 -0.3198
  878MOL0     O18453   3.543  10.917   6.262 -0.6989  0.0781 -0.7805
  878MOL0     C18454   3.415  10.909   6.194 -0.7408 -0.1738 -0.0619
  878MOL0     C18455   3.323  10.822   6.276 -0.2887  0.6364  0.8230
  878MOL0     C18456   3.224  10.906   6.372 -0.2144 -0.4715 -0.0445
  878MOL0     C18457   3.100  10.828   6.414  0.2843  0.3960  0.1833
  878MOL0     C18458   3.033  10.773   6.294 -0.0713 -0.7748  0.0298
  878MOL0     C18459   2.986  10.759   6.179  0.0107  0.0122 -0.4672
  878MOL0     C18460   3.767  10.938   6.178 -1.1212 -0.0312  0.5352
  878MOL0     C18461   3.883  10.893   6.112 -0.6866 -0.2094 -0.3222
  878MOL0     C18462   3.989  10.998   6.081  0.3171  0.3455  0.2229
  878MOL0     H18463   4.324  10.600   6.061  0.7772  0.1277  0.6246
  878MOL0     H18464   4.530  10.599   5.919 -0.0307  3.7567  3.4000
  878MOL0     H18465   4.516  10.775   5.487 -2.1798  2.4443  1.7420
  878MOL0     H18466   4.565  10.897   5.600 -2.2814  0.4208 -3.4519
  878MOL0     H18467   4.741  10.665   5.501  0.0913 -0.4746  0.1547
  878MOL0     H18468   4.798  10.813   5.594  0.6081  3.7214 -3.1602
  878MOL0     H18469   4.744  10.961   5.396  0.6046 -0.0185 -0.3795
  878MOL0     H18470   4.714  10.822   5.294 -0.8180  1.1268 -0.3141
  878MOL0     H18471   4.970  10.899   5.436  2.5885  0.6444 -1.9576
  878MOL0     H18472   4.962  10.746   5.366  2.2991  1.1941  0.2630
  878MOL0     H18473   4.898  10.857   5.138 -0.2851  2.0216 -0.2855
  878MOL0     H18474   4.925  11.008   5.218  2.0390  0.3689  1.6687
  878MOL0     H18475   5.137  10.986   5.264  3.9506  2.0995 -3.7653
  878MOL0     H18476   5.159  10.821   5.236  0.0548 -0.4327 -1.8663
  878MOL0     H18477   5.047  10.979   4.998 -0.1076  0.4166  0.2460
  878MOL0     H18478   5.130  10.831   5.002  2.0982 -0.2621  2.2018
  878MOL0     H18479   5.277  11.037   4.931  1.1913  2.0449  0.6950
  878MOL0     H18480   5.275  11.088   5.097 -0.7353  0.5746 -1.1090
  878MOL0     H18481   5.365  10.782   4.882 -1.9036 -1.7331  0.0294
  878MOL0     H18482   5.616  10.556   5.053 -1.4722 -0.6975  0.5124
  878MOL0     H18483   5.567  10.615   4.901  1.2557  0.1187 -0.2286
  878MOL0     H18484   5.763  10.789   4.906 -0.0601 -1.1996 -1.1788
  878MOL0     H18485   5.797  10.738   5.071  1.3503  0.0013 -1.1793
  878MOL0     H18486   5.815  10.576   4.815 -2.0258  0.1045 -0.2099
  878MOL0     H18487   5.846  10.513   4.990  0.4672 -2.3255 -2.1925
  878MOL0     H18488   6.069  10.545   4.887  0.6473 -0.3472  1.4814
  878MOL0     H18489   6.044  10.670   5.001 -2.9876 -1.1257  1.4488
  878MOL0     H18490   6.304  10.714   4.876  0.2225 -0.6511 -0.9032
  878MOL0     H18491   6.477  10.756   4.709 -1.0150  2.3384  2.3510
  878MOL0     H18492   6.622  11.053   4.384 -1.0596 -1.4752 -1.6484
  878MOL0     H18493   6.846  11.119   4.291  2.0814 -0.2272  0.5105
  878MOL0     H18494   7.015  10.968   4.052 -0.1612 -1.4579  0.8712
  878MOL0     H18495   7.017  11.112   4.134 -0.2464 -0.3087  0.5882
  878MOL0     H18496   7.271  11.110   4.154  1.7699  0.6005 -2.3731
  878MOL0     H18497   7.273  10.937   4.117 -1.2546 -0.9580 -0.5582
  878MOL0     H18498   7.202  10.999   3.874  4.5314  0.3655 -2.3641
  878MOL0     H18499   7.179  11.162   3.937  0.3152  2.0827  0.7462
  878MOL0     H18500   7.424  11.007   3.929 -1.2976 -1.5289 -0.8924
  878MOL0     H18501   7.411  11.180   3.980 -0.7534  1.2266 -1.5371
  878MOL0     H18502   7.294  11.206   3.742 -0.9595 -1.3563 -1.1918
  878MOL0     H18503   7.349  11.037   3.719  3.5923 -2.6044  3.3344
  878MOL0     H18504   7.538  11.265   3.773 -0.4121 -0.6760  1.5255
  878MOL0     H18505   7.598  11.109   3.737  0.7641  2.8409  3.5388
  878MOL0     H18506   7.441  11.294   3.545  0.7350  0.4176  1.4829
  878MOL0     H18507   7.429  11.123   3.524 -2.5376  1.9362 -1.5151
  878MOL0     H18508   7.698  11.127   3.508 -0.7691 -1.2163  0.8699
  878MOL0     H18509   7.623  11.236   3.392  2.9629 -2.3870 -0.3675
  878MOL0     H18510   6.989  10.717   4.336 -1.6187 -1.4225  0.8479
  878MOL0     H18511   6.758  10.644   4.428  1.1695 -0.2508 -0.8393
  878MOL0     H18512   6.180  10.865   4.420  1.6467  0.5658 -0.9520
  878MOL0     H18513   5.997  10.790   4.566 -0.7430 -1.4243 -0.4211
  878MOL0     H18514   4.328  10.846   5.626 -0.9049 -0.9261 -0.8258
  878MOL0     H18515   4.134  10.846   5.781 -1.1580 -1.4608  1.3205
  878MOL0     H18516   3.766  10.586   6.018 -1.9280  0.7764 -2.1688
  878MOL0     H18517   3.573  10.658   6.160 -0.5651  0.5573 -1.6297
  878MOL0     H18518   3.429  10.873   6.092 -0.5593  1.7459 -0.7574
  878MOL0     H18519   3.380  11.013   6.193  0.1034  0.1410  0.8072
  878MOL0     H18520   3.380  10.751   6.336 -3.3379 -3.1646 -0.3564
  878MOL0     H18521   3.274  10.764   6.198 -1.2655  1.3053  0.9093
  878MOL0     H18522   3.197  11.004   6.331 -0.1217 -0.3337  0.2175
  878MOL0     H18523   3.284  10.917   6.463  2.0690 -0.9930 -1.4064
  878MOL0     H18524   3.126  10.747   6.483 -1.5767 -0.8234 -0.4682
  878MOL0     H18525   3.039  10.897   6.473 -0.7997 -2.2114  2.3178
  878MOL0     H18526   2.941  10.737   6.084 -1.5543  1.8736 -0.2089
  878MOL0     H18527   3.758  11.038   6.219  0.6826 -1.1848  4.2520
  878MOL0     H18528   4.079  10.987   6.143  0.8819 -0.1496 -0.6636
  878MOL0     H18529   4.017  11.008   5.976  3.0511 -0.4068  0.7919
  878MOL0     H18530   3.949  11.094   6.115 -0.7564  0.0498 -0.1924
  879MOL0     O18531   8.802   2.080   0.085 -0.4614  0.6978  0.0420
  879MOL0     C18532   8.759   2.008   0.176 -0.7306 -0.2200  0.4104
  879MOL0     O18533   8.835   1.923   0.257 -0.6233  0.2036  0.6890
  879MOL0     C18534   8.974   1.938   0.235 -0.0440 -0.1864 -0.0013
  879MOL0     C18535   9.034   2.066   0.238  0.5457  0.2910  0.7523
  879MOL0     C18536   9.175   2.073   0.220 -0.1434 -0.6724 -0.9569
  879MOL0     C18537   9.251   1.960   0.196 -0.1772  0.3618 -0.1166
  879MOL0     O18538   9.389   1.981   0.180  1.2031  0.0028  0.2633
  879MOL0     C18539   9.468   1.867   0.117 -0.0864 -0.9288 -1.3790
  879MOL0     C18540   9.605   1.927   0.100 -0.5403  0.4177 -0.0994
  879MOL0     C18541   9.693   1.916   0.230  0.6695  0.7970  0.3197
  879MOL0     C18542   9.828   1.985   0.215  0.0197  0.4633  0.2984
  879MOL0     C18543   9.919   1.979   0.338  0.1566  0.3443  0.3204
  879MOL0     C18544  10.053   2.047   0.319 -0.7722 -0.3810 -0.1390
  879MOL0     C18545  10.151   2.034   0.443  0.4915 -0.4648 -0.3875
  879MOL0     C18546  10.234   1.903   0.432  0.5744 -0.0720  0.3808
  879MOL0     N18547  10.294   1.883   0.563 -0.3599 -0.3193 -0.1974
  879MOL0     C18548  10.353   1.981   0.647 -0.3062 -0.1391 -0.2994
  879MOL0     C18549  10.377   1.912   0.756 -0.5051 -0.6514  0.3146
  879MOL0     C18550  10.446   1.988   0.867  0.1547 -0.5062  0.2931
  879MOL0     C18551  10.594   1.986   0.860  0.6444 -0.5550 -0.2548
  879MOL0     C18552  10.647   2.076   0.980  0.3972  0.0662 -0.1572
  879MOL0     C18553  10.792   2.106   0.953 -0.2319  0.2913 -0.5275
  879MOL0     O18554  10.846   2.150   1.074 -0.4474  0.3770  0.1036
  879MOL0     C18555  10.982   2.194   1.067  0.6615  0.4871  0.3298
  879MOL0     C18556  11.059   2.177   0.958 -0.2322 -0.1218 -0.4526
  879MOL0     C18557  11.190   2.227   0.957 -0.4236  0.8635 -0.0377
  879MOL0     C18558  11.247   2.274   1.072 -0.8022 -0.2526 -0.3472
  879MOL0     C18559  11.388   2.325   1.073 -0.5178 -0.0371  0.5527
  879MOL0     O18560  11.462   2.323   0.954  0.2892 -0.6216  0.7202
  879MOL0     C18561  11.595   2.341   0.987 -0.5658  0.3992 -0.0255
  879MOL0     C18562  11.684   2.237   0.983 -0.2782  0.5026  0.3885
  879MOL0     C18563  11.822   2.250   1.022 -0.1000 -0.2618  0.4364
  879MOL0     C18564  11.870   2.379   1.050 -0.0482 -0.3210 -0.2292
  879MOL0     O18565  12.003   2.411   1.086 -0.2043 -0.0503  0.0939
  879MOL0     C18566  12.093   2.304   1.075  0.2820  0.6867 -0.3861
  879MOL0     C18567  12.230   2.355   1.092 -0.3180 -0.0990  0.9860
  879MOL0     C18568  12.351   2.276   1.068  0.5304 -0.8502  1.4745
  879MOL0     C18569  12.475   2.358   1.016  0.6439 -0.2721  0.7082
  879MOL0     C18570  12.613   2.311   1.051 -0.4743  1.1355 -0.4234
  879MOL0     C18571  12.715   2.414   1.039  0.6358  0.6316 -0.4422
  879MOL0     C18572  12.853   2.347   1.060  0.4167  0.1734  0.6104
  879MOL0     C18573  12.953   2.453   1.046 -0.4723  0.3365  0.2496
  879MOL0    Cl18574  13.119   2.412   1.106 -0.2747 -0.1351 -0.0721
  879MOL0     C18575  11.782   2.485   1.041 -1.2962 -0.0209 -0.0806
  879MOL0     C18576  11.647   2.468   1.017  0.8735  0.1604  0.3666
  879MOL0     O18577  11.428   2.364   1.185  0.1897  0.5952  0.2328
  879MOL0     C18578  11.175   2.266   1.197  0.0887 -0.2445  0.1474
  879MOL0     C18579  11.036   2.236   1.194  0.1028  1.0472  0.5070
  879MOL0     N18580  10.347   1.777   0.737 -0.3563 -0.0959  0.4966
  879MOL0     N18581  10.307   1.759   0.617  0.8895 -0.1005  0.1570
  879MOL0     C18582   9.191   1.836   0.199  0.7901  0.7245  0.6525
  879MOL0     C18583   9.053   1.827   0.213  0.1328  0.2421 -0.2523
  879MOL0     C18584   8.614   1.994   0.197 -0.2838  0.2305 -0.3141
  879MOL0     C18585   8.573   1.897   0.296 -0.0918 -0.4430  0.0254
  879MOL0     C18586   8.438   1.866   0.309  0.4287 -0.8108  0.1596
  879MOL0     C18587   8.339   1.931   0.241 -0.5653  0.3518  0.1122
  879MOL0     O18588   8.200   1.914   0.252 -0.2921  0.0401 -0.0547
  879MOL0     C18589   8.150   1.839   0.358 -0.2611 -0.7630  0.3987
  879MOL0     C18590   7.993   1.836   0.352  0.4528 -0.2433  0.1022
  879MOL0     C18591   7.933   1.947   0.433  0.3463  0.5399 -0.8183
  879MOL0     C18592   7.779   1.949   0.415 -0.2083 -0.0217  0.3317
  879MOL0     C18593   7.712   2.069   0.468 -0.2113  0.0356 -0.2206
  879MOL0     C18594   7.647   2.166   0.509 -0.5359  0.0340 -0.3178
  879MOL0     C18595   8.375   2.038   0.149 -0.6199  0.3045  0.1040
  879MOL0     C18596   8.510   2.066   0.128  0.3499  0.9291 -0.0071
  879MOL0     C18597   8.537   2.178   0.033  0.1686  0.3326 -0.7913
  879MOL0     H18598   8.971   2.153   0.254  2.5991  1.6989  1.4658
  879MOL0     H18599   9.230   2.165   0.234 -1.3732  0.1703 -1.5135
  879MOL0     H18600   9.468   1.782   0.186 -1.4493 -0.7180 -1.0771
  879MOL0     H18601   9.431   1.826   0.023  1.1784 -2.6567 -1.1778
  879MOL0     H18602   9.603   2.034   0.077  3.2285  0.0651 -3.0039
  879MOL0     H18603   9.657   1.882   0.015 -0.5155 -2.1626  1.1980
  879MOL0     H18604   9.703   1.809   0.252  0.8279 -0.0081 -3.1183
  879MOL0     H18605   9.639   1.969   0.309  0.6199  2.0389 -0.5188
  879MOL0     H18606   9.875   1.933   0.130  1.2968 -2.6466  2.7076
  879MOL0     H18607   9.804   2.088   0.187 -0.5490 -0.1072 -1.4531
  879MOL0     H18608   9.871   2.032   0.420  0.3946  1.5715 -0.2948
  879MOL0     H18609   9.927   1.877   0.377 -0.0120  0.0026 -0.5206
  879MOL0     H18610  10.098   2.002   0.230  0.5911 -1.5421  1.0909
  879MOL0     H18611  10.038   2.155   0.309  1.4815  0.2493  2.3144
  879MOL0     H18612  10.099   2.020   0.539 -0.4622  0.0958 -0.8026
  879MOL0     H18613  10.213   2.121   0.465 -0.9315 -0.1502  3.1890
  879MOL0     H18614  10.172   1.815   0.410  1.7655 -0.5903 -1.0768
  879MOL0     H18615  10.322   1.910   0.367  1.5574 -2.5361  1.2978
  879MOL0     H18616  10.370   2.087   0.630  1.0969 -0.2633  0.2462
  879MOL0     H18617  10.409   2.089   0.851 -0.4329 -0.4790  1.7317
  879MOL0     H18618  10.405   1.962   0.965 -0.1816  0.4884  0.4280
  879MOL0     H18619  10.627   1.881   0.859 -2.1213 -1.5404 -2.6936
  879MOL0     H18620  10.623   2.047   0.774 -0.7554  0.4895 -0.0180
  879MOL0     H18621  10.639   2.025   1.076  1.6118  0.4425  0.1619
  879MOL0     H18622  10.590   2.170   0.988  0.7276  0.4543 -1.8948
  879MOL0     H18623  10.797   2.186   0.879 -2.7397  2.7210  1.6698
  879MOL0     H18624  10.842   2.016   0.918 -1.0577 -0.5905  0.4865
  879MOL0     H18625  11.012   2.137   0.869 -0.8013  0.6525 -0.5179
  879MOL0     H18626  11.250   2.214   0.868  0.3113 -0.1341  0.5731
  879MOL0     H18627  11.645   2.137   0.973 -1.0486  0.7431  0.9261
  879MOL0     H18628  11.882   2.159   1.024  0.8623  0.2448 -2.0304
  879MOL0     H18629  12.084   2.226   1.151 -2.8771  0.3493 -0.9646
  879MOL0     H18630  12.086   2.250   0.980  1.1515 -2.4386  1.1952
  879MOL0     H18631  12.234   2.441   1.024 -3.7542 -1.5892 -1.4037
  879MOL0     H18632  12.231   2.386   1.197 -2.0792  0.6430  0.8208
  879MOL0     H18633  12.374   2.200   1.143 -1.9451 -2.4377  0.7473
  879MOL0     H18634  12.328   2.205   0.987 -1.7998  0.4733  0.8664
  879MOL0     H18635  12.466   2.462   1.048 -1.5029 -0.0873 -0.3291
  879MOL0     H18636  12.472   2.363   0.907  2.2206  3.2665  0.6675
  879MOL0     H18637  12.640   2.233   0.980  1.7837  0.8710  0.6493
  879MOL0     H18638  12.609   2.274   1.154 -0.3479  0.8741 -0.5118
  879MOL0     H18639  12.686   2.463   0.945 -2.7654  0.8312  0.6067
  879MOL0     H18640  12.706   2.500   1.106  1.4775  0.4117 -0.0309
  879MOL0     H18641  12.875   2.270   0.985  0.2250  0.9905 -0.3027
  879MOL0     H18642  12.857   2.311   1.163 -1.7691 -1.4341  0.2152
  879MOL0     H18643  12.960   2.496   0.946  0.4152 -0.2949  0.0324
  879MOL0     H18644  12.921   2.536   1.110 -1.4569  1.3208 -1.4401
  879MOL0     H18645  11.818   2.587   1.057 -1.9542  0.2575 -0.3166
  879MOL0     H18646  11.576   2.550   1.025  0.9248  0.5997 -2.5907
  879MOL0     H18647  11.222   2.291   1.291  1.4040 -1.2205 -0.2260
  879MOL0     H18648  10.981   2.238   1.288 -1.8169  1.4381 -0.5755
  879MOL0     H18649   9.255   1.749   0.194 -0.9273 -0.5700  0.6249
  879MOL0     H18650   9.006   1.729   0.208 -2.4825  1.3502  0.9704
  879MOL0     H18651   8.628   1.828   0.360 -0.0962 -1.6025 -1.1721
  879MOL0     H18652   8.419   1.789   0.383  1.3772 -0.4281  0.8241
  879MOL0     H18653   8.165   1.884   0.457  0.7487  1.6943 -0.7822
  879MOL0     H18654   8.185   1.736   0.348 -0.4160 -0.6146 -2.4240
  879MOL0     H18655   7.947   1.740   0.378 -1.3045  0.4270 -0.3615
  879MOL0     H18656   7.971   1.848   0.245 -1.9674 -2.2141  0.2711
  879MOL0     H18657   7.989   2.035   0.400  2.0624 -0.2009  0.0379
  879MOL0     H18658   7.949   1.924   0.539  0.3092 -4.3240 -1.6260
  879MOL0     H18659   7.764   1.948   0.307  4.3351 -1.5747 -0.5140
  879MOL0     H18660   7.737   1.856   0.454  0.5308 -0.1572  0.8326
  879MOL0     H18661   7.581   2.243   0.545  1.8509  1.6214  0.9748
  879MOL0     H18662   8.295   2.102   0.112 -3.1445 -1.9326  1.3815
  879MOL0     H18663   8.458   2.170  -0.042  1.0316 -0.8169 -1.6186
  879MOL0     H18664   8.536   2.273   0.087 -1.0273 -1.0388  1.7196
  879MOL0     H18665   8.622   2.162  -0.034 -0.0758  0.4791 -1.1407
  880MOL0     O18666   0.447   9.946   9.386 -0.1059  0.1965 -0.0942
  880MOL0     C18667   0.375   9.918   9.480 -0.8009 -0.5867 -0.6870
  880MOL0     O18668   0.422   9.874   9.595  0.1699 -0.0526 -0.3175
  880MOL0     C18669   0.551   9.846   9.626  0.2946 -0.3669 -0.4076
  880MOL0     C18670   0.638   9.946   9.676  0.5466 -0.0923  0.7191
  880MOL0     C18671   0.776   9.924   9.698  0.1530 -0.0947  0.1844
  880MOL0     C18672   0.829   9.799   9.683 -0.5397 -0.5782  0.2536
  880MOL0     O18673   0.965   9.778   9.685  0.4851  0.2956 -0.4051
  880MOL0     C18674   1.001   9.650   9.736  1.2540 -0.3454  0.1732
  880MOL0     C18675   1.149   9.663   9.788 -0.4196 -0.1141 -0.4949
  880MOL0     C18676   1.255   9.673   9.686 -0.3031 -0.1038 -0.1581
  880MOL0     C18677   1.397   9.693   9.747 -0.0355  0.1002 -0.0869
  880MOL0     C18678   1.489   9.754   9.644  0.1805  0.7533 -0.3695
  880MOL0     C18679   1.631   9.768   9.694  0.3458  0.0512  0.0733
  880MOL0     C18680   1.732   9.794   9.587  0.9307  0.0813 -0.5643
  880MOL0     C18681   1.689   9.906   9.485 -0.3966  0.1912  0.1518
  880MOL0     N18682   1.799   9.942   9.403 -0.0104  0.1052  0.2539
  880MOL0     C18683   1.909  10.017   9.441  0.1453  0.8457 -0.7403
  880MOL0     C18684   1.990  10.025   9.326 -0.1498  0.6019 -0.3894
  880MOL0     C18685   2.092  10.122   9.301 -1.4323 -0.1468  0.9572
  880MOL0     C18686   2.225  10.061   9.237  0.8621  0.1062  0.3219
  880MOL0     C18687   2.277   9.929   9.306  0.0447 -0.5323  0.2513
  880MOL0     C18688   2.409   9.878   9.251  0.1538 -0.6964 -0.0868
  880MOL0     O18689   2.506   9.982   9.235  0.2455 -0.0131  0.2770
  880MOL0     C18690   2.603   9.968   9.329 -0.5919  0.5729  0.3676
  880MOL0     C18691   2.603  10.046   9.447  0.9039 -0.2827 -0.0548
  880MOL0     C18692   2.717  10.040   9.533  0.0202 -0.2695  0.3368
  880MOL0     C18693   2.819   9.947   9.509  0.0271  0.1542 -0.4410
  880MOL0     C18694   2.928   9.934   9.607 -1.0978  0.1104 -0.4827
  880MOL0     O18695   2.911   9.979   9.731  0.5906 -0.2499 -0.5095
  880MOL0     C18696   3.024  10.001   9.809  0.1858 -0.2059 -0.3027
  880MOL0     C18697   3.106  10.108   9.777  0.6253 -0.3021  0.3984
  880MOL0     C18698   3.228  10.123   9.837 -0.8061  0.9094  0.6838
  880MOL0     C18699   3.265  10.032   9.945 -0.1693 -0.3730 -0.0554
  880MOL0     O18700   3.389  10.056  10.007 -0.1211 -0.1875  0.5247
  880MOL0     C18701   3.444   9.953  10.100  0.0740  0.9301 -0.3098
  880MOL0     C18702   3.579   9.992  10.153  0.3837 -0.1777  0.1121
  880MOL0     C18703   3.670  10.007  10.030  0.2911  0.2138  0.3615
  880MOL0     C18704   3.815  10.010  10.081 -0.0697  0.3127 -0.1163
  880MOL0     C18705   3.909   9.989   9.974 -0.3293  0.2796  0.8408
  880MOL0     C18706   4.057   9.999  10.032  0.9262  0.3036 -0.2761
  880MOL0     C18707   4.167  10.020   9.930  0.3467 -0.3006  0.2385
  880MOL0     C18708   4.305  10.066   9.988 -0.0281  0.3552 -0.7712
  880MOL0    Cl18709   4.301  10.240   9.987  0.0491  0.0273  0.2849
  880MOL0     C18710   3.172   9.931   9.978  0.8354 -0.2517 -0.4780
  880MOL0     C18711   3.052   9.916   9.908 -0.0701 -0.0485 -0.3822
  880MOL0     O18712   3.040   9.899   9.562 -0.0107  1.5381  0.2972
  880MOL0     C18713   2.812   9.870   9.390 -0.0078  0.2952  0.4038
  880MOL0     C18714   2.705   9.877   9.300  0.4507 -0.2593 -1.2111
  880MOL0     N18715   1.943   9.932   9.234 -0.5411 -0.7987 -0.0190
  880MOL0     N18716   1.835   9.886   9.279  0.2834  0.2685 -0.6865
  880MOL0     C18717   0.739   9.695   9.659  0.8842 -0.3188  0.3136
  880MOL0     C18718   0.600   9.719   9.618 -0.4404  0.2046  0.0210
  880MOL0     C18719   0.234   9.933   9.447  0.3303  0.0796  0.4886
  880MOL0     C18720   0.198  10.045   9.357 -0.8062  1.3236 -0.5496
  880MOL0     C18721   0.070  10.052   9.305 -0.4830 -0.1806 -0.6794
  880MOL0     C18722  -0.036   9.984   9.368  0.0108  0.3957 -0.0393
  880MOL0     O18723  -0.168  10.009   9.342  1.5727 -1.1656  0.6835
  880MOL0     C18724  -0.211  10.122   9.250  0.3783  0.1164 -0.6570
  880MOL0     C18725  -0.208  10.069   9.105  0.7247 -0.6622 -0.3027
  880MOL0     C18726  -0.235  10.190   9.008 -0.1092  0.2312 -0.1170
  880MOL0     C18727  -0.290  10.150   8.874 -0.2114 -0.6325 -0.2305
  880MOL0     C18728  -0.438  10.142   8.884  0.5135  0.2244 -0.5029
  880MOL0     C18729  -0.545  10.151   8.936  0.0753  0.3455 -0.0319
  880MOL0     C18730  -0.008   9.880   9.460  0.6306  0.2853  0.1515
  880MOL0     C18731   0.127   9.853   9.499  0.0767 -0.6176 -0.3786
  880MOL0     C18732   0.139   9.755   9.609  0.7714  0.7201 -0.1228
  880MOL0     H18733   0.607  10.047   9.698 -0.7250 -0.8384  2.5764
  880MOL0     H18734   0.843  10.003   9.729 -0.4183  0.0076  1.2100
  880MOL0     H18735   0.935   9.623   9.819 -1.9470  0.7817 -1.8366
  880MOL0     H18736   1.006   9.576   9.656  2.2694  1.2447 -1.3074
  880MOL0     H18737   1.175   9.564   9.827  0.1532  0.3548  0.3599
  880MOL0     H18738   1.166   9.740   9.864  1.4818 -0.8457 -0.1134
  880MOL0     H18739   1.226   9.757   9.621 -2.2589  2.0480  3.2086
  880MOL0     H18740   1.266   9.583   9.625  3.0075 -0.8511  1.3301
  880MOL0     H18741   1.389   9.756   9.835 -2.3093 -0.1221 -0.0781
  880MOL0     H18742   1.435   9.591   9.757  0.6173  0.0723 -2.2779
  880MOL0     H18743   1.481   9.685   9.560 -0.4424 -0.9013  0.9649
  880MOL0     H18744   1.447   9.847   9.606 -1.0509 -0.2889 -1.6695
  880MOL0     H18745   1.644   9.857   9.757 -1.5004 -1.7890  3.3400
  880MOL0     H18746   1.653   9.684   9.760  2.7654  0.9039  0.4835
  880MOL0     H18747   1.752   9.703   9.530 -0.3800  0.6728 -2.0716
  880MOL0     H18748   1.820   9.832   9.639  0.1468  0.2643  0.6884
  880MOL0     H18749   1.613   9.869   9.415  2.6173 -2.4234 -2.0261
  880MOL0     H18750   1.643   9.995   9.530 -1.7732  0.4579 -1.6873
  880MOL0     H18751   1.926  10.082   9.526  2.5664  0.8701 -1.1892
  880MOL0     H18752   2.048  10.193   9.231 -1.5590 -0.2602  0.9233
  880MOL0     H18753   2.131  10.182   9.384  1.4498  2.5723 -2.0594
  880MOL0     H18754   2.198  10.039   9.133  1.7767  1.5226 -0.2486
  880MOL0     H18755   2.310  10.130   9.240  0.4939  0.5795  0.0606
  880MOL0     H18756   2.206   9.847   9.288 -1.1340  0.9790 -2.4457
  880MOL0     H18757   2.287   9.937   9.415  0.5073 -2.5048  0.3952
  880MOL0     H18758   2.400   9.836   9.151 -0.2589 -0.3554 -0.1963
  880MOL0     H18759   2.455   9.799   9.312  1.7918  0.5692  0.4096
  880MOL0     H18760   2.522  10.111   9.477 -2.8150 -3.8176 -1.5336
  880MOL0     H18761   2.720  10.103   9.621 -1.5924 -2.2983  1.9524
  880MOL0     H18762   3.082  10.176   9.695 -0.9054  0.1760  1.2156
  880MOL0     H18763   3.296  10.205   9.819  0.0902  0.3024  1.2488
  880MOL0     H18764   3.379   9.961  10.187  1.2125  0.5251  0.6061
  880MOL0     H18765   3.451   9.857  10.048 -1.3683  1.2986 -1.2452
  880MOL0     H18766   3.579  10.081  10.216  1.8131 -0.6720  0.8249
  880MOL0     H18767   3.614   9.907  10.212  2.2000  2.7768  3.6607
  880MOL0     H18768   3.664   9.918   9.967 -0.4675 -0.6403  1.5832
  880MOL0     H18769   3.645  10.096   9.971  0.7564 -0.1115 -0.3418
  880MOL0     H18770   3.833   9.928  10.152  0.0370  2.2755  2.2636
  880MOL0     H18771   3.832  10.103  10.135 -3.2428 -0.0750  1.8273
  880MOL0     H18772   3.896  10.072   9.904  1.5926 -0.7296 -0.8285
  880MOL0     H18773   3.916   9.893   9.923  0.7719  1.6296 -1.7073
  880MOL0     H18774   4.079  10.078  10.104  1.6016  1.3717 -1.6171
  880MOL0     H18775   4.067   9.909  10.093 -0.1218  0.9939  0.9765
  880MOL0     H18776   4.142  10.080   9.843  2.5250  2.4749  1.3730
  880MOL0     H18777   4.184   9.925   9.878 -2.4699 -0.8323  0.1254
  880MOL0     H18778   4.305  10.035  10.093 -0.7267 -0.1500 -0.9082
  880MOL0     H18779   4.374  10.009   9.925 -1.9589 -0.3960 -2.3401
  880MOL0     H18780   3.198   9.861  10.057  1.2039  0.1050 -0.2736
  880MOL0     H18781   2.981   9.842   9.943 -0.8005  1.5953  1.8687
  880MOL0     H18782   2.888   9.796   9.367 -0.0793  0.1141  0.7371
  880MOL0     H18783   2.688   9.815   9.212  0.3533 -0.9010 -0.7470
  880MOL0     H18784   0.772   9.592   9.649  1.7743 -0.3663  2.9713
  880MOL0     H18785   0.524   9.642   9.611 -1.9068  1.6455 -0.6464
  880MOL0     H18786   0.277  10.103   9.311  0.9840 -0.0897  0.5927
  880MOL0     H18787   0.054  10.122   9.224  0.4753  0.1366 -0.6030
  880MOL0     H18788  -0.132  10.197   9.259  2.4619 -1.4476 -3.8963
  880MOL0     H18789  -0.307  10.167   9.276  0.9419  1.1496 -0.3053
  880MOL0     H18790  -0.283   9.991   9.096 -0.2307  0.0807  0.8791
  880MOL0     H18791  -0.108  10.027   9.089  0.7287 -0.6523 -0.3010
  880MOL0     H18792  -0.132  10.228   9.004  0.0342 -0.0019  0.9307
  880MOL0     H18793  -0.291  10.273   9.050  1.5374  0.8941  0.8727
  880MOL0     H18794  -0.258  10.227   8.803  0.7329 -0.7229  0.0856
  880MOL0     H18795  -0.249  10.053   8.844  1.3455  0.7644 -2.9680
  880MOL0     H18796  -0.642  10.152   8.981  0.9868  0.9830  2.0855
  880MOL0     H18797  -0.089   9.819   9.497  2.1661 -1.7596  0.3347
  880MOL0     H18798   0.143   9.808   9.705  0.5348  0.3624  0.0870
  880MOL0     H18799   0.051   9.690   9.611  0.7948  0.6697  2.5538
  880MOL0     H18800   0.234   9.701   9.609  1.3481  1.6251  1.7929
  881MOL0     O18801   5.189   6.626   8.879  0.7917 -0.1598 -0.0540
  881MOL0     C18802   5.192   6.526   8.947  0.4278  0.4676  0.3517
  881MOL0     O18803   5.306   6.472   9.001 -0.2331  0.3980 -0.0096
  881MOL0     C18804   5.422   6.541   8.977 -0.0271  0.5579  0.2679
  881MOL0     C18805   5.468   6.635   9.062  0.0733  0.5707 -0.1719
  881MOL0     C18806   5.577   6.714   9.026  0.4460 -0.5651 -0.2806
  881MOL0     C18807   5.621   6.706   8.893 -0.0884 -0.7107  0.6218
  881MOL0     O18808   5.718   6.801   8.854  0.1158  1.0139  0.6852
  881MOL0     C18809   5.804   6.785   8.735 -0.4382  0.3241 -0.6733
  881MOL0     C18810   5.918   6.886   8.737 -0.3148  0.3328  0.2405
  881MOL0     C18811   6.023   6.870   8.623  0.3253 -0.2192 -0.1182
  881MOL0     C18812   6.139   6.969   8.629  0.3687  0.2785 -0.9007
  881MOL0     C18813   6.233   6.941   8.518 -0.1454  0.1106  0.7030
  881MOL0     C18814   6.310   7.077   8.487 -0.0671  0.3230  0.2618
  881MOL0     C18815   6.435   7.054   8.406  0.4352  1.0777 -0.1523
  881MOL0     C18816   6.544   7.010   8.495  0.3067 -0.0491 -0.4032
  881MOL0     N18817   6.665   7.040   8.432  0.0099 -0.5897 -0.0637
  881MOL0     C18818   6.698   6.988   8.312 -0.3863  0.1442 -0.8298
  881MOL0     C18819   6.819   7.050   8.288  0.3021 -0.1161 -0.0931
  881MOL0     C18820   6.902   7.001   8.167  0.2773 -0.5388  0.1092
  881MOL0     C18821   7.045   6.962   8.197  0.0535  0.0078  0.6970
  881MOL0     C18822   7.061   6.869   8.319 -0.7673 -0.2067  0.3329
  881MOL0     C18823   7.208   6.809   8.319 -0.3934 -0.4282  0.3032
  881MOL0     O18824   7.236   6.754   8.452 -0.5485 -0.4016  0.4735
  881MOL0     C18825   7.362   6.717   8.478  0.1047 -0.0513 -0.7591
  881MOL0     C18826   7.378   6.660   8.609  0.0460 -0.5363  0.4215
  881MOL0     C18827   7.510   6.628   8.650 -0.1820 -0.2055 -0.4398
  881MOL0     C18828   7.615   6.651   8.557  0.0014 -0.5158 -0.6817
  881MOL0     C18829   7.754   6.625   8.595  0.1067 -0.0346 -0.6880
  881MOL0     O18830   7.855   6.620   8.502 -0.5329 -0.7380 -0.0224
  881MOL0     C18831   7.981   6.597   8.556  1.4186  0.4282 -0.2924
  881MOL0     C18832   8.045   6.474   8.547  0.8251 -0.8311 -0.7412
  881MOL0     C18833   8.176   6.452   8.605 -0.3103  0.3011 -0.5410
  881MOL0     C18834   8.236   6.548   8.694  0.2758 -0.3950  0.3411
  881MOL0     O18835   8.347   6.509   8.759 -0.1831 -0.1707 -0.1032
  881MOL0     C18836   8.436   6.607   8.817 -0.2363 -0.4463 -0.4908
  881MOL0     C18837   8.556   6.533   8.880 -0.1000  0.3657 -0.3703
  881MOL0     C18838   8.527   6.413   8.969  0.6015  0.1144  0.2064
  881MOL0     C18839   8.422   6.446   9.073 -0.2497  0.2384 -1.1190
  881MOL0     C18840   8.388   6.335   9.178  0.3959  0.0309 -0.4650
  881MOL0     C18841   8.333   6.389   9.314 -0.8622 -0.0521  0.3030
  881MOL0     C18842   8.308   6.281   9.414 -0.2273  0.1500  0.4393
  881MOL0     C18843   8.188   6.299   9.505 -0.0872  0.1508  0.0526
  881MOL0    Cl18844   8.190   6.452   9.591  0.0462 -0.0298  0.0675
  881MOL0     C18845   8.169   6.677   8.686  0.4384 -0.2506  0.3142
  881MOL0     C18846   8.047   6.702   8.622  0.8709 -0.2527  0.0662
  881MOL0     O18847   7.774   6.614   8.719  0.0472  0.2989  0.0151
  881MOL0     C18848   7.596   6.710   8.437 -0.3775  0.7093 -1.0791
  881MOL0     C18849   7.472   6.735   8.392  0.1256 -0.6517 -0.7086
  881MOL0     N18850   6.853   7.137   8.387 -0.1341 -0.0502 -0.1703
  881MOL0     N18851   6.769   7.117   8.479 -0.3375 -0.3484 -0.0589
  881MOL0     C18852   5.577   6.605   8.811 -0.4838 -0.0594 -0.4172
  881MOL0     C18853   5.477   6.521   8.854 -0.9171 -0.0203  0.2344
  881MOL0     C18854   5.080   6.438   8.936  0.1941  0.3329 -0.1791
  881MOL0     C18855   5.106   6.299   8.920  0.1258 -0.0091  0.4102
  881MOL0     C18856   5.006   6.212   8.898 -0.1563 -0.4899  0.5869
  881MOL0     C18857   4.877   6.242   8.893 -0.3503 -0.4239  0.7683
  881MOL0     O18858   4.792   6.138   8.885  0.5838  0.2918  0.2478
  881MOL0     C18859   4.660   6.167   8.850  0.1886 -0.3525 -0.3845
  881MOL0     C18860   4.583   6.035   8.844 -0.4300  0.6712  0.1234
  881MOL0     C18861   4.448   6.056   8.769 -0.4907 -0.7706 -0.0641
  881MOL0     C18862   4.369   5.921   8.767 -0.5097 -0.6194  0.0175
  881MOL0     C18863   4.235   5.935   8.815 -0.4605  0.2449  0.9230
  881MOL0     C18864   4.120   5.936   8.847 -0.1220  0.3823  0.0430
  881MOL0     C18865   4.841   6.376   8.922 -0.6240  0.3202  0.0146
  881MOL0     C18866   4.939   6.477   8.930  1.1221 -0.2960  0.2504
  881MOL0     C18867   4.877   6.616   8.947 -0.4362  1.0556  0.4689
  881MOL0     H18868   5.405   6.650   9.150  0.5064  1.3138  0.0207
  881MOL0     H18869   5.614   6.790   9.094 -1.4764  0.9526 -0.8672
  881MOL0     H18870   5.843   6.684   8.742  0.6303  0.7883  0.4224
  881MOL0     H18871   5.747   6.801   8.643 -2.0246  1.9258  0.4957
  881MOL0     H18872   5.969   6.883   8.834 -0.5527 -3.0937  0.3845
  881MOL0     H18873   5.874   6.986   8.733 -0.5979  0.2635  1.4018
  881MOL0     H18874   5.970   6.885   8.529 -0.6104  2.2096  0.7241
  881MOL0     H18875   6.058   6.766   8.624  0.5410 -0.1453  0.0144
  881MOL0     H18876   6.101   7.071   8.617  0.8521  0.7146  0.8921
  881MOL0     H18877   6.187   6.966   8.728  1.0492 -3.2083 -1.1851
  881MOL0     H18878   6.299   6.855   8.531  1.6567  1.0509 -1.5389
  881MOL0     H18879   6.171   6.919   8.430  0.9289 -1.9257  0.4024
  881MOL0     H18880   6.254   7.142   8.418  2.1045  0.0728 -1.8703
  881MOL0     H18881   6.341   7.131   8.576  3.4049 -1.1562  0.0777
  881MOL0     H18882   6.452   7.146   8.349  1.3666 -0.4821 -2.5292
  881MOL0     H18883   6.419   6.973   8.334  0.1673  0.0578  1.0413
  881MOL0     H18884   6.539   7.055   8.594 -3.6263 -2.0766  0.5264
  881MOL0     H18885   6.534   6.904   8.520 -0.0605  0.8499  4.0209
  881MOL0     H18886   6.648   6.907   8.259 -2.3969 -1.1807  2.6911
  881MOL0     H18887   6.843   6.917   8.128 -0.8907  1.6213 -3.1549
  881MOL0     H18888   6.888   7.081   8.094 -4.8281  1.6561  2.9683
  881MOL0     H18889   7.090   6.906   8.114  0.5445 -1.0869  1.6660
  881MOL0     H18890   7.116   7.045   8.204  2.3185 -1.6084 -1.2568
  881MOL0     H18891   6.986   6.790   8.309  0.2415 -1.2594  0.8257
  881MOL0     H18892   7.048   6.931   8.408 -1.1397  0.8955 -0.4746
  881MOL0     H18893   7.281   6.886   8.292 -0.5259 -1.0306 -1.9615
  881MOL0     H18894   7.211   6.735   8.238 -1.6615  2.5734 -2.7495
  881MOL0     H18895   7.290   6.639   8.667  0.5067  1.0741  1.7804
  881MOL0     H18896   7.526   6.597   8.753 -3.8251 -1.1920 -0.0600
  881MOL0     H18897   7.985   6.406   8.487  1.0517 -1.0297 -0.7435
  881MOL0     H18898   8.222   6.356   8.582 -0.8745  0.1102 -0.9064
  881MOL0     H18899   8.473   6.678   8.742  0.6769  1.6075  1.7270
  881MOL0     H18900   8.383   6.660   8.897 -0.9231  1.4495 -2.1283
  881MOL0     H18901   8.607   6.489   8.794 -2.4206  0.5997 -1.9450
  881MOL0     H18902   8.627   6.602   8.928 -0.9911 -0.0347  1.6555
  881MOL0     H18903   8.498   6.339   8.894 -0.3880  1.5758 -0.9101
  881MOL0     H18904   8.621   6.378   9.012  1.2257  0.2344 -1.0366
  881MOL0     H18905   8.331   6.482   9.024 -2.6633 -0.2592  2.6529
  881MOL0     H18906   8.472   6.526   9.128 -0.2145  0.2369 -1.1484
  881MOL0     H18907   8.472   6.270   9.203  1.6842 -0.1855 -4.6393
  881MOL0     H18908   8.312   6.276   9.125 -2.1407  4.8533 -2.8772
  881MOL0     H18909   8.413   6.446   9.362 -2.3207  1.4305  1.0861
  881MOL0     H18910   8.241   6.446   9.297 -0.4450  0.7659  0.7067
  881MOL0     H18911   8.404   6.279   9.467 -0.2339  0.0194  0.4477
  881MOL0     H18912   8.304   6.183   9.365  3.2459  1.0769 -2.1648
  881MOL0     H18913   8.096   6.294   9.446 -0.9780  2.5681  1.1258
  881MOL0     H18914   8.205   6.212   9.570  1.2701 -0.3660 -0.9544
  881MOL0     H18915   8.220   6.767   8.720 -0.6168  0.8690 -0.9635
  881MOL0     H18916   8.000   6.800   8.623  1.0370 -0.1737  0.0735
  881MOL0     H18917   7.666   6.739   8.360 -2.9783  1.1919 -3.4559
  881MOL0     H18918   7.471   6.780   8.293  0.6801  0.2859 -0.2991
  881MOL0     H18919   5.603   6.624   8.707 -0.2550  1.2740 -0.1290
  881MOL0     H18920   5.434   6.453   8.782 -1.3013  1.8445 -1.3787
  881MOL0     H18921   5.206   6.257   8.916  1.8010  3.4094  2.3090
  881MOL0     H18922   5.030   6.109   8.877  0.8008 -0.6594  2.3658
  881MOL0     H18923   4.662   6.215   8.751 -1.4076 -1.0957 -0.8042
  881MOL0     H18924   4.605   6.225   8.925  1.2166  0.0266  0.0918
  881MOL0     H18925   4.569   5.987   8.941 -2.5595 -1.5807 -1.1538
  881MOL0     H18926   4.644   5.965   8.785 -0.7666 -1.0056  1.6898
  881MOL0     H18927   4.470   6.084   8.665  1.0073  0.7505  0.5971
  881MOL0     H18928   4.402   6.140   8.822  2.0269  1.3632 -1.0336
  881MOL0     H18929   4.377   5.892   8.662  0.0295  3.2305 -1.1445
  881MOL0     H18930   4.426   5.843   8.820  0.9777 -0.3993 -1.1795
  881MOL0     H18931   4.020   5.958   8.879  0.2468  1.3943  0.5488
  881MOL0     H18932   4.742   6.410   8.949 -0.1420  2.7013 -1.0138
  881MOL0     H18933   4.813   6.621   9.035  0.9699  0.6956  1.5494
  881MOL0     H18934   4.955   6.688   8.975 -1.0237  0.8463  2.8299
  881MOL0     H18935   4.825   6.645   8.855  3.1823  1.5418 -1.6193
  882MOL0     O18936   8.560   4.159   5.046  0.0831 -0.9061 -0.0926
  882MOL0     C18937   8.620   4.131   5.149 -0.5866 -0.0500  0.7286
  882MOL0     O18938   8.756   4.143   5.163  0.2136 -0.1688 -0.1015
  882MOL0     C18939   8.834   4.180   5.057 -0.6087 -0.0006  0.2554
  882MOL0     C18940   8.904   4.083   4.987  0.6329 -0.0011 -0.3983
  882MOL0     C18941   8.992   4.111   4.882  0.5493 -0.1233  1.0055
  882MOL0     C18942   9.020   4.249   4.862  0.1404 -0.7179  0.2297
  882MOL0     O18943   9.119   4.287   4.773  0.8563  0.1533  0.7959
  882MOL0     C18944   9.241   4.220   4.770  0.6079  0.3841  0.3458
  882MOL0     C18945   9.256   4.169   4.626  0.5271 -0.0552  0.1002
  882MOL0     C18946   9.267   4.281   4.516  0.3376 -0.4558 -0.3963
  882MOL0     C18947   9.253   4.237   4.370  0.7617  0.7844 -0.0481
  882MOL0     C18948   9.112   4.191   4.326  0.2908 -0.0620 -0.2034
  882MOL0     C18949   9.016   4.305   4.306 -0.4248 -0.1214  0.7200
  882MOL0     C18950   9.048   4.415   4.199 -0.5161 -1.1599  0.7117
  882MOL0     C18951   9.063   4.359   4.053  0.3200  0.6204 -0.4546
  882MOL0     N18952   9.069   4.469   3.956  0.1617  0.1673 -0.9675
  882MOL0     C18953   9.173   4.563   3.946 -0.7535  0.1069 -1.0915
  882MOL0     C18954   9.136   4.645   3.846  0.8133  0.1914  0.0708
  882MOL0     C18955   9.195   4.772   3.807  0.6455 -0.6802  0.0562
  882MOL0     C18956   9.263   4.779   3.666 -0.7186  0.7240 -0.5428
  882MOL0     C18957   9.383   4.878   3.659  0.7428 -0.9533 -0.4757
  882MOL0     C18958   9.474   4.845   3.535  0.0456  0.4186  0.2305
  882MOL0     O18959   9.585   4.937   3.549 -0.7478 -0.7102 -0.0339
  882MOL0     C18960   9.699   4.918   3.468  0.4145  0.0382 -0.5950
  882MOL0     C18961   9.806   4.997   3.486 -0.2875  0.1981  0.2615
  882MOL0     C18962   9.927   4.976   3.416  0.4519  0.4167  0.4117
  882MOL0     C18963   9.932   4.878   3.315 -0.0043  0.3976  0.1803
  882MOL0     C18964  10.064   4.839   3.252  0.3134 -0.0839  0.5958
  882MOL0     O18965  10.176   4.876   3.322 -0.2398  0.1958  0.2286
  882MOL0     C18966  10.305   4.869   3.275  0.4926  0.0184  0.3564
  882MOL0     C18967  10.409   4.832   3.357 -0.4822  0.1304  0.1217
  882MOL0     C18968  10.540   4.823   3.303  0.0012 -0.1160  0.5098
  882MOL0     C18969  10.571   4.857   3.176 -0.6641  0.0482 -0.5300
  882MOL0     O18970  10.708   4.853   3.144 -0.3048  0.0554 -0.5493
  882MOL0     C18971  10.728   4.833   3.007 -0.4845  0.4665  0.5506
  882MOL0     C18972  10.871   4.790   2.977  0.6210  0.7721  0.3467
  882MOL0     C18973  10.965   4.908   2.938 -0.5763  0.2095  0.0330
  882MOL0     C18974  11.083   4.872   2.859 -0.5189  0.0509  0.4301
  882MOL0     C18975  11.172   4.766   2.929 -0.3546 -0.0148 -0.1647
  882MOL0     C18976  11.292   4.739   2.833  0.7267  0.4787  0.6592
  882MOL0     C18977  11.384   4.616   2.874 -0.8873  0.6056 -0.0910
  882MOL0     C18978  11.507   4.586   2.788  1.0205 -0.5554  0.4080
  882MOL0    Cl18979  11.613   4.465   2.873  0.0883  0.1490 -0.1992
  882MOL0     C18980  10.463   4.900   3.090 -0.2202 -0.4865  0.6320
  882MOL0     C18981  10.334   4.900   3.143 -0.1702 -0.2917 -0.5476
  882MOL0     O18982  10.062   4.791   3.134  0.2107  0.9839 -0.2945
  882MOL0     C18983   9.822   4.807   3.283  0.4573  0.2173  0.1744
  882MOL0     C18984   9.707   4.819   3.364 -0.2142  0.3804  0.5124
  882MOL0     N18985   9.011   4.603   3.797 -0.2024  0.5331 -0.6782
  882MOL0     N18986   8.966   4.512   3.873 -0.6625  0.6641  0.1219
  882MOL0     C18987   8.950   4.352   4.930 -0.2213 -0.3881 -0.5821
  882MOL0     C18988   8.855   4.309   5.019  0.3446 -0.4399 -0.0085
  882MOL0     C18989   8.554   4.056   5.258  0.3873  0.4446 -0.9329
  882MOL0     C18990   8.637   3.974   5.338  0.3135 -0.2660 -0.1555
  882MOL0     C18991   8.592   3.908   5.455  0.3206  0.4219  0.2335
  882MOL0     C18992   8.457   3.911   5.482  0.5258 -0.4228  0.5910
  882MOL0     O18993   8.411   3.827   5.579 -0.2636 -0.3657 -0.6049
  882MOL0     C18994   8.273   3.815   5.616 -0.4286 -0.1146 -0.4251
  882MOL0     C18995   8.267   3.697   5.714  0.0436 -0.1891  0.6955
  882MOL0     C18996   8.292   3.555   5.652  0.3425 -0.3882  0.0204
  882MOL0     C18997   8.268   3.432   5.733 -0.0179  0.0710  0.0999
  882MOL0     C18998   8.125   3.407   5.769  0.0809  0.2001  0.3484
  882MOL0     C18999   8.007   3.375   5.785 -0.8886 -0.7135  0.0187
  882MOL0     C19000   8.376   3.993   5.401  0.3133  1.0949  0.2518
  882MOL0     C19001   8.413   4.063   5.293  0.4524 -0.1398  0.9902
  882MOL0     C19002   8.303   4.142   5.219 -0.2862 -0.6904 -0.3670
  882MOL0     H19003   8.884   3.978   5.005 -1.9771  1.1095  6.1537
  882MOL0     H19004   9.034   4.038   4.813 -0.7469  1.1719 -1.2907
  882MOL0     H19005   9.321   4.288   4.801  0.1718  1.4592 -0.7641
  882MOL0     H19006   9.249   4.138   4.842 -2.2205  1.6997  2.3674
  882MOL0     H19007   9.171   4.106   4.598 -2.0627  2.3208  2.0484
  882MOL0     H19008   9.343   4.104   4.625 -0.9320 -2.1463  1.3980
  882MOL0     H19009   9.370   4.318   4.525  1.0460 -2.0105 -1.7145
  882MOL0     H19010   9.188   4.354   4.533  0.7580 -0.1755  0.4055
  882MOL0     H19011   9.274   4.326   4.310 -0.3091  0.7877 -0.4516
  882MOL0     H19012   9.315   4.148   4.356  1.8483  1.7475 -1.6075
  882MOL0     H19013   9.129   4.133   4.234  2.0690 -0.4704  0.3422
  882MOL0     H19014   9.071   4.127   4.404 -0.9808  0.5800 -0.3167
  882MOL0     H19015   8.918   4.263   4.283 -0.8415  1.7628 -1.1985
  882MOL0     H19016   9.003   4.354   4.403 -1.0311  1.4664 -0.1230
  882MOL0     H19017   9.131   4.479   4.227 -1.6737  0.6271  0.2285
  882MOL0     H19018   8.965   4.487   4.192  0.8488  0.3427 -1.0232
  882MOL0     H19019   9.158   4.307   4.066  0.0170  0.3079  0.5789
  882MOL0     H19020   8.982   4.291   4.024  1.0789 -0.5556  0.1506
  882MOL0     H19021   9.268   4.581   3.996 -1.3704 -0.6285  0.4180
  882MOL0     H19022   9.118   4.849   3.821  1.3082 -0.0652  0.3839
  882MOL0     H19023   9.269   4.809   3.879 -0.8186  0.7835  0.8671
  882MOL0     H19024   9.313   4.682   3.654  0.7589  1.0896  2.0486
  882MOL0     H19025   9.189   4.796   3.587  1.8157  0.6468 -3.0677
  882MOL0     H19026   9.446   4.856   3.746  0.5870  0.7706  0.1288
  882MOL0     H19027   9.350   4.982   3.666  0.7741 -0.9633 -0.1643
  882MOL0     H19028   9.423   4.873   3.443  2.0715 -3.6445 -2.4328
  882MOL0     H19029   9.500   4.739   3.525 -3.6217 -0.6298  0.3665
  882MOL0     H19030   9.810   5.069   3.567  2.1150  1.1357 -0.5982
  882MOL0     H19031  10.011   5.037   3.446 -0.1176  1.4964 -0.1307
  882MOL0     H19032  10.391   4.799   3.459  1.0453 -2.4099 -0.3592
  882MOL0     H19033  10.625   4.797   3.364  2.4373  1.5466 -1.9057
  882MOL0     H19034  10.663   4.751   2.974  0.5705 -1.2210  2.4360
  882MOL0     H19035  10.707   4.922   2.947  2.7275  0.3924 -0.8690
  882MOL0     H19036  10.910   4.745   3.069 -0.8735  2.9966  2.1657
  882MOL0     H19037  10.855   4.715   2.899 -0.4229  0.6831  0.6368
  882MOL0     H19038  10.905   4.984   2.885  1.5396  1.5613 -0.5322
  882MOL0     H19039  10.992   4.946   3.036  1.2312 -0.2469 -0.2579
  882MOL0     H19040  11.145   4.956   2.825 -1.7191  0.5362 -0.6740
  882MOL0     H19041  11.045   4.826   2.768  1.2624  0.5887 -0.6351
  882MOL0     H19042  11.113   4.676   2.947  0.8594 -1.0997 -1.3808
  882MOL0     H19043  11.214   4.799   3.024 -0.1966 -0.3385 -0.1225
  882MOL0     H19044  11.260   4.717   2.731  1.2501  0.6915  0.4437
  882MOL0     H19045  11.359   4.826   2.833  1.2158  0.1788 -1.7289
  882MOL0     H19046  11.330   4.522   2.888  0.3713  0.1558  2.1528
  882MOL0     H19047  11.428   4.640   2.971 -1.9730 -0.6221  0.7492
  882MOL0     H19048  11.476   4.543   2.692 -0.7893  0.1083  0.6597
  882MOL0     H19049  11.568   4.673   2.762  1.9239 -0.8872  1.3462
  882MOL0     H19050  10.474   4.927   2.986 -1.2327 -0.9450  0.3976
  882MOL0     H19051  10.256   4.920   3.069  0.4880  0.7379 -0.9697
  882MOL0     H19052   9.824   4.732   3.205  1.2262  0.6288 -0.2113
  882MOL0     H19053   9.624   4.762   3.323 -0.6438  1.9504 -0.9462
  882MOL0     H19054   8.976   4.458   4.929  2.0911 -0.7144  2.9573
  882MOL0     H19055   8.787   4.380   5.066  0.4498 -0.3573  0.0197
  882MOL0     H19056   8.742   3.963   5.312  0.3637 -1.7543  0.5723
  882MOL0     H19057   8.657   3.839   5.507  0.2908  0.9845  1.0311
  882MOL0     H19058   8.205   3.805   5.531 -1.3486 -3.3063  0.5579
  882MOL0     H19059   8.234   3.897   5.677 -2.0322 -1.0857 -0.1016
  882MOL0     H19060   8.162   3.694   5.746 -0.2146  2.1675  0.2807
  882MOL0     H19061   8.332   3.724   5.798  1.3349  3.4916 -1.2786
  882MOL0     H19062   8.395   3.545   5.616  0.4409 -2.1573  0.6671
  882MOL0     H19063   8.220   3.550   5.570  1.6920  1.3861 -1.3706
  882MOL0     H19064   8.307   3.348   5.674  1.6055  0.1485  0.9986
  882MOL0     H19065   8.329   3.446   5.822  2.2554 -0.0962 -1.3630
  882MOL0     H19066   7.909   3.334   5.798 -2.3313  2.6920  0.9003
  882MOL0     H19067   8.272   3.991   5.433  0.3853  0.8263  0.4779
  882MOL0     H19068   8.199   4.121   5.245  0.3504 -0.0137  3.1569
  882MOL0     H19069   8.325   4.246   5.245 -0.0367 -1.0305  0.8206
  882MOL0     H19070   8.305   4.135   5.109 -2.0260  0.2483 -0.4930
  883MOL0     O19071   9.979   9.670   6.863  0.2769  0.0299 -0.0645
  883MOL0     C19072   9.896   9.695   6.772 -0.3111 -1.1072 -0.1878
  883MOL0     O19073   9.946   9.752   6.648  0.8571 -0.6205 -0.8323
  883MOL0     C19074  10.073   9.801   6.637  0.4331 -0.0565 -0.3543
  883MOL0     C19075  10.097   9.930   6.655 -0.0715 -0.0150 -0.8208
  883MOL0     C19076  10.219   9.980   6.630  0.6496 -0.8121  0.4151
  883MOL0     C19077  10.328   9.899   6.596 -1.1243  0.1659  0.8016
  883MOL0     O19078  10.462   9.923   6.566  1.1071 -0.5651 -0.2639
  883MOL0     C19079  10.510  10.045   6.630  0.6864  0.3009  0.7601
  883MOL0     C19080  10.646  10.067   6.581  0.1170  0.3353  0.3089
  883MOL0     C19081  10.720  10.161   6.669 -0.2098 -0.4807  0.1492
  883MOL0     C19082  10.872  10.143   6.682 -0.4551 -0.0633 -0.1198
  883MOL0     C19083  10.938  10.205   6.805  0.0093 -1.2205  0.2026
  883MOL0     C19084  11.076  10.150   6.821 -0.3863  0.3240 -0.9408
  883MOL0     C19085  11.160  10.202   6.937  0.6505 -0.7158 -0.1391
  883MOL0     C19086  11.213  10.348   6.923 -0.2474  1.1476  0.7028
  883MOL0     N19087  11.353  10.367   6.866  0.3634  0.3719 -0.3132
  883MOL0     C19088  11.461  10.304   6.911 -0.4719 -0.1176  0.3500
  883MOL0     C19089  11.568  10.379   6.856  0.0803  0.6901 -0.3338
  883MOL0     C19090  11.712  10.332   6.871 -0.3226 -0.3890 -0.2781
  883MOL0     C19091  11.736  10.278   7.008  0.0739 -0.3670 -0.5325
  883MOL0     C19092  11.881  10.216   7.006  1.2004  0.8085 -0.1224
  883MOL0     C19093  11.931  10.188   7.147 -1.0536 -1.2395  0.2054
  883MOL0     O19094  12.069  10.135   7.153  0.2199 -0.1258  0.6177
  883MOL0     C19095  12.168  10.228   7.145  0.0551  0.2607  0.2023
  883MOL0     C19096  12.299  10.177   7.164 -0.4085  0.5542  0.3010
  883MOL0     C19097  12.420  10.253   7.167  0.4704  0.7687  0.2411
  883MOL0     C19098  12.399  10.389   7.154 -0.3179  0.6811  0.5435
  883MOL0     C19099  12.518  10.483   7.144 -0.2785  0.3126 -1.1730
  883MOL0     O19100  12.631  10.428   7.100  0.2769  0.3466  0.2786
  883MOL0     C19101  12.744  10.513   7.082  0.2662  0.0069  0.0250
  883MOL0     C19102  12.864  10.463   7.117 -0.4375  0.1071 -1.1537
  883MOL0     C19103  12.985  10.532   7.084 -0.3068 -0.3456 -0.2458
  883MOL0     C19104  12.986  10.649   7.018 -0.1199 -0.2441  0.2356
  883MOL0     O19105  13.099  10.720   6.976  0.2545  0.2257  0.8180
  883MOL0     C19106  13.094  10.861   6.991  0.4202  0.0721 -0.1431
  883MOL0     C19107  13.114  10.950   6.871  0.1034  0.1003 -0.1989
  883MOL0     C19108  13.094  11.103   6.908  0.1445  1.5616  0.4807
  883MOL0     C19109  13.141  11.182   6.785 -0.2428  0.3338 -0.6681
  883MOL0     C19110  13.112  11.329   6.793  0.7799 -0.2417 -0.5605
  883MOL0     C19111  13.211  11.401   6.890  0.8291  0.6591  1.3201
  883MOL0     C19112  13.234  11.544   6.847  0.2796  0.5820  0.4273
  883MOL0     C19113  13.370  11.597   6.888 -0.3281  0.6778 -0.2886
  883MOL0    Cl19114  13.397  11.772   6.849 -0.2109 -0.1562  0.2180
  883MOL0     C19115  12.861  10.702   6.990  0.5344 -0.5836 -0.3365
  883MOL0     C19116  12.738  10.636   7.014  0.2795  0.0687  0.3410
  883MOL0     O19117  12.502  10.597   7.177 -0.1102 -0.2473 -0.0503
  883MOL0     C19118  12.276  10.445   7.138  0.7268 -0.7123 -0.6009
  883MOL0     C19119  12.164  10.364   7.140  0.7465  0.4805 -0.2227
  883MOL0     N19120  11.506  10.465   6.760  0.8868  0.9596 -0.1556
  883MOL0     N19121  11.383  10.459   6.775  0.2116 -0.5611  0.4833
  883MOL0     C19122  10.297   9.769   6.567  0.2008  0.5525  0.5271
  883MOL0     C19123  10.176   9.713   6.592 -0.1854 -0.2019 -0.1693
  883MOL0     C19124   9.749   9.658   6.791  0.1252 -0.2760  0.5558
  883MOL0     C19125   9.661   9.714   6.696 -0.2637 -0.5845 -0.7289
  883MOL0     C19126   9.530   9.690   6.716  0.4054  0.4011 -0.6553
  883MOL0     C19127   9.470   9.607   6.818  0.6675 -1.0085 -0.0790
  883MOL0     O19128   9.335   9.601   6.830  0.2363  0.3567  0.6286
  883MOL0     C19129   9.272   9.530   6.929  0.0185 -0.0372 -0.6089
  883MOL0     C19130   9.121   9.538   6.910  0.5987  0.6287  0.4330
  883MOL0     C19131   9.052   9.609   7.025 -0.6619  0.1730 -0.4264
  883MOL0     C19132   8.897   9.632   7.008 -0.6071  0.0360  0.4976
  883MOL0     C19133   8.814   9.516   6.998  0.2994 -0.1401  0.4513
  883MOL0     C19134   8.759   9.408   6.999 -0.1037 -0.1146  0.1558
  883MOL0     C19135   9.563   9.546   6.904  0.0523  0.1320  0.6063
  883MOL0     C19136   9.703   9.571   6.887 -0.3504 -0.6192  0.4880
  883MOL0     C19137   9.793   9.489   6.976 -0.2409 -0.1016 -0.1795
  883MOL0     H19138  10.011   9.993   6.676 -2.0458 -2.5533 -0.8073
  883MOL0     H19139  10.239  10.087   6.628 -0.5959 -0.5677  0.1911
  883MOL0     H19140  10.450  10.132   6.603 -0.1519  0.3660  2.6848
  883MOL0     H19141  10.503  10.038   6.739 -0.0526  1.2829  0.7863
  883MOL0     H19142  10.644  10.095   6.475  0.1787 -0.6610  0.0291
  883MOL0     H19143  10.708   9.976   6.586 -1.7514 -0.9782  0.5430
  883MOL0     H19144  10.674  10.154   6.768 -0.0081 -0.7812  0.2227
  883MOL0     H19145  10.690  10.264   6.649 -2.3080 -0.8128  1.2614
  883MOL0     H19146  10.895  10.036   6.681  2.1465  0.3959 -1.6025
  883MOL0     H19147  10.927  10.187   6.598 -0.7320  0.2279 -0.1497
  883MOL0     H19148  10.940  10.314   6.794  2.4221 -1.4824 -4.2837
  883MOL0     H19149  10.879  10.186   6.895  1.2323  1.0888  1.6065
  883MOL0     H19150  11.062  10.044   6.842  2.5794  0.5559  3.8837
  883MOL0     H19151  11.133  10.156   6.728  1.8448 -2.5613  0.0970
  883MOL0     H19152  11.242  10.131   6.951 -0.2717 -1.7016  0.4678
  883MOL0     H19153  11.099  10.200   7.028 -0.8001 -1.8936 -1.0762
  883MOL0     H19154  11.145  10.413   6.867  1.4689  3.0266  0.6389
  883MOL0     H19155  11.219  10.383   7.027 -1.0112 -2.6631  2.1832
  883MOL0     H19156  11.468  10.216   6.974 -0.2340 -1.5497 -1.5625
  883MOL0     H19157  11.742  10.264   6.791 -2.6844  1.3477 -2.8264
  883MOL0     H19158  11.770  10.423   6.851  0.1655 -0.3651  1.1440
  883MOL0     H19159  11.725  10.356   7.083 -0.7180 -0.1599 -0.8587
  883MOL0     H19160  11.668  10.198   7.036  0.3537 -0.5301 -0.3125
  883MOL0     H19161  11.955  10.275   6.951 -0.5108  1.9927 -1.2505
  883MOL0     H19162  11.869  10.115   6.964  1.9097 -0.4076  2.3604
  883MOL0     H19163  11.868  10.118   7.204  0.5251 -3.1657 -0.3198
  883MOL0     H19164  11.921  10.274   7.213 -0.4984  0.0876 -1.3962
  883MOL0     H19165  12.310  10.077   7.203 -1.0643 -0.1617 -1.2957
  883MOL0     H19166  12.513  10.197   7.174 -1.6367 -2.8405  2.7787
  883MOL0     H19167  12.856  10.372   7.177 -2.0337  0.6276 -0.5419
  883MOL0     H19168  13.079  10.487   7.116  1.2619  2.1416 -1.1234
  883MOL0     H19169  13.004  10.903   7.037  0.6463  1.0124 -0.5186
  883MOL0     H19170  13.174  10.884   7.061  1.3015 -0.6964 -0.8683
  883MOL0     H19171  13.218  10.929   6.844 -0.1669  0.2529 -1.3993
  883MOL0     H19172  13.049  10.921   6.789  0.9370 -0.3045 -0.7347
  883MOL0     H19173  12.988  11.119   6.928 -0.4871  1.5229 -2.3370
  883MOL0     H19174  13.154  11.127   6.996  0.9791  0.7830  0.1529
  883MOL0     H19175  13.101  11.146   6.689 -1.8896 -0.3110  0.2210
  883MOL0     H19176  13.250  11.172   6.778  0.1062  0.3436  3.0724
  883MOL0     H19177  13.007  11.352   6.812  1.3424  2.3929 -0.3849
  883MOL0     H19178  13.135  11.374   6.696  1.9313  2.1565  0.7390
  883MOL0     H19179  13.188  11.393   6.997 -1.2107 -0.8954  0.8232
  883MOL0     H19180  13.309  11.352   6.878  0.1309 -0.5912  0.5705
  883MOL0     H19181  13.162  11.608   6.900  0.3813  2.9066 -2.0374
  883MOL0     H19182  13.219  11.559   6.740  1.2671  1.1575  0.3645
  883MOL0     H19183  13.380  11.589   6.997  2.4527  0.1677 -0.5221
  883MOL0     H19184  13.451  11.544   6.838 -0.3638  1.3134 -1.0353
  883MOL0     H19185  12.849  10.797   6.939  1.3621  0.1102  0.7244
  883MOL0     H19186  12.647  10.694   7.002  1.5050  2.0519  0.1628
  883MOL0     H19187  12.259  10.552   7.147 -1.0395 -1.1398  2.7315
  883MOL0     H19188  12.067  10.411   7.152 -0.2082 -1.5678  0.7300
  883MOL0     H19189  10.386   9.708   6.555  2.1924  2.7430  3.0683
  883MOL0     H19190  10.159   9.606   6.584 -0.8447 -0.0983 -0.1927
  883MOL0     H19191   9.694   9.774   6.612 -1.1844  0.0803 -0.6402
  883MOL0     H19192   9.463   9.743   6.648  1.7843  2.1693 -0.6898
  883MOL0     H19193   9.304   9.577   7.022 -1.1703  1.0530 -0.7151
  883MOL0     H19194   9.306   9.427   6.917  3.5267  1.0496 -0.9412
  883MOL0     H19195   9.076   9.438   6.909  0.7559  0.5204 -2.0769
  883MOL0     H19196   9.101   9.595   6.818  1.1227 -1.6517 -1.1978
  883MOL0     H19197   9.100   9.706   7.035 -0.0158  0.0818 -2.2480
  883MOL0     H19198   9.066   9.548   7.115 -1.3525  0.6934  0.0437
  883MOL0     H19199   8.872   9.683   7.101  0.4281  2.0511 -0.2560
  883MOL0     H19200   8.874   9.701   6.926  1.6480 -0.9231 -1.0401
  883MOL0     H19201   8.726   9.306   7.001  0.3448 -0.2620  2.4386
  883MOL0     H19202   9.530   9.474   6.979  0.7818 -1.7726 -0.8081
  883MOL0     H19203   9.838   9.559   7.048  1.2515  0.0041 -1.1678
  883MOL0     H19204   9.745   9.412   7.037 -0.0755 -0.2626 -0.2548
  883MOL0     H19205   9.870   9.443   6.914  2.0820 -0.5383  2.7958
  884MOL0     O19206  11.022   7.708   7.475 -0.4257 -0.5637 -0.2000
  884MOL0     C19207  11.054   7.798   7.399  0.4870  0.6918 -0.7975
  884MOL0     O19208  11.170   7.863   7.398  0.4049  0.0561 -0.1997
  884MOL0     C19209  11.267   7.810   7.474 -0.1976 -0.3456 -0.5782
  884MOL0     C19210  11.291   7.874   7.594  0.0045 -0.0668  0.6204
  884MOL0     C19211  11.390   7.831   7.679 -0.3767  0.6101  0.0159
  884MOL0     C19212  11.473   7.732   7.648  0.0057  0.5092  0.3458
  884MOL0     O19213  11.578   7.692   7.726  0.0591  0.3540  0.3158
  884MOL0     C19214  11.627   7.781   7.827  0.4043 -0.2700  0.2510
  884MOL0     C19215  11.734   7.697   7.905  0.0663  0.5487  0.3113
  884MOL0     C19216  11.821   7.590   7.833  0.2383  0.2242 -0.4190
  884MOL0     C19217  11.891   7.517   7.940 -0.7351 -0.6883  0.3014
  884MOL0     C19218  11.995   7.409   7.899  0.0274 -0.0795  0.2269
  884MOL0     C19219  12.012   7.298   8.005 -0.1812  0.4796  0.4698
  884MOL0     C19220  12.045   7.356   8.145 -0.5443  1.2817 -0.0403
  884MOL0     C19221  12.183   7.429   8.163  0.8729  0.8342 -0.4909
  884MOL0     N19222  12.296   7.342   8.127  0.2875 -0.1337 -0.2712
  884MOL0     C19223  12.351   7.336   8.005 -0.3221  0.0798  0.1047
  884MOL0     C19224  12.431   7.229   8.003 -0.3319 -0.9395 -0.4677
  884MOL0     C19225  12.522   7.184   7.896  0.0143 -0.3109 -0.1255
  884MOL0     C19226  12.669   7.178   7.928 -0.1664 -0.3657  0.2909
  884MOL0     C19227  12.746   7.130   7.805  0.6814  0.1882  0.0367
  884MOL0     C19228  12.898   7.099   7.829 -0.2342 -0.3023 -0.0668
  884MOL0     O19229  12.918   6.958   7.883  0.6266 -0.1447  0.6316
  884MOL0     C19230  13.044   6.912   7.893 -0.3520 -0.1287  0.1146
  884MOL0     C19231  13.150   7.000   7.913 -0.0355 -0.5648  0.2758
  884MOL0     C19232  13.278   6.958   7.924  0.4197  0.1831 -0.1800
  884MOL0     C19233  13.314   6.819   7.919  0.3024 -0.4315 -1.0192
  884MOL0     C19234  13.455   6.772   7.924 -0.0789 -0.4810  0.4855
  884MOL0     O19235  13.479   6.640   7.904 -0.6036  0.2496  0.0977
  884MOL0     C19236  13.611   6.595   7.933 -0.0958 -0.8598 -0.6425
  884MOL0     C19237  13.627   6.485   8.017  0.9025 -0.0354  0.3071
  884MOL0     C19238  13.757   6.427   8.025  0.8817 -0.5839  0.3028
  884MOL0     C19239  13.869   6.483   7.968 -0.1959  0.1248  0.0121
  884MOL0     O19240  13.997   6.440   7.965 -0.3882  0.4579  0.4510
  884MOL0     C19241  14.036   6.349   8.068 -0.5867 -0.9647 -0.2028
  884MOL0     C19242  14.195   6.325   8.053 -0.4050 -0.0652 -1.2544
  884MOL0     C19243  14.284   6.453   8.074 -0.4403  0.3152 -0.0566
  884MOL0     C19244  14.279   6.506   8.217 -1.1628 -0.1768 -0.3353
  884MOL0     C19245  14.359   6.629   8.250 -0.0309 -0.1651  0.4092
  884MOL0     C19246  14.505   6.639   8.201  0.4828  0.0757 -0.0527
  884MOL0     C19247  14.560   6.778   8.235 -0.6394  0.0222  0.8667
  884MOL0     C19248  14.718   6.794   8.212 -0.0199  0.4198  0.9239
  884MOL0    Cl19249  14.765   6.761   8.040 -0.1845 -0.7921 -0.0188
  884MOL0     C19250  13.844   6.602   7.889  0.0508  0.7288 -0.2121
  884MOL0     C19251  13.718   6.654   7.867 -0.2108 -0.0535 -0.7602
  884MOL0     O19252  13.538   6.858   7.941 -0.6665  0.1129 -0.4028
  884MOL0     C19253  13.210   6.729   7.901 -0.6488 -0.1579  0.0948
  884MOL0     C19254  13.078   6.774   7.879 -0.4033 -0.5468 -0.3208
  884MOL0     N19255  12.412   7.170   8.131  0.4558  0.0802 -0.2907
  884MOL0     N19256  12.334   7.232   8.199 -0.1592  0.0285 -0.6338
  884MOL0     C19257  11.455   7.669   7.522 -0.5335 -0.5254  0.4641
  884MOL0     C19258  11.354   7.717   7.431 -0.3783  0.6158  0.0436
  884MOL0     C19259  10.947   7.842   7.301 -0.1076  0.3715 -0.7129
  884MOL0     C19260  10.814   7.850   7.351  0.5639  0.5563 -0.1063
  884MOL0     C19261  10.707   7.879   7.265 -0.2869 -0.7586 -0.7930
  884MOL0     C19262  10.729   7.908   7.135 -0.0463  0.5899 -0.8700
  884MOL0     O19263  10.629   7.950   7.050 -0.4874 -0.4736  0.0288
  884MOL0     C19264  10.499   7.908   7.069  0.8408  0.2612  0.4526
  884MOL0     C19265  10.445   7.918   6.920  0.8455 -1.0322  0.5454
  884MOL0     C19266  10.300   7.870   6.902  0.2025  0.3237 -0.4368
  884MOL0     C19267  10.188   7.963   6.949  0.5632  0.8991  0.7751
  884MOL0     C19268  10.057   7.898   6.920 -0.4906 -0.1580 -0.5102
  884MOL0     C19269   9.959   7.834   6.901 -0.3325 -0.5464  0.9541
  884MOL0     C19270  10.865   7.895   7.085 -0.1684  0.1966  0.0222
  884MOL0     C19271  10.976   7.868   7.164  0.0538  0.2738 -0.7332
  884MOL0     C19272  11.114   7.869   7.094  0.3929  0.9559 -1.3412
  884MOL0     H19273  11.236   7.964   7.618  0.7923  0.4791  0.4102
  884MOL0     H19274  11.395   7.888   7.772  0.5971  1.6088 -0.6170
  884MOL0     H19275  11.669   7.871   7.781 -1.8054 -0.2171 -1.8823
  884MOL0     H19276  11.546   7.807   7.896 -0.1198 -0.8411 -0.1352
  884MOL0     H19277  11.663   7.646   7.970 -2.7230  1.5528 -1.7381
  884MOL0     H19278  11.803   7.761   7.962 -3.2941  4.9765 -0.0059
  884MOL0     H19279  11.888   7.650   7.772 -0.5576  1.4380 -0.1420
  884MOL0     H19280  11.757   7.522   7.775  0.2833  1.1825 -1.6183
  884MOL0     H19281  11.952   7.587   7.998 -2.0145  0.2949  0.4971
  884MOL0     H19282  11.809   7.484   8.005  1.1077 -2.9924  1.5974
  884MOL0     H19283  11.961   7.362   7.807 -0.2597  0.5034  0.0310
  884MOL0     H19284  12.092   7.456   7.880  0.0507 -0.7372 -1.4208
  884MOL0     H19285  11.914   7.249   8.010 -0.0133  0.0349 -0.4982
  884MOL0     H19286  12.091   7.230   7.973 -1.8887  0.0134 -3.3700
  884MOL0     H19287  12.043   7.262   8.200 -0.8850  0.0488 -2.0596
  884MOL0     H19288  11.962   7.417   8.183 -0.9230 -0.0005  1.2699
  884MOL0     H19289  12.175   7.520   8.103  2.9680  1.1529 -0.3364
  884MOL0     H19290  12.187   7.468   8.265 -2.7274  0.0549  0.0813
  884MOL0     H19291  12.345   7.411   7.927 -4.5228  0.2997  0.3904
  884MOL0     H19292  12.477   7.088   7.868 -1.0989  0.4677 -1.0721
  884MOL0     H19293  12.497   7.246   7.809 -0.4674 -0.1126  0.1467
  884MOL0     H19294  12.711   7.266   7.978  2.4983 -1.3691 -0.0016
  884MOL0     H19295  12.682   7.104   8.008  3.7242  1.6292  1.7945
  884MOL0     H19296  12.742   7.216   7.737 -2.3626  1.2874  1.4180
  884MOL0     H19297  12.694   7.047   7.757  0.2723  0.5870 -0.2161
  884MOL0     H19298  12.944   7.169   7.899  2.9601 -0.6426 -1.6306
  884MOL0     H19299  12.948   7.117   7.733  2.2819  0.9284  1.3833
  884MOL0     H19300  13.140   7.108   7.916 -0.4565 -0.6204  1.7189
  884MOL0     H19301  13.354   7.035   7.936  1.8097 -1.1326 -0.1835
  884MOL0     H19302  13.536   6.452   8.065  0.2070  1.9586  0.4506
  884MOL0     H19303  13.785   6.335   8.074  2.6644  1.0305  2.5597
  884MOL0     H19304  14.006   6.383   8.168 -2.6171 -0.7485 -0.8449
  884MOL0     H19305  13.986   6.251   8.067 -2.3264 -0.1331  0.6663
  884MOL0     H19306  14.231   6.255   8.128  0.2020  2.5154  1.0407
  884MOL0     H19307  14.219   6.288   7.953  2.0041 -0.7277 -0.4951
  884MOL0     H19308  14.388   6.424   8.056 -0.5718 -1.0915  1.1710
  884MOL0     H19309  14.264   6.540   8.011  3.6810  2.6126  1.3806
  884MOL0     H19310  14.316   6.425   8.280 -0.6917  0.4685  0.2348
  884MOL0     H19311  14.174   6.524   8.243 -0.9627 -1.7925  1.8133
  884MOL0     H19312  14.364   6.650   8.358  2.2317  2.4691 -0.0959
  884MOL0     H19313  14.318   6.722   8.209  2.2415  0.5165 -0.4542
  884MOL0     H19314  14.565   6.558   8.243  1.1524  0.5167 -0.1466
  884MOL0     H19315  14.501   6.629   8.092 -0.7718 -0.6633  0.0304
  884MOL0     H19316  14.531   6.800   8.338  1.4957  0.9174  1.3382
  884MOL0     H19317  14.504   6.841   8.165  0.1043 -0.7114 -0.4421
  884MOL0     H19318  14.754   6.888   8.253 -0.4045  0.3263  1.4844
  884MOL0     H19319  14.770   6.719   8.272  1.2306  0.8565  0.4219
  884MOL0     H19320  13.918   6.652   7.829 -1.5735  2.3268 -0.9827
  884MOL0     H19321  13.700   6.738   7.801 -2.4901 -0.4152 -0.6676
  884MOL0     H19322  13.245   6.626   7.902 -0.9231 -0.2677  2.4190
  884MOL0     H19323  13.003   6.699   7.858  0.0847 -1.3057  0.5742
  884MOL0     H19324  11.506   7.576   7.498 -1.2323 -0.6170 -0.7407
  884MOL0     H19325  11.336   7.670   7.334 -0.4083  2.3629 -0.8456
  884MOL0     H19326  10.783   7.820   7.450  1.2052  3.0085  0.9274
  884MOL0     H19327  10.609   7.868   7.310 -1.2633 -0.3897 -2.7186
  884MOL0     H19328  10.442   7.958   7.148 -0.3400 -0.5152  0.1228
  884MOL0     H19329  10.512   7.803   7.093 -1.5338 -0.1025  0.3966
  884MOL0     H19330  10.517   7.864   6.858 -0.7946 -3.1007  0.3670
  884MOL0     H19331  10.448   8.021   6.882 -4.4334 -1.4173 -1.6981
  884MOL0     H19332  10.300   7.784   6.969  1.0627  1.6396  1.3703
  884MOL0     H19333  10.281   7.844   6.798 -0.7037  0.5630 -0.3419
  884MOL0     H19334  10.207   7.983   7.055  0.9560  2.2428  0.4751
  884MOL0     H19335  10.187   8.059   6.897  0.4738 -1.0326 -3.2057
  884MOL0     H19336   9.886   7.760   6.874  0.3873 -1.0643  0.3933
  884MOL0     H19337  10.879   7.924   6.981  0.5173 -1.2213 -0.3034
  884MOL0     H19338  11.171   7.950   7.141 -2.3662  1.8456  0.7323
  884MOL0     H19339  11.162   7.772   7.110  0.9079  1.5460  1.1376
  884MOL0     H19340  11.099   7.897   6.989 -1.0605  3.0275 -0.6408
  885MOL0     O19341  10.316  11.090   6.508  0.3983 -0.6184 -0.4820
  885MOL0     C19342  10.313  11.000   6.431 -0.3276  0.4420 -0.9889
  885MOL0     O19343  10.420  10.957   6.358  0.2688  0.0779  0.6098
  885MOL0     C19344  10.539  11.035   6.371  0.6416  0.7018  0.7102
  885MOL0     C19345  10.621  11.015   6.485 -1.0290  0.1052  0.4143
  885MOL0     C19346  10.728  11.095   6.507  0.5242  0.7461  0.3574
  885MOL0     C19347  10.762  11.197   6.414  0.6827 -0.1186  0.7919
  885MOL0     O19348  10.857  11.293   6.438  0.4974  0.0436  0.1163
  885MOL0     C19349  10.995  11.239   6.445 -0.3425  0.2424 -0.9182
  885MOL0     C19350  11.104  11.344   6.454 -0.3436 -0.7417  0.6324
  885MOL0     C19351  11.242  11.284   6.461 -1.3892 -0.4599 -0.2758
  885MOL0     C19352  11.347  11.395   6.480  0.5305 -1.1001  1.3436
  885MOL0     C19353  11.354  11.489   6.362 -0.3003 -0.3887 -0.3702
  885MOL0     C19354  11.458  11.608   6.369  0.7265 -0.0452  0.2415
  885MOL0     C19355  11.459  11.679   6.505 -0.7869  0.7399  0.4008
  885MOL0     C19356  11.551  11.799   6.507  0.9508  0.6970 -0.1398
  885MOL0     N19357  11.522  11.863   6.631  0.7208 -0.3947 -0.6649
  885MOL0     C19358  11.407  11.920   6.672  0.5574  0.2554  0.3836
  885MOL0     C19359  11.421  11.969   6.791 -0.0406 -0.1147 -0.4970
  885MOL0     C19360  11.322  12.054   6.867  0.1749 -0.6037  0.3529
  885MOL0     C19361  11.172  12.048   6.821 -0.6079  0.2243  0.1627
  885MOL0     C19362  11.094  11.917   6.860 -0.8927  0.3755 -0.0677
  885MOL0     C19363  10.943  11.927   6.824 -0.1762  0.5656 -0.3132
  885MOL0     O19364  10.868  11.830   6.899 -0.0620 -0.5433 -0.1372
  885MOL0     C19365  10.731  11.846   6.891 -0.1789  0.7104  0.4124
  885MOL0     C19366  10.657  11.762   6.972 -0.7180 -0.0758  0.1081
  885MOL0     C19367  10.509  11.758   6.969 -0.3316 -0.3818 -0.4443
  885MOL0     C19368  10.438  11.833   6.882  0.0769  0.3837 -0.2874
  885MOL0     C19369  10.295  11.841   6.883 -0.4128  0.1496  0.4160
  885MOL0     O19370  10.244  11.874   6.757  0.6561  0.0994  0.0700
  885MOL0     C19371  10.108  11.892   6.748 -0.0099 -0.3238 -0.3301
  885MOL0     C19372  10.027  11.992   6.811  0.2763  0.0679 -0.3533
  885MOL0     C19373   9.879  11.987   6.801 -1.0323 -0.0319 -0.0898
  885MOL0     C19374   9.812  11.903   6.721 -0.0055 -0.6933  0.8373
  885MOL0     O19375   9.678  11.905   6.714  0.3324  0.2782  0.1096
  885MOL0     C19376   9.610  11.926   6.591 -0.3419  0.9834  0.3371
  885MOL0     C19377   9.585  11.791   6.511 -0.4506 -0.0632  0.2493
  885MOL0     C19378   9.513  11.821   6.377  0.2391  0.0838  0.8594
  885MOL0     C19379   9.480  11.690   6.302  0.0793  0.1329 -0.1437
  885MOL0     C19380   9.595  11.646   6.223  0.5318  0.8951  0.5319
  885MOL0     C19381   9.563  11.525   6.135  0.3181  0.7654  0.1435
  885MOL0     C19382   9.450  11.556   6.028  0.6069 -0.6798 -0.0809
  885MOL0     C19383   9.454  11.467   5.908  0.4565  0.0535 -0.6700
  885MOL0    Cl19384   9.319  11.479   5.802  0.0497  0.0055  0.0236
  885MOL0     C19385   9.897  11.807   6.658 -0.6573  0.4934 -0.6257
  885MOL0     C19386  10.037  11.798   6.677  0.3800  0.4300 -0.1699
  885MOL0     O19387  10.231  11.807   6.981 -0.5678 -0.3976  0.0561
  885MOL0     C19388  10.515  11.912   6.796 -0.3384 -0.7428  0.2403
  885MOL0     C19389  10.658  11.914   6.793  0.4533  0.1146 -0.3983
  885MOL0     N19390  11.548  11.927   6.826 -0.4148 -0.2994  0.1126
  885MOL0     N19391  11.607  11.862   6.732  0.0285  0.6561 -0.6910
  885MOL0     C19392  10.699  11.191   6.286  0.4207  0.2109 -0.0299
  885MOL0     C19393  10.577  11.116   6.267 -0.5626 -0.8640  0.5076
  885MOL0     C19394  10.191  10.916   6.418 -1.1487  0.4462  0.5328
  885MOL0     C19395  10.204  10.794   6.350 -0.4627 -0.2236  0.1845
  885MOL0     C19396  10.093  10.716   6.324 -0.1687 -0.3370  0.4599
  885MOL0     C19397   9.961  10.751   6.361 -0.3480  0.1911 -0.5873
  885MOL0     O19398   9.852  10.672   6.325 -0.7442  0.5035 -0.7315
  885MOL0     C19399   9.722  10.692   6.384  0.6715 -0.4558  0.8872
  885MOL0     C19400   9.630  10.612   6.287  0.5244 -1.0467  0.0132
  885MOL0     C19401   9.652  10.464   6.307 -0.0203 -0.5044  0.8313
  885MOL0     C19402   9.567  10.374   6.214  0.4881  0.0858 -1.0506
  885MOL0     C19403   9.423  10.398   6.228 -0.4105 -0.7745  0.1382
  885MOL0     C19404   9.300  10.421   6.246  0.2771  0.1502  0.0237
  885MOL0     C19405   9.947  10.870   6.435  0.3101  0.1753  0.0136
  885MOL0     C19406  10.061  10.955   6.450  0.6209 -0.0049  1.0056
  885MOL0     C19407  10.039  11.096   6.502  0.2884  0.2237 -0.3858
  885MOL0     H19408  10.601  10.938   6.559 -1.6486 -0.1606 -0.0203
  885MOL0     H19409  10.785  11.093   6.600 -0.4484 -0.5839  0.9439
  885MOL0     H19410  11.007  11.169   6.527  0.9324  2.5667  1.0143
  885MOL0     H19411  11.014  11.186   6.352 -0.7066 -0.7988 -0.4101
  885MOL0     H19412  11.085  11.404   6.543 -0.2160  0.4859 -0.1368
  885MOL0     H19413  11.106  11.407   6.364 -0.1297  0.6339  1.5756
  885MOL0     H19414  11.269  11.221   6.376  0.7073  0.4370 -0.3516
  885MOL0     H19415  11.249  11.233   6.557  2.1171  1.5903  0.7099
  885MOL0     H19416  11.319  11.456   6.567 -3.0880  1.5798 -1.4278
  885MOL0     H19417  11.442  11.342   6.497 -0.1496 -3.1011 -0.6242
  885MOL0     H19418  11.372  11.430   6.271 -4.0235 -0.1839 -1.3861
  885MOL0     H19419  11.266  11.550   6.342  0.7477  1.7349  1.0250
  885MOL0     H19420  11.558  11.565   6.368  0.1495 -1.6810  2.5604
  885MOL0     H19421  11.447  11.672   6.281 -0.5858 -1.8919 -1.0208
  885MOL0     H19422  11.506  11.606   6.571  1.1920  2.3232  0.8196
  885MOL0     H19423  11.354  11.707   6.521 -1.3337  0.1443 -1.7971
  885MOL0     H19424  11.657  11.773   6.502  1.7302  3.7529 -2.8228
  885MOL0     H19425  11.511  11.859   6.424  1.0744 -2.3102 -2.5486
  885MOL0     H19426  11.316  11.941   6.617 -0.6102 -2.1379  1.2705
  885MOL0     H19427  11.312  12.020   6.971 -1.8060 -0.3179  0.3005
  885MOL0     H19428  11.348  12.159   6.854 -1.4903 -0.3881 -1.8421
  885MOL0     H19429  11.110  12.132   6.852 -0.8444 -0.5082  1.7357
  885MOL0     H19430  11.176  12.057   6.712  0.1963 -0.4830  0.1272
  885MOL0     H19431  11.105  11.889   6.965 -1.2331  0.8939  0.1091
  885MOL0     H19432  11.143  11.838   6.801  0.4839  0.5266  0.8426
  885MOL0     H19433  10.927  11.908   6.717 -2.2231 -0.8514  0.1831
  885MOL0     H19434  10.919  12.030   6.855  1.3574  0.2630  2.1154
  885MOL0     H19435  10.708  11.700   7.045 -0.5100 -0.1596 -0.1092
  885MOL0     H19436  10.444  11.692   7.025 -1.4444 -0.0138 -1.2871
  885MOL0     H19437  10.082  12.060   6.876 -0.2544  0.4159 -0.2576
  885MOL0     H19438   9.834  12.069   6.855  0.3389  0.2223  0.7224
  885MOL0     H19439   9.513  11.960   6.629 -0.3731 -0.1503  1.3484
  885MOL0     H19440   9.663  12.001   6.531 -0.8526  0.5868 -0.6377
  885MOL0     H19441   9.672  11.728   6.492 -0.3358  0.3135 -0.4718
  885MOL0     H19442   9.523  11.724   6.571  1.0351 -2.5561 -0.8585
  885MOL0     H19443   9.426  11.885   6.394  0.3780  0.4169  0.3474
  885MOL0     H19444   9.569  11.885   6.307 -1.8956  0.7548 -0.3135
  885MOL0     H19445   9.390  11.707   6.242  0.5434  3.5448 -0.0776
  885MOL0     H19446   9.460  11.616   6.379 -1.2969 -1.0748 -1.5856
  885MOL0     H19447   9.682  11.625   6.287 -0.2315 -2.7708  0.6181
  885MOL0     H19448   9.637  11.724   6.159 -0.3812  0.3059 -0.8427
  885MOL0     H19449   9.654  11.491   6.084 -0.3940 -0.1314 -0.5464
  885MOL0     H19450   9.534  11.439   6.195  1.1170  1.7453  2.0373
  885MOL0     H19451   9.460  11.662   6.001  1.5905 -0.6497  0.3463
  885MOL0     H19452   9.355  11.557   6.081  1.4930  1.8793  1.6455
  885MOL0     H19453   9.549  11.503   5.866  0.2454  0.7459 -0.5601
  885MOL0     H19454   9.465  11.364   5.943  3.1084  1.9166  5.2691
  885MOL0     H19455   9.859  11.724   6.598  0.8350  0.4254 -1.5204
  885MOL0     H19456  10.088  11.715   6.629 -2.1125  0.5527 -3.3553
  885MOL0     H19457  10.474  11.980   6.723 -0.4774 -1.5261 -0.4263
  885MOL0     H19458  10.699  11.981   6.718 -1.2668 -1.0905 -2.5273
  885MOL0     H19459  10.743  11.243   6.202  0.0895  0.0877 -0.2780
  885MOL0     H19460  10.533  11.128   6.168 -0.1481  2.4372  0.5917
  885MOL0     H19461  10.298  10.750   6.317  0.8996  1.6214  1.4655
  885MOL0     H19462  10.109  10.624   6.268  3.0599  0.8624 -0.8387
  885MOL0     H19463   9.696  10.798   6.386  2.4274 -0.0071  2.1056
  885MOL0     H19464   9.718  10.659   6.488  1.2090 -2.4737  0.3141
  885MOL0     H19465   9.655  10.632   6.183 -0.8023 -1.9298 -0.5051
  885MOL0     H19466   9.525  10.634   6.312  0.2186  0.0675 -2.0579
  885MOL0     H19467   9.620  10.438   6.409  0.4768  1.8718  1.6665
  885MOL0     H19468   9.759  10.448   6.289 -0.1687  1.7800 -3.1401
  885MOL0     H19469   9.604  10.391   6.113  0.2208 -1.1297 -1.3696
  885MOL0     H19470   9.577  10.268   6.240 -0.4412 -0.3989 -2.5666
  885MOL0     H19471   9.199  10.436   6.279 -1.0231 -5.9873 -0.0240
  885MOL0     H19472   9.855  10.904   6.482  1.1215  0.3327  1.5655
  885MOL0     H19473  10.089  11.168   6.436  2.4268  0.5718  1.4726
  885MOL0     H19474   9.936  11.131   6.504  0.1136 -0.0384 -2.6713
  885MOL0     H19475  10.086  11.110   6.600 -0.3750 -0.5275  0.0509
  886MOL0     O19476   0.472   6.697   3.473  0.1404  0.1364 -0.2462
  886MOL0     C19477   0.423   6.777   3.393  0.2356 -0.9568 -0.1084
  886MOL0     O19478   0.483   6.888   3.347 -0.1041  0.5891  0.5719
  886MOL0     C19479   0.616   6.912   3.355  0.4779  0.3465 -0.9877
  886MOL0     C19480   0.712   6.812   3.333  0.6223  0.5121  0.0551
  886MOL0     C19481   0.846   6.838   3.353 -0.5441  0.4670 -0.3998
  886MOL0     C19482   0.891   6.956   3.407 -0.3314 -0.2195  0.3665
  886MOL0     O19483   1.027   6.965   3.435  0.1403  0.3061 -0.2951
  886MOL0     C19484   1.062   7.094   3.495 -0.8376 -0.1197 -0.1034
  886MOL0     C19485   1.212   7.081   3.530  0.3078 -0.2489 -0.9583
  886MOL0     C19486   1.237   7.213   3.598  0.5387  0.7025 -0.1805
  886MOL0     C19487   1.390   7.232   3.621  0.4386 -0.6199 -0.5885
  886MOL0     C19488   1.413   7.365   3.697 -0.2361  0.6675 -0.2237
  886MOL0     C19489   1.370   7.482   3.606 -0.3244  0.3351 -0.5451
  886MOL0     C19490   1.414   7.623   3.659  0.5374 -0.2014  0.4641
  886MOL0     C19491   1.371   7.737   3.576 -0.6906 -0.3653 -0.7416
  886MOL0     N19492   1.396   7.862   3.641  0.4895 -0.2819  0.0637
  886MOL0     C19493   1.516   7.931   3.635  0.0572 -0.0373  0.1212
  886MOL0     C19494   1.489   8.042   3.699  0.0739 -0.5453  0.7899
  886MOL0     C19495   1.570   8.164   3.739 -0.0064  0.0499  0.5814
  886MOL0     C19496   1.721   8.167   3.708  0.7443 -0.4194 -0.5780
  886MOL0     C19497   1.780   8.316   3.712 -1.0450  0.0602  0.0894
  886MOL0     C19498   1.804   8.375   3.853 -0.1510 -0.4120  0.1272
  886MOL0     O19499   1.883   8.498   3.852  0.8491  0.0419  0.3556
  886MOL0     C19500   2.023   8.487   3.865  0.4573  0.1071 -0.7160
  886MOL0     C19501   2.097   8.371   3.865 -0.0483  0.2734  0.0736
  886MOL0     C19502   2.236   8.376   3.870 -0.1783  0.5998 -0.2722
  886MOL0     C19503   2.303   8.498   3.873  0.0024  0.3878 -0.1706
  886MOL0     C19504   2.453   8.502   3.874  0.1521  0.1517 -0.3087
  886MOL0     O19505   2.517   8.373   3.885 -0.3517 -0.6082 -0.0818
  886MOL0     C19506   2.656   8.365   3.924 -0.1095 -0.6176 -0.3080
  886MOL0     C19507   2.747   8.392   3.833  0.7063 -0.3120 -0.1110
  886MOL0     C19508   2.879   8.356   3.859  0.3231  0.5702  0.7904
  886MOL0     C19509   2.915   8.300   3.978  0.3878 -0.5278 -0.0383
  886MOL0     O19510   3.044   8.258   3.997  0.0411  0.0549 -0.5843
  886MOL0     C19511   3.099   8.242   4.133 -0.0794 -0.1770  0.8084
  886MOL0     C19512   3.114   8.094   4.164  0.3822  0.0189 -0.1400
  886MOL0     C19513   3.208   8.022   4.057 -0.4353  0.6341 -0.4051
  886MOL0     C19514   3.353   8.029   4.102  0.1193  0.7134 -0.6775
  886MOL0     C19515   3.462   7.965   4.011 -0.1071  0.4585 -0.2325
  886MOL0     C19516   3.596   8.030   4.010 -0.4556  0.2653 -0.6848
  886MOL0     C19517   3.693   7.925   3.952  0.1226  0.2479  0.1999
  886MOL0     C19518   3.834   7.981   3.943  0.5506  0.2919  0.3025
  886MOL0    Cl19519   3.952   7.841   3.910  0.3670  0.3123  0.0709
  886MOL0     C19520   2.815   8.268   4.077 -0.3539 -0.1622  0.3403
  886MOL0     C19521   2.682   8.300   4.045 -0.3507 -0.2550 -0.1861
  886MOL0     O19522   2.505   8.616   3.879  0.5501 -0.2336  0.5148
  886MOL0     C19523   2.229   8.613   3.863  0.0891 -0.0727  0.5667
  886MOL0     C19524   2.093   8.608   3.868 -0.3518  0.1594  0.6342
  886MOL0     N19525   1.359   8.039   3.746 -0.0488 -0.4317  0.2063
  886MOL0     N19526   1.307   7.924   3.727 -0.8610  0.1925 -0.2572
  886MOL0     C19527   0.793   7.055   3.424 -0.0831  0.5617 -0.6446
  886MOL0     C19528   0.655   7.032   3.407  0.6536  0.0900 -0.3559
  886MOL0     C19529   0.273   6.776   3.400 -0.8369 -0.0764  0.0975
  886MOL0     C19530   0.214   6.818   3.523  0.0710 -0.5397 -0.0031
  886MOL0     C19531   0.081   6.836   3.544 -0.0422 -0.4593  0.8258
  886MOL0     C19532  -0.003   6.809   3.431  0.3942 -0.1171 -0.0374
  886MOL0     O19533  -0.131   6.831   3.414 -1.0101  0.3058 -0.0201
  886MOL0     C19534  -0.205   6.857   3.538  0.3499 -0.8971 -0.1152
  886MOL0     C19535  -0.351   6.860   3.508  0.3183 -0.8178  0.8652
  886MOL0     C19536  -0.430   6.912   3.629  0.2355  0.3596 -0.6036
  886MOL0     C19537  -0.592   6.890   3.602  0.4091 -0.2321 -0.3794
  886MOL0     C19538  -0.667   6.961   3.708  0.4228 -0.1757  0.6186
  886MOL0     C19539  -0.738   7.034   3.775 -0.0380  0.0308  0.6741
  886MOL0     C19540   0.058   6.774   3.309 -1.2605 -0.4291 -0.4093
  886MOL0     C19541   0.198   6.764   3.291  0.2524  0.3186 -0.4077
  886MOL0     C19542   0.256   6.730   3.156 -0.4314 -0.5349  0.0517
  886MOL0     H19543   0.680   6.718   3.287 -0.7863  1.6652 -1.4601
  886MOL0     H19544   0.919   6.763   3.325 -0.6618  0.5701 -0.9989
  886MOL0     H19545   1.048   7.186   3.438 -1.4246 -0.1130  0.0467
  886MOL0     H19546   1.010   7.106   3.590 -1.2959  1.3699 -0.5144
  886MOL0     H19547   1.276   7.074   3.441 -0.9713 -3.2227 -1.7515
  886MOL0     H19548   1.243   6.992   3.586 -1.3874  0.9138  2.0270
  886MOL0     H19549   1.184   7.217   3.693  0.5829 -0.7617 -0.0672
  886MOL0     H19550   1.198   7.295   3.537 -4.5938  2.0736  4.1926
  886MOL0     H19551   1.432   7.148   3.675  0.3651  1.1418  2.4176
  886MOL0     H19552   1.446   7.228   3.527  2.0642 -3.4272  0.3834
  886MOL0     H19553   1.361   7.361   3.793  2.5745  1.4999  1.4501
  886MOL0     H19554   1.519   7.368   3.723 -0.9855  0.2240  3.3990
  886MOL0     H19555   1.400   7.473   3.501 -2.7619 -0.3659 -1.2497
  886MOL0     H19556   1.261   7.481   3.600 -0.4159  0.5266  0.7554
  886MOL0     H19557   1.522   7.620   3.674  0.2403 -2.3745  2.7596
  886MOL0     H19558   1.370   7.634   3.758  0.0028 -0.1147  0.2220
  886MOL0     H19559   1.440   7.733   3.491 -0.1731  1.8980 -0.4839
  886MOL0     H19560   1.269   7.731   3.535 -1.1364 -1.3797  0.4594
  886MOL0     H19561   1.614   7.901   3.600  0.1209 -2.1332  1.9010
  886MOL0     H19562   1.520   8.253   3.701  2.4506  2.2274  2.0168
  886MOL0     H19563   1.558   8.174   3.848 -0.6661 -1.9827  0.7284
  886MOL0     H19564   1.775   8.111   3.786  0.4744  1.0689  0.7245
  886MOL0     H19565   1.736   8.120   3.610  0.0355  0.3938 -1.0917
  886MOL0     H19566   1.718   8.376   3.645 -0.9029 -2.2017 -2.2157
  886MOL0     H19567   1.873   8.311   3.655 -1.1786 -0.8231 -0.0645
  886MOL0     H19568   1.841   8.305   3.928  0.3497 -1.0104 -0.6677
  886MOL0     H19569   1.704   8.401   3.890 -0.2874  0.2217 -0.6678
  886MOL0     H19570   2.039   8.281   3.850  0.1448  0.3709 -1.3657
  886MOL0     H19571   2.286   8.284   3.900  0.2694  0.0983 -2.3496
  886MOL0     H19572   2.716   8.425   3.734 -0.2719  1.1840  0.6454
  886MOL0     H19573   2.952   8.375   3.782 -1.7529  1.0307 -1.1597
  886MOL0     H19574   3.196   8.294   4.139 -0.6873  1.0863  0.0085
  886MOL0     H19575   3.028   8.267   4.211  1.2499  1.6981  1.4858
  886MOL0     H19576   3.147   8.093   4.268  0.1658  0.6900 -0.0606
  886MOL0     H19577   3.014   8.051   4.161  0.1409  0.3108  2.0176
  886MOL0     H19578   3.177   7.918   4.052  0.3362  0.3423  0.5413
  886MOL0     H19579   3.194   8.071   3.960 -0.5897 -0.8822 -1.1706
  886MOL0     H19580   3.367   7.991   4.204 -0.6700  0.3674 -0.6891
  886MOL0     H19581   3.364   8.138   4.101 -0.9206  0.8509  0.4514
  886MOL0     H19582   3.437   7.954   3.905 -3.1105  1.4132  0.2799
  886MOL0     H19583   3.472   7.861   4.045 -2.4646  0.7317  1.5549
  886MOL0     H19584   3.595   8.104   3.930  0.7083 -1.0300 -1.9406
  886MOL0     H19585   3.625   8.074   4.106  0.2046 -0.4720 -0.5413
  886MOL0     H19586   3.667   7.890   3.852  0.9930 -2.9419  0.9898
  886MOL0     H19587   3.687   7.833   4.011 -0.2666 -0.5759 -1.0909
  886MOL0     H19588   3.834   8.062   3.870  2.6176 -1.5396 -1.9134
  886MOL0     H19589   3.863   8.020   4.041 -0.0990 -1.5603  1.2745
  886MOL0     H19590   2.837   8.222   4.173 -2.2383 -0.3212  0.7324
  886MOL0     H19591   2.602   8.268   4.110 -0.3430  3.2480  1.8196
  886MOL0     H19592   2.286   8.706   3.864  2.4247 -1.4108  1.9986
  886MOL0     H19593   2.029   8.696   3.863 -0.2305  0.2417  0.5078
  886MOL0     H19594   0.822   7.154   3.457  3.0725 -0.4851  0.0010
  886MOL0     H19595   0.582   7.111   3.424  2.6075  2.0531 -0.5617
  886MOL0     H19596   0.289   6.841   3.598  0.9478 -1.7141 -0.4859
  886MOL0     H19597   0.041   6.874   3.638 -2.0682  1.9623 -0.8858
  886MOL0     H19598  -0.181   6.962   3.558 -1.0875 -0.0369 -2.4480
  886MOL0     H19599  -0.188   6.785   3.618 -1.4498 -0.8654  0.3328
  886MOL0     H19600  -0.378   6.755   3.492 -3.3938 -0.2342  2.3621
  886MOL0     H19601  -0.365   6.919   3.417  1.7107 -0.3951  0.8996
  886MOL0     H19602  -0.421   7.021   3.640  0.3746  0.4619 -1.5978
  886MOL0     H19603  -0.397   6.864   3.721  0.1851 -1.9297 -1.7002
  886MOL0     H19604  -0.619   6.937   3.506 -0.3405 -0.7306 -0.4152
  886MOL0     H19605  -0.608   6.782   3.602 -0.3699 -0.1222 -0.7629
  886MOL0     H19606  -0.808   7.083   3.840 -0.7886 -2.7239  2.1188
  886MOL0     H19607  -0.002   6.753   3.222  0.8345 -2.1279 -1.5385
  886MOL0     H19608   0.296   6.629   3.147  0.2553 -0.3297  0.7081
  886MOL0     H19609   0.181   6.752   3.080 -0.8371 -0.1509  0.5582
  886MOL0     H19610   0.331   6.800   3.119  2.8723 -2.2873  2.8026
  887MOL0     O19611   7.090   8.864  11.272  0.0550 -0.2583 -0.8530
  887MOL0     C19612   7.041   8.948  11.348  0.8078  0.6234 -0.2745
  887MOL0     O19613   7.087   8.992  11.462 -0.2415  0.7470  0.1674
  887MOL0     C19614   7.222   8.977  11.483  1.0222  0.2906 -1.0518
  887MOL0     C19615   7.263   8.939  11.616 -0.4144  0.8357  0.1817
  887MOL0     C19616   7.400   8.920  11.651 -1.0418 -0.3730 -0.1297
  887MOL0     C19617   7.500   8.948  11.551 -0.6603 -0.6718 -0.1469
  887MOL0     O19618   7.641   8.937  11.563  0.2275 -0.4698 -0.7594
  887MOL0     C19619   7.687   8.921  11.700  0.4414 -0.2916 -0.6873
  887MOL0     C19620   7.685   8.775  11.754  0.1765 -0.2204 -0.7409
  887MOL0     C19621   7.811   8.698  11.723 -0.5685 -0.0281 -1.3489
  887MOL0     C19622   7.909   8.703  11.857  0.3516 -0.1178 -0.3705
  887MOL0     C19623   8.047   8.641  11.830  0.6046  0.1075  0.7848
  887MOL0     C19624   8.094   8.589  11.961  0.3793 -0.2945  0.0624
  887MOL0     C19625   8.246   8.580  11.997 -0.6664 -0.7732  0.4523
  887MOL0     C19626   8.330   8.700  11.947 -0.4839 -0.8768 -0.3289
  887MOL0     N19627   8.482   8.681  11.950  0.2023 -0.0039 -0.4109
  887MOL0     C19628   8.578   8.753  12.022  0.8709 -0.2294  0.4218
  887MOL0     C19629   8.692   8.688  11.988 -0.0092 -0.1539 -0.9282
  887MOL0     C19630   8.831   8.724  12.032  0.3426 -0.5185  0.0180
  887MOL0     C19631   8.853   8.882  12.014 -0.5502  0.6255 -0.5188
  887MOL0     C19632   9.003   8.926  12.041  0.1468  0.0307 -0.6187
  887MOL0     C19633   9.027   9.073  12.032 -0.3392 -0.1466 -0.4515
  887MOL0     O19634   9.168   9.110  12.058  0.0199  0.2636  0.1648
  887MOL0     C19635   9.223   9.226  12.006 -0.0842  0.7216  0.4877
  887MOL0     C19636   9.136   9.329  11.950  0.0260  0.4201 -0.8057
  887MOL0     C19637   9.195   9.434  11.880 -0.7291 -0.2008  0.3666
  887MOL0     C19638   9.339   9.438  11.864  0.7480 -1.3635  0.8312
  887MOL0     C19639   9.400   9.559  11.799  0.0122 -0.5644  0.4604
  887MOL0     O19640   9.535   9.588  11.824  0.2683 -0.6169 -0.3730
  887MOL0     C19641   9.595   9.675  11.741  0.5943 -1.0045  1.0231
  887MOL0     C19642   9.708   9.740  11.791  0.3281 -0.4537 -0.3728
  887MOL0     C19643   9.779   9.836  11.720  0.9664 -0.6233 -0.2286
  887MOL0     C19644   9.742   9.859  11.594  0.3557 -0.7527  0.6518
  887MOL0     O19645   9.829   9.942  11.528  0.9592 -0.9207  0.0242
  887MOL0     C19646   9.810   9.951  11.384  0.2042 -0.8668  0.8860
  887MOL0     C19647   9.902  10.044  11.327 -0.1691  0.4875 -0.0737
  887MOL0     C19648  10.042  10.004  11.347  0.4333  0.5362 -0.0765
  887MOL0     C19649  10.134  10.096  11.279 -0.6636  0.0320 -0.1571
  887MOL0     C19650  10.283  10.088  11.327 -0.5354  0.3344 -0.7392
  887MOL0     C19651  10.366  10.200  11.251 -0.1410  0.1015 -0.4373
  887MOL0     C19652  10.508  10.210  11.309  0.3899 -0.7981  0.1412
  887MOL0     C19653  10.581  10.337  11.256  0.2381  0.8069 -0.1076
  887MOL0    Cl19654  10.611  10.324  11.079  0.0650  0.0572 -0.1255
  887MOL0     C19655   9.636   9.800  11.530 -0.0694  0.0246 -0.6528
  887MOL0     C19656   9.560   9.704  11.605  0.2948  0.1921  0.3343
  887MOL0     O19657   9.316   9.630  11.741 -0.0404 -0.4967  0.7638
  887MOL0     C19658   9.416   9.346  11.930 -0.9055  0.0584 -0.4871
  887MOL0     C19659   9.360   9.240  11.996 -0.0709  0.2719  0.6566
  887MOL0     N19660   8.670   8.583  11.902 -0.1073 -0.4988 -0.6832
  887MOL0     N19661   8.540   8.581  11.881 -0.2078  0.2997 -0.5079
  887MOL0     C19662   7.461   8.998  11.427  0.2172 -0.4213 -1.0557
  887MOL0     C19663   7.326   9.021  11.401 -0.1293  0.0957 -0.0505
  887MOL0     C19664   6.914   9.017  11.298 -0.2232 -1.0501  0.2984
  887MOL0     C19665   6.920   9.156  11.274  0.0830 -0.0599  0.4173
  887MOL0     C19666   6.808   9.229  11.230 -0.2930 -0.2332 -0.6671
  887MOL0     C19667   6.689   9.160  11.205 -0.2666 -0.0986  0.0779
  887MOL0     O19668   6.586   9.243  11.166  0.6811  0.2378  0.2483
  887MOL0     C19669   6.449   9.193  11.155  0.0648  0.5675 -0.1176
  887MOL0     C19670   6.369   9.181  11.283  0.4080 -0.2568 -1.0346
  887MOL0     C19671   6.353   9.312  11.368 -0.4626 -0.4918 -0.8261
  887MOL0     C19672   6.247   9.291  11.481  1.0578 -0.1862 -0.2736
  887MOL0     C19673   6.253   9.407  11.571 -0.0175 -0.5038  0.1830
  887MOL0     C19674   6.255   9.501  11.638  0.4038 -0.6595 -0.6573
  887MOL0     C19675   6.686   9.023  11.210 -0.4224  1.2649 -1.1130
  887MOL0     C19676   6.796   8.951  11.257  0.1946  0.3101  0.3389
  887MOL0     C19677   6.779   8.798  11.256  0.6207 -0.4105  0.5916
  887MOL0     H19678   7.195   8.908  11.695 -2.5773 -6.0763 -3.5769
  887MOL0     H19679   7.431   8.881  11.747 -0.5390  0.8675  0.2355
  887MOL0     H19680   7.790   8.960  11.705  1.0348 -1.5692 -2.1321
  887MOL0     H19681   7.619   8.979  11.763  1.1185 -0.7286  0.4717
  887MOL0     H19682   7.589   8.733  11.723 -0.1383  1.4911 -2.2447
  887MOL0     H19683   7.672   8.790  11.861 -2.0428 -2.3795 -0.5968
  887MOL0     H19684   7.862   8.737  11.634  1.8673 -1.8022 -0.8115
  887MOL0     H19685   7.790   8.593  11.703 -1.7075 -0.1560  0.3085
  887MOL0     H19686   7.921   8.807  11.888 -0.5767 -1.4757  5.8958
  887MOL0     H19687   7.852   8.646  11.930 -2.3195  0.5052 -1.8410
  887MOL0     H19688   8.038   8.561  11.756 -3.9621  1.1248 -0.1077
  887MOL0     H19689   8.108   8.720  11.786 -1.9862  1.2664 -1.0083
  887MOL0     H19690   8.063   8.656  12.042  0.9026 -0.7061  0.6061
  887MOL0     H19691   8.046   8.495  11.990  0.2049  0.0295  0.8494
  887MOL0     H19692   8.280   8.488  11.949  2.9665  1.0387 -0.8391
  887MOL0     H19693   8.260   8.560  12.104  0.0426  1.1067  0.7411
  887MOL0     H19694   8.313   8.705  11.839  1.9255 -2.2372 -0.8545
  887MOL0     H19695   8.306   8.791  12.002 -2.2110 -2.4170  1.5973
  887MOL0     H19696   8.560   8.838  12.087 -0.5661  0.2623 -0.5507
  887MOL0     H19697   8.844   8.694  12.136  2.8157  1.4769  0.3708
  887MOL0     H19698   8.896   8.656  11.977 -1.5614 -2.4538  0.0136
  887MOL0     H19699   8.821   8.900  11.911  0.3239 -1.7347 -1.2747
  887MOL0     H19700   8.780   8.924  12.083 -0.0467 -1.3157  1.2829
  887MOL0     H19701   9.075   8.878  11.975  0.2644  0.5806 -0.8958
  887MOL0     H19702   9.030   8.897  12.143 -1.7699 -0.9759 -0.3482
  887MOL0     H19703   8.959   9.131  12.095 -0.6459 -2.8107  1.8769
  887MOL0     H19704   9.000   9.101  11.930  1.4390  1.4710 -0.5541
  887MOL0     H19705   9.028   9.314  11.951  0.0642 -0.2280  2.0597
  887MOL0     H19706   9.131   9.507  11.831 -0.8206 -2.2732 -2.9098
  887MOL0     H19707   9.728   9.724  11.897 -0.7656 -3.4657 -0.5383
  887MOL0     H19708   9.858   9.894  11.764  0.4280 -0.3682  0.4152
  887MOL0     H19709   9.842   9.857  11.337 -0.0167 -1.9748  2.8508
  887MOL0     H19710   9.709   9.971  11.347  0.1909 -2.2167  0.1390
  887MOL0     H19711   9.880  10.052  11.221 -0.7893  0.6242  0.0600
  887MOL0     H19712   9.890  10.144  11.371 -1.4397  1.6265 -2.7956
  887MOL0     H19713  10.066  10.024  11.452  2.5939  0.9148 -0.5919
  887MOL0     H19714  10.055   9.901  11.312 -3.0000  0.4478 -1.4358
  887MOL0     H19715  10.104  10.198  11.303 -2.2347 -0.7137  1.2890
  887MOL0     H19716  10.129  10.084  11.171  0.6244 -1.1000 -0.1235
  887MOL0     H19717  10.324   9.988  11.311 -1.5213 -0.3513  0.7485
  887MOL0     H19718  10.283  10.103  11.436 -1.3764 -1.8384 -0.3890
  887MOL0     H19719  10.377  10.179  11.145 -0.2841 -0.3348 -0.3667
  887MOL0     H19720  10.313  10.295  11.267 -1.3081 -0.5265 -0.5098
  887MOL0     H19721  10.572  10.124  11.287  1.2588 -0.2350  0.3865
  887MOL0     H19722  10.492  10.229  11.415 -1.0784 -3.4127  0.4537
  887MOL0     H19723  10.529  10.428  11.286  0.4812  1.5623 -1.8905
  887MOL0     H19724  10.676  10.343  11.310 -0.0749  1.5207  0.3804
  887MOL0     H19725   9.617   9.811  11.424 -1.6885 -2.7587 -0.7608
  887MOL0     H19726   9.475   9.658  11.556  0.2722  0.5910 -0.0054
  887MOL0     H19727   9.525   9.346  11.924 -0.8141 -2.1515  0.2878
  887MOL0     H19728   9.414   9.150  12.024  1.1372  0.7092 -0.1926
  887MOL0     H19729   7.533   9.037  11.356  0.1671  1.4329 -0.1591
  887MOL0     H19730   7.303   9.063  11.304 -0.1541  0.8539  0.2804
  887MOL0     H19731   7.010   9.213  11.295  1.2506 -2.3995  2.3771
  887MOL0     H19732   6.805   9.337  11.227 -2.0009 -0.2403 -0.4039
  887MOL0     H19733   6.450   9.103  11.094  2.5983  0.8271 -0.5947
  887MOL0     H19734   6.404   9.276  11.100 -0.0322  0.4301 -0.2459
  887MOL0     H19735   6.420   9.110  11.350  2.1795 -0.2546 -2.3066
  887MOL0     H19736   6.267   9.147  11.262 -1.9747  2.5686  4.0253
  887MOL0     H19737   6.320   9.390  11.299  0.9020  0.7227 -0.1692
  887MOL0     H19738   6.452   9.330  11.412 -0.8944 -2.3504  1.0747
  887MOL0     H19739   6.149   9.291  11.434  2.0805  2.4501 -2.7040
  887MOL0     H19740   6.269   9.201  11.539  2.1985 -1.6770 -2.8549
  887MOL0     H19741   6.269   9.590  11.697 -0.5459 -0.3024 -0.9551
  887MOL0     H19742   6.597   8.965  11.190 -0.3752  0.3179  1.0602
  887MOL0     H19743   6.690   8.765  11.202 -0.2479  1.5903  0.7113
  887MOL0     H19744   6.859   8.756  11.195 -0.5036  0.2939 -1.4428
  887MOL0     H19745   6.774   8.760  11.359 -2.4219  0.9465  1.0606
  888MOL0     O19746   2.591   8.423   7.218  0.1319  0.3905 -0.4295
  888MOL0     C19747   2.574   8.524   7.152 -0.2985 -0.4096 -0.6410
  888MOL0     O19748   2.678   8.593   7.094 -0.1200 -1.1336 -0.4920
  888MOL0     C19749   2.802   8.578   7.143  0.6377 -0.3685  0.5043
  888MOL0     C19750   2.914   8.566   7.055  0.1435  0.1497  0.4877
  888MOL0     C19751   3.035   8.539   7.107 -0.5555  0.1133 -0.1693
  888MOL0     C19752   3.054   8.529   7.245 -0.2013 -0.6533 -0.6306
  888MOL0     O19753   3.189   8.507   7.264 -0.3547 -0.9258  0.1999
  888MOL0     C19754   3.246   8.501   7.397  0.0114  0.1779  0.0613
  888MOL0     C19755   3.262   8.640   7.459 -0.0781  0.5714  0.8057
  888MOL0     C19756   3.379   8.710   7.395 -0.5366 -0.7643  0.3106
  888MOL0     C19757   3.521   8.663   7.435 -0.6198 -0.5318 -0.7559
  888MOL0     C19758   3.630   8.742   7.369  0.1141 -0.0378 -0.1965
  888MOL0     C19759   3.764   8.669   7.374  0.2114  0.0261  0.2298
  888MOL0     C19760   3.843   8.707   7.504 -0.9578  0.2063 -0.7007
  888MOL0     C19761   3.981   8.631   7.504  0.3747 -0.1142  0.2978
  888MOL0     N19762   3.974   8.509   7.587 -0.3999 -0.1864  0.4802
  888MOL0     C19763   3.902   8.390   7.561 -0.6077  0.0352  0.5362
  888MOL0     C19764   3.963   8.297   7.633 -0.2739  0.8724  0.3542
  888MOL0     C19765   3.932   8.149   7.628 -0.5058  0.0820  0.3264
  888MOL0     C19766   3.781   8.124   7.661  0.6923 -0.5256  0.7461
  888MOL0     C19767   3.773   7.971   7.683 -0.4341 -0.1127 -0.0173
  888MOL0     C19768   3.632   7.934   7.728  0.5598 -0.5459  0.4907
  888MOL0     O19769   3.600   7.968   7.867  0.2910 -0.0180 -0.5858
  888MOL0     C19770   3.470   7.962   7.916  0.3752  0.4491 -0.1208
  888MOL0     C19771   3.368   7.893   7.853  0.4660 -0.9842  0.6237
  888MOL0     C19772   3.235   7.917   7.895  1.0122 -0.2304 -0.0892
  888MOL0     C19773   3.203   7.989   8.005  0.6478  0.1366  0.5457
  888MOL0     C19774   3.063   8.004   8.050 -0.3356  0.6202  0.3979
  888MOL0     O19775   3.052   8.070   8.166 -0.3653  0.4258 -0.6016
  888MOL0     C19776   2.935   8.073   8.228  0.2408  0.6511 -0.0466
  888MOL0     C19777   2.864   8.186   8.220  0.2597  0.2600 -0.3060
  888MOL0     C19778   2.745   8.193   8.290  0.1797  0.2462 -0.6672
  888MOL0     C19779   2.695   8.091   8.363 -0.6634  0.2671 -1.1726
  888MOL0     O19780   2.567   8.101   8.419 -0.0228  0.5617  0.2296
  888MOL0     C19781   2.507   7.972   8.457  0.6310  0.4060  0.8765
  888MOL0     C19782   2.359   7.981   8.504  0.0308  0.1141  0.6632
  888MOL0     C19783   2.345   8.040   8.642 -0.2167  0.6787 -0.1433
  888MOL0     C19784   2.204   8.049   8.686 -0.5889 -0.1892  0.4066
  888MOL0     C19785   2.178   7.964   8.805  0.1771 -0.0178 -0.0172
  888MOL0     C19786   2.174   7.817   8.773 -0.2702 -0.0707  0.5631
  888MOL0     C19787   2.128   7.742   8.897 -0.4087 -0.1949  0.4164
  888MOL0     C19788   2.099   7.597   8.870  0.3304  1.3081  0.0620
  888MOL0    Cl19789   2.250   7.495   8.848 -0.2064  0.0554 -0.1955
  888MOL0     C19790   2.774   7.969   8.367 -0.2740  0.4925  0.0296
  888MOL0     C19791   2.895   7.964   8.299  0.7900 -0.4704  0.6097
  888MOL0     O19792   2.972   7.967   7.984  0.4742  0.5879 -0.0434
  888MOL0     C19793   3.311   8.055   8.065  0.2457  0.6304  0.3539
  888MOL0     C19794   3.441   8.044   8.021  0.3515  0.0156 -0.1444
  888MOL0     N19795   4.053   8.358   7.714 -0.6793  0.4687 -0.6440
  888MOL0     N19796   4.062   8.488   7.685 -0.0101  0.4424 -0.7001
  888MOL0     C19797   2.948   8.543   7.337 -0.3790 -0.1170 -0.9184
  888MOL0     C19798   2.822   8.581   7.286 -0.1123 -0.0328  0.4035
  888MOL0     C19799   2.437   8.578   7.152 -0.3407  0.6373  0.7806
  888MOL0     C19800   2.413   8.712   7.103  0.3647 -0.0369 -0.4798
  888MOL0     C19801   2.285   8.768   7.111  0.9653  0.5081 -0.5887
  888MOL0     C19802   2.176   8.702   7.157  0.8476 -0.8144  0.0920
  888MOL0     O19803   2.065   8.782   7.156  0.4148 -0.5158 -0.2283
  888MOL0     C19804   1.948   8.728   7.222 -0.5336 -0.2298  0.2865
  888MOL0     C19805   1.840   8.821   7.178 -0.1930 -0.3776 -0.9648
  888MOL0     C19806   1.723   8.780   7.269  0.1970  0.1701  0.8009
  888MOL0     C19807   1.609   8.882   7.250  0.0309 -0.2531  0.5753
  888MOL0     C19808   1.529   8.844   7.124  0.1329 -0.2545  0.3756
  888MOL0     C19809   1.464   8.835   7.019  0.8622  0.3496  0.3470
  888MOL0     C19810   2.189   8.573   7.208  0.0133 -0.0185 -0.5018
  888MOL0     C19811   2.318   8.512   7.209 -0.3400 -0.0341  0.5221
  888MOL0     C19812   2.323   8.365   7.257 -0.4005  0.6585 -0.0153
  888MOL0     H19813   2.907   8.573   6.947  2.2720  4.2433  0.4219
  888MOL0     H19814   3.122   8.527   7.043 -1.9079  0.6288 -2.2030
  888MOL0     H19815   3.173   8.447   7.458  0.5231 -2.4911 -1.5362
  888MOL0     H19816   3.340   8.445   7.400  1.1506  2.0056 -0.0910
  888MOL0     H19817   3.275   8.634   7.567  0.0662 -0.4789  0.7410
  888MOL0     H19818   3.181   8.711   7.443 -1.7785 -1.1339  1.4291
  888MOL0     H19819   3.366   8.813   7.430 -4.6416 -0.0086 -2.5806
  888MOL0     H19820   3.365   8.701   7.286 -1.3674 -2.7944  0.5374
  888MOL0     H19821   3.541   8.675   7.542 -0.7558  2.8936 -0.9911
  888MOL0     H19822   3.544   8.557   7.421  3.5751 -0.0264  0.9324
  888MOL0     H19823   3.600   8.758   7.265 -1.7887  2.0570  0.5890
  888MOL0     H19824   3.642   8.839   7.420  2.3692 -0.4470  0.1813
  888MOL0     H19825   3.756   8.560   7.376 -1.3643  0.1225  2.4935
  888MOL0     H19826   3.825   8.704   7.290 -0.6269  0.5274 -0.1885
  888MOL0     H19827   3.789   8.693   7.598  0.9208  2.8118  0.8897
  888MOL0     H19828   3.871   8.812   7.507  0.5493 -0.1791  2.2323
  888MOL0     H19829   3.996   8.598   7.401 -0.7846  0.1833  0.0170
  888MOL0     H19830   4.058   8.701   7.537  1.5598 -0.6019 -1.2921
  888MOL0     H19831   3.825   8.368   7.489  1.2502  0.3073 -1.6338
  888MOL0     H19832   3.956   8.105   7.530  0.5323 -2.0028  1.4627
  888MOL0     H19833   3.991   8.102   7.707 -0.3096  0.2006  0.2492
  888MOL0     H19834   3.745   8.181   7.747 -4.0249  0.0087 -1.3184
  888MOL0     H19835   3.726   8.161   7.575  4.1411  2.1380 -0.5409
  888MOL0     H19836   3.835   7.941   7.768 -0.4017 -1.0453 -0.3566
  888MOL0     H19837   3.806   7.920   7.592  1.9710  1.0179  0.1409
  888MOL0     H19838   3.622   7.826   7.711 -0.5061 -0.2393 -0.9529
  888MOL0     H19839   3.564   7.983   7.658 -0.8156 -0.1280  2.0424
  888MOL0     H19840   3.381   7.816   7.779  0.0261 -4.2880  3.7000
  888MOL0     H19841   3.158   7.874   7.830 -0.1028  2.5745 -0.7576
  888MOL0     H19842   2.908   8.265   8.160 -1.8678  2.0648  0.3476
  888MOL0     H19843   2.688   8.285   8.286 -1.1307 -0.2317  3.1969
  888MOL0     H19844   2.510   7.912   8.365 -0.3426  0.6967  0.6364
  888MOL0     H19845   2.565   7.920   8.533 -0.6392 -2.7516 -0.1689
  888MOL0     H19846   2.325   8.047   8.423  3.0653 -0.1772 -1.0241
  888MOL0     H19847   2.302   7.888   8.500  0.3442 -0.1914 -4.6102
  888MOL0     H19848   2.401   7.973   8.707  0.2352  1.8742  0.7400
  888MOL0     H19849   2.394   8.138   8.641  1.5980 -0.1766 -0.6496
  888MOL0     H19850   2.131   8.022   8.608  0.0775 -0.7633 -0.0186
  888MOL0     H19851   2.181   8.151   8.720  1.9671  0.9190 -0.8935
  888MOL0     H19852   2.073   7.988   8.827 -0.5110  0.2610 -3.1388
  888MOL0     H19853   2.240   7.987   8.892  0.3520 -2.8589  0.6878
  888MOL0     H19854   2.103   7.813   8.690  2.5051  0.3374 -2.0018
  888MOL0     H19855   2.275   7.779   8.757 -1.2040 -2.7422  0.5152
  888MOL0     H19856   2.041   7.798   8.933  1.0917  2.0587  0.6829
  888MOL0     H19857   2.204   7.755   8.975 -0.7311 -3.8121  1.5478
  888MOL0     H19858   2.042   7.561   8.956 -0.9027  1.7224 -0.5449
  888MOL0     H19859   2.031   7.576   8.786  0.9912  2.0084 -0.6708
  888MOL0     H19860   2.737   7.880   8.416 -0.2878 -0.5503 -1.7875
  888MOL0     H19861   2.946   7.868   8.294 -1.1770 -1.5755  0.8184
  888MOL0     H19862   3.292   8.129   8.143  1.7703 -0.1315  1.4863
  888MOL0     H19863   3.518   8.109   8.060 -0.4662  1.9776 -1.6589
  888MOL0     H19864   2.970   8.527   7.442  0.8881  1.3201 -0.9355
  888MOL0     H19865   2.738   8.582   7.355  1.5678 -0.6072  2.5611
  888MOL0     H19866   2.482   8.779   7.055  0.4557  0.1140 -0.1424
  888MOL0     H19867   2.270   8.870   7.075  0.6140  0.2662 -1.1431
  888MOL0     H19868   1.963   8.731   7.331  0.1086 -2.6413  0.3322
  888MOL0     H19869   1.931   8.625   7.190  2.3339 -0.6639 -0.0781
  888MOL0     H19870   1.807   8.817   7.074 -1.6301 -1.5832 -0.5065
  888MOL0     H19871   1.866   8.924   7.201 -1.9156 -0.2768  0.8063
  888MOL0     H19872   1.756   8.794   7.372  2.5139  0.9837  0.0108
  888MOL0     H19873   1.697   8.676   7.250  1.8094 -0.0273 -0.5885
  888MOL0     H19874   1.549   8.890   7.341  1.1907  1.2904  1.2501
  888MOL0     H19875   1.660   8.978   7.234  1.1430 -1.1319 -1.8035
  888MOL0     H19876   1.414   8.834   6.924 -2.6544  1.5683  1.9930
  888MOL0     H19877   2.096   8.527   7.241 -1.6870 -0.5035 -5.2374
  888MOL0     H19878   2.219   8.334   7.274 -0.9395  3.0629  1.6008
  888MOL0     H19879   2.379   8.317   7.176  1.3194  1.3084  0.7509
  888MOL0     H19880   2.380   8.339   7.346 -2.5621 -2.9707  0.5217
  889MOL0     O19881   3.987   4.628   8.916 -0.1102 -0.3871 -0.1124
  889MOL0     C19882   4.004   4.518   8.969 -0.3635 -0.1526 -0.3397
  889MOL0     O19883   4.122   4.477   9.019  0.4719 -0.1106  0.5627
  889MOL0     C19884   4.232   4.514   8.948  0.0994  0.4442  0.8982
  889MOL0     C19885   4.287   4.647   8.941  0.6675  0.4934  0.2229
  889MOL0     C19886   4.404   4.660   8.866  0.1342  0.2998 -0.1610
  889MOL0     C19887   4.476   4.548   8.816 -0.1021  0.4062  0.6078
  889MOL0     O19888   4.599   4.572   8.756  0.7316  0.4091 -0.7726
  889MOL0     C19889   4.706   4.560   8.848  0.1345  0.0335 -0.1438
  889MOL0     C19890   4.782   4.697   8.843 -0.2505  0.2027  0.2245
  889MOL0     C19891   4.830   4.734   8.696 -0.5632  0.5048 -0.1756
  889MOL0     C19892   4.913   4.855   8.685  0.1657  0.3224 -0.0019
  889MOL0     C19893   5.028   4.873   8.774  0.0167  0.2877 -1.1677
  889MOL0     C19894   5.131   4.765   8.734 -0.8670  0.0857 -0.6110
  889MOL0     C19895   5.270   4.786   8.786  1.0268  0.5387 -0.8740
  889MOL0     C19896   5.274   4.766   8.942  0.3773  0.0723 -0.4817
  889MOL0     N19897   5.279   4.626   8.978  0.2478 -0.6312  0.2033
  889MOL0     C19898   5.170   4.541   9.020 -0.4862  0.4851  0.2931
  889MOL0     C19899   5.235   4.417   9.039  0.3301 -1.0225 -0.6191
  889MOL0     C19900   5.185   4.276   9.068 -0.4878 -0.8046  0.3006
  889MOL0     C19901   5.196   4.185   8.948 -0.3008  0.8099 -0.3125
  889MOL0     C19902   5.101   4.226   8.833  0.5150  0.9166  0.0024
  889MOL0     C19903   4.957   4.171   8.846 -0.3056 -0.0072  0.3179
  889MOL0     O19904   4.879   4.240   8.935  0.0164  0.0123 -0.1370
  889MOL0     C19905   4.757   4.189   8.962  0.3011  0.2116  0.8610
  889MOL0     C19906   4.689   4.257   9.063 -0.1502  0.3015  1.0079
  889MOL0     C19907   4.565   4.211   9.101  0.4994  0.6338 -0.2424
  889MOL0     C19908   4.505   4.098   9.045 -0.0015  0.7364  0.0292
  889MOL0     C19909   4.378   4.046   9.093  0.6599 -0.3902 -0.5301
  889MOL0     O19910   4.377   3.905   9.104  0.3608 -0.4127  0.4475
  889MOL0     C19911   4.246   3.856   9.138  1.1471 -0.2480 -0.0118
  889MOL0     C19912   4.202   3.868   9.271  0.2239  0.5410  0.3878
  889MOL0     C19913   4.069   3.824   9.295  0.6118  0.2509 -0.2090
  889MOL0     C19914   3.987   3.769   9.198 -0.0033  0.4349  0.0886
  889MOL0     O19915   3.864   3.735   9.241  0.2203  0.2675  0.6970
  889MOL0     C19916   3.778   3.656   9.147 -0.7707  0.1616 -0.3077
  889MOL0     C19917   3.646   3.653   9.206  0.6734  0.0222  0.6757
  889MOL0     C19918   3.541   3.595   9.104 -0.7652 -0.5558  0.3360
  889MOL0     C19919   3.396   3.615   9.142 -0.3967  0.4599 -0.7879
  889MOL0     C19920   3.297   3.502   9.135 -0.0293 -0.8459  0.1617
  889MOL0     C19921   3.159   3.550   9.193 -0.3486  0.4948  0.2470
  889MOL0     C19922   3.068   3.417   9.198  0.8120  0.0828  0.2428
  889MOL0     C19923   2.963   3.426   9.079  0.5719 -0.6383 -0.3168
  889MOL0    Cl19924   2.800   3.349   9.128  0.0124  0.2499 -0.0593
  889MOL0     C19925   4.046   3.742   9.069  0.1690 -0.7527 -0.4406
  889MOL0     C19926   4.173   3.790   9.047  0.4486  0.4297  2.0038
  889MOL0     O19927   4.284   4.122   9.121 -0.3195  0.6655 -0.8147
  889MOL0     C19928   4.568   4.036   8.939 -0.5108 -0.4305 -0.3215
  889MOL0     C19929   4.692   4.084   8.894 -0.7998  0.0284 -0.4794
  889MOL0     N19930   5.368   4.434   9.016  0.6028  0.4060 -0.4538
  889MOL0     N19931   5.391   4.559   8.982 -0.6777 -0.1120 -0.2697
  889MOL0     C19932   4.426   4.418   8.845 -0.2774 -0.3973  1.1410
  889MOL0     C19933   4.304   4.399   8.908  0.6070 -0.5384  0.0354
  889MOL0     C19934   3.885   4.430   8.982  0.9179  0.0487 -0.2401
  889MOL0     C19935   3.759   4.481   8.945 -0.1604  0.4511  0.5195
  889MOL0     C19936   3.644   4.401   8.959  0.1712 -0.0284 -0.2541
  889MOL0     C19937   3.647   4.267   8.997  0.1327  0.4828  0.5410
  889MOL0     O19938   3.536   4.192   9.022  0.3725 -0.1664  0.5439
  889MOL0     C19939   3.410   4.230   8.960  0.2330 -0.6849  0.2570
  889MOL0     C19940   3.318   4.115   8.954  0.8402 -0.2464  0.1544
  889MOL0     C19941   3.257   4.064   9.084  0.3870  0.6738  0.9182
  889MOL0     C19942   3.150   3.953   9.058  0.3104  0.4029  0.0002
  889MOL0     C19943   3.040   4.010   8.984  0.0094 -0.6705 -0.4896
  889MOL0     C19944   2.956   4.061   8.921  0.4866  0.2137  0.6315
  889MOL0     C19945   3.769   4.218   9.038 -0.2868  0.2902 -0.4117
  889MOL0     C19946   3.885   4.296   9.023  0.4339 -0.1313 -1.4160
  889MOL0     C19947   4.009   4.223   9.063 -0.3601  0.2329  0.1913
  889MOL0     H19948   4.231   4.729   8.986 -0.3921 -1.1727  2.1431
  889MOL0     H19949   4.438   4.758   8.832  1.4070 -0.1867 -0.3356
  889MOL0     H19950   4.664   4.537   8.946 -0.8973 -0.2305 -0.6347
  889MOL0     H19951   4.770   4.475   8.824 -2.0253 -1.6666 -0.1866
  889MOL0     H19952   4.867   4.689   8.911 -1.9752  1.3810  2.6772
  889MOL0     H19953   4.723   4.773   8.895 -2.0105 -1.6833  1.1065
  889MOL0     H19954   4.747   4.757   8.628  1.1496  2.3651 -1.8045
  889MOL0     H19955   4.885   4.652   8.650 -1.2207 -0.7748  1.2711
  889MOL0     H19956   4.945   4.853   8.580  0.8017 -0.3522  0.1993
  889MOL0     H19957   4.847   4.940   8.702 -1.7534 -1.4847  2.2350
  889MOL0     H19958   5.059   4.977   8.760 -2.6860  1.1667 -1.2058
  889MOL0     H19959   4.998   4.862   8.879 -0.0179 -0.7203 -1.2714
  889MOL0     H19960   5.103   4.670   8.779  1.2755 -0.6928 -0.8095
  889MOL0     H19961   5.146   4.750   8.627 -3.1854  0.9097 -1.1227
  889MOL0     H19962   5.310   4.885   8.761  0.2776  0.5888 -1.9457
  889MOL0     H19963   5.334   4.718   8.731  0.1817 -0.5866 -0.5057
  889MOL0     H19964   5.361   4.820   8.981  0.1616 -0.0253  0.1491
  889MOL0     H19965   5.185   4.811   8.986 -0.8613 -2.3699 -0.3471
  889MOL0     H19966   5.065   4.568   9.025 -0.6816 -0.4695  1.9879
  889MOL0     H19967   5.244   4.230   9.147  2.1003  0.1982 -0.9162
  889MOL0     H19968   5.080   4.281   9.095 -0.1517 -1.8222  1.9376
  889MOL0     H19969   5.297   4.171   8.909 -0.3644  1.2410 -0.6339
  889MOL0     H19970   5.165   4.088   8.988 -3.2879  1.8647  0.1783
  889MOL0     H19971   5.146   4.185   8.742 -0.5609  2.4309 -1.2572
  889MOL0     H19972   5.094   4.334   8.823 -5.3794  0.8518  0.2241
  889MOL0     H19973   4.959   4.067   8.880 -0.2267  0.5616  2.1642
  889MOL0     H19974   4.905   4.170   8.750 -0.3651 -3.0188  0.2892
  889MOL0     H19975   4.738   4.347   9.101  1.1559  0.2217 -0.3970
  889MOL0     H19976   4.511   4.246   9.189  1.9786 -3.4084  2.5749
  889MOL0     H19977   4.256   3.917   9.352 -0.2595  1.9153 -0.0883
  889MOL0     H19978   4.033   3.829   9.397  0.4053 -1.0248 -0.2017
  889MOL0     H19979   3.777   3.714   9.054  0.3282 -1.1981 -1.2073
  889MOL0     H19980   3.802   3.551   9.129 -3.6915 -0.6991  0.2353
  889MOL0     H19981   3.645   3.583   9.290 -2.3291 -1.3937 -0.3903
  889MOL0     H19982   3.610   3.750   9.240 -0.0190 -0.1931  0.5697
  889MOL0     H19983   3.561   3.638   9.005  1.0334  3.8775  2.3469
  889MOL0     H19984   3.566   3.489   9.095  3.1869  0.0884  1.7207
  889MOL0     H19985   3.360   3.697   9.079 -1.4063  0.7716  0.1633
  889MOL0     H19986   3.399   3.639   9.248  0.8234 -0.6389 -0.5519
  889MOL0     H19987   3.339   3.416   9.189  1.0004 -0.6814 -0.3498
  889MOL0     H19988   3.281   3.468   9.032 -0.7852 -1.7091  0.5537
  889MOL0     H19989   3.167   3.592   9.294 -0.6130  3.8082 -1.0163
  889MOL0     H19990   3.117   3.634   9.138 -3.7611 -0.2727  1.4130
  889MOL0     H19991   3.005   3.420   9.287  1.1642 -1.6761  0.6002
  889MOL0     H19992   3.129   3.326   9.193  1.4889  0.4800  1.1014
  889MOL0     H19993   2.936   3.527   9.049 -0.2029 -0.6631  0.2672
  889MOL0     H19994   3.001   3.365   8.996  0.0297 -0.9632 -0.3282
  889MOL0     H19995   3.990   3.698   8.986  0.1020 -0.3970 -0.5861
  889MOL0     H19996   4.218   3.764   8.952  1.1959  0.0333  2.4573
  889MOL0     H19997   4.524   3.946   8.896 -4.4474  0.2626  1.7734
  889MOL0     H19998   4.743   4.036   8.811 -1.1748  1.7645 -1.7761
  889MOL0     H19999   4.500   4.339   8.838 -0.7824 -1.2505  3.8566
  889MOL0     H20000   4.267   4.297   8.920  2.7482 -1.3947 -0.0428
  889MOL0     H20001   3.747   4.587   8.926  1.4526  0.7284  0.8874
  889MOL0     H20002   3.551   4.455   8.942  1.4883  2.2857 -0.4800
  889MOL0     H20003   3.433   4.273   8.862  1.7816  0.6081  1.1412
  889MOL0     H20004   3.364   4.314   9.014 -0.5546  1.5877 -3.5429
  889MOL0     H20005   3.360   4.039   8.888  0.1229  2.4369 -3.6795
  889MOL0     H20006   3.232   4.161   8.904 -0.2311 -1.3668  0.8884
  889MOL0     H20007   3.203   4.139   9.143 -1.6868 -1.5844  2.0806
  889MOL0     H20008   3.343   4.025   9.141 -0.4407  0.3862  2.0052
  889MOL0     H20009   3.186   3.869   8.998 -1.8670  0.2810 -1.2198
  889MOL0     H20010   3.105   3.903   9.144 -0.4517 -3.3021 -2.3434
  889MOL0     H20011   2.883   4.122   8.871  1.9586  2.6515  1.2713
  889MOL0     H20012   3.778   4.114   9.065  3.5387  0.8921  1.3522
  889MOL0     H20013   4.054   4.262   9.155  0.9914 -2.0008  0.5715
  889MOL0     H20014   3.995   4.116   9.081 -0.6348  0.3628  0.7637
  889MOL0     H20015   4.078   4.217   8.978 -0.5592  1.4030 -0.0728
  890MOL0     O20016  11.172  10.336   5.621 -0.3642  0.0399  0.7145
  890MOL0     C20017  11.237  10.305   5.522  0.5475  0.8817 -0.4838
  890MOL0     O20018  11.372  10.304   5.514  0.0702  0.3981  0.3019
  890MOL0     C20019  11.451  10.340   5.623  0.2721 -0.3584  0.1423
  890MOL0     C20020  11.423  10.441   5.712  0.5658 -0.5458 -0.9475
  890MOL0     C20021  11.507  10.450   5.827  0.4874  0.1350  0.9968
  890MOL0     C20022  11.614  10.361   5.842 -0.5268 -0.5181 -0.2554
  890MOL0     O20023  11.694  10.362   5.957 -0.2258 -0.4640 -0.0868
  890MOL0     C20024  11.660  10.436   6.075 -0.0293  0.5734  0.0050
  890MOL0     C20025  11.759  10.413   6.185  0.0199 -0.0718  0.2597
  890MOL0     C20026  11.730  10.501   6.309 -0.8079 -0.0341  0.4532
  890MOL0     C20027  11.822  10.458   6.430 -0.2887  0.0340 -0.0341
  890MOL0     C20028  11.792  10.540   6.556  0.7873 -0.6565 -0.5042
  890MOL0     C20029  11.836  10.687   6.559  0.0438 -0.1699  0.4648
  890MOL0     C20030  11.810  10.763   6.691 -0.0933  0.4328 -0.1482
  890MOL0     C20031  11.897  10.887   6.715  0.0706  0.6682  0.1736
  890MOL0     N20032  11.843  10.988   6.812 -0.3914 -0.2589  0.1659
  890MOL0     C20033  11.822  10.976   6.941 -0.3947 -0.8235 -0.2179
  890MOL0     C20034  11.764  11.095   6.968  0.0968 -1.1985  0.6631
  890MOL0     C20035  11.714  11.142   7.105 -1.1972 -0.4171 -0.0619
  890MOL0     C20036  11.840  11.220   7.170  0.6637  0.0286  0.4140
  890MOL0     C20037  11.942  11.136   7.250 -0.8448  0.5734  0.3377
  890MOL0     C20038  12.058  11.215   7.305 -0.3204  0.5040  0.6233
  890MOL0     O20039  12.167  11.226   7.212  0.5565 -0.1564  0.3970
  890MOL0     C20040  12.290  11.276   7.256  0.7086 -0.5635 -0.0142
  890MOL0     C20041  12.318  11.310   7.388  0.6595 -0.1767  0.5554
  890MOL0     C20042  12.444  11.360   7.424 -0.7876 -0.4005 -0.1023
  890MOL0     C20043  12.540  11.391   7.332 -0.7949  0.0772  0.6109
  890MOL0     C20044  12.676  11.444   7.369  0.6442  0.0885  0.4152
  890MOL0     O20045  12.745  11.494   7.268 -0.5871  0.0349 -0.1667
  890MOL0     C20046  12.879  11.534   7.294  0.4762  0.2868  0.7537
  890MOL0     C20047  12.901  11.647   7.370 -0.1116 -0.5696 -0.3043
  890MOL0     C20048  13.030  11.690   7.406  0.3881  0.8546  0.0922
  890MOL0     C20049  13.142  11.617   7.361  0.6709  0.0450  0.0020
  890MOL0     O20050  13.263  11.682   7.375  0.2320  0.6571 -0.2392
  890MOL0     C20051  13.379  11.603   7.341  0.5910 -0.3751  1.4946
  890MOL0     C20052  13.498  11.687   7.376 -0.6616  0.4809  0.4744
  890MOL0     C20053  13.515  11.811   7.286  0.7788  0.1239  0.1362
  890MOL0     C20054  13.649  11.883   7.315  0.2236  0.5294  0.1867
  890MOL0     C20055  13.666  12.016   7.241  0.2494  0.6910 -0.3687
  890MOL0     C20056  13.680  12.003   7.080 -0.2511  0.8997 -0.4637
  890MOL0     C20057  13.708  12.137   7.014 -0.5689  0.1841  0.2631
  890MOL0     C20058  13.670  12.130   6.865 -0.2854  0.0073  0.9713
  890MOL0    Cl20059  13.776  11.994   6.802  0.3135 -0.0475  0.5418
  890MOL0     C20060  13.118  11.501   7.282  0.0169 -0.0038 -0.9459
  890MOL0     C20061  12.988  11.465   7.240 -0.1231  0.1843 -0.2997
  890MOL0     O20062  12.709  11.418   7.486  0.0198  0.2974  0.1544
  890MOL0     C20063  12.507  11.361   7.194 -1.4809 -0.4071 -0.2378
  890MOL0     C20064  12.387  11.303   7.159  0.6651  0.0486  0.1361
  890MOL0     N20065  11.762  11.172   6.850 -0.0160  0.4422 -0.7551
  890MOL0     N20066  11.814  11.101   6.756 -0.0778 -0.9110  0.4017
  890MOL0     C20067  11.648  10.276   5.741 -0.0063  0.6445  0.8922
  890MOL0     C20068  11.563  10.261   5.630 -0.9060  0.4645 -0.2717
  890MOL0     C20069  11.153  10.302   5.406  0.4765  0.1844 -0.0568
  890MOL0     C20070  11.091  10.432   5.377 -0.6706  0.5876  1.0607
  890MOL0     C20071  10.987  10.436   5.281  0.0972  0.0823  0.4529
  890MOL0     C20072  10.945  10.320   5.208 -0.1323 -0.8539 -0.4558
  890MOL0     O20073  10.857  10.329   5.100  0.7971  0.4872  0.2210
  890MOL0     C20074  10.796  10.451   5.066  0.2690 -0.4302  0.1693
  890MOL0     C20075  10.687  10.409   4.977  0.2656 -0.0638  0.1800
  890MOL0     C20076  10.583  10.520   4.951  0.2739  0.0549 -0.2735
  890MOL0     C20077  10.643  10.650   4.893  0.9070 -0.1203  0.2336
  890MOL0     C20078  10.537  10.763   4.869  0.1743  0.3886 -0.2005
  890MOL0     C20079  10.465  10.854   4.824  0.0559  0.2718 -0.0457
  890MOL0     C20080  11.018  10.204   5.237  1.0799  0.7012 -0.1858
  890MOL0     C20081  11.117  10.196   5.325 -0.4175 -0.0933  0.8036
  890MOL0     C20082  11.186  10.070   5.329  0.6255 -0.1223 -0.3674
  890MOL0     H20083  11.334  10.504   5.711  0.4721 -0.5558  1.3342
  890MOL0     H20084  11.488  10.526   5.902  0.5457 -1.0431  2.2427
  890MOL0     H20085  11.657  10.544   6.058  1.8923  0.5667 -0.6922
  890MOL0     H20086  11.561  10.396   6.098  0.5006 -1.7834 -1.3608
  890MOL0     H20087  11.862  10.428   6.153 -0.6536 -0.5410 -2.3767
  890MOL0     H20088  11.747  10.309   6.218  2.8123 -0.2011  1.1238
  890MOL0     H20089  11.630  10.487   6.352  0.9317 -0.2771  4.9192
  890MOL0     H20090  11.748  10.605   6.280  0.7464  0.1009  1.7506
  890MOL0     H20091  11.805  10.351   6.442  1.6058 -0.5689 -2.0122
  890MOL0     H20092  11.928  10.465   6.402 -0.2159  3.2545  0.6388
  890MOL0     H20093  11.683  10.541   6.561  0.8445 -0.3244  1.2997
  890MOL0     H20094  11.836  10.489   6.642 -1.3053 -1.6611  0.0249
  890MOL0     H20095  11.942  10.700   6.534 -0.3205  0.3383 -0.8753
  890MOL0     H20096  11.781  10.739   6.480  1.8798  0.0385 -0.7453
  890MOL0     H20097  11.834  10.699   6.776 -0.6704 -2.6353 -2.1170
  890MOL0     H20098  11.707  10.798   6.691  0.4860  2.3736 -1.9942
  890MOL0     H20099  12.000  10.868   6.749 -0.4883 -0.2171  1.4780
  890MOL0     H20100  11.895  10.936   6.617  0.3669 -1.5211 -0.9829
  890MOL0     H20101  11.848  10.889   7.001  1.7358 -0.4845 -0.5803
  890MOL0     H20102  11.639  11.218   7.080  2.1094  2.9966 -0.6530
  890MOL0     H20103  11.676  11.064   7.172  1.0790  0.2306  2.1538
  890MOL0     H20104  11.895  11.277   7.095 -0.2177 -0.0559 -0.3061
  890MOL0     H20105  11.793  11.292   7.238 -2.0486  0.2636 -1.5444
  890MOL0     H20106  11.973  11.052   7.188  0.5989 -1.0493  3.0912
  890MOL0     H20107  11.890  11.097   7.337 -1.0065  0.7217  0.3088
  890MOL0     H20108  12.099  11.163   7.392  0.2495  1.3890  0.8980
  890MOL0     H20109  12.018  11.312   7.337 -0.7876  0.9447 -1.2063
  890MOL0     H20110  12.237  11.317   7.460  0.4102  1.1849  0.1612
  890MOL0     H20111  12.462  11.379   7.529 -2.1760  1.6704 -0.1667
  890MOL0     H20112  12.819  11.709   7.407  0.3810 -0.0140 -0.1339
  890MOL0     H20113  13.050  11.786   7.453  1.5181  1.8430 -2.2125
  890MOL0     H20114  13.377  11.513   7.403 -0.4422 -0.6308  1.1202
  890MOL0     H20115  13.381  11.577   7.234 -3.6843  0.6820  0.9747
  890MOL0     H20116  13.489  11.725   7.478 -1.3376 -0.5227  0.8123
  890MOL0     H20117  13.585  11.621   7.373 -0.0282  1.3094  0.4167
  890MOL0     H20118  13.512  11.780   7.182  0.3754  0.6241 -0.0090
  890MOL0     H20119  13.432  11.879   7.308 -0.4840 -1.1207 -0.6965
  890MOL0     H20120  13.730  11.817   7.284 -0.1792  0.7959 -1.4827
  890MOL0     H20121  13.668  11.896   7.422 -1.9790  2.5198  0.4301
  890MOL0     H20122  13.758  12.063   7.278 -0.5672  1.4305  0.7603
  890MOL0     H20123  13.585  12.082   7.272 -0.5276 -0.9494  1.2508
  890MOL0     H20124  13.759  11.935   7.049 -0.5079  0.9461 -1.2428
  890MOL0     H20125  13.587  11.961   7.039 -0.4631  2.0800 -1.2562
  890MOL0     H20126  13.815  12.156   7.022 -0.3931 -0.9061  0.6059
  890MOL0     H20127  13.644  12.211   7.063 -0.2054  0.2305  0.6717
  890MOL0     H20128  13.563  12.129   6.842  0.0303  3.3178 -1.3478
  890MOL0     H20129  13.694  12.217   6.803 -1.4858 -0.7621 -0.6642
  890MOL0     H20130  13.208  11.448   7.253 -0.3510 -1.9600  1.1894
  890MOL0     H20131  12.971  11.371   7.189 -0.9213 -0.3297  0.8836
  890MOL0     H20132  12.570  11.377   7.107  2.0997  0.9565  2.3402
  890MOL0     H20133  12.372  11.285   7.053 -1.9874  0.0929  0.4372
  890MOL0     H20134  11.726  10.202   5.758  0.5383 -0.1952 -3.8388
  890MOL0     H20135  11.589  10.197   5.546  0.2768 -2.7847  2.3294
  890MOL0     H20136  11.133  10.514   5.435  1.4253  1.2660 -1.2620
  890MOL0     H20137  10.948  10.536   5.265 -0.6576 -0.0695  1.2439
  890MOL0     H20138  10.865  10.523   5.022  0.6707 -2.4406 -2.8255
  890MOL0     H20139  10.737  10.502   5.143 -0.6273 -1.9730  0.5521
  890MOL0     H20140  10.637  10.321   5.019  0.1260  0.2155  0.5953
  890MOL0     H20141  10.727  10.370   4.883  1.7339  3.0431 -0.5972
  890MOL0     H20142  10.531  10.544   5.044 -1.8699 -1.5131 -0.9766
  890MOL0     H20143  10.501  10.479   4.890  1.1155 -4.0941  1.0862
  890MOL0     H20144  10.719  10.696   4.958  1.9568  1.8614 -2.2190
  890MOL0     H20145  10.691  10.625   4.798 -1.1823 -4.1150  0.0224
  890MOL0     H20146  10.410  10.927   4.767 -0.6692  0.4698  0.8891
  890MOL0     H20147  10.993  10.118   5.176  0.8395  0.9082 -0.3840
  890MOL0     H20148  11.144   9.989   5.268 -0.9799 -2.6579  3.7076
  890MOL0     H20149  11.293  10.073   5.308  1.6077 -2.9114  3.1330
  890MOL0     H20150  11.169  10.033   5.431 -0.3496  0.9108 -0.1350
  891MOL0     O20151   6.954   1.544   1.750  0.6438  0.3950  0.1601
  891MOL0     C20152   6.921   1.570   1.865  0.6224 -0.4418  0.6046
  891MOL0     O20153   6.991   1.551   1.983  0.2700 -0.0450  0.3254
  891MOL0     C20154   7.122   1.515   1.966 -0.4608 -0.2974 -0.3195
  891MOL0     C20155   7.170   1.382   1.962 -0.0808 -0.7178 -0.4206
  891MOL0     C20156   7.303   1.349   1.967 -0.1831 -0.1416 -0.5527
  891MOL0     C20157   7.406   1.443   1.975  0.3103  0.0165  0.3313
  891MOL0     O20158   7.529   1.388   1.970 -0.5128 -0.9142 -0.3490
  891MOL0     C20159   7.635   1.468   1.918  0.6485 -0.3860 -0.0906
  891MOL0     C20160   7.743   1.402   1.830  0.5956  0.6749 -0.4452
  891MOL0     C20161   7.837   1.318   1.911  0.2816 -0.0224  0.8618
  891MOL0     C20162   7.907   1.398   2.028 -0.7328  0.3188  0.3169
  891MOL0     C20163   8.030   1.307   2.072 -0.8810  0.0407  0.3135
  891MOL0     C20164   8.116   1.353   2.193 -0.6538 -0.3798 -0.4281
  891MOL0     C20165   8.195   1.484   2.166 -0.1854  0.3308 -0.0112
  891MOL0     C20166   8.320   1.506   2.249  0.3986  0.1364 -1.1938
  891MOL0     N20167   8.403   1.620   2.205  0.3155 -0.0337  0.1417
  891MOL0     C20168   8.530   1.612   2.149  0.6226 -0.1589 -0.2488
  891MOL0     C20169   8.569   1.744   2.140  0.1949 -0.4766  0.2325
  891MOL0     C20170   8.695   1.781   2.076  0.5467  0.2804  0.7233
  891MOL0     C20171   8.799   1.793   2.185 -0.2159 -0.3183  0.3987
  891MOL0     C20172   8.939   1.828   2.133 -0.2741 -0.0781 -0.2953
  891MOL0     C20173   8.951   1.963   2.071  0.1797  0.5081  0.8081
  891MOL0     O20174   9.054   1.975   1.971 -0.4701  0.5128  0.2094
  891MOL0     C20175   9.185   2.013   2.000  0.3019  0.2640  0.1329
  891MOL0     C20176   9.240   2.012   2.126  0.0421  0.3193  0.4392
  891MOL0     C20177   9.373   2.048   2.152 -0.7182  0.1056  0.8881
  891MOL0     C20178   9.451   2.080   2.038  0.3849  0.5490 -0.7845
  891MOL0     C20179   9.592   2.119   2.055  0.1496  0.3070 -0.2182
  891MOL0     O20180   9.634   2.145   2.180 -0.5049  0.3674  0.3941
  891MOL0     C20181   9.772   2.150   2.202  0.1079  0.7434  0.0547
  891MOL0     C20182   9.848   2.038   2.218 -0.5310 -0.0067  0.1898
  891MOL0     C20183   9.987   2.061   2.249  0.1997  0.1121  0.2332
  891MOL0     C20184  10.049   2.185   2.255  0.7999 -0.3381  0.2232
  891MOL0     O20185  10.180   2.187   2.265 -0.2043 -0.2590 -0.1865
  891MOL0     C20186  10.247   2.308   2.290  0.0463  1.1170 -0.2567
  891MOL0     C20187  10.394   2.291   2.246  0.2940 -0.2763  0.3778
  891MOL0     C20188  10.465   2.430   2.252  0.2198  0.0605 -0.3981
  891MOL0     C20189  10.590   2.444   2.166 -0.3118 -0.2942 -0.4474
  891MOL0     C20190  10.636   2.585   2.164  0.4728  0.0305 -0.1244
  891MOL0     C20191  10.756   2.605   2.073 -0.0464  0.4415  0.4951
  891MOL0     C20192  10.777   2.760   2.030 -0.2534  0.7809 -0.5099
  891MOL0     C20193  10.919   2.808   2.023  0.1620 -1.1477 -0.5486
  891MOL0    Cl20194  11.002   2.756   2.166 -0.1626 -0.0416 -0.7023
  891MOL0     C20195   9.956   2.296   2.245 -0.0452  0.9749  0.1269
  891MOL0     C20196   9.816   2.275   2.223  0.0044 -0.4564  0.6556
  891MOL0     O20197   9.662   2.103   1.957 -0.0724 -0.1941 -0.2333
  891MOL0     C20198   9.392   2.067   1.910  0.2416 -0.2308 -0.3281
  891MOL0     C20199   9.261   2.033   1.891  0.5469 -0.5585  0.0755
  891MOL0     N20200   8.464   1.831   2.189 -0.6044  0.9713 -0.3128
  891MOL0     N20201   8.368   1.750   2.233 -0.3670  0.2667 -0.7249
  891MOL0     C20202   7.361   1.573   1.978 -0.9602 -0.8360  0.2166
  891MOL0     C20203   7.221   1.608   1.973 -0.3818 -0.4708 -0.2253
  891MOL0     C20204   6.795   1.646   1.883  0.6575 -0.0954  0.3484
  891MOL0     C20205   6.772   1.734   1.987  0.2854  0.6251 -0.1337
  891MOL0     C20206   6.647   1.808   2.007  0.0601  0.0766  1.0326
  891MOL0     C20207   6.546   1.809   1.910 -0.1571 -0.2750 -0.2284
  891MOL0     O20208   6.430   1.879   1.915 -0.3919 -0.0265 -0.1106
  891MOL0     C20209   6.404   1.946   2.041  0.8495 -0.9862 -0.2786
  891MOL0     C20210   6.267   1.991   2.040 -0.9746 -0.0017  0.2993
  891MOL0     C20211   6.181   1.869   2.040 -0.8543 -0.3611 -0.5684
  891MOL0     C20212   6.036   1.905   2.063  0.7929 -0.6722 -0.0863
  891MOL0     C20213   6.003   1.999   2.172 -0.1950 -0.0118 -0.0157
  891MOL0     C20214   5.970   2.075   2.264 -0.4484  0.2061 -0.2880
  891MOL0     C20215   6.562   1.709   1.813  0.4863 -0.3283  0.9580
  891MOL0     C20216   6.679   1.638   1.794  0.1948 -0.5544 -0.2180
  891MOL0     C20217   6.668   1.538   1.681  0.2480  0.6626 -0.3081
  891MOL0     H20218   7.098   1.301   1.960 -0.4447 -0.3974 -1.9511
  891MOL0     H20219   7.325   1.243   1.961 -0.9308 -0.2645 -1.5404
  891MOL0     H20220   7.588   1.539   1.850 -2.3138 -1.0246  1.1574
  891MOL0     H20221   7.683   1.519   2.002 -0.5436  0.0627  0.3317
  891MOL0     H20222   7.810   1.476   1.785 -0.0063  2.8259  1.9534
  891MOL0     H20223   7.695   1.329   1.764  1.4328  1.7316 -2.2952
  891MOL0     H20224   7.911   1.281   1.839 -0.3392  0.5336 -0.0794
  891MOL0     H20225   7.784   1.227   1.942  0.9486 -0.2595  1.3342
  891MOL0     H20226   7.942   1.497   1.997  0.5120  0.4567  2.0072
  891MOL0     H20227   7.849   1.428   2.116 -0.4453  3.7682 -0.5054
  891MOL0     H20228   7.990   1.210   2.103  0.0030 -0.7635 -0.9644
  891MOL0     H20229   8.094   1.293   1.985 -1.1897  0.8532 -0.0587
  891MOL0     H20230   8.054   1.366   2.282 -0.9328  1.9452 -0.8778
  891MOL0     H20231   8.195   1.279   2.206  0.5443  0.9059 -0.0742
  891MOL0     H20232   8.121   1.564   2.166 -1.9446 -1.0431 -3.7128
  891MOL0     H20233   8.237   1.482   2.065 -1.9673  2.1021 -0.8573
  891MOL0     H20234   8.286   1.526   2.351  0.5154 -0.8231 -0.9602
  891MOL0     H20235   8.387   1.419   2.249  0.6560  0.3167  0.0561
  891MOL0     H20236   8.579   1.522   2.113 -0.7499 -2.1821  2.5833
  891MOL0     H20237   8.721   1.700   2.007  1.0536 -0.9682  2.3238
  891MOL0     H20238   8.678   1.874   2.020 -1.3546 -0.1733  0.4907
  891MOL0     H20239   8.758   1.874   2.246 -4.4260  0.1282 -2.5951
  891MOL0     H20240   8.815   1.704   2.246  1.4993  0.5072  1.2231
  891MOL0     H20241   8.975   1.762   2.054 -0.0039  2.9998 -2.9713
  891MOL0     H20242   9.005   1.824   2.220 -0.9179 -3.0506  0.1494
  891MOL0     H20243   8.974   2.031   2.153  0.5081  0.6167  0.6240
  891MOL0     H20244   8.851   1.997   2.039  0.2323  0.9830  1.1478
  891MOL0     H20245   9.186   1.967   2.208 -1.5529  0.6491 -0.3857
  891MOL0     H20246   9.414   2.034   2.251  0.6353  1.2886  0.5244
  891MOL0     H20247   9.821   1.933   2.205  1.4919 -0.8979  2.4177
  891MOL0     H20248  10.052   1.975   2.260  1.9064  1.3547  0.2437
  891MOL0     H20249  10.205   2.397   2.241  0.2077  1.2353 -0.1820
  891MOL0     H20250  10.244   2.321   2.398  1.0730 -0.0441 -0.0761
  891MOL0     H20251  10.450   2.221   2.308 -0.9572 -0.9973  0.7181
  891MOL0     H20252  10.397   2.262   2.141  0.3613  1.6997 -0.2218
  891MOL0     H20253  10.395   2.509   2.222 -2.1458 -1.3049  1.1475
  891MOL0     H20254  10.483   2.448   2.358 -0.9925  0.8580 -0.3110
  891MOL0     H20255  10.565   2.413   2.064 -0.9165  0.1059 -0.4231
  891MOL0     H20256  10.675   2.382   2.197  1.5910  2.6145  0.5300
  891MOL0     H20257  10.657   2.627   2.263  0.7311  2.7626 -1.2228
  891MOL0     H20258  10.546   2.637   2.130  0.5682  1.4641  1.6723
  891MOL0     H20259  10.834   2.548   2.123  1.0687  0.0679 -1.5499
  891MOL0     H20260  10.740   2.551   1.979 -0.6383  0.8132  0.3695
  891MOL0     H20261  10.733   2.821   2.109  0.2295  0.3612  0.1054
  891MOL0     H20262  10.722   2.776   1.937 -0.1085 -0.8957 -0.9136
  891MOL0     H20263  10.968   2.764   1.935  6.7354  2.5517  0.5709
  891MOL0     H20264  10.924   2.916   2.009 -1.0475 -1.0369 -0.2797
  891MOL0     H20265   9.994   2.398   2.246  2.4553  0.1425 -1.5819
  891MOL0     H20266   9.745   2.355   2.208 -1.7863 -1.5583  2.6807
  891MOL0     H20267   9.454   2.094   1.826 -0.9195  1.1357 -0.7897
  891MOL0     H20268   9.222   2.041   1.789 -0.1014  2.4428  0.4507
  891MOL0     H20269   7.433   1.653   1.991  0.2924 -1.8272 -0.4571
  891MOL0     H20270   7.189   1.712   1.965  0.7651 -0.2014 -1.8131
  891MOL0     H20271   6.856   1.737   2.055 -0.1757  0.8978  0.4275
  891MOL0     H20272   6.657   1.880   2.087 -2.1597 -1.4990  2.8494
  891MOL0     H20273   6.452   2.044   2.047  2.5399 -1.8134  0.1862
  891MOL0     H20274   6.429   1.873   2.118 -1.3241 -2.0895 -0.5489
  891MOL0     H20275   6.256   2.057   1.953  1.5932 -1.8250 -1.5428
  891MOL0     H20276   6.254   2.049   2.132  0.0399  1.3141 -0.3633
  891MOL0     H20277   6.206   1.810   2.129 -0.4383 -0.3773 -0.6910
  891MOL0     H20278   6.175   1.813   1.946 -1.6290  0.9921 -1.3552
  891MOL0     H20279   6.007   1.962   1.974 -1.2451  1.3936  1.7491
  891MOL0     H20280   5.976   1.814   2.074  1.8788 -1.3321  0.5057
  891MOL0     H20281   5.955   2.142   2.346  1.9722  0.5035  0.0010
  891MOL0     H20282   6.487   1.678   1.742  2.3250  0.6340 -1.5627
  891MOL0     H20283   6.569   1.506   1.649  0.4455 -1.0924  0.7167
  891MOL0     H20284   6.736   1.568   1.600 -0.5468  0.0845 -1.2126
  891MOL0     H20285   6.712   1.444   1.715 -1.0225 -0.5386 -1.8277
  892MOL0     O20286   8.876   0.655  10.763  0.5105 -0.2856  0.8026
  892MOL0     C20287   8.783   0.674  10.845 -0.6994 -0.1606  0.4874
  892MOL0     O20288   8.794   0.745  10.960  0.6041  0.1935  0.0234
  892MOL0     C20289   8.919   0.789  11.010  0.2354 -0.7355  0.0577
  892MOL0     C20290   8.916   0.910  11.067  0.1243 -0.0606 -1.0015
  892MOL0     C20291   9.035   0.976  11.097 -0.8871  0.5173  1.0343
  892MOL0     C20292   9.159   0.907  11.077 -0.5545  0.0314  0.3014
  892MOL0     O20293   9.278   0.951  11.112 -0.0205 -0.7858 -0.0375
  892MOL0     C20294   9.286   1.077  11.190  0.3361  0.5177  0.4525
  892MOL0     C20295   9.434   1.089  11.235  0.2138  0.1123  0.2867
  892MOL0     C20296   9.518   1.112  11.115 -0.3168  0.3304  0.1021
  892MOL0     C20297   9.669   1.127  11.152  0.3152 -0.1470 -0.1883
  892MOL0     C20298   9.749   1.126  11.025 -1.5617  0.2436  1.3939
  892MOL0     C20299   9.897   1.165  11.041 -0.1891  0.8238  0.3603
  892MOL0     C20300   9.984   1.109  10.921  0.5729  0.6385 -0.3437
  892MOL0     C20301  10.132   1.140  10.939  0.0514  0.0119  0.1318
  892MOL0     N20302  10.210   1.068  10.838  0.5216 -0.4513  0.3554
  892MOL0     C20303  10.237   1.114  10.711  0.1138 -0.3946  0.4483
  892MOL0     C20304  10.323   1.029  10.654  0.4484 -0.1711  0.0694
  892MOL0     C20305  10.374   1.038  10.506 -1.0052 -0.2047 -0.1366
  892MOL0     C20306  10.450   1.169  10.469  0.0002  0.1071  0.7069
  892MOL0     C20307  10.499   1.175  10.316  0.2060  0.1012 -0.3323
  892MOL0     C20308  10.601   1.289  10.289 -0.2589  0.0128 -0.2082
  892MOL0     O20309  10.728   1.277  10.353 -0.6495 -0.0439  0.0749
  892MOL0     C20310  10.828   1.212  10.293 -0.2114 -0.0241  0.6056
  892MOL0     C20311  10.958   1.262  10.314  0.3105 -0.1380 -0.3087
  892MOL0     C20312  11.069   1.202  10.252 -0.1553 -0.1633  0.3668
  892MOL0     C20313  11.053   1.098  10.158 -0.1612 -0.1069  0.0041
  892MOL0     C20314  11.169   1.053  10.074  1.3451 -0.5985  0.3216
  892MOL0     O20315  11.277   1.137  10.077  0.0977  0.7579 -0.2870
  892MOL0     C20316  11.382   1.091   9.999  0.2720  0.7825 -0.4700
  892MOL0     C20317  11.502   1.060  10.065  0.4760  0.2430 -1.4266
  892MOL0     C20318  11.610   1.013   9.989 -0.4850 -0.7605 -0.1106
  892MOL0     C20319  11.607   1.006   9.848 -0.5086  0.3024  0.4575
  892MOL0     O20320  11.718   0.973   9.778 -0.1669  1.2171 -0.5227
  892MOL0     C20321  11.747   1.001   9.648 -0.4206 -0.0885 -0.9127
  892MOL0     C20322  11.899   1.000   9.611 -0.3657 -0.4562 -0.4480
  892MOL0     C20323  11.965   1.100   9.706  0.5545  0.3435  0.4857
  892MOL0     C20324  12.120   1.090   9.697  0.2730  0.0719  0.2296
  892MOL0     C20325  12.192   1.160   9.810 -0.5294  0.2690 -0.0488
  892MOL0     C20326  12.343   1.146   9.784  0.8200  0.7023  0.4619
  892MOL0     C20327  12.436   1.148   9.906 -0.9280  0.3233  0.5938
  892MOL0     C20328  12.416   1.279   9.987 -0.5114 -0.1449  0.0731
  892MOL0    Cl20329  12.537   1.289  10.108 -0.1607 -0.3341 -0.1339
  892MOL0     C20330  11.484   1.046   9.789  0.4812  0.3819 -0.4439
  892MOL0     C20331  11.367   1.075   9.861 -0.3853  0.5307  0.7194
  892MOL0     O20332  11.150   0.954  10.002  0.0254 -0.9491 -0.3998
  892MOL0     C20333  10.925   1.051  10.130  0.3896  0.1599  0.4183
  892MOL0     C20334  10.817   1.107  10.199  0.1247  0.2833  0.6237
  892MOL0     N20335  10.340   0.932  10.746 -0.0567  0.1831 -0.5920
  892MOL0     N20336  10.281   0.956  10.856  0.3379 -0.2495 -0.2245
  892MOL0     C20337   9.155   0.773  11.033  0.7013  0.0093 -0.5236
  892MOL0     C20338   9.033   0.715  10.996 -0.2998  0.4936 -0.1696
  892MOL0     C20339   8.645   0.633  10.792 -0.2883  0.4584 -0.1678
  892MOL0     C20340   8.614   0.632  10.657 -0.6171 -0.2675  0.0024
  892MOL0     C20341   8.484   0.594  10.612  0.2567 -0.6726 -0.6039
  892MOL0     C20342   8.383   0.562  10.707  0.2252  0.7334  0.3604
  892MOL0     O20343   8.257   0.561  10.659  0.0880  0.5114 -0.9329
  892MOL0     C20344   8.155   0.484  10.733  0.0087  0.3102 -0.6556
  892MOL0     C20345   8.146   0.339  10.687  0.2962 -0.1035  0.4938
  892MOL0     C20346   8.273   0.267  10.702  0.4021 -1.0323  0.5440
  892MOL0     C20347   8.265   0.120  10.666 -1.0981 -0.1036 -0.3506
  892MOL0     C20348   8.357   0.049  10.754 -0.1507 -0.4090 -0.6311
  892MOL0     C20349   8.443   0.002  10.824  0.1526 -0.0465 -0.4811
  892MOL0     C20350   8.414   0.551  10.842  0.2207 -0.3260 -0.6961
  892MOL0     C20351   8.545   0.586  10.883  0.6554 -0.6504 -0.3669
  892MOL0     C20352   8.563   0.574  11.033  0.1896  0.1592 -0.0632
  892MOL0     H20353   8.829   0.974  11.081 -0.3928  0.2307 -4.6724
  892MOL0     H20354   9.027   1.081  11.123 -0.1119  1.6155 -2.5898
  892MOL0     H20355   9.266   1.167  11.131  0.2287  0.2758  0.1181
  892MOL0     H20356   9.216   1.076  11.275 -2.4384 -3.5848 -1.5524
  892MOL0     H20357   9.457   0.994  11.284 -2.9041 -0.2712  1.2002
  892MOL0     H20358   9.454   1.164  11.312 -1.3732 -0.9244  1.7848
  892MOL0     H20359   9.474   1.188  11.050 -1.3455 -0.7445 -0.5033
  892MOL0     H20360   9.501   1.023  11.054 -3.6202 -0.6480  2.1804
  892MOL0     H20361   9.689   1.223  11.200  3.6399  0.0661 -1.6779
  892MOL0     H20362   9.703   1.039  11.206  0.9926 -1.3678 -2.4722
  892MOL0     H20363   9.742   1.023  10.988 -0.9741  0.6675  0.0206
  892MOL0     H20364   9.694   1.184  10.950 -1.0262 -0.6186  0.2858
  892MOL0     H20365   9.895   1.275  11.044 -1.0948  0.8873 -1.3545
  892MOL0     H20366   9.936   1.120  11.133 -1.8372 -0.1009  0.6392
  892MOL0     H20367   9.939   1.147  10.829  1.9933 -1.7790 -2.1654
  892MOL0     H20368   9.976   1.001  10.912  0.7444  0.5029  0.9279
  892MOL0     H20369  10.156   1.247  10.950 -1.1086  0.2233  0.7732
  892MOL0     H20370  10.159   1.090  11.032 -0.1583 -2.7120 -1.1725
  892MOL0     H20371  10.194   1.206  10.673  0.8495  0.0500  0.6693
  892MOL0     H20372  10.436   0.950  10.489  0.4304  0.4904  1.2490
  892MOL0     H20373  10.283   1.033  10.445 -0.1590  2.0886 -1.7122
  892MOL0     H20374  10.385   1.256  10.483 -0.3114  0.1071 -0.5619
  892MOL0     H20375  10.532   1.170  10.542 -0.7763  0.0473  1.5920
  892MOL0     H20376  10.414   1.192  10.250 -1.9883  0.0336  2.3248
  892MOL0     H20377  10.542   1.078  10.290 -0.0989 -0.0723 -0.1924
  892MOL0     H20378  10.563   1.386  10.322  1.0016  0.5141 -0.1666
  892MOL0     H20379  10.621   1.288  10.182  0.1557 -0.2453 -0.1311
  892MOL0     H20380  10.961   1.341  10.388 -2.5436 -0.1857 -0.0708
  892MOL0     H20381  11.165   1.253  10.259  0.4120 -1.3137  1.3775
  892MOL0     H20382  11.502   1.076  10.172 -2.0065 -0.8642 -1.1789
  892MOL0     H20383  11.705   0.994  10.038 -0.2864  1.3740  0.4352
  892MOL0     H20384  11.693   0.937   9.577 -0.4940 -1.3588  0.2613
  892MOL0     H20385  11.713   1.102   9.621  1.9303  1.2495  0.7436
  892MOL0     H20386  11.942   0.900   9.620  1.1265 -0.0469 -2.4244
  892MOL0     H20387  11.920   1.029   9.508  1.8143 -1.2794 -0.2917
  892MOL0     H20388  11.925   1.198   9.679 -5.1253 -0.9202  2.7553
  892MOL0     H20389  11.933   1.086   9.809 -0.8608  1.0202  0.1705
  892MOL0     H20390  12.148   1.138   9.603 -0.0272  1.5732  0.8758
  892MOL0     H20391  12.155   0.986   9.703 -0.6787 -0.2456  0.4863
  892MOL0     H20392  12.169   1.108   9.903 -4.6451 -0.6022 -1.3746
  892MOL0     H20393  12.158   1.262   9.829 -1.5024 -0.3463  1.8235
  892MOL0     H20394  12.349   1.046   9.741 -1.8677  0.4827  0.4724
  892MOL0     H20395  12.372   1.224   9.712  1.2962 -0.1178 -0.2517
  892MOL0     H20396  12.539   1.146   9.870 -0.9613  0.3332  0.4974
  892MOL0     H20397  12.420   1.065   9.975  0.1275  2.6115  3.8527
  892MOL0     H20398  12.410   1.368   9.924  2.0018 -0.9401 -1.4395
  892MOL0     H20399  12.322   1.269  10.042 -1.8097  0.5430 -1.9187
  892MOL0     H20400  11.471   1.044   9.681 -3.3610  1.8413 -0.1749
  892MOL0     H20401  11.275   1.090   9.806 -0.1000  3.2513  0.8446
  892MOL0     H20402  10.919   0.969  10.059 -0.6134  1.0529 -0.5506
  892MOL0     H20403  10.721   1.060  10.185 -0.4664  0.7628  2.6549
  892MOL0     H20404   9.250   0.730  11.003  0.4909 -0.9130  0.0713
  892MOL0     H20405   9.028   0.617  10.949  1.5352 -0.4851  1.5143
  892MOL0     H20406   8.692   0.661  10.587  0.0990  0.7371  1.1694
  892MOL0     H20407   8.453   0.613  10.509 -2.1782 -3.9336 -0.5893
  892MOL0     H20408   8.058   0.531  10.716 -1.2318 -1.3347  1.3557
  892MOL0     H20409   8.176   0.491  10.840  2.2631 -0.4589 -0.9876
  892MOL0     H20410   8.107   0.317  10.588 -0.6238  2.1693  0.2826
  892MOL0     H20411   8.081   0.281  10.754 -0.0068 -0.6873 -0.2913
  892MOL0     H20412   8.309   0.278  10.805  0.2340  0.9237  0.4348
  892MOL0     H20413   8.347   0.323  10.645 -2.2928  1.9267 -0.3765
  892MOL0     H20414   8.162   0.086  10.672 -1.4741  0.1377 -3.6353
  892MOL0     H20415   8.301   0.100  10.564  2.5733 -0.9052  0.9401
  892MOL0     H20416   8.517  -0.040  10.889  0.6860  0.7199 -0.5721
  892MOL0     H20417   8.347   0.535  10.926 -0.2098  2.7136 -0.3458
  892MOL0     H20418   8.494   0.501  11.077 -0.2742  1.3164  1.1920
  892MOL0     H20419   8.664   0.552  11.069  1.0427  3.6960  0.0316
  892MOL0     H20420   8.533   0.667  11.082  0.3625  0.6017 -0.7883
  893MOL0     O20421   2.403   4.097   3.671 -0.1810  0.3293  0.2044
  893MOL0     C20422   2.392   4.168   3.569 -0.2945 -0.3711  0.6033
  893MOL0     O20423   2.503   4.203   3.486  0.0474 -0.2382 -0.5459
  893MOL0     C20424   2.608   4.111   3.470 -0.0232 -1.0760 -0.0856
  893MOL0     C20425   2.734   4.157   3.508  0.4845 -0.7665  0.2770
  893MOL0     C20426   2.845   4.071   3.511  0.4845 -0.3423  0.5398
  893MOL0     C20427   2.828   3.944   3.466 -0.0593  1.0579  0.0585
  893MOL0     O20428   2.933   3.856   3.469 -0.2096  0.7161  0.3749
  893MOL0     C20429   3.039   3.901   3.401 -0.1028 -0.6617 -0.0456
  893MOL0     C20430   3.071   3.810   3.285  0.1404  0.2039 -0.1650
  893MOL0     C20431   3.211   3.843   3.238  0.1135 -0.1146  1.0437
  893MOL0     C20432   3.259   3.735   3.135  0.6732 -0.1385  0.1226
  893MOL0     C20433   3.401   3.759   3.099 -0.2399 -0.0082  0.0099
  893MOL0     C20434   3.486   3.688   3.218  0.8156  0.0549 -0.2836
  893MOL0     C20435   3.632   3.710   3.214  0.1165  0.6275  1.1172
  893MOL0     C20436   3.708   3.650   3.086 -0.0949 -0.3333 -0.2251
  893MOL0     N20437   3.852   3.689   3.077  0.4113  0.3048  0.4925
  893MOL0     C20438   3.907   3.814   3.050  0.3535 -0.5840  0.2660
  893MOL0     C20439   4.044   3.794   3.057  0.0186  0.8067 -0.1271
  893MOL0     C20440   4.151   3.892   3.022 -0.2533  0.1767  1.0084
  893MOL0     C20441   4.278   3.818   2.974  0.3359 -0.8588  0.4186
  893MOL0     C20442   4.388   3.910   2.922 -0.2794  0.4491  0.7056
  893MOL0     C20443   4.485   3.826   2.834  0.7283 -0.4731  0.2195
  893MOL0     O20444   4.564   3.734   2.904  0.5201  0.2838 -1.0069
  893MOL0     C20445   4.682   3.685   2.847  0.9383 -0.4575 -0.3711
  893MOL0     C20446   4.764   3.599   2.927 -0.5488  0.3211 -0.2562
  893MOL0     C20447   4.890   3.547   2.879  1.1552  0.5282  0.7835
  893MOL0     C20448   4.922   3.583   2.746  0.0020  0.3719  0.2850
  893MOL0     C20449   5.053   3.547   2.702 -0.4427  0.5055  0.6691
  893MOL0     O20450   5.096   3.425   2.738 -0.5156 -0.1482 -0.9900
  893MOL0     C20451   5.230   3.406   2.711  1.5000  0.0057 -0.4525
  893MOL0     C20452   5.269   3.404   2.575 -0.5163  0.6027  0.4158
  893MOL0     C20453   5.408   3.388   2.552 -0.0539 -0.6073 -0.0071
  893MOL0     C20454   5.505   3.361   2.652 -0.0936  0.1465 -0.2864
  893MOL0     O20455   5.635   3.341   2.619  0.4301 -0.1176 -0.1757
  893MOL0     C20456   5.740   3.421   2.680  0.0704  0.0467  0.6877
  893MOL0     C20457   5.867   3.443   2.597  0.2059  0.2781  0.0371
  893MOL0     C20458   5.977   3.504   2.684 -1.2791  1.1572 -1.1778
  893MOL0     C20459   6.118   3.532   2.622  0.1376 -0.8963  0.4492
  893MOL0     C20460   6.220   3.603   2.726  0.2962 -0.3365 -0.7919
  893MOL0     C20461   6.305   3.504   2.795  0.6611  0.2329  0.3461
  893MOL0     C20462   6.405   3.581   2.884  0.4065  0.3987  0.0951
  893MOL0     C20463   6.533   3.614   2.804 -0.6126  1.0613 -0.5881
  893MOL0    Cl20464   6.632   3.724   2.911  0.2261  0.1871 -0.5417
  893MOL0     C20465   5.462   3.361   2.781 -0.3680  0.4402 -0.1819
  893MOL0     C20466   5.327   3.376   2.809  0.4778  0.4513  0.0076
  893MOL0     O20467   5.113   3.623   2.629 -0.5061  0.1046  0.2251
  893MOL0     C20468   4.840   3.667   2.667 -0.0753 -0.4439 -0.1361
  893MOL0     C20469   4.726   3.721   2.710 -0.5284  0.0642 -0.8012
  893MOL0     N20470   4.066   3.663   3.096  0.3003 -0.9215 -0.4813
  893MOL0     N20471   3.952   3.606   3.112  0.8328 -1.0821  0.3911
  893MOL0     C20472   2.708   3.894   3.434  0.9439 -0.3809  0.0394
  893MOL0     C20473   2.598   3.978   3.433 -0.4909 -0.5310 -0.4639
  893MOL0     C20474   2.262   4.233   3.532 -0.1430 -0.1368 -0.4402
  893MOL0     C20475   2.267   4.302   3.406  0.0073 -0.9140 -0.0192
  893MOL0     C20476   2.154   4.375   3.365 -0.3311 -0.8529 -0.1137
  893MOL0     C20477   2.035   4.371   3.433 -0.5439  0.1588  0.2444
  893MOL0     O20478   1.923   4.446   3.396 -0.3136  0.5121  0.1905
  893MOL0     C20479   1.877   4.418   3.267  0.1829  1.2516  0.5487
  893MOL0     C20480   1.754   4.490   3.241 -0.1125 -0.6571  0.0578
  893MOL0     C20481   1.649   4.489   3.354  0.4711 -0.9619 -1.0190
  893MOL0     C20482   1.531   4.573   3.306 -0.5122 -1.2655  0.1543
  893MOL0     C20483   1.419   4.579   3.399  0.1678 -0.6395  0.1052
  893MOL0     C20484   1.344   4.589   3.492 -0.7815  1.1986 -0.7336
  893MOL0     C20485   2.038   4.309   3.554  0.4421  0.1286  0.0367
  893MOL0     C20486   2.141   4.230   3.607  0.9237  0.5795  1.1741
  893MOL0     C20487   2.106   4.142   3.728  0.2641  0.4376 -0.3872
  893MOL0     H20488   2.747   4.260   3.541 -0.2863 -0.2166 -1.0289
  893MOL0     H20489   2.935   4.109   3.559  0.6497 -2.1925  1.7527
  893MOL0     H20490   3.054   4.006   3.372  0.0669 -0.8283 -0.5869
  893MOL0     H20491   3.114   3.900   3.480 -1.1215  1.9687  1.1073
  893MOL0     H20492   3.009   3.842   3.200  0.8917 -0.4415 -0.9787
  893MOL0     H20493   3.055   3.707   3.315 -0.2601  0.3335  0.0717
  893MOL0     H20494   3.293   3.863   3.308 -1.3028  1.9858  2.2116
  893MOL0     H20495   3.209   3.931   3.174  0.0307 -2.5613 -2.6073
  893MOL0     H20496   3.246   3.634   3.175  1.8119 -0.0359  0.7904
  893MOL0     H20497   3.211   3.737   3.037  1.7995 -1.3966 -0.4904
  893MOL0     H20498   3.424   3.721   2.999  0.4957  2.5655 -0.8644
  893MOL0     H20499   3.419   3.866   3.093  1.2422 -0.3149 -3.2191
  893MOL0     H20500   3.456   3.727   3.316  1.5261  1.1089 -0.4722
  893MOL0     H20501   3.460   3.583   3.204 -2.7968  1.1859 -4.2543
  893MOL0     H20502   3.679   3.665   3.302  2.2247  0.7168  0.0983
  893MOL0     H20503   3.656   3.816   3.208  0.3445  0.5134 -2.0669
  893MOL0     H20504   3.694   3.542   3.086  0.7837 -0.4482 -0.1062
  893MOL0     H20505   3.656   3.691   2.998 -0.9841 -2.8854 -0.9673
  893MOL0     H20506   3.857   3.905   3.019  2.8556  0.6128 -0.4870
  893MOL0     H20507   4.117   3.962   2.945  2.3804  1.0597  0.5558
  893MOL0     H20508   4.188   3.944   3.112  2.2147 -0.2329  0.2961
  893MOL0     H20509   4.322   3.757   3.052  0.4139  1.5823  2.4042
  893MOL0     H20510   4.239   3.743   2.904  0.6758  0.7541 -1.6091
  893MOL0     H20511   4.451   3.953   3.000 -0.8952  2.3303  0.2252
  893MOL0     H20512   4.344   3.983   2.853 -0.2496 -0.3708 -0.2147
  893MOL0     H20513   4.552   3.893   2.779  0.0218 -0.4541 -0.6490
  893MOL0     H20514   4.423   3.784   2.754 -3.6130 -1.8407  3.8820
  893MOL0     H20515   4.742   3.573   3.030 -0.4556 -2.8603 -0.9372
  893MOL0     H20516   4.957   3.504   2.954  0.8627 -0.9052  0.2544
  893MOL0     H20517   5.198   3.432   2.498 -2.5629  1.1871  2.4125
  893MOL0     H20518   5.438   3.396   2.448 -0.5515 -1.5618 -0.2407
  893MOL0     H20519   5.702   3.519   2.713 -1.6928 -0.0164 -1.0052
  893MOL0     H20520   5.766   3.367   2.772  2.7145  0.9751  0.5815
  893MOL0     H20521   5.897   3.343   2.566 -1.5452 -1.0952  2.4314
  893MOL0     H20522   5.854   3.518   2.518  2.2683  2.8923  2.0186
  893MOL0     H20523   5.940   3.598   2.725 -1.7675  0.7467 -0.6703
  893MOL0     H20524   5.996   3.434   2.767 -2.1428  0.7804 -1.2849
  893MOL0     H20525   6.111   3.604   2.540 -0.6759  0.8292  1.9620
  893MOL0     H20526   6.173   3.445   2.583  1.6301  0.2789 -0.1976
  893MOL0     H20527   6.175   3.665   2.803  0.3244 -2.0054  0.6172
  893MOL0     H20528   6.288   3.661   2.663  2.4565 -0.9421  0.8727
  893MOL0     H20529   6.240   3.428   2.841 -0.3577 -1.6124 -3.7498
  893MOL0     H20530   6.359   3.449   2.718  2.0932  2.6527 -0.4735
  893MOL0     H20531   6.438   3.511   2.961  1.8448 -2.1005 -2.6017
  893MOL0     H20532   6.356   3.669   2.928 -3.2615 -1.0366 -0.7599
  893MOL0     H20533   6.582   3.524   2.766  1.4417  2.4851 -1.4994
  893MOL0     H20534   6.497   3.671   2.718 -0.5832 -0.3264 -1.5478
  893MOL0     H20535   5.532   3.341   2.862  1.8544  0.4968 -1.9768
  893MOL0     H20536   5.286   3.356   2.907 -1.6252 -2.3715 -1.3043
  893MOL0     H20537   4.877   3.694   2.569  2.0334 -0.6226  0.5578
  893MOL0     H20538   4.665   3.782   2.644  1.0298  0.1087 -2.2415
  893MOL0     H20539   2.694   3.792   3.402 -2.2842 -0.3682  1.0347
  893MOL0     H20540   2.501   3.935   3.406  0.3975 -2.9907 -0.0641
  893MOL0     H20541   2.361   4.311   3.352 -0.3096 -0.1757 -0.4749
  893MOL0     H20542   2.154   4.447   3.284 -0.0839  1.2692  1.7013
  893MOL0     H20543   1.856   4.311   3.257  0.9523  1.1199  0.2868
  893MOL0     H20544   1.951   4.440   3.190  0.1114  4.9430  1.3419
  893MOL0     H20545   1.713   4.435   3.156 -0.6057 -3.3914  1.9372
  893MOL0     H20546   1.786   4.593   3.221 -0.0789 -0.2849  1.8430
  893MOL0     H20547   1.691   4.532   3.445  2.5354  0.3333 -2.4875
  893MOL0     H20548   1.615   4.388   3.378 -0.4510 -0.1763  1.3172
  893MOL0     H20549   1.557   4.678   3.288 -1.1569 -1.3039 -1.1183
  893MOL0     H20550   1.493   4.521   3.217 -2.4823  1.4249 -0.7106
  893MOL0     H20551   1.303   4.589   3.591  3.6192  1.6827  1.3398
  893MOL0     H20552   1.942   4.299   3.605  1.6637  0.7672  2.6661
  893MOL0     H20553   2.131   4.189   3.824 -0.1499  0.2216 -0.1715
  893MOL0     H20554   1.999   4.121   3.737  0.9331 -3.8008 -0.1348
  893MOL0     H20555   2.152   4.043   3.718  1.6891  0.8106  1.8131
  894MOL0     O20556   2.038   8.612   2.812 -0.1211 -0.2842 -0.0246
  894MOL0     C20557   1.966   8.592   2.715 -0.0669  1.0423  0.2936
  894MOL0     O20558   2.005   8.573   2.582  0.3379  0.4599  0.9628
  894MOL0     C20559   2.129   8.596   2.542 -0.4547 -0.0231 -0.6576
  894MOL0     C20560   2.198   8.716   2.569 -0.4167  0.1196  0.4226
  894MOL0     C20561   2.329   8.728   2.503 -0.2114 -0.0041 -0.5255
  894MOL0     C20562   2.379   8.636   2.425  0.1922 -0.7725  0.6709
  894MOL0     O20563   2.509   8.655   2.379  0.5571 -0.2368  0.4248
  894MOL0     C20564   2.607   8.677   2.478 -0.2325 -0.4534 -0.5545
  894MOL0     C20565   2.743   8.676   2.410 -0.1579  0.1350  0.1423
  894MOL0     C20566   2.845   8.765   2.483 -0.5889  0.0246  0.0575
  894MOL0     C20567   2.866   8.730   2.638  0.0505  0.1891 -0.2795
  894MOL0     C20568   2.953   8.837   2.716 -0.0105 -0.2115  0.3696
  894MOL0     C20569   2.972   8.781   2.856  0.3810  0.5301  0.0520
  894MOL0     C20570   3.008   8.890   2.952 -0.2761  0.5663 -0.0001
  894MOL0     C20571   2.995   8.850   3.098 -0.2055  0.5282  0.5676
  894MOL0     N20572   3.123   8.868   3.167  0.6824  0.4223  0.1405
  894MOL0     C20573   3.133   8.938   3.281 -0.8404 -0.0685  0.8110
  894MOL0     C20574   3.266   8.926   3.317  0.0852  0.1716 -0.0155
  894MOL0     C20575   3.328   8.988   3.428 -0.5387  0.4978  0.2746
  894MOL0     C20576   3.395   9.123   3.396  0.3610 -0.4441  0.3882
  894MOL0     C20577   3.475   9.119   3.271  0.0654  0.0702 -0.6059
  894MOL0     C20578   3.566   9.240   3.245 -0.0755  0.1351 -0.4165
  894MOL0     O20579   3.668   9.250   3.351 -0.3836 -0.2581 -0.1912
  894MOL0     C20580   3.796   9.236   3.317  1.0724  0.0952  1.0285
  894MOL0     C20581   3.857   9.326   3.223  0.3326  0.2952  0.1111
  894MOL0     C20582   3.986   9.313   3.184  0.4612 -0.5426  0.0309
  894MOL0     C20583   4.071   9.214   3.250  0.9611 -0.2199 -0.3968
  894MOL0     C20584   4.210   9.198   3.217  0.1032 -0.3430 -0.7453
  894MOL0     O20585   4.283   9.093   3.258 -0.5369  0.2250 -0.1088
  894MOL0     C20586   4.421   9.102   3.251 -0.1941  0.0883  0.2908
  894MOL0     C20587   4.498   8.992   3.193 -0.3307 -1.4212  0.3562
  894MOL0     C20588   4.636   9.007   3.160 -0.6860  1.1133  0.3986
  894MOL0     C20589   4.712   9.117   3.206 -0.7356 -0.6369 -0.2454
  894MOL0     O20590   4.852   9.131   3.188 -0.3883 -0.2418 -1.2010
  894MOL0     C20591   4.880   9.225   3.086 -0.3967  0.4001 -0.2689
  894MOL0     C20592   5.026   9.207   3.038 -0.4450  0.3626 -0.3162
  894MOL0     C20593   5.128   9.183   3.149  0.1823 -0.2784  0.2379
  894MOL0     C20594   5.268   9.182   3.087 -0.2414  0.6649  0.3254
  894MOL0     C20595   5.313   9.044   3.027 -0.0739 -0.1647  0.1047
  894MOL0     C20596   5.466   9.053   2.987 -0.9038 -0.3521  0.3274
  894MOL0     C20597   5.508   8.916   2.920 -0.2881  0.5587 -0.3869
  894MOL0     C20598   5.648   8.925   2.855  0.3669  0.5233  0.0200
  894MOL0    Cl20599   5.750   8.926   3.001  0.0089  0.1751 -0.5493
  894MOL0     C20600   4.635   9.211   3.283 -0.1902 -0.1954 -0.1323
  894MOL0     C20601   4.499   9.205   3.300 -0.2619  0.3761  0.6186
  894MOL0     O20602   4.254   9.288   3.142  0.1839 -0.4701 -0.5635
  894MOL0     C20603   4.013   9.137   3.357  0.1584 -0.2645  0.3581
  894MOL0     C20604   3.877   9.147   3.385 -0.5339  0.0767  0.7833
  894MOL0     N20605   3.326   8.829   3.234 -0.2407 -0.4278  0.4042
  894MOL0     N20606   3.239   8.802   3.140  0.0743 -0.1354  0.4370
  894MOL0     C20607   2.319   8.521   2.408 -0.2404  1.0423 -0.3830
  894MOL0     C20608   2.179   8.502   2.458 -1.4038  0.0492 -0.1971
  894MOL0     C20609   1.823   8.572   2.753 -0.4775 -0.0502 -0.6465
  894MOL0     C20610   1.797   8.561   2.894 -0.6113 -0.5471  0.2513
  894MOL0     C20611   1.662   8.540   2.929  0.6813 -0.4134 -0.3426
  894MOL0     C20612   1.561   8.520   2.841 -0.1705 -0.1164  0.3043
  894MOL0     O20613   1.432   8.482   2.872  0.7853  0.5317  0.3937
  894MOL0     C20614   1.396   8.479   3.011  0.2217 -0.5217 -0.2174
  894MOL0     C20615   1.273   8.395   3.047 -0.6278 -0.6290  0.3686
  894MOL0     C20616   1.138   8.456   2.977 -0.5926  0.8182 -0.2307
  894MOL0     C20617   1.105   8.589   3.027 -0.2997 -0.0099  0.5069
  894MOL0     C20618   0.964   8.613   3.006 -0.2032  0.3775 -0.0279
  894MOL0     C20619   0.846   8.636   2.987 -0.1674  0.0484 -0.0929
  894MOL0     C20620   1.590   8.519   2.705  0.0881 -0.0664 -0.0827
  894MOL0     C20621   1.715   8.560   2.661  0.7034  0.0743  0.8414
  894MOL0     C20622   1.722   8.572   2.508  1.1523 -0.9249 -0.3200
  894MOL0     H20623   2.146   8.790   2.629  1.2802  0.5861  1.3628
  894MOL0     H20624   2.390   8.816   2.515 -1.7438  0.8936  1.2716
  894MOL0     H20625   2.595   8.777   2.522 -1.3152 -0.8300  0.0514
  894MOL0     H20626   2.608   8.596   2.551 -5.5623 -0.7722 -0.4222
  894MOL0     H20627   2.736   8.706   2.305  1.4023  2.4870  0.6335
  894MOL0     H20628   2.789   8.577   2.413  0.2665  0.3487  1.0221
  894MOL0     H20629   2.823   8.871   2.466 -2.4742 -0.5840 -1.6082
  894MOL0     H20630   2.941   8.753   2.431  0.9905 -0.7148  2.9042
  894MOL0     H20631   2.768   8.725   2.687  0.3952 -1.8316  0.2856
  894MOL0     H20632   2.909   8.631   2.654 -0.0714 -0.2835 -2.4661
  894MOL0     H20633   3.046   8.851   2.659 -0.2092 -1.2903 -0.2470
  894MOL0     H20634   2.897   8.931   2.721 -1.0248 -0.8583  2.3225
  894MOL0     H20635   2.881   8.729   2.886  0.5046  1.2511  1.7790
  894MOL0     H20636   3.049   8.704   2.854 -0.0597  0.0736  0.4482
  894MOL0     H20637   2.938   8.972   2.931  0.5182  1.1919 -0.2195
  894MOL0     H20638   3.110   8.921   2.931 -0.2182  0.3340 -0.0683
  894MOL0     H20639   2.905   8.895   3.141  0.5360  1.1050  1.5512
  894MOL0     H20640   2.976   8.743   3.089  0.1242  0.4471  0.8364
  894MOL0     H20641   3.055   9.000   3.322  0.7630  2.4764  0.2581
  894MOL0     H20642   3.244   9.007   3.497 -1.2224  1.7350 -0.8496
  894MOL0     H20643   3.391   8.910   3.471 -1.9449 -0.6857  0.2698
  894MOL0     H20644   3.319   9.202   3.398  0.6594  0.0057 -2.0245
  894MOL0     H20645   3.458   9.155   3.480 -1.1132  1.6154  0.7918
  894MOL0     H20646   3.410   9.096   3.186 -0.4346 -0.3154 -0.1260
  894MOL0     H20647   3.532   9.026   3.280  0.2658  0.2965  0.6180
  894MOL0     H20648   3.513   9.336   3.248 -0.7427 -0.1981 -1.1598
  894MOL0     H20649   3.608   9.233   3.144 -0.0528  1.4884 -0.5204
  894MOL0     H20650   3.787   9.393   3.173 -0.2039 -2.2873 -2.8381
  894MOL0     H20651   4.022   9.385   3.111  0.8434  1.1564  1.7933
  894MOL0     H20652   4.451   8.905   3.148 -0.2268  0.4440 -3.8056
  894MOL0     H20653   4.689   8.926   3.112 -1.3563  0.1802  1.1708
  894MOL0     H20654   4.816   9.213   2.999 -2.5791  0.7627  1.2217
  894MOL0     H20655   4.870   9.324   3.130  2.9364  0.8811 -0.3376
  894MOL0     H20656   5.028   9.130   2.960  1.3970 -1.1770  1.1438
  894MOL0     H20657   5.042   9.298   2.979 -1.8004 -0.2665 -1.7137
  894MOL0     H20658   5.139   9.261   3.225  0.9412  0.2433 -0.3842
  894MOL0     H20659   5.104   9.086   3.194  1.1742  0.3097  2.1580
  894MOL0     H20660   5.325   9.202   3.178 -4.1362  1.6709  2.7816
  894MOL0     H20661   5.294   9.264   3.019  2.8939 -0.0026  0.5564
  894MOL0     H20662   5.256   9.014   2.939  1.2012 -1.3104 -0.3556
  894MOL0     H20663   5.293   8.959   3.093 -0.5356  0.1778  0.4215
  894MOL0     H20664   5.481   9.144   2.927  5.2433 -0.3299  1.2448
  894MOL0     H20665   5.527   9.065   3.077 -2.7396  0.3881  1.5252
  894MOL0     H20666   5.427   8.885   2.853  0.8665 -0.3877 -1.3940
  894MOL0     H20667   5.507   8.840   2.999 -1.7724  1.4872  0.5385
  894MOL0     H20668   5.677   8.841   2.791 -0.5444 -1.5746  2.2270
  894MOL0     H20669   5.651   9.012   2.788 -1.9324  0.2413 -0.5550
  894MOL0     H20670   4.686   9.295   3.327  0.6153 -1.0744  0.6628
  894MOL0     H20671   4.456   9.289   3.352  1.0092  0.8084  1.0132
  894MOL0     H20672   4.083   9.079   3.416 -0.6926  0.3995  2.0687
  894MOL0     H20673   3.836   9.072   3.452  3.5040 -2.0382  1.1465
  894MOL0     H20674   2.371   8.441   2.356 -1.0531 -0.9211  1.6308
  894MOL0     H20675   2.116   8.415   2.439  1.0189 -1.6587 -0.8796
  894MOL0     H20676   1.866   8.568   2.978 -1.7032 -1.8427  1.3203
  894MOL0     H20677   1.634   8.537   3.034 -2.5352 -0.2237 -1.0867
  894MOL0     H20678   1.371   8.581   3.042  0.2153 -0.7344  0.4923
  894MOL0     H20679   1.480   8.445   3.072  0.5367  1.3605  0.4753
  894MOL0     H20680   1.253   8.387   3.155 -2.7640 -1.5357 -0.0292
  894MOL0     H20681   1.291   8.300   2.995 -0.2115  0.7716 -2.1840
  894MOL0     H20682   1.058   8.393   3.018 -0.3185 -0.4963 -1.6188
  894MOL0     H20683   1.134   8.436   2.869 -1.3185  2.0097 -0.4400
  894MOL0     H20684   1.137   8.610   3.130  2.7572 -0.5056 -0.2262
  894MOL0     H20685   1.166   8.655   2.965  1.8053 -1.6253  0.7101
  894MOL0     H20686   0.745   8.653   2.956 -0.6237 -4.0967 -1.4651
  894MOL0     H20687   1.515   8.483   2.636  1.2813  1.0850 -2.0814
  894MOL0     H20688   1.622   8.564   2.464 -0.3458  0.2769  2.5964
  894MOL0     H20689   1.762   8.673   2.494  0.7392 -0.5060  1.3336
  894MOL0     H20690   1.789   8.491   2.476  1.5284 -1.3328  1.4379
  895MOL0     O20691   0.247  10.210   1.893 -0.5371  0.1258  0.2038
  895MOL0     C20692   0.202  10.208   2.008 -0.2224  0.2892 -0.1848
  895MOL0     O20693   0.275  10.211   2.124  0.2902  0.0591 -0.2138
  895MOL0     C20694   0.404  10.251   2.135 -0.1961  0.3279  0.1701
  895MOL0     C20695   0.492  10.301   2.043  0.2878 -0.4408 -0.5213
  895MOL0     C20696   0.623  10.317   2.079  0.4357  0.2079  0.1792
  895MOL0     C20697   0.674  10.287   2.207 -0.1092  0.3556 -0.3534
  895MOL0     O20698   0.805  10.300   2.254  0.1318  0.1724 -0.0758
  895MOL0     C20699   0.921  10.308   2.162  0.0011 -0.6308  0.1499
  895MOL0     C20700   1.030  10.390   2.226 -1.0121 -0.9184  0.2103
  895MOL0     C20701   1.153  10.430   2.132  0.3821 -0.1348 -0.7746
  895MOL0     C20702   1.242  10.524   2.212  0.1191  0.1870  0.1511
  895MOL0     C20703   1.384  10.535   2.153 -0.0927  0.3700 -0.3167
  895MOL0     C20704   1.408  10.600   2.010 -0.1778  0.9944  0.4278
  895MOL0     C20705   1.381  10.749   2.008  0.5039  0.1455 -0.4402
  895MOL0     C20706   1.447  10.826   2.116 -0.9639  0.3277  0.6866
  895MOL0     N20707   1.591  10.802   2.133 -0.6744 -0.1034  0.3723
  895MOL0     C20708   1.685  10.813   2.032  0.2355 -0.9606  0.0903
  895MOL0     C20709   1.802  10.785   2.094 -0.4566 -0.1759  0.7455
  895MOL0     C20710   1.939  10.783   2.033 -0.3029 -0.0241 -0.3380
  895MOL0     C20711   2.002  10.916   2.050 -0.5628  0.0990 -0.2747
  895MOL0     C20712   2.156  10.897   2.032  0.1327  0.3121  0.3863
  895MOL0     C20713   2.232  11.032   2.061 -0.4960 -0.3060 -0.0007
  895MOL0     O20714   2.372  10.999   2.079  0.1905 -0.6441  0.2920
  895MOL0     C20715   2.459  11.086   2.017 -0.4009  0.8042  0.3388
  895MOL0     C20716   2.443  11.223   2.010  0.3801 -0.4967  0.2270
  895MOL0     C20717   2.539  11.303   1.954 -0.0111  0.4747 -0.4992
  895MOL0     C20718   2.657  11.249   1.902  0.5279  1.1771 -0.3434
  895MOL0     C20719   2.776  11.323   1.866  0.2956  0.0066  1.1805
  895MOL0     O20720   2.766  11.463   1.864  0.4291  0.0800  0.5953
  895MOL0     C20721   2.879  11.542   1.846 -0.3357 -0.0873  0.2339
  895MOL0     C20722   2.948  11.601   1.952  1.1796  0.1602 -0.1282
  895MOL0     C20723   3.063  11.669   1.936  0.1126  0.7713 -0.3497
  895MOL0     C20724   3.117  11.682   1.813  0.1292 -0.3411 -0.2024
  895MOL0     O20725   3.239  11.750   1.817  0.1846 -0.0548  0.0055
  895MOL0     C20726   3.314  11.745   1.699 -0.0425 -1.1455 -0.1280
  895MOL0     C20727   3.464  11.758   1.730  0.3745 -0.1122  0.0459
  895MOL0     C20728   3.507  11.903   1.752  0.7386 -0.1507  0.0613
  895MOL0     C20729   3.651  11.900   1.764 -0.2606 -0.7048 -0.7798
  895MOL0     C20730   3.725  12.029   1.747  0.7370 -0.4266  0.4848
  895MOL0     C20731   3.870  12.004   1.735 -0.3275  0.0293 -0.1954
  895MOL0     C20732   3.940  12.140   1.747 -1.2297 -0.0177  0.0011
  895MOL0     C20733   4.085  12.145   1.712 -0.0114  1.0988 -0.1587
  895MOL0    Cl20734   4.151  12.298   1.769 -0.0842 -0.1686 -0.4470
  895MOL0     C20735   3.049  11.633   1.701  0.1112 -0.8500  0.0211
  895MOL0     C20736   2.933  11.561   1.718  0.1629 -0.7611 -0.2847
  895MOL0     O20737   2.879  11.262   1.834  0.6300  0.0617 -0.2518
  895MOL0     C20738   2.665  11.102   1.897  0.7022  0.3677 -0.3190
  895MOL0     C20739   2.566  11.025   1.953 -0.4498 -0.1333  0.5191
  895MOL0     N20740   1.767  10.743   2.225 -0.3746 -0.4344  0.6886
  895MOL0     N20741   1.648  10.762   2.253 -0.5010 -0.5335 -0.2625
  895MOL0     C20742   0.583  10.247   2.310 -0.4065  0.4158 -0.1686
  895MOL0     C20743   0.443  10.232   2.272 -0.1794 -0.0975  0.3445
  895MOL0     C20744   0.051  10.175   2.018 -0.2158 -0.0385  0.1089
  895MOL0     C20745  -0.006  10.174   2.147 -0.1493  0.8676 -0.6322
  895MOL0     C20746  -0.134  10.137   2.174  0.0522 -0.4796 -0.6414
  895MOL0     C20747  -0.215  10.107   2.068  1.0745 -0.1043  0.3481
  895MOL0     O20748  -0.353  10.082   2.094 -0.5969 -0.5101 -1.2339
  895MOL0     C20749  -0.435  10.023   1.994 -0.6779 -0.1991  0.8064
  895MOL0     C20750  -0.576   9.998   2.043 -0.0533  0.0269  0.2032
  895MOL0     C20751  -0.667   9.975   1.918  0.9779 -0.6291  0.5451
  895MOL0     C20752  -0.807   9.904   1.943  0.2413  0.2851 -0.6511
  895MOL0     C20753  -0.811   9.762   1.941 -0.8066 -0.3146 -0.5360
  895MOL0     C20754  -0.831   9.641   1.966  0.6717 -0.4391  0.2060
  895MOL0     C20755  -0.167  10.120   1.942  0.5208  0.3725  0.0059
  895MOL0     C20756  -0.033  10.147   1.910  0.1673  0.8038  0.4839
  895MOL0     C20757   0.000  10.139   1.765 -0.4539  0.4270  0.6604
  895MOL0     H20758   0.459  10.318   1.941 -3.5770 -0.7947  0.5266
  895MOL0     H20759   0.689  10.350   2.000  1.0822 -1.3236  0.0472
  895MOL0     H20760   0.956  10.208   2.137 -0.9602 -1.2212  1.1050
  895MOL0     H20761   0.903  10.360   2.067  1.9967  1.9686  1.0563
  895MOL0     H20762   1.066  10.361   2.325  1.2301  3.2729  0.8264
  895MOL0     H20763   0.986  10.489   2.245  2.2898  0.7788 -0.2862
  895MOL0     H20764   1.113  10.476   2.042  1.2098 -0.6853 -1.4392
  895MOL0     H20765   1.205  10.339   2.100  1.1081 -0.0590  0.1673
  895MOL0     H20766   1.188  10.616   2.236 -1.1031 -0.8373  1.4740
  895MOL0     H20767   1.252  10.484   2.313  1.4811  0.0257 -0.0220
  895MOL0     H20768   1.446  10.588   2.227  0.5832  0.9767 -1.2864
  895MOL0     H20769   1.421  10.433   2.143  0.9235  0.4931  1.6926
  895MOL0     H20770   1.510  10.570   1.982 -0.4687 -1.4967  1.7802
  895MOL0     H20771   1.344  10.552   1.935 -1.2154 -0.1772  1.9958
  895MOL0     H20772   1.273  10.761   2.019  0.5667 -0.2482  0.7888
  895MOL0     H20773   1.410  10.786   1.910 -2.4153  0.9255 -1.1092
  895MOL0     H20774   1.427  10.933   2.107 -0.3525  0.5869  2.1667
  895MOL0     H20775   1.399  10.808   2.213 -1.6107  2.8691  0.9035
  895MOL0     H20776   1.671  10.840   1.927 -1.0843  1.6145  0.8441
  895MOL0     H20777   1.998  10.704   2.081 -1.3498 -2.9879 -3.4810
  895MOL0     H20778   1.932  10.770   1.924 -0.6960  1.5544 -0.5263
  895MOL0     H20779   1.965  10.992   1.980 -1.2762  1.9341  1.9567
  895MOL0     H20780   1.983  10.968   2.145  0.4038 -0.3371  0.1641
  895MOL0     H20781   2.181  10.857   1.934  1.4859 -1.3616  1.3439
  895MOL0     H20782   2.189  10.822   2.105 -2.1563  1.2301  2.5193
  895MOL0     H20783   2.200  11.070   2.159  0.4166  2.6176 -0.7468
  895MOL0     H20784   2.207  11.102   1.980  1.0544 -0.9377 -1.0647
  895MOL0     H20785   2.348  11.267   2.035 -0.6722 -2.8770  0.6864
  895MOL0     H20786   2.518  11.409   1.943  0.6188  0.6897  0.3328
  895MOL0     H20787   2.915  11.590   2.055 -0.6140  2.2744 -0.3999
  895MOL0     H20788   3.119  11.718   2.015  0.0891  0.2799 -0.0242
  895MOL0     H20789   3.298  11.655   1.639 -0.3929 -0.8623 -0.4624
  895MOL0     H20790   3.280  11.831   1.642 -1.1027 -1.0891  0.5701
  895MOL0     H20791   3.483  11.706   1.825 -1.5630 -1.5666 -0.3042
  895MOL0     H20792   3.523  11.712   1.650 -0.5024 -2.2158  0.5267
  895MOL0     H20793   3.483  11.970   1.669  1.4219  0.2253  0.1592
  895MOL0     H20794   3.466  11.937   1.848 -0.2715 -2.0910  0.3615
  895MOL0     H20795   3.692  11.837   1.684  1.3096  0.8150 -1.2071
  895MOL0     H20796   3.680  11.850   1.857  2.2423 -0.9209 -1.6154
  895MOL0     H20797   3.700  12.094   1.832  0.0840  0.6885 -0.5355
  895MOL0     H20798   3.692  12.094   1.666  0.5149  1.6178  2.1383
  895MOL0     H20799   3.898  11.928   1.809 -1.3596 -1.2006 -1.0236
  895MOL0     H20800   3.889  11.976   1.632 -0.1320  0.0464 -0.1655
  895MOL0     H20801   3.926  12.178   1.849  0.0695  2.9881 -0.8240
  895MOL0     H20802   3.886  12.209   1.681  1.1320  2.0000  0.0037
  895MOL0     H20803   4.146  12.068   1.761  3.3421  3.2756 -0.5827
  895MOL0     H20804   4.102  12.138   1.604  0.9878 -3.8552  0.0759
  895MOL0     H20805   3.089  11.650   1.602  1.4249 -2.4970  0.2171
  895MOL0     H20806   2.882  11.517   1.633  0.9837 -2.3326 -0.0086
  895MOL0     H20807   2.746  11.044   1.854 -0.1560 -0.8880 -0.2994
  895MOL0     H20808   2.575  10.917   1.954  0.5403 -0.1106 -1.4972
  895MOL0     H20809   0.618  10.224   2.410  0.1188  2.7331  0.2297
  895MOL0     H20810   0.364  10.209   2.342 -2.0708  1.1307 -1.2782
  895MOL0     H20811   0.048  10.191   2.239  1.1087  1.8786 -1.5254
  895MOL0     H20812  -0.174  10.134   2.274 -4.7369  2.5846 -2.1152
  895MOL0     H20813  -0.395   9.929   1.953  0.2653  1.7141 -3.0515
  895MOL0     H20814  -0.431  10.085   1.904 -0.2960  0.3534  1.1946
  895MOL0     H20815  -0.619  10.077   2.105 -3.0521 -0.2802 -1.3518
  895MOL0     H20816  -0.582   9.910   2.108  1.5160 -1.3241 -1.3819
  895MOL0     H20817  -0.611   9.930   1.836  2.7958  0.6643  1.0052
  895MOL0     H20818  -0.706  10.068   1.876 -0.7062 -1.6294 -0.1825
  895MOL0     H20819  -0.844   9.943   2.038  1.9442  1.9018 -0.5857
  895MOL0     H20820  -0.871   9.937   1.861 -2.5817 -2.1147  0.4325
  895MOL0     H20821  -0.853   9.537   1.972 -2.6538  0.1417 -0.1264
  895MOL0     H20822  -0.224  10.096   1.853  1.9670 -1.7997 -0.4382
  895MOL0     H20823  -0.072  10.078   1.710 -2.6451  0.7843  2.9355
  895MOL0     H20824  -0.004  10.240   1.723  1.0343  0.7191  1.1316
  895MOL0     H20825   0.102  10.100   1.756 -1.1921 -1.5401  0.5275
  896MOL0     O20826   9.649   3.729  10.560  0.5522 -0.3398  0.9186
  896MOL0     C20827   9.615   3.835  10.510  0.2403 -0.0449  0.6262
  896MOL0     O20828   9.699   3.927  10.452  0.3938 -0.1980 -0.2570
  896MOL0     C20829   9.835   3.893  10.446  0.7664 -0.4870 -1.1340
  896MOL0     C20830   9.887   3.852  10.328 -1.2154  0.9014  0.2075
  896MOL0     C20831  10.019   3.810  10.316  0.3516 -0.0229  0.5770
  896MOL0     C20832  10.106   3.832  10.426  1.5872  0.6833 -0.5310
  896MOL0     O20833  10.234   3.794  10.407 -0.1264  0.4246 -0.2129
  896MOL0     C20834  10.326   3.908  10.403 -0.7826  0.2974  0.1559
  896MOL0     C20835  10.467   3.873  10.418 -0.6340  0.5024  0.3868
  896MOL0     C20836  10.498   3.792  10.545  0.6936 -0.4198 -0.4070
  896MOL0     C20837  10.619   3.700  10.528  0.2234 -0.2839  0.7506
  896MOL0     C20838  10.748   3.777  10.479  0.4649 -0.2853  0.1277
  896MOL0     C20839  10.800   3.891  10.575  0.0741 -0.1961  0.2986
  896MOL0     C20840  10.924   3.955  10.516  0.1855  0.5169 -1.0251
  896MOL0     C20841  11.004   4.038  10.615 -0.3634  0.2117  0.0931
  896MOL0     N20842  11.118   4.109  10.567 -0.1680  0.8246  0.4484
  896MOL0     C20843  11.234   4.039  10.535 -0.7657  0.5245  0.3861
  896MOL0     C20844  11.322   4.131  10.492 -0.6727  0.9437  0.3105
  896MOL0     C20845  11.456   4.103  10.430  0.0139  0.9037  0.4230
  896MOL0     C20846  11.578   4.151  10.513  0.4923  0.6320 -0.5262
  896MOL0     C20847  11.590   4.301  10.508 -0.8219  0.6215 -0.6589
  896MOL0     C20848  11.712   4.353  10.584 -0.5511 -0.1117 -0.3016
  896MOL0     O20849  11.826   4.297  10.528  0.0793 -0.6460  0.2378
  896MOL0     C20850  11.947   4.333  10.575  0.0116  0.0868  0.5402
  896MOL0     C20851  11.963   4.441  10.672 -0.0400 -0.3108  0.6313
  896MOL0     C20852  12.088   4.472  10.713  0.4900  0.0548 -0.9243
  896MOL0     C20853  12.201   4.394  10.686  0.1785  0.0658  0.4922
  896MOL0     C20854  12.332   4.436  10.744 -0.5369  0.7081  0.0221
  896MOL0     O20855  12.333   4.493  10.865  0.1517 -0.4428 -0.2081
  896MOL0     C20856  12.449   4.517  10.931  0.1066  0.3206 -0.2305
  896MOL0     C20857  12.458   4.629  11.011 -0.4005 -0.0705 -0.2542
  896MOL0     C20858  12.572   4.662  11.080  0.1864 -0.5567  0.0900
  896MOL0     C20859  12.694   4.586  11.071 -0.6188  0.2470 -0.4131
  896MOL0     O20860  12.804   4.619  11.151  0.1644  0.5847 -0.0766
  896MOL0     C20861  12.927   4.553  11.127  0.4196  0.3654 -0.3325
  896MOL0     C20862  13.035   4.639  11.193  0.2488  0.5272  0.8744
  896MOL0     C20863  13.171   4.562  11.166  0.0823  0.3493 -0.3871
  896MOL0     C20864  13.285   4.642  11.240 -0.6915 -0.4828 -0.3984
  896MOL0     C20865  13.418   4.590  11.191  0.4363  1.0939 -0.2946
  896MOL0     C20866  13.533   4.632  11.275 -0.4701 -0.2546  0.4478
  896MOL0     C20867  13.668   4.577  11.211  0.3282  0.0624 -0.4803
  896MOL0     C20868  13.798   4.630  11.270  0.4569 -0.5455  0.3082
  896MOL0    Cl20869  13.934   4.577  11.172 -0.1168 -0.3383  0.5447
  896MOL0     C20870  12.695   4.475  10.986  0.7218 -0.0955  0.2687
  896MOL0     C20871  12.569   4.438  10.922 -0.3520 -1.0505  0.5983
  896MOL0     O20872  12.431   4.425  10.674 -0.2993 -0.3987 -0.2707
  896MOL0     C20873  12.188   4.297  10.586 -0.4978  0.2203 -0.2410
  896MOL0     C20874  12.063   4.267  10.537  0.2850 -0.8634  0.0464
  896MOL0     N20875  11.258   4.253  10.498  0.0048  0.3902  0.2847
  896MOL0     N20876  11.139   4.237  10.539 -0.3177 -0.5041 -0.0168
  896MOL0     C20877  10.058   3.893  10.551  0.5302  0.2911  0.1711
  896MOL0     C20878   9.920   3.914  10.555  1.0586  0.7492 -1.2003
  896MOL0     C20879   9.476   3.863  10.495  0.6290 -0.0483  0.4787
  896MOL0     C20880   9.429   3.919  10.374  0.7220 -0.4477  0.2015
  896MOL0     C20881   9.296   3.952  10.350 -0.2283 -0.2987 -1.3268
  896MOL0     C20882   9.202   3.925  10.449 -0.0351  0.1834 -0.3466
  896MOL0     O20883   9.067   3.952  10.445  0.3090 -0.1739 -0.6317
  896MOL0     C20884   9.003   3.961  10.314  0.2119  0.3350  0.2735
  896MOL0     C20885   9.011   3.829  10.235 -0.0662  0.6250 -0.0872
  896MOL0     C20886   8.927   3.824  10.108  0.0752  0.3997  0.9836
  896MOL0     C20887   8.925   3.687  10.040 -1.1684  0.0435  1.0580
  896MOL0     C20888   8.823   3.607  10.103 -0.7868  1.0088 -0.5035
  896MOL0     C20889   8.742   3.525  10.147 -0.1887  0.8342 -0.1821
  896MOL0     C20890   9.247   3.872  10.570  0.4170  0.7133  0.0106
  896MOL0     C20891   9.384   3.848  10.597  0.3629  0.0474 -0.2496
  896MOL0     C20892   9.420   3.806  10.737  0.2694 -0.3382 -0.6619
  896MOL0     H20893   9.820   3.832  10.244 -2.4583  1.5685  1.0035
  896MOL0     H20894  10.063   3.757  10.232 -1.9047 -2.3403  0.7376
  896MOL0     H20895  10.312   3.969  10.313  0.2481  2.0743  1.1441
  896MOL0     H20896  10.314   3.983  10.482  0.4700  1.6450 -0.8711
  896MOL0     H20897  10.521   3.968  10.416  1.8326 -0.7411  1.9601
  896MOL0     H20898  10.487   3.813  10.329 -0.6612  1.5712 -0.3439
  896MOL0     H20899  10.411   3.730  10.568 -0.9828  1.5555 -1.1015
  896MOL0     H20900  10.512   3.859  10.630 -0.8939 -1.0253  0.3711
  896MOL0     H20901  10.632   3.658  10.628 -0.2984 -0.3724  0.7810
  896MOL0     H20902  10.592   3.617  10.462 -0.6881 -0.0377  0.8078
  896MOL0     H20903  10.831   3.710  10.456 -0.7375 -1.2877 -1.5278
  896MOL0     H20904  10.735   3.825  10.382  0.4598 -0.3558  0.0936
  896MOL0     H20905  10.728   3.972  10.589 -1.1572 -0.7442 -2.3617
  896MOL0     H20906  10.826   3.852  10.674 -0.8313 -0.2758  0.5129
  896MOL0     H20907  10.891   4.020  10.435 -1.9950  0.0593 -0.5689
  896MOL0     H20908  10.988   3.875  10.477  1.1514  1.4217 -1.3363
  896MOL0     H20909  10.933   4.105  10.665 -1.0283 -0.2766 -0.1893
  896MOL0     H20910  11.029   3.968  10.695  0.6413  0.4126 -0.0324
  896MOL0     H20911  11.241   3.930  10.538  0.8509  0.4805 -2.2392
  896MOL0     H20912  11.471   3.996  10.410  0.1017  1.2330 -1.5329
  896MOL0     H20913  11.456   4.156  10.334  0.2750 -2.4671 -1.6141
  896MOL0     H20914  11.571   4.119  10.618  1.0056 -0.4727 -0.8113
  896MOL0     H20915  11.662   4.104  10.461 -1.3875  1.6573 -4.8639
  896MOL0     H20916  11.494   4.335  10.548 -0.2219  1.6621 -0.0514
  896MOL0     H20917  11.591   4.341  10.406 -1.9113  0.4113 -0.7608
  896MOL0     H20918  11.694   4.329  10.689  1.5592  0.0027  0.1309
  896MOL0     H20919  11.707   4.462  10.571  1.2365  0.0950  0.5026
  896MOL0     H20920  11.878   4.496  10.710 -0.4090  0.4022 -1.1738
  896MOL0     H20921  12.095   4.562  10.773 -0.1278 -0.4573 -0.0536
  896MOL0     H20922  12.375   4.696  11.029  1.3117  1.8445  0.9342
  896MOL0     H20923  12.589   4.750  11.141  1.9312 -0.0306 -1.0887
  896MOL0     H20924  12.914   4.458  11.180 -1.2925  0.7226 -0.0314
  896MOL0     H20925  12.955   4.544  11.022  0.3342 -4.0071 -0.1745
  896MOL0     H20926  13.022   4.737  11.145 -0.2337 -0.7234 -1.6877
  896MOL0     H20927  13.012   4.644  11.300  1.6863  2.3774  1.1536
  896MOL0     H20928  13.152   4.459  11.199 -3.1379  1.4610  1.7944
  896MOL0     H20929  13.191   4.558  11.059  3.3961  3.5297 -0.0937
  896MOL0     H20930  13.269   4.628  11.347  1.7820  1.6361  0.3433
  896MOL0     H20931  13.272   4.750  11.226 -2.2233 -0.7300 -1.2048
  896MOL0     H20932  13.439   4.622  11.089 -1.7872  0.8802 -0.8857
  896MOL0     H20933  13.412   4.481  11.197 -1.5094  1.2276  1.4315
  896MOL0     H20934  13.532   4.741  11.281 -2.4691 -0.1975 -0.3154
  896MOL0     H20935  13.516   4.616  11.382 -2.6611  2.6414  0.6308
  896MOL0     H20936  13.672   4.616  11.108  1.2955 -2.3899 -1.4447
  896MOL0     H20937  13.671   4.468  11.214 -1.9859 -0.0846 -1.3406
  896MOL0     H20938  13.804   4.739  11.262 -0.4697 -0.1797  3.3894
  896MOL0     H20939  13.815   4.596  11.373 -0.8390 -1.8132  0.1280
  896MOL0     H20940  12.781   4.412  10.966  1.1000  0.2849  0.6720
  896MOL0     H20941  12.554   4.346  10.866 -1.3407  0.4383 -1.7185
  896MOL0     H20942  12.278   4.253  10.545 -0.0679  0.0983  0.8309
  896MOL0     H20943  12.065   4.181  10.471 -0.9300  0.4343 -1.7666
  896MOL0     H20944  10.135   3.910  10.625  2.2737  0.5855 -1.6108
  896MOL0     H20945   9.872   3.937  10.649  4.0717 -1.4067  1.0634
  896MOL0     H20946   9.502   3.939  10.296  0.6541 -0.7031  0.0721
  896MOL0     H20947   9.275   3.986  10.249  0.9357  0.3813 -1.3616
  896MOL0     H20948   9.041   4.051  10.266 -1.2305 -0.4573 -2.5706
  896MOL0     H20949   8.902   3.995  10.337  0.6005  0.9471  1.1110
  896MOL0     H20950   9.005   3.746  10.306 -3.4985  0.9243  0.1439
  896MOL0     H20951   9.113   3.823  10.195 -0.8692  0.4487 -2.2392
  896MOL0     H20952   8.983   3.880  10.032  0.7966 -0.8646  0.5375
  896MOL0     H20953   8.826   3.863  10.122 -0.2425  0.0097 -0.0940
  896MOL0     H20954   8.884   3.690   9.938 -3.0659  1.6646  1.7823
  896MOL0     H20955   9.028   3.651  10.031 -1.4878 -0.6974  0.1575
  896MOL0     H20956   8.686   3.440  10.181 -1.3323  1.3909 -0.6325
  896MOL0     H20957   9.170   3.844  10.641  1.5246 -0.7353  0.6958
  896MOL0     H20958   9.492   3.880  10.773 -0.9928 -0.1988  1.8058
  896MOL0     H20959   9.331   3.799  10.800  0.4208  1.4402 -0.1943
  896MOL0     H20960   9.457   3.703  10.736  1.2989 -0.1053  2.5051
  897MOL0     O20961   6.728   9.273   4.564  0.1332  0.0273  0.3375
  897MOL0     C20962   6.684   9.330   4.462 -0.3175  0.5371 -1.2409
  897MOL0     O20963   6.767   9.378   4.372  0.8920  0.4043 -0.0658
  897MOL0     C20964   6.900   9.343   4.385 -0.0900  1.2023 -0.6252
  897MOL0     C20965   6.952   9.244   4.303  0.0578  0.1140 -0.0633
  897MOL0     C20966   7.087   9.206   4.333  0.1402  0.7105  0.6306
  897MOL0     C20967   7.180   9.283   4.405  0.5962  0.7717 -0.3213
  897MOL0     O20968   7.308   9.265   4.428 -0.3280  0.3966  0.4676
  897MOL0     C20969   7.368   9.149   4.367 -0.5103  0.1432 -0.2011
  897MOL0     C20970   7.492   9.110   4.446 -0.0450 -1.0860 -0.0773
  897MOL0     C20971   7.479   9.045   4.583 -0.5622  0.2072 -0.2934
  897MOL0     C20972   7.587   9.089   4.677 -0.9285 -0.7908 -0.7574
  897MOL0     C20973   7.726   9.065   4.627  0.3803 -0.7318  0.0594
  897MOL0     C20974   7.767   8.915   4.609  0.0593 -0.1986 -0.3374
  897MOL0     C20975   7.906   8.884   4.678  0.0762  0.2929  0.1294
  897MOL0     C20976   8.013   8.967   4.603 -0.6616 -0.1029 -0.1241
  897MOL0     N20977   8.152   8.919   4.643  0.6072  0.3555 -0.1140
  897MOL0     C20978   8.210   8.797   4.610 -0.1054 -0.7162  0.0505
  897MOL0     C20979   8.318   8.779   4.688  0.2224 -1.0049  0.2411
  897MOL0     C20980   8.414   8.666   4.672  0.8798  0.0408 -0.3203
  897MOL0     C20981   8.514   8.692   4.552 -0.8931  0.0604  0.3213
  897MOL0     C20982   8.618   8.791   4.589  0.4808 -0.1289  0.0069
  897MOL0     C20983   8.713   8.831   4.475  0.7859 -0.6592 -0.4728
  897MOL0     O20984   8.815   8.918   4.521  0.6162  0.1001 -0.3334
  897MOL0     C20985   8.907   8.968   4.428  1.1703  0.8962  0.5665
  897MOL0     C20986   8.922   8.900   4.300  0.1068 -0.6903  0.0601
  897MOL0     C20987   9.018   8.957   4.209  0.4110  0.1333 -0.8484
  897MOL0     C20988   9.099   9.067   4.243  0.4107 -0.2737 -0.0953
  897MOL0     C20989   9.213   9.113   4.165 -0.1044 -0.2839 -0.3489
  897MOL0     O20990   9.307   9.194   4.229 -0.0857 -0.6020  0.1931
  897MOL0     C20991   9.418   9.242   4.169  0.8630 -0.4592  0.2326
  897MOL0     C20992   9.525   9.156   4.140 -0.0422 -0.6689 -0.1549
  897MOL0     C20993   9.645   9.209   4.100  0.0976 -0.0183  0.8504
  897MOL0     C20994   9.662   9.348   4.074  0.1172 -0.0394  0.3428
  897MOL0     O20995   9.785   9.390   4.040  0.0489  0.6252 -0.0884
  897MOL0     C20996   9.821   9.516   4.094 -0.3448 -0.0507 -0.7834
  897MOL0     C20997   9.968   9.536   4.079 -1.0819  0.1328  0.0318
  897MOL0     C20998  10.013   9.665   4.141 -1.3280 -0.1327  0.3177
  897MOL0     C20999  10.032   9.654   4.293  0.0967  0.0068  0.1689
  897MOL0     C21000  10.074   9.788   4.351  0.3202  0.5949  0.6600
  897MOL0     C21001  10.074   9.791   4.502 -0.5508  0.6949  0.2471
  897MOL0     C21002  10.097   9.932   4.565 -0.9743 -0.8186 -0.5435
  897MOL0     C21003  10.118   9.935   4.713 -0.0195 -0.5229 -0.7348
  897MOL0    Cl21004  10.223   9.796   4.770 -0.0044  0.2853 -0.1806
  897MOL0     C21005   9.544   9.429   4.081 -0.2489  0.0867 -0.6964
  897MOL0     C21006   9.423   9.384   4.137 -0.4780  0.0850  0.6969
  897MOL0     O21007   9.216   9.079   4.048 -0.5162 -0.4108 -0.2173
  897MOL0     C21008   9.078   9.132   4.367 -1.0149  0.5793  0.5651
  897MOL0     C21009   8.980   9.078   4.459 -0.9156  1.2257  0.5314
  897MOL0     N21010   8.337   8.900   4.758 -0.2289  0.0059 -0.3040
  897MOL0     N21011   8.236   8.978   4.737  0.1622  0.2383 -0.4458
  897MOL0     C21012   7.120   9.388   4.477  0.3150 -0.0780 -0.1480
  897MOL0     C21013   6.982   9.419   4.469  0.1239 -0.3038  0.2404
  897MOL0     C21014   6.540   9.352   4.444 -0.0961 -0.0645 -0.8218
  897MOL0     C21015   6.498   9.445   4.339 -1.1642  0.1190  0.8469
  897MOL0     C21016   6.357   9.471   4.323 -0.2794  0.5966 -0.1061
  897MOL0     C21017   6.267   9.430   4.417  1.1058  0.2268 -0.2102
  897MOL0     O21018   6.138   9.475   4.398 -0.1642 -0.4595  0.1047
  897MOL0     C21019   6.035   9.411   4.466 -0.5770  0.1328  0.6600
  897MOL0     C21020   5.902   9.435   4.396  0.3238 -0.1448  0.1437
  897MOL0     C21021   5.787   9.345   4.448  0.5160  0.4795 -0.2653
  897MOL0     C21022   5.724   9.417   4.572 -0.3889  0.5353  0.8010
  897MOL0     C21023   5.631   9.526   4.550  1.3459 -0.1338  0.6514
  897MOL0     C21024   5.548   9.618   4.535  0.6167 -0.1442 -0.1501
  897MOL0     C21025   6.309   9.340   4.519 -0.0593  0.2848 -0.2764
  897MOL0     C21026   6.440   9.304   4.532 -0.3579  0.8101 -1.1413
  897MOL0     C21027   6.458   9.215   4.645  0.0558  0.6578 -0.7688
  897MOL0     H21028   6.883   9.189   4.241 -0.0688 -1.8691  1.7415
  897MOL0     H21029   7.115   9.116   4.280 -2.4549  0.3180 -0.2251
  897MOL0     H21030   7.306   9.060   4.354  1.1228 -1.3514  1.5182
  897MOL0     H21031   7.396   9.192   4.270  0.0046  0.3791  0.0438
  897MOL0     H21032   7.549   9.202   4.461  0.5661 -1.4379 -0.2162
  897MOL0     H21033   7.565   9.047   4.394  3.3954  1.3760  1.3197
  897MOL0     H21034   7.485   8.936   4.579 -1.7810  0.1639 -1.7317
  897MOL0     H21035   7.383   9.075   4.626  1.1489  0.4649  3.8282
  897MOL0     H21036   7.577   9.198   4.688  0.2393 -0.5448 -1.8515
  897MOL0     H21037   7.584   9.039   4.774 -0.3864  0.9867  0.2305
  897MOL0     H21038   7.744   9.107   4.527 -0.4257  1.9871  0.9671
  897MOL0     H21039   7.789   9.119   4.698  1.0886 -0.7082 -0.5759
  897MOL0     H21040   7.691   8.854   4.659 -0.3130  2.7579  3.1862
  897MOL0     H21041   7.768   8.892   4.502  1.8139 -1.7066 -0.0483
  897MOL0     H21042   7.924   8.776   4.678 -1.7256 -0.1641  3.7686
  897MOL0     H21043   7.902   8.918   4.782  2.8043 -0.7857  0.6833
  897MOL0     H21044   8.005   8.970   4.494 -3.0438 -1.3762 -0.0388
  897MOL0     H21045   8.008   9.072   4.633  2.1518  1.7842 -5.1752
  897MOL0     H21046   8.187   8.729   4.528 -0.6905  2.3950 -2.5960
  897MOL0     H21047   8.467   8.653   4.767 -1.7114  0.7712  1.3323
  897MOL0     H21048   8.353   8.576   4.661 -2.1228  1.7293  1.3271
  897MOL0     H21049   8.576   8.604   4.532 -1.6905 -0.2135 -1.0813
  897MOL0     H21050   8.464   8.723   4.459  0.5178  1.4939  0.0068
  897MOL0     H21051   8.674   8.756   4.676 -0.6648 -0.0606  0.7870
  897MOL0     H21052   8.570   8.885   4.618  1.3007 -0.5360  3.0000
  897MOL0     H21053   8.648   8.864   4.394 -0.0852 -1.5612 -0.1533
  897MOL0     H21054   8.766   8.740   4.446 -2.5725 -2.1873 -2.3271
  897MOL0     H21055   8.860   8.817   4.267  0.0774 -0.7462  0.2535
  897MOL0     H21056   9.031   8.908   4.113 -1.3310 -1.3661 -0.3809
  897MOL0     H21057   9.514   9.055   4.176  0.5991 -0.9233 -0.6647
  897MOL0     H21058   9.732   9.148   4.077 -2.3181 -2.7649 -1.9892
  897MOL0     H21059   9.778   9.596   4.034 -1.9979 -1.8744 -2.1518
  897MOL0     H21060   9.781   9.523   4.195  2.1532 -0.0842  0.3014
  897MOL0     H21061  10.024   9.452   4.121 -1.5350  0.1702  0.7327
  897MOL0     H21062   9.986   9.533   3.972 -0.0568 -0.9898  0.2150
  897MOL0     H21063  10.111   9.694   4.101 -1.5845  3.8115  2.0718
  897MOL0     H21064   9.943   9.747   4.119 -3.1004 -1.3980  1.0099
  897MOL0     H21065  10.104   9.577   4.323 -0.2418 -0.2580  0.2988
  897MOL0     H21066   9.934   9.621   4.328  0.1537 -1.6838 -1.1177
  897MOL0     H21067  10.013   9.874   4.323 -1.3484 -0.2403  1.5680
  897MOL0     H21068  10.171   9.807   4.304  0.6440  1.4281  1.6247
  897MOL0     H21069   9.979   9.757   4.546  0.6499  1.2559  3.5676
  897MOL0     H21070  10.155   9.726   4.536  0.4833  2.5903  1.6190
  897MOL0     H21071  10.021  10.007   4.543  1.8267  2.9132  1.2411
  897MOL0     H21072  10.190   9.961   4.514 -1.4047 -2.2582 -2.2185
  897MOL0     H21073  10.162  10.033   4.736  0.8921 -1.1786  0.3574
  897MOL0     H21074  10.015   9.933   4.750 -2.1924  2.5983 -5.5634
  897MOL0     H21075   9.565   9.527   4.040  5.3255 -1.4266 -2.2201
  897MOL0     H21076   9.333   9.443   4.155 -0.1478 -0.3394  4.3535
  897MOL0     H21077   9.149   9.207   4.400  1.3641 -1.5769  0.6000
  897MOL0     H21078   8.947   9.128   4.549 -0.8995  1.3249  0.4818
  897MOL0     H21079   7.182   9.458   4.532 -0.1907  1.8670 -1.9211
  897MOL0     H21080   6.948   9.510   4.517  0.6857  0.6340 -1.0654
  897MOL0     H21081   6.564   9.482   4.261 -0.3298 -2.9407 -0.0700
  897MOL0     H21082   6.310   9.531   4.247  0.5815  1.3158 -0.0832
  897MOL0     H21083   6.041   9.435   4.572 -0.2306 -0.2684  0.7343
  897MOL0     H21084   6.053   9.304   4.454  0.8271  0.3126  0.9641
  897MOL0     H21085   5.919   9.395   4.295  1.3176  0.3937  0.0877
  897MOL0     H21086   5.873   9.541   4.395 -2.7142 -0.8433  1.9643
  897MOL0     H21087   5.825   9.256   4.499 -2.1152 -0.8047 -0.3680
  897MOL0     H21088   5.711   9.306   4.380  0.5768  0.1895 -0.1691
  897MOL0     H21089   5.670   9.337   4.624  1.1930 -1.8124 -0.9922
  897MOL0     H21090   5.803   9.457   4.636 -0.3865 -1.2808  1.9871
  897MOL0     H21091   5.481   9.701   4.525  0.5797 -0.3752 -2.5984
  897MOL0     H21092   6.240   9.302   4.594  0.8745 -0.5246  0.2110
  897MOL0     H21093   6.476   9.113   4.610 -0.6110  0.1843  0.2191
  897MOL0     H21094   6.547   9.246   4.701  1.2542  0.7153 -2.6328
  897MOL0     H21095   6.371   9.209   4.711 -0.2188  1.0938 -1.0935
  898MOL0     O21096   7.375   3.597   1.534  0.2960  0.2014  0.7118
  898MOL0     C21097   7.350   3.500   1.459 -0.2377 -0.6296  0.2564
  898MOL0     O21098   7.411   3.472   1.340  0.0121 -0.5309  0.8419
  898MOL0     C21099   7.505   3.566   1.300 -0.5547  0.6561 -0.6421
  898MOL0     C21100   7.642   3.538   1.323  0.0722 -0.2261 -0.2348
  898MOL0     C21101   7.741   3.622   1.266  0.2822  0.2013  0.8177
  898MOL0     C21102   7.710   3.736   1.198  0.3694  1.3077 -0.0093
  898MOL0     O21103   7.802   3.818   1.142  0.6328  0.2805  0.4410
  898MOL0     C21104   7.877   3.748   1.044 -0.3191  0.6441  0.0420
  898MOL0     C21105   8.010   3.808   1.078  0.1687  0.3112 -0.5459
  898MOL0     C21106   8.123   3.778   0.980 -0.1110  0.7430 -1.0822
  898MOL0     C21107   8.186   3.643   1.011 -0.0163 -0.1471 -0.8372
  898MOL0     C21108   8.312   3.618   0.928  0.0209 -0.6833 -0.1306
  898MOL0     C21109   8.380   3.490   0.955  0.6107 -0.7552 -0.3988
  898MOL0     C21110   8.489   3.455   0.861 -0.1074 -0.2659 -0.0342
  898MOL0     C21111   8.607   3.554   0.856  0.0370 -0.0181  0.9888
  898MOL0     N21112   8.662   3.581   0.991 -0.2987 -0.0912  0.6179
  898MOL0     C21113   8.760   3.508   1.052 -0.1676  0.3462 -0.7933
  898MOL0     C21114   8.770   3.559   1.178  0.3325  0.1009  0.3801
  898MOL0     C21115   8.845   3.504   1.291 -0.6210 -0.5330 -0.6259
  898MOL0     C21116   8.993   3.537   1.272 -0.4649  0.4570 -0.0481
  898MOL0     C21117   9.082   3.436   1.200 -0.4631 -0.1568 -0.5839
  898MOL0     C21118   9.226   3.475   1.180  0.3483 -0.7096 -0.0995
  898MOL0     O21119   9.226   3.579   1.071 -0.5897  0.1017 -0.6045
  898MOL0     C21120   9.354   3.612   1.027  0.7859 -0.4738 -0.0546
  898MOL0     C21121   9.366   3.664   0.900 -0.6403 -0.6388  0.2668
  898MOL0     C21122   9.493   3.702   0.848  0.6961  0.0826  0.0434
  898MOL0     C21123   9.611   3.704   0.926  0.5853  0.3825  0.8413
  898MOL0     C21124   9.738   3.755   0.876 -0.1836  0.0234  0.6239
  898MOL0     O21125   9.847   3.723   0.956 -0.3672  0.4107 -0.6946
  898MOL0     C21126   9.978   3.756   0.934 -0.6067 -1.4090 -0.1705
  898MOL0     C21127  10.076   3.674   0.885 -0.2308 -0.3551 -0.3487
  898MOL0     C21128  10.203   3.720   0.855 -0.2433  0.1466 -0.5710
  898MOL0     C21129  10.244   3.855   0.875  0.4917 -0.4178  0.0132
  898MOL0     O21130  10.372   3.884   0.845  0.5409  0.0346 -0.1903
  898MOL0     C21131  10.393   4.019   0.815  0.1227 -0.1765 -0.1285
  898MOL0     C21132  10.522   4.027   0.720  0.0653 -0.4279 -0.9119
  898MOL0     C21133  10.580   4.169   0.704  0.1817 -1.0866 -0.1445
  898MOL0     C21134  10.481   4.271   0.644  0.0689  0.7835 -0.2089
  898MOL0     C21135  10.562   4.393   0.613 -0.0211  0.5970  0.2714
  898MOL0     C21136  10.470   4.515   0.586  0.2597 -0.2265  0.1154
  898MOL0     C21137  10.366   4.488   0.470 -0.0863  0.0873  0.2936
  898MOL0     C21138  10.314   4.621   0.406  0.7078 -0.1743 -0.4738
  898MOL0    Cl21139  10.174   4.596   0.314 -0.0045 -0.3494 -0.1086
  898MOL0     C21140  10.143   3.939   0.923 -0.0018 -0.0520  0.7368
  898MOL0     C21141  10.010   3.893   0.951 -0.7558 -0.0656 -0.2826
  898MOL0     O21142   9.743   3.815   0.770  0.1346  0.5524  0.6732
  898MOL0     C21143   9.596   3.663   1.061 -0.1403  0.5488  0.2313
  898MOL0     C21144   9.474   3.615   1.111  0.5412 -0.4125  0.7374
  898MOL0     N21145   8.686   3.669   1.170 -0.7231 -0.0893 -0.5678
  898MOL0     N21146   8.622   3.686   1.062  0.0227 -0.3660 -0.0400
  898MOL0     C21147   7.578   3.766   1.185 -0.4911 -0.4731  0.0601
  898MOL0     C21148   7.477   3.689   1.241  1.1609  0.6738  0.5017
  898MOL0     C21149   7.240   3.418   1.494  0.0649 -0.1019  0.4408
  898MOL0     C21150   7.201   3.333   1.393  0.0442 -0.5647  0.1770
  898MOL0     C21151   7.082   3.255   1.396 -1.0628  0.3769 -0.0224
  898MOL0     C21152   7.012   3.248   1.517 -0.2056 -0.0266 -0.6576
  898MOL0     O21153   6.892   3.185   1.540  0.2768 -0.1278 -0.1189
  898MOL0     C21154   6.835   3.097   1.437 -0.5178  0.1620 -0.5307
  898MOL0     C21155   6.890   2.954   1.447 -0.3623 -0.1293 -0.0265
  898MOL0     C21156   6.821   2.860   1.345 -0.0978 -0.6631 -0.1659
  898MOL0     C21157   6.905   2.726   1.335 -0.4863 -0.1863  0.3480
  898MOL0     C21158   6.915   2.663   1.464  0.4107  0.1952 -0.0839
  898MOL0     C21159   6.912   2.617   1.578  0.4554  0.3976  1.2119
  898MOL0     C21160   7.056   3.325   1.624 -0.8190 -0.7296  0.1422
  898MOL0     C21161   7.169   3.410   1.615  0.4007 -0.5536 -0.2727
  898MOL0     C21162   7.203   3.496   1.734  0.4580  1.0811  0.5401
  898MOL0     H21163   7.675   3.456   1.387  0.0061  1.3938  1.9726
  898MOL0     H21164   7.842   3.587   1.285  0.5181  0.8366  0.7775
  898MOL0     H21165   7.881   3.640   1.058 -0.2595  0.5417 -0.7239
  898MOL0     H21166   7.845   3.772   0.942 -0.3456  1.1586  0.1659
  898MOL0     H21167   8.040   3.791   1.182 -0.2936  2.5013 -0.0062
  898MOL0     H21168   8.000   3.917   1.081  0.3272  0.3134  0.1359
  898MOL0     H21169   8.200   3.856   0.992 -0.0531  0.6546 -0.8732
  898MOL0     H21170   8.073   3.778   0.883 -0.7204  1.5734 -0.7764
  898MOL0     H21171   8.215   3.642   1.117  0.9028  1.3602 -1.0424
  898MOL0     H21172   8.111   3.565   0.997 -1.8418  1.4340 -0.1534
  898MOL0     H21173   8.299   3.626   0.819  1.4699 -0.0451 -0.2798
  898MOL0     H21174   8.376   3.701   0.957 -2.1125  0.9807  0.1006
  898MOL0     H21175   8.415   3.487   1.059 -0.2879  0.0880 -0.0537
  898MOL0     H21176   8.300   3.416   0.940 -2.1284  1.6719  1.1834
  898MOL0     H21177   8.442   3.430   0.766 -1.5537 -1.9279  1.0457
  898MOL0     H21178   8.516   3.355   0.895 -3.0178 -0.5412  1.8752
  898MOL0     H21179   8.678   3.508   0.787 -0.0084 -0.9628  1.5548
  898MOL0     H21180   8.572   3.650   0.816 -0.1192 -1.0371 -1.5347
  898MOL0     H21181   8.809   3.416   1.022 -2.3012 -1.3553  0.6629
  898MOL0     H21182   8.802   3.547   1.382 -3.3607 -3.5780 -0.3100
  898MOL0     H21183   8.832   3.397   1.305 -1.4459 -0.6428 -2.0939
  898MOL0     H21184   8.993   3.631   1.217 -1.4187  0.6507  0.2634
  898MOL0     H21185   9.036   3.564   1.369  1.3084  2.2873 -1.2449
  898MOL0     H21186   9.036   3.416   1.102 -0.7517 -0.4858 -0.3827
  898MOL0     H21187   9.063   3.347   1.260 -0.4984  0.3316  0.1473
  898MOL0     H21188   9.291   3.392   1.153  0.7368 -0.8373  1.1551
  898MOL0     H21189   9.255   3.512   1.279  0.2098 -3.6066  1.1031
  898MOL0     H21190   9.280   3.668   0.835 -0.7240  2.7961  0.4006
  898MOL0     H21191   9.490   3.724   0.742 -1.2555  0.5186  0.1426
  898MOL0     H21192  10.053   3.568   0.875 -1.9399 -0.0465  0.0679
  898MOL0     H21193  10.278   3.655   0.812 -0.7902  0.2439 -1.7063
  898MOL0     H21194  10.315   4.067   0.754  1.8731  1.5259 -1.1514
  898MOL0     H21195  10.397   4.080   0.906 -0.4181 -0.7681  0.2993
  898MOL0     H21196  10.605   3.969   0.761  1.7325  2.4710  0.1254
  898MOL0     H21197  10.488   3.995   0.621 -1.7241  1.2599 -0.9246
  898MOL0     H21198  10.606   4.199   0.807 -2.3986  0.4595  0.1475
  898MOL0     H21199  10.667   4.175   0.639  0.4188  2.4293  0.3322
  898MOL0     H21200  10.394   4.289   0.708 -0.6601  0.6070 -1.1399
  898MOL0     H21201  10.438   4.224   0.555 -3.0310 -1.9455  2.4660
  898MOL0     H21202  10.633   4.378   0.531 -1.4917  0.2059 -0.9739
  898MOL0     H21203  10.608   4.422   0.708  0.0334 -1.2848  0.8785
  898MOL0     H21204  10.422   4.544   0.680 -0.4159  0.5583 -0.4552
  898MOL0     H21205  10.544   4.589   0.555 -0.3553  0.0085 -0.8381
  898MOL0     H21206  10.285   4.429   0.515 -0.9822  1.7425  0.9668
  898MOL0     H21207  10.412   4.434   0.387  1.1642  2.7719 -0.8784
  898MOL0     H21208  10.294   4.682   0.495  0.9032 -0.7345 -0.0326
  898MOL0     H21209  10.392   4.666   0.344 -1.6592 -0.1429 -3.6197
  898MOL0     H21210  10.150   4.041   0.959 -0.6856  0.2628  0.0179
  898MOL0     H21211   9.935   3.959   0.993 -0.5434  1.5620 -2.3248
  898MOL0     H21212   9.668   3.681   1.140 -1.3055 -1.2181  1.7984
  898MOL0     H21213   9.463   3.586   1.215 -2.5006  0.2747  0.6928
  898MOL0     H21214   7.548   3.858   1.135 -0.9894 -0.0655  1.0919
  898MOL0     H21215   7.379   3.735   1.233  1.3178  1.5303  2.7453
  898MOL0     H21216   7.247   3.331   1.294 -0.0268  0.8746  0.0961
  898MOL0     H21217   7.054   3.200   1.306 -1.6541  3.1870 -1.6541
  898MOL0     H21218   6.840   3.138   1.336  2.7315  1.0356 -0.1549
  898MOL0     H21219   6.730   3.086   1.464 -1.8857  1.4764 -4.6497
  898MOL0     H21220   6.864   2.923   1.549  0.0524 -1.8739 -0.4128
  898MOL0     H21221   6.996   2.941   1.426 -0.8517 -0.9966 -2.2083
  898MOL0     H21222   6.807   2.907   1.248 -0.4304 -3.0864 -1.3829
  898MOL0     H21223   6.716   2.838   1.369 -0.6116  1.1350 -0.6186
  898MOL0     H21224   6.849   2.652   1.275 -1.0125 -2.2374  3.1720
  898MOL0     H21225   7.003   2.745   1.291  0.4474 -0.1879  2.3610
  898MOL0     H21226   6.894   2.569   1.672  0.7403  0.3361  1.2352
  898MOL0     H21227   6.991   3.335   1.711 -0.0393  3.8061  0.4559
  898MOL0     H21228   7.193   3.604   1.719  1.2713  1.1824  0.6896
  898MOL0     H21229   7.136   3.459   1.812 -0.3704 -0.9699 -1.0574
  898MOL0     H21230   7.305   3.473   1.767  0.0316 -3.1863 -0.5388
  899MOL0     O21231   1.675   2.429   7.675 -0.0892  0.5035  0.0692
  899MOL0     C21232   1.602   2.444   7.773  0.0615  0.9625  0.4208
  899MOL0     O21233   1.636   2.415   7.902  0.0443 -0.4646  0.4990
  899MOL0     C21234   1.767   2.383   7.924  0.3814 -1.1613  0.1853
  899MOL0     C21235   1.820   2.433   8.038  0.2703 -0.4828  0.0385
  899MOL0     C21236   1.954   2.406   8.069  0.1219  0.3499  0.3584
  899MOL0     C21237   2.026   2.316   7.994  0.5445  0.1643 -0.4231
  899MOL0     O21238   2.160   2.297   8.023 -0.1918  0.7978  0.1072
  899MOL0     C21239   2.243   2.199   7.954 -0.4613  0.1484 -0.0232
  899MOL0     C21240   2.380   2.167   8.027  1.0253  0.0414 -0.1962
  899MOL0     C21241   2.474   2.289   8.026 -0.5309 -0.1645  0.3578
  899MOL0     C21242   2.544   2.310   7.888 -0.7194 -0.9236  0.5291
  899MOL0     C21243   2.626   2.445   7.890  0.2484  0.2051 -0.2755
  899MOL0     C21244   2.754   2.442   7.974 -0.4232  0.2996 -0.1640
  899MOL0     C21245   2.794   2.590   7.985  0.9588  0.8015  0.4737
  899MOL0     C21246   2.927   2.609   8.064 -0.0292 -0.3714  0.2378
  899MOL0     N21247   2.961   2.749   8.076  0.1127 -0.4902  0.0332
  899MOL0     C21248   3.026   2.807   8.179 -0.2953  0.6547  0.0771
  899MOL0     C21249   3.019   2.944   8.164 -0.0009  0.0279  0.1258
  899MOL0     C21250   3.056   3.049   8.268  0.4250 -0.3680  0.0909
  899MOL0     C21251   3.122   3.169   8.196  0.0080  0.2499  0.3087
  899MOL0     C21252   3.262   3.134   8.134  0.2538  0.5962 -0.0326
  899MOL0     C21253   3.255   3.062   7.995 -0.3852 -0.2944  1.1159
  899MOL0     O21254   3.373   3.096   7.923 -0.0597  0.0238  0.2665
  899MOL0     C21255   3.488   3.024   7.941  0.1853 -0.2545  0.0699
  899MOL0     C21256   3.500   2.908   8.022  0.4399 -0.4210 -0.6021
  899MOL0     C21257   3.623   2.842   8.038  1.3187 -0.3281 -0.3561
  899MOL0     C21258   3.737   2.879   7.963  0.1419  0.2483  0.3462
  899MOL0     C21259   3.865   2.801   7.975 -0.5148 -0.0503  0.5545
  899MOL0     O21260   3.866   2.676   8.040  0.0660 -0.1872  0.7821
  899MOL0     C21261   3.988   2.614   8.060 -0.6082 -0.0224  1.2320
  899MOL0     C21262   4.080   2.673   8.148 -0.3550 -0.2634  0.4299
  899MOL0     C21263   4.202   2.617   8.167  1.3736  0.0401 -0.6389
  899MOL0     C21264   4.242   2.498   8.095 -0.2344  0.1124 -1.0376
  899MOL0     O21265   4.376   2.460   8.111 -0.9452 -0.3228 -0.0702
  899MOL0     C21266   4.438   2.386   8.003 -1.1952 -0.1751 -0.6802
  899MOL0     C21267   4.577   2.341   8.045 -0.7901 -0.1758 -0.2674
  899MOL0     C21268   4.685   2.384   7.947  1.0089 -0.3683 -0.3203
  899MOL0     C21269   4.825   2.344   8.003 -0.0927 -0.9052 -0.1548
  899MOL0     C21270   4.937   2.408   7.930 -0.8983 -0.7874 -0.4308
  899MOL0     C21271   4.982   2.325   7.820 -0.3556 -0.5115  0.6482
  899MOL0     C21272   5.128   2.354   7.775  0.3541 -0.4885 -0.0090
  899MOL0     C21273   5.174   2.256   7.666 -0.1653  0.0114 -0.3525
  899MOL0    Cl21274   5.337   2.291   7.621 -0.3667  0.2880  0.2274
  899MOL0     C21275   4.149   2.431   8.024  0.5354 -0.0070 -0.6336
  899MOL0     C21276   4.025   2.487   8.002 -0.4927 -0.2128  0.8730
  899MOL0     O21277   3.964   2.848   7.924  0.0497  0.6710  0.1667
  899MOL0     C21278   3.724   2.992   7.881 -0.2871  0.3429  0.3356
  899MOL0     C21279   3.603   3.062   7.879 -0.2248  0.9584  0.8209
  899MOL0     N21280   2.964   2.957   8.037 -0.1113  0.3254  0.1181
  899MOL0     N21281   2.943   2.849   7.985  0.1226 -0.6357  0.2044
  899MOL0     C21282   1.964   2.254   7.890 -0.3389 -0.0305 -0.4717
  899MOL0     C21283   1.835   2.287   7.854  0.6268 -0.4775  0.2517
  899MOL0     C21284   1.474   2.510   7.743 -0.6639  0.8584  0.8710
  899MOL0     C21285   1.426   2.609   7.832 -0.2449 -0.6429 -0.2198
  899MOL0     C21286   1.302   2.662   7.820  0.2116 -0.3884  0.1067
  899MOL0     C21287   1.216   2.622   7.723 -0.8995  0.9846 -0.1220
  899MOL0     O21288   1.086   2.666   7.705  0.3197  1.3600  0.1267
  899MOL0     C21289   1.024   2.759   7.793 -0.2983  0.4892  0.0917
  899MOL0     C21290   0.901   2.833   7.742 -0.3859 -0.7330  0.5303
  899MOL0     C21291   0.782   2.737   7.724  0.6672 -0.4816  0.3149
  899MOL0     C21292   0.691   2.726   7.841  0.4348 -0.6114 -0.9453
  899MOL0     C21293   0.589   2.624   7.785 -1.0439 -0.4827 -0.2413
  899MOL0     C21294   0.507   2.540   7.746  0.7755 -0.1060  0.0322
  899MOL0     C21295   1.264   2.529   7.628  0.8326 -0.7884  0.5443
  899MOL0     C21296   1.389   2.472   7.632  0.2426 -0.8767  0.4540
  899MOL0     C21297   1.422   2.366   7.524 -0.2051  0.0028  0.0656
  899MOL0     H21298   1.756   2.498   8.097  0.3459 -1.8488  1.6939
  899MOL0     H21299   1.999   2.449   8.157  1.1968 -0.6888  0.3434
  899MOL0     H21300   2.193   2.102   7.959  1.2168 -0.6844  2.2516
  899MOL0     H21301   2.266   2.229   7.851  0.2049  0.7662  0.2962
  899MOL0     H21302   2.416   2.069   7.994 -1.8158 -1.4055  0.6512
  899MOL0     H21303   2.367   2.144   8.133  0.7150 -0.9848 -0.4469
  899MOL0     H21304   2.557   2.283   8.097  1.9326  0.4655 -2.2428
  899MOL0     H21305   2.412   2.376   8.051  0.3961 -0.0068  2.2510
  899MOL0     H21306   2.613   2.229   7.859 -0.1232  0.0216 -0.8081
  899MOL0     H21307   2.468   2.317   7.810  1.0303  2.8260 -1.0771
  899MOL0     H21308   2.657   2.451   7.785 -0.2110 -1.6893 -0.5707
  899MOL0     H21309   2.558   2.523   7.925  1.5600  0.2483  2.3648
  899MOL0     H21310   2.726   2.399   8.071 -2.9543  0.8332 -0.5886
  899MOL0     H21311   2.829   2.376   7.930  0.2171  1.8735 -1.4936
  899MOL0     H21312   2.710   2.642   8.033  0.7805  0.8485  0.1181
  899MOL0     H21313   2.796   2.636   7.886 -0.0617 -1.9183 -0.9059
  899MOL0     H21314   2.927   2.576   8.168  1.3498  2.6501  1.3036
  899MOL0     H21315   3.004   2.553   8.010  0.8322 -0.5745  1.6338
  899MOL0     H21316   3.053   2.779   8.280  1.5863  0.9471 -0.3132
  899MOL0     H21317   2.962   3.059   8.323  0.0044 -2.7303 -0.0946
  899MOL0     H21318   3.126   3.017   8.346  0.2623  1.8879  1.2331
  899MOL0     H21319   3.056   3.220   8.126  2.4079  4.0384  0.5107
  899MOL0     H21320   3.142   3.248   8.269  3.4335 -0.0328 -0.1515
  899MOL0     H21321   3.312   3.074   8.211  1.8931  0.6633 -1.0197
  899MOL0     H21322   3.314   3.229   8.128 -0.5670  1.0879  0.4308
  899MOL0     H21323   3.176   3.104   7.933  0.6299  2.2175  1.3850
  899MOL0     H21324   3.250   2.954   8.008  3.5835 -0.9126 -0.8111
  899MOL0     H21325   3.420   2.857   8.076  1.6529 -0.3682  1.3582
  899MOL0     H21326   3.617   2.762   8.111  1.1342  1.9939  2.3215
  899MOL0     H21327   4.065   2.763   8.206 -1.1413  0.4419 -0.8247
  899MOL0     H21328   4.258   2.666   8.245  1.0454  1.2577 -1.1456
  899MOL0     H21329   4.380   2.296   7.983 -0.4430 -1.0452  0.9221
  899MOL0     H21330   4.441   2.450   7.914  2.3257 -0.1437 -0.6780
  899MOL0     H21331   4.589   2.378   8.147 -3.6577  4.7979 -1.3973
  899MOL0     H21332   4.580   2.232   8.055  0.2790 -0.0398  1.2236
  899MOL0     H21333   4.654   2.336   7.854 -0.2031  0.5226 -0.4032
  899MOL0     H21334   4.670   2.490   7.925  0.5578 -1.0177 -3.5158
  899MOL0     H21335   4.843   2.236   8.005  1.0154 -0.7255  0.0976
  899MOL0     H21336   4.836   2.370   8.109  2.7976 -0.0772 -0.5690
  899MOL0     H21337   5.024   2.412   7.996  0.0654  1.7891 -1.7044
  899MOL0     H21338   4.919   2.510   7.894  0.0553 -1.0775 -1.7823
  899MOL0     H21339   4.986   2.220   7.851 -1.3972 -0.2638  1.6988
  899MOL0     H21340   4.913   2.339   7.737  1.5281 -0.7828 -1.0444
  899MOL0     H21341   5.194   2.339   7.861  0.8564 -0.6460 -0.4111
  899MOL0     H21342   5.136   2.453   7.729 -1.6108 -0.5254 -0.4837
  899MOL0     H21343   5.177   2.158   7.715  0.8209  0.2895  0.1720
  899MOL0     H21344   5.110   2.257   7.577  1.4641 -0.4285 -1.5714
  899MOL0     H21345   4.178   2.336   7.980  4.2155  0.9878 -0.6687
  899MOL0     H21346   3.953   2.443   7.933 -1.2888  4.4657 -1.7062
  899MOL0     H21347   3.799   3.023   7.809 -0.6278 -0.2974 -0.2990
  899MOL0     H21348   3.599   3.139   7.802 -2.8691  1.4840  1.4055
  899MOL0     H21349   2.008   2.181   7.823 -2.1080 -0.4489 -1.2382
  899MOL0     H21350   1.792   2.221   7.779 -2.1217 -2.0455  2.9600
  899MOL0     H21351   1.500   2.646   7.903 -1.4149 -0.4251  0.9198
  899MOL0     H21352   1.284   2.740   7.895 -1.4431  3.2071 -3.6297
  899MOL0     H21353   1.106   2.830   7.808  1.1982 -1.1340 -0.1572
  899MOL0     H21354   1.011   2.712   7.891 -1.5535  0.9976  0.1919
  899MOL0     H21355   0.925   2.877   7.645 -0.9092 -0.6203  0.4527
  899MOL0     H21356   0.873   2.916   7.807 -1.7272  0.6368 -1.6950
  899MOL0     H21357   0.820   2.640   7.693  0.0641 -0.3449 -0.8913
  899MOL0     H21358   0.728   2.779   7.639  4.3402  0.6331 -1.7052
  899MOL0     H21359   0.751   2.688   7.924 -1.9156 -1.0345  0.6686
  899MOL0     H21360   0.649   2.822   7.874  0.1428 -0.9701 -0.2509
  899MOL0     H21361   0.421   2.478   7.731 -0.1251  0.9532  0.6619
  899MOL0     H21362   1.190   2.507   7.552 -2.3017  1.7606  2.5933
  899MOL0     H21363   1.392   2.272   7.570 -0.6775  0.2750  0.3127
  899MOL0     H21364   1.368   2.386   7.431 -1.9966  1.2843  1.3197
  899MOL0     H21365   1.527   2.385   7.497 -0.0534 -1.3580 -0.3781
  900MOL0     O21366   5.553  11.284   2.116 -0.1705  0.0985 -0.1430
  900MOL0     C21367   5.609  11.391   2.118 -0.1141 -0.3151 -0.0846
  900MOL0     O21368   5.532  11.509   2.125 -0.9838  0.3336 -0.4655
  900MOL0     C21369   5.398  11.510   2.166 -0.0328 -0.5337  0.9880
  900MOL0     C21370   5.314  11.606   2.094  0.1960 -0.1278 -0.2841
  900MOL0     C21371   5.184  11.626   2.135  0.0398  0.3348 -0.0303
  900MOL0     C21372   5.140  11.561   2.253 -0.4792 -0.3681  1.2295
  900MOL0     O21373   5.007  11.571   2.303  0.4276 -0.8278  0.1015
  900MOL0     C21374   4.925  11.675   2.241 -0.1310  0.8294  0.5942
  900MOL0     C21375   4.785  11.701   2.295  0.4711 -0.6306  0.0903
  900MOL0     C21376   4.727  11.827   2.232  0.4143 -0.2377 -0.3565
  900MOL0     C21377   4.656  11.813   2.098 -0.1657  0.1967  0.1062
  900MOL0     C21378   4.556  11.930   2.069  0.8398  0.2802 -0.5823
  900MOL0     C21379   4.625  12.070   2.090 -0.5281 -0.5377  0.4886
  900MOL0     C21380   4.736  12.100   1.988 -0.2815  0.2639 -0.2905
  900MOL0     C21381   4.693  12.125   1.840 -0.5107  0.8615 -0.2111
  900MOL0     N21382   4.802  12.184   1.759  0.1627  0.5830  0.9074
  900MOL0     C21383   4.913  12.115   1.739  0.2638 -0.2340 -0.1285
  900MOL0     C21384   4.986  12.183   1.644 -0.3552  0.1745  0.0934
  900MOL0     C21385   5.110  12.126   1.593  0.0852 -0.3111 -0.8752
  900MOL0     C21386   5.222  12.181   1.681 -0.5822 -1.0218 -0.8148
  900MOL0     C21387   5.323  12.262   1.599 -0.2865 -0.3122  0.4788
  900MOL0     C21388   5.399  12.177   1.496  0.3540 -0.4345 -0.2972
  900MOL0     O21389   5.483  12.085   1.558  0.1595 -0.4530 -0.0496
  900MOL0     C21390   5.611  12.108   1.585  0.5029 -0.8039  0.5841
  900MOL0     C21391   5.669  11.999   1.649  0.4412 -0.4258 -0.5547
  900MOL0     C21392   5.801  11.998   1.679  0.3267 -0.7766  1.8186
  900MOL0     C21393   5.881  12.110   1.647  0.6922  0.3712  0.6887
  900MOL0     C21394   6.020  12.106   1.691  0.3499 -0.0421 -0.0046
  900MOL0     O21395   6.071  11.991   1.755  0.2719 -0.5803 -0.3118
  900MOL0     C21396   6.202  12.002   1.795 -1.0417  0.0890 -0.6741
  900MOL0     C21397   6.232  11.961   1.927 -0.9806  0.1014 -0.0038
  900MOL0     C21398   6.360  11.962   1.968 -0.9281  0.5806  1.0462
  900MOL0     C21399   6.470  12.008   1.890 -0.0362 -0.3970 -0.2702
  900MOL0     O21400   6.596  12.017   1.963  0.5794  0.4792  0.7886
  900MOL0     C21401   6.703  12.092   1.918  0.1494  0.3695 -0.1559
  900MOL0     C21402   6.833  12.012   1.880 -1.3256 -0.0263  0.6366
  900MOL0     C21403   6.879  11.900   1.970  0.0146 -0.1719 -1.0166
  900MOL0     C21404   6.952  11.796   1.893 -0.2619 -0.0773  0.0432
  900MOL0     C21405   6.998  11.686   1.991 -0.4878 -0.1127  0.1519
  900MOL0     C21406   7.069  11.571   1.909 -1.2653 -0.1613 -0.4027
  900MOL0     C21407   7.209  11.615   1.863  0.1666  0.4290  0.6208
  900MOL0     C21408   7.303  11.496   1.870 -0.4469  0.4139  0.3219
  900MOL0    Cl21409   7.241  11.368   1.759 -0.5135 -0.5582  0.1524
  900MOL0     C21410   6.450  12.041   1.756  0.0606  0.1161  0.0233
  900MOL0     C21411   6.317  12.035   1.712 -0.0510 -0.1781 -0.5225
  900MOL0     O21412   6.082  12.216   1.674  0.1885  0.9115  0.4855
  900MOL0     C21413   5.817  12.217   1.581  0.4951  0.4565  0.4633
  900MOL0     C21414   5.691  12.215   1.540 -0.9112  0.2655 -1.1276
  900MOL0     N21415   4.907  12.294   1.608 -0.1899 -0.4409 -0.4054
  900MOL0     N21416   4.794  12.293   1.686 -1.0357 -0.2226  0.1442
  900MOL0     C21417   5.211  11.464   2.314 -0.0019 -0.1109 -0.6976
  900MOL0     C21418   5.344  11.446   2.279 -0.4616 -0.8041  0.4838
  900MOL0     C21419   5.747  11.398   2.080 -0.7919 -0.5344 -0.0325
  900MOL0     C21420   5.805  11.528   2.062  1.6374  0.5091 -0.0008
  900MOL0     C21421   5.932  11.553   2.018  0.6012  0.0452 -0.4135
  900MOL0     C21422   6.018  11.451   1.976  0.1311  0.7881  0.8712
  900MOL0     O21423   6.148  11.456   1.931 -0.2036  0.2833  0.4942
  900MOL0     C21424   6.202  11.585   1.898 -0.0657  0.3370 -0.2234
  900MOL0     C21425   6.351  11.580   1.897  0.2301  0.5856 -0.6809
  900MOL0     C21426   6.413  11.540   2.030  0.0555  0.4144 -0.4197
  900MOL0     C21427   6.469  11.397   2.015 -0.4098  0.2480 -0.1386
  900MOL0     C21428   6.528  11.347   2.139 -0.8436 -0.4341 -0.1849
  900MOL0     C21429   6.567  11.305   2.249  0.1741 -0.6076 -0.6204
  900MOL0     C21430   5.964  11.323   1.991  0.3195  0.2391 -0.2244
  900MOL0     C21431   5.842  11.295   2.055  0.3892  0.1143 -0.0716
  900MOL0     C21432   5.816  11.155   2.094 -0.0161  0.4971  0.1151
  900MOL0     H21433   5.359  11.664   2.014  0.2053 -3.6135 -3.0599
  900MOL0     H21434   5.123  11.686   2.067 -0.0121 -0.2218 -0.4860
  900MOL0     H21435   4.983  11.767   2.243 -1.6063  1.9035 -1.4447
  900MOL0     H21436   4.919  11.645   2.136  2.4404  0.4045  0.5206
  900MOL0     H21437   4.804  11.712   2.402 -0.5949  1.8457  0.0963
  900MOL0     H21438   4.722  11.611   2.286  1.9433 -1.8913  1.7395
  900MOL0     H21439   4.810  11.897   2.216  0.9206 -0.8431 -0.4112
  900MOL0     H21440   4.661  11.879   2.302 -0.5619 -1.1193 -0.6098
  900MOL0     H21441   4.731  11.808   2.018 -0.0048  3.3259 -0.0439
  900MOL0     H21442   4.601  11.720   2.111 -1.2758  0.6416 -1.1606
  900MOL0     H21443   4.513  11.913   1.970 -2.0959 -1.4502  0.8298
  900MOL0     H21444   4.472  11.924   2.139  2.5050 -2.0671  1.4410
  900MOL0     H21445   4.554  12.152   2.078  0.6074  0.0961 -3.4302
  900MOL0     H21446   4.670  12.077   2.189 -1.2328 -0.9115  0.8420
  900MOL0     H21447   4.815  12.024   1.994 -0.5305  0.0986  1.2926
  900MOL0     H21448   4.786  12.196   2.005 -0.6148  0.4578 -0.4129
  900MOL0     H21449   4.655  12.030   1.802  3.3100 -1.1000  0.3999
  900MOL0     H21450   4.609  12.195   1.839 -0.8863  0.4309  0.4600
  900MOL0     H21451   4.942  12.019   1.780  1.1837  0.8617  1.9499
  900MOL0     H21452   5.103  12.017   1.592  0.5382 -0.3916  1.2032
  900MOL0     H21453   5.123  12.168   1.493 -1.1310 -0.8753 -1.2814
  900MOL0     H21454   5.185  12.259   1.748  1.8729  0.7414 -1.3614
  900MOL0     H21455   5.274  12.105   1.740  3.5853  0.7103 -1.8845
  900MOL0     H21456   5.396  12.312   1.663  1.6839 -0.6411 -1.4065
  900MOL0     H21457   5.269  12.342   1.547  0.2671 -0.8338 -0.9639
  900MOL0     H21458   5.458  12.244   1.433  1.3745  0.3670  1.4301
  900MOL0     H21459   5.327  12.129   1.429 -0.2992  2.0527 -1.4617
  900MOL0     H21460   5.623  11.905   1.678 -0.4183  0.4036  0.9145
  900MOL0     H21461   5.829  11.908   1.733  0.7073 -1.3193  0.7463
  900MOL0     H21462   6.151  11.932   1.993  0.3291 -1.5599  0.9352
  900MOL0     H21463   6.386  11.922   2.066 -1.6311  1.0568  1.4400
  900MOL0     H21464   6.684  12.153   1.829  1.5233 -0.0881 -0.7992
  900MOL0     H21465   6.718  12.158   2.004  1.6883  0.0032 -0.1083
  900MOL0     H21466   6.824  11.967   1.781  1.0728 -1.1070  0.8193
  900MOL0     H21467   6.919  12.081   1.885 -0.8322 -0.5369 -0.5540
  900MOL0     H21468   6.945  11.940   2.048 -0.4082  0.9501 -1.2235
  900MOL0     H21469   6.786  11.857   2.010  0.4043  1.3459  1.7416
  900MOL0     H21470   7.023  11.853   1.832  0.7032 -0.4594  0.7908
  900MOL0     H21471   6.877  11.757   1.824  0.0962  1.7340 -1.4594
  900MOL0     H21472   6.915  11.642   2.048  0.1626 -2.1955 -0.4248
  900MOL0     H21473   7.074  11.742   2.046 -1.1085  2.0771 -1.0822
  900MOL0     H21474   7.082  11.482   1.972 -2.2796 -1.0056 -1.3391
  900MOL0     H21475   7.004  11.549   1.824 -1.2848 -0.8275 -0.2190
  900MOL0     H21476   7.258  11.698   1.915  2.6952  0.2094 -1.1962
  900MOL0     H21477   7.215  11.640   1.757  2.0606 -0.1252  0.5618
  900MOL0     H21478   7.396  11.528   1.823 -0.9833  3.2937  0.9723
  900MOL0     H21479   7.322  11.455   1.969  0.6204  0.1310  0.0090
  900MOL0     H21480   6.533  12.055   1.688  0.1931 -0.5345  0.0448
  900MOL0     H21481   6.313  12.070   1.610  1.6453 -3.3953 -1.8363
  900MOL0     H21482   5.868  12.308   1.552  1.1359  0.0727  0.3781
  900MOL0     H21483   5.652  12.302   1.489 -0.0337 -0.9660 -4.1204
  900MOL0     H21484   5.169  11.397   2.388 -0.1389  1.4296  0.6720
  900MOL0     H21485   5.416  11.391   2.338  0.4880  1.0673  1.1481
  900MOL0     H21486   5.742  11.612   2.089 -0.8260 -0.7699 -1.4407
  900MOL0     H21487   5.949  11.659   2.004 -0.8522  0.0832 -2.3919
  900MOL0     H21488   6.165  11.662   1.966 -0.0469 -1.6406  2.1850
  900MOL0     H21489   6.151  11.606   1.803  1.6410  1.1712 -0.9991
  900MOL0     H21490   6.392  11.680   1.880  1.8546  0.4369  1.9188
  900MOL0     H21491   6.400  11.520   1.819  1.7625  0.4175  0.3677
  900MOL0     H21492   6.340  11.552   2.111  0.7971 -0.3222  0.3938
  900MOL0     H21493   6.494  11.612   2.044 -1.3284  2.1853 -1.1866
  900MOL0     H21494   6.393  11.322   1.994  0.2639 -0.1415 -1.2652
  900MOL0     H21495   6.544  11.389   1.935 -0.4019  1.4870 -0.2774
  900MOL0     H21496   6.585  11.277   2.351 -1.6258 -2.1932 -0.6792
  900MOL0     H21497   6.026  11.242   1.953  0.7700  0.2308  0.5059
  900MOL0     H21498   5.822  11.150   2.204  0.5928 -2.3898  0.0231
  900MOL0     H21499   5.718  11.124   2.059  0.4256 -1.0578  0.2064
  900MOL0     H21500   5.894  11.088   2.058 -0.1023  1.3762 -1.7818
  901MOL0     O21501   6.319   7.913  10.961 -0.2619 -0.2899  0.0966
  901MOL0     C21502   6.348   8.009  10.888  0.0329 -0.2669  1.1663
  901MOL0     O21503   6.465   8.070  10.878  0.1055 -1.0824 -0.0715
  901MOL0     C21504   6.569   8.014  10.956  0.1070  0.2829  0.8823
  901MOL0     C21505   6.600   8.067  11.083 -0.1015 -0.5173  0.0207
  901MOL0     C21506   6.709   8.007  11.159  0.3018  0.1963 -0.4282
  901MOL0     C21507   6.783   7.900  11.109  0.9607 -0.5622  0.6331
  901MOL0     O21508   6.883   7.839  11.181 -0.1962  0.2946 -0.1317
  901MOL0     C21509   6.997   7.776  11.105 -0.5636 -0.6803  0.6817
  901MOL0     C21510   7.104   7.756  11.209 -0.3770 -0.2184 -0.6637
  901MOL0     C21511   7.242   7.702  11.158 -0.1383  0.6021 -0.7887
  901MOL0     C21512   7.315   7.799  11.068 -0.5967  0.3062 -0.4968
  901MOL0     C21513   7.470   7.768  11.055  0.2354  0.7877  0.3361
  901MOL0     C21514   7.525   7.880  10.972  0.1588  0.4570 -0.3528
  901MOL0     C21515   7.678   7.880  10.977 -0.6184 -0.1946 -0.0892
  901MOL0     C21516   7.744   7.850  11.110  0.6057 -0.4806 -0.1647
  901MOL0     N21517   7.885   7.871  11.086 -0.9554  0.0144 -0.2837
  901MOL0     C21518   7.981   7.787  11.029 -0.5046  0.1087  0.0018
  901MOL0     C21519   8.104   7.843  11.064  0.5261  0.1270  0.4064
  901MOL0     C21520   8.249   7.798  11.041  0.6618  0.4001 -0.7358
  901MOL0     C21521   8.328   7.772  11.165  0.2771 -0.2346 -0.0632
  901MOL0     C21522   8.469   7.756  11.129 -0.5045 -0.1243 -0.3007
  901MOL0     C21523   8.571   7.744  11.241  0.8523  0.3594 -0.2950
  901MOL0     O21524   8.693   7.747  11.170  0.4490 -0.1826 -0.1270
  901MOL0     C21525   8.808   7.743  11.241 -1.0833  0.5034 -0.7808
  901MOL0     C21526   8.924   7.750  11.160  0.2320 -0.3617  0.4893
  901MOL0     C21527   9.046   7.758  11.214 -0.0287 -0.1355  1.2003
  901MOL0     C21528   9.060   7.772  11.351 -0.6506  0.3436 -0.1432
  901MOL0     C21529   9.192   7.774  11.405  0.2257  0.4963 -0.7552
  901MOL0     O21530   9.293   7.749  11.320  0.6339 -0.1283 -0.2638
  901MOL0     C21531   9.424   7.741  11.365 -0.2505 -0.1055  0.1092
  901MOL0     C21532   9.478   7.683  11.483  0.8357 -0.2450 -0.7660
  901MOL0     C21533   9.617   7.685  11.510  0.0422  0.3537 -0.2251
  901MOL0     C21534   9.708   7.734  11.414  0.5485 -0.4706  0.5542
  901MOL0     O21535   9.846   7.733  11.433 -0.2017  0.1897 -0.1681
  901MOL0     C21536   9.942   7.758  11.329  0.3188  0.4624 -0.1102
  901MOL0     C21537  10.085   7.721  11.372  0.9160  0.2782 -0.6845
  901MOL0     C21538  10.178   7.790  11.275 -1.0286  0.1724 -0.1932
  901MOL0     C21539  10.322   7.722  11.292  0.7069  0.1670 -0.1221
  901MOL0     C21540  10.436   7.809  11.232  0.3390 -0.0397  0.0526
  901MOL0     C21541  10.473   7.755  11.095 -0.3534  0.7638 -0.5066
  901MOL0     C21542  10.578   7.851  11.035 -0.2075  0.9135  0.2045
  901MOL0     C21543  10.642   7.801  10.911  0.0136  0.3280 -0.0046
  901MOL0    Cl21544  10.781   7.913  10.879 -0.5395 -0.0723 -0.1711
  901MOL0     C21545   9.657   7.780  11.292 -0.8370  0.0060 -0.2579
  901MOL0     C21546   9.515   7.790  11.273  0.1106  0.8037 -0.2074
  901MOL0     O21547   9.206   7.790  11.531 -0.4878 -0.5786 -0.6946
  901MOL0     C21548   8.953   7.775  11.438  1.1000 -0.5346  0.1766
  901MOL0     C21549   8.830   7.754  11.381  0.0950 -0.4602  0.0705
  901MOL0     N21550   8.074   7.959  11.140  0.4505 -0.3990  0.7391
  901MOL0     N21551   7.947   7.976  11.140 -0.5976  0.2997 -0.4240
  901MOL0     C21552   6.754   7.860  10.972  0.2756  0.0752  0.7996
  901MOL0     C21553   6.645   7.913  10.896 -0.7355  0.1174  0.1805
  901MOL0     C21554   6.251   8.058  10.792 -0.0474 -0.3459 -0.1000
  901MOL0     C21555   6.296   8.159  10.709  0.2692 -0.5866  0.4598
  901MOL0     C21556   6.214   8.222  10.618  0.0822  0.8105  0.0480
  901MOL0     C21557   6.087   8.175  10.593  0.4300 -0.3214 -0.0395
  901MOL0     O21558   6.009   8.185  10.478 -0.9088  0.0941 -0.5655
  901MOL0     C21559   6.040   8.315  10.410 -0.6480  0.4039  0.1565
  901MOL0     C21560   5.924   8.366  10.335 -0.0897 -0.2543  0.0639
  901MOL0     C21561   5.979   8.487  10.244 -0.2386  0.6934  0.2543
  901MOL0     C21562   5.888   8.512  10.127 -0.2709  0.5102 -0.1723
  901MOL0     C21563   5.900   8.396  10.038 -0.6556  0.2657  0.2308
  901MOL0     C21564   5.899   8.307   9.958 -0.5022 -0.2332  0.3538
  901MOL0     C21565   6.037   8.071  10.677  0.0593  0.5522  0.4792
  901MOL0     C21566   6.125   8.005  10.766  0.0065 -0.7953 -0.1736
  901MOL0     C21567   6.081   7.881  10.844  0.0045  1.1192  0.2000
  901MOL0     H21568   6.545   8.154  11.115 -0.1585 -0.0625 -1.2466
  901MOL0     H21569   6.726   8.045  11.259 -0.6143 -1.1683  0.2763
  901MOL0     H21570   6.966   7.684  11.054  0.6451  0.0145 -1.4218
  901MOL0     H21571   7.048   7.843  11.036 -1.6496 -1.8131 -1.3472
  901MOL0     H21572   7.069   7.680  11.280 -0.1222 -1.7574 -2.1109
  901MOL0     H21573   7.110   7.847  11.268  0.0944 -1.1417  0.7573
  901MOL0     H21574   7.223   7.612  11.098  0.5011  0.7023 -1.1490
  901MOL0     H21575   7.307   7.684  11.243 -0.0568  2.3066 -0.4474
  901MOL0     H21576   7.267   7.811  10.971 -1.2417  2.5897  0.0294
  901MOL0     H21577   7.304   7.898  11.114  1.6714  1.0139 -1.3569
  901MOL0     H21578   7.508   7.762  11.157 -0.6107 -0.0461  0.6219
  901MOL0     H21579   7.493   7.677  10.999 -0.6486  0.3622  0.6362
  901MOL0     H21580   7.492   7.872  10.869  0.3338 -1.3539 -0.3118
  901MOL0     H21581   7.490   7.978  11.005  0.9297 -0.5156  4.0146
  901MOL0     H21582   7.715   7.978  10.946 -2.7242  1.1823  1.4934
  901MOL0     H21583   7.729   7.815  10.905 -2.2635  0.5259 -2.0186
  901MOL0     H21584   7.700   7.916  11.186 -1.8805  0.5455 -2.3477
  901MOL0     H21585   7.733   7.747  11.145 -1.3376 -0.4549 -0.6011
  901MOL0     H21586   7.960   7.695  10.975 -0.9397  1.7587 -2.8660
  901MOL0     H21587   8.254   7.707  10.981 -1.9877 -0.6540  0.4870
  901MOL0     H21588   8.290   7.880  10.980 -1.4617  1.4606 -0.8407
  901MOL0     H21589   8.328   7.860  11.231  2.5247  0.5163 -0.9961
  901MOL0     H21590   8.297   7.683  11.221  1.4220 -0.1504  0.7485
  901MOL0     H21591   8.500   7.847  11.077  0.2053 -0.2109 -0.0308
  901MOL0     H21592   8.486   7.665  11.071  1.7619 -0.4956  0.8616
  901MOL0     H21593   8.566   7.649  11.295  2.4767  1.2517  1.5575
  901MOL0     H21594   8.560   7.820  11.319 -2.2729  2.0852 -2.2274
  901MOL0     H21595   8.916   7.738  11.053  2.1267 -0.7355  0.3538
  901MOL0     H21596   9.131   7.759  11.147 -0.2328  2.6553  0.8487
  901MOL0     H21597   9.403   7.635  11.545  0.7171  0.9816  0.0611
  901MOL0     H21598   9.651   7.631  11.598  0.8445  2.2555  0.6713
  901MOL0     H21599   9.921   7.702  11.237  0.8193 -0.7917  0.5180
  901MOL0     H21600   9.936   7.864  11.305 -3.4941  0.2765 -0.5487
  901MOL0     H21601  10.106   7.763  11.470  0.4341 -0.9667 -0.0204
  901MOL0     H21602  10.079   7.614  11.392 -2.5127  0.5598  0.4231
  901MOL0     H21603  10.155   7.786  11.168  1.7148 -2.2931 -0.8264
  901MOL0     H21604  10.176   7.895  11.304 -3.0352  0.0954  0.0945
  901MOL0     H21605  10.327   7.623  11.246 -3.8380  0.0166 -0.7077
  901MOL0     H21606  10.341   7.715  11.400 -3.1680 -1.5966  0.6070
  901MOL0     H21607  10.522   7.804  11.299  1.1126 -0.4220 -0.9321
  901MOL0     H21608  10.397   7.911  11.229 -0.4263 -0.1805  2.9690
  901MOL0     H21609  10.514   7.653  11.095 -0.3224  0.7693  0.3468
  901MOL0     H21610  10.384   7.747  11.032  0.5470 -1.0297 -1.6225
  901MOL0     H21611  10.661   7.858  11.106 -0.8931  2.1110  0.9114
  901MOL0     H21612  10.530   7.946  11.010 -2.6979 -0.8215 -2.2903
  901MOL0     H21613  10.678   7.698  10.923 -1.4196 -0.1650  0.2462
  901MOL0     H21614  10.564   7.798  10.833 -0.5742  1.6314  0.5011
  901MOL0     H21615   9.729   7.806  11.215  0.4915  0.0861  0.9628
  901MOL0     H21616   9.473   7.823  11.179  0.2662  1.3216 -0.0981
  901MOL0     H21617   8.966   7.774  11.546  0.4274 -3.9817  0.3418
  901MOL0     H21618   8.743   7.762  11.446 -1.6525 -2.7038 -1.8011
  901MOL0     H21619   6.821   7.785  10.930 -1.2620 -0.3794 -0.9868
  901MOL0     H21620   6.625   7.876  10.796  0.8824 -1.2994  0.3254
  901MOL0     H21621   6.398   8.196  10.710  0.4094 -0.9470  1.5913
  901MOL0     H21622   6.266   8.286  10.546  1.1114 -2.2679 -2.1780
  901MOL0     H21623   6.115   8.287  10.335 -1.6506 -3.5896  0.3951
  901MOL0     H21624   6.077   8.388  10.483  0.0408 -0.5025  0.7366
  901MOL0     H21625   5.852   8.401  10.409  0.7450  0.5803  0.4981
  901MOL0     H21626   5.872   8.285  10.282  0.2666 -0.6002  0.2359
  901MOL0     H21627   6.074   8.460  10.197 -0.2612 -0.2061  0.7019
  901MOL0     H21628   5.997   8.579  10.300  1.5390  0.4540  0.1281
  901MOL0     H21629   5.780   8.524  10.141 -1.0219 -0.1531 -4.0898
  901MOL0     H21630   5.921   8.596  10.065  2.5053 -0.8621 -0.6901
  901MOL0     H21631   5.895   8.231   9.883 -1.4827  3.1345 -3.3235
  901MOL0     H21632   5.943   8.021  10.657  0.9891 -1.7039  1.4084
  901MOL0     H21633   5.980   7.856  10.809  0.4733 -1.5195  0.5098
  901MOL0     H21634   6.147   7.797  10.819 -2.2587 -1.1588  1.3668
  901MOL0     H21635   6.077   7.888  10.953 -0.2492  0.3713  0.2489
  902MOL0     O21636   9.375   6.379   9.552  0.4317 -0.2131  0.3273
  902MOL0     C21637   9.334   6.270   9.522  0.7199  0.3951 -0.4726
  902MOL0     O21638   9.381   6.186   9.423 -0.2085  0.5567 -0.0247
  902MOL0     C21639   9.497   6.210   9.357  0.0728 -0.4750 -0.3568
  902MOL0     C21640   9.575   6.105   9.353 -0.0905  0.3359 -0.6825
  902MOL0     C21641   9.704   6.113   9.295 -0.0169 -0.2380  0.2884
  902MOL0     C21642   9.763   6.234   9.249  0.2655  0.2671 -0.1901
  902MOL0     O21643   9.890   6.251   9.194  0.2559 -0.3273  0.7369
  902MOL0     C21644   9.982   6.140   9.220  0.2713  0.0065 -0.1591
  902MOL0     C21645  10.124   6.170   9.176 -0.2116 -1.2142  0.0866
  902MOL0     C21646  10.237   6.079   9.240  0.3845 -0.3214  0.3521
  902MOL0     C21647  10.372   6.154   9.197  0.7624  0.0156  0.0418
  902MOL0     C21648  10.494   6.105   9.275 -0.2662  0.0529  0.2024
  902MOL0     C21649  10.502   6.130   9.423 -0.3712 -0.4763  0.0712
  902MOL0     C21650  10.612   6.040   9.493  0.1138  0.2153  0.9836
  902MOL0     C21651  10.754   6.067   9.442 -0.4049 -0.2760 -0.7352
  902MOL0     N21652  10.841   5.997   9.539 -0.1094  0.0518 -0.0654
  902MOL0     C21653  10.860   5.857   9.559  0.0753  0.3733 -0.2944
  902MOL0     C21654  10.945   5.844   9.670 -0.8675  0.0981  0.1176
  902MOL0     C21655  11.005   5.716   9.704  0.2659  0.6288  0.7212
  902MOL0     C21656  10.900   5.606   9.746  0.0735  0.0934 -1.1469
  902MOL0     C21657  10.870   5.610   9.895  0.4243 -0.1821  0.1471
  902MOL0     C21658  10.988   5.578   9.984  1.0496  0.0387  0.1458
  902MOL0     O21659  11.039   5.445   9.944  0.7971  0.0179  0.4991
  902MOL0     C21660  11.158   5.395   9.986 -0.3407 -0.9303  0.0146
  902MOL0     C21661  11.247   5.474  10.068  0.2673 -0.4760  0.4675
  902MOL0     C21662  11.377   5.426  10.092  0.0715 -0.0729 -0.1453
  902MOL0     C21663  11.421   5.299  10.042  0.1225  0.2375  0.8168
  902MOL0     C21664  11.557   5.253  10.072 -0.2354  0.0263  0.3801
  902MOL0     O21665  11.643   5.341  10.128  0.9103 -1.0250  0.2287
  902MOL0     C21666  11.760   5.295  10.186  0.4725 -0.1554  0.4301
  902MOL0     C21667  11.875   5.367  10.171  0.3517  0.0456  0.5655
  902MOL0     C21668  11.999   5.326  10.220  0.9417  0.1941 -0.0022
  902MOL0     C21669  12.011   5.211  10.292  1.4932 -0.1298  0.0885
  902MOL0     O21670  12.136   5.179  10.322 -0.5612 -0.4391  0.0900
  902MOL0     C21671  12.190   5.078  10.234 -0.0084 -0.2089 -0.7978
  902MOL0     C21672  12.338   5.073  10.242 -1.1903 -0.0175 -0.7299
  902MOL0     C21673  12.407   5.171  10.143  0.4737  0.5438 -0.3553
  902MOL0     C21674  12.561   5.161  10.126 -0.5491  0.5238 -0.1176
  902MOL0     C21675  12.614   5.267  10.028 -0.6072 -0.6624 -0.2655
  902MOL0     C21676  12.759   5.254   9.984 -0.2052 -0.1097 -0.8722
  902MOL0     C21677  12.802   5.355   9.875 -0.2614  0.2802  0.0912
  902MOL0     C21678  12.956   5.377   9.879  0.6455 -0.3383 -0.1570
  902MOL0    Cl21679  13.012   5.414  10.046  0.0584  0.1187 -0.5734
  902MOL0     C21680  11.897   5.128  10.302  0.1693 -0.3933  0.4780
  902MOL0     C21681  11.773   5.176  10.258  1.1710  0.2742  0.1966
  902MOL0     O21682  11.583   5.139  10.032 -0.5664  0.3391  0.0253
  902MOL0     C21683  11.323   5.221   9.974 -0.4263  0.5577  0.5424
  902MOL0     C21684  11.197   5.267   9.937  0.4129  0.3663 -0.1989
  902MOL0     N21685  10.979   5.968   9.721  0.4480 -1.1994 -0.2205
  902MOL0     N21686  10.910   6.053   9.644  0.5320 -0.4762 -0.0786
  902MOL0     C21687   9.665   6.344   9.240 -0.5993 -0.3720 -0.1661
  902MOL0     C21688   9.529   6.331   9.287 -0.6976  0.5817  0.4123
  902MOL0     C21689   9.221   6.225   9.608  0.0908  0.2840  0.0822
  902MOL0     C21690   9.204   6.088   9.616  0.7272  0.2991  0.5971
  902MOL0     C21691   9.116   6.037   9.713 -0.2866 -0.3308  0.3903
  902MOL0     C21692   9.034   6.115   9.795  1.5395 -0.5790 -0.4746
  902MOL0     O21693   8.949   6.075   9.895  0.2178  1.0539  0.5626
  902MOL0     C21694   8.855   5.963   9.860  0.1494  0.0387 -0.5802
  902MOL0     C21695   8.782   5.907   9.989  0.3019 -0.3562 -0.3968
  902MOL0     C21696   8.728   6.032  10.064  0.6059 -0.2296  1.5067
  902MOL0     C21697   8.673   5.990  10.199  0.1392  0.1000 -0.5676
  902MOL0     C21698   8.555   6.069  10.227 -0.5350  0.2531  0.1152
  902MOL0     C21699   8.459   6.140  10.246  0.0870 -0.2929 -0.0008
  902MOL0     C21700   9.048   6.252   9.788 -0.6794 -0.2127 -0.6328
  902MOL0     C21701   9.141   6.310   9.698 -0.1327  0.3406  0.5829
  902MOL0     C21702   9.168   6.456   9.717 -0.2103  0.6798 -0.2728
  902MOL0     H21703   9.537   6.025   9.416  0.0935  1.6327  1.1447
  902MOL0     H21704   9.759   6.020   9.306 -2.9257 -1.8145  3.2567
  902MOL0     H21705   9.977   6.134   9.329 -2.3034 -0.4598 -0.2482
  902MOL0     H21706   9.945   6.047   9.176  1.7626  1.0134 -3.9290
  902MOL0     H21707  10.155   6.272   9.201  2.2234 -1.5339 -1.3352
  902MOL0     H21708  10.135   6.178   9.067 -1.4687 -0.2841  0.0063
  902MOL0     H21709  10.237   5.974   9.207  0.8297  0.2051 -1.4499
  902MOL0     H21710  10.226   6.077   9.349  2.2016  1.3003  0.6160
  902MOL0     H21711  10.383   6.143   9.089 -2.9764 -2.8481 -0.2844
  902MOL0     H21712  10.366   6.262   9.213  2.7427  0.3037 -0.9047
  902MOL0     H21713  10.503   5.998   9.256 -1.5076 -0.8728  3.9399
  902MOL0     H21714  10.581   6.152   9.228  1.3319 -2.8026  0.1056
  902MOL0     H21715  10.532   6.233   9.445  2.1747 -0.4026 -3.0087
  902MOL0     H21716  10.410   6.095   9.471  1.8493 -3.6000  2.4986
  902MOL0     H21717  10.593   5.932   9.483  2.7427 -0.0556 -3.2511
  902MOL0     H21718  10.614   6.073   9.598  0.5997  0.6469  0.8408
  902MOL0     H21719  10.774   6.016   9.347 -2.8782  0.1426 -1.5430
  902MOL0     H21720  10.773   6.173   9.427 -1.7037 -0.0986 -1.2141
  902MOL0     H21721  10.814   5.787   9.489 -3.6390  2.4888 -0.2561
  902MOL0     H21722  11.050   5.673   9.614 -1.0703 -0.1447  0.3996
  902MOL0     H21723  11.085   5.734   9.776  2.7872 -0.4208 -1.6391
  902MOL0     H21724  10.807   5.611   9.687 -1.0492 -2.3420  0.2314
  902MOL0     H21725  10.937   5.504   9.733  1.5872 -0.3260  4.1211
  902MOL0     H21726  10.784   5.545   9.915 -1.0531  1.4308 -0.7061
  902MOL0     H21727  10.827   5.709   9.917 -2.8379 -1.1643 -1.2016
  902MOL0     H21728  10.944   5.566  10.083 -2.0278  0.9747 -0.9724
  902MOL0     H21729  11.066   5.654   9.977  1.6452 -0.6067 -0.5272
  902MOL0     H21730  11.221   5.565  10.120  0.9342 -0.1633  0.2591
  902MOL0     H21731  11.447   5.487  10.149  0.1281 -0.9678  0.7572
  902MOL0     H21732  11.878   5.453  10.106  1.6847  0.7619  1.5359
  902MOL0     H21733  12.091   5.382  10.213  0.9107  0.8454  3.2089
  902MOL0     H21734  12.163   4.979  10.273  1.8866 -2.0141 -3.6718
  902MOL0     H21735  12.162   5.078  10.129  3.5819 -0.8192 -1.8850
  902MOL0     H21736  12.365   5.097  10.345 -0.8412  0.8125 -1.0097
  902MOL0     H21737  12.365   4.972  10.208 -2.8223 -0.6502 -0.2448
  902MOL0     H21738  12.383   5.145  10.040  1.3647  2.3393 -1.0591
  902MOL0     H21739  12.385   5.277  10.160 -1.3294  0.7171 -3.0926
  902MOL0     H21740  12.598   5.065  10.091  3.9598  2.1267 -0.4047
  902MOL0     H21741  12.602   5.176  10.226 -2.6794 -1.7047  1.2066
  902MOL0     H21742  12.607   5.360  10.085  1.3860 -0.8796  0.4137
  902MOL0     H21743  12.553   5.273   9.937 -3.0032 -3.6818  0.9735
  902MOL0     H21744  12.824   5.263  10.071 -0.3631 -0.0830 -0.7558
  902MOL0     H21745  12.781   5.156   9.941  1.0865  0.2890 -1.1451
  902MOL0     H21746  12.744   5.441   9.908 -1.1800  0.5728 -2.0796
  902MOL0     H21747  12.778   5.309   9.778  1.7490 -1.8618  0.5090
  902MOL0     H21748  13.010   5.293   9.833  1.4509  0.0463  0.0631
  902MOL0     H21749  12.983   5.461   9.814  0.1595 -0.4844 -0.5518
  902MOL0     H21750  11.905   5.032  10.350 -0.1988 -0.9365 -0.5239
  902MOL0     H21751  11.690   5.107  10.270 -0.7418  2.1692 -1.3029
  902MOL0     H21752  11.355   5.119   9.953  1.1867  0.8765  1.2815
  902MOL0     H21753  11.125   5.208   9.882  0.4351 -0.6225  0.7946
  902MOL0     H21754   9.677   6.438   9.186 -2.1692 -0.4488 -0.7218
  902MOL0     H21755   9.455   6.411   9.288 -0.5060  0.7877 -0.4010
  902MOL0     H21756   9.272   6.023   9.562 -0.7306 -1.8113  1.1780
  902MOL0     H21757   9.107   5.930   9.728 -0.5931 -0.3110  0.3569
  902MOL0     H21758   8.907   5.880   9.812 -0.3150 -1.3975  1.2553
  902MOL0     H21759   8.783   6.004   9.789  1.3033 -0.2224 -1.9491
  902MOL0     H21760   8.856   5.861  10.056 -1.3002 -0.7805  1.1434
  902MOL0     H21761   8.701   5.837   9.971  0.5959 -1.1185  1.1013
  902MOL0     H21762   8.647   6.079  10.008  1.1498 -1.3149 -0.2730
  902MOL0     H21763   8.804   6.106  10.090 -0.4898  2.0602 -1.2522
  902MOL0     H21764   8.646   5.884  10.196  0.7208 -0.0517 -3.7526
  902MOL0     H21765   8.745   6.005  10.281 -1.6379  1.4848  0.8111
  902MOL0     H21766   8.387   6.219  10.247  2.6294  2.1828  0.6127
  902MOL0     H21767   8.973   6.310   9.841 -0.2417 -0.0344 -0.2002
  902MOL0     H21768   9.082   6.507   9.761 -0.4479  2.2010 -2.3352
  902MOL0     H21769   9.256   6.478   9.777  1.4454 -0.9282 -1.9597
  902MOL0     H21770   9.176   6.508   9.621 -1.2754  0.5585 -0.4429
  903MOL0     O21771   5.761   0.831   9.473  0.5051 -0.3252 -0.4244
  903MOL0     C21772   5.693   0.879   9.379  0.4298 -0.7214 -0.5645
  903MOL0     O21773   5.754   0.944   9.277 -0.2732 -0.2343  0.0353
  903MOL0     C21774   5.892   0.946   9.278  0.5674 -0.1212  0.1368
  903MOL0     C21775   5.951   1.073   9.277 -0.1056 -0.4424 -1.2112
  903MOL0     C21776   6.091   1.095   9.262  1.0633 -0.0081  0.1591
  903MOL0     C21777   6.174   0.982   9.253  0.0229 -0.3361 -0.4768
  903MOL0     O21778   6.311   1.002   9.230  0.0637 -0.6409 -0.4448
  903MOL0     C21779   6.406   0.901   9.221 -0.0894  0.3979  0.2793
  903MOL0     C21780   6.549   0.962   9.214 -0.8327 -0.7232  0.6217
  903MOL0     C21781   6.644   0.847   9.244 -0.5721 -0.4782 -0.7377
  903MOL0     C21782   6.788   0.877   9.197  1.1722 -0.0730  0.1008
  903MOL0     C21783   6.884   0.757   9.200  0.2017 -0.7301  0.3369
  903MOL0     C21784   7.004   0.804   9.120  0.0737  0.2923  1.0700
  903MOL0     C21785   7.106   0.696   9.098 -0.3035  0.9725  0.4431
  903MOL0     C21786   7.224   0.738   9.006  0.1990  0.0321 -0.2201
  903MOL0     N21787   7.301   0.621   8.967 -0.1068  0.5104 -0.0662
  903MOL0     C21788   7.428   0.600   9.014 -0.6100 -0.4928  0.6391
  903MOL0     C21789   7.453   0.472   8.981 -0.2976  0.1005 -0.3860
  903MOL0     C21790   7.568   0.379   9.007 -0.5765 -0.6777  0.7350
  903MOL0     C21791   7.697   0.442   9.013 -0.2144 -0.4250  0.0837
  903MOL0     C21792   7.737   0.496   8.869  1.3257  0.1279 -0.9008
  903MOL0     C21793   7.884   0.549   8.877  0.9078  0.3280  0.0197
  903MOL0     O21794   7.936   0.560   8.737  0.2242 -0.0159 -0.0930
  903MOL0     C21795   8.060   0.620   8.714 -0.0811  0.2721 -0.4507
  903MOL0     C21796   8.159   0.635   8.810 -0.2169 -0.5552 -0.6252
  903MOL0     C21797   8.283   0.688   8.785 -0.7027 -0.5528  0.2600
  903MOL0     C21798   8.312   0.727   8.657 -0.5416  0.7272  0.5141
  903MOL0     C21799   8.445   0.785   8.629  0.4005  0.0547 -0.4580
  903MOL0     O21800   8.547   0.768   8.722 -0.2243 -0.7216  0.1786
  903MOL0     C21801   8.673   0.811   8.687 -0.0823  0.0251 -0.4007
  903MOL0     C21802   8.752   0.885   8.788 -0.5989 -0.7632 -0.9598
  903MOL0     C21803   8.882   0.925   8.759  0.3723 -1.1319  0.2490
  903MOL0     C21804   8.938   0.893   8.631  0.0821 -0.3663  0.1207
  903MOL0     O21805   9.067   0.933   8.619  0.0016 -0.2600  0.1332
  903MOL0     C21806   9.151   0.831   8.560 -0.4937 -0.9776  0.1055
  903MOL0     C21807   9.291   0.834   8.618 -0.0485 -0.5357 -0.2135
  903MOL0     C21808   9.380   0.950   8.559 -0.8750 -0.2320  0.3827
  903MOL0     C21809   9.511   0.962   8.647 -0.2549  0.2133 -0.5835
  903MOL0     C21810   9.593   1.088   8.609  0.5932 -0.0638 -0.6498
  903MOL0     C21811   9.719   1.104   8.696 -0.0640  0.0953 -0.7647
  903MOL0     C21812   9.769   1.248   8.707 -1.1664  0.3502 -0.1441
  903MOL0     C21813   9.873   1.268   8.815  0.6167 -0.5003  0.4647
  903MOL0    Cl21814  10.012   1.160   8.801 -0.1715 -0.0809 -0.0319
  903MOL0     C21815   8.863   0.826   8.533  0.1678 -0.4509  0.8468
  903MOL0     C21816   8.736   0.783   8.564  0.5501 -0.1845  1.2622
  903MOL0     O21817   8.455   0.862   8.535  0.4192 -0.2945  0.0681
  903MOL0     C21818   8.209   0.704   8.554 -0.3055  0.8096 -0.3703
  903MOL0     C21819   8.094   0.647   8.584  0.7346 -0.6682 -0.1916
  903MOL0     N21820   7.352   0.424   8.896 -0.5213 -0.6521  0.7736
  903MOL0     N21821   7.261   0.512   8.893 -0.4659  0.4423 -0.6474
  903MOL0     C21822   6.118   0.857   9.250 -0.7714  0.4397  0.3222
  903MOL0     C21823   5.976   0.841   9.260  0.0705 -0.1724 -0.0215
  903MOL0     C21824   5.549   0.862   9.388  0.2991  0.3954  0.3091
  903MOL0     C21825   5.486   0.973   9.328 -0.1564  1.1825  0.1336
  903MOL0     C21826   5.346   0.972   9.327  0.7445 -0.0117  0.3819
  903MOL0     C21827   5.267   0.877   9.387 -0.7056  0.1115 -0.4523
  903MOL0     O21828   5.134   0.861   9.370  0.7256  0.2771 -0.2914
  903MOL0     C21829   5.067   0.925   9.259  0.0379 -0.0565 -0.0901
  903MOL0     C21830   4.932   0.849   9.251  0.8529 -0.6460 -0.6692
  903MOL0     C21831   4.963   0.704   9.223 -0.6231  0.4640 -0.5317
  903MOL0     C21832   4.841   0.637   9.181  0.1246  0.1831 -0.7366
  903MOL0     C21833   4.718   0.643   9.264 -0.3604 -0.7061  0.7243
  903MOL0     C21834   4.613   0.645   9.329  0.0465 -0.3779  0.2910
  903MOL0     C21835   5.329   0.772   9.446  0.4376  0.0483 -0.9586
  903MOL0     C21836   5.469   0.760   9.449 -0.1525  1.2625  0.2353
  903MOL0     C21837   5.531   0.638   9.515  0.7342 -0.3064 -0.4954
  903MOL0     H21838   5.879   1.153   9.284 -0.0165 -0.4777  0.4931
  903MOL0     H21839   6.137   1.193   9.261 -1.1470  1.0886  0.2993
  903MOL0     H21840   6.401   0.856   9.320 -1.4292  4.7578  2.4632
  903MOL0     H21841   6.386   0.834   9.137 -0.2160  1.5583 -0.6393
  903MOL0     H21842   6.547   1.045   9.286 -3.8192 -1.3420  1.4012
  903MOL0     H21843   6.571   1.013   9.120  0.2210  1.5169  1.9947
  903MOL0     H21844   6.600   0.760   9.194 -2.0284 -0.4067  0.3782
  903MOL0     H21845   6.662   0.825   9.349  0.3001  3.3942  0.0587
  903MOL0     H21846   6.775   0.907   9.092 -1.0972  2.5550  1.0255
  903MOL0     H21847   6.825   0.959   9.258 -2.6120  0.1413  2.3855
  903MOL0     H21848   6.910   0.725   9.301  3.5456  0.2395 -0.0905
  903MOL0     H21849   6.839   0.673   9.146  3.9863 -0.8853 -2.9984
  903MOL0     H21850   6.963   0.844   9.027 -3.1064 -2.8589  0.8769
  903MOL0     H21851   7.056   0.871   9.189  2.4490 -0.2956 -0.0555
  903MOL0     H21852   7.063   0.599   9.070 -0.5440  1.1468  0.2044
  903MOL0     H21853   7.153   0.679   9.196 -1.8845  0.3498  1.1405
  903MOL0     H21854   7.184   0.776   8.912  1.3068 -1.1833 -1.2079
  903MOL0     H21855   7.281   0.816   9.059 -0.5739  1.5767 -1.5666
  903MOL0     H21856   7.496   0.669   9.063 -0.3051 -0.7812  0.6251
  903MOL0     H21857   7.553   0.326   9.102  0.2410 -3.0786 -0.3882
  903MOL0     H21858   7.568   0.309   8.923  1.4730  0.7397 -0.5390
  903MOL0     H21859   7.694   0.534   9.073  2.8369 -0.3795  0.3431
  903MOL0     H21860   7.771   0.369   9.048  0.5224 -0.9064 -2.3304
  903MOL0     H21861   7.663   0.568   8.832  1.8891  1.3845  0.3088
  903MOL0     H21862   7.733   0.411   8.800  0.2265 -0.7756  0.2397
  903MOL0     H21863   7.940   0.471   8.929 -0.1266 -1.2188 -1.0777
  903MOL0     H21864   7.882   0.643   8.932  0.5992  1.1313 -1.3273
  903MOL0     H21865   8.149   0.603   8.913  3.6642  0.3933  0.2226
  903MOL0     H21866   8.360   0.698   8.861 -1.1848  1.4726  0.5567
  903MOL0     H21867   8.717   0.917   8.886 -1.4131  2.1780 -2.0885
  903MOL0     H21868   8.941   0.988   8.824 -0.1289  0.6489 -0.9443
  903MOL0     H21869   9.113   0.728   8.567  0.9421 -1.5408 -0.0036
  903MOL0     H21870   9.166   0.848   8.453  2.6736 -1.1622  0.4219
  903MOL0     H21871   9.269   0.849   8.724 -3.3488  2.0237 -1.0964
  903MOL0     H21872   9.343   0.739   8.600  1.3685  0.5233 -1.9705
  903MOL0     H21873   9.423   0.919   8.463 -0.5507 -2.1546  1.1030
  903MOL0     H21874   9.316   1.038   8.546 -0.3104  0.0487 -0.6278
  903MOL0     H21875   9.566   0.869   8.630  0.5715  1.1083 -3.5465
  903MOL0     H21876   9.475   0.964   8.750 -4.2813 -2.3261 -1.7073
  903MOL0     H21877   9.532   1.176   8.629 -1.1280 -1.7686  2.3822
  903MOL0     H21878   9.624   1.079   8.505 -2.6124 -1.4119 -1.6164
  903MOL0     H21879   9.700   1.060   8.795  1.9940  0.0968 -0.3086
  903MOL0     H21880   9.799   1.046   8.647 -2.0783 -2.4586 -1.2575
  903MOL0     H21881   9.686   1.314   8.732 -0.1937  1.9611 -1.0079
  903MOL0     H21882   9.811   1.286   8.613 -1.8334  2.6030  0.4050
  903MOL0     H21883   9.901   1.373   8.801 -3.7292  0.5920 -1.5803
  903MOL0     H21884   9.822   1.270   8.912 -2.1816 -0.9097 -0.8997
  903MOL0     H21885   8.914   0.801   8.440 -3.4412 -0.8800 -1.2176
  903MOL0     H21886   8.675   0.728   8.493 -0.5774 -0.3495  2.3151
  903MOL0     H21887   8.232   0.722   8.450  2.6878 -0.7681 -0.1189
  903MOL0     H21888   8.019   0.628   8.507  0.5353  0.2402 -0.2257
  903MOL0     H21889   6.181   0.773   9.222  3.5077  2.7144  2.1848
  903MOL0     H21890   5.940   0.740   9.242  2.3384 -1.1299  0.4246
  903MOL0     H21891   5.541   1.055   9.283  0.2747  2.2556  2.4935
  903MOL0     H21892   5.291   1.042   9.265  2.1992 -2.1746 -3.7634
  903MOL0     H21893   5.119   0.907   9.165  0.0743 -0.2693 -0.0299
  903MOL0     H21894   5.053   1.032   9.274 -0.5801  0.1462 -1.8887
  903MOL0     H21895   4.871   0.891   9.171 -2.5009 -1.0695  1.4554
  903MOL0     H21896   4.876   0.845   9.345 -1.3795 -0.2945 -1.9057
  903MOL0     H21897   5.008   0.662   9.313  2.1329  0.3106 -1.8766
  903MOL0     H21898   5.044   0.703   9.148 -1.7654  1.7595 -1.8450
  903MOL0     H21899   4.824   0.676   9.081 -0.0760 -0.1814 -0.8478
  903MOL0     H21900   4.863   0.530   9.174 -0.2443  0.1474 -1.4265
  903MOL0     H21901   4.523   0.654   9.386 -0.2995  2.5012 -0.5492
  903MOL0     H21902   5.267   0.695   9.492  0.7828  0.1822 -0.2645
  903MOL0     H21903   5.458   0.564   9.549  0.8205 -1.0699 -1.9078
  903MOL0     H21904   5.582   0.591   9.431 -2.2450 -0.8129 -2.1536
  903MOL0     H21905   5.597   0.678   9.592  1.0472  1.0105 -1.4102
  904MOL0     O21906  10.200  10.078   1.770  0.4226  0.0574  0.3216
  904MOL0     C21907  10.120  10.157   1.827  0.3411  0.4395  1.0099
  904MOL0     O21908  10.136  10.288   1.848 -0.2240  0.4928  0.4150
  904MOL0     C21909  10.255  10.347   1.800  0.2936 -0.4004 -0.4914
  904MOL0     C21910  10.275  10.431   1.692 -0.6394 -1.2876  0.2287
  904MOL0     C21911  10.400  10.486   1.667 -0.3504 -0.3497  0.2270
  904MOL0     C21912  10.504  10.460   1.756 -0.8802 -0.4168  0.9140
  904MOL0     O21913  10.629  10.504   1.721  0.6223 -0.3045  0.5428
  904MOL0     C21914  10.668  10.638   1.756  0.0308  0.1946  0.6396
  904MOL0     C21915  10.618  10.749   1.664  0.7050 -0.5922  0.2733
  904MOL0     C21916  10.696  10.881   1.687  0.7660 -0.0378  0.1022
  904MOL0     C21917  10.823  10.899   1.605  0.3613  0.4408 -0.7521
  904MOL0     C21918  10.899  11.029   1.639 -0.2643  0.0595  0.3206
  904MOL0     C21919  11.006  11.045   1.536 -0.5709 -0.4620  0.6116
  904MOL0     C21920  11.121  11.137   1.575  0.1660  1.0146  0.0673
  904MOL0     C21921  11.237  11.053   1.627  0.4496 -0.9320  0.6988
  904MOL0     N21922  11.332  11.134   1.698 -0.6386  0.0940 -0.3694
  904MOL0     C21923  11.417  11.226   1.645 -0.0774  0.4790  0.6271
  904MOL0     C21924  11.510  11.242   1.746  0.1326  0.4341 -0.4268
  904MOL0     C21925  11.624  11.336   1.736  0.0856  0.7942 -0.5321
  904MOL0     C21926  11.669  11.394   1.866  0.2936 -0.5866 -0.0795
  904MOL0     C21927  11.796  11.479   1.846  0.6008  0.2750  0.8449
  904MOL0     C21928  11.843  11.545   1.975 -0.7784  0.3068 -0.2011
  904MOL0     O21929  11.940  11.659   1.948 -0.1074  0.4122 -0.9707
  904MOL0     C21930  12.077  11.630   1.951 -0.6871  0.2350 -1.3393
  904MOL0     C21931  12.151  11.745   1.955 -0.9090 -0.6137 -0.5972
  904MOL0     C21932  12.287  11.738   1.975 -0.3737  0.0512 -0.4582
  904MOL0     C21933  12.347  11.611   1.984  0.4770 -0.2125  0.2260
  904MOL0     C21934  12.497  11.605   1.985 -0.8679  1.1880 -0.2586
  904MOL0     O21935  12.559  11.716   2.037  0.6745 -0.0715 -0.5507
  904MOL0     C21936  12.686  11.734   2.085  1.0769 -0.0230  0.4957
  904MOL0     C21937  12.705  11.823   2.189  0.5117 -0.6329  0.1451
  904MOL0     C21938  12.834  11.847   2.229 -0.4968 -0.2794  0.6142
  904MOL0     C21939  12.950  11.785   2.173  0.8135 -1.2097  0.2399
  904MOL0     O21940  13.065  11.831   2.234 -0.2554 -0.3106  0.5474
  904MOL0     C21941  13.186  11.771   2.207 -0.3225 -0.1148 -0.3619
  904MOL0     C21942  13.285  11.793   2.323 -0.3926 -0.7158  0.0039
  904MOL0     C21943  13.335  11.936   2.337  1.0530 -0.2643  0.2337
  904MOL0     C21944  13.380  11.957   2.476 -0.8280  0.5086 -0.0990
  904MOL0     C21945  13.526  11.899   2.496 -0.9855  0.2897 -0.3025
  904MOL0     C21946  13.588  11.986   2.609  0.9518 -0.0989 -0.2002
  904MOL0     C21947  13.726  11.945   2.645  0.3213  0.9098  0.2609
  904MOL0     C21948  13.785  12.044   2.750  0.3441  0.6155  0.2546
  904MOL0    Cl21949  13.916  11.960   2.845 -0.2747  0.0576  0.0241
  904MOL0     C21950  12.925  11.686   2.082 -0.0530  0.1914 -0.6495
  904MOL0     C21951  12.796  11.670   2.028  0.5457  0.8328 -0.9546
  904MOL0     O21952  12.554  11.497   1.958  0.1155 -1.0392 -0.6027
  904MOL0     C21953  12.278  11.494   1.972 -0.0061 -0.1110 -0.5907
  904MOL0     C21954  12.140  11.507   1.957  0.0858  0.3162 -0.3618
  904MOL0     N21955  11.479  11.172   1.862  0.7463  0.5107 -0.1238
  904MOL0     N21956  11.373  11.101   1.829  0.2919  0.6919 -0.4947
  904MOL0     C21957  10.481  10.393   1.871  0.6042  0.0789 -0.7987
  904MOL0     C21958  10.362  10.328   1.894 -0.1348  0.1382  0.6091
  904MOL0     C21959   9.989  10.099   1.874  0.3898  0.3243  0.1447
  904MOL0     C21960   9.899  10.187   1.932 -0.4522 -0.7580  0.2676
  904MOL0     C21961   9.776  10.145   1.988  0.0153  0.2165  0.4531
  904MOL0     C21962   9.738  10.011   1.990  0.3377 -0.1695 -0.8029
  904MOL0     O21963   9.620   9.978   2.052  0.7154 -0.5439 -0.2257
  904MOL0     C21964   9.565   9.852   2.015  0.0258  0.9400 -0.3332
  904MOL0     C21965   9.422   9.847   2.078  0.0559  1.0531  0.3855
  904MOL0     C21966   9.364   9.711   2.049  0.2949 -0.1000  0.3097
  904MOL0     C21967   9.322   9.659   2.183  0.3562 -0.1644  0.8831
  904MOL0     C21968   9.438   9.614   2.256 -0.4878  0.2115 -0.0988
  904MOL0     C21969   9.545   9.586   2.299 -0.0599  0.6253  0.1504
  904MOL0     C21970   9.823   9.919   1.934  0.8275 -0.6916  0.2374
  904MOL0     C21971   9.955   9.961   1.880  0.6064  0.0418  0.7502
  904MOL0     C21972  10.029   9.847   1.833  0.6491  0.5357  0.1864
  904MOL0     H21973  10.197  10.452   1.620 -2.0044 -3.7769  0.8413
  904MOL0     H21974  10.425  10.535   1.574  0.6345 -0.7915  0.2449
  904MOL0     H21975  10.636  10.646   1.861 -1.4818 -3.4045  0.6127
  904MOL0     H21976  10.777  10.633   1.745 -0.1762  0.9097 -2.4530
  904MOL0     H21977  10.514  10.772   1.690  0.4350  1.4565 -2.1911
  904MOL0     H21978  10.626  10.721   1.559  1.1108  1.7011 -0.3602
  904MOL0     H21979  10.704  10.889   1.795 -0.8962 -1.0123  0.3352
  904MOL0     H21980  10.630  10.963   1.656 -3.3385 -3.0908 -0.0207
  904MOL0     H21981  10.886  10.812   1.627  0.4604  0.5474 -0.6124
  904MOL0     H21982  10.787  10.897   1.502 -2.0294 -1.9509  0.0041
  904MOL0     H21983  10.826  11.110   1.634 -0.0604  0.1589 -1.5802
  904MOL0     H21984  10.933  11.008   1.741  1.6539 -1.2574 -0.5413
  904MOL0     H21985  11.035  10.950   1.490 -1.7810 -0.4369 -0.2486
  904MOL0     H21986  10.960  11.095   1.450  2.3628  0.8377 -0.3566
  904MOL0     H21987  11.096  11.208   1.654  1.3590 -1.5563  2.9327
  904MOL0     H21988  11.146  11.193   1.484 -0.2949 -0.2574 -0.8657
  904MOL0     H21989  11.194  10.976   1.692  0.4195 -1.8915 -0.4261
  904MOL0     H21990  11.282  11.000   1.543  0.8882  0.8570 -0.2559
  904MOL0     H21991  11.436  11.260   1.544  2.6014 -2.1188  0.1185
  904MOL0     H21992  11.698  11.289   1.671 -1.1448 -0.8141 -0.8380
  904MOL0     H21993  11.594  11.425   1.681  0.9882  1.7228  0.4119
  904MOL0     H21994  11.587  11.456   1.904 -0.7651 -2.2765  0.5067
  904MOL0     H21995  11.700  11.322   1.943  0.7486  0.2738  0.5548
  904MOL0     H21996  11.773  11.558   1.774  2.1452 -1.4966 -1.7462
  904MOL0     H21997  11.874  11.417   1.802  0.0051  1.4665 -2.1822
  904MOL0     H21998  11.880  11.471   2.047 -0.0042  2.2110  1.4751
  904MOL0     H21999  11.756  11.589   2.025 -0.2893  0.7823  0.2488
  904MOL0     H22000  12.094  11.836   1.945 -0.3617 -0.0904  0.7061
  904MOL0     H22001  12.344  11.830   1.982  0.4182 -0.3577 -1.3926
  904MOL0     H22002  12.623  11.867   2.244 -0.2693  1.4745 -2.5115
  904MOL0     H22003  12.860  11.918   2.307 -0.4539 -1.9797  2.2148
  904MOL0     H22004  13.172  11.663   2.201  0.7474 -0.2668 -0.3971
  904MOL0     H22005  13.231  11.817   2.119  1.0759  1.1190  0.9142
  904MOL0     H22006  13.246  11.755   2.418  0.6462  1.4421  1.3662
  904MOL0     H22007  13.380  11.745   2.299  0.9251  1.3742  0.7747
  904MOL0     H22008  13.420  11.953   2.271  1.6070 -0.3837  0.9041
  904MOL0     H22009  13.259  12.010   2.311  1.3813 -0.6082 -1.8044
  904MOL0     H22010  13.315  11.907   2.549 -0.7585 -0.9887 -1.0211
  904MOL0     H22011  13.386  12.064   2.494 -0.5548  0.6550 -1.0405
  904MOL0     H22012  13.589  11.916   2.407 -0.1911 -1.9201 -0.2132
  904MOL0     H22013  13.529  11.794   2.526  0.0009  0.4108  0.0714
  904MOL0     H22014  13.584  12.092   2.579  1.4427  0.5628  1.9108
  904MOL0     H22015  13.522  11.976   2.696  0.1237  2.0921 -0.5012
  904MOL0     H22016  13.784  11.951   2.552  0.2501  1.1588  0.2330
  904MOL0     H22017  13.726  11.839   2.671 -0.8698  0.6535 -0.6902
  904MOL0     H22018  13.828  12.131   2.699  2.6763  0.6529  2.1329
  904MOL0     H22019  13.708  12.075   2.822 -2.0783  2.0310 -2.7212
  904MOL0     H22020  13.010  11.633   2.040  1.1421  2.5660 -1.3683
  904MOL0     H22021  12.775  11.600   1.947  0.6170 -1.9694  1.2830
  904MOL0     H22022  12.342  11.407   1.964  0.5826  0.3531 -1.0105
  904MOL0     H22023  12.081  11.418   1.934  0.7245 -0.3486  0.5427
  904MOL0     H22024  10.549  10.379   1.955 -2.5592  2.0701  2.3990
  904MOL0     H22025  10.343  10.270   1.984  0.4355 -0.8870  0.0970
  904MOL0     H22026   9.924  10.293   1.928 -0.2265 -0.7585  1.3176
  904MOL0     H22027   9.704  10.221   2.015  1.7481  2.5686 -1.1479
  904MOL0     H22028   9.625   9.773   2.061 -0.6892  0.3045 -0.4671
  904MOL0     H22029   9.557   9.840   1.907  2.6539  2.0113 -0.7185
  904MOL0     H22030   9.355   9.921   2.032  0.0733  1.3457  0.8297
  904MOL0     H22031   9.440   9.865   2.184 -1.4252 -3.7596  1.6847
  904MOL0     H22032   9.444   9.647   2.010  0.6407 -0.5412  1.6806
  904MOL0     H22033   9.275   9.719   1.986  0.1332  1.7338  0.7034
  904MOL0     H22034   9.266   9.739   2.233 -0.1345 -0.4561  0.8107
  904MOL0     H22035   9.249   9.578   2.181 -0.4122  0.4314  2.5613
  904MOL0     H22036   9.650   9.575   2.321  0.2559  2.6870 -0.1002
  904MOL0     H22037   9.785   9.818   1.929  0.1474 -0.5043  1.2620
  904MOL0     H22038  10.027   9.845   1.724  2.0280 -0.4685  0.1554
  904MOL0     H22039  10.133   9.863   1.861  0.6012 -0.1179  0.7920
  904MOL0     H22040   9.996   9.749   1.869  1.0671  0.7375  1.1433
  905MOL0     O22041   7.380   9.815   4.104  0.4505 -0.4799 -0.4439
  905MOL0     C22042   7.392   9.939   4.128 -0.1456  0.6918 -0.8505
  905MOL0     O22043   7.512  10.002   4.158 -0.4611 -0.3112  0.0637
  905MOL0     C22044   7.624   9.931   4.141  0.6426 -0.4660  0.0567
  905MOL0     C22045   7.724   9.946   4.236 -0.1279 -0.5822 -0.2825
  905MOL0     C22046   7.845   9.877   4.238 -0.3609  1.3972 -0.2612
  905MOL0     C22047   7.871   9.797   4.126 -0.9544 -1.0431  0.1458
  905MOL0     O22048   7.982   9.721   4.123  0.3947  0.2787  0.2932
  905MOL0     C22049   8.040   9.677   4.252 -1.0289  0.7095  0.1531
  905MOL0     C22050   8.130   9.571   4.219 -0.0727  0.6438 -0.0448
  905MOL0     C22051   8.255   9.637   4.169 -1.2512  0.1138  0.3093
  905MOL0     C22052   8.365   9.533   4.138  0.2679  0.0553  0.6017
  905MOL0     C22053   8.495   9.594   4.065  0.0804 -0.4929  0.7576
  905MOL0     C22054   8.587   9.478   4.017  0.5541 -0.5128  0.3301
  905MOL0     C22055   8.710   9.519   3.938 -0.0791 -0.4144  0.5664
  905MOL0     C22056   8.685   9.565   3.796  0.0697  0.4544 -0.4669
  905MOL0     N22057   8.780   9.669   3.758 -0.7270  0.2543  0.7564
  905MOL0     C22058   8.922   9.656   3.771 -0.6672  0.1369 -0.5003
  905MOL0     C22059   8.966   9.783   3.768 -0.3547  0.8949  0.4828
  905MOL0     C22060   9.107   9.814   3.815  0.6525 -0.1767  0.1672
  905MOL0     C22061   9.147   9.747   3.945 -1.3150 -0.5676 -0.2145
  905MOL0     C22062   9.292   9.768   3.993 -0.4902  0.1451  0.8032
  905MOL0     C22063   9.332   9.919   4.024 -0.0618  0.1033 -1.0693
  905MOL0     O22064   9.447   9.926   4.112  0.5960  0.4613  0.1442
  905MOL0     C22065   9.569   9.913   4.061  0.1047  0.3988 -0.2004
  905MOL0     C22066   9.601   9.875   3.928  0.6639 -0.3938 -0.4465
  905MOL0     C22067   9.727   9.878   3.880  0.8129 -0.3011 -0.1125
  905MOL0     C22068   9.834   9.909   3.963  0.1140  0.5183 -0.4811
  905MOL0     C22069   9.969   9.901   3.911  0.3979  0.4274 -0.2200
  905MOL0     O22070  10.062   9.967   3.985  0.3654  0.3987 -0.0244
  905MOL0     C22071  10.192   9.982   3.932 -0.6610  0.7432 -0.5991
  905MOL0     C22072  10.286   9.903   3.988  0.3985 -0.6881  0.2343
  905MOL0     C22073  10.414   9.923   3.971 -0.2115  0.4932 -0.6337
  905MOL0     C22074  10.464  10.027   3.887  0.3416 -0.1418 -0.1925
  905MOL0     O22075  10.599  10.049   3.888 -1.1172  0.0626  0.0373
  905MOL0     C22076  10.656  10.063   3.755 -0.3826  0.0993  0.0381
  905MOL0     C22077  10.812  10.086   3.768  0.7015  0.4719  0.5153
  905MOL0     C22078  10.858  10.218   3.828 -0.2277 -0.5724  0.1800
  905MOL0     C22079  10.995  10.199   3.901 -0.1400 -0.6996 -0.4707
  905MOL0     C22080  11.039  10.335   3.958  0.4243 -0.6883  0.5269
  905MOL0     C22081  11.168  10.319   4.044  0.3339  1.0118 -0.2848
  905MOL0     C22082  11.232  10.455   4.076  0.2111  0.0115 -0.1732
  905MOL0     C22083  11.292  10.528   3.956 -0.3217 -0.7425 -0.3592
  905MOL0    Cl22084  11.364  10.689   4.012 -0.3617 -0.1346  0.0352
  905MOL0     C22085  10.372  10.109   3.824 -0.2572  0.7072 -0.0759
  905MOL0     C22086  10.234  10.090   3.845  1.0393  0.2723 -0.4213
  905MOL0     O22087   9.997   9.840   3.812 -0.0570  0.8629 -0.3659
  905MOL0     C22088   9.800   9.972   4.087 -0.1754  0.0850  0.0204
  905MOL0     C22089   9.670   9.972   4.136 -0.7101  0.7842  0.0106
  905MOL0     N22090   8.859   9.870   3.751  0.3553  0.3427 -0.4519
  905MOL0     N22091   8.750   9.800   3.753  0.3167 -0.4349  0.2099
  905MOL0     C22092   7.781   9.792   4.019 -0.4143 -0.9520  1.0345
  905MOL0     C22093   7.661   9.865   4.025  0.2068 -1.0899  0.0891
  905MOL0     C22094   7.270  10.026   4.145  0.3668 -0.3721  0.5620
  905MOL0     C22095   7.281  10.147   4.223  0.5385  0.0607 -0.6120
  905MOL0     C22096   7.176  10.238   4.231 -1.2211  0.2761 -0.0778
  905MOL0     C22097   7.058  10.216   4.172  0.6470  0.6304  0.1327
  905MOL0     O22098   6.970  10.322   4.156 -0.2103  0.5330 -0.1873
  905MOL0     C22099   6.887  10.359   4.267  1.1611  0.3607 -0.1163
  905MOL0     C22100   6.743  10.411   4.230  0.0448 -0.3445 -0.2821
  905MOL0     C22101   6.774  10.529   4.131 -0.3019 -0.3269  0.5123
  905MOL0     C22102   6.649  10.573   4.062  0.3679 -0.3531 -0.3418
  905MOL0     C22103   6.671  10.695   3.988  0.0557 -0.0216 -0.2003
  905MOL0     C22104   6.692  10.801   3.933  0.5055  0.6422  0.2319
  905MOL0     C22105   7.034  10.089   4.106  0.6888  0.1902  0.4929
  905MOL0     C22106   7.144   9.999   4.081  0.3520  0.1195  0.4059
  905MOL0     C22107   7.121   9.882   3.984 -0.6466 -0.4440 -0.0567
  905MOL0     H22108   7.693  10.012   4.316  0.9634  1.7659 -1.7018
  905MOL0     H22109   7.915   9.897   4.318 -0.1210 -3.0483  0.9052
  905MOL0     H22110   8.092   9.760   4.300  2.4251 -1.2911  0.1839
  905MOL0     H22111   7.966   9.635   4.321 -2.8642 -1.0910 -2.7189
  905MOL0     H22112   8.086   9.505   4.143  1.8907 -0.9710  0.1203
  905MOL0     H22113   8.142   9.520   4.315  0.3880  2.1590  0.7341
  905MOL0     H22114   8.292   9.702   4.249  0.9405  0.1453 -0.6745
  905MOL0     H22115   8.231   9.690   4.077 -1.8838 -1.6094 -0.5509
  905MOL0     H22116   8.403   9.493   4.232 -0.8221 -1.8907  0.2537
  905MOL0     H22117   8.326   9.448   4.082  2.8875 -2.7719  2.7069
  905MOL0     H22118   8.458   9.659   3.985 -1.2143 -1.3088  0.6547
  905MOL0     H22119   8.546   9.652   4.143  0.7266 -2.9271  2.2485
  905MOL0     H22120   8.615   9.425   4.108  0.5668  3.0602  2.6383
  905MOL0     H22121   8.519   9.425   3.950  1.0074  0.1952 -0.7189
  905MOL0     H22122   8.776   9.432   3.933  0.9773  0.2827  1.8488
  905MOL0     H22123   8.763   9.601   3.988  1.3080 -0.4110 -0.8072
  905MOL0     H22124   8.690   9.476   3.733 -0.9904 -2.5198  3.2946
  905MOL0     H22125   8.584   9.606   3.796 -0.4422 -0.6981  1.2887
  905MOL0     H22126   8.986   9.569   3.784 -1.7576 -0.7145 -0.7564
  905MOL0     H22127   9.178   9.788   3.736 -1.4396  0.8466 -2.1813
  905MOL0     H22128   9.105   9.923   3.827 -3.1210 -0.1911  0.7328
  905MOL0     H22129   9.076   9.772   4.024  1.1093  1.1464  1.5479
  905MOL0     H22130   9.131   9.640   3.929  1.3646 -1.3400  1.7763
  905MOL0     H22131   9.356   9.722   3.917  3.5541 -0.3011  4.0991
  905MOL0     H22132   9.313   9.711   4.084  1.1314 -0.4124  0.1196
  905MOL0     H22133   9.247   9.967   4.074  0.4798  0.8847 -0.8806
  905MOL0     H22134   9.352   9.987   3.940  0.9009  3.4090  1.6384
  905MOL0     H22135   9.526   9.834   3.861 -2.8926  2.1552  1.6641
  905MOL0     H22136   9.736   9.846   3.777 -1.3644 -0.5332 -0.2735
  905MOL0     H22137  10.246   9.814   4.035  1.0739 -1.3221 -0.3574
  905MOL0     H22138  10.481   9.854   4.023 -2.5233 -0.0213  1.8574
  905MOL0     H22139  10.628   9.976   3.696 -1.0038  0.3695 -0.0754
  905MOL0     H22140  10.623  10.152   3.700  1.2821  0.3545 -0.5973
  905MOL0     H22141  10.847  10.011   3.840  0.1043  0.1509  0.4791
  905MOL0     H22142  10.861  10.075   3.670 -0.0129 -1.8828  0.3441
  905MOL0     H22143  10.865  10.296   3.752  0.4080 -0.8069 -0.0092
  905MOL0     H22144  10.785  10.252   3.902  0.1706 -1.4106  0.9851
  905MOL0     H22145  11.075  10.165   3.835 -0.4296  0.1637 -1.2943
  905MOL0     H22146  10.977  10.127   3.982  1.3138 -2.0271 -1.2873
  905MOL0     H22147  10.957  10.379   4.014  1.9888  2.2205  0.6999
  905MOL0     H22148  11.066  10.394   3.870 -0.9900  1.5409  1.5243
  905MOL0     H22149  11.147  10.264   4.136  1.8692  0.4601 -0.2269
  905MOL0     H22150  11.232  10.255   3.983 -1.6108  0.0987 -1.4404
  905MOL0     H22151  11.314  10.436   4.146  0.3296 -1.7241 -0.7331
  905MOL0     H22152  11.160  10.517   4.129  0.8317 -0.8355  1.7242
  905MOL0     H22153  11.379  10.475   3.916 -1.2143 -1.6328 -1.1765
  905MOL0     H22154  11.222  10.556   3.877 -1.0863  1.1237  0.9080
  905MOL0     H22155  10.400  10.192   3.760  0.6552  0.8950  0.5466
  905MOL0     H22156  10.165  10.164   3.805 -0.1094 -0.2925  0.4766
  905MOL0     H22157   9.879  10.007   4.152 -1.1852  2.2370  0.1535
  905MOL0     H22158   9.637  10.019   4.228 -0.7697  2.1888 -0.7066
  905MOL0     H22159   7.799   9.725   3.936  0.0161  0.3372  0.0741
  905MOL0     H22160   7.586   9.861   3.946 -1.1269 -0.2810  1.2663
  905MOL0     H22161   7.373  10.174   4.275 -0.0532 -2.2552  1.9155
  905MOL0     H22162   7.186  10.336   4.274  0.1466  0.2374 -0.2780
  905MOL0     H22163   6.941  10.430   4.330  0.5029  0.9330 -0.1950
  905MOL0     H22164   6.870  10.278   4.339 -0.1237  1.2280  0.5901
  905MOL0     H22165   6.685  10.431   4.320 -0.4434  2.8771 -1.1722
  905MOL0     H22166   6.694  10.329   4.176  1.9307 -1.5585 -0.2185
  905MOL0     H22167   6.832  10.496   4.044  1.0474  0.4260  1.1049
  905MOL0     H22168   6.825  10.616   4.172  0.7905 -1.0673  0.7557
  905MOL0     H22169   6.602  10.493   4.003 -1.0681 -0.1497  0.4767
  905MOL0     H22170   6.569  10.596   4.133 -0.7797  0.0235 -1.6946
  905MOL0     H22171   6.709  10.887   3.871 -0.8565  0.4343 -0.4502
  905MOL0     H22172   6.941  10.065   4.056  1.5421 -4.6282  0.7034
  905MOL0     H22173   7.039   9.906   3.916  0.4380  0.0989 -1.2110
  905MOL0     H22174   7.209   9.856   3.926 -0.9125 -0.4060 -0.4806
  905MOL0     H22175   7.107   9.795   4.049  0.9258  0.1349  1.1340
  906MOL0     O22176  10.739   3.543   8.494 -0.2786  0.0816 -0.5814
  906MOL0     C22177  10.646   3.510   8.570 -0.2451 -0.7456 -0.3483
  906MOL0     O22178  10.666   3.440   8.683 -0.4563 -0.1658 -0.5171
  906MOL0     C22179  10.791   3.409   8.717  0.7320 -0.0270  0.2348
  906MOL0     C22180  10.871   3.489   8.801 -0.3760  0.4562  0.5504
  906MOL0     C22181  11.007   3.453   8.817 -1.4066  0.6373 -0.0157
  906MOL0     C22182  11.063   3.344   8.761 -0.9300  0.7719  0.7629
  906MOL0     O22183  11.199   3.310   8.761 -0.3857 -0.6727 -0.1501
  906MOL0     C22184  11.299   3.402   8.796  0.0693 -0.1201 -1.4544
  906MOL0     C22185  11.437   3.355   8.755 -0.8544 -0.7534  0.5050
  906MOL0     C22186  11.531   3.477   8.739 -0.4122 -0.5219  0.3266
  906MOL0     C22187  11.676   3.422   8.702  0.1839  0.9765 -0.1597
  906MOL0     C22188  11.763   3.528   8.653  0.1828 -1.0997 -0.5210
  906MOL0     C22189  11.914   3.483   8.659 -0.4041 -0.2350 -0.8001
  906MOL0     C22190  11.983   3.530   8.789  0.6808 -0.6544  0.4636
  906MOL0     C22191  12.141   3.512   8.783  0.5391  0.2973 -0.6632
  906MOL0     N22192  12.224   3.563   8.894 -0.4268  1.2956  0.4921
  906MOL0     C22193  12.324   3.488   8.957 -0.3161  0.4122  0.4125
  906MOL0     C22194  12.423   3.581   8.989  0.3815 -0.3318 -0.9234
  906MOL0     C22195  12.558   3.550   9.050 -0.1292  0.4111 -0.1357
  906MOL0     C22196  12.574   3.626   9.186 -0.2779  0.1214 -0.3188
  906MOL0     C22197  12.691   3.563   9.262 -0.0389  0.0321 -1.2692
  906MOL0     C22198  12.825   3.585   9.194  1.1636  0.6754 -0.3585
  906MOL0     O22199  12.928   3.539   9.281 -0.1272  1.1413 -0.3129
  906MOL0     C22200  13.056   3.560   9.236 -0.2672 -0.0429 -0.3243
  906MOL0     C22201  13.163   3.487   9.296  0.4800  0.2306 -0.3534
  906MOL0     C22202  13.294   3.501   9.265  0.2781  0.2942 -0.1431
  906MOL0     C22203  13.337   3.601   9.173 -0.9883 -0.2688 -0.6160
  906MOL0     C22204  13.479   3.617   9.141 -0.3994  0.2728  0.3156
  906MOL0     O22205  13.518   3.741   9.086  0.7789  0.1863  0.0560
  906MOL0     C22206  13.639   3.771   9.034 -1.2559  0.3700  0.2197
  906MOL0     C22207  13.768   3.709   9.068 -0.7819  0.6681 -0.5524
  906MOL0     C22208  13.883   3.740   8.993  0.2070 -0.4480  0.3491
  906MOL0     C22209  13.885   3.849   8.901 -0.0556  0.3315 -0.4540
  906MOL0     O22210  14.000   3.890   8.839 -0.3471  0.3848  0.3836
  906MOL0     C22211  13.989   3.959   8.716 -0.2583  0.7066 -0.3912
  906MOL0     C22212  13.934   3.869   8.605  0.3840  0.3903  0.5475
  906MOL0     C22213  14.003   3.736   8.575  0.3825  0.2175  0.5003
  906MOL0     C22214  14.135   3.748   8.491  0.6032 -0.0561 -0.4981
  906MOL0     C22215  14.219   3.620   8.466 -0.1138  0.4886 -0.0977
  906MOL0     C22216  14.310   3.628   8.347 -0.1868 -0.6692  0.6731
  906MOL0     C22217  14.362   3.503   8.284 -0.0155 -0.4616  0.5258
  906MOL0     C22218  14.434   3.527   8.149  0.6522 -0.2412  0.5125
  906MOL0    Cl22219  14.311   3.561   8.021 -0.1861 -0.3486  0.1536
  906MOL0     C22220  13.769   3.923   8.891  0.9357 -0.0598 -0.1999
  906MOL0     C22221  13.646   3.871   8.937  0.8661  0.4302 -1.4792
  906MOL0     O22222  13.556   3.522   9.174  0.0706 -0.2096 -1.1438
  906MOL0     C22223  13.239   3.677   9.104 -0.3019 -0.3289 -0.5285
  906MOL0     C22224  13.101   3.657   9.140 -0.5569  0.2422 -0.5221
  906MOL0     N22225  12.377   3.705   8.962  0.1538 -0.1875 -0.4374
  906MOL0     N22226  12.261   3.692   8.899 -0.1529  0.0393 -0.1742
  906MOL0     C22227  10.985   3.271   8.680 -0.3792  0.3201 -0.3152
  906MOL0     C22228  10.853   3.290   8.663  0.9191  0.2455  0.0236
  906MOL0     C22229  10.513   3.561   8.539  0.1603  0.3055  0.5650
  906MOL0     C22230  10.463   3.563   8.401 -0.0779 -0.2918  0.4418
  906MOL0     C22231  10.335   3.605   8.367  0.7083  0.1607 -0.2198
  906MOL0     C22232  10.244   3.650   8.466 -0.3238  0.0438  0.6272
  906MOL0     O22233  10.114   3.695   8.441 -0.4140 -0.2011  0.1693
  906MOL0     C22234  10.095   3.803   8.350 -0.1325 -0.8655  0.1156
  906MOL0     C22235  10.114   3.946   8.415  0.6362 -0.4912  0.0932
  906MOL0     C22236  10.067   3.956   8.560 -0.1751 -0.5463  0.1266
  906MOL0     C22237   9.911   3.975   8.574 -0.5164 -0.8079  0.2771
  906MOL0     C22238   9.844   3.854   8.543 -0.2313  0.0035 -0.3465
  906MOL0     C22239   9.767   3.766   8.514  0.3004  0.6966 -0.0297
  906MOL0     C22240  10.288   3.644   8.601 -0.0026 -0.1881 -0.1103
  906MOL0     C22241  10.415   3.599   8.634 -0.8588  0.5863 -0.1947
  906MOL0     C22242  10.437   3.590   8.787  0.0196 -0.2617  0.4383
  906MOL0     H22243  10.824   3.582   8.830  1.7795  2.2053 -1.2053
  906MOL0     H22244  11.068   3.529   8.864  0.6317 -1.0689  0.2309
  906MOL0     H22245  11.261   3.493   8.748 -2.0140  0.4966  1.1563
  906MOL0     H22246  11.305   3.428   8.902  1.8051 -0.6067 -1.3980
  906MOL0     H22247  11.432   3.307   8.657  1.0987  2.0875 -1.1417
  906MOL0     H22248  11.476   3.282   8.826  0.5427 -1.7674 -1.2353
  906MOL0     H22249  11.544   3.543   8.826  0.8696  0.8223 -0.8369
  906MOL0     H22250  11.495   3.533   8.653 -0.3439  0.0194  0.6441
  906MOL0     H22251  11.721   3.376   8.791 -2.2591  2.5934  2.0447
  906MOL0     H22252  11.662   3.348   8.623 -2.7901  1.5508 -0.2809
  906MOL0     H22253  11.726   3.550   8.553 -0.7894  1.5841  0.3305
  906MOL0     H22254  11.757   3.619   8.714 -0.4336 -1.7017  0.3383
  906MOL0     H22255  11.917   3.374   8.650 -0.4147 -0.2884 -0.1769
  906MOL0     H22256  11.966   3.528   8.573  1.2175 -2.5913 -1.1670
  906MOL0     H22257  11.946   3.478   8.877  1.0648 -2.7832 -0.5629
  906MOL0     H22258  11.967   3.636   8.807 -0.8297 -1.0193  1.4498
  906MOL0     H22259  12.146   3.403   8.796  0.5986  0.3048 -0.6208
  906MOL0     H22260  12.184   3.538   8.686 -2.2086  0.2951 -1.9794
  906MOL0     H22261  12.317   3.380   8.965 -0.0193  0.3819  0.2765
  906MOL0     H22262  12.563   3.442   9.068  0.2528  0.1419 -1.6523
  906MOL0     H22263  12.633   3.586   8.979 -1.4192  4.6392  0.3549
  906MOL0     H22264  12.599   3.732   9.175 -2.0079  0.5757 -0.1879
  906MOL0     H22265  12.483   3.627   9.246  1.1091 -0.2587  1.9374
  906MOL0     H22266  12.664   3.458   9.273 -0.7210  0.1709 -1.5969
  906MOL0     H22267  12.680   3.618   9.356 -2.0836  1.4841 -2.2718
  906MOL0     H22268  12.829   3.694   9.190 -0.4707  0.7897  0.3876
  906MOL0     H22269  12.835   3.542   9.094  0.2191  1.6268 -0.8724
  906MOL0     H22270  13.132   3.413   9.369 -0.6331  1.9916  1.0473
  906MOL0     H22271  13.360   3.423   9.301 -1.2150 -0.6641  0.5753
  906MOL0     H22272  13.769   3.618   9.129 -1.5286 -0.6628 -2.4350
  906MOL0     H22273  13.981   3.701   9.016  0.7528  1.1778  0.8875
  906MOL0     H22274  13.938   4.053   8.739 -0.2324  1.4631 -3.0980
  906MOL0     H22275  14.087   3.997   8.684  1.3871 -1.8938  1.1560
  906MOL0     H22276  13.833   3.835   8.630 -0.7967  1.4451 -2.3485
  906MOL0     H22277  13.930   3.935   8.518 -1.4939  0.7165  0.8216
  906MOL0     H22278  14.028   3.682   8.668  0.5108  1.9618  1.5208
  906MOL0     H22279  13.935   3.672   8.518 -2.2340  2.9016  0.4023
  906MOL0     H22280  14.196   3.817   8.549 -0.6026  0.4079  0.2592
  906MOL0     H22281  14.108   3.805   8.401  3.0122  0.7094 -0.8015
  906MOL0     H22282  14.151   3.535   8.457  3.6210 -2.5818 -2.5245
  906MOL0     H22283  14.282   3.609   8.554 -0.6036 -0.9488  0.1027
  906MOL0     H22284  14.257   3.687   8.272  0.3029  1.7776  2.1459
  906MOL0     H22285  14.395   3.685   8.386 -1.0356 -1.4408  3.9358
  906MOL0     H22286  14.279   3.435   8.262  1.4286 -2.5224  1.1426
  906MOL0     H22287  14.434   3.449   8.346  1.3654 -0.0789 -0.6896
  906MOL0     H22288  14.501   3.613   8.143 -0.9009  0.9422 -1.3168
  906MOL0     H22289  14.498   3.442   8.127  0.6504 -0.5394  1.5954
  906MOL0     H22290  13.766   4.011   8.828 -3.2928  0.8342  0.8642
  906MOL0     H22291  13.550   3.902   8.897 -0.1516  0.3952  0.7661
  906MOL0     H22292  13.270   3.755   9.035  1.0458 -1.3639 -1.1514
  906MOL0     H22293  13.031   3.719   9.084 -0.5819 -0.3863 -1.1967
  906MOL0     H22294  11.032   3.187   8.629  1.0292 -0.9446  2.8426
  906MOL0     H22295  10.796   3.233   8.590 -1.6662  1.6203  0.8311
  906MOL0     H22296  10.537   3.524   8.331  0.7895 -0.5544  1.4698
  906MOL0     H22297  10.313   3.617   8.261  1.2867  0.2851 -0.3279
  906MOL0     H22298   9.994   3.798   8.308  0.6328 -1.0419 -1.7808
  906MOL0     H22299  10.159   3.803   8.262 -0.5643  2.8608 -0.3816
  906MOL0     H22300  10.041   4.004   8.357 -0.6036 -1.5999  0.4926
  906MOL0     H22301  10.215   3.985   8.398  0.8531  0.5961  3.2475
  906MOL0     H22302  10.112   4.047   8.602 -1.7659  0.1527  0.3922
  906MOL0     H22303  10.105   3.878   8.626  0.8292  0.2864  0.5698
  906MOL0     H22304   9.887   4.018   8.672  1.9229  1.1909  0.0898
  906MOL0     H22305   9.881   4.040   8.492 -0.4845  0.8189  1.5080
  906MOL0     H22306   9.697   3.696   8.473 -0.0524  0.4958  0.9079
  906MOL0     H22307  10.219   3.689   8.672 -3.2086  0.8277 -3.4983
  906MOL0     H22308  10.349   3.613   8.848  0.1897 -1.7789  1.3033
  906MOL0     H22309  10.490   3.501   8.822  1.5153  1.1945  2.1505
  906MOL0     H22310  10.504   3.676   8.801 -0.1051  0.1165 -1.1226
  907MOL0     O22311   1.095   6.307   7.336  0.5838 -0.3388  0.1549
  907MOL0     C22312   1.039   6.266   7.439 -0.2925  0.5293  0.4710
  907MOL0     O22313   1.102   6.199   7.549 -0.3715  0.4359 -0.1800
  907MOL0     C22314   1.232   6.158   7.533  0.1088 -0.9851  0.0678
  907MOL0     C22315   1.336   6.246   7.513 -0.1857 -0.2875  0.7783
  907MOL0     C22316   1.470   6.208   7.500 -0.2731 -0.7430  0.0302
  907MOL0     C22317   1.508   6.075   7.527  0.1753  0.0860  0.4534
  907MOL0     O22318   1.640   6.041   7.519  0.2345  0.0667 -0.0350
  907MOL0     C22319   1.686   5.909   7.546  0.1401 -1.0266  0.2614
  907MOL0     C22320   1.830   5.894   7.577 -0.2690  0.0008  0.2696
  907MOL0     C22321   1.866   5.966   7.713 -0.2186  0.2627 -0.3911
  907MOL0     C22322   2.017   5.962   7.730 -0.2036 -0.2639 -0.4852
  907MOL0     C22323   2.049   5.982   7.880 -0.7372  0.8788 -0.2345
  907MOL0     C22324   2.178   5.902   7.912 -0.3945  0.3004  0.1723
  907MOL0     C22325   2.247   5.933   8.048  1.2089  0.3857 -0.6756
  907MOL0     C22326   2.380   5.876   8.079 -0.1991  0.1750 -0.3970
  907MOL0     N22327   2.486   5.910   7.982 -0.1689 -0.4887 -0.5180
  907MOL0     C22328   2.603   5.849   8.002 -0.0658  0.2088  0.3781
  907MOL0     C22329   2.694   5.923   7.937 -0.0429  0.0379 -1.0960
  907MOL0     C22330   2.837   5.878   7.938  0.1274 -0.9645  0.1832
  907MOL0     C22331   2.917   5.968   8.034  0.6776  0.6365 -0.1611
  907MOL0     C22332   3.069   5.937   8.028  0.2931  0.0665 -0.0527
  907MOL0     C22333   3.149   6.031   8.131  0.4006  1.9056 -0.4058
  907MOL0     O22334   3.181   6.154   8.076 -0.5442  1.3443 -0.0584
  907MOL0     C22335   3.276   6.232   8.137  0.9258 -0.0996 -0.4414
  907MOL0     C22336   3.337   6.320   8.048 -0.2390 -0.0722  0.3900
  907MOL0     C22337   3.458   6.384   8.092 -1.0455 -0.2786  0.0449
  907MOL0     C22338   3.500   6.374   8.230 -0.6938 -0.1984  0.3044
  907MOL0     C22339   3.625   6.442   8.276 -0.1352 -0.0434  0.8534
  907MOL0     O22340   3.708   6.485   8.177  0.4431 -0.6052  0.2613
  907MOL0     C22341   3.811   6.569   8.202  0.3651  0.5303  0.0396
  907MOL0     C22342   3.790   6.684   8.273 -0.1596 -0.4913  0.1570
  907MOL0     C22343   3.897   6.766   8.313  0.3221 -0.0644 -1.5210
  907MOL0     C22344   4.029   6.733   8.268  0.0609 -0.2977 -0.1228
  907MOL0     O22345   4.128   6.827   8.291 -0.4789 -0.0171  0.1968
  907MOL0     C22346   4.267   6.784   8.279  0.4496  0.5858  0.0889
  907MOL0     C22347   4.357   6.907   8.310 -0.1906  0.3256  0.4604
  907MOL0     C22348   4.345   6.951   8.461 -0.3526 -0.3562  0.2708
  907MOL0     C22349   4.437   6.863   8.559  0.0243 -0.3585  0.5888
  907MOL0     C22350   4.398   6.909   8.704  0.1823 -0.5010  0.9677
  907MOL0     C22351   4.480   6.825   8.807 -0.4771 -1.1300 -0.1550
  907MOL0     C22352   4.420   6.835   8.947  0.4393  0.6973 -0.1333
  907MOL0     C22353   4.493   6.752   9.058 -0.9648 -0.0329  0.4932
  907MOL0    Cl22354   4.426   6.584   9.036 -0.1457 -0.4184  0.3038
  907MOL0     C22355   4.045   6.623   8.192  1.5843  0.2741  0.9276
  907MOL0     C22356   3.936   6.541   8.157  0.4461 -0.8398 -0.0003
  907MOL0     O22357   3.636   6.462   8.395 -0.0666 -0.2890  0.0339
  907MOL0     C22358   3.425   6.296   8.317  0.5284 -0.0504  0.1755
  907MOL0     C22359   3.319   6.220   8.269 -0.0886 -1.1222 -0.2122
  907MOL0     N22360   2.635   6.040   7.899 -0.2712 -0.5465 -0.2802
  907MOL0     N22361   2.506   6.032   7.931 -0.7358  0.1739 -0.2643
  907MOL0     C22362   1.404   5.980   7.543  0.7873 -0.0682  0.6205
  907MOL0     C22363   1.267   6.020   7.544  0.2794 -0.0023  0.8103
  907MOL0     C22364   0.892   6.274   7.433 -0.0426 -0.8177  0.2024
  907MOL0     C22365   0.836   6.353   7.330  0.3772 -0.4475 -0.7402
  907MOL0     C22366   0.700   6.388   7.346  0.7572 -0.2443  0.5295
  907MOL0     C22367   0.615   6.333   7.439 -0.7401 -0.1746  0.4379
  907MOL0     O22368   0.487   6.378   7.427 -0.0592 -0.1150 -0.1404
  907MOL0     C22369   0.384   6.324   7.511  0.1132  0.4783  0.6306
  907MOL0     C22370   0.264   6.412   7.499 -0.3539  0.1112 -0.1369
  907MOL0     C22371   0.198   6.393   7.360  0.3702  0.2628 -0.2519
  907MOL0     C22372   0.057   6.441   7.371 -0.1783  0.6317 -0.6179
  907MOL0     C22373   0.007   6.457   7.233 -1.3282  0.1169 -0.0326
  907MOL0     C22374  -0.028   6.465   7.115 -0.7469 -0.2349  0.1803
  907MOL0     C22375   0.669   6.243   7.524  0.2017 -0.0877 -0.3755
  907MOL0     C22376   0.804   6.217   7.527  0.0227 -0.2849 -0.1388
  907MOL0     C22377   0.843   6.089   7.604  0.4876 -0.0680 -0.0705
  907MOL0     H22378   1.315   6.352   7.504 -0.8368 -0.4990 -0.3486
  907MOL0     H22379   1.542   6.286   7.477 -1.8948  0.6027 -0.6199
  907MOL0     H22380   1.622   5.866   7.623 -1.1344  1.1539  0.4892
  907MOL0     H22381   1.666   5.858   7.451 -2.0399  1.4377 -0.7219
  907MOL0     H22382   1.893   5.935   7.498 -2.1733  0.2122 -1.2155
  907MOL0     H22383   1.848   5.787   7.592 -4.3878 -0.7906  0.9970
  907MOL0     H22384   1.832   5.906   7.798  3.3264  0.8328  1.6047
  907MOL0     H22385   1.828   6.068   7.722  0.2381  0.3570  0.5402
  907MOL0     H22386   2.051   5.861   7.705 -1.9900 -1.0900  0.2460
  907MOL0     H22387   2.066   6.038   7.669  1.7621  0.3135  1.6852
  907MOL0     H22388   2.068   6.088   7.898 -0.7958  0.9537 -0.6027
  907MOL0     H22389   1.978   5.932   7.946  0.3860  1.2799  1.3188
  907MOL0     H22390   2.157   5.795   7.912 -0.5114  0.2523  3.2388
  907MOL0     H22391   2.257   5.907   7.835  2.0790 -0.1366  2.5274
  907MOL0     H22392   2.175   5.901   8.124 -0.8492 -1.5705 -3.2391
  907MOL0     H22393   2.255   6.042   8.051 -0.5642  0.5433  1.0851
  907MOL0     H22394   2.422   5.917   8.171  1.5621 -0.1594 -1.0050
  907MOL0     H22395   2.376   5.767   8.091 -3.3785  0.4344  2.2193
  907MOL0     H22396   2.617   5.751   8.047 -2.3054 -1.2074 -1.7682
  907MOL0     H22397   2.852   5.777   7.975  0.5466 -0.3603  1.7679
  907MOL0     H22398   2.870   5.882   7.834 -3.0826 -1.5837 -0.9861
  907MOL0     H22399   2.904   6.064   7.984  0.9795  0.4234 -0.6620
  907MOL0     H22400   2.881   5.979   8.136  3.3434  2.2054  0.7027
  907MOL0     H22401   3.103   5.957   7.926  1.7758 -2.4784 -0.1174
  907MOL0     H22402   3.089   5.833   8.055 -3.6101 -0.2466  2.4799
  907MOL0     H22403   3.241   5.976   8.153  0.8269  1.6343 -2.6098
  907MOL0     H22404   3.092   6.047   8.223 -2.0698  3.6388 -2.0956
  907MOL0     H22405   3.295   6.331   7.949 -1.9197  0.4153  1.1100
  907MOL0     H22406   3.515   6.445   8.022  1.9103 -1.5470  1.1925
  907MOL0     H22407   3.691   6.722   8.296 -0.2601  0.3624 -1.5541
  907MOL0     H22408   3.863   6.855   8.365 -2.2793 -0.3422 -2.6030
  907MOL0     H22409   4.292   6.696   8.339 -1.6227 -2.3334 -2.9999
  907MOL0     H22410   4.286   6.751   8.177  2.1177 -1.2944  0.9343
  907MOL0     H22411   4.459   6.876   8.285 -0.8255 -1.5694  0.0754
  907MOL0     H22412   4.336   6.991   8.243  1.3757  0.7865  0.4890
  907MOL0     H22413   4.388   7.052   8.468  0.1547 -0.5618  0.1554
  907MOL0     H22414   4.240   6.966   8.490 -0.3112  0.8233 -0.1180
  907MOL0     H22415   4.541   6.874   8.528 -0.5225 -1.1658 -1.8000
  907MOL0     H22416   4.403   6.759   8.561 -2.0927  0.2866  0.8565
  907MOL0     H22417   4.291   6.897   8.722 -0.6699  0.7742 -2.4214
  907MOL0     H22418   4.427   7.013   8.725  0.9101  0.2134 -2.8660
  907MOL0     H22419   4.481   6.717   8.788 -0.0521 -1.0267 -0.7589
  907MOL0     H22420   4.584   6.860   8.810 -0.1086 -2.0258  4.6502
  907MOL0     H22421   4.312   6.818   8.940  0.7180 -0.5020 -3.0935
  907MOL0     H22422   4.439   6.940   8.971 -2.4741  1.7336 -1.8626
  907MOL0     H22423   4.601   6.744   9.047 -1.1743 -1.8099 -0.6383
  907MOL0     H22424   4.457   6.788   9.155 -0.6092 -0.2860  0.7193
  907MOL0     H22425   4.138   6.611   8.138  0.8593  1.5522 -0.7012
  907MOL0     H22426   3.947   6.461   8.084 -2.7533 -1.4483  0.0288
  907MOL0     H22427   3.450   6.284   8.422  1.0862 -0.0750  0.0388
  907MOL0     H22428   3.257   6.166   8.340  0.1654 -1.0306  0.0826
  907MOL0     H22429   1.426   5.874   7.542  0.5488 -0.1456 -1.7836
  907MOL0     H22430   1.189   5.944   7.543 -1.1653  1.4394 -0.5314
  907MOL0     H22431   0.898   6.403   7.257 -0.5136  0.4351 -0.9269
  907MOL0     H22432   0.658   6.462   7.280 -1.3853 -2.3575 -0.6328
  907MOL0     H22433   0.420   6.327   7.614  1.2971  0.7722  0.2257
  907MOL0     H22434   0.364   6.219   7.487  2.3344  0.8884 -4.3370
  907MOL0     H22435   0.301   6.514   7.511  0.9353 -0.4990  1.5250
  907MOL0     H22436   0.192   6.389   7.578  0.3651 -2.8146 -0.1935
  907MOL0     H22437   0.199   6.286   7.335  0.1377  0.2334 -0.1445
  907MOL0     H22438   0.245   6.449   7.278 -0.9989 -1.1224 -2.0901
  907MOL0     H22439   0.005   6.369   7.434  1.6347 -0.5957 -0.4374
  907MOL0     H22440   0.048   6.540   7.416 -0.5327  0.4634 -0.3227
  907MOL0     H22441  -0.042   6.478   7.010 -0.8586 -0.6461  0.1407
  907MOL0     H22442   0.605   6.201   7.601 -1.8759  2.2505 -0.7158
  907MOL0     H22443   0.758   6.022   7.615 -0.8539  1.8491  1.7913
  907MOL0     H22444   0.926   6.034   7.557  0.9805  0.0366  0.6683
  907MOL0     H22445   0.886   6.120   7.699  1.3726 -0.7494 -0.2357
  908MOL0     O22446   6.979   7.126   4.783  0.0505  1.1718  0.4208
  908MOL0     C22447   6.890   7.216   4.786 -0.0289  0.1358 -0.1147
  908MOL0     O22448   6.910   7.349   4.805 -0.2299 -0.0103 -0.7604
  908MOL0     C22449   7.033   7.400   4.797 -0.8297  0.4104 -0.6158
  908MOL0     C22450   7.059   7.502   4.703  0.1169 -0.1733 -0.8039
  908MOL0     C22451   7.191   7.552   4.678  0.2874  0.2440  0.5145
  908MOL0     C22452   7.302   7.514   4.750  0.1104  0.6581  0.5429
  908MOL0     O22453   7.413   7.586   4.711  0.1306  0.0682  0.3627
  908MOL0     C22454   7.535   7.552   4.786 -0.0801  0.6720 -0.6855
  908MOL0     C22455   7.640   7.657   4.741 -0.3880  0.7079 -1.0226
  908MOL0     C22456   7.753   7.646   4.838 -0.2564  0.2126  0.5312
  908MOL0     C22457   7.848   7.755   4.788 -0.5440 -0.2632 -0.2536
  908MOL0     C22458   7.985   7.741   4.860  0.1221 -0.3406 -0.7263
  908MOL0     C22459   8.094   7.829   4.803  0.2219 -0.2960  0.2663
  908MOL0     C22460   8.213   7.847   4.895  0.2054  0.3875  0.1481
  908MOL0     C22461   8.300   7.719   4.904 -0.1898  0.1813 -0.9761
  908MOL0     N22462   8.421   7.762   4.983  0.0223  0.2209 -0.5372
  908MOL0     C22463   8.422   7.773   5.119 -0.1084  1.2089  0.0664
  908MOL0     C22464   8.555   7.787   5.146 -0.3497 -0.6871  0.3973
  908MOL0     C22465   8.623   7.769   5.280  0.4398  0.0963 -1.2303
  908MOL0     C22466   8.686   7.899   5.337 -1.2894  0.3487  0.4973
  908MOL0     C22467   8.844   7.902   5.321 -0.0275 -1.2333  0.1665
  908MOL0     C22468   8.909   7.785   5.397 -0.1106 -0.8063 -0.3771
  908MOL0     O22469   9.009   7.819   5.500 -0.3519  0.7946 -0.2185
  908MOL0     C22470   9.131   7.862   5.457 -0.2690 -0.2637 -0.4886
  908MOL0     C22471   9.225   7.851   5.557  1.2796 -0.1230  0.1617
  908MOL0     C22472   9.356   7.886   5.528 -0.4104  0.4351  0.2402
  908MOL0     C22473   9.399   7.926   5.403  0.0821  0.6052 -0.1139
  908MOL0     C22474   9.539   7.947   5.365 -0.2070 -1.2072 -0.2027
  908MOL0     O22475   9.631   7.891   5.439 -0.1450 -0.6297  0.4307
  908MOL0     C22476   9.761   7.918   5.412  0.3078  0.2177  0.0579
  908MOL0     C22477   9.827   7.891   5.287  0.0799 -0.4812  0.6881
  908MOL0     C22478   9.960   7.914   5.265 -0.0275  0.2813  0.3923
  908MOL0     C22479  10.046   7.961   5.366  0.5559  0.4847  1.0953
  908MOL0     O22480  10.178   7.988   5.331 -0.0407  0.8936  0.1891
  908MOL0     C22481  10.265   8.021   5.433  0.0747 -0.1754 -0.3139
  908MOL0     C22482  10.407   8.009   5.384 -0.1758 -0.4654  1.0672
  908MOL0     C22483  10.520   8.037   5.490  0.0427  0.3252  0.3086
  908MOL0     C22484  10.655   8.017   5.417  0.4101 -0.2572 -0.0246
  908MOL0     C22485  10.762   8.111   5.474  0.7483  0.2576 -0.3472
  908MOL0     C22486  10.879   8.138   5.387  0.3407 -0.2361  0.4911
  908MOL0     C22487  10.933   8.016   5.309 -0.5448  0.9234  0.0124
  908MOL0     C22488  11.067   8.036   5.232 -1.1552 -0.3895 -0.1107
  908MOL0    Cl22489  11.197   8.137   5.317  0.2590  0.0265 -0.1507
  908MOL0     C22490   9.983   7.987   5.494 -1.1646  0.0070 -0.1342
  908MOL0     C22491   9.845   7.968   5.515 -0.1244  0.0089  1.3468
  908MOL0     O22492   9.560   8.026   5.274  0.0001  0.3492 -0.4557
  908MOL0     C22493   9.299   7.940   5.306 -0.0319  0.4450  0.0175
  908MOL0     C22494   9.167   7.904   5.332  0.0644  0.0777 -0.4096
  908MOL0     N22495   8.631   7.806   5.031 -0.2114 -0.2970 -0.0028
  908MOL0     N22496   8.552   7.783   4.933  1.0220  0.0043  0.2559
  908MOL0     C22497   7.279   7.416   4.851  0.0413  0.7538  0.4633
  908MOL0     C22498   7.151   7.353   4.869 -0.8851 -0.5771  0.2010
  908MOL0     C22499   6.749   7.170   4.785 -0.5496 -0.3440  0.5131
  908MOL0     C22500   6.653   7.259   4.731  0.1146  0.0638 -0.5095
  908MOL0     C22501   6.518   7.230   4.723 -0.0925  0.7085  0.0200
  908MOL0     C22502   6.469   7.111   4.771 -0.4704 -1.2045  0.1003
  908MOL0     O22503   6.332   7.077   4.766 -0.5933 -1.2636  0.1171
  908MOL0     C22504   6.285   7.052   4.627  0.7788 -0.2325 -0.2070
  908MOL0     C22505   6.345   6.925   4.576  0.3907 -0.2469 -0.4340
  908MOL0     C22506   6.256   6.870   4.460 -0.2787 -0.1404 -0.4950
  908MOL0     C22507   6.176   6.738   4.497  0.9736  0.5022 -0.5909
  908MOL0     C22508   6.089   6.767   4.611  0.4260  0.8272 -0.8446
  908MOL0     C22509   6.018   6.801   4.706 -0.1784  0.0102 -0.3226
  908MOL0     C22510   6.560   7.029   4.832  0.9550  0.2677 -0.0724
  908MOL0     C22511   6.698   7.052   4.843  0.1135  0.2836 -0.3410
  908MOL0     C22512   6.779   6.955   4.927  0.1042 -0.0409  1.1920
  908MOL0     H22513   6.982   7.542   4.638  0.1391 -0.8215 -1.2333
  908MOL0     H22514   7.215   7.629   4.604  2.6232  0.0166  0.9622
  908MOL0     H22515   7.516   7.561   4.893 -1.4673 -0.4483 -0.8216
  908MOL0     H22516   7.572   7.455   4.752 -3.9520 -0.6084 -1.7287
  908MOL0     H22517   7.598   7.758   4.733 -1.3837  0.4752  0.6118
  908MOL0     H22518   7.685   7.632   4.645 -0.9069  1.5718 -1.5036
  908MOL0     H22519   7.791   7.544   4.825  0.2788  0.7039 -2.3784
  908MOL0     H22520   7.727   7.658   4.944  0.0263 -0.1683  0.6493
  908MOL0     H22521   7.855   7.746   4.679 -3.6247  2.1486 -0.7991
  908MOL0     H22522   7.816   7.858   4.804  0.6176  0.3426 -1.6065
  908MOL0     H22523   7.977   7.769   4.965 -1.4211 -0.1828 -0.8636
  908MOL0     H22524   8.011   7.635   4.858  0.3071 -0.3523  1.1595
  908MOL0     H22525   8.120   7.794   4.702 -0.3852  0.6048 -0.2111
  908MOL0     H22526   8.047   7.927   4.797 -2.5553 -1.5546  0.0953
  908MOL0     H22527   8.176   7.879   4.993 -1.3974  2.4461 -1.0448
  908MOL0     H22528   8.274   7.929   4.855  2.9444 -0.3978  2.3546
  908MOL0     H22529   8.242   7.640   4.953 -2.0847  2.0097 -0.0915
  908MOL0     H22530   8.329   7.669   4.811  0.6581 -2.1848  0.4692
  908MOL0     H22531   8.365   7.767   5.211 -0.2789 -0.5140 -0.1256
  908MOL0     H22532   8.542   7.737   5.346  2.0891 -0.4811  0.6299
  908MOL0     H22533   8.689   7.682   5.285  1.3392  0.8424  1.3151
  908MOL0     H22534   8.645   7.986   5.284  1.5795  1.4042 -0.1921
  908MOL0     H22535   8.660   7.911   5.443 -0.4684 -1.0169  0.8761
  908MOL0     H22536   8.885   7.994   5.365  0.9394 -1.6779  0.2179
  908MOL0     H22537   8.871   7.909   5.215 -0.9557 -0.7467 -0.0507
  908MOL0     H22538   8.952   7.718   5.322 -0.5316 -0.2907 -1.0897
  908MOL0     H22539   8.839   7.724   5.455 -1.9537  1.2173 -0.3638
  908MOL0     H22540   9.195   7.808   5.652 -1.4653  0.9999 -0.1047
  908MOL0     H22541   9.428   7.865   5.606  0.3378 -3.2157 -1.2473
  908MOL0     H22542   9.764   7.845   5.212  0.0342 -0.3079  0.6195
  908MOL0     H22543  10.005   7.894   5.169 -0.1086  0.7660  0.2507
  908MOL0     H22544  10.240   8.120   5.472 -1.8635 -1.2598  1.3944
  908MOL0     H22545  10.252   7.955   5.519 -1.1852  0.2990 -0.1092
  908MOL0     H22546  10.434   7.916   5.332 -0.8726  1.4355 -3.0379
  908MOL0     H22547  10.419   8.084   5.306  1.0051 -0.5917  1.1036
  908MOL0     H22548  10.516   8.142   5.521  1.6190  0.7909 -0.9133
  908MOL0     H22549  10.521   7.967   5.574  3.4601 -1.2457 -0.8593
  908MOL0     H22550  10.646   8.042   5.311  0.8538 -1.1787 -0.2973
  908MOL0     H22551  10.691   7.913   5.421  1.4684  0.1209  3.4053
  908MOL0     H22552  10.801   8.072   5.569 -3.2128  0.3387  1.5251
  908MOL0     H22553  10.718   8.210   5.489 -1.5807 -0.9031  0.9807
  908MOL0     H22554  10.839   8.195   5.302 -1.2911 -1.2288  0.5399
  908MOL0     H22555  10.951   8.201   5.439  0.4232  1.6955 -1.7534
  908MOL0     H22556  10.853   7.973   5.247 -1.2754 -0.5800  1.9041
  908MOL0     H22557  10.961   7.937   5.380  0.4765  1.3461  0.0914
  908MOL0     H22558  11.109   7.941   5.198 -0.1066 -0.5351  1.5091
  908MOL0     H22559  11.034   8.095   5.145 -2.2892  0.2816  0.7500
  908MOL0     H22560  10.042   8.033   5.573 -1.0936  2.6486 -1.6292
  908MOL0     H22561   9.798   7.981   5.612 -0.6228  1.2205  0.9545
  908MOL0     H22562   9.319   7.970   5.203  0.7204  0.1071  0.0576
  908MOL0     H22563   9.101   7.908   5.245 -0.2607 -0.0984 -0.1731
  908MOL0     H22564   7.364   7.386   4.912  1.3493 -0.2690 -1.7264
  908MOL0     H22565   7.140   7.271   4.939 -0.1601 -0.9546 -0.1080
  908MOL0     H22566   6.673   7.359   4.693 -0.2972  0.5955  0.6367
  908MOL0     H22567   6.448   7.293   4.669  0.3764  0.8715 -0.4123
  908MOL0     H22568   6.318   7.139   4.568 -1.4980  1.5119  0.8985
  908MOL0     H22569   6.176   7.061   4.626  0.6949 -1.0001  0.8095
  908MOL0     H22570   6.340   6.849   4.654 -1.9401  1.3137  1.0686
  908MOL0     H22571   6.448   6.947   4.547  0.4494  2.2173  1.3622
  908MOL0     H22572   6.325   6.845   4.378 -1.0561  1.1797 -1.5815
  908MOL0     H22573   6.199   6.952   4.417  2.9241  2.1819 -0.7086
  908MOL0     H22574   6.120   6.690   4.416 -0.2600 -3.4278  2.3182
  908MOL0     H22575   6.238   6.652   4.524 -1.7712 -1.2149  0.7349
  908MOL0     H22576   5.963   6.837   4.790  1.1585  2.4579 -0.3991
  908MOL0     H22577   6.528   6.935   4.876  1.9938 -1.2053 -2.2935
  908MOL0     H22578   6.719   6.866   4.947  0.3361  0.3131  3.8108
  908MOL0     H22579   6.870   6.919   4.878  0.2138  1.3078  0.3579
  908MOL0     H22580   6.810   7.011   5.016 -3.1843  1.5960  1.4488
  909MOL0     O22581   9.371   8.873   5.810  0.2742  0.3471 -0.2199
  909MOL0     C22582   9.394   8.781   5.727 -0.8672  0.0006  0.2764
  909MOL0     O22583   9.515   8.743   5.677  0.0957  0.1952  0.0417
  909MOL0     C22584   9.626   8.804   5.727 -0.8596 -0.5418  0.1030
  909MOL0     C22585   9.636   8.945   5.713  0.8472  0.6155 -1.1957
  909MOL0     C22586   9.731   9.011   5.783  0.6306 -0.1559 -0.1783
  909MOL0     C22587   9.839   8.943   5.843 -0.5643  0.1073 -0.1172
  909MOL0     O22588   9.945   9.007   5.901  0.7160 -0.4587 -0.4761
  909MOL0     C22589   9.934   9.143   5.942 -0.1380  0.2282 -0.0378
  909MOL0     C22590  10.062   9.179   6.022  0.5837 -0.1820 -0.1702
  909MOL0     C22591  10.186   9.201   5.933 -0.2763  0.3028  0.1616
  909MOL0     C22592  10.282   9.314   5.981  0.1478  0.5676  0.3430
  909MOL0     C22593  10.398   9.330   5.886 -0.7630 -0.6240  0.2516
  909MOL0     C22594  10.466   9.464   5.902  0.5037 -0.5915  0.3381
  909MOL0     C22595  10.559   9.486   5.783 -0.5509 -0.2395  0.4987
  909MOL0     C22596  10.637   9.612   5.790 -0.7132 -0.4209 -0.3302
  909MOL0     N22597  10.720   9.624   5.668  0.1059 -0.9187  0.3901
  909MOL0     C22598  10.852   9.589   5.650 -0.2409  0.3084 -0.3374
  909MOL0     C22599  10.896   9.639   5.535  0.0152  0.6404  0.3836
  909MOL0     C22600  11.032   9.613   5.471  0.3589 -0.0639  0.7968
  909MOL0     C22601  11.141   9.708   5.523  0.2403 -0.8775 -0.3259
  909MOL0     C22602  11.279   9.703   5.458  0.4245 -0.2614 -0.1561
  909MOL0     C22603  11.371   9.795   5.545 -0.3485 -0.2438 -0.6678
  909MOL0     O22604  11.509   9.771   5.502 -0.2047 -1.2825  0.5957
  909MOL0     C22605  11.618   9.828   5.566 -0.2504  0.2131  0.3618
  909MOL0     C22606  11.612   9.876   5.701  0.9931 -0.0071 -0.4138
  909MOL0     C22607  11.720   9.924   5.777 -0.5458  0.8707 -0.6654
  909MOL0     C22608  11.844   9.937   5.716 -0.0018 -0.0306  0.2492
  909MOL0     C22609  11.951  10.007   5.786 -0.4559  0.4810 -0.2006
  909MOL0     O22610  11.950  10.016   5.922 -0.2001  0.3243 -0.7171
  909MOL0     C22611  12.053  10.094   5.975  0.7816 -0.3269  0.6051
  909MOL0     C22612  12.148  10.038   6.051  0.6615 -0.2101 -0.5190
  909MOL0     C22613  12.258  10.117   6.095  0.5165 -0.5671 -0.3663
  909MOL0     C22614  12.269  10.249   6.066  0.3359  0.0820 -0.5396
  909MOL0     O22615  12.357  10.341   6.098 -0.2794  0.6295 -0.1141
  909MOL0     C22616  12.478  10.299   6.164  0.1816 -0.2665  0.6467
  909MOL0     C22617  12.584  10.392   6.110  0.5314 -0.4231 -0.4105
  909MOL0     C22618  12.596  10.527   6.188  0.3557  0.5474  0.6746
  909MOL0     C22619  12.726  10.597   6.142  0.0427 -0.0934  0.1533
  909MOL0     C22620  12.750  10.718   6.232 -1.0684  0.7248  0.4695
  909MOL0     C22621  12.860  10.812   6.177  0.2119  0.2586 -0.1278
  909MOL0     C22622  12.907  10.923   6.272 -0.0005 -0.3272 -0.1235
  909MOL0     C22623  12.805  11.037   6.283  0.4477 -0.3703 -0.7650
  909MOL0    Cl22624  12.778  11.121   6.132  0.0471 -0.2637 -0.1969
  909MOL0     C22625  12.167  10.303   5.985  0.1150  0.1465 -0.2326
  909MOL0     C22626  12.065  10.227   5.944  0.2219  0.5203  0.0431
  909MOL0     O22627  12.037  10.050   5.714  0.2292  0.4179 -0.0140
  909MOL0     C22628  11.850   9.910   5.579 -0.2663 -0.4534  0.2138
  909MOL0     C22629  11.737   9.856   5.508  0.2334 -1.5319 -0.1935
  909MOL0     N22630  10.799   9.725   5.486 -0.4801  0.6907 -0.6639
  909MOL0     N22631  10.696   9.715   5.566 -0.2519 -0.4500 -0.4153
  909MOL0     C22632   9.835   8.801   5.854 -1.0359  0.1041 -0.3913
  909MOL0     C22633   9.726   8.735   5.799  0.1280 -0.5364  0.4619
  909MOL0     C22634   9.274   8.734   5.662 -0.9959  0.2327  0.5406
  909MOL0     C22635   9.156   8.727   5.729  0.1504 -0.1510  0.0966
  909MOL0     C22636   9.039   8.671   5.680  0.3409  0.1335  0.3004
  909MOL0     C22637   9.032   8.627   5.545 -0.4053 -0.4829 -0.7363
  909MOL0     O22638   8.923   8.574   5.479  0.0713 -0.3308 -0.6338
  909MOL0     C22639   8.799   8.568   5.555  0.5196 -0.3618 -0.3569
  909MOL0     C22640   8.679   8.536   5.470 -0.2452  0.3048 -0.1752
  909MOL0     C22641   8.691   8.423   5.372  0.7134  0.1091  0.5978
  909MOL0     C22642   8.557   8.398   5.295 -0.1217 -0.5414 -0.5187
  909MOL0     C22643   8.443   8.374   5.384 -0.0167  0.1063 -0.7128
  909MOL0     C22644   8.344   8.362   5.454  0.3230 -0.3260  0.0536
  909MOL0     C22645   9.151   8.630   5.468 -0.1563  0.1254 -0.8832
  909MOL0     C22646   9.264   8.697   5.517 -0.8488  0.0526 -0.1657
  909MOL0     C22647   9.377   8.721   5.415 -0.3172 -0.5451 -0.3751
  909MOL0     H22648   9.552   8.990   5.662 -0.5830 -0.4340  0.1161
  909MOL0     H22649   9.730   9.119   5.769 -2.9184 -0.1391 -0.6399
  909MOL0     H22650   9.926   9.193   5.846  1.7329 -0.5442 -0.6468
  909MOL0     H22651   9.840   9.164   5.993 -0.3340  1.6361 -0.9420
  909MOL0     H22652  10.079   9.101   6.096 -2.5103 -2.9103 -2.0738
  909MOL0     H22653  10.045   9.268   6.084 -3.6188 -1.8710  1.4548
  909MOL0     H22654  10.155   9.213   5.829 -2.0890 -1.6925  0.3951
  909MOL0     H22655  10.236   9.104   5.919 -0.3866  0.1816  0.5830
  909MOL0     H22656  10.225   9.407   5.986  0.7224  0.9319  0.2482
  909MOL0     H22657  10.315   9.299   6.084 -0.8744  0.8971  0.7303
  909MOL0     H22658  10.476   9.256   5.906 -0.1983  0.5250  2.6161
  909MOL0     H22659  10.362   9.336   5.783  0.3410 -4.3555 -0.4795
  909MOL0     H22660  10.398   9.548   5.919  0.3224 -1.0510  2.0916
  909MOL0     H22661  10.535   9.471   5.987 -1.1806  1.1605  1.6462
  909MOL0     H22662  10.495   9.487   5.695  0.5121 -1.7481 -0.3335
  909MOL0     H22663  10.636   9.408   5.780  0.4253  0.7431 -0.3639
  909MOL0     H22664  10.562   9.691   5.795 -0.7538 -0.5313  1.3355
  909MOL0     H22665  10.693   9.611   5.884 -2.7114  2.9354  1.0802
  909MOL0     H22666  10.899   9.523   5.722  1.1337 -0.3302 -1.7514
  909MOL0     H22667  11.056   9.506   5.471 -0.8938 -0.4079 -1.1328
  909MOL0     H22668  11.014   9.629   5.364 -2.6871 -2.0819  0.8963
  909MOL0     H22669  11.120   9.813   5.505  2.0847  0.0854  2.5099
  909MOL0     H22670  11.143   9.691   5.631 -3.0414 -0.5874 -0.1084
  909MOL0     H22671  11.260   9.736   5.355  3.4526  0.9067 -0.4405
  909MOL0     H22672  11.317   9.601   5.460  2.1130  0.2881 -1.5690
  909MOL0     H22673  11.357   9.777   5.652  1.3682  3.5370  0.3505
  909MOL0     H22674  11.336   9.897   5.533 -1.7165 -0.6065 -0.0085
  909MOL0     H22675  11.516   9.862   5.749  0.8376  2.0590 -0.0547
  909MOL0     H22676  11.708   9.961   5.878  1.6459  1.4607 -0.5728
  909MOL0     H22677  12.135   9.930   6.059  0.4316 -0.1713 -0.3615
  909MOL0     H22678  12.339  10.074   6.152 -0.4421 -4.5409 -1.6062
  909MOL0     H22679  12.463  10.301   6.273  1.4280  1.4267  0.8250
  909MOL0     H22680  12.510  10.198   6.137  0.6849 -0.4594  1.8829
  909MOL0     H22681  12.681  10.341   6.105 -0.8797 -3.1736 -3.3506
  909MOL0     H22682  12.559  10.427   6.010  3.9238 -0.4568 -1.3888
  909MOL0     H22683  12.507  10.583   6.157 -0.3442 -1.4759 -1.2085
  909MOL0     H22684  12.616  10.509   6.294 -0.3921 -2.1093  0.4358
  909MOL0     H22685  12.697  10.638   6.044 -1.0243  2.2416  1.3558
  909MOL0     H22686  12.817  10.540   6.123 -0.6372 -0.7272 -1.4831
  909MOL0     H22687  12.779  10.662   6.321  0.0579 -0.1364 -0.4058
  909MOL0     H22688  12.655  10.771   6.242 -0.9951  0.8245  0.6212
  909MOL0     H22689  12.953  10.758   6.155 -1.4722 -3.0599  0.3191
  909MOL0     H22690  12.824  10.854   6.083  1.2428  1.9990  0.2033
  909MOL0     H22691  13.000  10.963   6.231  0.0125  0.2335  0.4421
  909MOL0     H22692  12.935  10.878   6.367 -0.1089 -0.5064 -0.1766
  909MOL0     H22693  12.706  10.994   6.303  0.0918  0.6072 -0.3666
  909MOL0     H22694  12.833  11.103   6.365 -0.6793 -0.0926 -0.5902
  909MOL0     H22695  12.174  10.410   5.966 -1.8566 -0.1406 -3.1921
  909MOL0     H22696  11.983  10.270   5.887 -1.0472 -0.5743  0.9555
  909MOL0     H22697  11.941   9.939   5.526 -0.0177  1.3870  1.5496
  909MOL0     H22698  11.750   9.834   5.403  1.2752 -0.2623 -0.3482
  909MOL0     H22699   9.921   8.750   5.898  1.6898  2.4251 -2.6062
  909MOL0     H22700   9.721   8.630   5.826  1.1756 -0.4218  1.1732
  909MOL0     H22701   9.153   8.757   5.833  4.1832 -0.9042  0.6089
  909MOL0     H22702   8.957   8.655   5.750  2.7768 -2.6833  2.8384
  909MOL0     H22703   8.781   8.667   5.598 -0.5590  0.1867 -1.9939
  909MOL0     H22704   8.811   8.499   5.638 -0.6711 -0.2113 -0.0398
  909MOL0     H22705   8.656   8.630   5.419 -0.6035  0.6103  0.5334
  909MOL0     H22706   8.596   8.522   5.539  3.0459  0.5972  4.3046
  909MOL0     H22707   8.716   8.329   5.422 -3.2152 -0.5972  1.5430
  909MOL0     H22708   8.771   8.445   5.301  3.2775 -4.5469  1.5883
  909MOL0     H22709   8.541   8.494   5.245  1.5444  0.7413  1.2704
  909MOL0     H22710   8.575   8.323   5.217 -2.5905 -2.4624  0.6323
  909MOL0     H22711   8.272   8.350   5.531  0.7599 -0.8015  0.3944
  909MOL0     H22712   9.148   8.579   5.372 -1.2665 -1.2310 -0.1553
  909MOL0     H22713   9.460   8.651   5.424  0.0303  0.1149  3.5157
  909MOL0     H22714   9.348   8.736   5.311  0.8625 -2.5267 -1.0251
  909MOL0     H22715   9.425   8.815   5.445 -2.3189  0.4007  0.0917
  910MOL0     O22716   3.432   6.740   4.016  0.5709  0.2188 -0.4623
  910MOL0     C22717   3.410   6.696   3.907  0.7653 -0.3391 -0.0244
  910MOL0     O22718   3.497   6.630   3.829  0.0893 -0.1020  0.7962
  910MOL0     C22719   3.627   6.602   3.853  0.5209 -0.1652  0.4911
  910MOL0     C22720   3.704   6.661   3.947 -0.3691 -0.3087  0.8137
  910MOL0     C22721   3.844   6.637   3.965  0.2361  0.0678 -0.1806
  910MOL0     C22722   3.907   6.548   3.879 -0.1091 -0.7673  0.1793
  910MOL0     O22723   4.047   6.521   3.881  0.0238 -0.6053  0.1180
  910MOL0     C22724   4.121   6.565   3.991 -0.3511 -0.4644 -0.3581
  910MOL0     C22725   4.272   6.529   3.968  0.2520  0.3572 -0.8887
  910MOL0     C22726   4.362   6.575   4.083  0.1589 -0.0095 -0.0797
  910MOL0     C22727   4.508   6.519   4.069  0.0781  0.4848  0.5225
  910MOL0     C22728   4.572   6.583   3.951 -0.2806 -0.3405 -0.9915
  910MOL0     C22729   4.720   6.591   3.979  0.1189 -0.1919 -0.0713
  910MOL0     C22730   4.784   6.447   3.996 -0.1511 -0.5675 -0.4696
  910MOL0     C22731   4.937   6.434   4.030  0.8256  1.1405  0.1152
  910MOL0     N22732   5.032   6.496   3.939  0.4859  0.2196 -0.3283
  910MOL0     C22733   5.139   6.570   3.971  0.5547 -0.6760 -0.2972
  910MOL0     C22734   5.180   6.630   3.849  0.1381 -0.3842 -0.2837
  910MOL0     C22735   5.310   6.698   3.814 -0.2012  0.4580  0.3033
  910MOL0     C22736   5.409   6.588   3.790  0.1899  1.0304  0.5800
  910MOL0     C22737   5.559   6.626   3.785 -0.1788  0.4669  0.2318
  910MOL0     C22738   5.625   6.491   3.740 -0.6340  0.4685  0.0990
  910MOL0     O22739   5.628   6.396   3.854  0.1021  0.5103 -0.3429
  910MOL0     C22740   5.744   6.394   3.930  0.0119 -0.6828  0.8690
  910MOL0     C22741   5.759   6.292   4.029 -0.3443  0.6985  0.7046
  910MOL0     C22742   5.867   6.289   4.113  0.0381  0.2584 -0.2299
  910MOL0     C22743   5.959   6.401   4.112 -0.1414  1.2652 -0.6204
  910MOL0     C22744   6.073   6.402   4.213 -0.3566 -0.6718  0.8857
  910MOL0     O22745   6.173   6.499   4.199  0.3205  0.5715 -0.3932
  910MOL0     C22746   6.289   6.509   4.277  0.4482  1.1353 -0.6698
  910MOL0     C22747   6.312   6.431   4.398 -0.1743 -0.5709 -0.1665
  910MOL0     C22748   6.429   6.441   4.468  0.0892 -0.0121 -1.6062
  910MOL0     C22749   6.537   6.531   4.436  0.0329  0.5355 -0.0159
  910MOL0     O22750   6.653   6.534   4.508  0.0061  0.0265  0.4918
  910MOL0     C22751   6.767   6.607   4.462  1.0932  0.5216 -0.5814
  910MOL0     C22752   6.758   6.757   4.506  0.9049 -0.1002  0.1521
  910MOL0     C22753   6.895   6.830   4.495  0.0605 -0.5761  0.4574
  910MOL0     C22754   6.965   6.823   4.356 -0.2022  0.0220  0.2127
  910MOL0     C22755   7.025   6.962   4.322  0.3332  0.0205 -0.3947
  910MOL0     C22756   7.116   7.023   4.434 -0.0567 -0.2834 -0.4516
  910MOL0     C22757   7.139   7.179   4.392 -0.6158  0.2656 -0.6329
  910MOL0     C22758   7.254   7.244   4.470  0.3765 -0.1472 -1.1536
  910MOL0    Cl22759   7.287   7.405   4.398 -0.4291  0.7126 -0.1084
  910MOL0     C22760   6.503   6.613   4.324 -0.0586  0.2966  1.3830
  910MOL0     C22761   6.390   6.597   4.243  0.5185  0.0782  0.6512
  910MOL0     O22762   6.061   6.324   4.305  0.6777 -0.1693  0.2648
  910MOL0     C22763   5.932   6.518   4.033  1.4885 -0.0880 -0.1226
  910MOL0     C22764   5.825   6.512   3.945 -0.3826 -0.3196 -0.0773
  910MOL0     N22765   5.095   6.586   3.751 -0.1121 -0.5433  0.4847
  910MOL0     N22766   5.019   6.498   3.796 -0.4934 -0.2230 -0.7841
  910MOL0     C22767   3.834   6.497   3.774  0.3014  0.7490  0.4524
  910MOL0     C22768   3.697   6.519   3.759 -0.3598  0.3527 -0.0121
  910MOL0     C22769   3.272   6.718   3.852 -0.1547  0.4965  0.4427
  910MOL0     C22770   3.257   6.677   3.717 -0.0231 -0.0635 -0.5411
  910MOL0     C22771   3.140   6.699   3.646 -0.3082 -0.5350 -0.4720
  910MOL0     C22772   3.032   6.754   3.719  0.3016  0.6206  0.0783
  910MOL0     O22773   2.911   6.787   3.658  0.0205  0.0476  0.5459
  910MOL0     C22774   2.911   6.932   3.634  0.2213 -0.7289 -1.1261
  910MOL0     C22775   2.947   6.965   3.494 -0.2467 -0.2087  0.5792
  910MOL0     C22776   2.850   6.888   3.400  0.0788  0.1146 -0.5064
  910MOL0     C22777   2.908   6.848   3.268  0.2450 -1.0555  0.6001
  910MOL0     C22778   2.972   6.723   3.267 -0.2685 -0.0746  0.3487
  910MOL0     C22779   3.035   6.619   3.276  0.6725 -0.0759 -1.2151
  910MOL0     C22780   3.045   6.789   3.846 -0.6105 -0.3915 -0.6917
  910MOL0     C22781   3.165   6.775   3.916 -0.2057  0.4639 -0.5283
  910MOL0     C22782   3.156   6.828   4.057 -0.2571 -0.4882  0.2452
  910MOL0     H22783   3.658   6.742   4.003 -0.1606  1.0446 -0.8912
  910MOL0     H22784   3.889   6.694   4.045 -1.5387  1.4691 -0.1245
  910MOL0     H22785   4.109   6.673   4.000 -1.1568 -0.5978  0.2973
  910MOL0     H22786   4.096   6.519   4.088  1.4349 -3.6846 -1.2754
  910MOL0     H22787   4.301   6.579   3.875 -2.2415  2.1732 -0.7914
  910MOL0     H22788   4.264   6.422   3.947 -1.5384  0.5182 -1.1847
  910MOL0     H22789   4.319   6.538   4.176 -0.5711 -0.9316 -0.7541
  910MOL0     H22790   4.359   6.684   4.084 -3.4946  0.0208 -0.7551
  910MOL0     H22791   4.557   6.529   4.166  0.4769 -0.5309  0.4379
  910MOL0     H22792   4.495   6.413   4.045  0.9810  1.0409 -3.0265
  910MOL0     H22793   4.553   6.536   3.854  1.7741  1.0657 -2.1666
  910MOL0     H22794   4.542   6.688   3.956 -0.5232 -0.4806  0.9927
  910MOL0     H22795   4.771   6.652   3.904 -2.3618  3.3178  0.8295
  910MOL0     H22796   4.732   6.639   4.076 -0.6274  0.5854 -0.3527
  910MOL0     H22797   4.771   6.399   3.899  0.5631 -0.5034 -0.6018
  910MOL0     H22798   4.732   6.375   4.060 -1.3173 -0.1792 -0.9518
  910MOL0     H22799   4.952   6.475   4.131 -1.5144 -0.8530  1.3772
  910MOL0     H22800   4.955   6.326   4.041 -1.3974  0.8128  0.9500
  910MOL0     H22801   5.186   6.582   4.068 -0.4480 -0.7296  0.2050
  910MOL0     H22802   5.305   6.766   3.728  2.1334  0.9823  0.5112
  910MOL0     H22803   5.330   6.760   3.902 -2.0597  0.6954  0.6089
  910MOL0     H22804   5.393   6.512   3.867 -2.7935  0.4126 -0.5002
  910MOL0     H22805   5.376   6.541   3.697  0.7299 -0.6099  1.1753
  910MOL0     H22806   5.593   6.657   3.884 -1.1053  1.2793  0.3128
  910MOL0     H22807   5.580   6.701   3.709  0.8885 -0.4629 -0.4289
  910MOL0     H22808   5.728   6.502   3.704 -0.7641  3.7692  0.4230
  910MOL0     H22809   5.568   6.458   3.652 -0.2912  1.4563 -0.5113
  910MOL0     H22810   5.691   6.208   4.018  0.1718  0.4653 -1.0331
  910MOL0     H22811   5.889   6.211   4.185  2.3645  2.7436  2.0107
  910MOL0     H22812   6.238   6.364   4.439  0.0913 -1.2690 -0.7994
  910MOL0     H22813   6.450   6.375   4.552  0.5860  0.5879 -1.2562
  910MOL0     H22814   6.861   6.570   4.504  0.1870  1.2241  2.3298
  910MOL0     H22815   6.768   6.603   4.353 -3.5870 -1.1222 -0.7654
  910MOL0     H22816   6.684   6.807   4.442  1.2383  1.3818  0.8828
  910MOL0     H22817   6.732   6.768   4.611 -1.7588  2.1408 -0.6167
  910MOL0     H22818   6.867   6.931   4.526 -2.7244 -1.5111  1.2920
  910MOL0     H22819   6.962   6.791   4.572  0.0090 -1.2401  0.1763
  910MOL0     H22820   6.889   6.781   4.289 -1.9603  0.6090  1.7437
  910MOL0     H22821   7.053   6.759   4.364  1.6887  2.5743  1.1481
  910MOL0     H22822   6.934   7.022   4.312 -0.8466 -1.7611 -0.7583
  910MOL0     H22823   7.079   6.961   4.227  2.3266  2.4149  0.5989
  910MOL0     H22824   7.067   7.019   4.532  0.8475  1.7301  0.1494
  910MOL0     H22825   7.207   6.964   4.450 -0.2757  0.1176  3.2762
  910MOL0     H22826   7.050   7.234   4.425  0.0562  0.8110  0.3125
  910MOL0     H22827   7.165   7.190   4.286  0.4573 -0.2971 -0.4397
  910MOL0     H22828   7.218   7.250   4.574 -0.4890 -3.2209 -1.1781
  910MOL0     H22829   7.335   7.171   4.467 -1.6598 -2.5055 -2.3272
  910MOL0     H22830   6.573   6.683   4.279  1.6962 -2.4067 -0.3834
  910MOL0     H22831   6.360   6.667   4.165 -3.6846  0.0087  1.9237
  910MOL0     H22832   5.992   6.609   4.032  0.3874  0.6607 -1.2835
  910MOL0     H22833   5.808   6.601   3.886 -0.5903  0.4183  1.0563
  910MOL0     H22834   3.877   6.416   3.715 -1.8604 -0.5044  0.4844
  910MOL0     H22835   3.635   6.488   3.676 -1.2675 -0.2176  0.8577
  910MOL0     H22836   3.336   6.626   3.663 -1.3645 -0.1370 -2.5422
  910MOL0     H22837   3.133   6.683   3.539 -1.4242  2.4783 -0.9419
  910MOL0     H22838   2.973   6.984   3.707  1.9552 -2.5525 -1.1997
  910MOL0     H22839   2.805   6.959   3.640  0.0801 -1.3658 -0.7391
  910MOL0     H22840   3.048   6.938   3.461 -1.2174 -0.1595 -2.7996
  910MOL0     H22841   2.934   7.074   3.488 -1.0305 -0.2755  0.9765
  910MOL0     H22842   2.760   6.950   3.394  0.6171  1.6597  3.9116
  910MOL0     H22843   2.812   6.796   3.445 -0.3945  0.7924  0.5470
  910MOL0     H22844   2.818   6.849   3.206 -0.7700 -1.8134  2.0036
  910MOL0     H22845   2.982   6.918   3.229  0.4800  0.1926  3.0376
  910MOL0     H22846   3.098   6.533   3.290  1.4341  0.7595  0.8131
  910MOL0     H22847   2.953   6.830   3.885 -0.9868 -0.2622 -1.6822
  910MOL0     H22848   3.063   6.875   4.091 -1.1097 -3.3968  2.2724
  910MOL0     H22849   3.176   6.741   4.119 -0.7458 -0.0016  1.0984
  910MOL0     H22850   3.229   6.910   4.062 -2.3782  1.8766 -3.0015
  911MOL0     O22851   2.817   6.836   1.850  0.5316  0.0307  0.0275
  911MOL0     C22852   2.707   6.889   1.888 -1.2959  1.2054 -0.3502
  911MOL0     O22853   2.697   6.966   1.996 -0.1606  0.0953 -0.5751
  911MOL0     C22854   2.791   6.959   2.096  0.3787 -0.2826  0.5140
  911MOL0     C22855   2.754   6.899   2.214 -0.4073 -0.5718  0.3605
  911MOL0     C22856   2.829   6.916   2.335  0.0165 -1.0958  0.7936
  911MOL0     C22857   2.955   6.979   2.327 -1.1879 -0.5959  0.0797
  911MOL0     O22858   3.028   6.998   2.442  0.8404  0.0920 -0.3533
  911MOL0     C22859   3.162   7.023   2.426 -0.1043  0.0065 -0.4199
  911MOL0     C22860   3.231   7.022   2.560  0.6621 -0.2599  0.1172
  911MOL0     C22861   3.208   6.882   2.627 -0.4543 -0.6334  0.3574
  911MOL0     C22862   3.296   6.890   2.762  0.2298  0.5112  0.0892
  911MOL0     C22863   3.242   6.778   2.857  0.2858 -0.4960  0.7131
  911MOL0     C22864   3.307   6.768   2.994  0.9458 -0.6041  0.4415
  911MOL0     C22865   3.455   6.727   2.979 -0.4230 -0.7390 -0.0059
  911MOL0     C22866   3.546   6.718   3.095  0.1835  0.6250 -0.0708
  911MOL0     N22867   3.484   6.638   3.203  0.2182 -0.7808 -0.0401
  911MOL0     C22868   3.472   6.506   3.194  0.3235 -0.2302 -0.8773
  911MOL0     C22869   3.420   6.469   3.314  0.0019  0.3651 -0.1188
  911MOL0     C22870   3.420   6.329   3.368 -0.2604  0.3312 -0.6978
  911MOL0     C22871   3.558   6.292   3.420 -0.8722 -0.9113 -0.3805
  911MOL0     C22872   3.558   6.139   3.433 -1.0649  0.8509 -0.1586
  911MOL0     C22873   3.687   6.093   3.499 -0.8868 -0.4492 -0.0495
  911MOL0     O22874   3.682   6.154   3.628  0.4395  0.0532 -0.2447
  911MOL0     C22875   3.773   6.109   3.726 -0.1924  0.4468  0.8051
  911MOL0     C22876   3.889   6.039   3.712 -1.1043  0.5883  0.3988
  911MOL0     C22877   3.981   6.012   3.818  0.3169  0.4290 -0.1104
  911MOL0     C22878   3.944   6.045   3.950  0.6349 -1.0433  0.5406
  911MOL0     C22879   4.025   6.023   4.063 -0.4020 -0.8177 -0.2952
  911MOL0     O22880   4.139   5.949   4.042 -0.5664  0.1379 -0.4909
  911MOL0     C22881   4.225   5.913   4.146  0.6592 -0.6204 -0.3748
  911MOL0     C22882   4.181   5.858   4.263  0.4593 -0.9778  0.9991
  911MOL0     C22883   4.275   5.822   4.354  0.0415 -0.9543  0.6518
  911MOL0     C22884   4.411   5.855   4.343 -0.6476 -0.0948  0.4392
  911MOL0     O22885   4.511   5.833   4.431 -0.3345  0.2269 -0.4966
  911MOL0     C22886   4.485   5.780   4.561 -0.4683 -0.6880 -0.2009
  911MOL0     C22887   4.601   5.821   4.652  0.2187  0.2693 -0.2865
  911MOL0     C22888   4.615   5.972   4.652 -0.0578 -0.0902  0.0219
  911MOL0     C22889   4.723   6.011   4.758 -0.6471  0.3722 -0.7600
  911MOL0     C22890   4.794   6.143   4.738 -0.1557  0.0950 -0.0130
  911MOL0     C22891   4.884   6.185   4.855  0.1937  0.3334 -0.1265
  911MOL0     C22892   4.944   6.326   4.836 -0.1514  0.2091  0.5235
  911MOL0     C22893   5.067   6.332   4.935  0.2388  0.1796  0.3751
  911MOL0    Cl22894   5.101   6.497   4.960  0.0279 -0.3001  0.0168
  911MOL0     C22895   4.456   5.888   4.215  0.0872  0.0792  0.2807
  911MOL0     C22896   4.366   5.922   4.120  0.6650  0.0143  0.7237
  911MOL0     O22897   3.999   6.082   4.169 -0.3646 -0.3724 -0.4818
  911MOL0     C22898   3.824   6.114   3.960 -1.2594 -0.7358 -0.2506
  911MOL0     C22899   3.740   6.143   3.857  0.1878  0.2785 -0.2875
  911MOL0     N22900   3.389   6.584   3.386  0.3886  0.0996 -0.2570
  911MOL0     N22901   3.430   6.686   3.316 -0.3037 -0.0055 -0.2900
  911MOL0     C22902   3.000   7.031   2.201 -0.9263  0.5582 -0.0931
  911MOL0     C22903   2.914   7.023   2.092 -0.5112  0.3733  0.3424
  911MOL0     C22904   2.589   6.876   1.803 -1.0025  0.5486 -0.0992
  911MOL0     C22905   2.601   6.781   1.700  0.7116 -0.2353  0.1870
  911MOL0     C22906   2.494   6.753   1.606  0.0065  0.4463  0.0497
  911MOL0     C22907   2.377   6.837   1.613 -0.1153 -0.1649 -0.1761
  911MOL0     O22908   2.271   6.817   1.537  0.0007 -0.1162 -0.0361
  911MOL0     C22909   2.268   6.702   1.442  0.2722 -0.3700  0.2496
  911MOL0     C22910   2.130   6.666   1.389  0.4416  0.2755 -0.1780
  911MOL0     C22911   2.027   6.646   1.504 -0.1687  0.5311 -1.4127
  911MOL0     C22912   1.889   6.622   1.453 -0.5864  0.1408  0.2498
  911MOL0     C22913   1.824   6.737   1.397  0.2861  0.4003 -0.9141
  911MOL0     C22914   1.781   6.841   1.359  0.3203 -0.1141 -0.0043
  911MOL0     C22915   2.378   6.938   1.707 -0.3189 -0.2048 -0.1255
  911MOL0     C22916   2.477   6.962   1.801  0.0721 -0.3925 -0.4946
  911MOL0     C22917   2.457   7.084   1.888  0.3331  0.7002 -0.1858
  911MOL0     H22918   2.661   6.844   2.223  1.3935 -4.0265 -0.4524
  911MOL0     H22919   2.807   6.854   2.421 -0.4036 -1.4453  0.4418
  911MOL0     H22920   3.219   6.953   2.365  0.7693 -0.0960  0.4752
  911MOL0     H22921   3.175   7.128   2.399 -1.2230  0.7836  1.8065
  911MOL0     H22922   3.194   7.092   2.636  0.4372 -0.3915  0.1289
  911MOL0     H22923   3.337   7.043   2.542  0.4356  1.7436  0.8535
  911MOL0     H22924   3.241   6.806   2.555 -0.5551  1.0177 -1.5087
  911MOL0     H22925   3.100   6.866   2.642 -0.6421  0.4228  0.1681
  911MOL0     H22926   3.397   6.866   2.729  0.4426  1.8862 -0.3132
  911MOL0     H22927   3.293   6.981   2.823 -1.6125  0.0327  0.8012
  911MOL0     H22928   3.136   6.802   2.865 -0.1828  0.4270 -4.6013
  911MOL0     H22929   3.244   6.680   2.808 -1.3406 -1.5805  2.6545
  911MOL0     H22930   3.288   6.863   3.046  2.1832  0.1814 -0.4881
  911MOL0     H22931   3.247   6.695   3.049  0.9891 -0.9108  0.0880
  911MOL0     H22932   3.496   6.812   2.923 -0.2154  0.4237  1.8163
  911MOL0     H22933   3.455   6.632   2.924  0.2625 -1.3708  1.0540
  911MOL0     H22934   3.630   6.654   3.066  0.0443 -1.2910  3.2037
  911MOL0     H22935   3.582   6.813   3.136  2.4265  0.0553 -0.5717
  911MOL0     H22936   3.520   6.441   3.122  1.8121 -0.7923  0.5681
  911MOL0     H22937   3.344   6.323   3.446 -0.3576  1.3855 -0.6959
  911MOL0     H22938   3.386   6.261   3.289  0.1983 -0.3434 -0.3229
  911MOL0     H22939   3.635   6.330   3.352 -0.0531  0.4659  1.2502
  911MOL0     H22940   3.570   6.335   3.520  0.2097 -2.0145  0.0033
  911MOL0     H22941   3.543   6.076   3.345  1.4020 -0.8734  0.5127
  911MOL0     H22942   3.473   6.115   3.497 -0.9230  0.6133 -0.0568
  911MOL0     H22943   3.775   6.124   3.441 -0.8147  1.2017  0.8755
  911MOL0     H22944   3.685   5.984   3.502 -1.1392 -0.4755 -0.8922
  911MOL0     H22945   3.921   6.017   3.610  1.0122  1.7012  0.7613
  911MOL0     H22946   4.071   5.955   3.796  0.2436 -0.3841  1.5971
  911MOL0     H22947   4.078   5.852   4.296  0.4104 -1.8560  0.7132
  911MOL0     H22948   4.239   5.773   4.444  1.4582 -0.7175  1.3806
  911MOL0     H22949   4.390   5.801   4.611  1.0315 -2.1342  3.6238
  911MOL0     H22950   4.485   5.671   4.552  0.1226 -0.6159 -1.1439
  911MOL0     H22951   4.599   5.793   4.758  3.4626 -0.0073 -0.1873
  911MOL0     H22952   4.690   5.780   4.604 -0.4859  0.3028 -1.6572
  911MOL0     H22953   4.633   6.019   4.555 -0.4186 -0.4359 -0.2159
  911MOL0     H22954   4.521   6.015   4.689 -0.5649 -0.9412 -0.2504
  911MOL0     H22955   4.797   5.931   4.760 -2.5547 -1.4807 -0.2822
  911MOL0     H22956   4.682   6.019   4.860  0.9807 -0.6979  0.0166
  911MOL0     H22957   4.722   6.225   4.740  0.6630  0.8753 -1.3290
  911MOL0     H22958   4.851   6.148   4.645 -1.6790 -1.1071 -1.0628
  911MOL0     H22959   4.825   6.186   4.947  0.1472 -2.1672 -0.0644
  911MOL0     H22960   4.971   6.120   4.868 -2.0471 -2.6510  1.2741
  911MOL0     H22961   4.871   6.406   4.848 -0.4592  0.8637 -3.9424
  911MOL0     H22962   4.967   6.323   4.729 -0.8572 -3.1998  0.3248
  911MOL0     H22963   5.044   6.275   5.026 -3.0587 -0.7088 -0.8433
  911MOL0     H22964   5.158   6.289   4.893 -1.1335  1.2195 -4.2444
  911MOL0     H22965   4.561   5.906   4.193 -0.3187  2.6138  0.0972
  911MOL0     H22966   4.398   5.947   4.019  0.8039  1.8853  1.1969
  911MOL0     H22967   3.796   6.160   4.055  1.9703  0.3378  0.3049
  911MOL0     H22968   3.646   6.192   3.877 -0.2494 -0.8273  0.4719
  911MOL0     H22969   3.089   7.092   2.199  0.3420 -1.2431 -1.4349
  911MOL0     H22970   2.946   7.062   1.996 -2.6216 -0.0278 -0.5870
  911MOL0     H22971   2.685   6.715   1.684  0.6226 -0.4118  0.4397
  911MOL0     H22972   2.509   6.673   1.533  0.6943  0.1795  0.4768
  911MOL0     H22973   2.298   6.612   1.496  1.5224 -0.8586 -1.1836
  911MOL0     H22974   2.333   6.726   1.357 -0.6720 -1.8934 -0.9557
  911MOL0     H22975   2.133   6.572   1.332  1.8775 -1.4302  2.4564
  911MOL0     H22976   2.081   6.741   1.327 -1.1371 -0.4591  0.1311
  911MOL0     H22977   2.031   6.716   1.588 -0.0369 -1.3008  0.1684
  911MOL0     H22978   2.043   6.546   1.544 -2.1769  1.7395  3.0386
  911MOL0     H22979   1.894   6.535   1.387 -4.3021 -0.3271  0.3636
  911MOL0     H22980   1.829   6.597   1.541  0.6170  0.5924  1.2296
  911MOL0     H22981   1.728   6.927   1.323  1.0936 -0.0222 -0.9371
  911MOL0     H22982   2.293   7.005   1.700 -0.2729 -0.1247  0.0732
  911MOL0     H22983   2.473   7.048   1.990 -0.3852 -0.6905 -0.5484
  911MOL0     H22984   2.538   7.151   1.857  0.4088  1.9552  2.4760
  911MOL0     H22985   2.360   7.133   1.876 -1.3412 -0.6939  5.0662
  912MOL0     O22986   6.411   6.991   2.211  0.4830  1.0228 -0.5249
  912MOL0     C22987   6.482   7.083   2.172 -0.6900  0.7916 -0.6081
  912MOL0     O22988   6.610   7.116   2.217 -0.2506  0.0050 -0.7229
  912MOL0     C22989   6.690   7.009   2.245  0.0194 -0.1591  0.3574
  912MOL0     C22990   6.743   6.990   2.374 -0.6921 -0.5057 -0.3317
  912MOL0     C22991   6.813   6.877   2.408 -0.1454 -0.2051  0.2380
  912MOL0     C22992   6.833   6.772   2.316 -0.5645  0.6164 -0.1757
  912MOL0     O22993   6.915   6.670   2.357  0.5945 -0.8322  0.8734
  912MOL0     C22994   7.016   6.631   2.261  0.3228 -0.0416 -0.7507
  912MOL0     C22995   7.128   6.561   2.342  0.1555 -0.4900 -0.1445
  912MOL0     C22996   7.243   6.513   2.240  0.4638 -0.0455  0.1554
  912MOL0     C22997   7.378   6.482   2.312  0.8985 -0.9416 -0.5883
  912MOL0     C22998   7.481   6.423   2.219 -0.5049  0.3973 -0.7471
  912MOL0     C22999   7.620   6.398   2.281  0.0191  0.3143  0.2657
  912MOL0     C23000   7.724   6.335   2.175 -0.7659  0.4208 -0.2273
  912MOL0     C23001   7.694   6.200   2.118 -0.4697  0.2801  0.2313
  912MOL0     N23002   7.702   6.094   2.225 -0.1057 -0.7067  0.5551
  912MOL0     C23003   7.821   6.037   2.269 -0.3494  0.1601  0.3414
  912MOL0     C23004   7.778   5.934   2.341  0.3791  0.7307  0.2373
  912MOL0     C23005   7.869   5.837   2.410  0.2579  0.4132 -0.4429
  912MOL0     C23006   7.810   5.741   2.510  0.6641 -0.3287  0.5693
  912MOL0     C23007   7.744   5.819   2.629  0.0500 -0.3346  0.6136
  912MOL0     C23008   7.684   5.709   2.714  0.0622 -0.4788 -0.2139
  912MOL0     O23009   7.612   5.600   2.654  0.6796 -0.0312  0.2530
  912MOL0     C23010   7.475   5.621   2.653 -0.4034  0.8184  0.1140
  912MOL0     C23011   7.401   5.506   2.692 -0.2370  0.6271  0.1322
  912MOL0     C23012   7.263   5.492   2.671  0.5116 -0.0003 -0.0568
  912MOL0     C23013   7.188   5.601   2.616 -0.8570  0.8068  0.7712
  912MOL0     C23014   7.043   5.604   2.601  0.3140 -0.5301  0.4572
  912MOL0     O23015   6.976   5.506   2.659 -0.5842 -0.0978 -0.4296
  912MOL0     C23016   6.845   5.491   2.620 -0.5647  0.5066 -0.6445
  912MOL0     C23017   6.805   5.469   2.489  0.1204 -0.1961 -0.6280
  912MOL0     C23018   6.670   5.440   2.465  0.6430 -0.4453  0.5487
  912MOL0     C23019   6.576   5.431   2.568  0.0120  0.5973  0.3000
  912MOL0     O23020   6.445   5.398   2.539 -0.4981 -0.1573 -0.3444
  912MOL0     C23021   6.343   5.493   2.577  1.0511 -0.7252 -0.2351
  912MOL0     C23022   6.242   5.500   2.460  0.0404 -0.2439 -0.3013
  912MOL0     C23023   6.127   5.595   2.498 -0.6965  0.6811 -0.0146
  912MOL0     C23024   6.045   5.614   2.377  0.9912 -0.1605 -0.7147
  912MOL0     C23025   5.915   5.697   2.408 -0.4112  0.3777  0.3835
  912MOL0     C23026   5.797   5.606   2.440 -0.1114 -0.7566 -0.6186
  912MOL0     C23027   5.666   5.680   2.454  0.4760  0.0575 -0.1549
  912MOL0     C23028   5.556   5.589   2.503 -0.6741 -0.4751 -1.0450
  912MOL0    Cl23029   5.553   5.440   2.408  0.1400 -0.2383  0.1955
  912MOL0     C23030   6.618   5.463   2.693  0.3089  0.2624  0.1679
  912MOL0     C23031   6.750   5.475   2.726 -0.0869 -0.7922 -0.2776
  912MOL0     O23032   6.996   5.697   2.523  0.0578  0.4025 -0.4488
  912MOL0     C23033   7.261   5.717   2.578  0.4305 -0.0931 -0.0611
  912MOL0     C23034   7.404   5.728   2.590  0.3412 -0.1698  0.1547
  912MOL0     N23035   7.638   5.929   2.342  0.9944 -0.1157  0.2190
  912MOL0     N23036   7.596   6.018   2.264 -0.5793 -0.8334 -0.1066
  912MOL0     C23037   6.787   6.797   2.184  0.2905  0.4217  0.6460
  912MOL0     C23038   6.716   6.912   2.150  0.0939  0.2108 -0.4882
  912MOL0     C23039   6.407   7.186   2.097  0.1869  0.2894 -0.6967
  912MOL0     C23040   6.447   7.316   2.132  0.1602 -0.5277  0.0182
  912MOL0     C23041   6.374   7.429   2.090 -0.1262  0.3531 -0.4508
  912MOL0     C23042   6.267   7.401   2.001 -0.2510 -0.2282 -0.6016
  912MOL0     O23043   6.198   7.514   1.969  0.1395  0.3280 -0.3152
  912MOL0     C23044   6.090   7.489   1.874  0.6861  0.3340 -0.0696
  912MOL0     C23045   6.054   7.617   1.808 -0.4779 -0.1196  0.2647
  912MOL0     C23046   6.010   7.727   1.895  0.4680 -0.0434 -0.2090
  912MOL0     C23047   6.124   7.813   1.962 -0.1001 -0.5068 -0.2675
  912MOL0     C23048   6.072   7.897   2.066  0.1351 -0.3139  0.1086
  912MOL0     C23049   6.018   7.975   2.144  0.2104  0.5418  1.0214
  912MOL0     C23050   6.233   7.272   1.957 -0.1515 -0.9236 -0.6796
  912MOL0     C23051   6.309   7.166   2.002 -0.4397 -0.5355  0.4867
  912MOL0     C23052   6.295   7.033   1.945  0.4953 -0.8743  0.2675
  912MOL0     H23053   6.735   7.068   2.448  1.4367 -0.7151  0.1712
  912MOL0     H23054   6.855   6.859   2.506 -0.7535 -1.7611  0.2317
  912MOL0     H23055   6.976   6.558   2.191  1.3497 -0.2510 -1.1387
  912MOL0     H23056   7.063   6.713   2.206 -0.8723  0.7376 -0.6513
  912MOL0     H23057   7.083   6.474   2.390 -0.0404 -2.2120 -3.1991
  912MOL0     H23058   7.174   6.624   2.418  0.7734 -1.9875  0.7649
  912MOL0     H23059   7.260   6.604   2.182  2.0979  0.5470  1.4879
  912MOL0     H23060   7.212   6.426   2.183 -0.4341  1.6550 -2.1193
  912MOL0     H23061   7.419   6.581   2.337  0.9085 -0.5414 -2.0604
  912MOL0     H23062   7.366   6.414   2.397  0.0251  0.9131  0.8396
  912MOL0     H23063   7.426   6.337   2.181 -1.9931  0.0714  1.9330
  912MOL0     H23064   7.511   6.494   2.140  4.2037  0.4268  0.7405
  912MOL0     H23065   7.652   6.491   2.327 -2.9877  1.4868  0.2053
  912MOL0     H23066   7.595   6.326   2.360  0.2106  1.3432  1.2832
  912MOL0     H23067   7.828   6.351   2.204 -1.1800  1.7683  0.6187
  912MOL0     H23068   7.717   6.392   2.081 -2.3622 -1.4013 -1.2689
  912MOL0     H23069   7.599   6.193   2.064  1.5338  0.5036 -3.6688
  912MOL0     H23070   7.761   6.187   2.033 -1.0481  1.0821 -0.3610
  912MOL0     H23071   7.916   6.072   2.231 -0.0231 -0.8154  0.2292
  912MOL0     H23072   7.924   5.768   2.345  2.3554 -0.5496  2.1502
  912MOL0     H23073   7.946   5.907   2.446 -0.1902  1.8382 -2.1685
  912MOL0     H23074   7.728   5.683   2.466  0.5118  1.0430 -1.0808
  912MOL0     H23075   7.885   5.671   2.547  1.2972  0.1545  0.2169
  912MOL0     H23076   7.663   5.883   2.591 -0.6829 -1.0077  1.0212
  912MOL0     H23077   7.815   5.888   2.674 -1.6978  1.6079  0.6010
  912MOL0     H23078   7.622   5.754   2.792 -0.8073 -1.5236 -0.2665
  912MOL0     H23079   7.770   5.660   2.759  1.1524 -0.0100 -1.7052
  912MOL0     H23080   7.457   5.428   2.742  4.8230  0.8500 -4.3753
  912MOL0     H23081   7.212   5.400   2.695  0.7803 -0.0813  0.2160
  912MOL0     H23082   6.878   5.461   2.410  0.7526  0.6645 -0.1434
  912MOL0     H23083   6.634   5.433   2.363  1.4693  2.8232 -0.1051
  912MOL0     H23084   6.287   5.451   2.661 -0.5302  0.8702 -0.4230
  912MOL0     H23085   6.379   5.592   2.607  0.2878 -0.4927 -0.0417
  912MOL0     H23086   6.291   5.532   2.368 -1.3432  0.8766 -0.6856
  912MOL0     H23087   6.201   5.401   2.438  1.2889 -1.2043  1.4266
  912MOL0     H23088   6.073   5.547   2.580  1.1702 -3.2451 -0.8407
  912MOL0     H23089   6.168   5.695   2.511 -1.2755  0.9364 -0.1618
  912MOL0     H23090   6.026   5.517   2.332  0.9825 -1.2227  1.4394
  912MOL0     H23091   6.103   5.672   2.305 -1.2045  0.9999 -1.6477
  912MOL0     H23092   5.899   5.754   2.316 -3.2334  0.9298  1.1292
  912MOL0     H23093   5.940   5.768   2.487 -1.1276 -0.2975  1.2404
  912MOL0     H23094   5.783   5.537   2.356 -0.6525 -0.5072 -0.7348
  912MOL0     H23095   5.819   5.547   2.529 -0.4390 -0.3596 -0.2724
  912MOL0     H23096   5.639   5.722   2.357  3.1082  1.9555 -0.1802
  912MOL0     H23097   5.675   5.767   2.519 -0.5393  1.0177 -1.2613
  912MOL0     H23098   5.572   5.578   2.611  3.3907 -1.1084 -1.5467
  912MOL0     H23099   5.459   5.638   2.498 -0.3254  0.5281  0.9051
  912MOL0     H23100   6.542   5.447   2.769  1.4307 -1.5782  0.9790
  912MOL0     H23101   6.773   5.489   2.831 -4.1773 -1.8845  0.9392
  912MOL0     H23102   7.216   5.806   2.536 -1.1634 -1.0835 -0.5221
  912MOL0     H23103   7.462   5.804   2.539  1.6892 -1.6118 -0.5915
  912MOL0     H23104   6.804   6.720   2.109 -0.5735  1.4058 -0.6005
  912MOL0     H23105   6.662   6.922   2.056 -1.3775  0.5401  0.3540
  912MOL0     H23106   6.533   7.323   2.199  0.5535 -2.1504 -0.2837
  912MOL0     H23107   6.388   7.531   2.122  2.7229  0.6859 -2.3061
  912MOL0     H23108   6.011   7.446   1.936 -0.1271 -0.2955 -1.5054
  912MOL0     H23109   6.120   7.425   1.790  2.8009 -0.4074  1.1375
  912MOL0     H23110   5.973   7.589   1.740 -0.0072  0.7416 -0.6835
  912MOL0     H23111   6.134   7.650   1.741 -0.9279  1.8549  0.6298
  912MOL0     H23112   5.966   7.676   1.980  1.3461 -0.0552  0.2538
  912MOL0     H23113   5.927   7.779   1.846  0.9151  1.2986  0.3854
  912MOL0     H23114   6.203   7.751   2.004 -0.6933 -0.2087  1.3506
  912MOL0     H23115   6.173   7.883   1.894 -0.6348 -0.6150 -0.7818
  912MOL0     H23116   5.970   8.035   2.219  0.6697  0.8353  1.0837
  912MOL0     H23117   6.157   7.252   1.882  0.3292 -1.2847 -1.0723
  912MOL0     H23118   6.393   6.992   1.919  0.7620  0.2917 -0.6607
  912MOL0     H23119   6.239   6.967   2.012 -2.8356 -2.4191 -3.5841
  912MOL0     H23120   6.240   7.041   1.851 -0.0363  0.7595  0.6786
  913MOL0     O23121   8.867   5.326   0.222  0.2264  0.1576  0.2476
  913MOL0     C23122   8.825   5.365   0.115  0.7711  0.2408 -0.9068
  913MOL0     O23123   8.902   5.432   0.020  0.2249  1.0293 -0.3783
  913MOL0     C23124   9.030   5.466   0.044 -0.3849  0.8087  0.3820
  913MOL0     C23125   9.119   5.361   0.039  0.2533  0.0903 -0.2265
  913MOL0     C23126   9.258   5.384   0.048  0.0002  1.1515 -0.4773
  913MOL0     C23127   9.304   5.512   0.083  0.0209  0.9581  1.1509
  913MOL0     O23128   9.437   5.532   0.101 -0.8367 -0.2262 -0.6696
  913MOL0     C23129   9.469   5.582   0.224 -0.1918 -0.0552 -1.0497
  913MOL0     C23130   9.627   5.561   0.243 -0.2084 -0.1733  0.1471
  913MOL0     C23131   9.655   5.413   0.270  0.2483 -0.5176  0.0346
  913MOL0     C23132   9.798   5.376   0.260 -0.4351  0.0037 -0.4724
  913MOL0     C23133   9.814   5.221   0.304  0.1491 -0.8732 -0.3418
  913MOL0     C23134   9.956   5.181   0.354  0.5661  0.0376 -0.4279
  913MOL0     C23135   9.954   5.055   0.446  1.2626 -0.4377  0.8410
  913MOL0     C23136  10.093   4.995   0.463  0.8457 -0.0355  0.1495
  913MOL0     N23137  10.107   4.889   0.560  0.1841 -0.3800  0.1758
  913MOL0     C23138  10.010   4.795   0.592 -0.1845  0.2037 -1.0635
  913MOL0     C23139  10.056   4.740   0.710  0.4564 -0.6418  1.2088
  913MOL0     C23140   9.963   4.660   0.795  0.0539 -0.1859 -0.0929
  913MOL0     C23141   9.890   4.741   0.902 -0.8313  0.5279  0.4235
  913MOL0     C23142   9.985   4.823   0.995 -0.1495  0.1459 -0.1639
  913MOL0     C23143   9.981   4.974   0.976  0.3891  0.0283  0.5393
  913MOL0     O23144  10.091   5.034   1.052  0.4109  0.2350 -0.5384
  913MOL0     C23145  10.196   5.087   0.985  0.1138  0.7776  0.8933
  913MOL0     C23146  10.313   5.076   1.054 -0.4999  0.7402 -0.8610
  913MOL0     C23147  10.430   5.125   0.999 -0.0084  0.0331  1.0062
  913MOL0     C23148  10.432   5.162   0.864  0.1905 -0.2963 -0.3698
  913MOL0     C23149  10.563   5.186   0.795  0.8527  0.7997 -0.3830
  913MOL0     O23150  10.677   5.175   0.871  1.2168  0.2176 -0.1389
  913MOL0     C23151  10.793   5.217   0.818 -0.5661 -0.1989  0.5384
  913MOL0     C23152  10.904   5.128   0.814  1.1439 -0.3096 -1.2372
  913MOL0     C23153  11.020   5.168   0.755 -0.0044 -0.2746 -0.3355
  913MOL0     C23154  11.042   5.297   0.714 -0.7002 -1.0308  0.4512
  913MOL0     O23155  11.158   5.337   0.657 -0.4919  0.5082 -0.0852
  913MOL0     C23156  11.266   5.326   0.739  0.8954 -0.0491 -0.4149
  913MOL0     C23157  11.390   5.396   0.675 -0.1534 -0.1370 -0.3749
  913MOL0     C23158  11.507   5.408   0.782  1.3781 -0.1399  0.5132
  913MOL0     C23159  11.574   5.275   0.807  0.3865 -0.8220  0.6790
  913MOL0     C23160  11.679   5.277   0.914  0.3435 -0.2249  0.7104
  913MOL0     C23161  11.809   5.355   0.885 -0.5598 -0.6449  0.5701
  913MOL0     C23162  11.901   5.380   1.006 -0.0781  0.3050 -0.4259
  913MOL0     C23163  11.978   5.266   1.074  0.4498  0.4564 -0.5142
  913MOL0    Cl23164  12.097   5.355   1.169  0.0827  0.3048  0.1786
  913MOL0     C23165  10.941   5.388   0.727  0.6810 -0.7998 -1.3988
  913MOL0     C23166  10.817   5.347   0.784 -0.7556 -1.0088  0.2410
  913MOL0     O23167  10.554   5.238   0.687  0.3630 -0.2512  0.0478
  913MOL0     C23168  10.313   5.173   0.791 -1.0472  0.3149 -0.0805
  913MOL0     C23169  10.191   5.152   0.858 -0.2341  0.7739 -0.4573
  913MOL0     N23170  10.184   4.789   0.736 -0.2395  0.7159 -0.0181
  913MOL0     N23171  10.216   4.881   0.652 -0.0191 -0.2496 -0.2411
  913MOL0     C23172   9.215   5.619   0.086 -0.1471 -0.8133  0.2403
  913MOL0     C23173   9.083   5.600   0.051  0.2347  0.1452  0.4234
  913MOL0     C23174   8.680   5.350   0.096  0.2041  0.3522  0.1370
  913MOL0     C23175   8.604   5.264   0.180  0.1384  0.2982 -0.1376
  913MOL0     C23176   8.474   5.229   0.145  0.7035  0.9318  0.7701
  913MOL0     C23177   8.403   5.298   0.048  0.3565  0.1756  1.2285
  913MOL0     O23178   8.278   5.274  -0.001 -0.1313  0.0909 -0.3978
  913MOL0     C23179   8.202   5.171   0.054  0.6000  0.7680  0.6625
  913MOL0     C23180   8.059   5.170   0.000 -1.1053 -0.1044 -0.3717
  913MOL0     C23181   8.058   5.145  -0.149  0.2174  0.6638  0.0393
  913MOL0     C23182   7.912   5.131  -0.198  1.2728 -0.5782 -0.3682
  913MOL0     C23183   7.862   4.995  -0.192  0.6954 -0.3691 -0.3961
  913MOL0     C23184   7.822   4.880  -0.196 -0.1383 -0.5191  0.0131
  913MOL0     C23185   8.473   5.396  -0.028 -0.5001  0.3956 -0.4846
  913MOL0     C23186   8.612   5.408  -0.016  0.5253 -0.6762  0.8854
  913MOL0     C23187   8.683   5.468  -0.142  0.6526  0.8621 -0.7135
  913MOL0     H23188   9.074   5.266   0.013  0.0856  0.4532 -1.3280
  913MOL0     H23189   9.331   5.304   0.042 -2.3291 -1.1474  0.0552
  913MOL0     H23190   9.437   5.685   0.243  0.7901  0.9837 -4.2679
  913MOL0     H23191   9.419   5.517   0.296  0.4063  0.6265  0.0247
  913MOL0     H23192   9.661   5.628   0.322  1.4255 -0.6874 -0.0927
  913MOL0     H23193   9.682   5.601   0.157 -0.8052  1.6031  0.5492
  913MOL0     H23194   9.602   5.349   0.199 -1.0047 -1.2524  1.5547
  913MOL0     H23195   9.618   5.390   0.370  0.0299  0.3816  0.1632
  913MOL0     H23196   9.848   5.392   0.164 -0.3037 -3.1293 -1.0471
  913MOL0     H23197   9.857   5.443   0.323  1.8311  0.6359 -3.0937
  913MOL0     H23198   9.745   5.207   0.388 -2.0037  0.1167 -1.8556
  913MOL0     H23199   9.786   5.153   0.222  0.7441 -2.2619  0.5681
  913MOL0     H23200  10.030   5.181   0.273  0.2958 -1.4049 -0.6940
  913MOL0     H23201   9.996   5.257   0.422  2.2284 -0.9550 -0.2370
  913MOL0     H23202   9.878   4.985   0.409  0.2950  0.6660  0.7050
  913MOL0     H23203   9.924   5.085   0.547 -3.4514 -3.1439  0.5413
  913MOL0     H23204  10.114   4.956   0.363  2.6383  1.0235  0.0693
  913MOL0     H23205  10.171   5.068   0.487 -1.4239  1.4638  3.6857
  913MOL0     H23206   9.910   4.785   0.552 -0.5611  2.5754 -0.8380
  913MOL0     H23207   9.879   4.623   0.736 -0.3461  0.1504  0.2622
  913MOL0     H23208  10.013   4.580   0.852  0.5350 -0.8470 -1.3997
  913MOL0     H23209   9.821   4.811   0.853  0.7098  1.4516 -0.5233
  913MOL0     H23210   9.836   4.676   0.971 -0.7254  1.6113  1.5563
  913MOL0     H23211  10.086   4.784   0.983 -0.6360 -1.2182 -0.1106
  913MOL0     H23212   9.965   4.808   1.102 -0.6613  2.3984  0.0900
  913MOL0     H23213   9.882   5.018   0.997 -0.4656 -0.2809 -2.3740
  913MOL0     H23214   9.989   4.993   0.869 -3.5478 -1.0723 -0.1197
  913MOL0     H23215  10.313   5.042   1.157 -1.0815  1.9864 -0.4321
  913MOL0     H23216  10.519   5.121   1.062  0.6550  0.1260  0.1007
  913MOL0     H23217  10.883   5.026   0.845  1.4492  0.0511  0.2441
  913MOL0     H23218  11.096   5.094   0.729 -1.3621 -1.2573 -1.6512
  913MOL0     H23219  11.246   5.364   0.840  0.5505 -1.8507  0.2362
  913MOL0     H23220  11.290   5.220   0.751  2.5418  0.3088 -0.3011
  913MOL0     H23221  11.416   5.355   0.577  0.2202  1.1126 -0.8178
  913MOL0     H23222  11.365   5.499   0.651  1.6020  0.5933  0.7434
  913MOL0     H23223  11.574   5.477   0.731  1.0978  0.7889  1.3642
  913MOL0     H23224  11.476   5.465   0.870  1.5397  2.4294 -0.9888
  913MOL0     H23225  11.616   5.245   0.710 -0.9797  1.6394 -0.7736
  913MOL0     H23226  11.503   5.195   0.832 -1.8108  0.8640  0.1346
  913MOL0     H23227  11.704   5.175   0.945  0.7553  0.1285  1.5946
  913MOL0     H23228  11.628   5.315   1.003 -0.7884 -5.6295  2.7794
  913MOL0     H23229  11.870   5.301   0.813 -2.4663  1.1374 -2.6126
  913MOL0     H23230  11.778   5.454   0.850 -2.5941 -1.9557 -1.5436
  913MOL0     H23231  11.841   5.425   1.086 -3.6362 -1.9431 -1.5959
  913MOL0     H23232  11.984   5.442   0.972  0.8965 -0.1547  0.9853
  913MOL0     H23233  11.919   5.191   1.128  1.2240 -0.9059 -1.5033
  913MOL0     H23234  12.038   5.207   1.005  0.5989 -0.7857  0.6298
  913MOL0     H23235  10.960   5.489   0.692 -0.0559 -0.5474 -1.0900
  913MOL0     H23236  10.736   5.419   0.785  1.1077  1.2222  1.2572
  913MOL0     H23237  10.308   5.212   0.690 -1.2869 -0.7976 -0.5135
  913MOL0     H23238  10.095   5.150   0.806 -1.5535 -0.9473  1.8426
  913MOL0     H23239   9.244   5.721   0.110  0.2995 -0.9045  0.0962
  913MOL0     H23240   9.015   5.683   0.065  1.6069  1.2978  0.3974
  913MOL0     H23241   8.658   5.211   0.257  1.0363  0.4725 -0.6289
  913MOL0     H23242   8.428   5.142   0.190  1.3043 -0.7227 -1.6101
  913MOL0     H23243   8.195   5.177   0.163  0.4733  2.7306  0.5942
  913MOL0     H23244   8.248   5.075   0.031 -0.7826  0.4971 -1.3111
  913MOL0     H23245   8.011   5.265   0.022  0.2405  0.5300 -0.0532
  913MOL0     H23246   8.009   5.094   0.061 -0.2254  0.3168  0.9172
  913MOL0     H23247   8.121   5.061  -0.179  0.7503  0.7458  0.9132
  913MOL0     H23248   8.090   5.235  -0.203 -0.5897 -0.3557 -2.2902
  913MOL0     H23249   7.845   5.199  -0.145  0.4091 -0.6723 -1.3174
  913MOL0     H23250   7.919   5.160  -0.303  0.0291 -0.8490 -0.5400
  913MOL0     H23251   7.780   4.783  -0.208 -1.9448  0.4023 -1.6447
  913MOL0     H23252   8.420   5.433  -0.116 -1.2148 -3.3814 -1.8534
  913MOL0     H23253   8.743   5.553  -0.109  0.3602  1.2090 -1.0625
  913MOL0     H23254   8.753   5.404  -0.196  1.9081  2.1297 -0.6303
  913MOL0     H23255   8.604   5.515  -0.201 -0.1985  2.4240  1.5146
  914MOL0     O23256   2.141   0.405   1.883  0.9143 -0.3148  0.6812
  914MOL0     C23257   2.257   0.362   1.896 -0.2937 -0.3858  0.4341
  914MOL0     O23258   2.295   0.261   1.973 -0.2027  0.2391 -0.1441
  914MOL0     C23259   2.195   0.177   2.016  0.3458 -0.3479 -0.1210
  914MOL0     C23260   2.155   0.170   2.152  0.6144  0.5957 -0.7053
  914MOL0     C23261   2.047   0.087   2.195  0.4074 -0.0066 -0.4730
  914MOL0     C23262   1.981   0.006   2.105  1.1280  0.1303  1.0490
  914MOL0     O23263   1.873  -0.085   2.139  0.1399 -0.2411  0.2721
  914MOL0     C23264   1.847  -0.090   2.281 -0.7602 -0.3419 -0.1767
  914MOL0     C23265   1.735  -0.184   2.294 -0.4414  0.1986  0.0698
  914MOL0     C23266   1.597  -0.139   2.236 -0.6495  0.1756  0.7528
  914MOL0     C23267   1.533  -0.031   2.313 -0.4787  0.5584  0.7470
  914MOL0     C23268   1.387  -0.001   2.261  0.7642 -0.7855 -1.1219
  914MOL0     C23269   1.323   0.133   2.321 -0.3820  0.6797 -0.1584
  914MOL0     C23270   1.171   0.114   2.342  0.0181 -0.2317  0.4983
  914MOL0     C23271   1.108   0.238   2.396 -0.7247 -0.5122  0.5654
  914MOL0     N23272   0.968   0.220   2.427 -0.2319  0.1264 -0.8116
  914MOL0     C23273   0.856   0.229   2.347  0.3916 -0.2491  0.0764
  914MOL0     C23274   0.746   0.203   2.431  0.0864 -0.0645  1.2680
  914MOL0     C23275   0.592   0.191   2.384  0.2734  0.1464  0.0541
  914MOL0     C23276   0.578   0.045   2.338 -0.7968 -0.2744  0.6334
  914MOL0     C23277   0.567  -0.062   2.451 -0.0966 -1.1166  0.1483
  914MOL0     C23278   0.608  -0.203   2.421  0.7286  0.1180  0.3614
  914MOL0     O23279   0.734  -0.227   2.348 -0.5729  0.0795 -0.2189
  914MOL0     C23280   0.856  -0.209   2.404  0.2582 -0.3823 -0.0899
  914MOL0     C23281   0.962  -0.273   2.343 -0.7864  0.0773 -0.1491
  914MOL0     C23282   1.088  -0.279   2.398  0.2843  0.0200  0.7288
  914MOL0     C23283   1.114  -0.216   2.518  0.2130  0.0886  0.5081
  914MOL0     C23284   1.244  -0.238   2.582  1.1956  0.6707 -0.0595
  914MOL0     O23285   1.321  -0.336   2.528 -0.3785  0.0485 -0.2500
  914MOL0     C23286   1.447  -0.360   2.581  0.6741  0.1324 -0.1020
  914MOL0     C23287   1.501  -0.484   2.546 -0.2539  0.2177  0.0974
  914MOL0     C23288   1.615  -0.534   2.608 -0.1287  0.3171  0.3964
  914MOL0     C23289   1.691  -0.455   2.687  0.1538  0.0741 -0.3312
  914MOL0     O23290   1.804  -0.504   2.747 -0.6563 -0.0033 -0.2478
  914MOL0     C23291   1.810  -0.638   2.808 -0.6848 -0.2085 -0.1959
  914MOL0     C23292   1.912  -0.643   2.922  0.3937  0.6088  0.2760
  914MOL0     C23293   2.056  -0.658   2.871 -0.6593 -0.6409  0.4421
  914MOL0     C23294   2.105  -0.800   2.812  0.4970  0.3110 -0.3248
  914MOL0     C23295   2.229  -0.786   2.717  0.2982  0.5351 -0.6343
  914MOL0     C23296   2.358  -0.744   2.789 -0.3058 -0.2480 -0.2215
  914MOL0     C23297   2.471  -0.740   2.690  0.6654 -0.3835 -0.5456
  914MOL0     C23298   2.608  -0.713   2.742 -0.3715  1.1716  0.1093
  914MOL0    Cl23299   2.663  -0.821   2.870  0.2481 -0.2808 -0.1676
  914MOL0     C23300   1.651  -0.324   2.708 -0.6243  0.2949 -0.7202
  914MOL0     C23301   1.531  -0.278   2.666  0.3478  0.4524  0.5376
  914MOL0     O23302   1.259  -0.180   2.693 -0.6274  0.5993  0.5771
  914MOL0     C23303   1.007  -0.141   2.581 -0.3091 -0.1194  0.5596
  914MOL0     C23304   0.877  -0.154   2.533 -0.3471 -0.1525  0.4017
  914MOL0     N23305   0.796   0.177   2.555 -0.2040 -1.2421 -1.0832
  914MOL0     N23306   0.923   0.193   2.554  0.6957  0.8816 -0.2850
  914MOL0     C23307   2.025   0.009   1.974 -0.0594 -0.7308  0.8314
  914MOL0     C23308   2.124   0.095   1.931  0.6446 -0.4962 -0.3340
  914MOL0     C23309   2.367   0.435   1.831 -0.3354 -0.1496 -0.4265
  914MOL0     C23310   2.479   0.363   1.789  0.0995 -0.4355 -0.3447
  914MOL0     C23311   2.586   0.435   1.727 -0.2730 -0.7996  0.9266
  914MOL0     C23312   2.583   0.576   1.702 -0.1949 -0.0618 -0.1479
  914MOL0     O23313   2.699   0.632   1.647 -0.1333  0.5130  0.2207
  914MOL0     C23314   2.720   0.772   1.651 -0.9996  0.0234 -0.2124
  914MOL0     C23315   2.856   0.810   1.597 -0.3750 -0.4192  0.6310
  914MOL0     C23316   2.983   0.772   1.686 -0.4843 -0.3051  0.3944
  914MOL0     C23317   3.116   0.832   1.635  0.9492 -0.0185 -0.1538
  914MOL0     C23318   3.215   0.833   1.739 -0.5198 -0.2327  0.2125
  914MOL0     C23319   3.307   0.836   1.820  0.0870 -0.1134 -0.0242
  914MOL0     C23320   2.477   0.645   1.766  0.5892 -0.5829 -0.4980
  914MOL0     C23321   2.370   0.579   1.823 -0.4968 -0.3370  0.0610
  914MOL0     C23322   2.273   0.667   1.894 -0.3126 -0.0136  0.6667
  914MOL0     H23323   2.196   0.233   2.229  0.4581 -1.3696  1.0702
  914MOL0     H23324   2.005   0.090   2.295 -0.1216 -1.7634 -0.6140
  914MOL0     H23325   1.934  -0.139   2.324 -0.5372 -0.2470 -0.5239
  914MOL0     H23326   1.819   0.003   2.333  0.0834  0.2968 -0.8349
  914MOL0     H23327   1.730  -0.206   2.401 -1.2345  0.0243  0.0034
  914MOL0     H23328   1.751  -0.284   2.253 -0.1263 -0.9273  2.6990
  914MOL0     H23329   1.532  -0.227   2.234  0.6753 -0.8196  0.1086
  914MOL0     H23330   1.600  -0.120   2.128 -3.0297 -0.7939  0.4363
  914MOL0     H23331   1.518  -0.057   2.419 -0.7193  1.0270  0.8317
  914MOL0     H23332   1.592   0.060   2.298  0.4673 -0.5820 -3.7987
  914MOL0     H23333   1.395   0.002   2.152  2.1456 -3.3643 -1.1585
  914MOL0     H23334   1.330  -0.093   2.278  0.1152 -0.4361 -1.3466
  914MOL0     H23335   1.363   0.147   2.422 -0.5726 -1.1234  0.2011
  914MOL0     H23336   1.354   0.213   2.254  3.2213 -1.2790 -1.0954
  914MOL0     H23337   1.161   0.024   2.403 -0.5625 -1.2119 -0.9771
  914MOL0     H23338   1.127   0.079   2.248 -1.3803 -1.5240  1.5952
  914MOL0     H23339   1.158   0.275   2.486 -0.9868 -0.9860  0.9097
  914MOL0     H23340   1.102   0.314   2.318  1.7377  0.0771  0.8766
  914MOL0     H23341   0.846   0.249   2.241  2.2678  0.9687  0.0782
  914MOL0     H23342   0.512   0.205   2.457 -0.8797 -1.7776 -0.7764
  914MOL0     H23343   0.580   0.263   2.302  2.1208  0.7441  0.2489
  914MOL0     H23344   0.481   0.037   2.289 -0.5640 -1.5378  0.3262
  914MOL0     H23345   0.659   0.022   2.268 -0.0975  1.1840  0.9265
  914MOL0     H23346   0.466  -0.048   2.490 -0.1001 -0.7355  0.0076
  914MOL0     H23347   0.623  -0.023   2.537 -2.2843  0.7492  0.8287
  914MOL0     H23348   0.531  -0.244   2.356  1.1215  0.1867 -0.1593
  914MOL0     H23349   0.621  -0.270   2.506 -1.9484 -2.8745 -1.3788
  914MOL0     H23350   0.944  -0.316   2.245  1.7816  0.1082 -0.6928
  914MOL0     H23351   1.168  -0.340   2.357  0.2924  0.9047 -0.6806
  914MOL0     H23352   1.450  -0.553   2.480 -1.2023  1.2554 -0.2835
  914MOL0     H23353   1.652  -0.633   2.585  0.8801  0.6441  0.5421
  914MOL0     H23354   1.712  -0.641   2.857  0.3679  1.7586  2.2756
  914MOL0     H23355   1.816  -0.719   2.736 -1.0661  0.5796 -1.1485
  914MOL0     H23356   1.907  -0.552   2.982 -1.0231  1.1912 -0.6901
  914MOL0     H23357   1.902  -0.733   2.984  0.9383  0.4882  0.2026
  914MOL0     H23358   2.078  -0.593   2.786  1.0803  0.6171  1.7881
  914MOL0     H23359   2.124  -0.622   2.949  1.3374  0.6692 -1.7652
  914MOL0     H23360   2.021  -0.839   2.753  0.9408  0.4455 -1.0535
  914MOL0     H23361   2.128  -0.867   2.894  1.2634  0.7307 -0.1932
  914MOL0     H23362   2.208  -0.721   2.631  0.9765  0.7417 -0.6526
  914MOL0     H23363   2.242  -0.889   2.682 -0.3436  0.5280 -0.8586
  914MOL0     H23364   2.351  -0.645   2.835 -0.1497 -1.4453  2.5817
  914MOL0     H23365   2.374  -0.822   2.864  0.3237 -2.0165 -2.1153
  914MOL0     H23366   2.445  -0.653   2.629 -0.2483  0.7067  1.3230
  914MOL0     H23367   2.477  -0.820   2.616 -4.3641  0.4592 -2.2135
  914MOL0     H23368   2.675  -0.727   2.657  0.0069  1.6421  0.3260
  914MOL0     H23369   2.617  -0.607   2.769  1.7178  0.8820  0.7278
  914MOL0     H23370   1.726  -0.277   2.771 -1.2287 -1.0862  1.1292
  914MOL0     H23371   1.492  -0.185   2.704 -0.0994  0.1925  0.7288
  914MOL0     H23372   1.027  -0.093   2.677 -2.0298 -1.0253  1.4134
  914MOL0     H23373   0.798  -0.105   2.589 -0.3197  1.5424 -0.9545
  914MOL0     H23374   1.975  -0.054   1.901  1.1006  0.5364 -1.1299
  914MOL0     H23375   2.142   0.091   1.824  1.4502  3.1757 -0.4448
  914MOL0     H23376   2.494   0.257   1.804 -0.3471 -0.6541 -1.4049
  914MOL0     H23377   2.676   0.379   1.705  1.4923  1.4252  2.0192
  914MOL0     H23378   2.717   0.815   1.752 -1.1226 -1.2196  0.3220
  914MOL0     H23379   2.650   0.834   1.595 -1.7399  2.4894  3.0851
  914MOL0     H23380   2.863   0.917   1.572 -0.6607 -0.2529  1.2544
  914MOL0     H23381   2.869   0.758   1.502  0.3062  0.1769  0.3866
  914MOL0     H23382   2.991   0.663   1.675  1.9409 -0.0495 -1.0246
  914MOL0     H23383   2.965   0.800   1.790  3.4832  0.3215  1.0680
  914MOL0     H23384   3.152   0.768   1.554 -1.4016 -2.3464  0.5055
  914MOL0     H23385   3.105   0.934   1.598  2.5133 -0.7611 -2.9739
  914MOL0     H23386   3.382   0.828   1.896  1.7940  2.8980 -1.2434
  914MOL0     H23387   2.493   0.752   1.759 -3.7721  0.1909 -1.4418
  914MOL0     H23388   2.169   0.647   1.865 -0.0483  1.6994 -1.8580
  914MOL0     H23389   2.282   0.650   2.001  0.5689  1.6114  0.8731
  914MOL0     H23390   2.301   0.769   1.869  0.8615 -1.2154 -3.8849
  915MOL0     O23391   0.591   6.525   3.003  0.2548 -0.7305  0.0949
  915MOL0     C23392   0.619   6.495   2.886  0.3552 -0.3036 -0.3938
  915MOL0     O23393   0.662   6.586   2.791  0.0319  0.1493 -0.1714
  915MOL0     C23394   0.728   6.697   2.837 -0.9561  0.2410 -0.2712
  915MOL0     C23395   0.665   6.805   2.903 -0.6049 -0.2952  1.1049
  915MOL0     C23396   0.749   6.915   2.949  0.0626 -0.6272  0.1838
  915MOL0     C23397   0.884   6.910   2.934  0.7469  0.0324 -0.9224
  915MOL0     O23398   0.958   7.018   2.975  0.1825  0.1015  0.7562
  915MOL0     C23399   1.072   6.986   3.061  0.7182  0.1317  0.2559
  915MOL0     C23400   1.108   7.117   3.141 -0.5798  0.2080 -0.2384
  915MOL0     C23401   1.196   7.213   3.066 -0.0003 -0.0795  0.6952
  915MOL0     C23402   1.247   7.331   3.159 -0.5455  0.2164  0.5876
  915MOL0     C23403   1.375   7.389   3.097  0.1206 -0.1492  0.0722
  915MOL0     C23404   1.419   7.517   3.166 -0.1825 -0.1522 -0.1629
  915MOL0     C23405   1.562   7.576   3.133 -0.1036  0.4313  0.2213
  915MOL0     C23406   1.672   7.491   3.199 -0.1136  0.3854 -0.0807
  915MOL0     N23407   1.746   7.550   3.311  0.2089  0.6183  0.6044
  915MOL0     C23408   1.877   7.599   3.314 -0.3387  0.7615 -0.4132
  915MOL0     C23409   1.893   7.647   3.441  0.2766  0.2718 -0.3193
  915MOL0     C23410   2.016   7.708   3.504  0.1320 -0.1631  0.2221
  915MOL0     C23411   2.005   7.861   3.498 -0.0492 -0.1069  0.4410
  915MOL0     C23412   2.123   7.930   3.568  0.0886 -0.4517  0.1100
  915MOL0     C23413   2.117   8.080   3.599  0.0860  0.1377  0.8016
  915MOL0     O23414   2.217   8.119   3.682  0.3275  0.0004 -0.5220
  915MOL0     C23415   2.345   8.121   3.644 -0.6351 -0.7325  0.7382
  915MOL0     C23416   2.435   8.017   3.680  0.3040 -0.1903 -0.9354
  915MOL0     C23417   2.572   8.033   3.664 -0.7256 -0.5112  0.1382
  915MOL0     C23418   2.621   8.148   3.605 -0.1177 -0.4235  0.0124
  915MOL0     C23419   2.768   8.163   3.570  0.4299  0.0327  0.0494
  915MOL0     O23420   2.852   8.052   3.602 -0.0479  0.0417  0.1998
  915MOL0     C23421   2.984   8.053   3.573  0.0539  0.9305 -1.2195
  915MOL0     C23422   3.068   8.094   3.667  0.0560  0.0249  0.4854
  915MOL0     C23423   3.201   8.098   3.651 -0.0701  0.5356 -0.0227
  915MOL0     C23424   3.257   8.060   3.535 -0.4412  0.7387  0.4771
  915MOL0     O23425   3.392   8.048   3.543 -0.3112 -0.6802 -0.3216
  915MOL0     C23426   3.465   7.999   3.427 -0.1540  0.0643  0.2562
  915MOL0     C23427   3.607   7.964   3.484  0.2662 -0.6089  0.8858
  915MOL0     C23428   3.708   7.916   3.384  0.1243 -0.1690  0.3522
  915MOL0     C23429   3.839   7.874   3.453  0.4254 -0.2418  0.3117
  915MOL0     C23430   3.967   7.866   3.361 -0.2066 -0.7084 -0.4128
  915MOL0     C23431   4.088   7.793   3.433 -0.4925 -0.1438 -0.1857
  915MOL0     C23432   4.212   7.776   3.346 -0.5075  0.3333 -0.0870
  915MOL0     C23433   4.307   7.659   3.387  0.1592  0.1116 -0.1862
  915MOL0    Cl23434   4.464   7.666   3.302 -0.1480  0.2702  0.0526
  915MOL0     C23435   3.171   8.023   3.424  0.0166  0.4726 -0.5437
  915MOL0     C23436   3.034   8.010   3.450 -0.1124  0.3267  0.4103
  915MOL0     O23437   2.811   8.265   3.521  0.5460  0.3826  0.6941
  915MOL0     C23438   2.531   8.250   3.561  0.2420  0.3411 -0.3405
  915MOL0     C23439   2.395   8.241   3.593 -0.4861  0.2242  0.5220
  915MOL0     N23440   1.769   7.627   3.513  0.2885  0.3549  0.3659
  915MOL0     N23441   1.695   7.564   3.438  0.6887 -0.1601  0.1537
  915MOL0     C23442   0.948   6.803   2.876  0.7261 -0.2759  1.1548
  915MOL0     C23443   0.869   6.699   2.825  0.1169 -0.2786  0.1701
  915MOL0     C23444   0.584   6.355   2.854 -0.0568 -0.0972  0.4889
  915MOL0     C23445   0.515   6.322   2.737  0.8975  0.1379 -0.1104
  915MOL0     C23446   0.492   6.191   2.696  0.0745 -0.0902 -0.0965
  915MOL0     C23447   0.541   6.080   2.774 -0.0306  0.0097  0.0310
  915MOL0     O23448   0.509   5.947   2.738 -0.6877  0.2496  0.0632
  915MOL0     C23449   0.596   5.834   2.772 -0.3042 -0.3455 -0.5297
  915MOL0     C23450   0.509   5.738   2.853  0.7317  0.0032  0.4202
  915MOL0     C23451   0.490   5.785   3.001  0.4799  0.0871  0.6435
  915MOL0     C23452   0.371   5.703   3.058  0.1782 -0.3116  0.2832
  915MOL0     C23453   0.333   5.731   3.202 -0.4249 -0.7711 -0.4071
  915MOL0     C23454   0.306   5.758   3.319 -0.3450 -0.0721  0.9215
  915MOL0     C23455   0.600   6.112   2.893  0.2455  0.1560  0.8966
  915MOL0     C23456   0.633   6.242   2.934 -0.1819  0.0367 -0.1515
  915MOL0     C23457   0.741   6.256   3.034 -0.4227 -0.6503 -0.2517
  915MOL0     H23458   0.558   6.792   2.912 -0.9995 -2.2325 -3.5034
  915MOL0     H23459   0.703   7.004   2.990  0.4805  1.6145 -3.6720
  915MOL0     H23460   1.040   6.909   3.132 -2.3619  1.3254  0.3226
  915MOL0     H23461   1.159   6.960   3.001 -0.2515 -2.3561 -0.1677
  915MOL0     H23462   1.167   7.074   3.223 -1.9773 -3.7843 -1.1051
  915MOL0     H23463   1.022   7.167   3.187  0.5317  3.1088 -1.0943
  915MOL0     H23464   1.143   7.260   2.983  1.3697 -1.1810 -0.8687
  915MOL0     H23465   1.283   7.158   3.029  0.1500  0.3914  0.3407
  915MOL0     H23466   1.170   7.408   3.166  0.9220  1.8546 -0.5835
  915MOL0     H23467   1.267   7.281   3.254 -2.3867 -1.3346  0.2381
  915MOL0     H23468   1.457   7.317   3.106  0.7596  0.5303 -0.1361
  915MOL0     H23469   1.368   7.405   2.989 -1.3371 -2.1607 -0.1860
  915MOL0     H23470   1.334   7.585   3.150 -1.4170 -1.2260  1.4325
  915MOL0     H23471   1.419   7.510   3.275 -1.1240  1.1642 -0.0505
  915MOL0     H23472   1.566   7.673   3.182  0.1457  0.2025  0.6604
  915MOL0     H23473   1.587   7.584   3.026  1.5171 -1.2109  0.4204
  915MOL0     H23474   1.626   7.405   3.249  0.4727  0.5327  0.7246
  915MOL0     H23475   1.743   7.449   3.127  1.8452  0.9312  1.4477
  915MOL0     H23476   1.951   7.578   3.238 -1.4879  0.3643 -1.4572
  915MOL0     H23477   2.022   7.683   3.611  4.2412 -0.4762  0.0670
  915MOL0     H23478   2.106   7.670   3.455  0.6677 -0.5983  1.4779
  915MOL0     H23479   2.007   7.902   3.396  4.2155 -0.5482  0.1374
  915MOL0     H23480   1.911   7.895   3.541 -0.7474  1.6869 -2.2514
  915MOL0     H23481   2.205   7.912   3.497 -0.2741 -3.3491  0.3157
  915MOL0     H23482   2.143   7.882   3.664  1.7196  3.2297  1.7916
  915MOL0     H23483   2.023   8.099   3.652  0.8593  0.6957  2.0117
  915MOL0     H23484   2.129   8.139   3.507  2.1824  0.2792  1.1334
  915MOL0     H23485   2.389   7.929   3.724 -0.1326  1.2386  1.6750
  915MOL0     H23486   2.647   7.956   3.684 -1.5063 -1.9282 -2.0163
  915MOL0     H23487   3.012   8.131   3.752 -3.3100  0.6621 -1.7772
  915MOL0     H23488   3.257   8.110   3.743 -1.4480 -2.2890  1.2927
  915MOL0     H23489   3.432   7.901   3.394 -1.1440  0.2708  0.5903
  915MOL0     H23490   3.468   8.075   3.348 -0.3455  0.5233  0.6819
  915MOL0     H23491   3.637   8.058   3.532 -0.3128 -0.5695  1.1886
  915MOL0     H23492   3.603   7.892   3.566 -0.4168 -1.3631  0.2075
  915MOL0     H23493   3.651   7.840   3.330  0.7211  1.7896 -3.3615
  915MOL0     H23494   3.732   8.002   3.320 -0.3600  0.9426  1.5997
  915MOL0     H23495   3.814   7.778   3.500  2.4137  0.0078  2.0275
  915MOL0     H23496   3.876   7.935   3.535 -0.6469 -2.4736  2.6114
  915MOL0     H23497   4.009   7.964   3.338 -0.1715  0.2041  2.9781
  915MOL0     H23498   3.944   7.812   3.269  2.0767 -1.8531 -0.3703
  915MOL0     H23499   4.114   7.848   3.524  0.0771 -1.5974  0.5589
  915MOL0     H23500   4.049   7.692   3.448  1.7784 -0.9808  0.4188
  915MOL0     H23501   4.274   7.866   3.344 -0.3693  0.2424  0.0099
  915MOL0     H23502   4.185   7.761   3.241 -0.4727 -3.2818  0.2796
  915MOL0     H23503   4.323   7.669   3.495  0.9950 -0.2409 -0.2639
  915MOL0     H23504   4.257   7.564   3.364 -2.1476  1.0862  0.5497
  915MOL0     H23505   3.203   7.998   3.324 -0.1947 -2.0904 -0.0470
  915MOL0     H23506   2.964   7.990   3.370 -1.9599 -0.8900  2.2480
  915MOL0     H23507   2.559   8.340   3.507 -0.5816  1.0702  0.4087
  915MOL0     H23508   2.324   8.322   3.585  0.8278  1.5461  1.5606
  915MOL0     H23509   1.055   6.799   2.856  0.4512  1.9983 -1.2294
  915MOL0     H23510   0.909   6.614   2.772  2.1374  1.1761 -0.7910
  915MOL0     H23511   0.477   6.398   2.671 -0.7884 -0.8796 -0.3584
  915MOL0     H23512   0.450   6.159   2.601  3.3172  1.6518 -2.2890
  915MOL0     H23513   0.689   5.866   2.818 -1.1619  1.9624 -0.2442
  915MOL0     H23514   0.628   5.790   2.677  0.5529 -1.1314  0.1085
  915MOL0     H23515   0.559   5.641   2.850  1.5552  0.3011 -4.9717
  915MOL0     H23516   0.411   5.724   2.808  1.8004 -0.4228 -1.8937
  915MOL0     H23517   0.458   5.890   3.007 -3.7200 -0.7630 -2.1859
  915MOL0     H23518   0.581   5.776   3.061 -0.1330 -0.2380  1.5262
  915MOL0     H23519   0.283   5.736   3.001 -1.0728  1.6293  3.0929
  915MOL0     H23520   0.373   5.598   3.028  2.0536 -0.5286  1.0198
  915MOL0     H23521   0.304   5.799   3.418  0.5732  1.1205  0.4552
  915MOL0     H23522   0.626   6.032   2.963 -1.9180 -1.5609 -0.1410
  915MOL0     H23523   0.720   6.232   3.139  0.6203  0.5781  0.2577
  915MOL0     H23524   0.826   6.194   3.005  0.7204  0.9810 -0.4980
  915MOL0     H23525   0.783   6.355   3.051 -0.5448 -0.5560 -0.5027
  916MOL0     O23526  11.190   7.075   7.392 -0.4564 -0.5547  0.7383
  916MOL0     C23527  11.141   6.998   7.475  0.1869 -1.0274  0.6922
  916MOL0     O23528  11.216   6.922   7.563 -0.2256 -0.6415 -0.6758
  916MOL0     C23529  11.338   6.893   7.517  0.4980  0.2279  0.7725
  916MOL0     C23530  11.448   6.943   7.588  0.1118  0.3916 -0.8530
  916MOL0     C23531  11.576   6.907   7.548  0.2319 -1.0004 -0.3964
  916MOL0     C23532  11.595   6.839   7.429 -0.0932  1.2363  0.1142
  916MOL0     O23533  11.719   6.807   7.370  0.0710 -0.5226 -0.5577
  916MOL0     C23534  11.838   6.844   7.448  0.0792  0.1949 -0.0064
  916MOL0     C23535  11.948   6.750   7.394 -0.1137  0.1214  0.2792
  916MOL0     C23536  12.084   6.826   7.406 -0.0298  0.3561 -0.5205
  916MOL0     C23537  12.197   6.721   7.392  0.1317  0.5030  0.3108
  916MOL0     C23538  12.342   6.768   7.393 -0.6178 -0.1324 -0.0810
  916MOL0     C23539  12.445   6.657   7.403 -0.2948  0.0773 -0.3952
  916MOL0     C23540  12.590   6.691   7.369 -0.3458  0.8697 -0.2508
  916MOL0     C23541  12.669   6.780   7.462 -0.9329 -0.5569  0.6780
  916MOL0     N23542  12.675   6.737   7.602  0.4762  0.5938  0.9078
  916MOL0     C23543  12.601   6.797   7.704  0.2234  0.7020  0.3257
  916MOL0     C23544  12.651   6.730   7.817  0.1280 -0.2856 -0.5363
  916MOL0     C23545  12.606   6.773   7.961  0.4357  0.1104 -0.0737
  916MOL0     C23546  12.702   6.724   8.068 -1.1534  0.7721  0.1887
  916MOL0     C23547  12.673   6.752   8.223 -0.5678  0.5295  0.7356
  916MOL0     C23548  12.790   6.684   8.299 -0.1667 -0.1350 -0.3482
  916MOL0     O23549  12.912   6.746   8.271 -0.2550  0.2349 -0.0219
  916MOL0     C23550  13.029   6.711   8.331  0.4446  0.5436  0.2171
  916MOL0     C23551  13.052   6.624   8.433  1.4916 -0.6734  0.9348
  916MOL0     C23552  13.174   6.601   8.484 -0.0353 -0.7998 -0.1249
  916MOL0     C23553  13.288   6.666   8.438  0.2016 -0.5168 -0.3774
  916MOL0     C23554  13.424   6.635   8.488  0.2398  0.5105 -0.0319
  916MOL0     O23555  13.521   6.669   8.405  0.5268  0.0735  0.2476
  916MOL0     C23556  13.658   6.683   8.424  0.1348 -1.0544 -0.4214
  916MOL0     C23557  13.743   6.703   8.319  0.9617 -0.0049 -0.0813
  916MOL0     C23558  13.880   6.690   8.337  0.6215  0.5004 -0.7490
  916MOL0     C23559  13.937   6.691   8.462 -0.7978  0.1834  0.8522
  916MOL0     O23560  14.076   6.698   8.461  0.5782  0.6920 -0.0820
  916MOL0     C23561  14.150   6.683   8.588 -0.9294  0.4204  1.0050
  916MOL0     C23562  14.151   6.822   8.663  0.1005  0.3540  0.3747
  916MOL0     C23563  14.284   6.828   8.733 -0.6611  0.5821 -0.7468
  916MOL0     C23564  14.388   6.893   8.643 -0.0531 -0.0797 -0.0522
  916MOL0     C23565  14.523   6.917   8.707  0.2937 -0.4033 -0.6199
  916MOL0     C23566  14.615   6.999   8.618  0.0787  0.7258 -0.1553
  916MOL0     C23567  14.750   7.036   8.674  0.4155  0.6850  0.3074
  916MOL0     C23568  14.841   7.113   8.577  0.1303 -0.2535 -0.0580
  916MOL0    Cl23569  14.893   7.000   8.449  0.4479 -0.6709 -0.0134
  916MOL0     C23570  13.858   6.670   8.574  0.8147  0.1584  0.3333
  916MOL0     C23571  13.715   6.680   8.552  0.3266  0.1479 -0.6192
  916MOL0     O23572  13.441   6.577   8.600  0.3934 -0.4188 -0.7604
  916MOL0     C23573  13.273   6.753   8.332  0.4514 -0.5540  0.0228
  916MOL0     C23574  13.143   6.778   8.275  0.2513  0.2306 -0.0239
  916MOL0     N23575  12.736   6.638   7.779  0.1096 -0.3051 -0.3036
  916MOL0     N23576  12.746   6.634   7.652 -0.1676 -0.5500 -0.0948
  916MOL0     C23577  11.488   6.782   7.363 -0.7398  0.4255 -1.0207
  916MOL0     C23578  11.357   6.811   7.406 -0.2030 -0.5254  0.1188
  916MOL0     C23579  10.995   6.995   7.469 -0.7868 -0.0979 -0.1860
  916MOL0     C23580  10.941   6.992   7.595  0.0482 -0.4957 -0.3503
  916MOL0     C23581  10.797   6.999   7.603  0.1433 -0.1899  0.4721
  916MOL0     C23582  10.720   7.011   7.489  0.0886  0.1081 -0.7845
  916MOL0     O23583  10.584   7.040   7.492  0.1593 -0.0691  0.2031
  916MOL0     C23584  10.518   7.066   7.616  0.3942  0.2143  0.1314
  916MOL0     C23585  10.374   7.122   7.595  0.0044  0.1737  0.6428
  916MOL0     C23586  10.280   7.013   7.528  0.3978 -0.2769 -0.3912
  916MOL0     C23587  10.137   7.055   7.511 -0.1092 -1.0897  0.3422
  916MOL0     C23588  10.119   7.177   7.426  0.0975  0.2821  0.6937
  916MOL0     C23589  10.110   7.254   7.326  0.8755  0.0813  0.2343
  916MOL0     C23590  10.780   7.004   7.361 -1.3095 -0.4205 -0.0882
  916MOL0     C23591  10.917   6.992   7.350  0.0594 -0.3342  0.2611
  916MOL0     C23592  10.973   6.990   7.208 -0.4759 -0.2523  0.6821
  916MOL0     H23593  11.428   6.992   7.682 -1.9256 -1.1670 -0.3855
  916MOL0     H23594  11.660   6.933   7.611 -0.6207  0.4202  0.2165
  916MOL0     H23595  11.856   6.950   7.425  2.2271  0.5253  2.6345
  916MOL0     H23596  11.836   6.825   7.556  1.6725 -2.7304 -0.4127
  916MOL0     H23597  11.931   6.711   7.293 -1.6489 -0.8199  0.8767
  916MOL0     H23598  11.945   6.668   7.466  0.3711  1.3142  1.7130
  916MOL0     H23599  12.076   6.864   7.508 -3.3816  0.1446 -0.5795
  916MOL0     H23600  12.092   6.901   7.327  1.7846  0.7177 -0.0340
  916MOL0     H23601  12.187   6.652   7.476  0.1318  0.0286 -0.0753
  916MOL0     H23602  12.184   6.665   7.299  1.4891  0.1237  0.3224
  916MOL0     H23603  12.375   6.826   7.306  5.1268  1.2774  2.5704
  916MOL0     H23604  12.358   6.833   7.479 -0.7776  0.1367 -0.2557
  916MOL0     H23605  12.447   6.617   7.505  1.3692 -3.0797 -1.5358
  916MOL0     H23606  12.413   6.572   7.342  0.0044 -0.8335  0.6892
  916MOL0     H23607  12.597   6.732   7.268 -0.0889 -0.6167 -0.8656
  916MOL0     H23608  12.649   6.598   7.365  1.0065  1.7178 -0.9675
  916MOL0     H23609  12.770   6.785   7.419 -0.9499 -1.0757  0.5736
  916MOL0     H23610  12.623   6.879   7.458  2.4854  1.1490 -1.8367
  916MOL0     H23611  12.527   6.876   7.700 -0.6003 -0.0972 -0.6094
  916MOL0     H23612  12.603   6.882   7.972  0.7786 -0.0294  1.6749
  916MOL0     H23613  12.509   6.727   7.980 -0.2126  1.2276 -0.5947
  916MOL0     H23614  12.717   6.616   8.054  1.3882  0.7756  2.1736
  916MOL0     H23615  12.802   6.764   8.045  0.4693 -1.5457  2.5742
  916MOL0     H23616  12.582   6.701   8.256 -0.4019  1.1696  2.2384
  916MOL0     H23617  12.665   6.860   8.239  2.2341  0.9883 -0.4463
  916MOL0     H23618  12.794   6.575   8.289 -1.6442 -0.3189  0.7428
  916MOL0     H23619  12.774   6.709   8.404  0.6189 -1.2556  0.0673
  916MOL0     H23620  12.977   6.559   8.477  0.0563 -0.4056 -0.9429
  916MOL0     H23621  13.176   6.536   8.572 -2.2679 -0.4427  0.2553
  916MOL0     H23622  13.702   6.716   8.220 -1.3726  2.0538  1.0321
  916MOL0     H23623  13.954   6.698   8.257  1.5559 -0.9681 -0.0738
  916MOL0     H23624  14.116   6.606   8.657 -0.6142 -1.2618 -0.6343
  916MOL0     H23625  14.253   6.667   8.553 -1.0761  0.0444  0.7415
  916MOL0     H23626  14.160   6.899   8.587  1.7846 -0.2470 -0.0766
  916MOL0     H23627  14.067   6.828   8.733 -1.2614  0.2796 -1.1712
  916MOL0     H23628  14.267   6.893   8.820  1.6785  2.1599 -1.3558
  916MOL0     H23629  14.322   6.732   8.769 -0.6131  1.1091  0.6813
  916MOL0     H23630  14.356   6.991   8.609  3.0856  1.2501  0.5024
  916MOL0     H23631  14.399   6.841   8.547 -0.9353  2.3773 -1.5604
  916MOL0     H23632  14.578   6.825   8.728 -0.7379 -1.4873 -2.4533
  916MOL0     H23633  14.500   6.973   8.799 -1.4845  0.2871 -1.4425
  916MOL0     H23634  14.625   6.946   8.522  0.5147  2.9597 -1.4156
  916MOL0     H23635  14.566   7.089   8.581  0.5019  1.5242  1.1678
  916MOL0     H23636  14.804   6.953   8.720  2.7073  2.0419  0.2163
  916MOL0     H23637  14.734   7.101   8.760  0.9775  1.5779 -0.2383
  916MOL0     H23638  14.788   7.206   8.554  0.5117 -0.0481 -0.1129
  916MOL0     H23639  14.924   7.144   8.640 -1.6019  1.8715  1.3100
  916MOL0     H23640  13.905   6.665   8.672  0.8933  0.3864  0.3084
  916MOL0     H23641  13.652   6.684   8.641  0.8578  0.3176 -0.2400
  916MOL0     H23642  13.357   6.808   8.291 -0.2936  0.2156 -0.5300
  916MOL0     H23643  13.141   6.848   8.192  1.2958  0.9451  0.5262
  916MOL0     H23644  11.509   6.733   7.269 -0.9160  0.5155 -1.1090
  916MOL0     H23645  11.270   6.785   7.346  2.6105 -0.4113 -4.4400
  916MOL0     H23646  11.000   6.999   7.686  1.1812  2.0923 -1.1974
  916MOL0     H23647  10.751   6.978   7.699 -0.1668 -0.9868  0.1608
  916MOL0     H23648  10.572   7.143   7.672  1.1111  0.1830 -0.5135
  916MOL0     H23649  10.511   6.980   7.684 -1.3876 -0.0775 -0.3674
  916MOL0     H23650  10.373   7.219   7.544  0.7944 -0.0073  0.2815
  916MOL0     H23651  10.340   7.133   7.698  0.0828  0.4032  0.6454
  916MOL0     H23652  10.281   6.918   7.583  2.0647  0.4781  0.9782
  916MOL0     H23653  10.328   7.000   7.430  3.0258 -1.4080  0.9351
  916MOL0     H23654  10.075   6.973   7.475  1.5922 -2.2592 -0.0255
  916MOL0     H23655  10.108   7.083   7.613  1.6808  1.7115  0.1809
  916MOL0     H23656  10.103   7.306   7.233  0.4303  0.1022  0.2765
  916MOL0     H23657  10.712   7.035   7.281  0.1264 -1.0290 -1.6042
  916MOL0     H23658  11.008   6.886   7.203 -1.7078 -0.6553  0.1440
  916MOL0     H23659  10.891   7.002   7.137  0.2553  0.4493 -0.0628
  916MOL0     H23660  11.044   7.072   7.195 -3.9252  2.5191 -2.7100
  917MOL0     O23661   6.295   2.808   5.327  0.1894  0.0279 -0.0086
  917MOL0     C23662   6.390   2.752   5.392  0.0924 -0.4898 -0.2883
  917MOL0     O23663   6.377   2.684   5.507  0.4745  0.6176  0.1250
  917MOL0     C23664   6.250   2.699   5.566 -0.6464 -0.6449  0.0946
  917MOL0     C23665   6.189   2.579   5.596  0.5952  0.2358  0.2016
  917MOL0     C23666   6.064   2.574   5.668  0.5004  0.8235  0.2139
  917MOL0     C23667   6.003   2.699   5.704 -0.7233  0.3737 -0.7351
  917MOL0     O23668   5.888   2.676   5.773 -0.3907  0.1231  0.1218
  917MOL0     C23669   5.779   2.766   5.740  0.4890 -0.4730  0.2946
  917MOL0     C23670   5.664   2.698   5.669 -0.0800  0.0038 -0.2367
  917MOL0     C23671   5.535   2.776   5.679  0.7635 -0.0012  0.2288
  917MOL0     C23672   5.405   2.710   5.631 -0.0116 -0.0258 -0.2085
  917MOL0     C23673   5.289   2.805   5.656  0.0298 -0.2983  0.3335
  917MOL0     C23674   5.159   2.737   5.608  0.4892 -0.8989 -1.2873
  917MOL0     C23675   5.032   2.810   5.660 -0.0842  0.2906 -0.5483
  917MOL0     C23676   5.011   2.946   5.573  0.3257  0.0333 -0.3332
  917MOL0     N23677   4.884   3.009   5.603 -0.1510 -0.0764  0.4360
  917MOL0     C23678   4.869   3.127   5.665 -0.5530 -0.0591 -0.8551
  917MOL0     C23679   4.742   3.171   5.645 -0.4214  0.3211 -0.2725
  917MOL0     C23680   4.677   3.290   5.705  0.3275 -0.6505 -0.1115
  917MOL0     C23681   4.638   3.249   5.852 -0.1215  0.0288  0.0977
  917MOL0     C23682   4.591   3.384   5.908 -0.8308  0.0873  0.4403
  917MOL0     C23683   4.534   3.375   6.051  0.0284 -0.4528 -0.5878
  917MOL0     O23684   4.591   3.478   6.141  0.0047 -0.6301  0.4228
  917MOL0     C23685   4.556   3.472   6.280  0.0088 -0.4542  0.5657
  917MOL0     C23686   4.653   3.484   6.382  0.5216  0.3340  1.2056
  917MOL0     C23687   4.608   3.485   6.516  0.2655 -0.3551 -1.1254
  917MOL0     C23688   4.472   3.473   6.550 -0.7302 -0.2292  0.1409
  917MOL0     C23689   4.442   3.460   6.694 -0.3419  0.2738 -0.3521
  917MOL0     O23690   4.537   3.492   6.790 -0.4626  0.2023  0.8288
  917MOL0     C23691   4.492   3.491   6.919 -0.1628 -0.5781 -0.9622
  917MOL0     C23692   4.482   3.617   6.995  1.2111 -0.1347 -0.0711
  917MOL0     C23693   4.436   3.621   7.129  0.0441  0.4558 -0.5223
  917MOL0     C23694   4.392   3.503   7.186 -0.4172  0.1188 -0.1667
  917MOL0     O23695   4.337   3.489   7.309 -0.6187 -0.5168 -0.6264
  917MOL0     C23696   4.276   3.607   7.374  0.0785 -0.7311  0.0783
  917MOL0     C23697   4.172   3.564   7.483 -0.0538  0.1244 -0.5370
  917MOL0     C23698   4.090   3.440   7.440 -0.1379  0.3761  0.3839
  917MOL0     C23699   3.978   3.391   7.545 -0.8245  0.8175  0.5663
  917MOL0     C23700   3.844   3.464   7.539 -0.1117  0.6287 -1.0367
  917MOL0     C23701   3.729   3.402   7.613 -0.0410  0.3666 -0.0086
  917MOL0     C23702   3.605   3.491   7.616  0.5126 -0.2477 -0.3944
  917MOL0     C23703   3.486   3.433   7.700 -0.5361  0.1886  0.7918
  917MOL0    Cl23704   3.370   3.563   7.721  0.6063 -0.0495 -0.0665
  917MOL0     C23705   4.402   3.382   7.112  0.6022  0.5603 -0.4431
  917MOL0     C23706   4.454   3.377   6.985  0.0207 -0.1613  0.5100
  917MOL0     O23707   4.326   3.427   6.720  0.6497 -0.0527 -0.1955
  917MOL0     C23708   4.377   3.454   6.444  0.1729  0.5331 -0.4527
  917MOL0     C23709   4.418   3.453   6.311 -0.6228 -0.4054 -0.4412
  917MOL0     N23710   4.678   3.064   5.578  0.5741 -0.0493 -0.5524
  917MOL0     N23711   4.766   2.968   5.540  0.2698 -0.2506  0.4499
  917MOL0     C23712   6.063   2.824   5.671 -0.6062  0.4616  1.1055
  917MOL0     C23713   6.188   2.821   5.601 -0.3589  1.2785  0.2624
  917MOL0     C23714   6.531   2.786   5.329  0.0080 -0.4268  0.7240
  917MOL0     C23715   6.539   2.845   5.201  0.5273 -0.0145 -0.3107
  917MOL0     C23716   6.659   2.863   5.129  0.1246 -0.3496 -0.3980
  917MOL0     C23717   6.778   2.817   5.183 -0.3263  0.2116 -0.3552
  917MOL0     O23718   6.902   2.829   5.124  0.7838  0.0554  0.3119
  917MOL0     C23719   6.913   2.909   5.011  0.2119 -0.4853  0.2168
  917MOL0     C23720   7.055   2.879   4.963  0.6778  0.3198 -0.5467
  917MOL0     C23721   7.162   2.939   5.050 -0.0775  0.4371 -0.0202
  917MOL0     C23722   7.308   2.922   5.014 -0.3802  0.0183  1.0040
  917MOL0     C23723   7.345   2.781   5.023 -0.1653 -0.3214  1.4724
  917MOL0     C23724   7.372   2.665   5.036 -0.6028 -0.0675  0.9323
  917MOL0     C23725   6.778   2.756   5.314  0.1035 -0.2036  0.0932
  917MOL0     C23726   6.657   2.741   5.384 -0.6371  0.5172  0.8999
  917MOL0     C23727   6.667   2.677   5.525 -0.5387  0.0429  0.7213
  917MOL0     H23728   6.242   2.489   5.565 -0.8923 -0.1272 -1.4946
  917MOL0     H23729   6.014   2.479   5.679  2.4699 -0.1172  1.6457
  917MOL0     H23730   5.739   2.816   5.828  0.6155  1.3374 -0.6252
  917MOL0     H23731   5.811   2.848   5.675 -0.6661 -0.5611 -0.4205
  917MOL0     H23732   5.665   2.596   5.706  1.6770  0.5484  1.3695
  917MOL0     H23733   5.679   2.696   5.560  0.2808 -0.4699 -0.1816
  917MOL0     H23734   5.545   2.873   5.630 -2.0912 -0.3207 -1.2006
  917MOL0     H23735   5.526   2.801   5.786  2.6279  1.7883  0.0303
  917MOL0     H23736   5.408   2.701   5.522  0.0551 -0.5150 -0.1672
  917MOL0     H23737   5.399   2.610   5.674  1.6161  0.4642  1.3034
  917MOL0     H23738   5.271   2.833   5.760 -2.1675  2.0821 -0.5694
  917MOL0     H23739   5.304   2.891   5.590 -3.7993  0.9867  0.8804
  917MOL0     H23740   5.164   2.737   5.499  0.6313 -1.7193 -1.2866
  917MOL0     H23741   5.148   2.633   5.641  0.1716 -0.3430  0.4508
  917MOL0     H23742   5.041   2.824   5.768  0.5679 -0.2931 -0.5225
  917MOL0     H23743   4.949   2.742   5.640  0.3353 -0.7357  1.0648
  917MOL0     H23744   5.091   3.020   5.588 -0.3416  0.8226 -0.5781
  917MOL0     H23745   5.021   2.916   5.468  1.9447 -3.7172  0.7338
  917MOL0     H23746   4.947   3.184   5.714 -1.7157  1.1500 -0.3729
  917MOL0     H23747   4.737   3.381   5.692 -1.0586  0.3469  0.2068
  917MOL0     H23748   4.586   3.296   5.645  0.3656 -1.1555 -0.2245
  917MOL0     H23749   4.555   3.179   5.863 -1.3543  1.4437  0.1893
  917MOL0     H23750   4.719   3.217   5.917 -1.4299  0.5028  2.0530
  917MOL0     H23751   4.516   3.440   5.852 -0.9040  4.0017  3.9497
  917MOL0     H23752   4.680   3.446   5.922 -0.6297 -0.5965  2.7389
  917MOL0     H23753   4.561   3.279   6.094  1.5094  0.6837  1.1952
  917MOL0     H23754   4.426   3.389   6.045 -0.1814 -1.5962  0.1643
  917MOL0     H23755   4.756   3.495   6.352 -0.3297  1.1734 -1.6732
  917MOL0     H23756   4.688   3.491   6.590 -1.4439 -0.7188  0.8428
  917MOL0     H23757   4.507   3.708   6.942 -1.0167  0.9618  0.6533
  917MOL0     H23758   4.423   3.713   7.185 -2.6649 -0.5696  0.6766
  917MOL0     H23759   4.355   3.665   7.423  1.1884 -1.1464 -1.1669
  917MOL0     H23760   4.226   3.666   7.296  1.5889  0.1783 -0.2377
  917MOL0     H23761   4.233   3.527   7.567  1.3971 -1.5633 -2.2359
  917MOL0     H23762   4.113   3.650   7.514 -2.9071 -1.9170  0.0631
  917MOL0     H23763   4.043   3.452   7.342 -0.9481 -0.8876  0.5903
  917MOL0     H23764   4.151   3.350   7.432 -2.0298 -1.0270  0.9564
  917MOL0     H23765   4.023   3.395   7.645 -0.2580  1.8749  0.2830
  917MOL0     H23766   3.956   3.285   7.525 -2.3204  1.5307 -1.8910
  917MOL0     H23767   3.806   3.457   7.437 -1.4693 -0.3052 -0.4885
  917MOL0     H23768   3.853   3.571   7.562  1.6068  0.8959 -2.6816
  917MOL0     H23769   3.694   3.307   7.573 -2.3547  0.8162  0.7414
  917MOL0     H23770   3.762   3.376   7.714  0.2759  0.5486 -0.0633
  917MOL0     H23771   3.575   3.518   7.515  1.5920  0.7041 -0.4766
  917MOL0     H23772   3.634   3.579   7.673  0.1658 -1.4598  1.7778
  917MOL0     H23773   3.432   3.360   7.639 -0.1370  0.9709 -0.5377
  917MOL0     H23774   3.516   3.384   7.793 -0.4537 -2.6686 -0.6167
  917MOL0     H23775   4.376   3.288   7.160  1.5578  0.3061 -0.4071
  917MOL0     H23776   4.461   3.285   6.927 -1.3908 -1.5693  2.4433
  917MOL0     H23777   4.280   3.418   6.476  1.7570 -2.3024  1.5360
  917MOL0     H23778   4.343   3.433   6.236  0.8266 -2.1530 -1.5072
  917MOL0     H23779   6.024   2.921   5.703  3.3426  1.6505  2.9926
  917MOL0     H23780   6.235   2.917   5.583  0.4182  0.8236 -0.1780
  917MOL0     H23781   6.448   2.867   5.147  0.1955 -0.5329  0.0269
  917MOL0     H23782   6.643   2.916   5.036 -2.3190  1.3322  0.8615
  917MOL0     H23783   6.900   3.013   5.043  0.5881 -0.2974 -0.2173
  917MOL0     H23784   6.840   2.890   4.933  2.8158 -0.3907 -2.4229
  917MOL0     H23785   7.058   2.921   4.862 -2.5973  0.0087 -0.8765
  917MOL0     H23786   7.068   2.771   4.966 -2.3719 -0.0874  1.5346
  917MOL0     H23787   7.143   2.898   5.149  1.7541 -0.2453  0.0901
  917MOL0     H23788   7.147   3.047   5.050  0.4063  0.5583 -2.2961
  917MOL0     H23789   7.333   2.974   4.922 -3.7727 -0.4818 -0.3383
  917MOL0     H23790   7.353   2.983   5.093 -0.2177  0.2751  0.7118
  917MOL0     H23791   7.394   2.561   5.050  0.8814  0.2500  1.1604
  917MOL0     H23792   6.873   2.722   5.353  0.1187 -1.5844 -1.0688
  917MOL0     H23793   6.771   2.663   5.556 -1.4376 -0.7461  3.7573
  917MOL0     H23794   6.624   2.742   5.602 -0.1585  2.1024 -0.7270
  917MOL0     H23795   6.617   2.580   5.519  1.2259 -1.0754  2.7116
  918MOL0     O23796   0.548   2.387   4.457 -0.6954  0.5188 -0.0499
  918MOL0     C23797   0.488   2.402   4.354  0.5989 -0.2994 -0.7682
  918MOL0     O23798   0.512   2.339   4.236 -0.5983 -0.6110 -0.0413
  918MOL0     C23799   0.629   2.268   4.223  0.5485  0.3539 -0.2302
  918MOL0     C23800   0.754   2.332   4.179  0.3659  0.9312  0.6000
  918MOL0     C23801   0.866   2.252   4.148 -0.1932  0.9596  0.5868
  918MOL0     C23802   0.865   2.114   4.173 -0.4772 -0.5923 -0.4203
  918MOL0     O23803   0.973   2.027   4.174 -1.3649 -0.1177  0.1575
  918MOL0     C23804   1.115   2.077   4.177  1.1278  0.8766  0.4149
  918MOL0     C23805   1.210   1.969   4.218 -0.7950 -0.8642  0.3638
  918MOL0     C23806   1.358   2.017   4.185 -0.2344 -0.9982 -0.4833
  918MOL0     C23807   1.457   1.903   4.188  0.1395  0.3435 -0.2018
  918MOL0     C23808   1.603   1.947   4.189 -0.1923  0.1676 -0.0389
  918MOL0     C23809   1.631   2.087   4.123  0.4402 -0.2196 -0.2027
  918MOL0     C23810   1.787   2.114   4.120  0.4915 -0.3867  0.4227
  918MOL0     C23811   1.811   2.260   4.098  0.6574  0.7608  0.4428
  918MOL0     N23812   1.957   2.282   4.097  0.2218  0.0675 -0.5256
  918MOL0     C23813   2.044   2.235   4.194 -0.7537  0.8327 -0.4988
  918MOL0     C23814   2.166   2.285   4.167  0.1379  0.1932  0.3431
  918MOL0     C23815   2.297   2.280   4.238 -0.0267  0.3979 -0.0258
  918MOL0     C23816   2.288   2.261   4.387  1.5126  0.3260  0.0087
  918MOL0     C23817   2.400   2.328   4.458  0.0765  0.3056 -1.4497
  918MOL0     C23818   2.535   2.287   4.409 -0.3637  0.1550 -0.3374
  918MOL0     O23819   2.630   2.371   4.461 -0.3393  0.7087 -0.2063
  918MOL0     C23820   2.763   2.352   4.438  0.3675 -0.0462  0.2576
  918MOL0     C23821   2.844   2.444   4.508  0.1590 -1.0966 -0.5617
  918MOL0     C23822   2.982   2.424   4.512 -0.3041 -0.5562  0.5225
  918MOL0     C23823   3.042   2.333   4.428  0.3069  0.0477  0.4465
  918MOL0     C23824   3.186   2.326   4.423  0.1241  0.2688  1.0023
  918MOL0     O23825   3.268   2.398   4.501  0.1305 -0.0461  0.1537
  918MOL0     C23826   3.404   2.385   4.480 -0.4687 -0.4123  0.3435
  918MOL0     C23827   3.472   2.483   4.395 -0.0417  0.7695 -0.7905
  918MOL0     C23828   3.613   2.470   4.374 -0.1375  0.5238 -0.0224
  918MOL0     C23829   3.689   2.371   4.437 -0.0078 -0.1549  0.6119
  918MOL0     O23830   3.832   2.363   4.425  0.0078  0.1587  0.5110
  918MOL0     C23831   3.909   2.469   4.371  0.1581 -0.5462  0.1064
  918MOL0     C23832   4.034   2.497   4.454  1.3003 -1.1004 -0.3279
  918MOL0     C23833   4.122   2.375   4.470 -0.2406  0.2764  0.9336
  918MOL0     C23834   4.260   2.425   4.517  0.2823 -0.2781  0.3303
  918MOL0     C23835   4.355   2.306   4.536  0.0604 -0.2066 -0.4784
  918MOL0     C23836   4.492   2.359   4.577 -0.3172 -0.1406 -0.2953
  918MOL0     C23837   4.529   2.319   4.720 -1.1568 -0.8697 -0.1147
  918MOL0     C23838   4.661   2.382   4.777 -0.6945 -0.8368 -0.3008
  918MOL0    Cl23839   4.711   2.310   4.932 -0.4098 -0.1124 -0.3823
  918MOL0     C23840   3.618   2.280   4.514  0.4978 -0.9541  0.2066
  918MOL0     C23841   3.477   2.285   4.543  0.1563 -0.2855 -0.0904
  918MOL0     O23842   3.227   2.250   4.336 -0.2664  0.7665 -0.3312
  918MOL0     C23843   2.959   2.251   4.345  0.0163 -0.4179 -0.7982
  918MOL0     C23844   2.822   2.256   4.356  0.0534  0.0327 -0.1420
  918MOL0     N23845   2.151   2.360   4.052 -0.0276 -0.0553  0.3689
  918MOL0     N23846   2.031   2.361   4.012 -0.8506  0.5631 -0.5647
  918MOL0     C23847   0.754   2.060   4.238 -0.9309 -0.1595  0.4463
  918MOL0     C23848   0.638   2.135   4.264 -0.3549  0.4239  0.4500
  918MOL0     C23849   0.354   2.480   4.363  0.5470 -0.1161  0.7666
  918MOL0     C23850   0.276   2.492   4.234 -0.8673  0.5812  1.0332
  918MOL0     C23851   0.157   2.565   4.224  0.4372  0.3250  1.0719
  918MOL0     C23852   0.113   2.622   4.347 -1.2734  0.3167  0.2851
  918MOL0     O23853   0.003   2.694   4.340  0.0706 -0.3702 -0.6947
  918MOL0     C23854  -0.077   2.730   4.451  0.3436 -0.2866  0.1885
  918MOL0     C23855  -0.179   2.851   4.425  0.2694  1.4673  0.4331
  918MOL0     C23856  -0.248   2.897   4.555 -0.0143  0.6763  0.1479
  918MOL0     C23857  -0.392   2.952   4.537 -1.0244  0.5670 -0.3509
  918MOL0     C23858  -0.472   2.876   4.433 -0.1163 -0.0576  0.3298
  918MOL0     C23859  -0.553   2.842   4.347  0.3119  1.0211 -1.0475
  918MOL0     C23860   0.178   2.599   4.471 -0.0990  0.6730  0.1428
  918MOL0     C23861   0.296   2.539   4.481 -0.9133 -0.4452 -0.5786
  918MOL0     C23862   0.358   2.538   4.626  0.0247 -0.7700 -0.4303
  918MOL0     H23863   0.752   2.433   4.139  0.2211 -0.0277 -1.9577
  918MOL0     H23864   0.949   2.295   4.094 -0.3300 -2.0015 -2.2875
  918MOL0     H23865   1.133   2.098   4.071 -1.4306  0.4030 -0.1737
  918MOL0     H23866   1.123   2.169   4.237 -0.1479  1.3363 -0.0954
  918MOL0     H23867   1.183   1.871   4.177  0.1912 -0.4779 -1.3100
  918MOL0     H23868   1.206   1.959   4.327  1.3608 -1.5281  0.4324
  918MOL0     H23869   1.395   2.088   4.260  1.8789 -1.4646 -1.0096
  918MOL0     H23870   1.357   2.071   4.089  1.8218  0.6026  0.3235
  918MOL0     H23871   1.431   1.838   4.272 -1.6809  2.0784  0.6478
  918MOL0     H23872   1.447   1.842   4.098  0.4147  0.7637 -0.5241
  918MOL0     H23873   1.614   1.963   4.297 -0.1067  2.3183 -0.3233
  918MOL0     H23874   1.658   1.866   4.142 -2.0145 -0.9059 -0.4293
  918MOL0     H23875   1.610   2.082   4.016  1.8105 -2.0011 -0.4302
  918MOL0     H23876   1.582   2.165   4.182  0.3967  0.0678 -0.6147
  918MOL0     H23877   1.822   2.057   4.034 -0.2654  0.4672 -0.4723
  918MOL0     H23878   1.825   2.067   4.211  1.6594 -1.7576 -0.7292
  918MOL0     H23879   1.762   2.285   4.003  2.0135 -2.3976 -1.2659
  918MOL0     H23880   1.764   2.317   4.178 -0.7436  0.2598  0.0059
  918MOL0     H23881   2.013   2.175   4.279  1.7008  0.2678  0.0937
  918MOL0     H23882   2.364   2.201   4.203  0.7244 -1.5880  5.1129
  918MOL0     H23883   2.346   2.377   4.230 -2.4272  1.6561 -0.6058
  918MOL0     H23884   2.189   2.296   4.418  0.8089  0.6862 -2.4554
  918MOL0     H23885   2.288   2.155   4.412 -1.4188  0.6489  1.8378
  918MOL0     H23886   2.386   2.303   4.563  4.6951 -0.3028 -0.7685
  918MOL0     H23887   2.388   2.436   4.444 -0.5026  0.1746 -2.0123
  918MOL0     H23888   2.545   2.283   4.300 -1.7253 -3.8377 -0.4866
  918MOL0     H23889   2.555   2.182   4.433  1.1177  0.4131 -0.3228
  918MOL0     H23890   2.799   2.508   4.583  2.0453 -1.6667  1.1737
  918MOL0     H23891   3.037   2.494   4.573 -1.6548  1.3311 -0.3244
  918MOL0     H23892   3.412   2.565   4.356  1.3572  2.8608  1.1738
  918MOL0     H23893   3.671   2.522   4.298  2.8720 -2.4067  0.0276
  918MOL0     H23894   3.934   2.440   4.268 -0.2107 -1.4112  0.2500
  918MOL0     H23895   3.865   2.569   4.362  2.2580  0.3368 -1.1261
  918MOL0     H23896   4.089   2.581   4.409 -0.5691  1.2576  1.5593
  918MOL0     H23897   3.988   2.524   4.549  0.5179 -0.7656 -0.7988
  918MOL0     H23898   4.087   2.304   4.546  1.5140  0.9653  2.4523
  918MOL0     H23899   4.132   2.333   4.369 -0.6635 -0.4355  1.1777
  918MOL0     H23900   4.249   2.476   4.613 -4.5488  1.8810 -1.0997
  918MOL0     H23901   4.297   2.497   4.443  0.2270  0.5727  1.1102
  918MOL0     H23902   4.365   2.249   4.444 -1.8778 -0.2749 -0.6905
  918MOL0     H23903   4.319   2.238   4.614  0.9510 -0.7200 -0.4969
  918MOL0     H23904   4.565   2.330   4.501 -0.5439 -1.2784 -0.0950
  918MOL0     H23905   4.495   2.468   4.578 -0.3938  0.0816  5.2621
  918MOL0     H23906   4.542   2.210   4.728 -2.8584 -1.1397 -0.6920
  918MOL0     H23907   4.447   2.342   4.788 -1.0977 -2.8810  0.7148
  918MOL0     H23908   4.738   2.365   4.701 -1.4495 -1.1725 -1.0102
  918MOL0     H23909   4.649   2.490   4.788 -2.6152 -0.6541 -3.0915
  918MOL0     H23910   3.676   2.202   4.563  4.2879  0.0160 -2.3253
  918MOL0     H23911   3.427   2.222   4.615 -1.3976  0.2041 -0.6990
  918MOL0     H23912   2.995   2.177   4.274 -0.0725  1.0328 -2.4182
  918MOL0     H23913   2.761   2.179   4.309  0.8665 -1.4163  1.0838
  918MOL0     H23914   0.754   1.957   4.273  0.0691  0.2057  1.5940
  918MOL0     H23915   0.555   2.071   4.293  0.8293 -1.9291 -0.9431
  918MOL0     H23916   0.314   2.448   4.142 -0.8100  0.9469  0.8824
  918MOL0     H23917   0.113   2.588   4.128  0.9742 -1.0316  0.4749
  918MOL0     H23918  -0.024   2.759   4.541 -1.8484  1.0274  1.1496
  918MOL0     H23919  -0.137   2.639   4.465  0.0283 -0.6084 -2.6375
  918MOL0     H23920  -0.244   2.816   4.345  1.4599  0.6331 -0.2038
  918MOL0     H23921  -0.122   2.939   4.391  2.5417 -0.9007 -2.4083
  918MOL0     H23922  -0.182   2.973   4.598 -0.0006 -0.0255  1.4119
  918MOL0     H23923  -0.251   2.815   4.626  1.7995 -0.3608 -0.8997
  918MOL0     H23924  -0.429   2.927   4.637 -0.3254 -0.6074 -0.3608
  918MOL0     H23925  -0.383   3.059   4.518  2.1590  0.6999  1.2084
  918MOL0     H23926  -0.613   2.798   4.270 -0.4254  0.7872 -0.3578
  918MOL0     H23927   0.125   2.632   4.560 -1.8659 -0.8861 -0.2728
  918MOL0     H23928   0.335   2.442   4.671 -0.4346  0.6058  2.5252
  918MOL0     H23929   0.467   2.548   4.633  0.3118 -3.3854 -0.5280
  918MOL0     H23930   0.318   2.615   4.693 -1.0264 -3.2842  1.9831
  919MOL0     O23931   1.207   7.424   9.365 -0.6284 -0.1674  0.2955
  919MOL0     C23932   1.282   7.436   9.275  0.0925 -0.2787 -0.0095
  919MOL0     O23933   1.242   7.429   9.145  0.0427  0.3698 -0.5817
  919MOL0     C23934   1.103   7.429   9.126 -0.6830 -0.2505 -0.1401
  919MOL0     C23935   1.017   7.340   9.190 -0.6382 -1.1027  0.0698
  919MOL0     C23936   0.878   7.350   9.167  1.2170 -0.1796  0.3754
  919MOL0     C23937   0.824   7.436   9.072  0.1814  1.0127 -0.0326
  919MOL0     O23938   0.689   7.454   9.057  0.4051  0.4595  0.7433
  919MOL0     C23939   0.620   7.493   9.176  0.3092  0.1672 -0.3580
  919MOL0     C23940   0.477   7.432   9.179 -0.2025 -0.3564 -0.0502
  919MOL0     C23941   0.402   7.498   9.294 -0.8523 -0.6862  0.2059
  919MOL0     C23942   0.298   7.406   9.354  0.3723  0.4682 -0.0973
  919MOL0     C23943   0.156   7.391   9.278 -0.0099  0.4361  0.1689
  919MOL0     C23944   0.058   7.515   9.276  0.0348  0.3601 -0.1684
  919MOL0     C23945  -0.063   7.497   9.189 -0.6165 -0.6508  0.1678
  919MOL0     C23946  -0.167   7.408   9.263 -0.3900  0.2040 -0.4935
  919MOL0     N23947  -0.291   7.395   9.183  0.2760 -0.4892 -0.2713
  919MOL0     C23948  -0.324   7.285   9.098  0.2165 -0.2338  0.2275
  919MOL0     C23949  -0.453   7.306   9.067  0.4569  0.3495  0.0399
  919MOL0     C23950  -0.515   7.208   8.971 -0.3164 -0.6374 -0.4095
  919MOL0     C23951  -0.544   7.277   8.842  0.0639  0.5345  1.2043
  919MOL0     C23952  -0.455   7.221   8.724  0.5163  0.3710  0.1615
  919MOL0     C23953  -0.298   7.235   8.735 -0.2356  0.1673  0.4338
  919MOL0     O23954  -0.248   7.145   8.822  0.1506  0.1567 -0.2296
  919MOL0     C23955  -0.116   7.121   8.821 -0.7333  0.8505 -0.0264
  919MOL0     C23956  -0.073   7.009   8.896  0.5833 -0.9149 -0.0966
  919MOL0     C23957   0.058   6.975   8.909 -0.4386  0.1173 -0.1960
  919MOL0     C23958   0.159   7.059   8.856  0.4742  1.1708  0.4495
  919MOL0     C23959   0.296   7.019   8.869  0.1747  0.5539 -0.0223
  919MOL0     O23960   0.389   7.125   8.872 -0.6563 -0.1514  0.7285
  919MOL0     C23961   0.525   7.105   8.850  0.0592  0.2553 -0.5221
  919MOL0     C23962   0.615   7.166   8.936 -0.2326  0.2828 -0.4751
  919MOL0     C23963   0.752   7.125   8.930  0.5283 -0.7639  0.0598
  919MOL0     C23964   0.798   7.031   8.841  0.0065  0.9172 -0.4819
  919MOL0     O23965   0.922   6.975   8.849 -0.7283 -0.1137  0.0001
  919MOL0     C23966   1.035   7.059   8.887 -0.3167 -0.6050  0.3234
  919MOL0     C23967   1.070   7.023   9.034 -0.0544 -0.0928  0.2406
  919MOL0     C23968   1.215   7.081   9.060  0.9607  0.1294 -0.0082
  919MOL0     C23969   1.340   6.990   9.033  1.1154 -0.1050  0.1620
  919MOL0     C23970   1.467   7.073   9.058  0.1489 -0.2519  0.3412
  919MOL0     C23971   1.600   6.988   9.067 -0.1313 -0.7587  0.4972
  919MOL0     C23972   1.705   7.064   9.147 -0.0458  0.7349  0.5446
  919MOL0     C23973   1.809   6.958   9.183 -0.0253  0.3562 -0.5968
  919MOL0    Cl23974   1.746   6.840   9.307  0.3775  0.0256  0.0668
  919MOL0     C23975   0.701   6.977   8.752 -0.2196  0.6164 -0.0633
  919MOL0     C23976   0.563   7.005   8.756  0.4844 -0.9670 -0.3701
  919MOL0     O23977   0.318   6.904   8.898  0.5290 -0.0881 -0.0434
  919MOL0     C23978   0.119   7.179   8.788 -0.3969  0.3888 -0.1992
  919MOL0     C23979  -0.013   7.209   8.771  0.6156  0.3459  0.5041
  919MOL0     N23980  -0.499   7.422   9.133  0.2365  0.0030 -0.6589
  919MOL0     N23981  -0.401   7.470   9.202  0.4356  0.4697 -0.0170
  919MOL0     C23982   0.917   7.510   9.005 -0.8414  0.6767  0.1761
  919MOL0     C23983   1.056   7.511   9.031 -0.9433  0.8468 -0.2097
  919MOL0     C23984   1.429   7.439   9.304 -0.2613 -0.4390  0.2842
  919MOL0     C23985   1.466   7.415   9.442 -0.0518  0.2521  0.7591
  919MOL0     C23986   1.599   7.392   9.475  0.2806 -0.3363 -0.2875
  919MOL0     C23987   1.704   7.417   9.386 -0.2074 -0.1942  0.0125
  919MOL0     O23988   1.838   7.413   9.417 -0.1182  0.5386 -0.5547
  919MOL0     C23989   1.946   7.443   9.328 -0.0447 -0.3680  0.0432
  919MOL0     C23990   2.084   7.413   9.388  0.3446  0.5013 -0.6163
  919MOL0     C23991   2.202   7.411   9.290  0.8556 -0.5499 -0.0706
  919MOL0     C23992   2.194   7.304   9.182 -0.7421 -0.2132 -0.0441
  919MOL0     C23993   2.217   7.173   9.238  0.5751 -0.3991 -0.4933
  919MOL0     C23994   2.221   7.063   9.283 -0.0923 -0.2913  0.2259
  919MOL0     C23995   1.671   7.467   9.256 -0.0310 -0.2739 -0.5780
  919MOL0     C23996   1.536   7.472   9.214 -0.2347 -0.0855 -0.1042
  919MOL0     C23997   1.515   7.486   9.066 -0.5686 -0.1266 -1.1697
  919MOL0     H23998   1.060   7.265   9.256  1.5474 -2.2443 -2.4641
  919MOL0     H23999   0.815   7.281   9.223 -0.0817 -0.5287 -1.4337
  919MOL0     H24000   0.673   7.464   9.268  0.1974 -2.2171 -0.9745
  919MOL0     H24001   0.621   7.602   9.173  0.3169  0.1456 -2.2669
  919MOL0     H24002   0.481   7.323   9.192  2.3991 -0.4238 -0.8252
  919MOL0     H24003   0.441   7.443   9.076  0.1584 -1.0543 -0.2578
  919MOL0     H24004   0.353   7.587   9.252 -0.0096 -0.7224 -0.8814
  919MOL0     H24005   0.478   7.535   9.363 -0.7290 -0.8106  0.1373
  919MOL0     H24006   0.342   7.306   9.366  1.1569  1.0314  2.3619
  919MOL0     H24007   0.275   7.436   9.457  0.1813  0.1641 -0.0480
  919MOL0     H24008   0.176   7.357   9.176 -2.0348  0.7617 -0.3779
  919MOL0     H24009   0.091   7.317   9.325 -2.3182  1.4401 -1.2553
  919MOL0     H24010   0.022   7.535   9.377 -0.1248 -1.4236  0.1605
  919MOL0     H24011   0.120   7.599   9.242  1.8952 -1.2673 -0.9624
  919MOL0     H24012  -0.034   7.461   9.090  2.8262 -0.6141  1.0386
  919MOL0     H24013  -0.116   7.593   9.186  0.5386  0.0169  0.6422
  919MOL0     H24014  -0.122   7.310   9.278  1.0305  1.0519  1.1729
  919MOL0     H24015  -0.194   7.440   9.364 -0.6370 -2.7638  0.4619
  919MOL0     H24016  -0.267   7.203   9.054  2.0104  0.8076  0.4819
  919MOL0     H24017  -0.448   7.122   8.957  1.8424  0.8242  0.4372
  919MOL0     H24018  -0.614   7.171   9.001  0.7981 -4.5614 -1.0071
  919MOL0     H24019  -0.650   7.268   8.816  0.4514  0.6152 -0.5012
  919MOL0     H24020  -0.522   7.383   8.853  1.7420  0.3529  0.0110
  919MOL0     H24021  -0.485   7.255   8.625 -1.0546 -0.8997  0.1595
  919MOL0     H24022  -0.482   7.115   8.720 -0.2127  0.5826 -1.1259
  919MOL0     H24023  -0.261   7.335   8.759  2.9415 -1.1343  1.4363
  919MOL0     H24024  -0.260   7.206   8.637 -1.3103  1.6925 -0.4833
  919MOL0     H24025  -0.154   6.939   8.916 -0.0235 -0.9298 -2.2778
  919MOL0     H24026   0.080   6.879   8.954 -1.7589  0.7310  1.9254
  919MOL0     H24027   0.578   7.241   9.005  2.2632 -1.0244  2.5249
  919MOL0     H24028   0.806   7.182   9.005 -1.4340  0.7866  0.3724
  919MOL0     H24029   1.117   7.038   8.818 -1.3118 -1.7393 -0.5493
  919MOL0     H24030   1.009   7.165   8.881 -1.0000 -0.7399  0.7610
  919MOL0     H24031   0.998   7.072   9.100 -0.7300 -0.5579 -0.1541
  919MOL0     H24032   1.083   6.916   9.050  4.7521 -0.4731 -3.6155
  919MOL0     H24033   1.234   7.167   8.995 -1.0001  0.0539 -0.7397
  919MOL0     H24034   1.210   7.114   9.164 -0.9787 -1.5243  0.4800
  919MOL0     H24035   1.324   6.957   8.930 -0.9564 -0.9243  0.7115
  919MOL0     H24036   1.334   6.906   9.104  2.0477  0.0125  0.3934
  919MOL0     H24037   1.451   7.119   9.156 -2.4772 -0.0859 -0.0740
  919MOL0     H24038   1.479   7.149   8.980  0.6279 -1.0818 -0.4131
  919MOL0     H24039   1.580   6.894   9.117 -0.1640 -2.0564 -1.8048
  919MOL0     H24040   1.626   6.956   8.965 -0.3970 -1.5831  0.6847
  919MOL0     H24041   1.665   7.109   9.239 -0.5803  3.6720 -1.0081
  919MOL0     H24042   1.743   7.147   9.088  0.7726 -1.0177 -1.4858
  919MOL0     H24043   1.821   6.900   9.092 -3.2456 -1.2844 -0.1390
  919MOL0     H24044   1.898   7.009   9.221 -0.1361  1.6480 -1.9919
  919MOL0     H24045   0.743   6.912   8.676 -1.1535 -1.7170  1.3101
  919MOL0     H24046   0.486   6.975   8.687 -0.8109  4.4478 -1.8048
  919MOL0     H24047   0.191   7.251   8.750  0.0764 -0.6804 -1.3758
  919MOL0     H24048  -0.032   7.298   8.711  0.9538  0.2800  0.2971
  919MOL0     H24049   0.871   7.568   8.925 -1.0692  1.3569  0.7974
  919MOL0     H24050   1.122   7.585   8.987 -1.9817  2.5528  0.9974
  919MOL0     H24051   1.393   7.412   9.521 -1.4300  1.5178 -0.4216
  919MOL0     H24052   1.631   7.360   9.573  0.9096  0.6572 -0.1475
  919MOL0     H24053   1.937   7.546   9.292 -2.2898  0.5534  2.8598
  919MOL0     H24054   1.930   7.373   9.245 -1.5837  0.0794 -0.0690
  919MOL0     H24055   2.077   7.313   9.431  1.6573  0.1588 -1.1691
  919MOL0     H24056   2.092   7.480   9.475 -2.9441 -0.6420  0.7445
  919MOL0     H24057   2.299   7.415   9.341  1.0595  2.3848 -0.5048
  919MOL0     H24058   2.201   7.512   9.247  1.4317 -1.0191 -1.2219
  919MOL0     H24059   2.099   7.304   9.128  0.3774  1.6423 -2.1721
  919MOL0     H24060   2.265   7.335   9.105 -1.4783  0.6181 -0.4056
  919MOL0     H24061   2.221   6.978   9.348  4.1584  1.4536  2.9506
  919MOL0     H24062   1.753   7.484   9.187  0.0019 -1.4895 -0.8486
  919MOL0     H24063   1.425   7.546   9.048 -0.8420  0.3937  1.5430
  919MOL0     H24064   1.601   7.536   9.020 -1.5941  2.6735 -0.2581
  919MOL0     H24065   1.502   7.385   9.027  2.9371 -1.8494  1.5088
  920MOL0     O24066   4.775   1.332   1.914  0.1216 -0.3988  0.0806
  920MOL0     C24067   4.779   1.227   1.980  0.1176  0.6275 -0.0226
  920MOL0     O24068   4.891   1.152   2.011 -0.9981 -0.2817 -0.6097
  920MOL0     C24069   5.008   1.187   1.953 -1.0139  0.0598  0.5224
  920MOL0     C24070   5.119   1.180   2.041 -0.0042  0.4673  0.4954
  920MOL0     C24071   5.250   1.187   1.974  0.3322  0.4540 -0.5071
  920MOL0     C24072   5.273   1.212   1.835  1.1316  0.8750 -0.6532
  920MOL0     O24073   5.389   1.233   1.772  0.5542  0.1461 -0.2382
  920MOL0     C24074   5.502   1.245   1.856  0.0717 -0.2626 -0.4362
  920MOL0     C24075   5.586   1.119   1.859  0.0030  0.0400 -0.5133
  920MOL0     C24076   5.704   1.140   1.961  0.1477 -0.2171  0.2696
  920MOL0     C24077   5.793   1.015   1.965 -0.3414 -0.8387  0.3566
  920MOL0     C24078   5.916   1.050   2.053 -0.1083  0.0847 -0.0771
  920MOL0     C24079   6.012   0.937   2.080 -0.6959  0.8062  0.1398
  920MOL0     C24080   6.137   0.975   2.139 -0.7618  0.1016 -0.1777
  920MOL0     C24081   6.249   1.039   2.056  0.4799 -0.2558  0.1602
  920MOL0     N24082   6.363   1.046   2.147  0.9229 -0.1376  0.0206
  920MOL0     C24083   6.437   0.940   2.188 -0.5389 -0.5713 -0.0028
  920MOL0     C24084   6.536   0.992   2.260  0.9812 -0.1649 -0.0223
  920MOL0     C24085   6.636   0.918   2.354 -0.0788 -0.5610 -0.2987
  920MOL0     C24086   6.780   0.984   2.342 -0.7861  0.3039  0.7501
  920MOL0     C24087   6.891   0.892   2.406 -0.6478  0.0285  1.4060
  920MOL0     C24088   6.888   0.903   2.558 -0.3037  0.1250  0.4234
  920MOL0     O24089   6.943   0.778   2.629  0.4314 -0.5074  0.2244
  920MOL0     C24090   7.068   0.729   2.625  1.1246 -0.9379  0.2708
  920MOL0     C24091   7.186   0.805   2.580 -0.1109  0.1952  0.4135
  920MOL0     C24092   7.320   0.764   2.614 -0.4559 -0.1103  0.2835
  920MOL0     C24093   7.344   0.653   2.692  0.6367 -0.0088 -0.5906
  920MOL0     C24094   7.482   0.609   2.723 -0.1503 -0.2498 -0.2018
  920MOL0     O24095   7.577   0.627   2.629 -0.6003  0.0777 -0.1835
  920MOL0     C24096   7.706   0.579   2.646 -0.3607  0.1635  1.0951
  920MOL0     C24097   7.798   0.642   2.722  0.7096 -0.3577 -0.9216
  920MOL0     C24098   7.927   0.596   2.752 -0.2778  0.0861  0.5954
  920MOL0     C24099   7.973   0.471   2.696 -0.1145 -0.0390  0.0238
  920MOL0     O24100   8.101   0.414   2.694 -0.3255  0.3480 -0.2329
  920MOL0     C24101   8.200   0.496   2.768 -0.5757  0.0423  0.3667
  920MOL0     C24102   8.341   0.428   2.775 -0.2011  0.0696 -0.0437
  920MOL0     C24103   8.453   0.536   2.788  0.0303  0.3311 -0.4650
  920MOL0     C24104   8.597   0.465   2.777 -0.3579 -0.5258  0.1070
  920MOL0     C24105   8.697   0.577   2.779 -0.2270 -0.2360  0.2341
  920MOL0     C24106   8.829   0.538   2.727 -0.3850  0.5754 -0.8037
  920MOL0     C24107   8.920   0.662   2.714  0.0734  1.2551  0.2785
  920MOL0     C24108   9.070   0.627   2.704  0.2552 -0.1904  0.6573
  920MOL0    Cl24109   9.088   0.613   2.532  0.1833  0.2677  0.1102
  920MOL0     C24110   7.879   0.406   2.606 -0.3995 -0.2111 -0.1344
  920MOL0     C24111   7.747   0.452   2.594 -0.5435  0.1921 -0.8838
  920MOL0     O24112   7.501   0.542   2.828  0.3767  0.5549  0.2392
  920MOL0     C24113   7.235   0.588   2.742 -0.3342 -0.2186  0.5697
  920MOL0     C24114   7.099   0.624   2.712  0.1348 -0.2451  0.1506
  920MOL0     N24115   6.532   1.134   2.250  0.1063 -0.2437  0.0631
  920MOL0     N24116   6.419   1.166   2.187 -0.2840 -0.1014 -0.5274
  920MOL0     C24117   5.153   1.219   1.757 -0.4054  0.6608  0.6295
  920MOL0     C24118   5.023   1.200   1.818 -0.5649  0.0310 -0.0672
  920MOL0     C24119   4.647   1.172   2.024 -0.1301  0.0176  0.2354
  920MOL0     C24120   4.645   1.118   2.152 -0.1203  0.3495 -0.8468
  920MOL0     C24121   4.525   1.057   2.201  0.1938  0.3871  0.2830
  920MOL0     C24122   4.407   1.086   2.131 -0.0381 -0.3800 -0.4497
  920MOL0     O24123   4.287   1.033   2.179  0.2888 -0.9197 -0.5720
  920MOL0     C24124   4.184   1.127   2.206 -0.4495 -0.5127 -0.1385
  920MOL0     C24125   4.075   1.061   2.292 -1.1427  0.0923 -0.4573
  920MOL0     C24126   3.990   0.967   2.210 -0.5758  0.2719 -0.0608
  920MOL0     C24127   3.900   1.044   2.105 -0.0373 -0.4862  0.0881
  920MOL0     C24128   3.770   0.978   2.092 -0.8729  0.3678  0.4831
  920MOL0     C24129   3.674   0.914   2.101 -0.0508  0.0261 -0.5669
  920MOL0     C24130   4.411   1.150   2.006  0.0816 -0.0456 -0.4490
  920MOL0     C24131   4.528   1.185   1.951  0.8050 -0.8985  0.2428
  920MOL0     C24132   4.530   1.227   1.806  0.5365 -0.4926  0.6743
  920MOL0     H24133   5.111   1.171   2.149 -0.4694  1.6480  0.5742
  920MOL0     H24134   5.324   1.154   2.046 -0.4642 -0.9467 -0.2859
  920MOL0     H24135   5.566   1.327   1.820  0.7824 -0.1297  1.0713
  920MOL0     H24136   5.471   1.262   1.960 -1.6110  0.2437 -0.9731
  920MOL0     H24137   5.618   1.079   1.762  1.5423 -1.3922  0.5307
  920MOL0     H24138   5.522   1.041   1.901 -2.2929  1.6458 -0.8238
  920MOL0     H24139   5.659   1.161   2.059 -0.9041 -1.7153  0.1359
  920MOL0     H24140   5.765   1.227   1.934  2.4664 -1.2608  1.7812
  920MOL0     H24141   5.746   0.921   1.998  1.0494 -1.0942  1.7371
  920MOL0     H24142   5.833   1.000   1.865  0.1939 -1.4945  0.6557
  920MOL0     H24143   5.973   1.132   2.010  0.8577 -0.1128  0.7758
  920MOL0     H24144   5.883   1.078   2.154  0.5127  0.7607 -0.0555
  920MOL0     H24145   5.965   0.862   2.144  0.1510  0.8766  0.8714
  920MOL0     H24146   6.037   0.887   1.986  1.1264  0.9213  0.5227
  920MOL0     H24147   6.163   0.881   2.188 -2.7543 -0.1932  0.4281
  920MOL0     H24148   6.123   1.041   2.225  2.2136  3.9142 -2.2786
  920MOL0     H24149   6.271   0.979   1.967 -2.0109 -2.8424  1.1238
  920MOL0     H24150   6.220   1.136   2.013 -2.2882  0.9495  4.2034
  920MOL0     H24151   6.408   0.836   2.191  0.9560 -1.0665  3.9940
  920MOL0     H24152   6.600   0.938   2.456 -1.1573 -1.0336 -0.5700
  920MOL0     H24153   6.635   0.809   2.352 -0.2390 -0.5824  0.4264
  920MOL0     H24154   6.804   0.990   2.235 -0.8068  3.9032  0.8282
  920MOL0     H24155   6.786   1.087   2.379  1.1038  0.2870  0.6053
  920MOL0     H24156   6.992   0.917   2.372 -1.5731  0.4060 -1.3014
  920MOL0     H24157   6.874   0.788   2.374  2.4390 -0.7899  2.1237
  920MOL0     H24158   6.781   0.914   2.582 -1.5620 -2.4552 -3.1093
  920MOL0     H24159   6.943   0.992   2.588 -1.9718  0.4592  2.8446
  920MOL0     H24160   7.167   0.904   2.538 -1.2301 -0.4842 -0.7189
  920MOL0     H24161   7.393   0.834   2.576 -1.4040  0.3188 -0.8219
  920MOL0     H24162   7.763   0.734   2.768  0.6809 -0.4416 -0.7746
  920MOL0     H24163   7.995   0.656   2.811  0.0429  0.6496 -0.3299
  920MOL0     H24164   8.206   0.595   2.720 -1.1629 -1.0145 -2.0600
  920MOL0     H24165   8.153   0.511   2.866 -0.7339  0.2577  0.2605
  920MOL0     H24166   8.346   0.354   2.856 -0.4874 -0.7590 -0.7666
  920MOL0     H24167   8.358   0.371   2.684  0.6461 -1.3964  0.9777
  920MOL0     H24168   8.439   0.614   2.712  0.6609  1.9939  1.0719
  920MOL0     H24169   8.432   0.579   2.886 -0.5586  1.1746 -0.9407
  920MOL0     H24170   8.606   0.416   2.680  1.5212  0.8481 -0.4782
  920MOL0     H24171   8.603   0.391   2.858 -0.2308 -0.1248  0.4665
  920MOL0     H24172   8.715   0.615   2.880  1.3628 -1.8115  0.5849
  920MOL0     H24173   8.663   0.651   2.706  2.2392 -0.6866 -1.4908
  920MOL0     H24174   8.874   0.463   2.791  1.2258  2.1782  0.0264
  920MOL0     H24175   8.822   0.488   2.630  2.5751  1.0309 -1.3604
  920MOL0     H24176   8.908   0.724   2.804 -1.3525  0.5572  0.5992
  920MOL0     H24177   8.880   0.716   2.627  0.2686 -1.0931 -1.3484
  920MOL0     H24178   9.137   0.706   2.740 -0.8874  0.7436  0.7982
  920MOL0     H24179   9.088   0.532   2.755 -0.8455 -1.0895 -0.5863
  920MOL0     H24180   7.912   0.320   2.549 -1.3977 -1.0285  0.4813
  920MOL0     H24181   7.671   0.388   2.549 -2.0258  0.0730  1.6462
  920MOL0     H24182   7.251   0.502   2.807 -0.8199 -0.8855 -0.1771
  920MOL0     H24183   7.026   0.560   2.761  0.3168 -1.0866 -0.6524
  920MOL0     H24184   5.171   1.243   1.653  1.6782 -1.9080  0.2874
  920MOL0     H24185   4.938   1.199   1.751 -0.3020 -0.9536 -0.4097
  920MOL0     H24186   4.739   1.085   2.195 -1.4837 -2.5404  0.1794
  920MOL0     H24187   4.526   1.002   2.294 -1.3618 -0.2466 -0.0462
  920MOL0     H24188   4.140   1.157   2.111 -0.1699  3.9701  0.8947
  920MOL0     H24189   4.215   1.220   2.255  1.2225 -1.6225  1.0629
  920MOL0     H24190   4.019   1.141   2.342  1.8704  1.1376  1.5566
  920MOL0     H24191   4.136   1.012   2.369  0.2354 -0.7053 -1.9735
  920MOL0     H24192   3.931   0.900   2.274  1.8437 -2.6333 -0.6334
  920MOL0     H24193   4.057   0.897   2.159  0.3986  0.2375  1.2023
  920MOL0     H24194   3.885   1.149   2.131  0.6072  0.4257 -2.8835
  920MOL0     H24195   3.948   1.053   2.007 -0.0067  1.3336  0.2330
  920MOL0     H24196   3.593   0.845   2.113  1.4387 -1.5277  1.2914
  920MOL0     H24197   4.319   1.147   1.948 -0.9979  2.7550  0.9194
  920MOL0     H24198   4.433   1.211   1.758  0.1596 -1.5672  1.7326
  920MOL0     H24199   4.540   1.336   1.807 -0.9934 -0.3262  1.4594
  920MOL0     H24200   4.616   1.188   1.752  0.2252 -0.9895  0.5235
  921MOL0     O24201  10.071   9.331   6.423 -0.0812  1.2351 -0.6373
  921MOL0     C24202  10.078   9.418   6.336 -0.1283  0.7186  0.0451
  921MOL0     O24203   9.968   9.478   6.273 -0.2761 -0.3055 -0.2460
  921MOL0     C24204   9.843   9.438   6.328  1.2546 -0.2336  0.3525
  921MOL0     C24205   9.804   9.440   6.464 -0.4531 -0.0842  0.2167
  921MOL0     C24206   9.671   9.402   6.505  0.1655 -0.7868  0.2305
  921MOL0     C24207   9.588   9.335   6.418  0.0086  0.1626  0.3041
  921MOL0     O24208   9.452   9.302   6.448 -0.4273  0.4730 -0.8023
  921MOL0     C24209   9.394   9.182   6.390  0.6147  0.7711  0.1035
  921MOL0     C24210   9.337   9.110   6.507  0.4830  0.9285  0.3423
  921MOL0     C24211   9.211   9.187   6.558 -0.4806 -0.2631 -0.1363
  921MOL0     C24212   9.088   9.166   6.467  0.7478 -0.3192 -0.6824
  921MOL0     C24213   8.973   9.276   6.506  0.0417 -0.0009  0.2692
  921MOL0     C24214   8.936   9.278   6.648  1.3354 -0.4619  0.1994
  921MOL0     C24215   8.854   9.154   6.692  0.9690  0.1034 -1.3031
  921MOL0     C24216   8.711   9.161   6.623 -0.7331 -0.9916 -0.5544
  921MOL0     N24217   8.636   9.284   6.650 -0.0179  0.5080 -0.2222
  921MOL0     C24218   8.620   9.393   6.568  0.4625  0.8286  0.5275
  921MOL0     C24219   8.541   9.479   6.637  0.2864  0.5323 -0.2676
  921MOL0     C24220   8.494   9.616   6.596  0.8036 -0.3570 -0.3146
  921MOL0     C24221   8.609   9.699   6.531 -0.1320  0.2548  0.4076
  921MOL0     C24222   8.712   9.739   6.637  1.5461  0.2018  1.0886
  921MOL0     C24223   8.829   9.796   6.565  0.6887 -0.8559  0.4633
  921MOL0     O24224   8.932   9.810   6.663  0.2681  0.7637 -0.2661
  921MOL0     C24225   9.045   9.875   6.622 -0.1626  0.2780  0.7713
  921MOL0     C24226   9.135   9.902   6.727  0.1326  0.9991 -0.1238
  921MOL0     C24227   9.256   9.967   6.703 -0.2936  0.1975  0.2315
  921MOL0     C24228   9.286  10.010   6.579 -0.2307  0.7638  0.3162
  921MOL0     C24229   9.415  10.077   6.565 -0.4190  0.1281  0.0651
  921MOL0     O24230   9.499  10.082   6.672  0.9131  0.4072 -0.1559
  921MOL0     C24231   9.624  10.149   6.669  0.3451  1.1312  0.2865
  921MOL0     C24232   9.687  10.219   6.568  0.6983 -0.2593  0.0353
  921MOL0     C24233   9.818  10.276   6.586  0.2490  0.0992 -0.0492
  921MOL0     C24234   9.884  10.261   6.710 -0.0147  0.3725  0.4304
  921MOL0     O24235  10.007  10.321   6.744  0.9057 -0.0077  0.5949
  921MOL0     C24236  10.066  10.423   6.653 -0.0257 -0.1610 -0.1455
  921MOL0     C24237  10.210  10.419   6.702 -0.0019 -0.9844 -0.2602
  921MOL0     C24238  10.302  10.497   6.607 -0.8133 -0.0113 -0.1676
  921MOL0     C24239  10.442  10.522   6.665 -0.2161  0.0341 -0.0030
  921MOL0     C24240  10.533  10.581   6.557  0.1895 -0.1775  0.1296
  921MOL0     C24241  10.673  10.614   6.613 -0.4709 -0.6891  0.0212
  921MOL0     C24242  10.790  10.617   6.514 -0.4396 -0.3414 -0.0855
  921MOL0     C24243  10.919  10.662   6.580  0.9596  0.3326  0.2509
  921MOL0    Cl24244  10.904  10.845   6.609  0.4242 -0.2403  0.0237
  921MOL0     C24245   9.822  10.187   6.812  0.3869  0.3766 -0.7268
  921MOL0     C24246   9.692  10.137   6.794  0.6883 -0.2641 -0.0355
  921MOL0     O24247   9.436  10.115   6.449  0.0786  0.3101 -0.5679
  921MOL0     C24248   9.199   9.978   6.469 -0.6991  0.3202  0.3404
  921MOL0     C24249   9.074   9.920   6.492 -0.7577  0.5844  0.2627
  921MOL0     N24250   8.510   9.425   6.762  0.5563  0.2046  0.7624
  921MOL0     N24251   8.568   9.305   6.767  0.0721  0.2827 -0.2935
  921MOL0     C24252   9.636   9.314   6.288 -0.0934  0.7806 -0.8097
  921MOL0     C24253   9.760   9.364   6.244 -0.2410  0.6968 -0.4557
  921MOL0     C24254  10.203   9.477   6.307 -0.6892 -0.3499  0.5044
  921MOL0     C24255  10.207   9.605   6.241  0.2331  0.5507  0.5784
  921MOL0     C24256  10.325   9.686   6.233 -0.2032  0.1044  0.4546
  921MOL0     C24257  10.444   9.636   6.275 -0.9245  0.2230 -0.6389
  921MOL0     O24258  10.566   9.698   6.263  0.2158  0.1205  0.0394
  921MOL0     C24259  10.577   9.846   6.257 -0.4987 -0.5524 -0.5665
  921MOL0     C24260  10.715   9.898   6.203 -0.4153  0.4584  0.9453
  921MOL0     C24261  10.842   9.846   6.283 -0.0382  0.9814 -0.7904
  921MOL0     C24262  10.969   9.924   6.268 -0.4476 -0.1634 -0.1569
  921MOL0     C24263  11.082   9.866   6.342 -0.6574 -0.0120  0.4330
  921MOL0     C24264  11.178   9.817   6.407 -0.1051 -0.4881  0.2291
  921MOL0     C24265  10.445   9.511   6.338  0.5142 -0.5119 -0.2666
  921MOL0     C24266  10.330   9.428   6.352 -0.1054  0.3486  0.7227
  921MOL0     C24267  10.354   9.289   6.400 -0.2806 -0.0685  0.1351
  921MOL0     H24268   9.865   9.501   6.531  0.2021  2.6107 -2.6077
  921MOL0     H24269   9.632   9.429   6.603  2.7679  1.2046  0.8176
  921MOL0     H24270   9.322   9.204   6.310  1.8282  0.9217 -0.9745
  921MOL0     H24271   9.474   9.118   6.353 -0.1041  0.2212 -0.5422
  921MOL0     H24272   9.411   9.107   6.588  1.7113  4.4912 -0.4823
  921MOL0     H24273   9.310   9.011   6.469 -0.3314  1.4262 -0.3963
  921MOL0     H24274   9.222   9.295   6.568 -0.1305 -0.2471 -0.6088
  921MOL0     H24275   9.187   9.151   6.658 -4.6953 -1.3020 -1.3272
  921MOL0     H24276   9.111   9.194   6.364 -0.5971 -0.8555 -1.1487
  921MOL0     H24277   9.044   9.067   6.458 -2.4988  1.1614 -3.5504
  921MOL0     H24278   9.011   9.377   6.486  1.6195 -0.9839 -2.1943
  921MOL0     H24279   8.890   9.260   6.437 -0.9983  3.0883  0.6127
  921MOL0     H24280   9.016   9.274   6.722  0.1509 -0.6646  1.5143
  921MOL0     H24281   8.882   9.367   6.682  2.7243  1.2852 -1.8726
  921MOL0     H24282   8.850   9.161   6.801 -1.5247  0.1845 -1.3512
  921MOL0     H24283   8.909   9.064   6.662 -0.2230 -0.7843 -0.9015
  921MOL0     H24284   8.732   9.161   6.516 -1.9816 -0.7468 -0.8241
  921MOL0     H24285   8.654   9.075   6.658 -0.0937 -0.6632  1.4747
  921MOL0     H24286   8.653   9.398   6.465  2.3996 -0.1008  1.0476
  921MOL0     H24287   8.410   9.599   6.528  0.2717 -0.3956  0.3349
  921MOL0     H24288   8.459   9.672   6.683 -0.5548  0.9580 -1.6431
  921MOL0     H24289   8.657   9.639   6.453 -1.6284 -0.1879 -0.2099
  921MOL0     H24290   8.565   9.783   6.476  1.1510 -1.3588 -3.3967
  921MOL0     H24291   8.738   9.648   6.692 -1.2981 -0.3780  1.6803
  921MOL0     H24292   8.675   9.811   6.711  0.7281 -0.4336  1.3190
  921MOL0     H24293   8.800   9.896   6.530 -0.3748 -0.7864  1.4874
  921MOL0     H24294   8.854   9.738   6.476  1.8641  0.2676  0.0232
  921MOL0     H24295   9.124   9.876   6.831 -0.9159  2.6473  0.2144
  921MOL0     H24296   9.334   9.960   6.778  0.6547 -2.0524 -0.8835
  921MOL0     H24297   9.636  10.233   6.473 -1.4208  1.2936  1.3238
  921MOL0     H24298   9.861  10.340   6.510  3.0362  0.5398  1.7556
  921MOL0     H24299  10.069  10.396   6.547  0.3063  0.2035 -0.2319
  921MOL0     H24300  10.017  10.520   6.664 -1.0185 -0.5837 -0.7667
  921MOL0     H24301  10.210  10.457   6.805 -0.6470 -1.4335 -0.0850
  921MOL0     H24302  10.247  10.316   6.705 -1.0326 -1.3638  2.1087
  921MOL0     H24303  10.310  10.437   6.515 -1.7725 -1.0613  0.4071
  921MOL0     H24304  10.253  10.594   6.595 -0.2047  0.1440 -1.7146
  921MOL0     H24305  10.484  10.429   6.705 -2.4996 -0.5653  1.2002
  921MOL0     H24306  10.442  10.591   6.749  1.6966 -1.3973  1.2588
  921MOL0     H24307  10.494  10.678   6.524  2.7350  0.8778  0.0448
  921MOL0     H24308  10.533  10.518   6.467 -0.5391 -1.1553  0.7854
  921MOL0     H24309  10.665  10.711   6.663 -1.2096 -0.2450 -0.9066
  921MOL0     H24310  10.712  10.539   6.683 -0.5670 -3.0841 -2.3131
  921MOL0     H24311  10.763  10.684   6.432 -1.3864 -0.5210  0.0672
  921MOL0     H24312  10.804  10.516   6.476 -2.2363 -0.8705  0.5280
  921MOL0     H24313  10.943  10.598   6.666 -0.5017 -3.0259 -1.6533
  921MOL0     H24314  11.000  10.652   6.508  1.1058  1.1435  0.2944
  921MOL0     H24315   9.866  10.175   6.911  0.6324 -1.1919 -0.9926
  921MOL0     H24316   9.625  10.096   6.868 -1.0668 -1.1223 -1.9865
  921MOL0     H24317   9.221  10.008   6.367 -2.3339  3.1573  0.6915
  921MOL0     H24318   9.014   9.881   6.410 -1.6284 -1.0449  1.6064
  921MOL0     H24319   9.588   9.245   6.220 -1.9290 -3.3624  4.0181
  921MOL0     H24320   9.799   9.339   6.146  0.1788  0.5803 -0.2592
  921MOL0     H24321  10.120   9.652   6.198  1.5447  3.3861  0.8312
  921MOL0     H24322  10.311   9.781   6.181 -0.6001  0.0339  0.4231
  921MOL0     H24323  10.551   9.888   6.355 -0.5084 -0.4811 -0.5992
  921MOL0     H24324  10.507   9.879   6.180 -1.2431  0.5783  0.5576
  921MOL0     H24325  10.716  10.007   6.214  0.2358  0.4377  1.1421
  921MOL0     H24326  10.722   9.870   6.097  2.5617 -1.6385  1.5822
  921MOL0     H24327  10.868   9.743   6.256  2.5570  1.5150 -0.6410
  921MOL0     H24328  10.820   9.846   6.390  0.7007  2.0636 -0.6154
  921MOL0     H24329  10.993   9.925   6.161 -0.7737 -2.4222 -0.2980
  921MOL0     H24330  10.955  10.027   6.304  3.8301  0.2887  0.7406
  921MOL0     H24331  11.261   9.787   6.467  0.0454 -0.6313 -0.0509
  921MOL0     H24332  10.543   9.485   6.378  0.6476  0.6866  0.2155
  921MOL0     H24333  10.292   9.266   6.487 -2.8613 -0.3687 -1.6754
  921MOL0     H24334  10.321   9.224   6.319 -0.5201  0.8830 -0.5417
  921MOL0     H24335  10.461   9.265   6.405 -0.4327 -1.0139 -0.8318
  922MOL0     O24336   3.801   0.681   7.328  0.4662  0.0201  0.0666
  922MOL0     C24337   3.738   0.764   7.395 -0.5324 -0.1385  0.3418
  922MOL0     O24338   3.784   0.871   7.458 -0.6961 -0.7007  0.0164
  922MOL0     C24339   3.925   0.889   7.474  0.5634  0.7226 -0.1967
  922MOL0     C24340   4.024   0.877   7.364  1.4347 -0.5535 -0.6796
  922MOL0     C24341   4.157   0.914   7.387  0.0954 -0.4853  0.4009
  922MOL0     C24342   4.201   0.948   7.518 -0.3880 -0.0085 -0.2661
  922MOL0     O24343   4.337   0.963   7.543 -0.1962 -0.0204  0.3074
  922MOL0     C24344   4.384   1.075   7.466 -0.5379  0.6948  0.7111
  922MOL0     C24345   4.508   1.132   7.533  0.2700  0.5969 -0.6034
  922MOL0     C24346   4.597   1.218   7.450  0.2118  0.3615 -0.2810
  922MOL0     C24347   4.717   1.273   7.532  0.5340  0.2341 -0.0316
  922MOL0     C24348   4.832   1.302   7.444  0.5103  0.4928  1.5380
  922MOL0     C24349   4.954   1.352   7.519 -0.1503  0.3246 -0.6225
  922MOL0     C24350   5.073   1.341   7.424 -0.4356 -0.9567  0.1113
  922MOL0     C24351   5.206   1.351   7.492  0.4960 -0.0211  0.3907
  922MOL0     N24352   5.321   1.337   7.405  0.4193 -0.5588  0.2646
  922MOL0     C24353   5.341   1.263   7.297 -0.5110  0.4484 -0.9521
  922MOL0     C24354   5.458   1.287   7.252 -1.2544  0.0751 -0.2702
  922MOL0     C24355   5.519   1.207   7.138 -1.0282 -1.0386  0.5533
  922MOL0     C24356   5.616   1.095   7.193  1.0458  0.5262  0.2309
  922MOL0     C24357   5.734   1.061   7.105  1.0667  0.0293 -0.3821
  922MOL0     C24358   5.807   0.937   7.148 -0.1782 -0.0830 -0.1838
  922MOL0     O24359   5.897   0.958   7.260 -0.2852 -0.0744  0.1078
  922MOL0     C24360   6.031   0.989   7.242 -0.4084 -1.1538 -0.2879
  922MOL0     C24361   6.079   1.024   7.108  0.0742 -0.8945 -0.3043
  922MOL0     C24362   6.214   1.070   7.095 -0.1192  0.3059  0.0972
  922MOL0     C24363   6.304   1.073   7.211 -0.2802 -0.5122  1.2752
  922MOL0     C24364   6.448   1.108   7.191 -0.6730  0.5181  0.3346
  922MOL0     O24365   6.480   1.172   7.067  0.1921 -0.0439 -0.0416
  922MOL0     C24366   6.595   1.244   7.067 -1.1661  0.3536 -0.1283
  922MOL0     C24367   6.617   1.357   7.137  0.0228  0.4747  0.1956
  922MOL0     C24368   6.738   1.426   7.133  0.3746  0.2614 -0.5534
  922MOL0     C24369   6.848   1.387   7.045  0.8004  1.0519 -0.3634
  922MOL0     O24370   6.985   1.428   7.037 -0.0465  0.5542 -0.0844
  922MOL0     C24371   7.014   1.542   7.126  0.1719  0.8211  0.3356
  922MOL0     C24372   7.161   1.551   7.177 -0.6727 -0.2194 -0.2688
  922MOL0     C24373   7.259   1.570   7.061 -0.7161  0.0196 -0.1120
  922MOL0     C24374   7.397   1.555   7.116 -0.2906  0.0904 -0.4441
  922MOL0     C24375   7.494   1.553   6.996  0.2238  0.3679  0.1544
  922MOL0     C24376   7.640   1.531   7.039  0.0191  0.2928 -0.5607
  922MOL0     C24377   7.752   1.551   6.930  0.6355 -0.1225 -0.5006
  922MOL0     C24378   7.891   1.524   6.995  0.3284  0.1966 -1.0253
  922MOL0    Cl24379   7.935   1.659   7.091 -0.4645 -0.2836 -0.3666
  922MOL0     C24380   6.818   1.274   6.965  0.0703 -0.3887  0.6451
  922MOL0     C24381   6.694   1.208   6.978  0.7964 -0.1712  0.4599
  922MOL0     O24382   6.528   1.072   7.277  0.1162 -0.0855  0.5552
  922MOL0     C24383   6.254   1.034   7.339 -0.1691 -0.3777  0.3180
  922MOL0     C24384   6.117   0.996   7.351 -0.4896  0.2139  0.1621
  922MOL0     N24385   5.525   1.385   7.327  0.7154  0.9441  0.1581
  922MOL0     N24386   5.437   1.408   7.420  0.5538 -0.0497  0.2467
  922MOL0     C24387   4.109   0.960   7.624 -0.1230  0.4156  0.7969
  922MOL0     C24388   3.972   0.933   7.597  0.0366  0.4383 -1.2415
  922MOL0     C24389   3.592   0.756   7.389  0.6254  0.0334  0.1652
  922MOL0     C24390   3.538   0.671   7.486  0.3323 -1.2566  0.0456
  922MOL0     C24391   3.397   0.653   7.491  0.2487 -0.7169 -0.2134
  922MOL0     C24392   3.318   0.725   7.405 -0.8305  0.2488  0.3777
  922MOL0     O24393   3.181   0.712   7.427  0.8643 -0.7523  0.7796
  922MOL0     C24394   3.086   0.789   7.353 -0.8348  0.2005  0.5757
  922MOL0     C24395   2.946   0.773   7.417  0.3327  0.0491 -0.4812
  922MOL0     C24396   2.864   0.650   7.365  0.8925  0.1023 -0.2230
  922MOL0     C24397   2.716   0.639   7.412 -0.0272  0.3127 -0.3439
  922MOL0     C24398   2.673   0.508   7.443  0.0868  0.2331 -0.2830
  922MOL0     C24399   2.636   0.399   7.475 -0.6438 -0.4093  0.0591
  922MOL0     C24400   3.375   0.804   7.304  0.6091  0.1906  0.6112
  922MOL0     C24401   3.508   0.821   7.292  1.2692  1.0679  0.5611
  922MOL0     C24402   3.545   0.918   7.186 -0.4587 -0.0559 -1.4018
  922MOL0     H24403   4.000   0.837   7.267 -1.9812  1.2764 -0.7535
  922MOL0     H24404   4.223   0.910   7.301  0.0070 -0.9596  0.3522
  922MOL0     H24405   4.424   1.038   7.371 -0.4007  1.1837  0.5742
  922MOL0     H24406   4.310   1.152   7.445 -1.5527 -0.6018 -0.7037
  922MOL0     H24407   4.559   1.045   7.575 -1.0108  0.7852  1.4937
  922MOL0     H24408   4.463   1.185   7.618 -0.0416 -0.0428 -0.3639
  922MOL0     H24409   4.538   1.302   7.412  0.9844  2.2294  2.3922
  922MOL0     H24410   4.624   1.168   7.356 -1.3968 -2.5987  0.7026
  922MOL0     H24411   4.679   1.356   7.593 -1.7660  0.8674 -2.1498
  922MOL0     H24412   4.748   1.197   7.604  2.7766  0.2646 -0.8958
  922MOL0     H24413   4.848   1.205   7.394 -1.6146 -0.0089  1.7405
  922MOL0     H24414   4.805   1.366   7.360  0.9998 -1.5564 -0.3033
  922MOL0     H24415   4.929   1.456   7.541 -1.3884 -0.0254 -0.2399
  922MOL0     H24416   4.970   1.292   7.609 -0.1721 -0.5181 -1.1676
  922MOL0     H24417   5.062   1.421   7.350  0.2397 -1.7002 -0.8172
  922MOL0     H24418   5.073   1.242   7.377  2.1061 -1.0408  0.1145
  922MOL0     H24419   5.208   1.453   7.531 -3.7976 -0.0398  1.1234
  922MOL0     H24420   5.210   1.282   7.577 -0.4781  1.1646  1.4405
  922MOL0     H24421   5.268   1.202   7.244  1.4652 -1.8093 -1.2774
  922MOL0     H24422   5.447   1.176   7.061 -2.4862  0.1887  1.3718
  922MOL0     H24423   5.585   1.276   7.085 -4.0321  1.1563 -0.5614
  922MOL0     H24424   5.643   1.136   7.291 -3.5329  1.2589  1.4356
  922MOL0     H24425   5.553   1.005   7.195 -0.8502  1.6414 -2.7049
  922MOL0     H24426   5.803   1.146   7.103  2.3114 -0.9640 -0.3537
  922MOL0     H24427   5.686   1.051   7.007 -0.5340  0.6240  0.3055
  922MOL0     H24428   5.862   0.899   7.061  1.7895  0.9789  0.5331
  922MOL0     H24429   5.733   0.859   7.170  0.1431  0.0709  1.5710
  922MOL0     H24430   6.019   1.041   7.020  1.8448  2.1086 -1.0704
  922MOL0     H24431   6.248   1.102   6.997  0.6768  1.2737  0.6627
  922MOL0     H24432   6.547   1.384   7.214 -0.8491 -0.8828 -0.0789
  922MOL0     H24433   6.746   1.517   7.191  0.9168  1.8866 -3.0522
  922MOL0     H24434   6.983   1.635   7.077 -3.0020 -0.7424 -0.9521
  922MOL0     H24435   6.949   1.535   7.214 -1.0424  0.0274 -0.5980
  922MOL0     H24436   7.170   1.625   7.257  0.0709 -1.6039  0.9649
  922MOL0     H24437   7.185   1.455   7.223 -0.5706 -0.3642 -0.6200
  922MOL0     H24438   7.252   1.503   6.975  1.1462 -1.4873  0.8388
  922MOL0     H24439   7.259   1.668   7.013  1.7803  0.0869 -0.0901
  922MOL0     H24440   7.400   1.466   7.179 -1.6127  0.0723 -0.3695
  922MOL0     H24441   7.429   1.639   7.177 -0.1818  0.3847 -0.9001
  922MOL0     H24442   7.489   1.646   6.940 -0.4043  0.4389  0.3246
  922MOL0     H24443   7.455   1.470   6.936  0.7918  0.7294 -0.7318
  922MOL0     H24444   7.652   1.600   7.123 -1.6834 -1.6599  1.4049
  922MOL0     H24445   7.644   1.431   7.082  0.2868  0.4781 -0.1478
  922MOL0     H24446   7.750   1.644   6.873  0.7495  0.3890  0.3111
  922MOL0     H24447   7.741   1.470   6.858 -1.5796 -2.0243  1.7772
  922MOL0     H24448   7.887   1.432   7.053  3.9411  0.4353 -0.1635
  922MOL0     H24449   7.964   1.505   6.916 -1.3877  0.7462 -2.8264
  922MOL0     H24450   6.899   1.236   6.904  0.9469 -0.9090  2.1049
  922MOL0     H24451   6.667   1.118   6.923 -2.1750  0.1428  1.2294
  922MOL0     H24452   6.319   1.030   7.426 -0.8514 -2.0277  0.7894
  922MOL0     H24453   6.074   0.967   7.446 -0.6549 -1.5287 -0.4109
  922MOL0     H24454   4.151   1.004   7.714 -0.8432  0.8406  0.9376
  922MOL0     H24455   3.898   0.948   7.674  1.7862  1.2885  0.3510
  922MOL0     H24456   3.597   0.621   7.561  1.7985 -1.1955 -1.0215
  922MOL0     H24457   3.355   0.592   7.571  0.1120 -1.1318 -0.6015
  922MOL0     H24458   3.074   0.750   7.251 -2.0569  2.8484 -0.3877
  922MOL0     H24459   3.114   0.895   7.345  1.9488 -0.5274 -0.3473
  922MOL0     H24460   2.891   0.867   7.405  0.7270  0.5056  1.0157
  922MOL0     H24461   2.955   0.767   7.526  0.2980  1.4783 -0.3722
  922MOL0     H24462   2.907   0.553   7.392 -2.2549 -2.5027 -3.4608
  922MOL0     H24463   2.865   0.659   7.256 -1.2467  3.4182 -0.1118
  922MOL0     H24464   2.708   0.686   7.511  0.0243  1.1317 -0.7247
  922MOL0     H24465   2.649   0.688   7.342 -0.6321  1.0871  0.7513
  922MOL0     H24466   2.598   0.302   7.502 -0.2925 -0.8491 -0.9624
  922MOL0     H24467   3.312   0.858   7.234 -0.5665 -2.7233 -0.7434
  922MOL0     H24468   3.653   0.924   7.172 -0.3361  1.7526  0.0085
  922MOL0     H24469   3.481   0.919   7.098 -1.2134  1.6112 -0.8704
  922MOL0     H24470   3.522   1.017   7.226  0.9339 -0.7973  1.5231
  923MOL0     O24471   8.384  10.256  10.805 -0.1137  0.5128  0.4908
  923MOL0     C24472   8.390  10.197  10.702  0.9193 -0.5228  1.3113
  923MOL0     O24473   8.504  10.172  10.633  0.5387  0.1448  0.3898
  923MOL0     C24474   8.605  10.262  10.653 -0.2344 -0.3502 -0.5237
  923MOL0     C24475   8.585  10.397  10.629 -0.7132  0.0760 -0.0298
  923MOL0     C24476   8.691  10.487  10.653 -0.4690 -0.0878 -1.3787
  923MOL0     C24477   8.811  10.442  10.703 -0.1769  0.0961  0.2996
  923MOL0     O24478   8.906  10.533  10.711 -0.4802 -0.0406 -0.5280
  923MOL0     C24479   9.042  10.489  10.694 -0.6174 -0.8175 -0.4779
  923MOL0     C24480   9.134  10.614  10.707 -0.0249 -0.1799 -0.1170
  923MOL0     C24481   9.091  10.705  10.595 -0.0075  0.6559  0.9607
  923MOL0     C24482   9.193  10.812  10.541  0.1211 -0.1347  0.0764
  923MOL0     C24483   9.138  10.936  10.461  0.7535 -0.2785 -0.7127
  923MOL0     C24484   9.219  11.062  10.488  0.3469 -0.3398 -0.2730
  923MOL0     C24485   9.171  11.187  10.417 -0.6102  0.3441  0.2811
  923MOL0     C24486   9.210  11.194  10.269  0.4471  0.0143 -0.3679
  923MOL0     N24487   9.174  11.326  10.213  0.1252  0.0611 -0.7455
  923MOL0     C24488   9.234  11.442  10.252 -0.7536 -0.1020 -0.9791
  923MOL0     C24489   9.163  11.539  10.193  0.6151  0.5361 -0.3240
  923MOL0     C24490   9.175  11.688  10.204 -0.6362  0.4752 -0.1420
  923MOL0     C24491   9.164  11.764  10.068 -0.0330  0.1213  0.0481
  923MOL0     C24492   9.295  11.735   9.989 -0.4048  0.2619  0.3785
  923MOL0     C24493   9.272  11.751   9.836 -0.7997 -0.5348  0.5606
  923MOL0     O24494   9.391  11.713   9.766 -0.0157  0.2415 -0.9505
  923MOL0     C24495   9.445  11.792   9.670 -0.0808 -0.0311 -0.1279
  923MOL0     C24496   9.486  11.728   9.556  0.7404  0.4665  0.4366
  923MOL0     C24497   9.567  11.799   9.468 -0.1138 -0.4053  0.1875
  923MOL0     C24498   9.626  11.929   9.501  1.2538  0.3003 -0.4687
  923MOL0     C24499   9.723  11.995   9.415  0.0752 -0.3769  0.5301
  923MOL0     O24500   9.795  12.106   9.461  0.0660  0.1025  0.4233
  923MOL0     C24501   9.888  12.164   9.388  0.7241 -0.8197  0.4859
  923MOL0     C24502  10.020  12.169   9.440 -0.3798 -0.6488  0.1399
  923MOL0     C24503  10.123  12.242   9.383  0.4728  0.3583  0.1243
  923MOL0     C24504  10.098  12.309   9.260  0.0053  1.1605  0.3937
  923MOL0     O24505  10.200  12.376   9.196 -0.3201 -0.4160  0.4214
  923MOL0     C24506  10.172  12.494   9.132  0.3828 -1.0605  0.6649
  923MOL0     C24507  10.278  12.595   9.157 -0.2868 -0.2767  0.4352
  923MOL0     C24508  10.268  12.716   9.070  0.4432 -0.2851 -0.4058
  923MOL0     C24509  10.367  12.699   8.953  0.4781 -0.0045 -0.7601
  923MOL0     C24510  10.382  12.835   8.883  0.2534  0.6731 -0.3284
  923MOL0     C24511  10.269  12.860   8.783 -0.0925 -0.1647 -0.4690
  923MOL0     C24512  10.297  12.811   8.639  0.3851  1.0753 -0.5407
  923MOL0     C24513  10.413  12.877   8.569 -0.8607  0.6616  0.3673
  923MOL0    Cl24514  10.360  13.048   8.531 -0.4508  0.0422 -0.1677
  923MOL0     C24515   9.966  12.311   9.204  0.9147  1.0811 -0.0263
  923MOL0     C24516   9.860  12.239   9.265 -1.1672  0.4793  0.2270
  923MOL0     O24517   9.741  11.947   9.302 -0.1239 -0.1321  0.5784
  923MOL0     C24518   9.574  11.985   9.626 -1.0019 -0.0993  0.2030
  923MOL0     C24519   9.487  11.916   9.710  1.3713 -0.1094  0.4130
  923MOL0     N24520   9.072  11.477  10.113 -0.1267 -0.7155  0.4928
  923MOL0     N24521   9.083  11.351  10.115  0.0158 -0.0759 -0.1617
  923MOL0     C24522   8.822  10.305  10.745 -0.2897  0.1344 -0.6947
  923MOL0     C24523   8.723  10.217  10.711  0.0018  0.1644  0.8060
  923MOL0     C24524   8.259  10.143  10.645  0.3049  0.1799  0.6569
  923MOL0     C24525   8.155  10.101  10.727  0.3279 -0.3319  0.0099
  923MOL0     C24526   8.031  10.065  10.676  0.0076  1.0500  0.4212
  923MOL0     C24527   8.009  10.043  10.534 -0.0068 -0.2052  0.5846
  923MOL0     O24528   7.892  10.010  10.472 -0.1340 -0.0880 -0.2814
  923MOL0     C24529   7.767  10.006  10.549  0.1322 -0.0469  0.3196
  923MOL0     C24530   7.665  10.047  10.446  0.1813 -0.5124  0.3498
  923MOL0     C24531   7.524  10.002  10.499  0.1380  1.1326 -0.0174
  923MOL0     C24532   7.412  10.034  10.408 -0.1452  0.7383 -0.3078
  923MOL0     C24533   7.432   9.940  10.292  0.0987 -0.3326  0.2177
  923MOL0     C24534   7.449   9.850  10.209 -0.4547 -0.1970 -0.0823
  923MOL0     C24535   8.110  10.084  10.450 -1.2091  0.5542  0.5213
  923MOL0     C24536   8.232  10.138  10.504 -0.9830 -0.1935 -0.9791
  923MOL0     C24537   8.317  10.198  10.396  0.1921 -0.0732  0.6205
  923MOL0     H24538   8.491  10.435  10.590 -0.0576  2.1841  0.2738
  923MOL0     H24539   8.667  10.591  10.631 -3.8385 -0.9941 -2.6445
  923MOL0     H24540   9.072  10.422  10.774  0.1471  0.0530 -0.0086
  923MOL0     H24541   9.058  10.448  10.594 -0.6439  1.7143 -1.5964
  923MOL0     H24542   9.233  10.574  10.685  0.1811 -0.4177  1.1550
  923MOL0     H24543   9.121  10.662  10.804  2.1394 -0.6770  0.4728
  923MOL0     H24544   9.003  10.760  10.629 -0.7234 -0.0745  0.3423
  923MOL0     H24545   9.050  10.646  10.512  0.7610  1.6588 -0.1657
  923MOL0     H24546   9.228  10.851  10.637 -1.1006 -1.1977  0.9854
  923MOL0     H24547   9.265  10.765  10.474  1.0975  0.3290  0.7825
  923MOL0     H24548   9.133  10.911  10.355  0.6196  1.9868 -1.3098
  923MOL0     H24549   9.033  10.946  10.491 -0.1418 -2.0741 -2.9795
  923MOL0     H24550   9.208  11.076  10.596 -0.6847  1.3535 -0.5556
  923MOL0     H24551   9.323  11.042  10.463  0.8763  0.1348  1.3653
  923MOL0     H24552   9.213  11.267  10.479 -2.5610  0.0504  2.1071
  923MOL0     H24553   9.063  11.198  10.424 -0.7213 -1.1209  1.4472
  923MOL0     H24554   9.319  11.183  10.263  0.6641  0.5765  1.8760
  923MOL0     H24555   9.142  11.131  10.211 -0.1079  1.5209 -1.4058
  923MOL0     H24556   9.322  11.459  10.313 -1.7523  2.2248 -0.0435
  923MOL0     H24557   9.094  11.735  10.261 -2.0721 -0.2870 -1.4573
  923MOL0     H24558   9.270  11.713  10.253  0.7655 -1.9092 -1.4685
  923MOL0     H24559   9.076  11.727  10.015  0.3442  1.3472 -1.5168
  923MOL0     H24560   9.142  11.869  10.091  1.8960  0.3205  1.1980
  923MOL0     H24561   9.332  11.634  10.013  0.2736  0.5039  0.3784
  923MOL0     H24562   9.368  11.807  10.028 -2.0949  0.2283  4.0225
  923MOL0     H24563   9.244  11.855   9.816 -0.7852 -0.8345 -1.0959
  923MOL0     H24564   9.187  11.688   9.810 -1.5552 -0.4854  2.6752
  923MOL0     H24565   9.451  11.629   9.529 -0.1904  0.7463  0.5857
  923MOL0     H24566   9.608  11.755   9.378 -1.0256  1.8845 -1.4078
  923MOL0     H24567  10.047  12.109   9.525 -4.0725 -2.1797  0.4348
  923MOL0     H24568  10.226  12.230   9.414  0.9475 -0.1876 -1.5502
  923MOL0     H24569  10.172  12.473   9.025 -1.0049 -0.3728  0.5106
  923MOL0     H24570  10.072  12.526   9.164  0.7535 -1.1726  2.0028
  923MOL0     H24571  10.276  12.623   9.263 -1.2063 -1.3830  0.7269
  923MOL0     H24572  10.372  12.542   9.145 -1.2824 -1.9765 -0.1826
  923MOL0     H24573  10.170  12.747   9.035  0.8696 -0.7637 -2.1330
  923MOL0     H24574  10.297  12.799   9.136  1.3778 -1.4260  0.6573
  923MOL0     H24575  10.330  12.635   8.872  1.1509 -0.0354 -1.0485
  923MOL0     H24576  10.463  12.665   8.993  0.3444  0.6746  0.1902
  923MOL0     H24577  10.477  12.830   8.829 -1.6113 -0.4368 -3.7454
  923MOL0     H24578  10.393  12.920   8.951  3.4764 -0.0342  0.2346
  923MOL0     H24579  10.170  12.826   8.815 -1.4265  3.6337 -0.0175
  923MOL0     H24580  10.248  12.967   8.772  1.6084  0.1254 -1.2073
  923MOL0     H24581  10.206  12.822   8.579  1.0226  3.6705 -1.1986
  923MOL0     H24582  10.315  12.704   8.644 -3.0403  0.3940 -0.5223
  923MOL0     H24583  10.510  12.876   8.620 -0.2151 -1.4408 -0.8084
  923MOL0     H24584  10.424  12.810   8.483 -2.4557  0.3073  0.4037
  923MOL0     H24585   9.950  12.360   9.108  1.0823 -1.1798 -1.2741
  923MOL0     H24586   9.765  12.209   9.220 -1.2466 -4.7682  3.1950
  923MOL0     H24587   9.601  12.088   9.644 -3.0518  1.1736 -3.0663
  923MOL0     H24588   9.461  11.957   9.807  1.6133  1.0388  0.0132
  923MOL0     H24589   8.911  10.261  10.790 -0.4323 -0.8251 -1.3249
  923MOL0     H24590   8.738  10.110  10.722 -0.7435 -0.0558 -0.1966
  923MOL0     H24591   8.159  10.093  10.835 -1.6048 -0.3400  0.1284
  923MOL0     H24592   7.949  10.063  10.748  0.2964  4.5733  0.9824
  923MOL0     H24593   7.779  10.069  10.637  2.6877 -0.4417  0.3376
  923MOL0     H24594   7.741   9.905  10.584 -0.2138 -0.8148 -1.9650
  923MOL0     H24595   7.678   9.996  10.350 -0.8619 -0.4107  0.1336
  923MOL0     H24596   7.672  10.152  10.414  1.0226 -0.3977  0.8940
  923MOL0     H24597   7.500  10.060  10.589 -0.1981 -1.1318  1.4487
  923MOL0     H24598   7.529   9.896  10.527  0.9495  1.9455  3.4033
  923MOL0     H24599   7.318  10.011  10.459  1.7711 -2.6508  2.1013
  923MOL0     H24600   7.414  10.138  10.374 -1.8283  0.9219  0.0627
  923MOL0     H24601   7.460   9.775  10.134 -2.8127 -3.9556  2.9328
  923MOL0     H24602   8.096  10.085  10.342 -3.9603 -1.8131  0.7389
  923MOL0     H24603   8.261  10.234  10.309  1.3307 -3.4794 -1.7313
  923MOL0     H24604   8.360  10.289  10.438 -0.8820 -0.0002  1.6053
  923MOL0     H24605   8.391  10.124  10.366 -0.5821 -0.4050 -0.5542
  924MOL0     O24606   1.620   8.987  10.972  0.3918  0.4809 -0.4858
  924MOL0     C24607   1.599   8.937  11.078 -0.3870  0.3631 -0.9873
  924MOL0     O24608   1.703   8.915  11.171  0.2324  0.0252 -0.4143
  924MOL0     C24609   1.835   8.919  11.133 -0.0509 -0.4622 -0.5334
  924MOL0     C24610   1.925   8.966  11.225  0.1513  0.4307 -0.0165
  924MOL0     C24611   2.057   8.998  11.187  0.0747  0.0728 -0.2966
  924MOL0     C24612   2.104   8.953  11.066  0.0069 -0.3691 -0.1689
  924MOL0     O24613   2.235   8.957  11.030 -0.0420  0.2370  0.4050
  924MOL0     C24614   2.320   9.047  11.109  0.2849 -0.3458  0.6613
  924MOL0     C24615   2.455   9.049  11.035  0.0150  0.6694 -0.4143
  924MOL0     C24616   2.507   8.908  11.004 -0.0312  0.6901 -0.4573
  924MOL0     C24617   2.570   8.926  10.861  0.6718  0.4478 -0.7885
  924MOL0     C24618   2.639   8.793  10.816  0.2946 -0.0404 -0.0848
  924MOL0     C24619   2.624   8.769  10.670 -0.5732 -0.0773  0.2775
  924MOL0     C24620   2.673   8.633  10.627 -0.5409 -0.1184  1.0486
  924MOL0     C24621   2.829   8.629  10.580 -0.5579  0.1879 -0.3471
  924MOL0     N24622   2.846   8.524  10.479  0.3909 -0.4160 -0.0411
  924MOL0     C24623   2.919   8.535  10.363 -0.2761 -0.1924 -0.2289
  924MOL0     C24624   2.956   8.401  10.335  0.1483 -0.0669 -0.2948
  924MOL0     C24625   3.064   8.372  10.228 -0.5420 -0.1850  0.2682
  924MOL0     C24626   3.008   8.385  10.084  0.2825 -0.3516 -0.4583
  924MOL0     C24627   3.099   8.311   9.982 -0.1731  0.5586  0.2595
  924MOL0     C24628   3.237   8.363   9.968 -0.8353  0.1693  0.2901
  924MOL0     O24629   3.229   8.500   9.934 -0.0750 -0.1904  0.1682
  924MOL0     C24630   3.339   8.573   9.895 -0.0081  0.2393 -0.2405
  924MOL0     C24631   3.465   8.512   9.876 -0.7601 -0.1211 -0.3761
  924MOL0     C24632   3.582   8.587   9.862 -0.4230 -0.5603  0.2664
  924MOL0     C24633   3.574   8.727   9.833  0.1407 -0.5320 -0.2148
  924MOL0     C24634   3.696   8.799   9.782  0.4629 -0.5280 -0.2941
  924MOL0     O24635   3.677   8.936   9.781 -0.2965 -0.8989  0.0467
  924MOL0     C24636   3.786   9.019   9.775 -0.7158  0.2853 -0.3912
  924MOL0     C24637   3.797   9.134   9.864  0.0670  0.6286  0.6790
  924MOL0     C24638   3.913   9.209   9.852 -0.2401  1.2860  0.4301
  924MOL0     C24639   4.012   9.183   9.758 -0.3305  0.1860  0.3335
  924MOL0     O24640   4.141   9.238   9.753  0.2966  0.4813  0.5144
  924MOL0     C24641   4.153   9.380   9.772  0.2015  0.7669  0.0834
  924MOL0     C24642   4.298   9.418   9.777 -0.7760  0.1388  0.0953
  924MOL0     C24643   4.368   9.329   9.880 -0.0834  0.2399 -0.5400
  924MOL0     C24644   4.518   9.349   9.856  0.0144 -0.5186  0.6411
  924MOL0     C24645   4.590   9.311   9.981 -0.9540  0.4835 -0.0540
  924MOL0     C24646   4.741   9.330   9.984  0.8789 -0.5277  0.3859
  924MOL0     C24647   4.818   9.238  10.091  0.2042 -0.6654 -0.7456
  924MOL0     C24648   4.967   9.258  10.080 -0.5253 -0.2035  0.0621
  924MOL0    Cl24649   5.043   9.148  10.198  0.0396 -0.1160 -0.0982
  924MOL0     C24650   3.990   9.079   9.672  1.0535  0.0358  0.0674
  924MOL0     C24651   3.881   8.992   9.675  0.8121  0.0173 -0.9189
  924MOL0     O24652   3.801   8.735   9.756  0.8311 -1.0023 -0.3756
  924MOL0     C24653   3.444   8.789   9.839  0.6386  0.0160 -0.0094
  924MOL0     C24654   3.336   8.717   9.883  0.2189  0.1118  0.4723
  924MOL0     N24655   2.900   8.317  10.424 -0.5557 -0.2222 -0.0946
  924MOL0     N24656   2.843   8.389  10.515  0.1112 -0.0862  0.7433
  924MOL0     C24657   2.017   8.890  10.985  0.5671  0.6670  0.0142
  924MOL0     C24658   1.877   8.876  11.012 -0.2097 -0.1872 -0.4037
  924MOL0     C24659   1.457   8.909  11.117  0.4030 -0.1934  0.5551
  924MOL0     C24660   1.421   8.910  11.246  0.1810 -0.3803  0.0606
  924MOL0     C24661   1.289   8.881  11.291  0.0094  0.1474 -1.1393
  924MOL0     C24662   1.183   8.855  11.197 -0.5951 -0.4383 -0.2799
  924MOL0     O24663   1.064   8.827  11.250 -0.7997  0.1248  0.2345
  924MOL0     C24664   0.946   8.863  11.177  0.0150  0.4105 -0.6315
  924MOL0     C24665   0.821   8.792  11.224  0.0058 -0.0382  0.2387
  924MOL0     C24666   0.810   8.636  11.189  0.1591  0.1728 -0.5823
  924MOL0     C24667   0.680   8.563  11.239  0.3150  0.3367 -0.0379
  924MOL0     C24668   0.569   8.592  11.152  0.4705 -0.6605 -0.3244
  924MOL0     C24669   0.486   8.629  11.069  0.1298  0.3187 -0.6631
  924MOL0     C24670   1.217   8.848  11.062 -0.1900 -0.2750  0.0518
  924MOL0     C24671   1.350   8.880  11.022 -0.3518  1.2333 -0.2100
  924MOL0     C24672   1.384   8.859  10.875  0.1978 -0.6699  0.5527
  924MOL0     H24673   1.876   8.999  11.316  0.3327  2.1514 -0.5021
  924MOL0     H24674   2.112   9.058  11.259 -0.5921  1.9892 -1.2958
  924MOL0     H24675   2.279   9.148  11.118 -1.0886 -0.8072 -0.1053
  924MOL0     H24676   2.336   9.001  11.207 -1.9190  0.8505  1.6586
  924MOL0     H24677   2.528   9.089  11.107  0.9124 -1.2965 -0.1541
  924MOL0     H24678   2.444   9.116  10.950 -1.7484  0.4021 -0.4376
  924MOL0     H24679   2.428   8.833  11.002  1.3878 -0.8646 -0.2951
  924MOL0     H24680   2.591   8.880  11.067  1.6430 -2.3895 -3.7198
  924MOL0     H24681   2.500   8.973  10.791 -0.3321  2.2941  1.3469
  924MOL0     H24682   2.637   9.011  10.870 -0.3337  1.1928 -0.1700
  924MOL0     H24683   2.740   8.778  10.856  0.8526  0.4346 -1.2891
  924MOL0     H24684   2.586   8.718  10.876  0.1274  1.0965  1.2512
  924MOL0     H24685   2.518   8.784  10.648 -1.1342 -2.8866  0.7329
  924MOL0     H24686   2.688   8.843  10.621  0.3184  0.1676  1.7483
  924MOL0     H24687   2.630   8.616  10.528  2.7708  0.7575 -0.7182
  924MOL0     H24688   2.655   8.555  10.702 -3.0890  2.4571  3.3106
  924MOL0     H24689   2.880   8.718  10.542 -0.2221 -0.0695 -0.5061
  924MOL0     H24690   2.890   8.606  10.668 -0.0052  1.2672 -0.4352
  924MOL0     H24691   2.957   8.627  10.319 -1.4424 -0.0142 -0.9378
  924MOL0     H24692   3.143   8.445  10.248  0.0886 -0.6990 -0.3469
  924MOL0     H24693   3.089   8.267  10.243  1.2669  0.0525 -0.8068
  924MOL0     H24694   2.909   8.338  10.081  0.3211 -0.7236  1.9873
  924MOL0     H24695   3.012   8.492  10.060 -1.7378  0.2779  1.6058
  924MOL0     H24696   3.044   8.319   9.888  0.7504  0.0559 -0.3352
  924MOL0     H24697   3.110   8.205  10.005  1.4601  0.8905  1.2266
  924MOL0     H24698   3.288   8.305   9.891  1.1634  0.5290  1.2844
  924MOL0     H24699   3.294   8.347  10.060  2.2689  0.0471 -1.5042
  924MOL0     H24700   3.486   8.407   9.896 -1.7877 -0.7324 -2.2840
  924MOL0     H24701   3.677   8.536   9.855 -0.0974 -0.0851  1.0480
  924MOL0     H24702   3.719   9.156   9.935 -1.9904  0.0637 -1.3048
  924MOL0     H24703   3.928   9.288   9.926  3.4558  1.6268 -0.4916
  924MOL0     H24704   4.102   9.421   9.684 -2.8745 -1.8660  0.4101
  924MOL0     H24705   4.103   9.415   9.863 -1.5918  1.2830 -1.0408
  924MOL0     H24706   4.328   9.403   9.673 -0.5785  0.1119  0.1545
  924MOL0     H24707   4.312   9.523   9.804  0.1349 -0.3677  1.7497
  924MOL0     H24708   4.337   9.360   9.980 -3.0732 -0.4465 -1.1568
  924MOL0     H24709   4.338   9.224   9.873 -0.7488  0.2025  1.9698
  924MOL0     H24710   4.530   9.458   9.854  2.2179 -0.6927  1.6419
  924MOL0     H24711   4.568   9.307   9.769  2.0902  2.7438  0.0601
  924MOL0     H24712   4.563   9.206   9.997 -1.7760  0.6917  0.0172
  924MOL0     H24713   4.547   9.351  10.074  1.8942 -1.1153  2.1204
  924MOL0     H24714   4.772   9.295   9.886 -1.2275 -0.0318 -0.5060
  924MOL0     H24715   4.766   9.436   9.993 -0.2874  0.0205 -2.1445
  924MOL0     H24716   4.810   9.129  10.087  3.3155 -1.2428  2.8134
  924MOL0     H24717   4.776   9.261  10.189  2.6411  0.4853  0.1090
  924MOL0     H24718   4.996   9.233   9.978  1.5885  3.3573 -0.3868
  924MOL0     H24719   4.990   9.363  10.101  0.5508 -0.3872 -0.1774
  924MOL0     H24720   4.072   9.053   9.606  0.2581 -2.9274  0.1356
  924MOL0     H24721   3.878   8.909   9.605 -1.4306 -0.4508 -0.3271
  924MOL0     H24722   3.437   8.893   9.808 -0.8005  0.6500  2.1770
  924MOL0     H24723   3.244   8.766   9.911  0.7954  1.3955  0.2076
  924MOL0     H24724   2.055   8.852  10.891  0.0497 -1.7689  0.7138
  924MOL0     H24725   1.799   8.830  10.953 -1.7137 -0.6433  1.8252
  924MOL0     H24726   1.499   8.925  11.320 -0.6479 -1.0029  1.0892
  924MOL0     H24727   1.270   8.878  11.398  2.0212  1.0122 -0.7031
  924MOL0     H24728   0.953   8.864  11.068 -0.0824 -2.5611 -0.7605
  924MOL0     H24729   0.936   8.968  11.206  2.7962  0.2139  1.5273
  924MOL0     H24730   0.733   8.844  11.185 -0.3243 -2.1163 -2.0549
  924MOL0     H24731   0.826   8.805  11.332  1.7558  0.7491  0.0939
  924MOL0     H24732   0.906   8.596  11.223  0.2593  2.1985  1.7929
  924MOL0     H24733   0.793   8.619  11.082 -1.6266 -2.0048 -0.0185
  924MOL0     H24734   0.690   8.454  11.235 -1.5558  0.1654 -2.4664
  924MOL0     H24735   0.652   8.601  11.338 -3.1223 -0.7649 -0.4389
  924MOL0     H24736   0.410   8.674  11.009  0.1710  0.5879 -0.5153
  924MOL0     H24737   1.161   8.812  10.977  2.5801 -0.8578 -1.6689
  924MOL0     H24738   1.301   8.809  10.823 -0.3188 -0.8341  1.5194
  924MOL0     H24739   1.402   8.956  10.828 -1.2891  0.3604  2.0221
  924MOL0     H24740   1.473   8.795  10.863 -0.7653 -1.7474 -1.3623
  925MOL0     O24741  11.001   9.686   4.741 -0.2881  0.1713  0.3139
  925MOL0     C24742  11.062   9.623   4.657 -0.1465  0.6169 -0.6087
  925MOL0     O24743  11.199   9.629   4.640 -0.1961  0.5394 -0.4494
  925MOL0     C24744  11.257   9.743   4.681  0.1456 -0.7619 -0.1422
  925MOL0     C24745  11.260   9.781   4.817 -0.0509 -0.3780  0.0329
  925MOL0     C24746  11.338   9.889   4.856  0.1881 -0.0048  0.0254
  925MOL0     C24747  11.411   9.963   4.761 -0.0982 -0.1464 -0.5781
  925MOL0     O24748  11.479  10.079   4.783 -0.4062  0.0209 -0.9013
  925MOL0     C24749  11.475  10.144   4.914  0.1828  0.5878 -0.0668
  925MOL0     C24750  11.568  10.258   4.927  0.0427  0.1538 -0.3199
  925MOL0     C24751  11.712  10.211   4.958 -0.6676 -0.1104  1.3849
  925MOL0     C24752  11.808  10.320   4.917 -0.7506 -0.3836  1.0366
  925MOL0     C24753  11.950  10.285   4.974 -0.9083 -0.1496  0.3518
  925MOL0     C24754  12.054  10.372   4.906 -0.9370 -0.1655 -0.3920
  925MOL0     C24755  12.194  10.339   4.951 -0.5817  0.1821 -0.6745
  925MOL0     C24756  12.270  10.236   4.858  0.6574  0.6963  0.2398
  925MOL0     N24757  12.388  10.184   4.933 -0.7253  0.8267 -0.3671
  925MOL0     C24758  12.475  10.252   5.002 -0.6148 -0.2254 -0.4142
  925MOL0     C24759  12.561  10.172   5.076  0.8686 -0.1256  0.2543
  925MOL0     C24760  12.670  10.215   5.166 -1.1867 -0.6008 -0.0450
  925MOL0     C24761  12.743  10.100   5.246 -0.9287 -0.5438 -0.2261
  925MOL0     C24762  12.854  10.142   5.347  0.4892 -0.5088 -0.2658
  925MOL0     C24763  12.977  10.192   5.280 -0.0258  0.0158  0.1413
  925MOL0     O24764  13.081  10.215   5.370 -0.2175  0.1015 -0.2213
  925MOL0     C24765  13.213  10.207   5.328 -0.5213  0.2655  0.1812
  925MOL0     C24766  13.320  10.191   5.414  0.8264 -0.1181  0.5462
  925MOL0     C24767  13.452  10.181   5.375  0.2249 -0.0651  0.0060
  925MOL0     C24768  13.488  10.192   5.240  0.4298 -0.5318 -0.8483
  925MOL0     C24769  13.629  10.193   5.199 -0.9071  0.6778 -1.5147
  925MOL0     O24770  13.659  10.175   5.065  0.1630  0.0601 -0.5155
  925MOL0     C24771  13.777  10.207   5.008 -0.0654  0.2467  0.2496
  925MOL0     C24772  13.828  10.116   4.917  0.8050  0.2510 -0.2466
  925MOL0     C24773  13.947  10.142   4.852  0.0240  0.5157 -0.2877
  925MOL0     C24774  14.020  10.251   4.889 -1.3655 -0.6872 -0.4527
  925MOL0     O24775  14.141  10.263   4.828 -0.1516  0.6442  0.3786
  925MOL0     C24776  14.242  10.334   4.906 -0.1045  0.9805  0.6776
  925MOL0     C24777  14.370  10.332   4.820 -0.8425 -0.1563 -0.7721
  925MOL0     C24778  14.496  10.388   4.898 -0.1056 -0.0979 -0.5951
  925MOL0     C24779  14.633  10.317   4.861  0.2812 -0.2446  0.3636
  925MOL0     C24780  14.751  10.377   4.939  0.1869  0.1232  0.7404
  925MOL0     C24781  14.879  10.289   4.930  0.3195 -0.7612  0.0262
  925MOL0     C24782  15.001  10.354   4.999  0.4588 -0.0139 -0.4022
  925MOL0     C24783  15.130  10.299   4.941 -1.0491 -0.4392  0.0722
  925MOL0    Cl24784  15.151  10.370   4.768 -0.1433  0.1537  0.0397
  925MOL0     C24785  13.969  10.341   4.983 -0.4002  0.0169 -0.2585
  925MOL0     C24786  13.847  10.318   5.049  0.0513  0.6380  0.1039
  925MOL0     O24787  13.715  10.228   5.284 -0.0884 -0.1397  0.1409
  925MOL0     C24788  13.381  10.203   5.141  0.0072  0.3128 -0.9048
  925MOL0     C24789  13.250  10.204   5.190  0.1210 -0.1498 -0.2874
  925MOL0     N24790  12.517  10.045   5.044 -0.2978  0.2027 -0.3298
  925MOL0     N24791  12.413  10.056   4.965  0.0480  0.2630 -0.4132
  925MOL0     C24792  11.403   9.929   4.624  0.0303  0.5097 -0.1964
  925MOL0     C24793  11.325   9.822   4.585  0.3960  0.3914  0.2336
  925MOL0     C24794  10.986   9.528   4.566  0.1324 -0.8135  0.4204
  925MOL0     C24795  11.035   9.505   4.432  0.0469  0.6780 -0.1805
  925MOL0     C24796  10.960   9.426   4.343 -0.4107 -0.9797 -0.0297
  925MOL0     C24797  10.841   9.362   4.386 -0.0115 -0.0315 -1.0760
  925MOL0     O24798  10.759   9.301   4.294 -0.0371  0.6008 -0.4624
  925MOL0     C24799  10.660   9.211   4.344 -0.3567 -0.4076 -0.3413
  925MOL0     C24800  10.604   9.134   4.217  0.1841 -0.4268 -0.8642
  925MOL0     C24801  10.540   9.006   4.254 -0.4042  0.2741 -0.7408
  925MOL0     C24802  10.501   8.931   4.125  0.5132  0.4980  0.1501
  925MOL0     C24803  10.607   8.868   4.055  0.3477  1.4433 -0.0308
  925MOL0     C24804  10.705   8.817   3.997  0.2950 -0.2123 -0.0563
  925MOL0     C24805  10.799   9.380   4.515  0.3342  0.4356  0.3915
  925MOL0     C24806  10.863   9.466   4.600 -0.4211 -0.6234 -0.0457
  925MOL0     C24807  10.806   9.487   4.733  0.1399 -0.2581 -0.0452
  925MOL0     H24808  11.213   9.719   4.893  1.3982 -0.2052  1.1067
  925MOL0     H24809  11.338   9.916   4.961 -2.1929 -1.1851  0.3943
  925MOL0     H24810  11.374  10.186   4.921 -0.3095 -0.4899 -0.4697
  925MOL0     H24811  11.481  10.061   4.986 -1.8286 -0.6553 -1.2429
  925MOL0     H24812  11.534  10.314   5.014  0.6439 -2.2071  1.5417
  925MOL0     H24813  11.552  10.317   4.836 -1.6961  0.8169  0.3663
  925MOL0     H24814  11.735  10.122   4.899  0.8813  0.9687  0.2592
  925MOL0     H24815  11.726  10.192   5.065  1.3545 -2.1373  0.8197
  925MOL0     H24816  11.813  10.327   4.808  0.6319 -1.7973  0.9737
  925MOL0     H24817  11.768  10.418   4.947 -0.6645  0.4846 -1.4842
  925MOL0     H24818  11.950  10.296   5.083 -3.1977 -0.9090  0.4674
  925MOL0     H24819  11.965  10.178   4.960 -1.6430 -0.1960 -0.1381
  925MOL0     H24820  12.049  10.360   4.797 -0.2318  1.8185 -0.6931
  925MOL0     H24821  12.034  10.477   4.930 -2.1792 -0.5352  0.2777
  925MOL0     H24822  12.184  10.311   5.056 -3.3695 -0.7744 -1.0925
  925MOL0     H24823  12.245  10.435   4.943 -0.4026  0.0596 -1.0137
  925MOL0     H24824  12.202  10.152   4.842  0.9283 -1.1337  6.2246
  925MOL0     H24825  12.292  10.295   4.768  0.2260  4.0560  2.1584
  925MOL0     H24826  12.492  10.359   4.994 -1.5094 -0.2277 -3.6818
  925MOL0     H24827  12.742  10.278   5.111  1.1739 -1.6341  1.6872
  925MOL0     H24828  12.631  10.281   5.244  1.0892  2.1713 -1.0566
  925MOL0     H24829  12.670  10.050   5.310 -1.4240  0.3556 -0.0664
  925MOL0     H24830  12.775  10.026   5.172 -2.1462 -1.3826  0.0583
  925MOL0     H24831  12.877  10.057   5.411  1.0943  0.1150  0.3621
  925MOL0     H24832  12.822  10.222   5.414  0.4495  2.0930 -3.1633
  925MOL0     H24833  12.951  10.285   5.228 -2.7012 -1.6415 -1.7424
  925MOL0     H24834  13.002  10.115   5.207  1.1285 -0.0575  0.5906
  925MOL0     H24835  13.304  10.189   5.522 -0.3951 -2.9135  0.4041
  925MOL0     H24836  13.526  10.191   5.453 -0.8403 -0.2670  1.0644
  925MOL0     H24837  13.772  10.023   4.904 -0.0197  0.9439 -1.9769
  925MOL0     H24838  14.004  10.073   4.792 -1.2601 -1.7996  1.0102
  925MOL0     H24839  14.207  10.437   4.915 -0.2633  1.0752 -0.7588
  925MOL0     H24840  14.252  10.301   5.010  0.0487 -1.1331  0.0501
  925MOL0     H24841  14.391  10.233   4.778 -2.3753 -0.8136 -0.0523
  925MOL0     H24842  14.356  10.402   4.737  1.6101  0.2623 -0.9171
  925MOL0     H24843  14.502  10.493   4.865  2.5916  0.6816  1.9818
  925MOL0     H24844  14.484  10.396   5.007 -0.8743  3.5509 -0.8056
  925MOL0     H24845  14.651  10.298   4.755  1.3043 -3.8552  1.0261
  925MOL0     H24846  14.619  10.214   4.896 -0.2787  0.1359  1.3011
  925MOL0     H24847  14.731  10.379   5.047 -0.8387  0.1302  0.5634
  925MOL0     H24848  14.767  10.475   4.895  0.1722 -0.6274 -1.0101
  925MOL0     H24849  14.860  10.192   4.978 -0.0304  0.5751  2.7993
  925MOL0     H24850  14.907  10.275   4.825  3.4421  1.7787  0.3585
  925MOL0     H24851  14.990  10.329   5.105 -1.2879  2.0923 -0.0122
  925MOL0     H24852  14.986  10.462   4.995  3.5090  0.6082  1.6427
  925MOL0     H24853  15.209  10.349   4.996  1.1597 -1.8749 -1.6311
  925MOL0     H24854  15.133  10.190   4.944 -0.4654 -0.5754 -2.8866
  925MOL0     H24855  14.026  10.433   4.994 -2.0328  0.9518  0.8801
  925MOL0     H24856  13.804  10.400   5.105 -1.2557  1.6456 -2.2465
  925MOL0     H24857  13.399  10.199   5.034  1.5380  0.0902 -0.6697
  925MOL0     H24858  13.164  10.208   5.124 -1.0155 -1.4463  1.0371
  925MOL0     H24859  11.467   9.988   4.559  3.3686 -1.2934  1.1779
  925MOL0     H24860  11.334   9.796   4.480  0.7150  2.9952 -0.4557
  925MOL0     H24861  11.124   9.559   4.402  0.5432  0.2460  0.5007
  925MOL0     H24862  10.984   9.401   4.240  0.9428 -0.6580  0.1987
  925MOL0     H24863  10.581   9.273   4.388  1.3423  2.3359 -0.9300
  925MOL0     H24864  10.704   9.143   4.417  0.0822  1.2357  0.9854
  925MOL0     H24865  10.687   9.119   4.147 -1.3167  0.6870 -2.9718
  925MOL0     H24866  10.531   9.203   4.174 -0.4616 -0.1982  0.5535
  925MOL0     H24867  10.446   9.026   4.307  0.2679 -0.1519  0.6624
  925MOL0     H24868  10.608   8.945   4.313 -1.5215  0.7335  1.1128
  925MOL0     H24869  10.440   8.843   4.149  0.3315 -0.4596 -3.2107
  925MOL0     H24870  10.431   8.988   4.062 -1.0260 -0.0225  1.3218
  925MOL0     H24871  10.790   8.771   3.951 -0.2922 -0.4062 -0.9764
  925MOL0     H24872  10.705   9.336   4.547 -0.7275  1.3177 -1.4004
  925MOL0     H24873  10.879   9.496   4.814 -0.3585 -3.2495  0.8439
  925MOL0     H24874  10.755   9.583   4.746  1.8325  0.6481  0.3089
  925MOL0     H24875  10.745   9.402   4.765  0.6810 -1.6173 -2.3972
  926MOL0     O24876   3.084   4.413   5.829  0.8507 -0.2642 -0.4938
  926MOL0     C24877   3.064   4.485   5.729  0.7347  0.2432  0.9492
  926MOL0     O24878   3.146   4.583   5.685 -0.3203  0.0522 -0.1401
  926MOL0     C24879   3.254   4.620   5.756  0.0430 -0.0404  0.2823
  926MOL0     C24880   3.354   4.534   5.796 -0.0454  0.4550 -0.5408
  926MOL0     C24881   3.471   4.582   5.857  0.1491 -0.5134 -0.1893
  926MOL0     C24882   3.488   4.718   5.892  0.2566 -0.5718  0.5684
  926MOL0     O24883   3.600   4.754   5.964  0.1054  0.4528  0.0108
  926MOL0     C24884   3.579   4.853   6.066  0.7994  0.7400 -0.1304
  926MOL0     C24885   3.557   4.791   6.207  0.7831  0.3758 -0.1237
  926MOL0     C24886   3.681   4.695   6.231  0.0205 -0.4725  0.2392
  926MOL0     C24887   3.694   4.649   6.373 -0.0264  0.4899  0.7357
  926MOL0     C24888   3.803   4.539   6.381 -0.4497  0.0602  0.8410
  926MOL0     C24889   3.822   4.497   6.525 -0.5210  0.2913  0.1811
  926MOL0     C24890   3.939   4.401   6.542  0.0211 -0.0757  0.7280
  926MOL0     C24891   3.973   4.367   6.682  0.2579  0.3097 -0.1160
  926MOL0     N24892   4.100   4.284   6.682 -0.4612  0.1276  0.9235
  926MOL0     C24893   4.222   4.318   6.615 -0.2016  0.0415 -0.6561
  926MOL0     C24894   4.318   4.240   6.672  0.5436  0.8778  0.6686
  926MOL0     C24895   4.466   4.218   6.648 -0.4822 -0.3670  0.0900
  926MOL0     C24896   4.515   4.253   6.505 -0.4064 -0.2098  0.6395
  926MOL0     C24897   4.658   4.221   6.463 -0.2580  0.8564  0.6849
  926MOL0     C24898   4.769   4.280   6.550 -0.2444 -0.6118 -0.5797
  926MOL0     O24899   4.849   4.379   6.486 -0.2564  0.7447  0.3980
  926MOL0     C24900   4.984   4.383   6.517 -0.8237 -0.0123 -0.7302
  926MOL0     C24901   5.048   4.496   6.461 -0.0684 -0.2502  1.2622
  926MOL0     C24902   5.183   4.525   6.484  0.3400  0.3473 -0.0606
  926MOL0     C24903   5.258   4.448   6.566  0.1013  1.6321 -0.9650
  926MOL0     C24904   5.395   4.478   6.604  0.4943  0.0193  0.0469
  926MOL0     O24905   5.463   4.583   6.546  0.2553  0.4769  0.1721
  926MOL0     C24906   5.593   4.604   6.594 -0.0038  0.6257 -0.0611
  926MOL0     C24907   5.704   4.534   6.550  0.1222 -0.4231  0.2142
  926MOL0     C24908   5.830   4.552   6.602  0.0468  0.1086  0.2516
  926MOL0     C24909   5.866   4.649   6.695 -0.4641  0.6103 -0.4885
  926MOL0     O24910   6.003   4.651   6.735  0.1651 -0.2144  0.0985
  926MOL0     C24911   6.037   4.771   6.798 -0.0221 -0.3965 -0.8154
  926MOL0     C24912   6.190   4.756   6.832  0.6704 -0.7839 -0.3193
  926MOL0     C24913   6.295   4.753   6.712  0.0629  0.0085 -0.1490
  926MOL0     C24914   6.399   4.861   6.722 -0.0893  0.7934 -0.8444
  926MOL0     C24915   6.478   4.856   6.590 -0.4892 -0.1930  0.5808
  926MOL0     C24916   6.589   4.969   6.586  0.3914  0.9367 -0.1088
  926MOL0     C24917   6.719   4.913   6.641 -0.3791 -0.8810  0.2829
  926MOL0     C24918   6.821   5.011   6.700 -0.5341  0.4738  0.2036
  926MOL0    Cl24919   6.749   5.115   6.825 -0.4576  0.1272 -0.2038
  926MOL0     C24920   5.759   4.725   6.742 -0.7930 -0.3981  0.6057
  926MOL0     C24921   5.624   4.704   6.689  0.5303 -1.1391  0.1183
  926MOL0     O24922   5.438   4.419   6.706 -0.6919 -0.2036 -0.1006
  926MOL0     C24923   5.194   4.330   6.624  0.4970 -0.5643  0.2223
  926MOL0     C24924   5.054   4.301   6.598 -0.5481 -0.0814 -0.7963
  926MOL0     N24925   4.251   4.157   6.765  0.2093 -0.2140  0.3478
  926MOL0     N24926   4.121   4.179   6.762 -0.3730  0.2520 -0.5756
  926MOL0     C24927   3.385   4.802   5.848 -0.3788 -0.6303  0.3887
  926MOL0     C24928   3.272   4.760   5.785 -0.7139  0.4724 -0.4372
  926MOL0     C24929   2.949   4.456   5.636 -0.5004  0.9908  0.1374
  926MOL0     C24930   2.920   4.552   5.543  0.1635  0.0294 -0.3412
  926MOL0     C24931   2.806   4.537   5.455 -0.5672 -0.2951  0.6214
  926MOL0     C24932   2.719   4.426   5.449 -0.3251 -0.8875 -0.7574
  926MOL0     O24933   2.611   4.428   5.367 -0.2878  0.1388  0.3138
  926MOL0     C24934   2.565   4.294   5.331 -0.1359  0.1943  0.9605
  926MOL0     C24935   2.460   4.312   5.221  0.1296  0.3423 -0.4959
  926MOL0     C24936   2.339   4.392   5.270 -0.3061 -0.3438 -0.3986
  926MOL0     C24937   2.212   4.344   5.203 -0.7236  0.2371 -0.4161
  926MOL0     C24938   2.206   4.321   5.063 -0.9644 -0.4328 -0.5431
  926MOL0     C24939   2.227   4.325   4.942  0.4803 -1.2279  0.6638
  926MOL0     C24940   2.743   4.334   5.549 -0.0870  0.4671 -0.7060
  926MOL0     C24941   2.857   4.342   5.637  0.1627 -0.5116  0.0442
  926MOL0     C24942   2.877   4.219   5.724  0.4713  0.3156  0.2745
  926MOL0     H24943   3.329   4.428   5.787 -1.9770  0.7839  0.3719
  926MOL0     H24944   3.548   4.512   5.890  2.2141  1.3182 -0.8996
  926MOL0     H24945   3.661   4.922   6.086  1.3978  0.9981 -3.0361
  926MOL0     H24946   3.491   4.915   6.045 -0.6481  0.3861  3.9286
  926MOL0     H24947   3.465   4.732   6.206 -0.5581  2.2572 -3.3750
  926MOL0     H24948   3.557   4.868   6.285  3.1103  2.1884 -1.7843
  926MOL0     H24949   3.774   4.744   6.199 -0.4352  0.1969 -0.0840
  926MOL0     H24950   3.675   4.608   6.164  2.0815 -0.7209  0.3028
  926MOL0     H24951   3.725   4.736   6.431  0.4040  1.1939 -0.4946
  926MOL0     H24952   3.596   4.608   6.397 -0.1610 -0.4804 -1.2559
  926MOL0     H24953   3.772   4.448   6.329  0.4707 -0.1129  0.5698
  926MOL0     H24954   3.891   4.590   6.342 -2.1808  2.3107 -0.3484
  926MOL0     H24955   3.825   4.585   6.590 -0.1923 -0.8529  1.7795
  926MOL0     H24956   3.733   4.443   6.557 -0.4325  0.6183  1.0108
  926MOL0     H24957   4.027   4.460   6.513 -1.3572  1.1929 -1.0313
  926MOL0     H24958   3.933   4.311   6.480  0.3367  0.1064  0.4257
  926MOL0     H24959   3.998   4.458   6.738  3.7341 -1.0238  0.7934
  926MOL0     H24960   3.887   4.323   6.733  1.0475 -0.9295  0.1822
  926MOL0     H24961   4.230   4.399   6.544 -1.2227  0.1691 -0.6316
  926MOL0     H24962   4.539   4.258   6.718 -0.6512 -2.3924  1.5050
  926MOL0     H24963   4.474   4.109   6.653 -0.2003 -0.4551 -1.5346
  926MOL0     H24964   4.449   4.201   6.435  0.6335  2.4904 -2.5732
  926MOL0     H24965   4.481   4.356   6.500  0.9774  0.2674  0.7254
  926MOL0     H24966   4.678   4.262   6.364  1.9724  0.5935  0.9789
  926MOL0     H24967   4.674   4.114   6.451 -1.3996  0.9002 -1.8061
  926MOL0     H24968   4.827   4.195   6.586 -2.8400 -1.6773  1.4187
  926MOL0     H24969   4.721   4.324   6.637 -2.3280 -1.3205 -1.3143
  926MOL0     H24970   4.992   4.562   6.394  0.4902  0.1336  1.1607
  926MOL0     H24971   5.233   4.618   6.456  1.8425  0.4482  2.6059
  926MOL0     H24972   5.692   4.461   6.471 -3.1921 -0.0376  0.2076
  926MOL0     H24973   5.911   4.485   6.574 -1.0216 -0.6135 -1.2193
  926MOL0     H24974   6.020   4.865   6.744  0.0627  0.0842 -0.0163
  926MOL0     H24975   5.981   4.782   6.891 -1.8268 -1.4480 -1.7198
  926MOL0     H24976   6.213   4.836   6.904 -2.1074 -1.2836  1.2660
  926MOL0     H24977   6.206   4.663   6.888 -2.1299 -0.8095  0.5887
  926MOL0     H24978   6.349   4.658   6.706  0.6829  0.3346  0.1736
  926MOL0     H24979   6.248   4.775   6.616  0.4912  1.5653 -0.0336
  926MOL0     H24980   6.460   4.836   6.809 -0.3958 -2.5598 -1.4349
  926MOL0     H24981   6.357   4.959   6.744 -0.4527  0.1622  1.5462
  926MOL0     H24982   6.403   4.871   6.513 -0.9297  1.9798  1.3614
  926MOL0     H24983   6.525   4.757   6.578  0.0937  0.0683  0.6573
  926MOL0     H24984   6.609   5.001   6.483  0.6362 -1.7562 -0.9586
  926MOL0     H24985   6.545   5.051   6.645 -1.4828 -0.1553  0.0903
  926MOL0     H24986   6.771   4.854   6.565 -1.7203 -2.1292  0.3023
  926MOL0     H24987   6.692   4.839   6.716  1.6483  1.5054  3.6346
  926MOL0     H24988   6.904   4.955   6.743 -2.4838 -3.1062 -0.3574
  926MOL0     H24989   6.857   5.081   6.623 -0.4617 -1.1956 -1.3351
  926MOL0     H24990   5.770   4.816   6.799 -3.5436  0.1992  0.3235
  926MOL0     H24991   5.536   4.765   6.708  1.5379  1.1244 -1.9231
  926MOL0     H24992   5.246   4.257   6.686  0.2977 -0.0167  1.0451
  926MOL0     H24993   5.015   4.207   6.634 -2.4772  0.4250 -1.4232
  926MOL0     H24994   3.394   4.909   5.860 -1.2641 -0.2828 -1.5569
  926MOL0     H24995   3.207   4.830   5.735 -0.0551  0.7700 -0.8955
  926MOL0     H24996   2.980   4.642   5.530 -1.1918  0.8848 -0.9524
  926MOL0     H24997   2.793   4.617   5.383  0.4690  0.2939  1.0751
  926MOL0     H24998   2.519   4.231   5.408 -1.9574  0.2228 -0.0533
  926MOL0     H24999   2.646   4.239   5.284  0.8226  1.0747  1.5240
  926MOL0     H25000   2.428   4.211   5.196 -0.1226  0.7853 -2.0831
  926MOL0     H25001   2.498   4.356   5.128 -0.0117 -0.1328 -0.7794
  926MOL0     H25002   2.349   4.500   5.250 -1.5138  0.0295  0.9242
  926MOL0     H25003   2.329   4.380   5.378 -1.8564  1.1488 -0.3280
  926MOL0     H25004   2.206   4.244   5.248  1.2892 -0.7496 -2.1447
  926MOL0     H25005   2.128   4.411   5.223 -1.9093 -1.7076  1.6862
  926MOL0     H25006   2.237   4.324   4.835 -1.3735  3.6977  0.1781
  926MOL0     H25007   2.691   4.239   5.546  0.1358  0.3177  0.0895
  926MOL0     H25008   2.982   4.190   5.707  0.7775  0.8558  1.1642
  926MOL0     H25009   2.856   4.254   5.825 -2.2866  0.8079 -0.3979
  926MOL0     H25010   2.803   4.141   5.703  0.7901  0.5340 -1.9286
  927MOL0     O25011   9.564  11.281   9.781 -0.7190  0.8239  0.4624
  927MOL0     C25012   9.571  11.161   9.791  0.9731  0.2712 -0.9481
  927MOL0     O25013   9.676  11.088   9.755 -0.0946 -0.0100 -0.4196
  927MOL0     C25014   9.791  11.147   9.718  0.7921  1.2740  0.1650
  927MOL0     C25015   9.810  11.190   9.589 -0.3148 -0.1895 -0.1108
  927MOL0     C25016   9.938  11.234   9.552  0.5503  0.4889  0.6849
  927MOL0     C25017  10.040  11.239   9.644 -0.7924  0.0495 -0.1861
  927MOL0     O25018  10.169  11.267   9.611  0.0248 -0.5116  0.0863
  927MOL0     C25019  10.196  11.333   9.496 -0.3219  0.1829 -0.1222
  927MOL0     C25020  10.339  11.395   9.494  0.1926  0.9176 -0.8048
  927MOL0     C25021  10.387  11.452   9.359  0.5841 -0.0227 -0.4397
  927MOL0     C25022  10.371  11.364   9.237  0.3420 -0.3715  0.0520
  927MOL0     C25023  10.427  11.428   9.104  0.4591  0.0903 -0.6893
  927MOL0     C25024  10.578  11.388   9.081  0.2338 -0.6422  0.3925
  927MOL0     C25025  10.645  11.442   8.958  0.6877 -0.1800  0.4763
  927MOL0     C25026  10.796  11.426   8.960 -0.4855 -0.0792 -0.0459
  927MOL0     N25027  10.870  11.504   9.059  0.1576  0.5096  0.1871
  927MOL0     C25028  10.898  11.636   9.037  0.9720  0.3168  0.6815
  927MOL0     C25029  11.000  11.654   9.119  0.1489 -0.0102  0.9387
  927MOL0     C25030  11.075  11.782   9.137  0.0305  0.0558 -0.2301
  927MOL0     C25031  11.173  11.815   9.028 -0.3318  0.9081 -0.0717
  927MOL0     C25032  11.278  11.708   8.994 -0.5183  0.0865  0.0944
  927MOL0     C25033  11.405  11.765   8.924 -0.0087 -0.3350 -0.0059
  927MOL0     O25034  11.502  11.800   9.028  0.4964  0.3456 -0.1621
  927MOL0     C25035  11.629  11.772   8.995 -0.4462 -0.2164  0.9574
  927MOL0     C25036  11.685  11.817   8.873 -0.1324 -0.8573  0.2794
  927MOL0     C25037  11.821  11.827   8.853 -0.3666 -0.0438 -0.3160
  927MOL0     C25038  11.911  11.775   8.953 -0.5107 -0.3458 -0.3385
  927MOL0     C25039  12.056  11.779   8.934 -0.0326 -0.5152 -0.2243
  927MOL0     O25040  12.140  11.758   9.042  0.1305 -0.9141  0.4200
  927MOL0     C25041  12.273  11.747   9.026  0.3543 -0.4605 -0.3816
  927MOL0     C25042  12.335  11.653   8.937 -1.0834 -0.2770  0.9838
  927MOL0     C25043  12.473  11.640   8.932  0.2171  0.0337 -0.4554
  927MOL0     C25044  12.555  11.713   9.024 -0.3702  0.6174  0.4255
  927MOL0     O25045  12.687  11.679   9.042 -0.0358  0.8380 -0.1165
  927MOL0     C25046  12.774  11.728   9.153 -0.1202 -0.1293 -0.2207
  927MOL0     C25047  12.851  11.856   9.110 -0.0763 -0.2598  1.0978
  927MOL0     C25048  12.941  11.922   9.215 -0.8413 -1.0504 -0.3281
  927MOL0     C25049  13.070  11.841   9.214  0.4226  0.5580 -1.1050
  927MOL0     C25050  13.170  11.890   9.321  0.4004  0.4470  0.6857
  927MOL0     C25051  13.304  11.818   9.303 -0.2677 -0.1683  0.9705
  927MOL0     C25052  13.399  11.900   9.376 -0.3313 -0.3007 -0.1737
  927MOL0     C25053  13.526  11.811   9.403  0.3584  0.2694 -0.9990
  927MOL0    Cl25054  13.636  11.904   9.511  0.2883 -0.0263 -0.3500
  927MOL0     C25055  12.485  11.813   9.099  0.4765 -0.0901 -0.9201
  927MOL0     C25056  12.345  11.830   9.100 -0.2787 -0.0914  0.7705
  927MOL0     O25057  12.096  11.807   8.816 -0.4025  0.9010 -0.5187
  927MOL0     C25058  11.854  11.714   9.072 -0.6596 -0.1523  0.0846
  927MOL0     C25059  11.719  11.720   9.091  0.1930  0.0550  0.3347
  927MOL0     N25060  11.017  11.547   9.205  0.1978 -0.8779  0.5115
  927MOL0     N25061  10.939  11.456   9.170 -0.1737  0.7425  0.5925
  927MOL0     C25062  10.014  11.216   9.781 -0.0008 -0.2756 -0.7001
  927MOL0     C25063   9.884  11.173   9.820 -0.0728 -0.3724  0.3250
  927MOL0     C25064   9.437  11.102   9.833 -1.3411 -1.2730  0.0222
  927MOL0     C25065   9.431  10.965   9.839  0.1986  0.3199 -0.0741
  927MOL0     C25066   9.315  10.893   9.882 -0.2693 -0.3270 -0.3488
  927MOL0     C25067   9.198  10.958   9.915 -0.2399 -0.9345  0.2701
  927MOL0     O25068   9.081  10.903   9.956 -0.5245  0.0435 -0.2150
  927MOL0     C25069   9.080  10.759   9.987  0.8658  0.2140 -0.3896
  927MOL0     C25070   9.067  10.676   9.863  0.2560 -0.2519 -0.3471
  927MOL0     C25071   8.940  10.730   9.795 -0.4128  0.0629  1.3963
  927MOL0     C25072   8.859  10.615   9.718 -0.9971  0.2410 -0.6339
  927MOL0     C25073   8.937  10.590   9.591  0.4789 -0.3131  0.7804
  927MOL0     C25074   8.993  10.553   9.491  0.1902  0.4676  0.0365
  927MOL0     C25075   9.202  11.097   9.908  0.6141  0.0371  0.2970
  927MOL0     C25076   9.314  11.170   9.862 -0.6823  0.1867  0.0791
  927MOL0     C25077   9.304  11.325   9.865 -0.5520  0.3897 -0.0055
  927MOL0     H25078   9.726  11.188   9.520  0.6159  1.7837 -1.3707
  927MOL0     H25079   9.959  11.264   9.450  2.8751 -2.0395  0.3057
  927MOL0     H25080  10.188  11.259   9.416 -2.9357  1.3125 -1.0146
  927MOL0     H25081  10.118  11.409   9.482 -1.7608 -1.2442 -0.0633
  927MOL0     H25082  10.407  11.314   9.522 -2.2506 -1.4826 -1.3599
  927MOL0     H25083  10.342  11.469   9.574  1.9992  1.1885 -1.0947
  927MOL0     H25084  10.492  11.482   9.370  0.6208 -0.6605  1.3129
  927MOL0     H25085  10.325  11.542   9.350 -0.5429 -0.7334  0.0099
  927MOL0     H25086  10.403  11.260   9.248 -2.5450 -1.5056 -1.1896
  927MOL0     H25087  10.263  11.355   9.220 -0.1967  3.9454  0.0990
  927MOL0     H25088  10.367  11.387   9.023  0.0329 -2.5298  0.8266
  927MOL0     H25089  10.427  11.538   9.107 -2.6281  0.2190 -1.6850
  927MOL0     H25090  10.624  11.424   9.173 -2.6316 -0.3479  1.8117
  927MOL0     H25091  10.596  11.280   9.078  3.9185 -0.1871 -3.7758
  927MOL0     H25092  10.625  11.549   8.947 -1.7742 -0.7792 -2.2580
  927MOL0     H25093  10.617  11.399   8.862  0.5187  1.7517 -0.3754
  927MOL0     H25094  10.821  11.320   8.972 -1.6773 -0.4370 -0.6248
  927MOL0     H25095  10.839  11.455   8.863 -2.1870  1.4177 -0.4105
  927MOL0     H25096  10.856  11.690   8.952 -0.9408 -1.0418  0.6884
  927MOL0     H25097  10.992  11.852   9.136 -0.0738 -0.0686 -0.5893
  927MOL0     H25098  11.124  11.788   9.235 -0.3739 -2.4360  0.2022
  927MOL0     H25099  11.124  11.859   8.940 -0.1185  2.1741  0.4232
  927MOL0     H25100  11.231  11.896   9.073 -1.0195  0.3163  1.9925
  927MOL0     H25101  11.238  11.636   8.922 -0.2443 -0.9986  0.9890
  927MOL0     H25102  11.304  11.648   9.082  3.0815  1.0779 -0.1318
  927MOL0     H25103  11.392  11.862   8.875 -1.5680 -0.6957 -0.3537
  927MOL0     H25104  11.461  11.696   8.859  0.9808 -0.6902  1.1920
  927MOL0     H25105  11.615  11.868   8.808  0.9060  1.4725  0.8972
  927MOL0     H25106  11.858  11.874   8.762  0.2934  0.0143 -0.0225
  927MOL0     H25107  12.268  11.599   8.870  0.2591 -0.2043 -0.4718
  927MOL0     H25108  12.511  11.565   8.863 -0.3444  0.4858 -1.2710
  927MOL0     H25109  12.710  11.740   9.241 -0.9662 -0.4360 -0.7779
  927MOL0     H25110  12.840  11.644   9.177 -1.6845 -1.4528 -0.4002
  927MOL0     H25111  12.914  11.835   9.024 -0.2956  0.4480  0.7605
  927MOL0     H25112  12.773  11.926   9.079  0.2238 -0.0700  0.7697
  927MOL0     H25113  12.963  12.026   9.190 -1.2066 -1.0458 -0.6395
  927MOL0     H25114  12.894  11.913   9.313 -2.3552 -4.0079 -1.1793
  927MOL0     H25115  13.124  11.843   9.119 -0.3151 -3.1630 -1.7824
  927MOL0     H25116  13.041  11.737   9.233 -0.8953  1.0432 -0.3480
  927MOL0     H25117  13.128  11.871   9.420 -2.4103  0.6434 -0.3682
  927MOL0     H25118  13.184  11.998   9.317 -3.9846  1.1726 -0.4615
  927MOL0     H25119  13.288  11.722   9.353  0.8459  0.9469  3.6789
  927MOL0     H25120  13.338  11.797   9.201 -1.2030  4.0388 -0.3703
  927MOL0     H25121  13.356  11.934   9.471  0.9465  0.8469  0.0198
  927MOL0     H25122  13.419  11.985   9.309  2.6332  0.4472  1.4843
  927MOL0     H25123  13.496  11.723   9.459  1.6989  0.2698 -0.2559
  927MOL0     H25124  13.583  11.781   9.314  2.2622 -0.5626  0.4436
  927MOL0     H25125  12.552  11.866   9.166  0.9933 -0.1706 -1.3592
  927MOL0     H25126  12.298  11.901   9.167 -3.6237  1.3915 -2.7441
  927MOL0     H25127  11.919  11.687   9.155 -0.9357  1.0526  0.7059
  927MOL0     H25128  11.684  11.676   9.183  0.4331  0.3350  0.5594
  927MOL0     H25129  10.089  11.238   9.857 -0.1264  1.3012 -1.0010
  927MOL0     H25130   9.854  11.141   9.919  1.5110 -0.4913  0.8076
  927MOL0     H25131   9.511  10.901   9.804 -0.8954 -2.1213  1.6173
  927MOL0     H25132   9.332  10.786   9.866  2.6162 -0.5520  3.0063
  927MOL0     H25133   8.994  10.736  10.051  0.2507 -1.9540 -1.8680
  927MOL0     H25134   9.166  10.740  10.051 -0.6551 -0.0198  1.6856
  927MOL0     H25135   9.046  10.575   9.901 -0.3309 -0.2429 -0.6464
  927MOL0     H25136   9.151  10.667   9.793 -0.0270  1.6526 -0.9921
  927MOL0     H25137   8.966  10.814   9.730 -0.7072 -2.8345 -2.8542
  927MOL0     H25138   8.873  10.762   9.876  0.8587 -1.5337  3.1736
  927MOL0     H25139   8.854  10.535   9.792  1.5695 -0.1525 -0.7761
  927MOL0     H25140   8.757  10.646   9.693 -1.7749 -2.3622 -0.9817
  927MOL0     H25141   9.042  10.526   9.400  4.5604  1.0423  1.9851
  927MOL0     H25142   9.123  11.154   9.955  2.2674  1.1717  1.8479
  927MOL0     H25143   9.332  11.364   9.766 -0.7266 -0.4173 -0.3846
  927MOL0     H25144   9.201  11.360   9.881 -0.5875 -0.2477  1.2124
  927MOL0     H25145   9.376  11.363   9.937 -2.1158 -3.6059  4.1201
  928MOL0     O25146  10.305   4.982   2.723  0.2266 -0.6739  0.6315
  928MOL0     C25147  10.254   4.911   2.637 -0.8313 -0.8435 -0.8062
  928MOL0     O25148  10.325   4.840   2.541  0.6797  0.4935  0.1195
  928MOL0     C25149  10.460   4.866   2.507  0.1451  0.5265 -0.6693
  928MOL0     C25150  10.508   4.905   2.381 -0.3864  1.5108 -0.2193
  928MOL0     C25151  10.641   4.937   2.354 -0.4848 -0.2831  0.7284
  928MOL0     C25152  10.733   4.920   2.464  0.1019  0.2566  0.2831
  928MOL0     O25153  10.872   4.927   2.450 -0.1611  0.1475 -0.5033
  928MOL0     C25154  10.924   4.896   2.318  0.4565  0.5584 -1.1864
  928MOL0     C25155  11.060   4.844   2.318 -0.5531 -0.2023  0.1958
  928MOL0     C25156  11.155   4.926   2.413  0.0311 -0.0860  0.7902
  928MOL0     C25157  11.298   4.904   2.391  0.2615  0.3674 -0.2643
  928MOL0     C25158  11.393   4.982   2.482  1.3679  0.7179 -1.3022
  928MOL0     C25159  11.540   4.935   2.461  0.2097 -0.1234  0.4529
  928MOL0     C25160  11.626   4.945   2.591  0.5619 -0.9770 -0.3143
  928MOL0     C25161  11.646   5.092   2.630  0.3008  0.1429 -0.3355
  928MOL0     N25162  11.709   5.164   2.514 -0.4523 -0.6039 -0.0003
  928MOL0     C25163  11.847   5.179   2.511 -0.1450  0.3346 -0.4049
  928MOL0     C25164  11.874   5.284   2.429 -0.1630 -0.5745 -0.5234
  928MOL0     C25165  12.003   5.352   2.390  0.2891  0.5922  0.4950
  928MOL0     C25166  12.005   5.507   2.413  0.3967  0.6163 -0.9438
  928MOL0     C25167  12.116   5.574   2.329  0.0896  0.4707 -0.7515
  928MOL0     C25168  12.135   5.719   2.369  0.2687 -0.0461 -0.7471
  928MOL0     O25169  12.205   5.732   2.499 -0.2967  0.2782 -0.2216
  928MOL0     C25170  12.218   5.853   2.560  0.3329  0.0184 -0.7048
  928MOL0     C25171  12.292   5.867   2.681 -0.6767 -0.9768  0.5670
  928MOL0     C25172  12.296   5.997   2.746  0.0823  0.9970 -0.5087
  928MOL0     C25173  12.234   6.110   2.691 -0.8332  0.1858  0.7957
  928MOL0     C25174  12.248   6.245   2.751 -0.5631  0.0848 -0.4664
  928MOL0     O25175  12.328   6.255   2.860  0.1881  0.6716 -0.2125
  928MOL0     C25176  12.393   6.373   2.888 -0.0108  0.2188  0.9044
  928MOL0     C25177  12.382   6.435   3.010  0.1736 -0.0856  0.4695
  928MOL0     C25178  12.454   6.552   3.035 -0.4149 -0.0102  0.0241
  928MOL0     C25179  12.552   6.598   2.942  0.1897 -0.3118 -0.0755
  928MOL0     O25180  12.623   6.710   2.952 -0.2267 -0.5668  0.5868
  928MOL0     C25181  12.684   6.732   3.073  0.3593  0.0972 -0.4080
  928MOL0     C25182  12.771   6.855   3.082 -0.2046 -0.0208  0.0486
  928MOL0     C25183  12.832   6.867   3.216 -0.2930  0.0931  0.0971
  928MOL0     C25184  12.934   6.978   3.230  1.0944 -0.0885 -0.9060
  928MOL0     C25185  13.013   6.980   3.366 -0.6628 -0.3672 -1.0086
  928MOL0     C25186  13.136   7.074   3.377 -0.5293  0.0843 -0.0166
  928MOL0     C25187  13.241   7.059   3.265  0.0289  0.0143 -0.3476
  928MOL0     C25188  13.355   7.145   3.285 -0.2690 -1.0382  0.3755
  928MOL0    Cl25189  13.326   7.310   3.224 -0.2038  0.4439 -0.3455
  928MOL0     C25190  12.562   6.531   2.822  0.2732  0.3046 -0.5016
  928MOL0     C25191  12.496   6.414   2.790  0.5316  0.2685 -1.0436
  928MOL0     O25192  12.204   6.343   2.697 -0.1214 -0.5308 -0.4628
  928MOL0     C25193  12.155   6.087   2.577 -0.3584  0.1713  0.4585
  928MOL0     C25194  12.137   5.956   2.518  0.3402 -0.2719 -0.3009
  928MOL0     N25195  11.750   5.322   2.376 -0.5569  0.2382  1.0462
  928MOL0     N25196  11.660   5.252   2.422  0.2907 -1.1602 -0.0218
  928MOL0     C25197  10.688   4.863   2.581 -0.6581  0.2374 -0.2387
  928MOL0     C25198  10.555   4.839   2.612 -0.5429 -0.2266  0.9244
  928MOL0     C25199  10.106   4.915   2.611 -0.2125 -0.6878  0.2756
  928MOL0     C25200  10.068   4.901   2.483  0.1135  0.2232  0.4238
  928MOL0     C25201   9.931   4.905   2.447 -0.0086  0.2689  0.2967
  928MOL0     C25202   9.835   4.918   2.544  0.0026  0.4682 -0.8769
  928MOL0     O25203   9.705   4.928   2.498  0.3195 -0.0614  1.0820
  928MOL0     C25204   9.654   5.059   2.490 -0.1154 -1.1484 -0.1867
  928MOL0     C25205   9.562   5.087   2.619 -0.3947 -0.6662 -0.2248
  928MOL0     C25206   9.486   5.223   2.604 -0.0519  0.3080 -0.0582
  928MOL0     C25207   9.390   5.242   2.725  0.4019 -0.3203 -0.5423
  928MOL0     C25208   9.450   5.336   2.816  0.4538  0.0657 -0.2324
  928MOL0     C25209   9.503   5.420   2.888 -0.1380  0.5300  0.0250
  928MOL0     C25210   9.878   4.937   2.680 -0.3941  0.4603 -0.6394
  928MOL0     C25211  10.015   4.936   2.722  0.1564  0.2151  0.0701
  928MOL0     C25212  10.050   4.962   2.858  0.4490  1.0310 -1.2819
  928MOL0     H25213  10.438   4.922   2.300 -0.8570 -0.0312 -0.1749
  928MOL0     H25214  10.679   4.963   2.256 -0.3769 -0.5362  0.7040
  928MOL0     H25215  10.860   4.818   2.278 -0.3809  1.0211 -0.7690
  928MOL0     H25216  10.911   4.978   2.247  1.0368  0.3049 -1.5939
  928MOL0     H25217  11.085   4.847   2.211 -1.2641 -0.3531  0.0228
  928MOL0     H25218  11.056   4.742   2.357  0.1609  0.3468  1.8122
  928MOL0     H25219  11.138   4.894   2.517 -0.3454 -1.6254  0.2761
  928MOL0     H25220  11.129   5.030   2.394 -5.4622 -1.7957 -3.6468
  928MOL0     H25221  11.309   4.795   2.389  0.0038  0.3214 -3.1969
  928MOL0     H25222  11.330   4.934   2.291  1.6715 -0.7825 -0.1855
  928MOL0     H25223  11.381   5.090   2.491  2.7035  0.9625 -2.1363
  928MOL0     H25224  11.369   4.943   2.581  1.1922 -3.6989 -2.8451
  928MOL0     H25225  11.540   4.827   2.443  1.0949 -0.1875  0.7917
  928MOL0     H25226  11.592   4.988   2.381 -0.2589  1.7930  1.3752
  928MOL0     H25227  11.719   4.908   2.548  0.5619  0.2969 -1.4620
  928MOL0     H25228  11.588   4.882   2.673  0.1206 -0.6170 -0.2374
  928MOL0     H25229  11.544   5.126   2.651  0.0683  0.7891 -2.2933
  928MOL0     H25230  11.711   5.092   2.719  3.0410  0.8201 -2.1968
  928MOL0     H25231  11.918   5.120   2.568 -2.1713 -1.6489  0.2178
  928MOL0     H25232  12.088   5.310   2.444  0.4655  1.0913  0.6185
  928MOL0     H25233  12.022   5.331   2.285 -0.7119 -0.8381  0.5642
  928MOL0     H25234  11.911   5.550   2.378 -0.6843 -2.3167 -1.9346
  928MOL0     H25235  12.016   5.536   2.517 -1.4136  0.7633 -0.7771
  928MOL0     H25236  12.077   5.567   2.228  2.0085 -1.4729 -1.4285
  928MOL0     H25237  12.215   5.528   2.338  0.8669  2.1557 -0.3295
  928MOL0     H25238  12.035   5.763   2.370 -0.1671 -1.0030  0.0668
  928MOL0     H25239  12.186   5.782   2.296 -0.5738  0.8833 -0.5547
  928MOL0     H25240  12.354   5.788   2.723 -1.3839 -1.4215  0.8000
  928MOL0     H25241  12.346   5.996   2.842 -0.3409 -2.3150 -0.2059
  928MOL0     H25242  12.313   6.391   3.082  0.8205 -2.1156 -0.0787
  928MOL0     H25243  12.438   6.610   3.125  0.7670  0.0862  0.1916
  928MOL0     H25244  12.612   6.753   3.153  0.8624  2.6468 -0.5562
  928MOL0     H25245  12.731   6.638   3.105 -2.0806 -1.5151 -1.2503
  928MOL0     H25246  12.848   6.848   3.004 -0.1425 -1.4253  0.2146
  928MOL0     H25247  12.710   6.945   3.070 -0.4972 -0.3663 -1.2545
  928MOL0     H25248  12.756   6.883   3.293 -1.2873 -0.6996 -0.6804
  928MOL0     H25249  12.880   6.770   3.231 -0.3199 -0.2974 -2.0250
  928MOL0     H25250  12.885   7.076   3.222  0.7587 -0.3197 -1.8788
  928MOL0     H25251  12.997   6.974   3.140 -3.6033 -2.0083 -4.5715
  928MOL0     H25252  13.057   6.880   3.373 -0.3320 -0.5230 -3.8681
  928MOL0     H25253  12.948   7.008   3.448 -0.1148  0.6345 -0.8996
  928MOL0     H25254  13.092   7.174   3.376 -1.2082 -0.1988 -1.1686
  928MOL0     H25255  13.182   7.064   3.475  1.6466  0.5672 -0.9232
  928MOL0     H25256  13.196   7.078   3.168 -4.3000 -2.4378  0.9323
  928MOL0     H25257  13.263   6.952   3.259 -2.3150 -0.6431  1.2290
  928MOL0     H25258  13.389   7.142   3.388 -0.0883 -4.0084  0.3132
  928MOL0     H25259  13.432   7.101   3.221 -0.4562  0.6834 -1.1469
  928MOL0     H25260  12.636   6.574   2.755  0.5893 -1.4968 -1.3512
  928MOL0     H25261  12.506   6.372   2.690  0.7658 -0.0603 -0.8807
  928MOL0     H25262  12.084   6.158   2.536  0.4377 -1.2318 -3.8215
  928MOL0     H25263  12.078   5.960   2.427  0.3967 -1.1156 -0.3895
  928MOL0     H25264  10.770   4.854   2.652  0.5325  2.4301 -1.2333
  928MOL0     H25265  10.520   4.790   2.703 -0.2417 -2.2441  0.0048
  928MOL0     H25266  10.140   4.878   2.405 -0.4418  2.0265 -0.7012
  928MOL0     H25267   9.897   4.876   2.348 -0.2877 -1.5664  0.8796
  928MOL0     H25268   9.589   5.064   2.402 -3.6505 -0.1556  2.3073
  928MOL0     H25269   9.735   5.133   2.482  0.0208 -1.2447  0.2993
  928MOL0     H25270   9.618   5.096   2.713 -1.2892  0.7722  0.1974
  928MOL0     H25271   9.489   5.006   2.628 -0.1750 -0.7740  0.8102
  928MOL0     H25272   9.429   5.219   2.511  0.0095 -4.2858 -0.0884
  928MOL0     H25273   9.551   5.311   2.601 -1.4026  1.3286 -0.6022
  928MOL0     H25274   9.302   5.293   2.685  0.6107  0.2659 -0.2692
  928MOL0     H25275   9.362   5.148   2.774 -0.7979  1.1400  1.7788
  928MOL0     H25276   9.558   5.485   2.953  0.4314  3.3479 -3.0215
  928MOL0     H25277   9.806   4.951   2.760 -0.4852 -0.1995 -0.5999
  928MOL0     H25278   9.966   4.943   2.927  1.3591  1.4868 -0.0138
  928MOL0     H25279  10.121   4.889   2.898 -0.7711 -0.6057 -1.9541
  928MOL0     H25280  10.080   5.066   2.874 -1.8884  1.7564 -1.1504
  929MOL0     O25281   6.986   7.838   7.677  0.4550 -0.6086  0.1178
  929MOL0     C25282   6.960   7.956   7.653  0.5117  0.7050 -0.8883
  929MOL0     O25283   7.047   8.053   7.625  0.2654  0.5363 -0.1451
  929MOL0     C25284   7.183   8.035   7.618 -0.7004  0.1555 -0.9302
  929MOL0     C25285   7.256   8.142   7.566 -0.4419 -0.0977 -0.1780
  929MOL0     C25286   7.392   8.149   7.551  0.7857  0.1603 -0.5830
  929MOL0     C25287   7.468   8.043   7.605  0.8052 -0.0112 -0.3190
  929MOL0     O25288   7.608   8.044   7.605  0.3877  0.0781  0.6134
  929MOL0     C25289   7.688   8.118   7.510  0.6550 -0.1052 -0.0151
  929MOL0     C25290   7.833   8.075   7.520  0.5988  0.1733 -0.3909
  929MOL0     C25291   7.906   8.133   7.644  0.0774  0.5437  0.2281
  929MOL0     C25292   8.035   8.058   7.678 -0.3609  0.7067 -0.6477
  929MOL0     C25293   8.153   8.089   7.587  0.5430 -0.1539  1.3482
  929MOL0     C25294   8.213   8.227   7.622 -1.1694 -0.3153 -0.1976
  929MOL0     C25295   8.357   8.246   7.570  0.3961  1.0501  0.6300
  929MOL0     C25296   8.359   8.230   7.413  0.5923  0.2850  0.7773
  929MOL0     N25297   8.489   8.272   7.355  0.0835  0.2576 -0.1961
  929MOL0     C25298   8.608   8.227   7.400  0.3350 -0.2811  0.5824
  929MOL0     C25299   8.701   8.297   7.321 -0.3310 -0.6331 -0.1186
  929MOL0     C25300   8.841   8.271   7.328 -0.3276  0.6089 -0.2552
  929MOL0     C25301   8.925   8.295   7.202 -0.1770  0.1132  0.2281
  929MOL0     C25302   9.020   8.412   7.223  0.6618 -0.3856 -0.0883
  929MOL0     C25303   9.100   8.446   7.094  0.0596  0.5729 -0.4174
  929MOL0     O25304   9.219   8.371   7.088 -0.4486 -0.0295 -0.2781
  929MOL0     C25305   9.329   8.439   7.088  0.0967  0.1331  0.0515
  929MOL0     C25306   9.376   8.497   7.205 -0.3141 -1.1542  0.4142
  929MOL0     C25307   9.502   8.565   7.213  1.1109 -0.0230 -0.2795
  929MOL0     C25308   9.587   8.554   7.098  0.1158 -0.1577 -0.5966
  929MOL0     C25309   9.725   8.615   7.111 -0.1162  0.4534 -0.1597
  929MOL0     O25310   9.784   8.618   7.234 -0.2020  0.4395 -0.7045
  929MOL0     C25311   9.892   8.689   7.266 -0.2126  0.0718 -0.7961
  929MOL0     C25312   9.908   8.823   7.217  0.1118  1.2644 -0.1506
  929MOL0     C25313  10.027   8.890   7.248 -0.3873  0.5234 -0.0401
  929MOL0     C25314  10.118   8.835   7.338 -0.5692  0.0903 -0.5864
  929MOL0     O25315  10.252   8.867   7.351  0.3448 -0.3881  0.1849
  929MOL0     C25316  10.281   8.997   7.293  0.3175  0.2312  0.7249
  929MOL0     C25317  10.420   9.018   7.326  0.3306  0.1444  0.3590
  929MOL0     C25318  10.455   9.162   7.280  0.3855  0.4056  0.7640
  929MOL0     C25319  10.610   9.183   7.288 -0.2476 -0.9242  0.0788
  929MOL0     C25320  10.657   9.324   7.251 -0.0675  0.0161  1.1484
  929MOL0     C25321  10.802   9.338   7.271 -0.3076  0.2405 -0.5780
  929MOL0     C25322  10.853   9.472   7.218  0.4716 -0.2568 -0.1383
  929MOL0     C25323  10.989   9.518   7.285 -0.0189 -0.3041  0.6095
  929MOL0    Cl25324  11.046   9.673   7.211 -0.0523 -0.0122 -0.3078
  929MOL0     C25325  10.097   8.701   7.391 -0.6912 -0.2850  1.2230
  929MOL0     C25326   9.988   8.630   7.345 -0.2009 -0.2099 -0.5605
  929MOL0     O25327   9.783   8.652   7.010 -0.4734 -0.1088 -0.6144
  929MOL0     C25328   9.533   8.498   6.976 -0.5339 -0.2885  0.3589
  929MOL0     C25329   9.409   8.436   6.974  0.3009  0.3027 -0.2236
  929MOL0     N25330   8.636   8.385   7.242 -0.2754 -0.2862  0.3252
  929MOL0     N25331   8.508   8.368   7.254  0.7995 -0.0874 -0.1064
  929MOL0     C25332   7.403   7.943   7.668  0.8916  0.1772 -0.1873
  929MOL0     C25333   7.260   7.937   7.686  0.1339  0.0431 -0.4808
  929MOL0     C25334   6.817   7.996   7.634 -0.0631 -0.2981  0.2590
  929MOL0     C25335   6.725   7.895   7.595  0.0393  0.3361 -0.0366
  929MOL0     C25336   6.589   7.921   7.588  0.4318  0.2210 -0.8173
  929MOL0     C25337   6.534   8.049   7.605 -1.0174  0.2599  1.0151
  929MOL0     O25338   6.398   8.076   7.575 -0.4904 -0.1162 -0.3522
  929MOL0     C25339   6.308   7.960   7.559 -0.2343  1.0307 -0.0626
  929MOL0     C25340   6.172   8.025   7.552 -0.3902 -0.6516 -0.1019
  929MOL0     C25341   6.076   7.914   7.544  1.0530 -0.5032  0.3410
  929MOL0     C25342   5.931   7.951   7.516  0.1215 -0.1664 -0.2547
  929MOL0     C25343   5.829   7.851   7.569  0.8995 -0.6834 -0.1835
  929MOL0     C25344   5.749   7.770   7.612  0.0082  0.0733 -0.0453
  929MOL0     C25345   6.621   8.151   7.641 -0.5684  0.0134  0.3156
  929MOL0     C25346   6.762   8.131   7.659 -0.2665  0.2138  0.5396
  929MOL0     C25347   6.838   8.251   7.701 -0.6851 -0.5852  0.3257
  929MOL0     H25348   7.197   8.225   7.529 -1.2389 -0.9888 -0.9689
  929MOL0     H25349   7.441   8.236   7.507  0.7256  0.4899 -0.0124
  929MOL0     H25350   7.654   8.099   7.408 -0.1661 -0.4525  0.3179
  929MOL0     H25351   7.672   8.226   7.520 -1.2264 -0.3180 -0.5039
  929MOL0     H25352   7.878   8.119   7.431  1.6729  0.6603  0.3580
  929MOL0     H25353   7.849   7.967   7.516  1.3546  0.3173 -1.9050
  929MOL0     H25354   7.841   8.129   7.732  2.0820 -0.7156  1.7668
  929MOL0     H25355   7.931   8.237   7.618  0.6868  0.3039 -0.1677
  929MOL0     H25356   8.057   8.076   7.783 -0.4351 -1.4758 -0.2134
  929MOL0     H25357   8.017   7.951   7.671 -1.3731  0.7953  0.3081
  929MOL0     H25358   8.229   8.015   7.614  0.5916  0.2421  2.3413
  929MOL0     H25359   8.120   8.069   7.485  1.5530 -2.8094  1.4830
  929MOL0     H25360   8.154   8.314   7.591  1.3970  1.3954 -0.5707
  929MOL0     H25361   8.225   8.221   7.730  1.6192 -2.4926 -0.5259
  929MOL0     H25362   8.430   8.179   7.618  2.5640  3.6387  1.1566
  929MOL0     H25363   8.388   8.349   7.589  0.6604  1.1641 -0.3615
  929MOL0     H25364   8.335   8.132   7.371 -0.7387  0.5354  0.9147
  929MOL0     H25365   8.296   8.307   7.367  0.0345 -1.1271 -0.9121
  929MOL0     H25366   8.629   8.155   7.479  0.1857 -2.0680 -0.9458
  929MOL0     H25367   8.879   8.340   7.405  1.0442  1.6254 -1.7836
  929MOL0     H25368   8.855   8.165   7.351  0.8006  0.5183 -1.2771
  929MOL0     H25369   8.982   8.204   7.181 -3.1616 -2.5668  2.7731
  929MOL0     H25370   8.859   8.312   7.116  1.2789 -0.1918 -0.9961
  929MOL0     H25371   9.093   8.383   7.300 -1.9957 -1.5588  2.2078
  929MOL0     H25372   8.965   8.503   7.247  0.7535 -0.3416 -0.0473
  929MOL0     H25373   9.120   8.553   7.083 -0.3406  0.7050  0.0796
  929MOL0     H25374   9.049   8.413   7.003  2.8717  1.5507 -2.4906
  929MOL0     H25375   9.321   8.483   7.297 -0.4200 -2.0449  0.2262
  929MOL0     H25376   9.537   8.606   7.308 -0.7044  1.1875 -0.0899
  929MOL0     H25377   9.834   8.876   7.158  0.4159  0.6997 -1.0634
  929MOL0     H25378  10.040   8.984   7.196 -1.7030  1.1739  0.7768
  929MOL0     H25379  10.275   9.003   7.184  2.1065 -0.1037  0.5815
  929MOL0     H25380  10.223   9.080   7.336 -1.4757 -1.6656  2.1482
  929MOL0     H25381  10.445   9.010   7.433  4.6447  2.1889 -0.2745
  929MOL0     H25382  10.480   8.948   7.268 -2.5693 -2.8535  0.7108
  929MOL0     H25383  10.420   9.171   7.177 -0.2366 -1.6057  0.7637
  929MOL0     H25384  10.403   9.239   7.338 -0.8185  1.8154 -2.0037
  929MOL0     H25385  10.654   9.108   7.222 -0.7418 -1.7058  0.6222
  929MOL0     H25386  10.643   9.169   7.391  3.5831 -1.8325 -1.1230
  929MOL0     H25387  10.606   9.394   7.317 -1.0068  0.0262  0.4406
  929MOL0     H25388  10.631   9.357   7.150  0.6620  2.2838  1.6610
  929MOL0     H25389  10.826   9.336   7.378  1.8874 -2.8670 -0.9878
  929MOL0     H25390  10.848   9.258   7.213 -0.9249  0.0801 -0.8496
  929MOL0     H25391  10.784   9.550   7.252  2.0766 -0.3278  3.7242
  929MOL0     H25392  10.862   9.470   7.109 -2.5314  1.5277 -0.5485
  929MOL0     H25393  10.961   9.525   7.390  0.9851 -2.5886  1.0796
  929MOL0     H25394  11.066   9.441   7.277 -0.3068 -0.4533 -1.0565
  929MOL0     H25395  10.177   8.653   7.445  2.1871  2.5106 -0.2324
  929MOL0     H25396   9.967   8.528   7.374  2.2998 -1.5812 -3.1737
  929MOL0     H25397   9.589   8.501   6.883 -2.3325 -0.7792 -0.7949
  929MOL0     H25398   9.376   8.379   6.888 -0.4865 -0.9320  0.8556
  929MOL0     H25399   7.463   7.864   7.714  3.9577  1.3261 -1.9473
  929MOL0     H25400   7.215   7.861   7.749 -0.2026 -0.5681 -1.4399
  929MOL0     H25401   6.762   7.795   7.576 -2.1059 -0.4751 -0.1330
  929MOL0     H25402   6.526   7.839   7.556 -2.2997  1.5402  0.8404
  929MOL0     H25403   6.315   7.890   7.643  1.4795  0.7128 -0.4249
  929MOL0     H25404   6.330   7.910   7.464 -1.3056  3.7762 -1.8573
  929MOL0     H25405   6.171   8.098   7.470 -1.5640  1.2839  1.5219
  929MOL0     H25406   6.149   8.089   7.638 -0.0893 -3.3322  2.0955
  929MOL0     H25407   6.075   7.863   7.641 -2.4330  1.3753  1.4347
  929MOL0     H25408   6.103   7.835   7.473  1.2944 -0.3843  0.2972
  929MOL0     H25409   5.925   8.047   7.567  2.1667  0.4553 -1.0838
  929MOL0     H25410   5.906   7.964   7.410 -1.8816  1.3759  0.3308
  929MOL0     H25411   5.681   7.699   7.653  0.2413  0.0634  0.3277
  929MOL0     H25412   6.571   8.244   7.663 -3.2269 -1.4564  0.9380
  929MOL0     H25413   6.859   8.335   7.634  1.4907 -0.0033  1.6373
  929MOL0     H25414   6.780   8.297   7.782 -1.9403  0.6299 -1.1931
  929MOL0     H25415   6.935   8.232   7.748  0.2997  4.6941  1.1434
  930MOL0     O25416   8.089   6.605  10.693 -0.0838  0.1724  0.3675
  930MOL0     C25417   8.011   6.540  10.625  0.5621  0.3574 -0.8128
  930MOL0     O25418   8.037   6.436  10.545 -0.0621 -0.0291  0.0610
  930MOL0     C25419   8.164   6.381  10.561 -1.0872 -0.1008 -0.1622
  930MOL0     C25420   8.208   6.301  10.666  0.6767 -0.1231 -0.3632
  930MOL0     C25421   8.333   6.252  10.675  0.1814  0.5608  0.1581
  930MOL0     C25422   8.427   6.274  10.572  0.1314 -0.2443 -0.0555
  930MOL0     O25423   8.561   6.225  10.584  0.5112  0.2220  0.1487
  930MOL0     C25424   8.608   6.156  10.699  0.1912  0.0074  0.3284
  930MOL0     C25425   8.648   6.247  10.810 -0.2581 -0.3779  0.6581
  930MOL0     C25426   8.792   6.318  10.797  0.5495 -0.2367 -0.5160
  930MOL0     C25427   8.805   6.402  10.669 -0.3105 -1.0035 -0.4612
  930MOL0     C25428   8.918   6.503  10.681  0.0826  0.1296 -0.0950
  930MOL0     C25429   9.062   6.449  10.679 -0.2727 -0.1235  0.4450
  930MOL0     C25430   9.163   6.566  10.681  0.1607  0.5346  0.4247
  930MOL0     C25431   9.171   6.636  10.546  0.0206 -0.4986 -0.0251
  930MOL0     N25432   9.302   6.699  10.528  0.1413 -0.6804 -0.1885
  930MOL0     C25433   9.336   6.824  10.580  0.2724  0.1321 -0.5524
  930MOL0     C25434   9.466   6.831  10.547  0.1554 -0.2857 -0.7407
  930MOL0     C25435   9.550   6.946  10.596  0.0229 -0.4500 -0.0951
  930MOL0     C25436   9.699   6.956  10.549  0.2977 -0.5066 -0.0977
  930MOL0     C25437   9.766   7.070  10.630  0.0859  0.3073  0.1052
  930MOL0     C25438   9.919   7.083  10.606 -0.6827 -0.1896 -0.1436
  930MOL0     O25439   9.963   7.210  10.659 -0.0920 -0.2298  0.4894
  930MOL0     C25440  10.095   7.253  10.645  0.5153  0.0814 -0.0483
  930MOL0     C25441  10.115   7.390  10.675 -1.6119  0.2890 -0.4506
  930MOL0     C25442  10.246   7.447  10.662  0.0261 -0.1824  1.3039
  930MOL0     C25443  10.362   7.371  10.636  0.0766 -0.0493  0.5323
  930MOL0     C25444  10.496   7.428  10.617 -1.0999  0.3278  0.2241
  930MOL0     O25445  10.592   7.329  10.599  0.1859 -0.8110 -0.6806
  930MOL0     C25446  10.728   7.368  10.582 -0.2894  0.1495  0.3157
  930MOL0     C25447  10.796   7.476  10.642 -0.5917 -0.3389 -0.3564
  930MOL0     C25448  10.931   7.510  10.608 -0.4888  0.0731  0.7035
  930MOL0     C25449  11.001   7.430  10.514 -0.0456  0.8759  0.0418
  930MOL0     O25450  11.129   7.460  10.505 -0.8245  0.3695 -0.2681
  930MOL0     C25451  11.216   7.347  10.497  0.9184 -0.7093 -1.1706
  930MOL0     C25452  11.351   7.399  10.544  0.0213  0.0122  0.2397
  930MOL0     C25453  11.411   7.497  10.448  0.1880 -0.1772  0.0053
  930MOL0     C25454  11.556   7.533  10.493  0.0075  0.2981  0.1167
  930MOL0     C25455  11.626   7.618  10.391 -0.2645 -0.5133 -0.0176
  930MOL0     C25456  11.777   7.628  10.414  0.3639  0.1598  0.1734
  930MOL0     C25457  11.820   7.717  10.536  0.4393  0.1559  0.2847
  930MOL0     C25458  11.965   7.740  10.512  0.7488 -0.6767 -0.2166
  930MOL0    Cl25459  12.056   7.606  10.584 -0.0560 -0.3232 -0.2146
  930MOL0     C25460  10.940   7.313  10.466  0.6480  0.0713 -0.4534
  930MOL0     C25461  10.801   7.290  10.495 -0.0879  0.1411 -0.1662
  930MOL0     O25462  10.514   7.552  10.618 -1.1328 -0.1487 -0.0091
  930MOL0     C25463  10.338   7.228  10.622 -0.4165 -0.3015  0.4553
  930MOL0     C25464  10.208   7.176  10.629  0.6162  0.3844  0.3606
  930MOL0     N25465   9.513   6.713  10.492  0.1135  0.8200  0.0372
  930MOL0     N25466   9.408   6.632  10.484  0.6159  0.1299 -0.3437
  930MOL0     C25467   8.387   6.360  10.461  0.7529  0.0095 -0.9195
  930MOL0     C25468   8.256   6.411  10.460 -0.3792  0.0822  0.3703
  930MOL0     C25469   7.880   6.600  10.630 -0.7740  0.9072  1.0653
  930MOL0     C25470   7.856   6.737  10.623 -0.2377 -0.3141  0.4596
  930MOL0     C25471   7.726   6.797  10.591 -0.4492  0.7078 -0.3102
  930MOL0     C25472   7.619   6.709  10.589  1.2429 -0.5996  0.1467
  930MOL0     O25473   7.493   6.763  10.569  0.0643  0.0380  0.1353
  930MOL0     C25474   7.376   6.673  10.568  0.3763 -0.9019  0.3404
  930MOL0     C25475   7.249   6.758  10.539  0.3229 -0.6642  0.4612
  930MOL0     C25476   7.240   6.866  10.646  0.1627 -0.2303 -0.7569
  930MOL0     C25477   7.114   6.951  10.634 -0.4073  0.2155  0.3361
  930MOL0     C25478   6.990   6.868  10.650 -0.5294 -0.2809  0.0261
  930MOL0     C25479   6.888   6.805  10.662  0.0035 -0.1895  0.0084
  930MOL0     C25480   7.642   6.565  10.602  0.4156 -1.1447  0.1877
  930MOL0     C25481   7.768   6.515  10.626 -0.6588 -0.3416  0.2918
  930MOL0     C25482   7.778   6.362  10.642 -0.1549 -0.5309 -0.7285
  930MOL0     H25483   8.140   6.276  10.747  2.3659 -1.0389  0.8458
  930MOL0     H25484   8.361   6.192  10.760 -0.2485 -0.0890 -0.1553
  930MOL0     H25485   8.530   6.087  10.729  0.8124 -0.0309  1.9674
  930MOL0     H25486   8.690   6.090  10.669 -1.5666 -1.0715 -2.5096
  930MOL0     H25487   8.647   6.194  10.905  1.0130 -0.4172  0.6618
  930MOL0     H25488   8.568   6.322  10.808 -0.9945 -1.1365 -1.7507
  930MOL0     H25489   8.868   6.239  10.802  2.3914  1.5014  0.7955
  930MOL0     H25490   8.817   6.378  10.886  0.0599  0.8100 -1.0636
  930MOL0     H25491   8.822   6.345  10.578  1.6700  2.1432 -2.2525
  930MOL0     H25492   8.715   6.464  10.661 -1.0831 -1.5097  2.8283
  930MOL0     H25493   8.903   6.550  10.583  3.6707 -0.1362 -0.9200
  930MOL0     H25494   8.908   6.564  10.771  2.7641 -0.0456  0.4033
  930MOL0     H25495   9.076   6.393  10.772 -0.0918  0.2830  0.6704
  930MOL0     H25496   9.081   6.388  10.590 -3.4259 -1.2814  0.4405
  930MOL0     H25497   9.266   6.533  10.702 -0.5179 -1.9392  0.1766
  930MOL0     H25498   9.145   6.643  10.756  1.9840  1.1372  0.3020
  930MOL0     H25499   9.152   6.571  10.460  1.5118  0.7897 -1.3790
  930MOL0     H25500   9.097   6.715  10.533  1.3141  0.3951 -2.6987
  930MOL0     H25501   9.272   6.895  10.629 -0.3490 -2.2942  2.4463
  930MOL0     H25502   9.496   7.035  10.564  0.7322 -0.1909 -0.6021
  930MOL0     H25503   9.543   6.938  10.705 -0.4266  1.4328  0.0478
  930MOL0     H25504   9.762   6.871  10.576  1.0674  0.4102  1.1385
  930MOL0     H25505   9.700   6.975  10.442 -1.9652 -3.8737 -0.8737
  930MOL0     H25506   9.766   7.046  10.737 -0.9684 -0.2697 -0.0177
  930MOL0     H25507   9.725   7.168  10.605  1.3572  0.9914  0.5810
  930MOL0     H25508   9.963   7.061  10.509  1.8842  1.8195  0.4655
  930MOL0     H25509   9.946   7.000  10.672  0.1246  1.9458  2.4072
  930MOL0     H25510  10.029   7.446  10.710 -1.1981 -1.1943  3.4763
  930MOL0     H25511  10.258   7.553  10.684 -3.4200  0.2664  1.5812
  930MOL0     H25512  10.752   7.537  10.720 -3.5661  0.3013 -2.3553
  930MOL0     H25513  10.975   7.599  10.652 -3.5456  1.4440  1.2779
  930MOL0     H25514  11.187   7.259  10.554  0.7081  0.4230  0.5751
  930MOL0     H25515  11.219   7.315  10.392  0.2845  1.6835 -1.9839
  930MOL0     H25516  11.345   7.420  10.651 -0.0749 -2.0663  0.6907
  930MOL0     H25517  11.426   7.319  10.536 -1.1420 -1.0083 -0.9575
  930MOL0     H25518  11.403   7.449  10.350 -0.9512 -0.1605  0.0738
  930MOL0     H25519  11.341   7.581  10.432 -0.6922 -0.8319  0.3283
  930MOL0     H25520  11.619   7.443  10.494 -1.5171 -0.8431 -1.2558
  930MOL0     H25521  11.555   7.577  10.593 -0.7407  0.0974  0.2010
  930MOL0     H25522  11.600   7.723  10.399 -1.5552 -0.7466 -0.9435
  930MOL0     H25523  11.610   7.589  10.287  1.4521  1.4574 -0.9046
  930MOL0     H25524  11.813   7.524  10.413  1.0870  0.4117 -0.2505
  930MOL0     H25525  11.816   7.678  10.326 -0.4815  0.4733 -0.0327
  930MOL0     H25526  11.784   7.661  10.623 -2.9655  3.1392  1.0426
  930MOL0     H25527  11.763   7.810  10.533  0.2063  0.0619  1.3706
  930MOL0     H25528  11.989   7.769  10.409  0.8814 -3.6031 -1.1003
  930MOL0     H25529  11.992   7.829  10.569  0.1629 -1.1797  0.8727
  930MOL0     H25530  10.987   7.248  10.392 -0.6723  0.6004 -1.8087
  930MOL0     H25531  10.747   7.211  10.445 -0.6593 -0.3498  1.2091
  930MOL0     H25532  10.422   7.163  10.598 -0.8046 -0.4534 -0.5016
  930MOL0     H25533  10.194   7.071  10.604  0.4384  0.9165 -1.9450
  930MOL0     H25534   8.461   6.382  10.385  0.5359 -1.0386 -1.4611
  930MOL0     H25535   8.224   6.467  10.373  0.4893  1.9574  1.2194
  930MOL0     H25536   7.946   6.797  10.630  0.5760 -1.3509 -0.6372
  930MOL0     H25537   7.711   6.903  10.574  1.6130  1.2856  1.1166
  930MOL0     H25538   7.362   6.626  10.666  1.3986  0.1579  1.0296
  930MOL0     H25539   7.402   6.599  10.492  0.9221 -1.3237  0.9192
  930MOL0     H25540   7.166   6.689  10.555  0.8545 -1.0372  1.7436
  930MOL0     H25541   7.242   6.798  10.437  2.1316 -2.1346 -0.2954
  930MOL0     H25542   7.331   6.927  10.647  0.5656 -0.8085  0.8561
  930MOL0     H25543   7.232   6.818  10.744  2.4743  1.8499  0.5820
  930MOL0     H25544   7.111   7.029  10.711 -0.6586  0.6222 -0.0768
  930MOL0     H25545   7.111   6.999  10.536  1.2352 -0.2240  0.0334
  930MOL0     H25546   6.796   6.750  10.669 -0.6212  0.8197 -0.0744
  930MOL0     H25547   7.558   6.496  10.614  0.0494 -0.6281  0.6677
  930MOL0     H25548   7.790   6.300  10.552  1.4261 -0.2173 -0.7587
  930MOL0     H25549   7.860   6.345  10.713  0.7844  2.7265 -0.8953
  930MOL0     H25550   7.685   6.328  10.690  0.1844  1.0699  1.1727
  931MOL0     O25551   4.474   1.059   3.720  0.4856 -0.2558 -0.1569
  931MOL0     C25552   4.428   1.019   3.612  0.4924 -0.1329  0.9556
  931MOL0     O25553   4.415   1.096   3.503  0.1307 -0.2619  0.6930
  931MOL0     C25554   4.527   1.157   3.449 -0.6259  0.6992  0.4355
  931MOL0     C25555   4.514   1.276   3.385  0.1829 -0.3192 -0.1652
  931MOL0     C25556   4.620   1.338   3.318  0.8382 -0.2749  0.8160
  931MOL0     C25557   4.743   1.274   3.311  0.7488 -0.6040 -0.7042
  931MOL0     O25558   4.857   1.316   3.237 -0.0019  0.1454 -0.1298
  931MOL0     C25559   4.847   1.421   3.148 -0.1949 -0.4310 -0.3854
  931MOL0     C25560   4.990   1.427   3.071 -0.2964 -0.7201  0.1970
  931MOL0     C25561   4.965   1.435   2.919 -1.2225  0.2141  0.0748
  931MOL0     C25562   5.091   1.414   2.842 -0.7288  0.5285 -0.9360
  931MOL0     C25563   5.192   1.527   2.844 -0.3334 -0.0643  0.3650
  931MOL0     C25564   5.317   1.497   2.760 -0.5680  0.3070  0.1605
  931MOL0     C25565   5.442   1.591   2.780 -0.5237  0.1267 -1.0901
  931MOL0     C25566   5.511   1.574   2.913  0.4999 -0.1406  0.0896
  931MOL0     N25567   5.651   1.607   2.900 -0.4437 -0.1297 -0.0991
  931MOL0     C25568   5.707   1.732   2.905 -0.1192 -0.0817 -0.8451
  931MOL0     C25569   5.840   1.707   2.892  0.1389  0.8531  0.4342
  931MOL0     C25570   5.942   1.823   2.900  0.7391  0.9671  0.3533
  931MOL0     C25571   5.908   1.925   3.001 -0.3151 -1.1331  0.2604
  931MOL0     C25572   5.894   1.905   3.154 -0.3166  0.1827  1.1513
  931MOL0     C25573   6.002   1.818   3.211 -0.5744  0.2326 -0.2335
  931MOL0     O25574   6.125   1.823   3.139 -0.4524 -0.2071  0.2036
  931MOL0     C25575   6.230   1.894   3.185 -0.6623 -0.2266  1.0502
  931MOL0     C25576   6.242   1.977   3.295  1.0841 -0.0476  0.2336
  931MOL0     C25577   6.375   2.021   3.328  0.4161  0.0804  0.5314
  931MOL0     C25578   6.489   1.974   3.261 -0.0025 -0.5576  0.4649
  931MOL0     C25579   6.621   2.022   3.285  0.5000 -0.5413 -0.3182
  931MOL0     O25580   6.724   1.974   3.213  0.1946  0.6733 -0.7041
  931MOL0     C25581   6.845   2.016   3.246 -0.1460 -0.1892 -0.3100
  931MOL0     C25582   6.896   2.132   3.197  0.3099 -0.3461 -0.2142
  931MOL0     C25583   7.026   2.177   3.224  0.8193  0.4770  0.2065
  931MOL0     C25584   7.111   2.096   3.297 -0.2667  0.1620 -0.1000
  931MOL0     O25585   7.243   2.132   3.315  0.2588  0.3675  0.6263
  931MOL0     C25586   7.294   2.179   3.194  0.2063  0.4926 -0.0333
  931MOL0     C25587   7.441   2.204   3.195 -0.4630 -0.0299 -0.2982
  931MOL0     C25588   7.514   2.066   3.190  0.1455  0.3478 -0.0748
  931MOL0     C25589   7.549   2.040   3.048 -0.2655 -0.2148  0.6728
  931MOL0     C25590   7.678   2.114   3.013 -0.0734 -0.4689 -0.0055
  931MOL0     C25591   7.808   2.039   3.047 -0.1073  0.1417  0.2540
  931MOL0     C25592   7.928   2.124   3.004 -0.7369 -0.6757  0.8004
  931MOL0     C25593   8.057   2.035   3.008 -0.6137 -0.6341  0.6881
  931MOL0    Cl25594   8.093   2.026   3.181  0.2302 -0.1327  0.5897
  931MOL0     C25595   7.063   1.973   3.347 -0.2904 -0.4015 -0.2648
  931MOL0     C25596   6.933   1.934   3.324  0.8191 -0.4364 -0.5849
  931MOL0     O25597   6.633   2.111   3.374 -0.1572 -0.0148 -0.1852
  931MOL0     C25598   6.475   1.890   3.154  0.6874 -0.2703  0.6460
  931MOL0     C25599   6.344   1.853   3.115 -0.2149 -0.1535 -0.2612
  931MOL0     N25600   5.861   1.578   2.860 -0.1913 -0.5407 -0.3265
  931MOL0     N25601   5.740   1.525   2.857 -0.6157 -0.1089  0.3599
  931MOL0     C25602   4.761   1.152   3.375  0.6232 -0.1060  0.1709
  931MOL0     C25603   4.649   1.096   3.443  0.1514 -1.1699 -0.7846
  931MOL0     C25604   4.336   0.894   3.603  0.2306  0.2840 -0.6948
  931MOL0     C25605   4.382   0.793   3.516  0.8428 -0.4575  0.6337
  931MOL0     C25606   4.299   0.684   3.495 -0.1026 -0.1763  0.5600
  931MOL0     C25607   4.184   0.661   3.565 -0.2721 -0.1235 -0.6833
  931MOL0     O25608   4.099   0.555   3.549  0.7255 -0.1093 -0.1967
  931MOL0     C25609   4.097   0.481   3.429  0.5391  0.8124  0.3980
  931MOL0     C25610   4.178   0.356   3.436 -0.0850  0.2457  0.7756
  931MOL0     C25611   4.184   0.269   3.306  0.0255 -0.0183 -0.1395
  931MOL0     C25612   4.303   0.303   3.212 -0.0519 -0.4534 -0.4911
  931MOL0     C25613   4.268   0.414   3.127  0.4414 -0.1991  0.1440
  931MOL0     C25614   4.225   0.509   3.061  0.2622  0.9468 -0.8820
  931MOL0     C25615   4.146   0.758   3.665 -1.1312  0.0729 -0.0119
  931MOL0     C25616   4.207   0.886   3.674 -0.3712  0.4791 -1.0226
  931MOL0     C25617   4.154   0.987   3.774 -0.8988  0.2641 -0.3324
  931MOL0     H25618   4.425   1.337   3.399  1.4749  1.2239  1.9999
  931MOL0     H25619   4.599   1.437   3.279  0.0306 -0.0902  1.6864
  931MOL0     H25620   4.766   1.397   3.079 -1.1371  0.4836  0.3512
  931MOL0     H25621   4.833   1.514   3.206  2.5317 -1.5659  2.3623
  931MOL0     H25622   5.059   1.346   3.097  2.5501  1.2309 -0.7983
  931MOL0     H25623   5.032   1.525   3.093 -0.1331 -0.6617 -0.3607
  931MOL0     H25624   4.921   1.532   2.895 -3.0030 -0.3354  0.9012
  931MOL0     H25625   4.888   1.362   2.889 -1.8140  1.5108 -1.7203
  931MOL0     H25626   5.139   1.329   2.890 -0.5535  0.2733 -1.5524
  931MOL0     H25627   5.063   1.397   2.737 -0.3753 -0.9088 -0.8101
  931MOL0     H25628   5.145   1.619   2.810 -2.2663 -0.5031  1.6757
  931MOL0     H25629   5.224   1.541   2.948  0.5559 -0.9417  0.2267
  931MOL0     H25630   5.347   1.391   2.762 -0.1213  0.4395  1.4549
  931MOL0     H25631   5.289   1.514   2.656 -1.7474  0.8437  0.5457
  931MOL0     H25632   5.408   1.694   2.771  0.8430  0.7055  0.0325
  931MOL0     H25633   5.506   1.581   2.692  0.4424 -0.0555 -0.3782
  931MOL0     H25634   5.461   1.626   2.995  0.2143  0.8921 -0.7154
  931MOL0     H25635   5.511   1.466   2.931  3.0448 -0.3644 -0.8062
  931MOL0     H25636   5.649   1.822   2.925  0.4439 -0.4140  3.3082
  931MOL0     H25637   6.044   1.784   2.909  0.7977  1.0157 -0.0828
  931MOL0     H25638   5.942   1.872   2.802 -1.2023 -1.8628 -1.2069
  931MOL0     H25639   5.994   1.993   2.992 -0.6281 -0.5026  1.7141
  931MOL0     H25640   5.816   1.976   2.971 -0.6967 -2.2724 -0.5515
  931MOL0     H25641   5.796   1.870   3.188 -1.6558  2.5116 -0.0945
  931MOL0     H25642   5.894   2.003   3.202 -0.8542 -0.1978  1.9638
  931MOL0     H25643   5.957   1.718   3.215 -1.6044  0.7262  0.9576
  931MOL0     H25644   6.031   1.853   3.310  2.6616 -0.3138 -0.8598
  931MOL0     H25645   6.155   2.008   3.352  1.7285 -0.6390  1.5980
  931MOL0     H25646   6.377   2.100   3.402 -1.5680  0.4312  0.2674
  931MOL0     H25647   6.826   2.191   3.138  2.1345  1.5545 -0.6028
  931MOL0     H25648   7.058   2.267   3.172  2.2284 -1.0535 -1.7279
  931MOL0     H25649   7.268   2.119   3.107 -0.0570  2.8531 -1.6854
  931MOL0     H25650   7.248   2.276   3.172 -3.6528 -0.7198  1.9696
  931MOL0     H25651   7.463   2.251   3.099 -1.4554 -0.3774 -0.7150
  931MOL0     H25652   7.463   2.256   3.289 -1.1979  0.9063 -0.6314
  931MOL0     H25653   7.603   2.082   3.252  1.3948 -0.1433 -1.6658
  931MOL0     H25654   7.452   1.987   3.233  1.0859 -0.8863 -0.9006
  931MOL0     H25655   7.466   2.058   2.979  0.2131 -1.4880 -0.2706
  931MOL0     H25656   7.578   1.934   3.049 -0.3975 -0.2518  1.5637
  931MOL0     H25657   7.679   2.211   3.064  2.0555 -0.8546  0.7847
  931MOL0     H25658   7.672   2.130   2.905  1.6273  0.2140 -0.0351
  931MOL0     H25659   7.829   2.024   3.154 -0.0809 -1.9534  0.0105
  931MOL0     H25660   7.818   1.943   2.996  1.7890  0.9321 -0.9824
  931MOL0     H25661   7.929   2.209   3.072  0.9618 -1.9048  2.4219
  931MOL0     H25662   7.916   2.160   2.902  0.3737  1.2577  1.2982
  931MOL0     H25663   8.039   1.937   2.962  5.9347 -1.6203 -0.8378
  931MOL0     H25664   8.139   2.084   2.954 -0.6918  1.2624  2.1956
  931MOL0     H25665   7.138   1.912   3.395  1.6242 -0.0792 -2.6630
  931MOL0     H25666   6.887   1.842   3.359 -1.5058  0.5733 -0.8225
  931MOL0     H25667   6.562   1.852   3.102  1.4047  0.4523  1.2905
  931MOL0     H25668   6.345   1.786   3.029  2.7721 -0.5842 -0.0018
  931MOL0     H25669   4.854   1.099   3.363  0.2518 -0.9013  0.6880
  931MOL0     H25670   4.669   1.006   3.500  0.8290 -0.3766  0.2694
  931MOL0     H25671   4.478   0.812   3.469  1.2708 -0.9846  1.2868
  931MOL0     H25672   4.337   0.608   3.427  2.5921  2.7756 -1.5012
  931MOL0     H25673   4.123   0.545   3.343 -1.7536  0.9610 -0.2499
  931MOL0     H25674   3.998   0.451   3.395  0.5654  0.1935  0.8690
  931MOL0     H25675   4.125   0.297   3.512 -0.2223 -0.8539 -0.1499
  931MOL0     H25676   4.279   0.383   3.468 -0.1193  1.6681 -0.2703
  931MOL0     H25677   4.090   0.298   3.258  0.0598  0.9215  0.3288
  931MOL0     H25678   4.184   0.162   3.327 -1.5180  0.0296  0.2172
  931MOL0     H25679   4.400   0.319   3.261  0.5816 -1.6199 -1.3067
  931MOL0     H25680   4.302   0.221   3.139 -2.1740  0.1018 -1.1455
  931MOL0     H25681   4.165   0.576   3.004 -1.3913 -0.4880 -0.9010
  931MOL0     H25682   4.064   0.740   3.733  0.8768 -4.1889  1.6309
  931MOL0     H25683   4.048   0.973   3.798 -0.9621 -2.1597 -1.7926
  931MOL0     H25684   4.206   0.989   3.870  1.3094 -0.1053 -1.4686
  931MOL0     H25685   4.171   1.085   3.729  1.6339  0.6003  1.1363
  932MOL0     O25686  10.709  10.470  10.664 -0.1290 -0.0296  0.2851
  932MOL0     C25687  10.814  10.419  10.640 -0.7458  0.8053  0.2892
  932MOL0     O25688  10.822  10.283  10.606 -0.6113  0.0823  0.2122
  932MOL0     C25689  10.719  10.192  10.621 -0.2639  0.5661  0.0322
  932MOL0     C25690  10.760  10.063  10.679  0.6836  0.2291  1.0073
  932MOL0     C25691  10.673   9.949  10.658  0.0106 -0.2164  0.7885
  932MOL0     C25692  10.544   9.972  10.620  0.1743 -0.1203  0.6730
  932MOL0     O25693  10.461   9.863  10.631  0.4203 -0.0794  0.3486
  932MOL0     C25694  10.344   9.849  10.551 -0.3234 -0.8460 -0.4594
  932MOL0     C25695  10.282   9.710  10.571 -0.2809  0.2684 -0.5079
  932MOL0     C25696  10.301   9.668  10.715  0.1423  0.5199  0.5238
  932MOL0     C25697  10.224   9.537  10.734  0.1767  0.0509  0.8109
  932MOL0     C25698  10.229   9.490  10.874  0.1709 -0.0607 -0.4542
  932MOL0     C25699  10.147   9.360  10.890  0.3031  0.4260 -0.1184
  932MOL0     C25700  10.009   9.340  10.825 -0.3053 -0.2149  0.0310
  932MOL0     C25701   9.930   9.217  10.879 -1.4782 -1.2919  0.0652
  932MOL0     N25702   9.802   9.210  10.825 -0.0382  0.5378 -0.2425
  932MOL0     C25703   9.692   9.232  10.904 -0.0976  0.9064 -0.0957
  932MOL0     C25704   9.588   9.220  10.820  0.3629 -0.0229  0.2137
  932MOL0     C25705   9.440   9.220  10.839  0.8907 -0.2176  0.3586
  932MOL0     C25706   9.372   9.330  10.923  0.4312 -0.4518 -0.6132
  932MOL0     C25707   9.349   9.454  10.836 -0.8159 -0.7564  0.4734
  932MOL0     C25708   9.477   9.522  10.782 -0.5083 -0.1138  0.0404
  932MOL0     O25709   9.433   9.645  10.724 -0.5147  0.4432 -0.5812
  932MOL0     C25710   9.529   9.740  10.678  0.4766  0.4948 -0.4893
  932MOL0     C25711   9.475   9.858  10.626  0.2051 -0.1736 -0.0480
  932MOL0     C25712   9.563   9.950  10.562  0.2157 -0.2826  0.2991
  932MOL0     C25713   9.701   9.928  10.558  0.0829 -0.0430  0.3467
  932MOL0     C25714   9.806  10.032  10.498 -0.0924  0.0016  0.6458
  932MOL0     O25715   9.933   9.988  10.477 -0.0927  0.2090 -0.4324
  932MOL0     C25716  10.024  10.059  10.403 -0.2557 -0.4753 -0.4440
  932MOL0     C25717  10.035  10.202  10.398 -0.1025 -0.6222  0.7827
  932MOL0     C25718  10.146  10.257  10.334 -0.3819  0.0227  0.0331
  932MOL0     C25719  10.257  10.184  10.278  0.4687  0.1693  0.2274
  932MOL0     O25720  10.357  10.263  10.228  0.2957  0.0391  0.0540
  932MOL0     C25721  10.478  10.198  10.182 -0.0953 -0.6364 -0.7434
  932MOL0     C25722  10.573  10.303  10.114  0.1652  0.4961  0.1152
  932MOL0     C25723  10.651  10.402  10.199  0.5922 -0.0867 -0.5289
  932MOL0     C25724  10.569  10.506  10.276 -0.4536  0.3597  0.2078
  932MOL0     C25725  10.638  10.638  10.291  0.9428  0.4925  0.8135
  932MOL0     C25726  10.546  10.741  10.352  0.4593 -0.6191  0.0213
  932MOL0     C25727  10.622  10.880  10.374  0.2090 -0.1943 -0.4727
  932MOL0     C25728  10.533  10.969  10.456 -0.4950  0.4337 -1.3146
  932MOL0    Cl25729  10.382  11.020  10.372 -0.0097  0.0250 -0.1289
  932MOL0     C25730  10.242  10.045  10.273  0.7887  0.1027  0.1982
  932MOL0     C25731  10.129   9.993  10.340  0.1021  0.5173 -0.3046
  932MOL0     O25732   9.757  10.130  10.459 -0.0316 -0.4175 -0.1086
  932MOL0     C25733   9.747   9.808  10.616 -0.2609  0.6478 -0.4312
  932MOL0     C25734   9.666   9.711  10.675 -0.2665  0.4384 -0.1564
  932MOL0     N25735   9.638   9.201  10.691  0.0762  0.2641  0.2783
  932MOL0     N25736   9.770   9.199  10.699 -0.2771  0.2723 -0.7638
  932MOL0     C25737  10.501  10.096  10.573 -0.4306  0.1159 -0.1069
  932MOL0     C25738  10.596  10.201  10.556  0.1007  0.7573  0.0409
  932MOL0     C25739  10.948  10.491  10.642 -0.3066 -0.0759 -0.4944
  932MOL0     C25740  11.066  10.416  10.617 -0.2611 -0.9194 -0.2813
  932MOL0     C25741  11.181  10.494  10.595 -0.0315  0.0219  0.1721
  932MOL0     C25742  11.191  10.628  10.616 -0.2533  0.0563  0.5548
  932MOL0     O25743  11.311  10.702  10.610  0.0575  0.3139  0.5974
  932MOL0     C25744  11.427  10.628  10.630 -0.3469  0.4322  0.4966
  932MOL0     C25745  11.543  10.727  10.647  0.1540  0.2902 -0.5342
  932MOL0     C25746  11.544  10.832  10.536 -0.3639 -0.1863 -0.1438
  932MOL0     C25747  11.663  10.924  10.561  0.7814 -0.0261 -0.3528
  932MOL0     C25748  11.794  10.858  10.547 -0.2868 -0.0584  0.0551
  932MOL0     C25749  11.899  10.800  10.510 -0.7311 -0.3963 -0.5706
  932MOL0     C25750  11.073  10.696  10.652  0.4908  0.7110 -0.5900
  932MOL0     C25751  10.949  10.633  10.668  0.3422  0.3791  0.2673
  932MOL0     C25752  10.831  10.709  10.736 -1.0135  0.8355 -0.5073
  932MOL0     H25753  10.860  10.051  10.719  0.5177 -1.8048  0.8815
  932MOL0     H25754  10.708   9.851  10.688  1.0063  0.9222  3.7660
  932MOL0     H25755  10.264   9.919  10.578  0.5820  0.0113  0.0740
  932MOL0     H25756  10.363   9.858  10.444 -0.3971 -0.1147 -0.4167
  932MOL0     H25757  10.332   9.628  10.518 -2.4140 -1.0804 -0.5913
  932MOL0     H25758  10.174   9.709  10.550 -0.4971  0.7114  0.5046
  932MOL0     H25759  10.262   9.738  10.789 -0.1963 -1.6574  2.4887
  932MOL0     H25760  10.407   9.647  10.731 -0.4208 -2.6112  0.7007
  932MOL0     H25761  10.121   9.562  10.708  1.5187  5.6468 -0.4721
  932MOL0     H25762  10.264   9.464  10.663  3.5102  2.2485  0.1746
  932MOL0     H25763  10.333   9.471  10.902  0.3645  2.2790  0.6844
  932MOL0     H25764  10.193   9.572  10.936 -0.5289 -1.1161  0.5910
  932MOL0     H25765  10.212   9.279  10.856 -0.0043 -1.2207  2.8921
  932MOL0     H25766  10.138   9.339  10.997 -2.7098 -1.5346 -0.6270
  932MOL0     H25767  10.017   9.337  10.716 -0.7009 -0.7835  0.0170
  932MOL0     H25768   9.960   9.432  10.860 -1.4173 -0.3821 -1.0241
  932MOL0     H25769   9.982   9.122  10.864 -0.3420 -0.2861 -3.2597
  932MOL0     H25770   9.929   9.220  10.988 -0.6058  0.6094  0.0694
  932MOL0     H25771   9.689   9.248  11.012 -0.7162  0.7029 -0.0822
  932MOL0     H25772   9.384   9.214  10.745 -2.0073 -0.7477  1.9672
  932MOL0     H25773   9.412   9.120  10.875 -0.4634 -0.8356 -2.1469
  932MOL0     H25774   9.273   9.297  10.956  0.5745 -0.4275 -0.1505
  932MOL0     H25775   9.431   9.363  11.009 -1.0814  5.0955 -1.3665
  932MOL0     H25776   9.306   9.534  10.897  2.7216 -0.8149  3.3435
  932MOL0     H25777   9.290   9.430  10.747  2.8987  0.8856 -2.6623
  932MOL0     H25778   9.528   9.461  10.707 -2.5687 -1.6855 -0.1870
  932MOL0     H25779   9.548   9.553  10.859 -0.5935  0.8174 -0.2356
  932MOL0     H25780   9.368   9.871  10.634 -0.5226 -2.8952 -3.1012
  932MOL0     H25781   9.517  10.043  10.529  0.1001 -0.4585 -0.0327
  932MOL0     H25782   9.961  10.263  10.449 -0.6094 -1.4673  1.0748
  932MOL0     H25783  10.155  10.365  10.329  2.7949 -0.1877 -0.4311
  932MOL0     H25784  10.521  10.153  10.272  0.3317  2.8986  1.0228
  932MOL0     H25785  10.448  10.123  10.109 -3.6340  1.7580 -2.0222
  932MOL0     H25786  10.650  10.246  10.063 -2.8371 -1.1213 -2.9931
  932MOL0     H25787  10.528  10.365  10.036  1.3534 -0.9979 -1.8541
  932MOL0     H25788  10.708  10.347  10.274 -0.0467 -0.8177 -0.5654
  932MOL0     H25789  10.724  10.454  10.137  0.9414  1.1571  0.8754
  932MOL0     H25790  10.530  10.472  10.372  3.3499  2.6429  2.8567
  932MOL0     H25791  10.477  10.530  10.222 -1.0458 -0.6408  0.7504
  932MOL0     H25792  10.683  10.664  10.194 -2.8141 -0.6458 -1.4237
  932MOL0     H25793  10.709  10.622  10.374 -1.1754  1.3645  2.8965
  932MOL0     H25794  10.462  10.751  10.282  1.0006 -0.4502 -0.6163
  932MOL0     H25795  10.506  10.698  10.444 -0.1459 -0.8638 -0.3474
  932MOL0     H25796  10.629  10.929  10.277  0.6390 -3.5118 -2.2544
  932MOL0     H25797  10.716  10.863  10.426 -0.2456  1.6021  1.0428
  932MOL0     H25798  10.495  10.913  10.542 -1.2612  0.0348 -1.9010
  932MOL0     H25799  10.592  11.056  10.485  1.3139 -1.5693  1.6821
  932MOL0     H25800  10.317   9.981  10.227 -0.5694 -0.0584 -1.9025
  932MOL0     H25801  10.123   9.884  10.337  2.0445  0.3534  0.2952
  932MOL0     H25802   9.853   9.788  10.608  0.0370  1.4567  1.0572
  932MOL0     H25803   9.709   9.620  10.716 -1.3235  0.1565  0.3784
  932MOL0     H25804  10.396  10.110  10.548 -1.2669 -2.0498  1.7792
  932MOL0     H25805  10.574  10.296  10.507 -0.7145  1.3321  1.4612
  932MOL0     H25806  11.081  10.309  10.605  1.8908 -1.0696  2.6488
  932MOL0     H25807  11.264  10.426  10.575 -1.4206 -2.1414  1.3133
  932MOL0     H25808  11.445  10.549  10.557  1.7581  2.2616 -1.0686
  932MOL0     H25809  11.420  10.569  10.723  0.2212 -1.8642 -0.8371
  932MOL0     H25810  11.632  10.666  10.659  1.3776  1.9615 -0.6751
  932MOL0     H25811  11.517  10.775  10.742 -2.2813 -3.0866  0.6964
  932MOL0     H25812  11.455  10.895  10.533 -0.5494 -0.4662 -0.5907
  932MOL0     H25813  11.549  10.773  10.444 -1.3862 -1.8598  0.8272
  932MOL0     H25814  11.663  11.002  10.484 -0.6501 -0.3069 -0.6540
  932MOL0     H25815  11.647  10.963  10.662  1.9424 -1.7102  0.5334
  932MOL0     H25816  11.993  10.750  10.494  0.1697  0.6208  1.2114
  932MOL0     H25817  11.075  10.803  10.672  0.6937  0.2172  2.6313
  932MOL0     H25818  10.856  10.811  10.766  1.7381 -0.6054  2.8526
  932MOL0     H25819  10.738  10.713  10.678 -1.6171 -0.4055  0.3090
  932MOL0     H25820  10.804  10.651  10.825  0.5135 -0.6155 -0.9357
  933MOL0     O25821   0.305   0.156   9.982  0.0210  0.1135  0.0257
  933MOL0     C25822   0.325   0.181  10.097  0.7290  0.1338 -0.9146
  933MOL0     O25823   0.423   0.253  10.146 -0.5227 -0.7287  0.7081
  933MOL0     C25824   0.555   0.245  10.091  0.0250 -0.1022 -0.6248
  933MOL0     C25825   0.608   0.145  10.017 -0.3678  0.8569  0.5189
  933MOL0     C25826   0.740   0.144   9.978 -0.3772  0.2388  0.0964
  933MOL0     C25827   0.824   0.253  10.014  0.0495 -0.7775 -0.0106
  933MOL0     O25828   0.949   0.250   9.950  0.7605 -0.1793 -0.0865
  933MOL0     C25829   1.054   0.333  10.010  0.0868 -0.1860  0.7010
  933MOL0     C25830   1.117   0.272  10.136  0.0887 -0.0209  0.1264
  933MOL0     C25831   1.244   0.354  10.188  0.6014 -0.2029  0.3642
  933MOL0     C25832   1.358   0.368  10.090 -1.1085  0.7154 -0.4841
  933MOL0     C25833   1.484   0.382  10.180 -0.5666  0.6628  0.1878
  933MOL0     C25834   1.609   0.359  10.093  0.3596  0.4075 -0.2661
  933MOL0     C25835   1.745   0.374  10.169 -0.3836  1.3782  0.0018
  933MOL0     C25836   1.796   0.521  10.192  0.0164  0.4386  0.1125
  933MOL0     N25837   1.842   0.580  10.069 -0.3788 -0.1123 -0.0800
  933MOL0     C25838   1.967   0.635  10.048 -0.4441  0.6799 -0.0972
  933MOL0     C25839   1.949   0.714   9.942  0.9069 -0.3030  0.1365
  933MOL0     C25840   2.037   0.822   9.880  0.5185 -0.4348  0.5533
  933MOL0     C25841   2.181   0.825   9.943  0.1974  0.3054  0.3162
  933MOL0     C25842   2.267   0.707   9.894  0.5444  0.5764 -0.1802
  933MOL0     C25843   2.407   0.712   9.936 -0.6566 -0.7349 -0.8526
  933MOL0     O25844   2.474   0.829   9.899  0.3731  0.0318 -0.4793
  933MOL0     C25845   2.612   0.825   9.904 -0.0325  0.6006  0.0064
  933MOL0     C25846   2.679   0.765  10.006 -0.0311 -0.1785  1.1043
  933MOL0     C25847   2.818   0.749   9.997 -0.2544  0.2636  0.4835
  933MOL0     C25848   2.895   0.813   9.902 -0.6212 -0.3120  0.1510
  933MOL0     C25849   3.043   0.799   9.895  0.0772  0.2570  0.2567
  933MOL0     O25850   3.106   0.843   9.787  0.1220  0.6063  0.0876
  933MOL0     C25851   3.242   0.826   9.793 -0.2099 -1.0046 -0.3155
  933MOL0     C25852   3.313   0.702   9.786  0.8210 -0.8656  0.1463
  933MOL0     C25853   3.452   0.697   9.772  0.2724  0.3003 -0.1014
  933MOL0     C25854   3.527   0.809   9.748  0.6219  0.2458  0.4114
  933MOL0     O25855   3.668   0.812   9.731 -0.2195 -0.0239 -0.1334
  933MOL0     C25856   3.742   0.687   9.742  0.8254 -0.3163 -0.3272
  933MOL0     C25857   3.887   0.709   9.745  1.0049 -0.2345  0.7212
  933MOL0     C25858   3.937   0.776   9.874  0.4139  0.0725 -1.5432
  933MOL0     C25859   4.086   0.783   9.876  0.2795 -0.3746 -0.0257
  933MOL0     C25860   4.142   0.877   9.983  0.1191 -0.3103 -0.1270
  933MOL0     C25861   4.299   0.874   9.988  0.3196 -0.1186  0.2743
  933MOL0     C25862   4.352   0.975  10.088  0.5468  0.2862 -0.0355
  933MOL0     C25863   4.375   1.108  10.021  0.0265  0.4649  0.4494
  933MOL0    Cl25864   4.400   1.229  10.137 -0.3424 -0.2885 -0.3997
  933MOL0     C25865   3.469   0.928   9.759  0.8124 -0.8737  0.0891
  933MOL0     C25866   3.321   0.943   9.761 -0.9037  0.4419 -0.3332
  933MOL0     O25867   3.095   0.731   9.987  0.4104 -0.0024  1.1908
  933MOL0     C25868   2.822   0.886   9.803  0.0783  0.0472 -0.4049
  933MOL0     C25869   2.676   0.906   9.813 -0.0639  0.6803  0.6578
  933MOL0     N25870   1.822   0.708   9.899 -0.5282  0.0624 -0.3396
  933MOL0     N25871   1.758   0.628   9.974  0.3563 -0.5282  0.3768
  933MOL0     C25872   0.773   0.358  10.091  0.2724 -0.4264 -1.1695
  933MOL0     C25873   0.639   0.359  10.120 -1.0455 -0.1521  0.0330
  933MOL0     C25874   0.217   0.138  10.187  1.1711 -0.6370  0.9646
  933MOL0     C25875   0.249   0.095  10.309 -0.4283  0.4286  0.3286
  933MOL0     C25876   0.154   0.046  10.399  0.4762 -0.3896 -0.1287
  933MOL0     C25877   0.017   0.063  10.376  1.1704 -0.5348  0.5397
  933MOL0     O25878  -0.075   0.026  10.465 -0.2165 -0.2252 -0.6925
  933MOL0     C25879  -0.123  -0.107  10.465 -0.7826 -0.1958  0.8059
  933MOL0     C25880  -0.038  -0.202  10.552 -0.1122  0.3705 -0.6422
  933MOL0     C25881  -0.037  -0.163  10.705  0.3916 -0.2296 -0.8366
  933MOL0     C25882  -0.143  -0.234  10.792  0.7943  0.5085  0.0732
  933MOL0     C25883  -0.283  -0.202  10.762 -0.4860 -0.4402 -0.0460
  933MOL0     C25884  -0.403  -0.172  10.753 -0.5541 -0.5765  0.2268
  933MOL0     C25885  -0.018   0.121  10.255 -1.0805  0.0924  0.6044
  933MOL0     C25886   0.077   0.162  10.158  0.1755  0.5205 -0.5055
  933MOL0     C25887   0.026   0.222  10.029 -0.0064 -0.1212  0.7141
  933MOL0     H25888   0.549   0.058   9.988 -0.5113  0.9010  0.6772
  933MOL0     H25889   0.793   0.069   9.921  2.4675 -0.1234  2.9223
  933MOL0     H25890   1.126   0.347   9.929 -0.6093  1.5318  0.3360
  933MOL0     H25891   1.017   0.433  10.035 -0.9110  0.0657 -1.5295
  933MOL0     H25892   1.137   0.166  10.116 -2.5053 -0.2180 -1.9805
  933MOL0     H25893   1.034   0.281  10.207 -2.3328 -0.8839 -2.4000
  933MOL0     H25894   1.269   0.301  10.280 -0.4484  1.3533  1.5875
  933MOL0     H25895   1.222   0.457  10.216  0.7531  1.2827 -4.1505
  933MOL0     H25896   1.367   0.276  10.030 -1.3887 -0.7314  1.5725
  933MOL0     H25897   1.353   0.451  10.019 -0.4697  0.2522 -1.0856
  933MOL0     H25898   1.482   0.488  10.210  1.2773  0.4317  1.2498
  933MOL0     H25899   1.492   0.323  10.271 -2.8182 -0.3219 -0.1800
  933MOL0     H25900   1.604   0.252  10.068 -2.1611 -0.1582  2.1451
  933MOL0     H25901   1.607   0.413   9.998  1.2638 -1.7000 -1.5664
  933MOL0     H25902   1.825   0.329  10.109 -0.2427  0.1290  1.1110
  933MOL0     H25903   1.726   0.321  10.262 -0.2814  0.1516 -0.6592
  933MOL0     H25904   1.721   0.592  10.229  0.7095  1.1735  0.1275
  933MOL0     H25905   1.880   0.521  10.261  2.0820  0.1678 -2.2456
  933MOL0     H25906   2.052   0.615  10.112  1.0627  0.7778 -1.9630
  933MOL0     H25907   2.038   0.801   9.772 -4.3834  0.8278  0.0004
  933MOL0     H25908   1.990   0.919   9.892  3.2034  1.2236 -1.2215
  933MOL0     H25909   2.241   0.911   9.911  3.7440 -1.1175  2.5458
  933MOL0     H25910   2.181   0.842  10.051 -0.9355  1.1345  0.2047
  933MOL0     H25911   2.266   0.726   9.786 -0.0136 -1.3441 -0.5434
  933MOL0     H25912   2.224   0.612   9.926  0.8842  0.6931  0.6241
  933MOL0     H25913   2.458   0.630   9.884  1.3123  0.5322 -1.0129
  933MOL0     H25914   2.410   0.697  10.044  1.3312 -0.9456 -0.8912
  933MOL0     H25915   2.629   0.739  10.099  0.0832 -0.3805  1.1099
  933MOL0     H25916   2.861   0.715  10.090 -0.1639 -0.4161  0.2006
  933MOL0     H25917   3.254   0.611   9.779 -0.9623  0.3812 -3.4860
  933MOL0     H25918   3.487   0.594   9.765 -1.7554 -0.3927 -0.5923
  933MOL0     H25919   3.696   0.650   9.835 -0.5834  1.3814 -0.2785
  933MOL0     H25920   3.727   0.609   9.667 -1.8065 -2.6921  2.4084
  933MOL0     H25921   3.934   0.615   9.715 -4.1803 -2.5500 -1.3945
  933MOL0     H25922   3.897   0.774   9.658  2.6361 -0.7905  0.4633
  933MOL0     H25923   3.900   0.879   9.882 -0.7626 -0.2751 -2.3355
  933MOL0     H25924   3.905   0.727   9.967  3.2951  0.9037  0.0172
  933MOL0     H25925   4.124   0.818   9.779  0.0409 -1.0797 -0.3833
  933MOL0     H25926   4.125   0.682   9.887 -0.0067 -0.3640  1.2076
  933MOL0     H25927   4.107   0.851  10.083 -1.7967 -1.7084 -1.1102
  933MOL0     H25928   4.111   0.974   9.943 -0.8978 -0.6598 -0.2032
  933MOL0     H25929   4.321   0.774  10.026  2.2082  0.5679  1.1021
  933MOL0     H25930   4.347   0.892   9.892 -0.2580  0.9446  0.1732
  933MOL0     H25931   4.444   0.932  10.130 -0.7651 -2.8061 -0.1332
  933MOL0     H25932   4.284   0.982  10.173 -0.3148 -2.4405 -0.4097
  933MOL0     H25933   4.464   1.093   9.960 -0.2342  0.2651  0.1131
  933MOL0     H25934   4.286   1.125   9.960  0.9724  3.3018 -0.2798
  933MOL0     H25935   3.522   1.022   9.767  0.0742 -0.3767 -0.6782
  933MOL0     H25936   3.280   1.043   9.767 -0.1678  0.8213 -1.2943
  933MOL0     H25937   2.869   0.945   9.725 -1.8642 -0.4897 -2.0804
  933MOL0     H25938   2.624   0.952   9.730  3.3862 -0.2568 -2.2689
  933MOL0     H25939   0.836   0.442  10.119  1.0602 -1.6298  0.9103
  933MOL0     H25940   0.602   0.435  10.188  0.1151 -0.6221  1.2537
  933MOL0     H25941   0.354   0.090  10.336 -0.3493  3.1810  0.8161
  933MOL0     H25942   0.188  -0.011  10.485 -1.3166 -1.9955 -0.4178
  933MOL0     H25943  -0.116  -0.153  10.366 -1.8502 -1.4867  1.2975
  933MOL0     H25944  -0.230  -0.102  10.487 -0.6496  1.3972  1.1938
  933MOL0     H25945   0.064  -0.205  10.514  0.6282 -1.7356  1.2717
  933MOL0     H25946  -0.081  -0.303  10.546 -2.1253  1.0496  1.1288
  933MOL0     H25947  -0.057  -0.056  10.712 -3.2957 -0.6973 -1.8637
  933MOL0     H25948   0.062  -0.186  10.746 -0.0002 -0.4476  0.0072
  933MOL0     H25949  -0.130  -0.340  10.769  3.0123  1.0644 -1.6519
  933MOL0     H25950  -0.126  -0.217  10.899  0.8446  3.0033 -0.2590
  933MOL0     H25951  -0.503  -0.132  10.752 -0.6091 -0.6717  1.4274
  933MOL0     H25952  -0.121   0.139  10.227 -1.0122  0.3147  0.4956
  933MOL0     H25953   0.064   0.324  10.013 -0.4512 -0.1564 -0.7400
  933MOL0     H25954   0.057   0.171   9.937  4.0447 -0.2189  1.9507
  933MOL0     H25955  -0.083   0.225  10.018 -0.1259  0.2492  1.8979
  934MOL0     O25956   8.268   5.071   6.170  0.4409  0.1263  0.0814
  934MOL0     C25957   8.169   5.142   6.164  0.0819  0.0666 -0.2160
  934MOL0     O25958   8.169   5.272   6.112  0.0761 -0.2832 -0.5302
  934MOL0     C25959   8.275   5.314   6.033  0.4290 -0.5427 -0.2108
  934MOL0     C25960   8.408   5.319   6.066  0.5209 -0.4537  0.3534
  934MOL0     C25961   8.515   5.357   5.985  0.5875 -0.1279 -0.4268
  934MOL0     C25962   8.479   5.415   5.860  0.5978 -0.0272  0.3048
  934MOL0     O25963   8.566   5.485   5.785  0.0997 -0.4960 -0.0322
  934MOL0     C25964   8.667   5.396   5.733 -0.7071  0.0510  0.1634
  934MOL0     C25965   8.615   5.325   5.603  0.1701  0.7614  0.2659
  934MOL0     C25966   8.740   5.262   5.527 -0.1652  0.1564 -0.8323
  934MOL0     C25967   8.802   5.134   5.596  0.0602  0.2425  0.5136
  934MOL0     C25968   8.940   5.106   5.521  0.7612 -0.3394  0.4313
  934MOL0     C25969   9.011   4.991   5.587 -0.1234  0.5201 -0.0885
  934MOL0     C25970   9.157   4.975   5.545  0.0885  0.0583 -0.2936
  934MOL0     C25971   9.213   4.848   5.609 -0.2280 -0.5281  0.0429
  934MOL0     N25972   9.347   4.819   5.555  0.2812 -1.0681  0.3203
  934MOL0     C25973   9.358   4.696   5.499  0.6219  0.5662 -0.0533
  934MOL0     C25974   9.458   4.701   5.415  0.7627  0.3472  0.2767
  934MOL0     C25975   9.499   4.576   5.336 -0.3027  0.1961 -0.3008
  934MOL0     C25976   9.568   4.470   5.434  0.0779 -0.0208 -0.0059
  934MOL0     C25977   9.630   4.356   5.345 -0.6513  0.0135 -0.3329
  934MOL0     C25978   9.737   4.273   5.410 -0.0828 -0.9404 -0.1412
  934MOL0     O25979   9.863   4.353   5.434 -0.1416  0.2355 -0.0910
  934MOL0     C25980   9.961   4.323   5.522  0.2498 -0.4054 -0.4501
  934MOL0     C25981   9.957   4.234   5.628 -0.4743 -0.1560  0.0147
  934MOL0     C25982  10.065   4.219   5.713 -0.7224 -0.4782 -0.3701
  934MOL0     C25983  10.177   4.300   5.710 -0.0194  0.0996  0.2382
  934MOL0     C25984  10.295   4.303   5.800 -0.1937  0.5496  0.1449
  934MOL0     O25985  10.411   4.358   5.735  0.6850  0.1800  0.5546
  934MOL0     C25986  10.540   4.343   5.773 -0.1821 -0.4513 -0.6148
  934MOL0     C25987  10.593   4.270   5.883  0.3552 -0.2400  0.4985
  934MOL0     C25988  10.727   4.267   5.921 -0.5838 -0.4497 -0.1250
  934MOL0     C25989  10.820   4.328   5.824 -0.0764 -0.6664 -0.9379
  934MOL0     O25990  10.954   4.312   5.854  0.5725  0.0456  0.0176
  934MOL0     C25991  11.048   4.403   5.789  0.2737 -0.1118  0.1223
  934MOL0     C25992  11.187   4.371   5.832 -0.0311 -0.7540 -0.3041
  934MOL0     C25993  11.204   4.379   5.986 -0.4443  0.6621 -0.5215
  934MOL0     C25994  11.359   4.387   6.009 -0.3433 -0.2926  0.9483
  934MOL0     C25995  11.403   4.358   6.158 -0.4193  0.2784 -0.1545
  934MOL0     C25996  11.562   4.370   6.161  0.3199  0.5413 -0.0974
  934MOL0     C25997  11.606   4.303   6.290  0.1331 -0.0952 -1.1706
  934MOL0     C25998  11.758   4.260   6.300  0.5084  0.0685  0.8009
  934MOL0    Cl25999  11.804   4.159   6.156 -0.0463 -0.4824  0.1145
  934MOL0     C26000  10.766   4.397   5.709  0.2247 -0.0366 -0.2958
  934MOL0     C26001  10.631   4.414   5.688 -0.6771  0.4077 -1.3239
  934MOL0     O26002  10.290   4.239   5.901 -0.1560  0.3625  0.5538
  934MOL0     C26003  10.177   4.396   5.602 -0.1144 -0.1973  0.4801
  934MOL0     C26004  10.075   4.394   5.503  0.1242 -0.3940 -0.3064
  934MOL0     N26005   9.509   4.832   5.416  0.0586  0.9430  0.5166
  934MOL0     N26006   9.439   4.897   5.500  0.0322 -0.7150 -0.1976
  934MOL0     C26007   8.345   5.420   5.826 -0.5879  0.4338  0.9953
  934MOL0     C26008   8.245   5.373   5.908 -0.2859  0.1383  0.4404
  934MOL0     C26009   8.043   5.110   6.235  0.1202 -0.0968 -0.4904
  934MOL0     C26010   7.924   5.130   6.165  0.6551  0.4130  0.7576
  934MOL0     C26011   7.804   5.095   6.215 -0.3986 -0.1845 -0.2734
  934MOL0     C26012   7.797   5.039   6.342 -0.4948 -0.0830  0.1069
  934MOL0     O26013   7.677   5.013   6.395  0.4332 -0.0410  0.3142
  934MOL0     C26014   7.647   5.067   6.522 -0.7500  0.1676  0.1948
  934MOL0     C26015   7.515   5.010   6.575 -0.0750  0.3763 -0.4183
  934MOL0     C26016   7.532   4.863   6.619 -0.5415  0.0982  0.1954
  934MOL0     C26017   7.406   4.771   6.627 -2.2466 -0.5812  0.3981
  934MOL0     C26018   7.296   4.836   6.694 -0.3115 -0.2970 -0.3271
  934MOL0     C26019   7.208   4.882   6.759 -0.3877  0.0327  0.5582
  934MOL0     C26020   7.919   5.010   6.408  0.1277 -0.3426  0.1187
  934MOL0     C26021   8.039   5.045   6.364 -0.4178  0.3290 -0.5768
  934MOL0     C26022   8.160   5.026   6.451 -0.9856 -0.4868 -0.5384
  934MOL0     H26023   8.436   5.280   6.164  1.3553  1.0944  0.7756
  934MOL0     H26024   8.614   5.361   6.030  0.3063  0.9313  0.1501
  934MOL0     H26025   8.753   5.461   5.716  0.1225 -0.6330  1.5668
  934MOL0     H26026   8.709   5.328   5.808  0.5100 -1.0750 -1.4983
  934MOL0     H26027   8.567   5.404   5.546 -1.3082 -0.4897 -0.3080
  934MOL0     H26028   8.539   5.247   5.616 -0.0333  0.9439  0.1652
  934MOL0     H26029   8.820   5.336   5.540  0.7527 -0.9913  0.4521
  934MOL0     H26030   8.728   5.238   5.421 -1.6442  0.2394 -0.6979
  934MOL0     H26031   8.819   5.150   5.703  0.1490  2.7632  0.1859
  934MOL0     H26032   8.731   5.056   5.568 -2.0559  2.8465 -2.0945
  934MOL0     H26033   8.910   5.074   5.421  2.0245  2.9059 -1.1191
  934MOL0     H26034   9.008   5.191   5.516  0.1561  0.0993 -0.4699
  934MOL0     H26035   9.017   5.008   5.695  1.6066  1.1252 -0.2481
  934MOL0     H26036   8.958   4.900   5.559 -0.2831  0.8071 -0.7401
  934MOL0     H26037   9.216   5.062   5.573 -0.9335  0.6909 -0.0612
  934MOL0     H26038   9.167   4.962   5.437  2.5813 -0.0682 -0.0921
  934MOL0     H26039   9.222   4.878   5.714 -4.5085  2.9494 -0.2727
  934MOL0     H26040   9.145   4.764   5.594  2.7202 -2.8352 -1.4306
  934MOL0     H26041   9.286   4.616   5.514 -1.1990  2.1949  0.2433
  934MOL0     H26042   9.408   4.526   5.301 -0.1365 -0.4589  0.1891
  934MOL0     H26043   9.565   4.609   5.255 -1.0262  0.6036 -0.7397
  934MOL0     H26044   9.650   4.527   5.479  1.3134 -0.7118 -1.2983
  934MOL0     H26045   9.492   4.429   5.501  1.6691 -2.1054  0.6490
  934MOL0     H26046   9.664   4.408   5.254 -1.6201  1.9642  0.3773
  934MOL0     H26047   9.550   4.289   5.314 -0.9526  1.2287 -2.4413
  934MOL0     H26048   9.769   4.200   5.335  3.0629 -0.1646  0.3110
  934MOL0     H26049   9.690   4.233   5.501 -0.1597 -0.9818 -0.1985
  934MOL0     H26050   9.858   4.200   5.659 -0.7954  1.1374  0.4574
  934MOL0     H26051  10.059   4.144   5.792 -4.5164 -1.2661 -1.1839
  934MOL0     H26052  10.518   4.209   5.933 -1.7055  0.6766 -1.3260
  934MOL0     H26053  10.763   4.207   6.004 -0.3449  3.4053  2.8655
  934MOL0     H26054  11.041   4.388   5.681  2.6884 -0.4759 -0.0533
  934MOL0     H26055  11.018   4.505   5.816 -1.4935 -0.0004 -2.0196
  934MOL0     H26056  11.211   4.270   5.796 -4.3468 -1.6817 -1.1200
  934MOL0     H26057  11.250   4.445   5.781  2.1222 -0.4034  2.5933
  934MOL0     H26058  11.151   4.463   6.030 -3.3502 -1.6745  0.7545
  934MOL0     H26059  11.163   4.286   6.027 -2.0696  2.2466  1.6440
  934MOL0     H26060  11.402   4.480   5.971 -1.1092  0.2536  1.3868
  934MOL0     H26061  11.402   4.303   5.955 -1.5768 -0.0719 -0.4698
  934MOL0     H26062  11.363   4.257   6.172  0.9336 -0.2539 -0.0293
  934MOL0     H26063  11.367   4.433   6.230 -1.1335 -0.5477  0.3778
  934MOL0     H26064  11.607   4.314   6.078  2.8357  1.6477  0.4397
  934MOL0     H26065  11.600   4.471   6.148 -1.2977  1.2292  0.3256
  934MOL0     H26066  11.548   4.212   6.311 -1.8237  1.4930  0.8595
  934MOL0     H26067  11.586   4.370   6.375 -3.7001 -3.1841  0.6820
  934MOL0     H26068  11.824   4.346   6.287  1.3025 -0.5413  0.7216
  934MOL0     H26069  11.785   4.215   6.396  0.0554  0.9209  1.3352
  934MOL0     H26070  10.832   4.445   5.638 -2.3724  1.1560 -2.0540
  934MOL0     H26071  10.596   4.468   5.601 -0.6297  0.7164 -1.1510
  934MOL0     H26072  10.263   4.461   5.589 -0.1177 -0.4214 -0.7346
  934MOL0     H26073  10.083   4.447   5.409 -0.0687 -5.2369 -3.3799
  934MOL0     H26074   8.324   5.459   5.727  0.3096 -1.2163  0.0993
  934MOL0     H26075   8.142   5.366   5.873  0.0961 -3.5972 -0.3797
  934MOL0     H26076   7.919   5.179   6.069 -2.0973  1.4660  1.3260
  934MOL0     H26077   7.712   5.119   6.162 -0.1844 -0.7394 -0.9074
  934MOL0     H26078   7.643   5.176   6.522  2.1674  0.3552 -0.5540
  934MOL0     H26079   7.718   5.031   6.598  0.5951 -0.3533 -1.2648
  934MOL0     H26080   7.443   5.027   6.494  1.5054  0.8540 -1.7773
  934MOL0     H26081   7.483   5.064   6.664  0.8730 -0.7086  0.6128
  934MOL0     H26082   7.594   4.859   6.709  1.9935  0.1287 -1.4659
  934MOL0     H26083   7.598   4.816   6.546 -0.2804  0.9869 -0.1549
  934MOL0     H26084   7.387   4.744   6.523  0.4887 -0.3113 -0.2453
  934MOL0     H26085   7.431   4.679   6.681  0.6775 -0.3381 -0.3762
  934MOL0     H26086   7.124   4.924   6.811  0.1572  2.5108 -0.3919
  934MOL0     H26087   7.911   4.972   6.509  2.5623 -1.1613  0.0579
  934MOL0     H26088   8.172   5.108   6.523  2.2838 -1.1700 -0.1585
  934MOL0     H26089   8.151   4.929   6.501 -0.7543 -1.4836 -2.3545
  934MOL0     H26090   8.253   5.024   6.393 -0.7167 -0.5668 -0.1119
  935MOL0     O26091   1.844   1.108   7.454  0.5858 -0.2571  0.0372
  935MOL0     C26092   1.921   1.053   7.380 -0.0129  1.1804 -0.3018
  935MOL0     O26093   2.060   1.057   7.381 -0.1382 -0.0219 -0.5673
  935MOL0     C26094   2.127   1.160   7.433 -0.0193  1.1951 -0.0584
  935MOL0     C26095   2.080   1.283   7.417 -0.7990  0.1268  0.8235
  935MOL0     C26096   2.152   1.392   7.470  0.1075  0.4952  0.3197
  935MOL0     C26097   2.260   1.368   7.556 -0.6984  0.0499 -0.0437
  935MOL0     O26098   2.315   1.472   7.621  0.0129 -0.1142 -0.9447
  935MOL0     C26099   2.231   1.519   7.720  0.0729  0.6222 -0.3725
  935MOL0     C26100   2.305   1.603   7.819 -0.4733 -0.4451 -0.0578
  935MOL0     C26101   2.210   1.666   7.919  0.2399 -0.4501 -0.2957
  935MOL0     C26102   2.288   1.750   8.026 -0.1981  1.0090  0.3961
  935MOL0     C26103   2.187   1.779   8.146 -0.3932  0.4733  0.2464
  935MOL0     C26104   2.230   1.889   8.244 -0.3588 -0.9042 -0.2737
  935MOL0     C26105   2.158   1.888   8.374  0.3107  0.5204 -0.9436
  935MOL0     C26106   2.200   1.774   8.467 -0.0263 -0.7333 -0.4851
  935MOL0     N26107   2.143   1.798   8.603 -0.1284  0.1750  0.6364
  935MOL0     C26108   2.202   1.852   8.714 -0.5522 -0.1195 -0.5661
  935MOL0     C26109   2.133   1.817   8.816 -0.2480 -0.1492  0.1507
  935MOL0     C26110   2.180   1.837   8.962 -0.5061  0.1353 -0.9019
  935MOL0     C26111   2.304   1.761   9.009  0.0453 -0.9074  1.4963
  935MOL0     C26112   2.269   1.614   9.029 -0.0207 -0.3202  0.0587
  935MOL0     C26113   2.383   1.524   9.042  0.0147  0.3222 -0.6483
  935MOL0     O26114   2.436   1.520   8.911  0.4726 -0.5170  0.6028
  935MOL0     C26115   2.547   1.441   8.889 -0.1914  0.5384  0.1885
  935MOL0     C26116   2.608   1.464   8.767 -0.0858  1.1131 -0.4278
  935MOL0     C26117   2.718   1.384   8.733 -1.3088  0.0934 -0.0612
  935MOL0     C26118   2.775   1.286   8.824 -0.1926  0.0978  0.4743
  935MOL0     C26119   2.887   1.204   8.783 -0.2313  0.1982  0.0065
  935MOL0     O26120   2.923   1.098   8.865 -0.5211 -0.0849  0.0936
  935MOL0     C26121   3.042   1.033   8.845  0.3650  0.2776 -0.2650
  935MOL0     C26122   3.049   0.901   8.820  0.1091  0.8794  0.1735
  935MOL0     C26123   3.176   0.836   8.816 -0.5687  0.9129 -0.7380
  935MOL0     C26124   3.297   0.908   8.833 -0.4164 -0.4630  0.3801
  935MOL0     O26125   3.409   0.830   8.826  0.6138 -0.2044  0.4850
  935MOL0     C26126   3.532   0.897   8.868  0.0896 -0.8110 -0.2791
  935MOL0     C26127   3.646   0.795   8.901 -0.7528 -0.1111 -0.0559
  935MOL0     C26128   3.730   0.750   8.777 -0.0393  0.4808  0.6439
  935MOL0     C26129   3.822   0.852   8.714  0.2430 -1.1385 -0.1754
  935MOL0     C26130   3.933   0.806   8.614 -0.0027 -1.0653 -0.8032
  935MOL0     C26131   3.885   0.737   8.490  0.2034 -0.0726  0.2514
  935MOL0     C26132   3.794   0.823   8.396 -0.3236 -0.5215  0.3775
  935MOL0     C26133   3.698   0.746   8.305 -0.0027 -0.8125 -0.1587
  935MOL0    Cl26134   3.584   0.651   8.406 -0.1941  0.3631  0.3072
  935MOL0     C26135   3.288   1.045   8.845 -0.5661  0.0873  0.2725
  935MOL0     C26136   3.160   1.104   8.852  0.6133  0.1113 -1.0196
  935MOL0     O26137   2.944   1.241   8.682  0.0727  0.4439  0.2474
  935MOL0     C26138   2.702   1.264   8.940 -0.5710 -0.0251  0.3078
  935MOL0     C26139   2.590   1.342   8.978  0.3288  0.4922 -0.7764
  935MOL0     N26140   2.023   1.744   8.776 -0.4595 -0.4608  0.0618
  935MOL0     N26141   2.026   1.739   8.646  0.6861 -0.4095  0.1133
  935MOL0     C26142   2.311   1.238   7.575 -0.2876 -0.6717  0.4759
  935MOL0     C26143   2.247   1.131   7.506  0.0647  0.3011 -0.1461
  935MOL0     C26144   1.863   0.941   7.304  0.1559  0.5327 -0.2218
  935MOL0     C26145   1.934   0.821   7.298 -0.2347  0.1614  0.6429
  935MOL0     C26146   1.876   0.712   7.221 -0.4702 -0.3443 -0.4961
  935MOL0     C26147   1.752   0.714   7.158  0.1450 -0.4484 -0.4118
  935MOL0     O26148   1.708   0.605   7.098  0.3513  0.3115  0.1931
  935MOL0     C26149   1.646   0.633   6.966 -0.1264  0.7592  0.4313
  935MOL0     C26150   1.663   0.505   6.878 -0.2271  0.1800  0.9740
  935MOL0     C26151   1.596   0.544   6.747 -0.1851  0.0056  0.1249
  935MOL0     C26152   1.613   0.440   6.640 -0.3432 -0.4407  0.2110
  935MOL0     C26153   1.744   0.454   6.572  0.1580  0.1462 -1.0411
  935MOL0     C26154   1.845   0.465   6.516  0.2002  0.2633  1.1213
  935MOL0     C26155   1.682   0.839   7.169  1.1007 -0.3032 -0.5001
  935MOL0     C26156   1.735   0.941   7.246  0.9563 -0.4633  0.3168
  935MOL0     C26157   1.640   1.061   7.251  0.4504 -0.7199 -0.6512
  935MOL0     H26158   1.990   1.306   7.361 -0.7174 -3.2702 -0.9399
  935MOL0     H26159   2.107   1.492   7.466 -1.0136  0.1743  2.7399
  935MOL0     H26160   2.151   1.577   7.672 -0.7148 -0.7203 -0.7462
  935MOL0     H26161   2.178   1.447   7.782 -2.9767  3.1923  0.2817
  935MOL0     H26162   2.365   1.686   7.779  0.0339 -0.3758  0.8348
  935MOL0     H26163   2.381   1.539   7.864  0.5540 -0.3192 -1.5297
  935MOL0     H26164   2.148   1.592   7.970  0.0497 -0.9373 -1.2095
  935MOL0     H26165   2.149   1.739   7.866 -1.0146  0.5513  2.3624
  935MOL0     H26166   2.373   1.690   8.060 -0.9042 -0.1712  0.1129
  935MOL0     H26167   2.321   1.847   7.987 -0.9422  0.8013 -0.7993
  935MOL0     H26168   2.090   1.806   8.104 -0.0742  1.3027  0.0238
  935MOL0     H26169   2.168   1.687   8.202 -2.1506  0.0999 -0.8954
  935MOL0     H26170   2.333   1.909   8.273 -1.0858  0.1020  1.7948
  935MOL0     H26171   2.193   1.974   8.185  0.0414 -1.1688 -0.9226
  935MOL0     H26172   2.050   1.879   8.359  0.2117  1.6067 -1.0232
  935MOL0     H26173   2.163   1.991   8.413 -2.6526  1.3697 -2.5159
  935MOL0     H26174   2.172   1.679   8.422  0.2929 -0.4244 -1.3502
  935MOL0     H26175   2.308   1.782   8.481 -0.1385 -0.3393  0.2386
  935MOL0     H26176   2.295   1.906   8.728 -0.9642  0.6077 -0.5590
  935MOL0     H26177   2.202   1.944   8.975  1.1696 -0.0494 -2.0254
  935MOL0     H26178   2.091   1.808   9.019 -2.0245  0.0405 -3.2010
  935MOL0     H26179   2.386   1.764   8.937 -1.0309 -2.6454  0.1182
  935MOL0     H26180   2.342   1.807   9.100  2.6127  3.0493 -1.2757
  935MOL0     H26181   2.193   1.574   8.962 -0.0185 -1.5449  0.7594
  935MOL0     H26182   2.228   1.611   9.130  0.3839  0.1938  0.2435
  935MOL0     H26183   2.352   1.423   9.071  0.9098  0.6906  1.9038
  935MOL0     H26184   2.460   1.555   9.114 -0.9289  1.6553 -0.1716
  935MOL0     H26185   2.573   1.550   8.711 -4.1543 -0.2320 -0.2619
  935MOL0     H26186   2.762   1.400   8.636 -1.6462 -1.3135 -0.4711
  935MOL0     H26187   2.962   0.844   8.789 -0.0645 -0.1569  2.4017
  935MOL0     H26188   3.189   0.732   8.788 -0.3318  0.4531  0.9806
  935MOL0     H26189   3.568   0.960   8.786  1.3557 -1.0029  0.1036
  935MOL0     H26190   3.516   0.961   8.955 -2.3283  0.1128 -1.3072
  935MOL0     H26191   3.717   0.834   8.975 -0.5037 -0.2010 -0.2481
  935MOL0     H26192   3.602   0.704   8.943  1.9297 -1.5576 -0.1870
  935MOL0     H26193   3.795   0.667   8.808  2.3226  1.6737 -0.8610
  935MOL0     H26194   3.659   0.711   8.703 -0.2176  1.0897  0.4883
  935MOL0     H26195   3.878   0.893   8.799  0.2706 -2.0988  0.2826
  935MOL0     H26196   3.760   0.932   8.672  0.3357  0.5533  2.6341
  935MOL0     H26197   3.993   0.727   8.660 -1.8221 -1.0619  1.8256
  935MOL0     H26198   4.000   0.883   8.578  3.8767 -3.7657  0.0158
  935MOL0     H26199   3.962   0.687   8.430  1.6483  0.6932  1.4084
  935MOL0     H26200   3.822   0.656   8.528 -3.0375  1.2900 -1.7939
  935MOL0     H26201   3.854   0.886   8.330 -1.3239  0.4576  0.3583
  935MOL0     H26202   3.735   0.898   8.450 -0.7867 -0.5853 -0.0265
  935MOL0     H26203   3.638   0.822   8.255  2.8122  0.6631 -1.5565
  935MOL0     H26204   3.749   0.684   8.230 -0.6343  0.9263 -2.0994
  935MOL0     H26205   3.386   1.092   8.850  0.0937 -0.9843 -1.4758
  935MOL0     H26206   3.156   1.212   8.860 -1.3994 -0.0702  3.0039
  935MOL0     H26207   2.739   1.180   8.996  1.1740  1.7084  1.9112
  935MOL0     H26208   2.531   1.329   9.068  2.1953  0.0915  0.4428
  935MOL0     H26209   2.391   1.217   7.645  0.9388  2.6029  0.2205
  935MOL0     H26210   2.279   1.030   7.531 -2.0239  0.0063  1.6244
  935MOL0     H26211   2.026   0.803   7.352  1.8486 -0.1115 -2.7195
  935MOL0     H26212   1.945   0.629   7.224  3.3797  2.3764 -3.2245
  935MOL0     H26213   1.694   0.722   6.924  0.8896  0.3913  0.7760
  935MOL0     H26214   1.539   0.643   6.983 -0.7931 -1.2274 -2.0016
  935MOL0     H26215   1.630   0.410   6.921 -1.3498  0.0969 -0.0100
  935MOL0     H26216   1.769   0.487   6.858 -0.6565 -1.6180  0.0929
  935MOL0     H26217   1.634   0.638   6.706 -2.2491  0.4056 -1.0309
  935MOL0     H26218   1.489   0.558   6.764 -0.2145  1.5719 -1.1456
  935MOL0     H26219   1.589   0.337   6.669  1.2241 -0.9434 -0.1395
  935MOL0     H26220   1.541   0.461   6.560  1.3336  0.7443 -1.0778
  935MOL0     H26221   1.945   0.473   6.479 -0.0849 -0.9202  0.0049
  935MOL0     H26222   1.591   0.840   7.110 -0.2719 -3.4495  1.2874
  935MOL0     H26223   1.697   1.151   7.227  0.6006 -1.2576 -2.4314
  935MOL0     H26224   1.556   1.046   7.183 -0.7307 -0.9983  0.8150
  935MOL0     H26225   1.599   1.077   7.352 -0.3960 -0.1959 -1.0667
  936MOL0     O26226   8.169   0.822   8.124  1.0188  0.1731  0.4081
  936MOL0     C26227   8.095   0.776   8.036 -0.8455 -0.4292  0.0978
  936MOL0     O26228   8.146   0.728   7.917 -0.2654 -0.1179 -0.1543
  936MOL0     C26229   8.283   0.743   7.903 -0.7044 -0.2059  0.3856
  936MOL0     C26230   8.335   0.860   7.846 -0.6439  0.9287  0.4333
  936MOL0     C26231   8.472   0.871   7.826 -0.2784  0.0889 -0.2455
  936MOL0     C26232   8.567   0.781   7.861  0.1691  0.3958 -0.3802
  936MOL0     O26233   8.702   0.792   7.830 -0.3112  0.4697 -0.7193
  936MOL0     C26234   8.746   0.921   7.783  1.2402 -0.2829 -0.3313
  936MOL0     C26235   8.902   0.930   7.771  0.0609 -0.3830 -0.2051
  936MOL0     C26236   8.950   0.862   7.649  0.1768 -0.2422  0.4584
  936MOL0     C26237   9.093   0.810   7.655  0.8011  0.9710  0.2314
  936MOL0     C26238   9.197   0.919   7.629  0.1992 -0.1374 -0.2489
  936MOL0     C26239   9.341   0.864   7.638  0.3234  0.1065 -0.5242
  936MOL0     C26240   9.431   0.984   7.609 -0.5095  0.1344  0.8716
  936MOL0     C26241   9.581   0.952   7.599  0.1987  0.4977 -0.0521
  936MOL0     N26242   9.654   1.071   7.541  0.9644 -0.1930  0.1951
  936MOL0     C26243   9.685   1.072   7.405  0.3625 -0.5058  0.1618
  936MOL0     C26244   9.763   1.179   7.398 -1.1128  0.7388 -0.0008
  936MOL0     C26245   9.821   1.246   7.276 -1.1830 -0.7806 -0.6362
  936MOL0     C26246   9.825   1.402   7.290 -0.1185 -0.1869 -0.3595
  936MOL0     C26247   9.696   1.463   7.332  0.4232 -0.0231 -0.1543
  936MOL0     C26248   9.561   1.413   7.262  0.0630 -0.3126 -0.3035
  936MOL0     O26249   9.465   1.523   7.252  0.0888  0.0400 -0.3952
  936MOL0     C26250   9.356   1.500   7.174  0.0683  0.2023  0.4324
  936MOL0     C26251   9.235   1.485   7.240  0.5679 -0.0702 -0.3258
  936MOL0     C26252   9.126   1.426   7.177  0.1502  0.2690  0.8757
  936MOL0     C26253   9.124   1.403   7.036 -0.3665  0.2921 -0.4702
  936MOL0     C26254   9.009   1.352   6.981 -0.3646  0.8719  1.1773
  936MOL0     O26255   9.006   1.356   6.843  1.1902  0.9549  0.0952
  936MOL0     C26256   8.895   1.299   6.787  0.2514 -0.1201  0.8392
  936MOL0     C26257   8.800   1.391   6.755 -0.3695 -0.4112  0.0317
  936MOL0     C26258   8.685   1.349   6.698  1.2289  0.1612  0.2162
  936MOL0     C26259   8.654   1.214   6.691  0.0538 -0.1406 -0.2069
  936MOL0     O26260   8.525   1.177   6.657 -0.2286 -0.4349 -0.9256
  936MOL0     C26261   8.410   1.251   6.702 -0.2986  0.2446 -0.2073
  936MOL0     C26262   8.290   1.158   6.665 -0.4218  0.1242 -0.6097
  936MOL0     C26263   8.157   1.222   6.707  0.2191  0.0701 -0.2213
  936MOL0     C26264   8.043   1.169   6.614 -0.6939  0.2868 -0.7867
  936MOL0     C26265   7.908   1.174   6.679 -0.4096 -0.0544 -0.2185
  936MOL0     C26266   7.813   1.076   6.620  0.0957 -0.9764  0.3527
  936MOL0     C26267   7.675   1.136   6.645  0.3817  0.0771  0.3834
  936MOL0     C26268   7.557   1.060   6.586  0.4618  0.0632 -0.0348
  936MOL0    Cl26269   7.412   1.147   6.599  0.0873  0.2313 -0.1943
  936MOL0     C26270   8.759   1.126   6.713  0.8280 -0.2365  0.7513
  936MOL0     C26271   8.880   1.165   6.759 -0.4592  0.1578  0.0496
  936MOL0     O26272   8.913   1.313   7.044  0.5094  0.1548  0.1636
  936MOL0     C26273   9.242   1.432   6.968 -0.0921  0.0432 -0.5894
  936MOL0     C26274   9.356   1.480   7.037 -0.1861  0.3996  0.2520
  936MOL0     N26275   9.782   1.234   7.518 -0.5113 -0.1399 -0.8730
  936MOL0     N26276   9.724   1.168   7.605 -0.7300 -0.4229  0.6765
  936MOL0     C26277   8.515   0.662   7.917  0.3312 -0.2927  0.2839
  936MOL0     C26278   8.376   0.641   7.934 -0.1530  0.5601  0.7882
  936MOL0     C26279   7.950   0.766   8.058 -0.1774  0.6505 -0.5275
  936MOL0     C26280   7.862   0.690   7.969 -0.5699  0.2803  0.1238
  936MOL0     C26281   7.725   0.676   7.991  0.7846 -0.0609 -0.0170
  936MOL0     C26282   7.671   0.743   8.102 -1.0139 -0.2925 -0.3921
  936MOL0     O26283   7.541   0.741   8.137 -0.1222 -0.2557  0.2559
  936MOL0     C26284   7.440   0.696   8.044 -0.3172 -0.1127  0.1855
  936MOL0     C26285   7.307   0.724   8.098  0.1409  0.4289  0.1741
  936MOL0     C26286   7.196   0.696   8.005  0.5097 -0.2006  0.1505
  936MOL0     C26287   7.064   0.698   8.088 -0.3780 -0.2692 -0.2125
  936MOL0     C26288   6.965   0.625   8.009  0.1541 -0.6122  0.3304
  936MOL0     C26289   6.909   0.546   7.941  0.6179 -0.4767 -0.9402
  936MOL0     C26290   7.747   0.821   8.178  0.3152 -0.4511  0.3023
  936MOL0     C26291   7.882   0.832   8.163  0.3729 -0.3562  0.0270
  936MOL0     C26292   7.951   0.920   8.256 -0.3579 -0.7493 -0.3874
  936MOL0     H26293   8.272   0.942   7.813  3.3029  4.3222  0.4510
  936MOL0     H26294   8.493   0.967   7.781 -2.4811  2.6567  3.6544
  936MOL0     H26295   8.704   0.934   7.683 -0.0406 -2.7346 -0.1707
  936MOL0     H26296   8.717   0.999   7.853  0.3441  1.8937 -2.9299
  936MOL0     H26297   8.935   0.888   7.867 -1.5976 -1.5113 -0.0828
  936MOL0     H26298   8.930   1.036   7.767  0.0956 -0.4026 -0.4701
  936MOL0     H26299   8.936   0.929   7.564  1.6606 -1.6578 -0.9800
  936MOL0     H26300   8.893   0.769   7.640 -0.5733  0.3182 -0.7910
  936MOL0     H26301   9.112   0.760   7.750  0.4750 -0.8190 -0.6064
  936MOL0     H26302   9.106   0.722   7.592 -0.9756 -1.4155  2.9597
  936MOL0     H26303   9.168   0.964   7.533 -2.0765 -0.5017  0.1993
  936MOL0     H26304   9.186   0.996   7.705  2.6767  0.2335 -0.1803
  936MOL0     H26305   9.360   0.818   7.736 -0.1124  0.3046 -0.3462
  936MOL0     H26306   9.342   0.781   7.567 -0.3173 -0.2182 -0.1639
  936MOL0     H26307   9.423   1.065   7.682  3.0048  0.9045  0.5800
  936MOL0     H26308   9.396   1.031   7.516  0.9416 -0.9232 -0.2657
  936MOL0     H26309   9.626   0.912   7.691 -0.3379 -0.0794 -0.0360
  936MOL0     H26310   9.590   0.865   7.533 -1.0862 -0.6249  1.1723
  936MOL0     H26311   9.663   1.001   7.326  2.5954  0.6640 -1.5998
  936MOL0     H26312   9.922   1.206   7.264 -0.1106  0.9779  1.7711
  936MOL0     H26313   9.758   1.221   7.190 -2.2478  1.0977 -0.4459
  936MOL0     H26314   9.901   1.440   7.360  0.0087  2.5815 -1.8347
  936MOL0     H26315   9.849   1.449   7.194 -0.6178  2.4133  0.7055
  936MOL0     H26316   9.708   1.570   7.314  1.8676 -0.0948  0.2523
  936MOL0     H26317   9.684   1.454   7.440  0.2451  2.1281  0.0505
  936MOL0     H26318   9.523   1.331   7.323  1.0819  0.6824  1.7893
  936MOL0     H26319   9.574   1.380   7.159  1.0917 -0.1944 -0.2281
  936MOL0     H26320   9.219   1.502   7.346 -3.0594  2.7827 -1.1186
  936MOL0     H26321   9.033   1.406   7.229 -1.6164  2.0929 -1.3915
  936MOL0     H26322   8.818   1.497   6.766 -1.4318 -0.0047 -1.7313
  936MOL0     H26323   8.608   1.416   6.662  0.7139 -1.1251 -1.1636
  936MOL0     H26324   8.409   1.261   6.811 -2.2660 -2.8350  0.1794
  936MOL0     H26325   8.399   1.351   6.659 -4.7682  0.3882  0.7993
  936MOL0     H26326   8.291   1.154   6.556 -2.7962 -1.3816 -0.6448
  936MOL0     H26327   8.301   1.062   6.716  1.3396 -0.1599 -1.4576
  936MOL0     H26328   8.130   1.191   6.808 -1.2273 -1.0641 -0.9243
  936MOL0     H26329   8.160   1.331   6.710  0.7714  0.1053 -1.5207
  936MOL0     H26330   8.072   1.066   6.592 -0.3209  0.5339 -1.5174
  936MOL0     H26331   8.046   1.224   6.519 -0.2009 -0.7829 -1.4122
  936MOL0     H26332   7.859   1.270   6.660 -0.3063 -0.5213 -3.3713
  936MOL0     H26333   7.897   1.163   6.787 -1.4195 -0.5576 -0.3579
  936MOL0     H26334   7.830   1.082   6.512 -0.9465 -0.3399  0.2071
  936MOL0     H26335   7.836   0.975   6.656  1.6228  0.1632  2.8648
  936MOL0     H26336   7.680   1.231   6.592 -0.1547  0.0165  0.2194
  936MOL0     H26337   7.644   1.153   6.748  0.1291  2.1464  0.0022
  936MOL0     H26338   7.573   1.031   6.482  0.4755 -2.5560  0.6336
  936MOL0     H26339   7.540   0.968   6.642 -0.8313  0.1222 -0.3011
  936MOL0     H26340   8.730   1.022   6.702 -0.1844  0.2116 -1.3453
  936MOL0     H26341   8.970   1.104   6.769 -1.0491 -0.7259  0.0922
  936MOL0     H26342   9.263   1.413   6.863  1.1040 -0.8290 -0.2098
  936MOL0     H26343   9.452   1.490   6.988 -1.2161  2.4039 -1.5370
  936MOL0     H26344   8.574   0.579   7.953 -0.1243 -1.1066 -0.8135
  936MOL0     H26345   8.328   0.552   7.975 -1.2435 -0.7440 -2.9163
  936MOL0     H26346   7.900   0.644   7.878 -3.3346 -0.0050 -0.9822
  936MOL0     H26347   7.666   0.619   7.920  3.0292 -1.1137 -1.1557
  936MOL0     H26348   7.453   0.591   8.020 -1.5970  0.0025 -1.1704
  936MOL0     H26349   7.449   0.746   7.947 -2.4881 -1.4584 -0.7946
  936MOL0     H26350   7.294   0.827   8.131  1.5178  1.5854 -2.5947
  936MOL0     H26351   7.307   0.659   8.187  3.4663 -0.7048 -0.5125
  936MOL0     H26352   7.211   0.595   7.967  0.7700  0.6453 -2.1277
  936MOL0     H26353   7.201   0.772   7.927 -1.6775  1.6711  1.6896
  936MOL0     H26354   7.075   0.648   8.185 -0.1952  1.3576  0.6371
  936MOL0     H26355   7.034   0.797   8.124  0.4102 -0.5744  1.3779
  936MOL0     H26356   6.848   0.471   7.895 -0.7569  0.2016 -0.2711
  936MOL0     H26357   7.707   0.876   8.262  2.8048 -0.8938  1.8756
  936MOL0     H26358   8.020   0.867   8.323 -2.2766 -0.5992  1.8204
  936MOL0     H26359   8.005   0.996   8.198 -0.0438 -0.6458  0.0348
  936MOL0     H26360   7.881   0.970   8.323 -0.0258 -0.1203 -0.4948
  937MOL0     O26361   6.095   7.592   4.802  0.2006  0.3507 -0.2714
  937MOL0     C26362   6.138   7.485   4.750  0.3824  0.9207 -0.3713
  937MOL0     O26363   6.268   7.440   4.760  0.7248  0.0038  0.4179
  937MOL0     C26364   6.373   7.525   4.783  1.7913 -0.4302  1.2202
  937MOL0     C26365   6.398   7.629   4.681  0.4451 -0.0232  0.6066
  937MOL0     C26366   6.501   7.715   4.703  0.1262  0.3174 -0.1287
  937MOL0     C26367   6.591   7.696   4.809  0.3739  0.4900 -0.0729
  937MOL0     O26368   6.690   7.789   4.832 -0.5188  0.9078 -0.0982
  937MOL0     C26369   6.817   7.738   4.873  0.3523  0.6705  0.0982
  937MOL0     C26370   6.926   7.840   4.845 -0.3643  0.7677  0.4408
  937MOL0     C26371   7.051   7.801   4.925  0.0210 -0.5253 -0.3124
  937MOL0     C26372   7.173   7.900   4.897 -0.3466  0.1418  0.1652
  937MOL0     C26373   7.301   7.846   4.971  0.4193  0.4281  1.0137
  937MOL0     C26374   7.425   7.926   4.965 -0.0149 -0.5517  0.1085
  937MOL0     C26375   7.406   8.063   5.034 -0.0581  0.6314  0.1240
  937MOL0     C26376   7.426   8.063   5.188  0.5060 -0.5563  0.0511
  937MOL0     N26377   7.548   8.013   5.245  0.1781 -0.5779  1.0660
  937MOL0     C26378   7.676   8.062   5.229  0.2206  0.6736 -1.1416
  937MOL0     C26379   7.752   7.982   5.305  0.0414 -0.5719 -0.7876
  937MOL0     C26380   7.902   7.975   5.301  0.8030  0.0426  0.0448
  937MOL0     C26381   7.975   8.019   5.426  0.4171 -0.6877 -0.1663
  937MOL0     C26382   7.930   8.155   5.488 -1.0532 -0.4025  0.2278
  937MOL0     C26383   7.813   8.143   5.581  0.3277  0.0107  0.6996
  937MOL0     O26384   7.772   8.281   5.621 -0.4966  0.2669  0.0117
  937MOL0     C26385   7.680   8.294   5.718 -0.9262 -0.4274 -0.6032
  937MOL0     C26386   7.617   8.192   5.791 -0.1904  0.1906 -0.6669
  937MOL0     C26387   7.514   8.221   5.881 -0.3473  0.2083  0.1442
  937MOL0     C26388   7.487   8.355   5.911 -0.4651 -0.1842  0.3042
  937MOL0     C26389   7.372   8.395   6.007 -0.9631 -0.1583  0.0916
  937MOL0     O26390   7.382   8.509   6.072  0.2485 -0.4013  0.5154
  937MOL0     C26391   7.275   8.553   6.142 -0.8752 -1.0092  0.2655
  937MOL0     C26392   7.287   8.573   6.282  0.9145 -0.2088 -0.2325
  937MOL0     C26393   7.171   8.630   6.344 -0.0565  0.0572  0.3027
  937MOL0     C26394   7.050   8.671   6.278 -0.3974  0.7417 -0.0290
  937MOL0     O26395   6.954   8.726   6.358  0.0458 -0.6699  0.7492
  937MOL0     C26396   6.864   8.831   6.305 -0.9095 -0.3289  0.3458
  937MOL0     C26397   6.807   8.901   6.422 -0.7986 -0.3720  0.5095
  937MOL0     C26398   6.703   8.818   6.483  0.8661 -0.9444 -1.0765
  937MOL0     C26399   6.627   8.906   6.582  0.3565 -0.1800 -0.3758
  937MOL0     C26400   6.537   8.828   6.664  0.6623  0.8264 -0.6735
  937MOL0     C26401   6.494   8.904   6.791  0.6357 -0.7857  0.0261
  937MOL0     C26402   6.446   8.816   6.902 -0.6491 -0.0289  0.4518
  937MOL0     C26403   6.335   8.725   6.873  0.1502 -0.4184  0.8598
  937MOL0    Cl26404   6.194   8.826   6.810  0.4503 -0.1348 -0.4201
  937MOL0     C26405   7.052   8.658   6.141  0.4338 -0.6485  0.7889
  937MOL0     C26406   7.157   8.592   6.077  0.1769 -0.2110 -0.3972
  937MOL0     O26407   7.280   8.315   6.023 -0.5092  0.0567 -0.3493
  937MOL0     C26408   7.560   8.459   5.861  1.2331  0.2000  1.4709
  937MOL0     C26409   7.648   8.430   5.757 -0.4351  0.3410  0.5398
  937MOL0     N26410   7.667   7.890   5.371 -0.3547  0.1492  0.1867
  937MOL0     N26411   7.551   7.906   5.327  0.2370  0.0959  0.1251
  937MOL0     C26412   6.561   7.588   4.899  0.1898 -0.1918  0.4465
  937MOL0     C26413   6.456   7.505   4.884  0.8612 -0.2763  0.3782
  937MOL0     C26414   6.031   7.390   4.704  0.7001 -0.4565  0.9469
  937MOL0     C26415   6.034   7.256   4.748 -1.1471 -0.1118 -0.2980
  937MOL0     C26416   5.936   7.168   4.726  0.2343 -0.5089  0.5841
  937MOL0     C26417   5.828   7.200   4.634  0.0212 -1.6681 -0.7433
  937MOL0     O26418   5.732   7.117   4.588 -0.1746  0.8279 -0.4879
  937MOL0     C26419   5.692   7.017   4.687  1.6734  0.3681 -0.9923
  937MOL0     C26420   5.541   7.005   4.701  0.4590 -0.1958  0.6058
  937MOL0     C26421   5.484   6.936   4.575 -0.0760 -0.4560 -0.8024
  937MOL0     C26422   5.333   6.911   4.595  0.6286  0.3497 -0.6723
  937MOL0     C26423   5.285   6.834   4.711  0.3244  0.1563 -0.5102
  937MOL0     C26424   5.262   6.767   4.814 -0.7050  0.8147  0.7374
  937MOL0     C26425   5.830   7.331   4.587  0.2564  0.5898  1.0504
  937MOL0     C26426   5.920   7.429   4.625  0.6707  0.2076  0.7142
  937MOL0     C26427   5.897   7.567   4.564  0.0489  0.4520  0.1110
  937MOL0     H26428   6.327   7.636   4.600  1.0922 -0.0911  0.0224
  937MOL0     H26429   6.523   7.799   4.637  2.0632  0.0136  0.0619
  937MOL0     H26430   6.813   7.725   4.982  3.0905  1.2966  0.3353
  937MOL0     H26431   6.842   7.648   4.817  1.3666  1.9734 -1.6450
  937MOL0     H26432   6.904   7.944   4.868 -0.9130  0.9379 -0.7711
  937MOL0     H26433   6.953   7.834   4.739  2.6814 -2.0817  1.1922
  937MOL0     H26434   7.079   7.699   4.897 -3.0069 -1.1541 -1.4211
  937MOL0     H26435   7.030   7.778   5.029  3.1737 -5.1030 -0.4200
  937MOL0     H26436   7.186   7.906   4.788  1.5475 -1.9801  0.1887
  937MOL0     H26437   7.144   7.999   4.932 -1.9345 -0.4046  0.4852
  937MOL0     H26438   7.265   7.843   5.075 -0.8159  1.4074  0.6442
  937MOL0     H26439   7.322   7.740   4.952 -1.2199  0.2995 -0.3118
  937MOL0     H26440   7.506   7.867   5.009  2.0594  2.4185  0.5739
  937MOL0     H26441   7.438   7.945   4.858 -0.5139 -0.8849 -0.0151
  937MOL0     H26442   7.304   8.098   5.014 -0.0048  0.2758 -0.8107
  937MOL0     H26443   7.479   8.121   4.976 -2.0939  2.7055 -0.5450
  937MOL0     H26444   7.411   8.167   5.218 -0.0116 -0.4826 -0.4410
  937MOL0     H26445   7.341   8.007   5.229 -1.1171  0.9497 -1.0792
  937MOL0     H26446   7.707   8.155   5.182  2.8673  1.6904  2.1603
  937MOL0     H26447   7.945   7.876   5.280 -0.0767  0.0258 -1.9094
  937MOL0     H26448   7.928   8.038   5.215 -1.9918  1.8975  0.4292
  937MOL0     H26449   7.980   7.939   5.501 -1.8632 -1.4304 -0.7349
  937MOL0     H26450   8.077   8.039   5.392 -0.0479  0.9694 -0.6666
  937MOL0     H26451   7.913   8.238   5.418 -1.6361  2.1836  3.2202
  937MOL0     H26452   7.996   8.195   5.565 -2.3136  0.5308  0.8560
  937MOL0     H26453   7.827   8.077   5.668 -4.9576 -3.5460 -0.6791
  937MOL0     H26454   7.730   8.113   5.516  1.2351 -0.9493 -0.0734
  937MOL0     H26455   7.657   8.094   5.767 -0.7725  0.3808 -2.6230
  937MOL0     H26456   7.458   8.143   5.931 -0.4494 -0.3462 -0.8298
  937MOL0     H26457   7.365   8.534   6.346  2.2801  1.7828 -0.6106
  937MOL0     H26458   7.186   8.643   6.451 -0.0867  0.8485  0.2208
  937MOL0     H26459   6.937   8.891   6.251  0.2208 -3.7414 -2.3331
  937MOL0     H26460   6.796   8.787   6.231  0.2947 -0.8597 -0.4932
  937MOL0     H26461   6.888   8.915   6.494 -2.7320  1.9011  2.4254
  937MOL0     H26462   6.785   9.007   6.404 -0.4428 -0.0112  2.0200
  937MOL0     H26463   6.637   8.775   6.407 -0.7924 -0.5805  0.1089
  937MOL0     H26464   6.749   8.735   6.538  1.0575  0.6306  1.2278
  937MOL0     H26465   6.581   8.994   6.535  1.7633  1.1677  0.6661
  937MOL0     H26466   6.699   8.943   6.656 -0.4514 -0.0495  0.3539
  937MOL0     H26467   6.590   8.741   6.702 -1.9023 -0.3979  0.3421
  937MOL0     H26468   6.446   8.803   6.608  0.2053 -0.8398  0.7296
  937MOL0     H26469   6.583   8.954   6.829 -0.9553  0.0239  3.0190
  937MOL0     H26470   6.432   8.987   6.757  2.5406 -0.7136 -3.7153
  937MOL0     H26471   6.431   8.887   6.984 -1.1891 -0.2893  0.5896
  937MOL0     H26472   6.533   8.758   6.932  0.3100  1.9099  1.6342
  937MOL0     H26473   6.365   8.659   6.791  0.4930  0.9841 -0.2042
  937MOL0     H26474   6.305   8.664   6.958  0.0066 -3.7850 -1.4375
  937MOL0     H26475   6.968   8.692   6.080  1.5364  3.0256  1.0849
  937MOL0     H26476   7.154   8.591   5.968 -0.8584  0.3035 -0.3876
  937MOL0     H26477   7.529   8.556   5.899 -0.1872  0.6078 -0.5853
  937MOL0     H26478   7.683   8.518   5.704  1.8175 -0.7286  0.1424
  937MOL0     H26479   6.629   7.574   4.982 -1.0241 -2.6600  1.1157
  937MOL0     H26480   6.428   7.417   4.941  3.3707  0.3118  2.7121
  937MOL0     H26481   6.117   7.229   4.812 -2.2116  0.0644  1.2291
  937MOL0     H26482   5.937   7.064   4.757  1.2180  0.3504  3.8457
  937MOL0     H26483   5.710   7.045   4.791 -2.2000 -0.4524  0.0629
  937MOL0     H26484   5.734   6.917   4.675  1.6385  0.2409 -0.0970
  937MOL0     H26485   5.498   7.106   4.695  2.4619  0.7093  0.8570
  937MOL0     H26486   5.520   6.954   4.795  1.4688  0.7749  1.3911
  937MOL0     H26487   5.541   6.846   4.551  1.0332  0.0625 -0.1978
  937MOL0     H26488   5.504   7.000   4.489  3.7489  0.1969  0.3676
  937MOL0     H26489   5.280   7.006   4.597 -0.3595 -0.2046 -0.1320
  937MOL0     H26490   5.298   6.858   4.506  1.3243  0.3290 -0.9434
  937MOL0     H26491   5.252   6.704   4.901 -1.2994 -1.9552 -1.1897
  937MOL0     H26492   5.747   7.359   4.523  0.9437 -0.1536 -0.2025
  937MOL0     H26493   5.985   7.595   4.505  0.5763  0.9709  1.1079
  937MOL0     H26494   5.809   7.561   4.499  0.5114  1.4694 -0.6420
  937MOL0     H26495   5.879   7.646   4.638 -0.5449 -0.6722  1.2121
  938MOL0     O26496   9.203   7.207   6.380 -0.0839  0.5042  0.4306
  938MOL0     C26497   9.195   7.149   6.272  0.2477  0.0835  0.4076
  938MOL0     O26498   9.297   7.123   6.181 -0.1367 -1.2735 -0.1401
  938MOL0     C26499   9.429   7.126   6.222  0.4453  0.1799  0.0067
  938MOL0     C26500   9.518   7.093   6.119  0.2701  0.4180  0.9313
  938MOL0     C26501   9.656   7.101   6.136  0.1619  0.3826  0.2147
  938MOL0     C26502   9.709   7.119   6.259  0.1727  0.0252  0.0590
  938MOL0     O26503   9.847   7.132   6.258  0.2881 -0.4556  0.0686
  938MOL0     C26504   9.908   7.141   6.394 -0.6360 -0.0809  0.4065
  938MOL0     C26505  10.059   7.178   6.372  0.2352 -0.6306 -0.2740
  938MOL0     C26506  10.069   7.324   6.331 -0.8323  0.1991  0.3910
  938MOL0     C26507  10.196   7.358   6.245  0.0885 -1.1368 -0.4714
  938MOL0     C26508  10.334   7.316   6.301  0.0840  0.2297  0.6695
  938MOL0     C26509  10.452   7.392   6.228 -0.0832 -0.4165  0.2480
  938MOL0     C26510  10.585   7.347   6.285 -0.8109  0.0180  0.9659
  938MOL0     C26511  10.699   7.420   6.214 -1.1535  0.2694  0.3099
  938MOL0     N26512  10.826   7.354   6.255 -0.3633 -0.7302 -0.5592
  938MOL0     C26513  10.922   7.423   6.322 -0.2402 -0.2704 -0.2162
  938MOL0     C26514  11.032   7.347   6.336  1.5218  0.1948  0.1681
  938MOL0     C26515  11.151   7.409   6.390 -0.4444 -0.4439  0.3166
  938MOL0     C26516  11.275   7.376   6.304 -0.8358 -0.3994 -0.6579
  938MOL0     C26517  11.402   7.474   6.336 -0.3570 -0.0180 -0.3779
  938MOL0     C26518  11.520   7.425   6.247  0.6103 -0.4725 -0.1079
  938MOL0     O26519  11.643   7.499   6.277 -0.6466  0.0834 -0.5226
  938MOL0     C26520  11.765   7.433   6.266 -0.1911 -0.0735 -0.1282
  938MOL0     C26521  11.882   7.501   6.315 -0.7936  0.0133 -0.0461
  938MOL0     C26522  12.014   7.456   6.295 -0.1685  0.1056  0.7475
  938MOL0     C26523  12.037   7.335   6.232  0.1168  0.3635  0.4343
  938MOL0     C26524  12.174   7.298   6.192  0.0592 -0.2991 -0.0102
  938MOL0     O26525  12.251   7.405   6.159 -0.4035  0.0638 -0.2172
  938MOL0     C26526  12.377   7.377   6.109 -0.7799 -0.6761 -0.3461
  938MOL0     C26527  12.491   7.343   6.192  0.2443 -0.0216 -0.2211
  938MOL0     C26528  12.619   7.317   6.139  0.5878  0.4167  0.0649
  938MOL0     C26529  12.639   7.337   6.003  0.0174  0.1024 -0.5068
  938MOL0     O26530  12.763   7.302   5.949 -0.2692 -0.2070  0.1231
  938MOL0     C26531  12.830   7.399   5.865  0.1681  0.0541 -0.5844
  938MOL0     C26532  12.978   7.375   5.840 -0.3683  0.3138  0.0761
  938MOL0     C26533  13.064   7.339   5.968 -0.6242 -0.2903  0.8152
  938MOL0     C26534  13.209   7.342   5.925  0.1530  0.3537 -0.1336
  938MOL0     C26535  13.299   7.284   6.027  0.1166 -0.3673 -0.5034
  938MOL0     C26536  13.438   7.335   5.993  0.4591 -0.3372  0.8812
  938MOL0     C26537  13.549   7.283   6.079  0.3364 -0.5120  0.0907
  938MOL0     C26538  13.691   7.313   6.020  0.0333  0.2592  0.1107
  938MOL0    Cl26539  13.735   7.485   6.037 -0.0511 -0.0436  0.1552
  938MOL0     C26540  12.535   7.377   5.924 -0.2513 -0.2000 -0.8520
  938MOL0     C26541  12.404   7.384   5.976 -0.1012  0.0584  0.0491
  938MOL0     O26542  12.211   7.183   6.193 -0.0824 -0.1089  0.4956
  938MOL0     C26543  11.925   7.269   6.185 -0.2805 -0.3307  0.2328
  938MOL0     C26544  11.790   7.314   6.201 -0.3647 -1.3483  0.1595
  938MOL0     N26545  11.002   7.227   6.284 -0.0623 -0.0905  0.0644
  938MOL0     N26546  10.874   7.229   6.241 -0.6235 -0.5323 -0.5403
  938MOL0     C26547   9.625   7.138   6.372 -0.0145 -0.6249  0.3820
  938MOL0     C26548   9.483   7.143   6.353 -0.5107  0.2028 -0.5115
  938MOL0     C26549   9.061   7.098   6.222 -0.1259  0.7596 -0.2126
  938MOL0     C26550   9.054   7.008   6.116 -0.3622  0.1023 -0.4349
  938MOL0     C26551   8.931   6.949   6.089  0.7232 -0.1895  0.1619
  938MOL0     C26552   8.813   6.986   6.158 -0.4087  0.3360 -0.0214
  938MOL0     O26553   8.704   6.926   6.114 -0.0706  0.8496  0.0095
  938MOL0     C26554   8.578   6.961   6.166  0.1211 -0.6717 -0.5221
  938MOL0     C26555   8.487   6.886   6.069 -0.4663 -0.7028 -0.5640
  938MOL0     C26556   8.348   6.906   6.123 -0.6900 -0.4239 -0.4904
  938MOL0     C26557   8.246   6.897   6.005 -0.3841  0.5175  0.3469
  938MOL0     C26558   8.240   6.763   5.956  0.6772 -1.0643  0.6009
  938MOL0     C26559   8.221   6.648   5.912 -0.0906 -0.6541  0.0716
  938MOL0     C26560   8.821   7.075   6.256  0.2001 -0.8082 -0.0873
  938MOL0     C26561   8.939   7.130   6.290 -0.5422  0.4326  1.0342
  938MOL0     C26562   8.939   7.215   6.423  0.0965  0.4816  0.6446
  938MOL0     H26563   9.492   7.056   6.020  1.4452 -2.8094  1.7124
  938MOL0     H26564   9.719   7.088   6.049 -2.0528  3.1884 -1.9999
  938MOL0     H26565   9.865   7.213   6.464  1.8611  1.7892  0.1555
  938MOL0     H26566   9.897   7.040   6.432 -0.4746 -0.4844 -0.5752
  938MOL0     H26567  10.109   7.124   6.290  1.2851  1.3785 -1.0408
  938MOL0     H26568  10.123   7.156   6.458 -1.4767  0.8537  1.4655
  938MOL0     H26569  10.078   7.382   6.423 -1.1353 -0.6201  0.9544
  938MOL0     H26570   9.988   7.354   6.263 -0.4465  3.0052  1.0519
  938MOL0     H26571  10.177   7.309   6.149  2.1506 -1.0406 -0.9790
  938MOL0     H26572  10.190   7.465   6.223  1.2436 -1.4965 -2.7895
  938MOL0     H26573  10.335   7.344   6.407  0.7593  2.0569  0.2182
  938MOL0     H26574  10.357   7.212   6.277  2.8017  1.3278 -2.1665
  938MOL0     H26575  10.444   7.371   6.121 -3.3426 -0.7992  0.4637
  938MOL0     H26576  10.441   7.499   6.249 -0.6802 -0.1000 -1.5464
  938MOL0     H26577  10.595   7.239   6.268  0.5476 -0.3332  3.4767
  938MOL0     H26578  10.584   7.372   6.391 -1.2682  0.8901  0.7635
  938MOL0     H26579  10.688   7.410   6.106  1.0178 -1.8014  0.2008
  938MOL0     H26580  10.691   7.526   6.239  2.7933  1.0322 -1.0256
  938MOL0     H26581  10.909   7.529   6.339 -0.8867 -0.3201 -0.3614
  938MOL0     H26582  11.127   7.515   6.400 -1.4203 -0.8064  2.5100
  938MOL0     H26583  11.168   7.372   6.492 -1.9736 -2.5727 -0.1135
  938MOL0     H26584  11.308   7.273   6.321  2.1051  0.2513 -1.7176
  938MOL0     H26585  11.248   7.390   6.199 -0.6553  0.2224 -0.6279
  938MOL0     H26586  11.418   7.473   6.444 -0.8158 -1.5473 -0.3041
  938MOL0     H26587  11.374   7.574   6.301  0.4385  0.8952  1.4627
  938MOL0     H26588  11.493   7.452   6.145  0.0894  0.6220  0.2950
  938MOL0     H26589  11.531   7.317   6.253  1.7056 -0.4509 -1.2897
  938MOL0     H26590  11.858   7.594   6.366  2.1719  0.6768  0.3041
  938MOL0     H26591  12.097   7.506   6.343  1.3692 -1.8568  0.2778
  938MOL0     H26592  12.480   7.343   6.300 -1.6567  1.3961 -0.3767
  938MOL0     H26593  12.703   7.270   6.189 -1.0305 -2.4223  0.3220
  938MOL0     H26594  12.781   7.401   5.767  2.8399  0.7335 -1.9972
  938MOL0     H26595  12.818   7.495   5.915  0.3917  0.2686 -0.9422
  938MOL0     H26596  12.989   7.276   5.796 -1.5735 -1.2249  2.9010
  938MOL0     H26597  13.024   7.452   5.778  1.7788  0.2493  1.4853
  938MOL0     H26598  13.043   7.418   6.040 -1.4494  1.7789 -1.5644
  938MOL0     H26599  13.036   7.244   6.014  1.5066 -0.4778  1.8438
  938MOL0     H26600  13.231   7.444   5.892  1.0713 -0.1771 -1.2138
  938MOL0     H26601  13.216   7.282   5.834  0.4578  1.1867 -0.6748
  938MOL0     H26602  13.293   7.175   6.019 -4.1196 -0.2764 -0.7193
  938MOL0     H26603  13.282   7.319   6.130 -0.0972 -0.0513 -0.6424
  938MOL0     H26604  13.462   7.325   5.887  2.8282  2.6946  1.0089
  938MOL0     H26605  13.452   7.442   6.012  3.2847 -0.6143  0.7545
  938MOL0     H26606  13.543   7.175   6.089 -0.5796 -0.3141  2.1447
  938MOL0     H26607  13.529   7.333   6.175  1.2625  0.6758 -0.3008
  938MOL0     H26608  13.768   7.258   6.075 -1.3018 -0.2817  1.5248
  938MOL0     H26609  13.703   7.283   5.916 -1.1199  0.5126 -0.1074
  938MOL0     H26610  12.541   7.395   5.817  0.0332 -0.7222 -0.9285
  938MOL0     H26611  12.324   7.414   5.909 -0.2762 -0.3454  0.0767
  938MOL0     H26612  11.943   7.174   6.136 -1.8012 -1.7002  2.2106
  938MOL0     H26613  11.717   7.252   6.150 -1.0446 -0.4528  0.0217
  938MOL0     H26614   9.645   7.152   6.478 -3.3992 -3.1658  1.5594
  938MOL0     H26615   9.427   7.160   6.445  1.4579  1.8508  0.4707
  938MOL0     H26616   9.140   6.965   6.066 -0.0876  0.8908 -0.6705
  938MOL0     H26617   8.919   6.864   6.024 -2.1037  0.2563 -0.0416
  938MOL0     H26618   8.547   7.065   6.160 -0.9429 -1.0107 -1.1165
  938MOL0     H26619   8.572   6.928   6.270  1.9772 -3.4485 -1.1776
  938MOL0     H26620   8.515   6.781   6.056  1.5792 -0.0678 -1.7287
  938MOL0     H26621   8.508   6.936   5.974 -0.4350 -1.4944 -0.9853
  938MOL0     H26622   8.344   7.001   6.176 -1.1477 -0.7789  0.1201
  938MOL0     H26623   8.329   6.823   6.192 -1.7655  1.0185  1.0167
  938MOL0     H26624   8.150   6.939   6.035  0.8443  1.8679  2.6528
  938MOL0     H26625   8.270   6.961   5.920 -1.7265 -0.6733 -0.9774
  938MOL0     H26626   8.187   6.552   5.877 -0.0480 -0.3233 -0.8820
  938MOL0     H26627   8.728   7.100   6.308 -0.3474 -0.4102 -1.2185
  938MOL0     H26628   8.982   7.315   6.411  0.2316  0.2353 -1.1563
  938MOL0     H26629   8.838   7.226   6.462 -0.4505  2.2646 -1.1577
  938MOL0     H26630   8.985   7.154   6.501  0.0459 -0.6743 -0.2013
  939MOL0     O26631   2.179   5.532   7.792 -0.5533 -0.3752 -0.2150
  939MOL0     C26632   2.154   5.423   7.834  0.7284  1.2554 -0.5096
  939MOL0     O26633   2.242   5.342   7.905 -0.2026  0.1253 -0.1570
  939MOL0     C26634   2.367   5.395   7.935 -0.7423 -0.4568 -0.1310
  939MOL0     C26635   2.464   5.405   7.832 -0.4563  0.6456 -0.1350
  939MOL0     C26636   2.592   5.449   7.862  0.6500 -0.0616 -0.1281
  939MOL0     C26637   2.642   5.473   7.995  0.2238 -0.9757 -0.2290
  939MOL0     O26638   2.772   5.506   8.032 -0.2674 -0.2153  0.1873
  939MOL0     C26639   2.874   5.408   7.994  0.2915  0.6148 -0.3907
  939MOL0     C26640   2.998   5.487   7.956 -1.2116  0.0431  0.6363
  939MOL0     C26641   3.117   5.389   7.943 -0.5008  0.3711 -0.3628
  939MOL0     C26642   3.248   5.466   7.925 -0.4718 -0.4797  0.3352
  939MOL0     C26643   3.358   5.369   7.877 -0.5621 -0.1382 -0.5558
  939MOL0     C26644   3.498   5.422   7.901 -0.2879 -0.0711 -0.1729
  939MOL0     C26645   3.558   5.376   8.037 -0.3996 -0.3545 -0.4846
  939MOL0     C26646   3.701   5.424   8.049  0.3939 -0.0040 -0.1851
  939MOL0     N26647   3.778   5.344   8.150 -0.1621  0.3648  0.2501
  939MOL0     C26648   3.867   5.246   8.122 -0.0870  0.1435  0.0966
  939MOL0     C26649   3.896   5.199   8.243 -0.3370 -0.0359  0.8890
  939MOL0     C26650   4.003   5.097   8.272  0.1156  0.2101  0.5225
  939MOL0     C26651   4.125   5.156   8.338  0.9354  0.0864 -0.0909
  939MOL0     C26652   4.199   5.242   8.225 -0.0217 -0.5291  0.2726
  939MOL0     C26653   4.335   5.301   8.270 -0.6021 -0.2524 -0.4109
  939MOL0     O26654   4.419   5.196   8.308 -0.4141 -0.6528 -0.1348
  939MOL0     C26655   4.539   5.225   8.361  0.3877 -0.2351  0.0732
  939MOL0     C26656   4.593   5.347   8.383 -1.1193 -0.4904 -0.8780
  939MOL0     C26657   4.728   5.350   8.437 -0.0445  0.4297 -0.0137
  939MOL0     C26658   4.805   5.246   8.473  0.0775 -0.1311  0.0502
  939MOL0     C26659   4.936   5.263   8.535  0.6904  1.0065  0.7139
  939MOL0     O26660   4.967   5.386   8.588  0.4905  0.4326  0.0968
  939MOL0     C26661   5.094   5.410   8.625 -0.6515 -0.4098 -0.6898
  939MOL0     C26662   5.149   5.346   8.734  0.2118  0.7857 -0.6485
  939MOL0     C26663   5.278   5.380   8.782  0.1477  0.0886 -0.4585
  939MOL0     C26664   5.359   5.476   8.723 -0.1721  0.5661 -0.0506
  939MOL0     O26665   5.478   5.510   8.774  0.5376 -0.1916 -0.6373
  939MOL0     C26666   5.528   5.640   8.740  0.2316  0.3403  1.0825
  939MOL0     C26667   5.670   5.633   8.801 -0.1734  0.1605  0.3008
  939MOL0     C26668   5.741   5.774   8.815 -0.3800  0.0364  0.1947
  939MOL0     C26669   5.889   5.754   8.862 -0.4728 -0.7325 -0.6968
  939MOL0     C26670   5.946   5.890   8.907  0.5078 -0.2087  0.7188
  939MOL0     C26671   6.088   5.872   8.969 -0.5935 -0.1082 -0.0468
  939MOL0     C26672   6.170   5.999   8.959 -0.0014 -0.3857 -0.3770
  939MOL0     C26673   6.310   5.993   9.022  0.6199  0.1179  0.0250
  939MOL0    Cl26674   6.400   6.149   8.990  0.5737 -0.5579  0.5434
  939MOL0     C26675   5.301   5.541   8.607 -0.7687  0.9660 -0.2227
  939MOL0     C26676   5.175   5.508   8.560  0.3581 -1.3479 -0.2817
  939MOL0     O26677   5.012   5.161   8.538  0.7067  0.1105  0.7920
  939MOL0     C26678   4.742   5.122   8.460 -0.0704 -0.0154  0.2132
  939MOL0     C26679   4.612   5.113   8.405  0.1100  0.0439  0.3797
  939MOL0     N26680   3.828   5.273   8.345 -0.4254  0.2653  0.3493
  939MOL0     N26681   3.760   5.360   8.285 -0.2470  0.3980 -0.5528
  939MOL0     C26682   2.549   5.452   8.098  0.1814 -0.4882 -0.5303
  939MOL0     C26683   2.414   5.415   8.071 -0.9185  0.2319 -0.3622
  939MOL0     C26684   2.017   5.370   7.828  0.4174  0.6995  0.2988
  939MOL0     C26685   1.990   5.238   7.849 -0.2716 -0.3377  0.2433
  939MOL0     C26686   1.861   5.186   7.822  0.0684  1.0481 -0.5042
  939MOL0     C26687   1.756   5.269   7.782  0.2056  0.7049  0.1932
  939MOL0     O26688   1.624   5.218   7.750 -0.1688 -0.7355 -0.9914
  939MOL0     C26689   1.591   5.091   7.769 -0.0535 -0.3694 -0.1203
  939MOL0     C26690   1.439   5.065   7.737 -0.0133 -1.0451 -0.9084
  939MOL0     C26691   1.399   5.094   7.598 -0.2026  0.8772  0.4162
  939MOL0     C26692   1.242   5.110   7.580  0.2409  0.4952  0.0124
  939MOL0     C26693   1.163   5.010   7.656  0.2438 -0.1946 -0.1742
  939MOL0     C26694   1.089   4.926   7.699 -0.3013  0.7055  0.5334
  939MOL0     C26695   1.781   5.401   7.765 -0.8073  0.4457 -0.2531
  939MOL0     C26696   1.907   5.460   7.789  0.0488  0.1742  0.4406
  939MOL0     C26697   1.906   5.605   7.757 -0.0653  0.0161  0.0155
  939MOL0     H26698   2.438   5.371   7.732  0.1526 -1.4868  0.3772
  939MOL0     H26699   2.661   5.449   7.778 -1.8396  1.0277 -2.3196
  939MOL0     H26700   2.889   5.342   8.079  0.2333  0.3001 -0.6216
  939MOL0     H26701   2.847   5.351   7.904 -0.7568  0.4857 -0.0034
  939MOL0     H26702   3.021   5.543   8.047 -0.5152  0.2475  0.3475
  939MOL0     H26703   2.982   5.558   7.875  0.0570  0.2729  0.5533
  939MOL0     H26704   3.097   5.324   7.857  0.3979  0.4266 -0.6293
  939MOL0     H26705   3.108   5.327   8.034 -3.4718  1.5068  0.2254
  939MOL0     H26706   3.244   5.551   7.856 -2.2355 -0.4206  0.4719
  939MOL0     H26707   3.275   5.508   8.022 -0.7766 -0.5488  0.4527
  939MOL0     H26708   3.340   5.284   7.943  1.0370  0.1161  0.2503
  939MOL0     H26709   3.324   5.345   7.776 -3.7489  0.8948  0.1681
  939MOL0     H26710   3.563   5.394   7.818  0.5560  2.1065 -0.3064
  939MOL0     H26711   3.489   5.531   7.894 -4.0305 -0.1024  1.7095
  939MOL0     H26712   3.537   5.270   8.049 -3.2958  0.2153  0.3569
  939MOL0     H26713   3.508   5.421   8.123  2.6913 -0.2146  1.3712
  939MOL0     H26714   3.763   5.430   7.959  0.7252 -1.8212 -0.1012
  939MOL0     H26715   3.686   5.528   8.082 -0.5488 -0.5690  1.2683
  939MOL0     H26716   3.900   5.225   8.021  0.3370  2.5703 -0.3300
  939MOL0     H26717   3.952   5.027   8.339  0.3143  1.2265  1.7781
  939MOL0     H26718   4.039   5.046   8.182  2.6228  1.1771  0.9041
  939MOL0     H26719   4.102   5.219   8.425 -3.1140  0.1359 -0.9838
  939MOL0     H26720   4.186   5.073   8.374  0.6987  0.2134  0.6305
  939MOL0     H26721   4.131   5.322   8.194  0.2805  0.7853  2.7316
  939MOL0     H26722   4.231   5.177   8.143  0.1309  0.3337 -0.3591
  939MOL0     H26723   4.318   5.373   8.350  2.2071  1.1802 -0.9688
  939MOL0     H26724   4.383   5.349   8.184 -0.8666 -1.6111 -1.3594
  939MOL0     H26725   4.546   5.434   8.337 -1.4292 -1.1062 -1.7719
  939MOL0     H26726   4.771   5.449   8.443  1.0857 -0.0916  0.8172
  939MOL0     H26727   5.088   5.269   8.781  1.6199 -0.4790 -0.8078
  939MOL0     H26728   5.316   5.328   8.869  1.2756  3.2547  1.0927
  939MOL0     H26729   5.544   5.653   8.633 -2.0185 -0.8646  0.5355
  939MOL0     H26730   5.463   5.719   8.778 -0.9197 -2.0267  4.5547
  939MOL0     H26731   5.676   5.589   8.901  2.0723  0.7353  0.4708
  939MOL0     H26732   5.741   5.574   8.744  1.4095  0.0775  2.2450
  939MOL0     H26733   5.744   5.813   8.713 -0.1842  1.0433  0.5754
  939MOL0     H26734   5.685   5.839   8.882 -1.3869 -1.3120  0.7152
  939MOL0     H26735   5.950   5.703   8.787  0.8908 -1.3640  0.7939
  939MOL0     H26736   5.886   5.694   8.953 -1.2433  1.8505  1.1114
  939MOL0     H26737   5.877   5.937   8.978 -0.4017 -2.4897  1.4485
  939MOL0     H26738   5.943   5.946   8.814 -2.5029 -2.3006 -0.6068
  939MOL0     H26739   6.065   5.833   9.068 -4.5807  0.5904 -0.4949
  939MOL0     H26740   6.134   5.795   8.906 -1.8688 -0.3900 -0.6746
  939MOL0     H26741   6.112   6.073   9.015 -0.9660  0.6634 -2.6703
  939MOL0     H26742   6.178   6.026   8.854 -0.8673 -1.0779 -0.6259
  939MOL0     H26743   6.295   5.975   9.129 -2.7212  2.2687  0.0837
  939MOL0     H26744   6.370   5.916   8.972  0.6448  0.9047 -1.2108
  939MOL0     H26745   5.345   5.614   8.541 -2.5277  0.9028 -1.5135
  939MOL0     H26746   5.147   5.568   8.474  2.3384  0.1495  0.0541
  939MOL0     H26747   4.802   5.040   8.499  2.5345  2.2894  1.4312
  939MOL0     H26748   4.574   5.012   8.400 -1.9431  0.7175  1.2117
  939MOL0     H26749   2.596   5.451   8.196 -0.7599 -2.2897 -0.0616
  939MOL0     H26750   2.348   5.403   8.156 -0.6261  1.1151  0.0106
  939MOL0     H26751   2.065   5.167   7.884  0.2686  0.4645  0.7397
  939MOL0     H26752   1.845   5.079   7.838 -0.0779  1.1774  0.2382
  939MOL0     H26753   1.608   5.056   7.871  0.3629 -1.6139 -0.6056
  939MOL0     H26754   1.655   5.030   7.705  1.3457 -0.5309  1.3700
  939MOL0     H26755   1.380   5.124   7.808  3.0958 -0.5521  1.5131
  939MOL0     H26756   1.420   4.957   7.747 -0.9296 -0.7981  0.3815
  939MOL0     H26757   1.432   5.008   7.539  1.8879  0.9825  1.3336
  939MOL0     H26758   1.443   5.190   7.568 -0.3630  0.6901 -0.4473
  939MOL0     H26759   1.207   5.209   7.611 -0.1408  0.8970 -1.5851
  939MOL0     H26760   1.210   5.113   7.475  2.5456  2.9793 -0.7401
  939MOL0     H26761   1.025   4.855   7.747  0.3506 -0.1230  0.1937
  939MOL0     H26762   1.695   5.460   7.732 -2.5523 -2.0737 -0.5136
  939MOL0     H26763   1.971   5.662   7.824 -1.1973  0.8055  0.4796
  939MOL0     H26764   1.928   5.609   7.650 -1.4710  1.1684 -0.2728
  939MOL0     H26765   1.804   5.641   7.775 -0.8300 -1.9953 -0.0171
  940MOL0     O26766   5.017   7.857   2.214 -0.0713  0.0905 -0.2638
  940MOL0     C26767   5.070   7.769   2.287  0.8324 -0.2010  0.6651
  940MOL0     O26768   5.182   7.698   2.240  0.5232 -0.3687  0.2301
  940MOL0     C26769   5.224   7.679   2.106  0.6323  0.3513 -0.1903
  940MOL0     C26770   5.234   7.778   2.014  0.5559 -0.0270  0.6773
  940MOL0     C26771   5.260   7.741   1.880  0.9328  0.5794  0.5480
  940MOL0     C26772   5.302   7.609   1.846  0.4707 -0.2929  0.1198
  940MOL0     O26773   5.339   7.585   1.716 -0.2851 -0.2492 -0.2591
  940MOL0     C26774   5.252   7.501   1.646  0.7548  0.2346  0.4240
  940MOL0     C26775   5.286   7.482   1.505 -0.3200 -0.0664  0.8895
  940MOL0     C26776   5.428   7.429   1.485  0.0659 -0.0229  0.5613
  940MOL0     C26777   5.464   7.449   1.337 -0.2305  0.6285 -0.4547
  940MOL0     C26778   5.564   7.355   1.272 -0.4216  0.7123  0.4243
  940MOL0     C26779   5.579   7.370   1.124  0.7517  0.3906  0.0258
  940MOL0     C26780   5.710   7.309   1.068 -0.1052  0.1908 -0.1599
  940MOL0     C26781   5.693   7.162   1.036 -0.0981  0.3038  0.0845
  940MOL0     N26782   5.830   7.103   1.002  0.5801  0.4179  0.4123
  940MOL0     C26783   5.850   7.009   0.898  0.4564 -1.4013 -0.7679
  940MOL0     C26784   5.976   6.965   0.912 -0.1146  0.1117  0.6111
  940MOL0     C26785   6.056   6.876   0.826  0.3381  0.6533  1.2040
  940MOL0     C26786   5.994   6.738   0.792  0.0735  0.0831 -0.3078
  940MOL0     C26787   6.064   6.653   0.688 -0.1462  0.2519  0.6064
  940MOL0     C26788   6.217   6.631   0.718  0.6898  0.7824  0.5749
  940MOL0     O26789   6.225   6.577   0.849 -0.5339  0.4582  0.6007
  940MOL0     C26790   6.349   6.542   0.885  0.4253  0.4264 -0.5710
  940MOL0     C26791   6.370   6.528   1.019 -0.1799  0.0468 -0.4393
  940MOL0     C26792   6.498   6.506   1.074 -0.6651 -0.0377 -0.2139
  940MOL0     C26793   6.608   6.496   0.987  0.3343  0.6655 -1.0349
  940MOL0     C26794   6.747   6.467   1.030  1.1904  0.5620 -0.3320
  940MOL0     O26795   6.764   6.454   1.161 -0.2421 -0.2484 -0.1420
  940MOL0     C26796   6.890   6.436   1.216  0.1654  1.4619  0.5818
  940MOL0     C26797   6.904   6.387   1.347 -0.3859  0.2932  0.8150
  940MOL0     C26798   7.024   6.355   1.413 -0.5607 -1.3273  0.5480
  940MOL0     C26799   7.142   6.391   1.347 -0.5276  0.4144  0.5843
  940MOL0     O26800   7.260   6.350   1.409 -0.2895  0.4859 -0.4499
  940MOL0     C26801   7.378   6.321   1.335 -1.2001  0.2094  0.6651
  940MOL0     C26802   7.493   6.364   1.422 -0.0087  0.3642 -0.1509
  940MOL0     C26803   7.509   6.269   1.540 -0.5382  0.0571 -1.2805
  940MOL0     C26804   7.606   6.325   1.649 -0.5611  0.8831  0.2511
  940MOL0     C26805   7.722   6.242   1.688  0.0339  0.5790  0.2003
  940MOL0     C26806   7.839   6.322   1.762  0.1166 -0.2384 -0.1077
  940MOL0     C26807   7.967   6.237   1.764 -0.1515 -0.0941  0.5887
  940MOL0     C26808   8.077   6.293   1.852 -0.3924 -1.2255  0.1891
  940MOL0    Cl26809   8.045   6.291   2.030 -0.2467 -0.4378  0.0723
  940MOL0     C26810   7.136   6.436   1.211 -0.2947 -0.2927  0.0656
  940MOL0     C26811   7.012   6.465   1.153  0.2514 -0.2041 -0.5890
  940MOL0     O26812   6.830   6.460   0.939  0.4241 -0.5031 -0.5567
  940MOL0     C26813   6.580   6.492   0.848  0.4868 -0.2194  0.3226
  940MOL0     C26814   6.453   6.518   0.799 -1.1343  0.8014 -0.3990
  940MOL0     N26815   6.032   7.041   1.009 -0.7297 -0.3261 -0.7872
  940MOL0     N26816   5.944   7.118   1.070 -1.0598 -0.2387 -0.7755
  940MOL0     C26817   5.308   7.509   1.946  0.5184 -0.6106  0.0271
  940MOL0     C26818   5.265   7.552   2.078  0.2100  0.3113 -0.3845
  940MOL0     C26819   5.022   7.743   2.419 -0.4244 -0.1351 -0.2397
  940MOL0     C26820   5.050   7.621   2.474  0.8016  0.0031 -0.2072
  940MOL0     C26821   5.003   7.582   2.602 -0.1706 -0.5719  0.7462
  940MOL0     C26822   4.926   7.665   2.675  0.1070  1.0230 -0.0902
  940MOL0     O26823   4.879   7.603   2.786  0.5890 -0.3183 -0.1823
  940MOL0     C26824   4.777   7.666   2.870 -0.4763 -0.0093 -0.5427
  940MOL0     C26825   4.700   7.567   2.956 -0.2931 -0.5494  0.2224
  940MOL0     C26826   4.575   7.503   2.894 -0.3664  0.7581 -0.2714
  940MOL0     C26827   4.620   7.422   2.762 -0.9489  0.2042 -0.0570
  940MOL0     C26828   4.511   7.340   2.694  1.1605 -0.4030 -0.4721
  940MOL0     C26829   4.440   7.280   2.621  0.1133  0.6067 -0.0033
  940MOL0     C26830   4.893   7.792   2.625 -0.4595  0.0738  0.1086
  940MOL0     C26831   4.943   7.828   2.501 -0.4180 -0.5053 -0.2097
  940MOL0     C26832   4.927   7.968   2.458 -0.5915  0.3225 -0.1417
  940MOL0     H26833   5.214   7.880   2.044  2.3541  0.4567  0.3401
  940MOL0     H26834   5.254   7.814   1.800  0.3898 -1.1823 -1.1053
  940MOL0     H26835   5.244   7.402   1.693 -0.4012  0.2399  0.2899
  940MOL0     H26836   5.154   7.549   1.649  0.7572  0.3064 -0.5095
  940MOL0     H26837   5.269   7.577   1.452 -0.0503  0.1680  1.2189
  940MOL0     H26838   5.218   7.404   1.471 -1.0545  0.5944  0.8039
  940MOL0     H26839   5.411   7.323   1.502  2.8022 -1.1025 -2.5320
  940MOL0     H26840   5.502   7.462   1.558  0.6069 -2.9392  1.4501
  940MOL0     H26841   5.374   7.451   1.275 -0.5130  1.2515 -0.0321
  940MOL0     H26842   5.514   7.546   1.330 -0.7637  1.0355  1.0551
  940MOL0     H26843   5.659   7.388   1.315 -0.7500  1.8348  0.3148
  940MOL0     H26844   5.549   7.254   1.312 -0.8134  1.1016  1.2852
  940MOL0     H26845   5.498   7.321   1.068 -0.9379  1.2152  1.6599
  940MOL0     H26846   5.581   7.477   1.101  1.9370  0.4441  0.2764
  940MOL0     H26847   5.798   7.332   1.128 -0.3382  1.4170 -0.2691
  940MOL0     H26848   5.731   7.343   0.966 -0.2784 -1.7936 -0.9105
  940MOL0     H26849   5.642   7.113   1.120  0.4231  1.1149  0.8965
  940MOL0     H26850   5.624   7.162   0.952 -2.9475  1.1433  2.2803
  940MOL0     H26851   5.769   6.973   0.836 -0.8524 -1.2147  0.7641
  940MOL0     H26852   6.086   6.920   0.731  2.9325  0.1501  1.7372
  940MOL0     H26853   6.143   6.850   0.886  0.5785  0.2375  0.6823
  940MOL0     H26854   6.000   6.681   0.885  1.9757  1.5284  0.5360
  940MOL0     H26855   5.893   6.753   0.753  0.2539  0.4726 -0.6356
  940MOL0     H26856   6.052   6.705   0.592 -0.9948 -1.0527 -0.0276
  940MOL0     H26857   6.007   6.560   0.681 -0.6902  0.6482 -0.4556
  940MOL0     H26858   6.267   6.728   0.708  2.2891  0.1633  2.0638
  940MOL0     H26859   6.246   6.570   0.632  1.2568  1.8850 -0.0382
  940MOL0     H26860   6.287   6.535   1.088  0.9788 -0.9316  1.1482
  940MOL0     H26861   6.505   6.481   1.179  0.2432  2.6242  0.4434
  940MOL0     H26862   6.814   6.374   1.406 -1.9577  2.9661 -0.7949
  940MOL0     H26863   7.041   6.304   1.507 -2.6812 -1.0120  1.1321
  940MOL0     H26864   7.389   6.221   1.294  7.2709  0.0082  1.6803
  940MOL0     H26865   7.385   6.378   1.242 -0.2060 -1.2213 -0.1623
  940MOL0     H26866   7.579   6.358   1.355 -1.2190 -2.6802 -1.6736
  940MOL0     H26867   7.475   6.467   1.454 -0.6017  1.0806 -2.5893
  940MOL0     H26868   7.413   6.271   1.593 -1.0820 -0.1928 -2.2262
  940MOL0     H26869   7.535   6.168   1.507  0.0208 -0.5685  0.9048
  940MOL0     H26870   7.544   6.342   1.737 -0.3431  0.0329  0.5853
  940MOL0     H26871   7.650   6.419   1.615  1.3135 -0.8549 -2.5605
  940MOL0     H26872   7.767   6.203   1.596 -1.0972 -1.7416  0.5566
  940MOL0     H26873   7.701   6.153   1.749  1.4959 -0.7774 -1.1623
  940MOL0     H26874   7.861   6.422   1.723  1.6182  1.1545  3.7918
  940MOL0     H26875   7.814   6.353   1.865  1.4866 -2.6372  1.0302
  940MOL0     H26876   8.005   6.251   1.662  0.7399  2.3038  1.1734
  940MOL0     H26877   7.952   6.129   1.773  0.2213 -0.3351 -1.2746
  940MOL0     H26878   8.173   6.254   1.817  0.2489  1.8286 -1.8024
  940MOL0     H26879   8.081   6.397   1.820  1.1315 -2.1025 -2.8118
  940MOL0     H26880   7.219   6.458   1.145  1.3283  1.3889  2.4734
  940MOL0     H26881   7.024   6.519   1.059  0.4328  0.3808 -0.2344
  940MOL0     H26882   6.652   6.454   0.777  1.5860 -0.8758  1.7332
  940MOL0     H26883   6.447   6.506   0.691 -0.5966  2.6219 -0.6735
  940MOL0     H26884   5.347   7.410   1.928  1.4706 -0.2514  0.0303
  940MOL0     H26885   5.280   7.481   2.159  0.2356 -1.3870 -1.8146
  940MOL0     H26886   5.097   7.540   2.419 -0.6092  0.6706 -2.5782
  940MOL0     H26887   5.029   7.485   2.641  2.7142 -0.6659 -1.1336
  940MOL0     H26888   4.698   7.713   2.810 -0.6022  1.6003  0.8077
  940MOL0     H26889   4.820   7.745   2.932 -0.0054  0.6312 -1.6612
  940MOL0     H26890   4.680   7.626   3.046  1.3283 -0.4220  0.5132
  940MOL0     H26891   4.767   7.491   2.996  0.5236  0.7423  1.4169
  940MOL0     H26892   4.510   7.585   2.864  0.8010  1.5813 -0.6268
  940MOL0     H26893   4.539   7.437   2.973  1.5455 -1.0465 -0.7906
  940MOL0     H26894   4.673   7.492   2.698 -0.1606  0.2918  0.6726
  940MOL0     H26895   4.696   7.349   2.793 -0.7281 -0.3047 -1.6946
  940MOL0     H26896   4.373   7.234   2.552  1.7232 -0.3721 -0.9753
  940MOL0     H26897   4.827   7.854   2.685 -0.2643  2.0569 -1.6199
  940MOL0     H26898   4.841   7.982   2.391  2.1167  0.8007 -3.8149
  940MOL0     H26899   4.924   8.029   2.548 -4.0106 -0.0759  0.1559
  940MOL0     H26900   5.013   8.008   2.404 -1.1059  3.4456  1.1373
  941MOL0     O26901   0.336   7.553   0.046  0.1862  0.0595  0.5860
  941MOL0     C26902   0.322   7.459   0.123 -0.1546  0.2600  0.5652
  941MOL0     O26903   0.210   7.432   0.203  0.2506 -0.8779  0.6007
  941MOL0     C26904   0.101   7.513   0.174 -0.4689  0.0535  0.8591
  941MOL0     C26905   0.061   7.614   0.264 -0.1549 -0.1494  0.3080
  941MOL0     C26906  -0.048   7.700   0.219  0.5377 -0.6653 -0.5684
  941MOL0     C26907  -0.110   7.688   0.091  0.4563  0.0555 -0.6253
  941MOL0     O26908  -0.217   7.768   0.061 -0.4218 -0.0479  0.3428
  941MOL0     C26909  -0.253   7.794  -0.077  0.1716 -0.3864 -0.4051
  941MOL0     C26910  -0.387   7.870  -0.087 -0.4594 -0.7507 -0.5572
  941MOL0     C26911  -0.391   8.008  -0.012 -0.0900  0.0575 -0.7680
  941MOL0     C26912  -0.516   8.083  -0.035  0.8562  0.3476 -0.2808
  941MOL0     C26913  -0.528   8.220   0.029 -0.4288 -0.4925 -0.1042
  941MOL0     C26914  -0.497   8.236   0.179  0.0198  0.4125 -0.1474
  941MOL0     C26915  -0.535   8.374   0.224  0.5420  0.2750  0.0206
  941MOL0     C26916  -0.474   8.412   0.366  0.0931  0.0409  0.7820
  941MOL0     N26917  -0.333   8.372   0.388 -0.2325 -0.2728 -0.2732
  941MOL0     C26918  -0.279   8.303   0.497  0.2095 -0.1371 -0.0350
  941MOL0     C26919  -0.147   8.300   0.476  0.2592  0.4595  0.5720
  941MOL0     C26920  -0.050   8.216   0.556  0.0803  0.4969 -0.3492
  941MOL0     C26921   0.089   8.278   0.550  0.3290 -0.1087 -0.5014
  941MOL0     C26922   0.167   8.224   0.666 -0.2335  0.1113 -0.3583
  941MOL0     C26923   0.312   8.275   0.659 -0.3065  0.1950 -0.4940
  941MOL0     O26924   0.399   8.177   0.588 -0.1563 -0.4395  0.4482
  941MOL0     C26925   0.529   8.199   0.598 -0.3515  0.0824 -0.1262
  941MOL0     C26926   0.590   8.314   0.646  0.8054 -0.1846  0.9540
  941MOL0     C26927   0.731   8.326   0.656  0.0792 -1.0256 -0.7452
  941MOL0     C26928   0.815   8.220   0.610 -0.2490  0.2331  0.0333
  941MOL0     C26929   0.964   8.228   0.627  0.5535 -0.7363  0.6165
  941MOL0     O26930   1.044   8.179   0.530  0.6644 -0.1464 -0.1834
  941MOL0     C26931   1.177   8.176   0.538 -0.5576 -0.5209  0.1980
  941MOL0     C26932   1.245   8.288   0.561 -0.5538  0.0110 -0.3013
  941MOL0     C26933   1.382   8.297   0.547  0.1502 -0.0257  0.3700
  941MOL0     C26934   1.454   8.184   0.508 -0.7714  0.6743 -0.2499
  941MOL0     O26935   1.589   8.209   0.492  0.7108 -0.0979  0.2268
  941MOL0     C26936   1.673   8.104   0.534  1.1302  0.6153  0.8893
  941MOL0     C26937   1.808   8.138   0.512 -0.2595 -0.5293  0.2968
  941MOL0     C26938   1.839   8.142   0.364  0.3784 -0.0712 -0.1165
  941MOL0     C26939   1.968   8.216   0.344 -0.9417 -0.2020  0.4696
  941MOL0     C26940   2.089   8.143   0.390 -0.2541 -0.2129  0.6323
  941MOL0     C26941   2.216   8.228   0.348  0.3144  0.2439  0.3304
  941MOL0     C26942   2.275   8.182   0.211 -0.0168  0.0886  1.0495
  941MOL0     C26943   2.391   8.268   0.165 -0.4354  0.1515  0.7321
  941MOL0    Cl26944   2.420   8.255  -0.011  0.1541 -0.2584 -0.2820
  941MOL0     C26945   1.390   8.071   0.478  0.7320  0.1149 -0.1529
  941MOL0     C26946   1.250   8.062   0.501  0.7261 -0.0838  0.2563
  941MOL0     O26947   0.998   8.292   0.731 -1.2399  0.0238 -0.0800
  941MOL0     C26948   0.756   8.105   0.567 -0.0727  0.3940  0.1221
  941MOL0     C26949   0.614   8.091   0.566  0.3742 -0.3595  0.0631
  941MOL0     N26950  -0.121   8.383   0.360  0.3469  0.7422 -0.3360
  941MOL0     N26951  -0.231   8.419   0.310 -0.7958  0.1013  0.7263
  941MOL0     C26952  -0.061   7.595  -0.001  0.1816 -0.8225  0.9232
  941MOL0     C26953   0.042   7.508   0.041  0.1940  0.3459 -0.4738
  941MOL0     C26954   0.438   7.350   0.124 -0.1752 -0.7527 -0.1108
  941MOL0     C26955   0.401   7.222   0.171 -0.8651 -0.5820  0.3506
  941MOL0     C26956   0.502   7.123   0.186  0.1947  0.2100  0.6260
  941MOL0     C26957   0.633   7.148   0.149  0.8401  0.6211 -1.1557
  941MOL0     O26958   0.726   7.047   0.142 -0.5378 -0.8966  0.5471
  941MOL0     C26959   0.707   6.917   0.213  0.5748 -0.4697  0.0509
  941MOL0     C26960   0.820   6.820   0.164 -0.2239 -1.1109 -0.3429
  941MOL0     C26961   0.952   6.852   0.234 -0.1979 -0.5723  0.6715
  941MOL0     C26962   1.059   6.764   0.164 -0.0935  0.7307 -0.4444
  941MOL0     C26963   1.192   6.799   0.198 -0.1482  0.6938 -0.3309
  941MOL0     C26964   1.306   6.848   0.226 -0.2869  0.5476 -0.7512
  941MOL0     C26965   0.670   7.271   0.094 -0.5002 -0.5025  0.5974
  941MOL0     C26966   0.572   7.372   0.073  1.0051  0.7500 -0.8832
  941MOL0     C26967   0.615   7.511   0.010 -0.3263 -0.0873  0.1391
  941MOL0     H26968   0.113   7.630   0.358  0.5865 -0.9780  0.0597
  941MOL0     H26969  -0.094   7.771   0.286  0.2514  0.2450 -1.6955
  941MOL0     H26970  -0.181   7.857  -0.128  1.7022 -1.2083  0.6711
  941MOL0     H26971  -0.254   7.703  -0.138  0.9635 -0.3305 -0.5022
  941MOL0     H26972  -0.466   7.811  -0.040  0.2000 -0.9004  0.3893
  941MOL0     H26973  -0.414   7.884  -0.192 -1.5568  0.0604 -0.1928
  941MOL0     H26974  -0.307   8.071  -0.042 -0.0978  1.0737  1.2433
  941MOL0     H26975  -0.383   7.994   0.096  0.6040  3.3279 -0.3070
  941MOL0     H26976  -0.537   8.103  -0.140 -3.4626  2.7529  0.7910
  941MOL0     H26977  -0.598   8.019  -0.002  1.5186  0.5116  1.8786
  941MOL0     H26978  -0.460   8.283  -0.029 -0.0372 -0.4795  0.3646
  941MOL0     H26979  -0.626   8.266   0.011 -1.0370 -1.4365  0.6674
  941MOL0     H26980  -0.563   8.165   0.229  0.2275 -1.1226 -1.9595
  941MOL0     H26981  -0.395   8.205   0.205  0.0056  1.3584  1.1155
  941MOL0     H26982  -0.645   8.380   0.228  0.2725 -0.7275 -3.3587
  941MOL0     H26983  -0.498   8.448   0.153  0.0327  0.4119 -0.1070
  941MOL0     H26984  -0.481   8.521   0.376 -1.1057  0.1562 -0.9596
  941MOL0     H26985  -0.536   8.364   0.442 -2.2847  0.6605 -0.6753
  941MOL0     H26986  -0.332   8.259   0.581  0.5506 -0.6237 -0.0708
  941MOL0     H26987  -0.088   8.233   0.657  0.7373  0.5282 -0.1012
  941MOL0     H26988  -0.064   8.110   0.533 -1.7249  0.5475  0.4173
  941MOL0     H26989   0.132   8.235   0.459  1.2243 -0.8452  0.2512
  941MOL0     H26990   0.087   8.387   0.561  3.2685 -0.1415  1.6034
  941MOL0     H26991   0.171   8.116   0.657 -0.3677  0.2198 -2.0727
  941MOL0     H26992   0.121   8.248   0.763  1.8814  1.3369  0.4163
  941MOL0     H26993   0.351   8.279   0.761 -0.3139 -0.1898 -0.4757
  941MOL0     H26994   0.310   8.372   0.609  2.1470  0.0494 -1.0206
  941MOL0     H26995   0.538   8.406   0.670 -0.1414 -0.0917 -1.1929
  941MOL0     H26996   0.761   8.421   0.697 -2.9928  0.5433 -1.8390
  941MOL0     H26997   1.200   8.384   0.587 -0.0169  0.4729 -1.0271
  941MOL0     H26998   1.434   8.392   0.554  2.4399 -1.0674 -1.4642
  941MOL0     H26999   1.652   8.072   0.636  3.3635  1.4317  1.6627
  941MOL0     H27000   1.647   8.015   0.475 -1.1507  2.1166 -0.5042
  941MOL0     H27001   1.831   8.235   0.559 -1.9368  0.1603 -0.2310
  941MOL0     H27002   1.872   8.059   0.551  2.4308  0.6764 -1.3662
  941MOL0     H27003   1.856   8.044   0.321  2.3150 -0.1012  0.6390
  941MOL0     H27004   1.753   8.195   0.321 -0.3160  1.9625  3.4023
  941MOL0     H27005   1.970   8.314   0.392  2.7483  0.3181 -0.4313
  941MOL0     H27006   1.974   8.240   0.238 -1.7550  0.1613  0.5061
  941MOL0     H27007   2.087   8.045   0.340  1.7806 -0.6498  1.2976
  941MOL0     H27008   2.087   8.121   0.497  4.0515 -0.7264  0.7812
  941MOL0     H27009   2.181   8.331   0.336 -1.4496 -0.4368 -0.7114
  941MOL0     H27010   2.296   8.235   0.423 -1.1317  3.1127  1.8014
  941MOL0     H27011   2.201   8.206   0.135 -0.5034  0.0480  1.5035
  941MOL0     H27012   2.304   8.077   0.203 -2.3913 -0.4433 -2.5703
  941MOL0     H27013   2.383   8.375   0.188 -0.7304  1.5801 -4.6763
  941MOL0     H27014   2.476   8.230   0.222  1.3564 -0.8146 -2.3872
  941MOL0     H27015   1.437   7.988   0.428 -0.4842  0.0405 -1.2171
  941MOL0     H27016   1.198   7.972   0.473 -0.5077 -0.0995  2.4159
  941MOL0     H27017   0.815   8.022   0.530  0.3553  0.9021 -0.3434
  941MOL0     H27018   0.567   8.001   0.526  0.9398  0.0201 -1.5390
  941MOL0     H27019  -0.088   7.589  -0.106  5.0925 -2.1117 -0.5499
  941MOL0     H27020   0.079   7.440  -0.034  1.3344  2.1342 -1.5981
  941MOL0     H27021   0.299   7.207   0.204 -0.9670 -0.1630  0.2323
  941MOL0     H27022   0.468   7.029   0.227  2.3293 -0.4988  0.9054
  941MOL0     H27023   0.609   6.875   0.186 -0.0347  2.8375 -3.9191
  941MOL0     H27024   0.722   6.934   0.320  3.0194  2.8384 -0.6570
  941MOL0     H27025   0.843   6.822   0.057  1.7244  0.0411  0.0382
  941MOL0     H27026   0.787   6.722   0.198  2.2570 -1.3631  1.6849
  941MOL0     H27027   0.949   6.811   0.335  1.7455  2.6262  2.1857
  941MOL0     H27028   0.981   6.957   0.221  2.7210 -1.0819  2.2652
  941MOL0     H27029   1.035   6.662   0.197  0.2892  1.1693  1.2731
  941MOL0     H27030   1.048   6.767   0.055 -1.3769 -0.8354 -0.4010
  941MOL0     H27031   1.407   6.882   0.241  0.2962 -0.4361 -2.2258
  941MOL0     H27032   0.772   7.279   0.059 -0.1161 -1.4267  1.4376
  941MOL0     H27033   0.712   7.496  -0.038 -0.0294 -0.4138  0.8356
  941MOL0     H27034   0.552   7.549  -0.071  1.1951 -0.9736 -1.5249
  941MOL0     H27035   0.630   7.593   0.081 -0.2220 -0.1077  0.1413
  942MOL0     O27036   6.898   6.560   9.839 -0.5875 -0.1507  0.2919
  942MOL0     C27037   6.824   6.572   9.932 -0.0866  0.2785 -0.3025
  942MOL0     O27038   6.852   6.632  10.049 -0.0511 -0.2781  0.4512
  942MOL0     C27039   6.948   6.727  10.056 -0.8145 -0.1638 -0.4279
  942MOL0     C27040   7.085   6.710  10.018 -0.0029  0.1493 -0.6025
  942MOL0     C27041   7.183   6.811  10.050  0.1535  0.1594  0.2980
  942MOL0     C27042   7.147   6.925  10.110 -0.7837 -0.6198  0.2119
  942MOL0     O27043   7.238   7.027  10.125 -0.6601 -0.3328  0.2930
  942MOL0     C27044   7.297   7.045  10.256 -0.1146 -0.1379 -0.0712
  942MOL0     C27045   7.444   6.983  10.264 -0.0924 -0.5025 -0.2750
  942MOL0     C27046   7.529   7.039  10.165 -0.4702 -0.2895 -0.5204
  942MOL0     C27047   7.670   6.994  10.186 -0.7058  1.0007  0.3357
  942MOL0     C27048   7.759   7.032  10.073 -0.1017  0.0842 -0.5479
  942MOL0     C27049   7.752   7.178  10.020 -0.1944 -0.4609  0.0360
  942MOL0     C27050   7.878   7.218   9.948 -0.5320  0.0335  0.5332
  942MOL0     C27051   7.878   7.378   9.919  0.2029  0.2380 -0.1233
  942MOL0     N27052   8.014   7.413   9.875  0.2391  0.8155 -0.3076
  942MOL0     C27053   8.049   7.426   9.746 -0.6109  0.8115 -0.0240
  942MOL0     C27054   8.185   7.462   9.747  0.0876  0.3305 -0.4829
  942MOL0     C27055   8.274   7.475   9.622 -0.2012 -0.8580 -0.6979
  942MOL0     C27056   8.391   7.571   9.653 -0.2592  0.3732  1.1662
  942MOL0     C27057   8.471   7.592   9.522 -0.1120  0.0257  0.2892
  942MOL0     C27058   8.603   7.662   9.546 -0.7453 -0.6642 -0.5297
  942MOL0     O27059   8.691   7.580   9.624  0.3248  0.4273  0.7440
  942MOL0     C27060   8.807   7.636   9.677 -0.2002  0.1055  0.1403
  942MOL0     C27061   8.856   7.764   9.644 -0.3184  0.4961 -0.2180
  942MOL0     C27062   8.972   7.806   9.708  0.8018  0.2529  0.2532
  942MOL0     C27063   9.045   7.720   9.790 -0.0403  1.7677 -0.1724
  942MOL0     C27064   9.182   7.771   9.843  0.3347 -0.5256  0.6474
  942MOL0     O27065   9.269   7.676   9.844  0.5463 -0.1263  0.1327
  942MOL0     C27066   9.398   7.699   9.878 -0.1088 -0.3326  0.2234
  942MOL0     C27067   9.503   7.654   9.800  1.0541  0.5399 -0.6272
  942MOL0     C27068   9.635   7.689   9.820  0.4205 -0.3748 -0.5051
  942MOL0     C27069   9.671   7.771   9.929 -0.4272 -0.7704 -0.3815
  942MOL0     O27070   9.788   7.840   9.939 -0.4490  0.0426  0.4208
  942MOL0     C27071   9.866   7.854   9.816 -0.0368 -0.5106 -0.3545
  942MOL0     C27072   9.957   7.972   9.847  0.3195  1.1065 -0.2131
  942MOL0     C27073  10.060   8.005   9.743 -0.8609 -0.1916 -0.1609
  942MOL0     C27074  10.172   8.100   9.813  0.8720 -0.3462 -0.0121
  942MOL0     C27075  10.281   8.142   9.715 -0.4143  0.5146 -0.1940
  942MOL0     C27076  10.358   8.269   9.731 -0.2639  0.1233  0.4963
  942MOL0     C27077  10.467   8.279   9.623  0.3285 -0.0752 -0.0522
  942MOL0     C27078  10.587   8.194   9.657  0.1704 -0.9563 -0.0893
  942MOL0    Cl27079  10.655   8.146   9.494 -0.6119 -0.0099 -0.3976
  942MOL0     C27080   9.574   7.812  10.017  0.9221  0.1119  0.0924
  942MOL0     C27081   9.444   7.771   9.993 -0.4004  0.0700  0.1275
  942MOL0     O27082   9.189   7.891   9.881  0.4556  0.2363  0.0168
  942MOL0     C27083   9.006   7.582   9.791  0.1766 -0.5504 -0.1017
  942MOL0     C27084   8.876   7.546   9.749 -0.8969  0.5506 -0.5747
  942MOL0     N27085   8.223   7.490   9.882  1.0484 -0.3863  0.0583
  942MOL0     N27086   8.120   7.442   9.956  0.5080  0.2020 -0.0314
  942MOL0     C27087   7.017   6.950  10.138 -0.2664  0.0144 -0.2060
  942MOL0     C27088   6.912   6.851  10.107 -0.8829 -0.6756  0.0676
  942MOL0     C27089   6.684   6.517   9.935  0.2002 -0.5674  1.1048
  942MOL0     C27090   6.604   6.547  10.045  0.6468  0.1737  0.8228
  942MOL0     C27091   6.475   6.488  10.058 -0.8597 -0.6328  0.1820
  942MOL0     C27092   6.416   6.416   9.955  1.0551 -0.0273 -0.0128
  942MOL0     O27093   6.286   6.373   9.978  0.1298 -0.3382  0.6361
  942MOL0     C27094   6.215   6.310   9.873 -0.4392  0.0396 -0.4743
  942MOL0     C27095   6.062   6.278   9.911 -0.8113  0.1867 -0.2536
  942MOL0     C27096   6.001   6.209   9.798 -0.7335 -0.4587  0.9208
  942MOL0     C27097   5.847   6.167   9.827  0.1541 -0.0534  0.3406
  942MOL0     C27098   5.765   6.278   9.869  0.0067 -0.4366 -0.2428
  942MOL0     C27099   5.694   6.367   9.909 -0.4632  0.7280 -0.2753
  942MOL0     C27100   6.493   6.397   9.837  0.1644 -0.4734  0.2672
  942MOL0     C27101   6.622   6.447   9.825 -0.2998 -0.4055  0.2528
  942MOL0     C27102   6.687   6.424   9.688  0.4855  0.3122 -0.0067
  942MOL0     H27103   7.121   6.617   9.975  0.9804 -0.6672  1.7795
  942MOL0     H27104   7.287   6.803  10.023 -0.5007  0.9612 -2.8496
  942MOL0     H27105   7.301   7.153  10.272  0.1065 -0.1282 -0.2019
  942MOL0     H27106   7.220   7.015  10.329  0.8080  2.6738  2.2529
  942MOL0     H27107   7.448   6.874  10.255  4.5109 -0.6397  0.9078
  942MOL0     H27108   7.475   6.999  10.368 -0.4872  0.0794 -0.2402
  942MOL0     H27109   7.527   7.148  10.168  0.4621 -0.2701 -0.3787
  942MOL0     H27110   7.491   7.002  10.069 -0.4709 -0.0817 -0.6004
  942MOL0     H27111   7.723   7.006  10.281  3.7151  2.1280 -1.9932
  942MOL0     H27112   7.666   6.885  10.178  0.4948  1.0128 -0.8863
  942MOL0     H27113   7.858   7.004  10.108 -0.8888 -1.4542  0.5183
  942MOL0     H27114   7.739   6.963   9.990  1.0230  0.5713 -1.2517
  942MOL0     H27115   7.660   7.187   9.963  0.1663 -0.0780 -0.4972
  942MOL0     H27116   7.754   7.246  10.106  1.1210 -1.4503  0.8377
  942MOL0     H27117   7.887   7.160   9.855 -0.7655  0.1863  0.4150
  942MOL0     H27118   7.966   7.190  10.007 -1.8853 -0.8678  2.2104
  942MOL0     H27119   7.810   7.407   9.839  0.6566 -0.2903 -0.7107
  942MOL0     H27120   7.854   7.431  10.012  1.8303 -1.7708  1.5506
  942MOL0     H27121   7.990   7.409   9.657 -1.9440 -0.6355  1.0868
  942MOL0     H27122   8.312   7.374   9.603  0.0002 -0.7005 -1.1271
  942MOL0     H27123   8.222   7.519   9.536 -1.6585  1.7523  1.3768
  942MOL0     H27124   8.358   7.671   9.685 -2.3358  0.7066 -1.6448
  942MOL0     H27125   8.462   7.531   9.726 -0.1863  1.3727  1.6605
  942MOL0     H27126   8.412   7.642   9.445 -1.1475 -3.4574 -1.3730
  942MOL0     H27127   8.505   7.494   9.488 -1.0458  0.4477 -2.0175
  942MOL0     H27128   8.590   7.757   9.600  2.0659  0.5593 -1.7774
  942MOL0     H27129   8.651   7.691   9.452  0.8926 -0.1176  0.4438
  942MOL0     H27130   8.818   7.835   9.573 -0.4772 -0.2672 -0.9134
  942MOL0     H27131   8.994   7.912   9.697  0.6911  0.1403 -1.2228
  942MOL0     H27132   9.481   7.589   9.716  1.1744  0.0672 -0.2983
  942MOL0     H27133   9.711   7.656   9.750  1.5817  0.3005  0.4052
  942MOL0     H27134   9.920   7.763   9.787  3.3770  1.4055 -0.4642
  942MOL0     H27135   9.807   7.887   9.730 -1.1052  1.0821  0.9330
  942MOL0     H27136   9.898   8.063   9.851  1.0639  1.5400  1.3879
  942MOL0     H27137  10.004   7.965   9.945  0.3792 -0.4413 -0.3125
  942MOL0     H27138  10.109   7.919   9.697  0.3672  0.9390 -1.0195
  942MOL0     H27139  10.023   8.056   9.654 -2.6133  0.7511  1.0358
  942MOL0     H27140  10.214   8.049   9.901  1.5918  0.7434  0.2921
  942MOL0     H27141  10.119   8.191   9.844  1.6662  0.3974 -0.8023
  942MOL0     H27142  10.245   8.126   9.612 -1.3891 -0.6674  0.3029
  942MOL0     H27143  10.352   8.058   9.713 -0.4127  0.4144 -3.7355
  942MOL0     H27144  10.288   8.353   9.728  0.3825  0.6829  0.7768
  942MOL0     H27145  10.403   8.284   9.830 -2.3461 -1.9668  1.8456
  942MOL0     H27146  10.507   8.380   9.612  1.4321 -0.6312 -1.3732
  942MOL0     H27147  10.422   8.257   9.526 -0.8658 -1.9513  0.8685
  942MOL0     H27148  10.665   8.245   9.714 -0.1629 -0.2219 -0.2764
  942MOL0     H27149  10.569   8.103   9.716  0.6997 -0.9611  0.0652
  942MOL0     H27150   9.606   7.879  10.097  1.6070 -1.0162  0.7927
  942MOL0     H27151   9.371   7.815  10.059  1.8396  1.8582  1.5864
  942MOL0     H27152   9.083   7.512   9.823 -0.6082 -1.2472  0.3207
  942MOL0     H27153   8.843   7.443   9.749  0.6203 -0.0127  1.4255
  942MOL0     H27154   7.002   7.044  10.190  0.0422 -0.0134 -0.0610
  942MOL0     H27155   6.808   6.872  10.130 -0.3584  2.2572  0.1267
  942MOL0     H27156   6.640   6.616  10.121 -0.2142  2.0696 -0.4249
  942MOL0     H27157   6.428   6.518  10.151  3.6387  0.5001  2.3744
  942MOL0     H27158   6.266   6.216   9.849  0.7339  0.5550 -0.0601
  942MOL0     H27159   6.205   6.374   9.785 -0.8867  1.5755  0.6540
  942MOL0     H27160   6.008   6.373   9.923 -0.0716  0.7299 -1.0666
  942MOL0     H27161   6.047   6.220  10.002 -3.9204  0.1774 -0.6631
  942MOL0     H27162   6.058   6.116   9.787 -0.2617 -0.2150  1.2597
  942MOL0     H27163   5.991   6.265   9.705  2.0524 -1.2310  0.0625
  942MOL0     H27164   5.803   6.124   9.737  2.7347  2.8909 -2.5650
  942MOL0     H27165   5.847   6.086   9.902 -3.8666 -0.1820  0.4120
  942MOL0     H27166   5.638   6.451   9.944  0.6784  1.8123 -0.9594
  942MOL0     H27167   6.449   6.343   9.754 -0.5448 -0.8535  0.8752
  942MOL0     H27168   6.644   6.336   9.639  0.0352 -0.3302  1.4845
  942MOL0     H27169   6.684   6.507   9.617 -2.8722 -0.1022 -0.5189
  942MOL0     H27170   6.790   6.393   9.707  0.0881 -0.0779  1.6278
  943MOL0     O27171  11.030   0.907   5.840  0.8460 -0.4261 -0.2557
  943MOL0     C27172  10.909   0.914   5.825 -0.0348  0.8165 -0.0136
  943MOL0     O27173  10.848   0.997   5.742  0.3424 -0.5662 -0.5573
  943MOL0     C27174  10.912   1.074   5.648 -0.2708  0.1538 -0.7529
  943MOL0     C27175  11.016   1.027   5.571 -0.2038  0.3351  0.8582
  943MOL0     C27176  11.073   1.117   5.475 -0.3423  0.0425 -0.7264
  943MOL0     C27177  11.021   1.240   5.450 -0.6832 -1.1378 -0.1151
  943MOL0     O27178  11.068   1.329   5.355  0.5480  0.0130 -0.4855
  943MOL0     C27179  11.108   1.277   5.229  0.2174  0.4472 -0.0164
  943MOL0     C27180  11.255   1.291   5.215 -0.1546 -0.4346 -0.6189
  943MOL0     C27181  11.291   1.254   5.067  0.5625 -0.3247  0.0886
  943MOL0     C27182  11.442   1.274   5.040  1.1535  1.4175 -0.2717
  943MOL0     C27183  11.487   1.180   4.933  0.2099 -0.5113  0.0149
  943MOL0     C27184  11.636   1.196   4.923 -0.4646  0.0042 -0.7581
  943MOL0     C27185  11.693   1.113   4.803 -0.2946  0.2360  0.6144
  943MOL0     C27186  11.851   1.086   4.821  0.1956  0.7132  0.4182
  943MOL0     N27187  11.935   1.213   4.834  0.5516  0.2063  0.4220
  943MOL0     C27188  11.976   1.264   4.953 -0.3028 -1.3001  0.5126
  943MOL0     C27189  12.045   1.381   4.923 -0.0729 -0.2510 -0.0356
  943MOL0     C27190  12.102   1.474   5.023  0.9487  0.5266  0.7902
  943MOL0     C27191  12.244   1.474   5.037 -0.8642  0.1864 -0.3468
  943MOL0     C27192  12.298   1.337   5.089  0.1492 -0.1954 -0.7842
  943MOL0     C27193  12.452   1.325   5.097 -0.9693 -0.5850 -0.0292
  943MOL0     O27194  12.474   1.194   5.158 -0.1187  0.0674  0.3148
  943MOL0     C27195  12.601   1.153   5.196 -0.1012  0.3138 -0.3629
  943MOL0     C27196  12.625   1.051   5.287  0.1013  0.2009  0.4662
  943MOL0     C27197  12.751   1.021   5.328 -1.0854  0.6319  0.1852
  943MOL0     C27198  12.862   1.069   5.264 -0.6831 -0.1622  0.4729
  943MOL0     C27199  13.007   1.038   5.304  0.4695  1.2681  0.4194
  943MOL0     O27200  13.109   1.124   5.270  0.2931 -0.3133 -0.6141
  943MOL0     C27201  13.243   1.086   5.268 -0.4469  0.6606 -0.3960
  943MOL0     C27202  13.324   1.131   5.160 -0.4549 -0.8299  0.3661
  943MOL0     C27203  13.456   1.103   5.165 -0.6170 -0.1713  0.2157
  943MOL0     C27204  13.523   1.039   5.266 -0.0866  0.7390 -0.7147
  943MOL0     O27205  13.660   1.013   5.264  0.1905  0.0627 -0.2288
  943MOL0     C27206  13.725   0.915   5.350  0.0965  0.5866  0.3351
  943MOL0     C27207  13.878   0.925   5.340  0.9240  0.0075  0.0455
  943MOL0     C27208  13.940   0.794   5.404  0.1342  0.0231 -0.1106
  943MOL0     C27209  13.921   0.672   5.309  0.4228  0.0210 -0.2949
  943MOL0     C27210  13.971   0.546   5.366  0.8512 -0.3243  0.9109
  943MOL0     C27211  13.931   0.433   5.271 -0.5453  0.8030 -0.1911
  943MOL0     C27212  14.039   0.324   5.288 -0.0627  0.5842  0.4459
  943MOL0     C27213  14.017   0.224   5.173  0.1351  1.1628 -0.1885
  943MOL0    Cl27214  14.078   0.285   5.020  0.1882  0.1294  0.5205
  943MOL0     C27215  13.438   0.984   5.372 -0.3859  0.1076 -0.5024
  943MOL0     C27216  13.299   0.999   5.368 -0.5233 -0.3581  0.2146
  943MOL0     O27217  13.017   0.932   5.366  0.5747  0.2204  0.2211
  943MOL0     C27218  12.842   1.169   5.165  0.0411  0.7241 -0.1113
  943MOL0     C27219  12.710   1.218   5.141  0.0066  1.3388  0.5447
  943MOL0     N27220  12.045   1.388   4.784  0.5703 -0.0765  0.7137
  943MOL0     N27221  11.981   1.291   4.732  0.6052  0.4385  0.0695
  943MOL0     C27222  10.909   1.281   5.523 -0.3584  0.1790 -0.1249
  943MOL0     C27223  10.864   1.203   5.633  0.3513  0.6865  1.1885
  943MOL0     C27224  10.820   0.815   5.896 -0.0543 -0.2476 -0.1697
  943MOL0     C27225  10.694   0.796   5.838  1.0573  0.1964 -0.4694
  943MOL0     C27226  10.604   0.712   5.906 -0.0701 -0.4639 -0.4057
  943MOL0     C27227  10.635   0.640   6.017 -0.0913  0.3828 -0.1620
  943MOL0     O27228  10.552   0.554   6.092 -0.1430 -0.1402  0.1815
  943MOL0     C27229  10.420   0.529   6.039 -0.8261 -0.0189 -0.0273
  943MOL0     C27230  10.436   0.437   5.914  0.5505  0.4588 -0.1006
  943MOL0     C27231  10.302   0.368   5.902  0.2676 -0.0040  0.1687
  943MOL0     C27232  10.187   0.470   5.873 -0.6990 -0.1500 -0.6528
  943MOL0     C27233  10.074   0.388   5.836 -0.5854  0.8879  0.4168
  943MOL0     C27234   9.986   0.311   5.819 -0.6030 -0.8337  0.4307
  943MOL0     C27235  10.769   0.653   6.065  0.8164  0.2438 -0.1086
  943MOL0     C27236  10.857   0.737   6.006  0.4570 -0.2219  0.5287
  943MOL0     C27237  10.980   0.756   6.070  0.5338  0.5846  0.1501
  943MOL0     H27238  11.045   0.925   5.594  1.6786  0.8178  0.8026
  943MOL0     H27239  11.153   1.071   5.418  1.2654  2.3826 -0.5062
  943MOL0     H27240  11.068   1.175   5.224 -3.8654  1.8435  0.1492
  943MOL0     H27241  11.058   1.335   5.151  1.0615  0.6676 -0.4095
  943MOL0     H27242  11.300   1.210   5.273  0.7440  0.0164 -0.6653
  943MOL0     H27243  11.288   1.391   5.244  0.2478 -0.7549  0.0384
  943MOL0     H27244  11.236   1.325   5.004 -1.2749 -2.2596 -0.6086
  943MOL0     H27245  11.254   1.152   5.051  1.1236 -1.1190  3.2680
  943MOL0     H27246  11.472   1.374   5.008  1.0734  1.1850 -1.0929
  943MOL0     H27247  11.493   1.256   5.136 -2.1505  1.3488  1.6220
  943MOL0     H27248  11.472   1.076   4.962  2.2867 -0.5973  0.9164
  943MOL0     H27249  11.439   1.202   4.837 -1.5972 -0.4861  0.8758
  943MOL0     H27250  11.671   1.299   4.910  1.3355  0.1976  3.7534
  943MOL0     H27251  11.675   1.153   5.016 -3.4701 -0.1707  0.5373
  943MOL0     H27252  11.678   1.158   4.704  0.5791 -1.4650 -0.3514
  943MOL0     H27253  11.649   1.013   4.812 -0.9243  0.6650  2.7960
  943MOL0     H27254  11.867   1.027   4.912  1.2781  0.3491  0.0063
  943MOL0     H27255  11.888   1.018   4.744  1.6852  0.4262  1.3401
  943MOL0     H27256  11.944   1.235   5.053 -0.7959 -0.4579  0.6102
  943MOL0     H27257  12.052   1.567   4.995 -2.4315 -0.6986  2.1415
  943MOL0     H27258  12.050   1.464   5.119 -1.9534  0.4630 -0.6551
  943MOL0     H27259  12.287   1.486   4.937  2.3027 -0.4065  0.8152
  943MOL0     H27260  12.279   1.557   5.099  1.9344 -1.8000  0.9671
  943MOL0     H27261  12.259   1.248   5.039 -0.3560  0.1849 -1.0815
  943MOL0     H27262  12.251   1.324   5.187  0.9628 -1.5583 -0.5404
  943MOL0     H27263  12.497   1.404   5.159 -1.8396  0.7124 -0.9818
  943MOL0     H27264  12.497   1.338   4.998 -0.7221  0.8954  0.2480
  943MOL0     H27265  12.539   0.999   5.327  0.3119 -1.4263 -1.0620
  943MOL0     H27266  12.768   0.951   5.409 -0.5935 -0.6368 -0.9601
  943MOL0     H27267  13.294   1.187   5.072  0.6736  0.2208  0.6146
  943MOL0     H27268  13.522   1.139   5.086 -0.3026  3.0327  1.7729
  943MOL0     H27269  13.690   0.926   5.453 -0.9224 -0.2189  0.0823
  943MOL0     H27270  13.687   0.815   5.328  2.0320 -0.5226  1.6986
  943MOL0     H27271  13.906   0.925   5.234 -0.8726  2.1396 -0.4992
  943MOL0     H27272  13.906   1.021   5.385 -1.0056 -0.9428  3.6406
  943MOL0     H27273  14.044   0.822   5.418 -0.1180 -0.2205  3.2277
  943MOL0     H27274  13.904   0.783   5.507  0.2767  0.9571  0.0443
  943MOL0     H27275  13.982   0.697   5.221 -0.4344  2.9620 -0.1560
  943MOL0     H27276  13.815   0.659   5.289  0.0880 -2.8702  2.5920
  943MOL0     H27277  13.923   0.528   5.463  0.8859  0.9204  1.1680
  943MOL0     H27278  14.079   0.563   5.371  0.5264  1.8835  1.1912
  943MOL0     H27279  13.829   0.398   5.289  0.2055 -0.1493  2.7591
  943MOL0     H27280  13.937   0.470   5.168  2.1107 -0.6801 -0.6563
  943MOL0     H27281  14.037   0.274   5.385  3.2060 -0.0044  0.3321
  943MOL0     H27282  14.138   0.366   5.269  1.7157 -4.1961 -2.6055
  943MOL0     H27283  14.067   0.130   5.198 -2.3136 -1.0055 -2.7162
  943MOL0     H27284  13.912   0.193   5.170  0.3483  0.3862 -0.0115
  943MOL0     H27285  13.479   0.930   5.456 -1.3525  0.8144  0.4431
  943MOL0     H27286  13.228   0.973   5.447 -0.9175  1.6391  0.5776
  943MOL0     H27287  12.920   1.227   5.116  0.4285  0.2029 -0.1189
  943MOL0     H27288  12.699   1.297   5.066  1.1729  0.2871 -0.8120
  943MOL0     H27289  10.873   1.381   5.503 -0.9451 -0.4232 -2.3568
  943MOL0     H27290  10.776   1.242   5.684  0.4190  1.3081  0.8391
  943MOL0     H27291  10.659   0.835   5.743 -0.0086 -0.4104 -0.3357
  943MOL0     H27292  10.500   0.712   5.875 -0.1809  2.1752 -0.2738
  943MOL0     H27293  10.369   0.623   6.016 -0.4280  0.2760  0.2765
  943MOL0     H27294  10.369   0.474   6.119  3.6116  1.0823  3.9997
  943MOL0     H27295  10.513   0.361   5.921 -0.3111 -0.3586  0.7978
  943MOL0     H27296  10.452   0.484   5.817  2.2416 -3.5829 -1.9941
  943MOL0     H27297  10.280   0.314   5.995  2.3326 -0.6153  0.3536
  943MOL0     H27298  10.316   0.295   5.821  2.4267  0.4197  0.1265
  943MOL0     H27299  10.167   0.530   5.962  0.9892 -2.4066  1.3891
  943MOL0     H27300  10.211   0.534   5.788 -2.8830  0.2356 -1.0395
  943MOL0     H27301   9.911   0.241   5.789  0.0411 -2.3972  2.2895
  943MOL0     H27302  10.784   0.604   6.160  2.4963 -1.6093 -1.2525
  943MOL0     H27303  10.989   0.856   6.112  1.7345  0.3787  0.4202
  943MOL0     H27304  10.986   0.679   6.148 -2.0191  0.8765  0.7325
  943MOL0     H27305  11.064   0.736   6.003  0.6030  0.5506  0.2453
  944MOL0     O27306   8.225   8.577   1.480  1.0714  0.0885 -0.0066
  944MOL0     C27307   8.161   8.585   1.584  0.0852 -0.3746  1.0232
  944MOL0     O27308   8.221   8.628   1.705 -0.2021  0.5238  0.0156
  944MOL0     C27309   8.336   8.707   1.708  0.0345 -0.0399  0.2526
  944MOL0     C27310   8.325   8.850   1.711 -0.1054  0.8189 -0.1541
  944MOL0     C27311   8.442   8.921   1.725  1.0557 -0.0588 -0.5747
  944MOL0     C27312   8.564   8.859   1.730  0.2726  0.2498  0.0855
  944MOL0     O27313   8.673   8.947   1.733  0.3628 -0.3298  0.7446
  944MOL0     C27314   8.804   8.899   1.714  0.1879  0.2108  0.3092
  944MOL0     C27315   8.902   9.019   1.703 -0.3550  0.0833 -0.3464
  944MOL0     C27316   9.023   8.986   1.617  0.2370 -1.1782  0.4898
  944MOL0     C27317   9.100   8.857   1.638  0.2917 -0.3235  0.2669
  944MOL0     C27318   9.243   8.863   1.588  0.7839 -0.8052  0.1257
  944MOL0     C27319   9.253   8.896   1.439  0.6191 -0.4519 -0.3331
  944MOL0     C27320   9.391   8.946   1.376  0.1042 -0.2076 -0.5956
  944MOL0     C27321   9.476   9.038   1.471  0.1200 -0.1355 -0.0598
  944MOL0     N27322   9.606   9.073   1.413  0.2788  0.3976  0.1682
  944MOL0     C27323   9.712   8.984   1.411  0.1818  0.2480 -0.3261
  944MOL0     C27324   9.822   9.065   1.398  0.0019  1.0402  0.0551
  944MOL0     C27325   9.958   9.005   1.412  0.7265 -0.1289 -0.4085
  944MOL0     C27326  10.051   9.110   1.350 -0.2673  0.2225 -1.0113
  944MOL0     C27327  10.195   9.051   1.375 -0.4982  0.7394 -0.0329
  944MOL0     C27328  10.309   9.154   1.344  0.0802  0.4860  0.2649
  944MOL0     O27329  10.442   9.121   1.389  0.2977 -0.1738  0.5558
  944MOL0     C27330  10.548   9.185   1.329 -0.3229  0.4581  0.3680
  944MOL0     C27331  10.526   9.306   1.259  0.4302 -0.0685  0.3554
  944MOL0     C27332  10.629   9.397   1.225 -0.6434  0.1051 -0.9872
  944MOL0     C27333  10.761   9.357   1.260 -1.1442 -0.3875 -0.1020
  944MOL0     C27334  10.884   9.434   1.215  1.1367 -0.2261 -0.1504
  944MOL0     O27335  10.995   9.421   1.282 -0.5150  0.6063 -0.8271
  944MOL0     C27336  11.103   9.469   1.214  0.2135 -0.0416 -0.2070
  944MOL0     C27337  11.147   9.413   1.096 -0.8007  0.0242  0.0847
  944MOL0     C27338  11.256   9.456   1.027 -0.9403 -0.2111  0.7251
  944MOL0     C27339  11.325   9.573   1.066  1.0668 -0.3266  0.8955
  944MOL0     O27340  11.429   9.613   0.984 -0.0692  0.0005 -0.6228
  944MOL0     C27341  11.513   9.715   1.038 -0.9977  0.2111  0.5442
  944MOL0     C27342  11.596   9.756   0.915 -0.4897 -0.1700  0.3517
  944MOL0     C27343  11.662   9.904   0.919  0.1635  0.6115  0.4096
  944MOL0     C27344  11.735   9.953   1.042 -0.9440  0.3240  0.0596
  944MOL0     C27345  11.804  10.086   1.007 -0.3603  0.0358  0.8413
  944MOL0     C27346  11.942  10.056   0.938 -0.0042 -0.5705  0.0574
  944MOL0     C27347  12.033  10.176   0.913 -0.0060 -0.3533 -0.2740
  944MOL0     C27348  12.009  10.256   0.785 -0.1011  0.2067 -0.2799
  944MOL0    Cl27349  12.136  10.381   0.766  0.2022  0.2965  0.5491
  944MOL0     C27350  11.272   9.634   1.181  0.3354  0.3245  0.1101
  944MOL0     C27351  11.166   9.583   1.254 -0.4535  0.1518 -0.6593
  944MOL0     O27352  10.868   9.498   1.107 -0.3956  0.4700  0.3839
  944MOL0     C27353  10.784   9.229   1.321 -0.7286 -1.3257  0.3098
  944MOL0     C27354  10.679   9.147   1.359 -0.3103 -0.3724 -0.0297
  944MOL0     N27355   9.773   9.195   1.376 -0.1755  0.8994 -0.5127
  944MOL0     N27356   9.652   9.200   1.394 -0.7543  0.1620  0.4529
  944MOL0     C27357   8.570   8.717   1.732  0.1739  0.2895  0.7217
  944MOL0     C27358   8.456   8.637   1.724 -0.4179 -0.5365  0.3610
  944MOL0     C27359   8.021   8.535   1.604  0.6707  0.1820 -0.0943
  944MOL0     C27360   7.946   8.586   1.712  0.7257  0.1049 -0.6432
  944MOL0     C27361   7.815   8.539   1.745  0.3183  0.8450 -0.0158
  944MOL0     C27362   7.749   8.450   1.656 -0.3073  0.3548  0.1047
  944MOL0     O27363   7.628   8.405   1.687  0.0695 -0.2935 -0.0718
  944MOL0     C27364   7.527   8.353   1.595 -0.4320 -0.0983 -0.3651
  944MOL0     C27365   7.501   8.458   1.494  0.6352 -0.4040 -0.7796
  944MOL0     C27366   7.466   8.594   1.565 -0.1550 -0.3268  0.4769
  944MOL0     C27367   7.323   8.617   1.602  0.2769  1.0719  0.3073
  944MOL0     C27368   7.274   8.543   1.721 -0.5157  0.0603 -0.2466
  944MOL0     C27369   7.233   8.486   1.816 -0.4241 -0.2743 -0.3835
  944MOL0     C27370   7.825   8.400   1.548  0.2048 -0.4434  0.9689
  944MOL0     C27371   7.955   8.436   1.526 -0.4569 -0.3290  0.2209
  944MOL0     C27372   8.038   8.374   1.419  1.3559 -0.6131 -0.1199
  944MOL0     H27373   8.224   8.890   1.720 -0.5030 -0.0356 -0.6699
  944MOL0     H27374   8.447   9.029   1.732 -1.5438  0.1129 -0.1500
  944MOL0     H27375   8.830   8.834   1.798  0.0549  1.8497  1.6565
  944MOL0     H27376   8.808   8.837   1.623 -0.8406 -0.2580  0.5662
  944MOL0     H27377   8.940   9.055   1.799  3.1995 -1.6719 -0.9446
  944MOL0     H27378   8.850   9.101   1.653 -0.5688  0.3305  0.2708
  944MOL0     H27379   9.095   9.065   1.639 -0.6583  0.3579 -1.7807
  944MOL0     H27380   8.997   9.003   1.512  1.4728 -1.6239  0.0789
  944MOL0     H27381   9.115   8.833   1.743 -0.7233  0.9160  0.7145
  944MOL0     H27382   9.051   8.771   1.591  0.4137 -0.5586  0.5648
  944MOL0     H27383   9.292   8.945   1.642  0.1938  0.4395 -1.1401
  944MOL0     H27384   9.295   8.769   1.608  1.5609  0.2529  3.9492
  944MOL0     H27385   9.224   8.804   1.389  0.2614 -1.8358  2.2553
  944MOL0     H27386   9.179   8.977   1.430 -0.9665 -1.3202  3.0370
  944MOL0     H27387   9.364   8.995   1.282  0.4039 -0.3949 -0.7817
  944MOL0     H27388   9.446   8.860   1.335  2.0594  0.8921 -0.4292
  944MOL0     H27389   9.426   9.135   1.480  0.6879 -0.0312  3.7357
  944MOL0     H27390   9.485   8.991   1.570  0.5504 -0.2367 -0.1446
  944MOL0     H27391   9.704   8.877   1.428 -1.3789  0.2395 -0.8825
  944MOL0     H27392   9.981   8.993   1.519  0.6819 -1.5911 -0.5482
  944MOL0     H27393   9.968   8.914   1.353 -0.1220 -1.1058  0.8989
  944MOL0     H27394  10.033   9.130   1.244 -1.1503  2.4233 -0.4978
  944MOL0     H27395  10.054   9.201   1.411  1.2820  0.9184 -2.0577
  944MOL0     H27396  10.215   8.959   1.320  2.6623  0.2604  1.7326
  944MOL0     H27397  10.213   9.028   1.480  1.2056  1.1557 -0.2086
  944MOL0     H27398  10.281   9.254   1.378  0.1545  0.6845 -0.2638
  944MOL0     H27399  10.294   9.166   1.237 -1.3214 -0.7686  0.2799
  944MOL0     H27400  10.427   9.340   1.230  0.4970 -0.9730 -1.0434
  944MOL0     H27401  10.613   9.484   1.163 -2.4156  1.3273  1.0445
  944MOL0     H27402  11.111   9.314   1.071 -0.3683  0.1517 -1.1357
  944MOL0     H27403  11.294   9.402   0.941 -3.6209  0.9385 -1.3204
  944MOL0     H27404  11.457   9.804   1.068 -0.3064  1.0406 -0.5432
  944MOL0     H27405  11.583   9.674   1.112  0.0833 -2.3334 -1.7191
  944MOL0     H27406  11.675   9.686   0.883 -0.6804  0.3853 -1.4619
  944MOL0     H27407  11.529   9.752   0.829 -1.0827 -0.2179  0.8098
  944MOL0     H27408  11.717   9.902   0.825 -1.4673 -0.0690 -0.5575
  944MOL0     H27409  11.574   9.967   0.905 -3.4483 -3.1776  3.3189
  944MOL0     H27410  11.810   9.878   1.072 -1.5387  0.3343  1.6933
  944MOL0     H27411  11.666   9.977   1.124  1.0825 -1.0503  2.3143
  944MOL0     H27412  11.824  10.136   1.102 -1.6419 -0.0023  1.1437
  944MOL0     H27413  11.735  10.146   0.948  0.6227  0.9595  0.6051
  944MOL0     H27414  11.996   9.984   1.001 -1.8899 -2.7497 -0.6940
  944MOL0     H27415  11.921  10.008   0.842 -1.5664  0.4484 -0.1478
  944MOL0     H27416  12.133  10.132   0.911  1.1605  1.7175  3.0553
  944MOL0     H27417  12.036  10.243   1.000 -0.0261 -0.7107  0.0029
  944MOL0     H27418  12.008  10.187   0.700 -2.5514 -1.9932  1.3883
  944MOL0     H27419  11.917  10.315   0.786 -0.0383  0.4327 -2.3877
  944MOL0     H27420  11.304   9.735   1.203  2.1164  0.8544 -4.0125
  944MOL0     H27421  11.111   9.636   1.331  0.4870 -2.5770  2.0444
  944MOL0     H27422  10.885   9.189   1.330 -0.2133  0.2458  2.1581
  944MOL0     H27423  10.703   9.057   1.415 -0.4883  0.5089  1.5154
  944MOL0     H27424   8.666   8.669   1.723  0.0463 -0.1069  1.3844
  944MOL0     H27425   8.456   8.529   1.739 -0.7539 -0.4983  0.6571
  944MOL0     H27426   7.995   8.652   1.783 -1.8488  0.1370  1.2504
  944MOL0     H27427   7.754   8.589   1.819 -1.9327 -0.0571 -1.1602
  944MOL0     H27428   7.434   8.326   1.646 -0.8302  1.3272 -0.2965
  944MOL0     H27429   7.571   8.270   1.540 -0.6002  0.7993 -1.9090
  944MOL0     H27430   7.408   8.429   1.445 -1.2597  1.4329  1.4885
  944MOL0     H27431   7.575   8.460   1.413  1.6091 -1.6753  0.0239
  944MOL0     H27432   7.491   8.673   1.495 -2.5218 -0.3984 -0.5166
  944MOL0     H27433   7.518   8.612   1.660 -0.4339 -1.0709  0.7772
  944MOL0     H27434   7.315   8.721   1.635  0.3390  1.3633 -0.5648
  944MOL0     H27435   7.258   8.599   1.516  0.1799  0.5735  0.4792
  944MOL0     H27436   7.189   8.449   1.906  1.4486 -0.1453  0.6218
  944MOL0     H27437   7.783   8.329   1.477 -0.2220  1.2428 -0.5297
  944MOL0     H27438   7.985   8.294   1.366 -0.7719  1.5350 -1.4334
  944MOL0     H27439   8.067   8.438   1.335  1.2760 -1.4942 -0.8350
  944MOL0     H27440   8.133   8.337   1.458  0.2226 -0.0007  3.5936
  945MOL0     O27441   1.025   7.746  10.871  0.7488  0.4308 -0.5542
  945MOL0     C27442   0.969   7.850  10.865  0.9871 -0.8918  0.8373
  945MOL0     O27443   1.026   7.975  10.856 -0.5196  0.7810 -0.2239
  945MOL0     C27444   1.149   7.990  10.797  0.7170  0.2156  0.6670
  945MOL0     C27445   1.205   7.911  10.694  0.5132 -0.1295 -0.8088
  945MOL0     C27446   1.336   7.936  10.661 -0.0632 -0.9816 -0.1463
  945MOL0     C27447   1.413   8.044  10.715 -0.7642  0.5838  0.3307
  945MOL0     O27448   1.540   8.078  10.682 -0.1218 -0.2285 -0.0291
  945MOL0     C27449   1.634   7.971  10.648  0.4566  0.3807 -0.4548
  945MOL0     C27450   1.781   8.009  10.676 -0.5066 -0.1319 -0.3672
  945MOL0     C27451   1.825   8.146  10.611  0.3382 -0.3508  0.4410
  945MOL0     C27452   1.980   8.151  10.578 -0.0401  0.5095 -0.4320
  945MOL0     C27453   2.022   8.253  10.467 -0.5768  0.2655  0.9003
  945MOL0     C27454   2.028   8.389  10.537  0.2692  0.7041  0.0860
  945MOL0     C27455   2.052   8.514  10.455  0.7982 -0.0217 -0.7276
  945MOL0     C27456   2.163   8.512  10.348  0.2474 -0.9436 -0.0318
  945MOL0     N27457   2.287   8.476  10.417 -0.1406 -0.7506 -0.6012
  945MOL0     C27458   2.351   8.352  10.397  0.6869 -0.2137 -0.2928
  945MOL0     C27459   2.448   8.349  10.494  0.0976  0.3223 -0.0457
  945MOL0     C27460   2.553   8.242  10.517  1.3413 -0.7510  0.7325
  945MOL0     C27461   2.494   8.107  10.550 -0.7330  0.2420 -0.5046
  945MOL0     C27462   2.592   8.002  10.595  0.0744  0.5851 -0.9418
  945MOL0     C27463   2.676   7.948  10.483  0.7236 -0.6861 -0.3996
  945MOL0     O27464   2.791   7.887  10.542 -0.2391 -0.1646  0.0655
  945MOL0     C27465   2.915   7.940  10.498 -0.4715  0.3492 -0.5547
  945MOL0     C27466   3.008   7.987  10.594 -0.4096  0.8581  0.5050
  945MOL0     C27467   3.138   8.031  10.553  1.8287 -0.5007 -0.6607
  945MOL0     C27468   3.171   8.019  10.422 -0.7327  0.9740  0.3955
  945MOL0     C27469   3.298   8.069  10.368 -0.4155 -1.1653 -0.0955
  945MOL0     O27470   3.307   8.105  10.235 -0.1069  0.3816 -0.5631
  945MOL0     C27471   3.429   8.146  10.185  0.0980  0.7897  1.1373
  945MOL0     C27472   3.466   8.076  10.077  0.0981 -0.2851  0.0500
  945MOL0     C27473   3.573   8.124   9.998 -0.0439 -0.5519  1.4911
  945MOL0     C27474   3.631   8.244  10.030 -0.0680 -0.1435 -0.0958
  945MOL0     O27475   3.742   8.293   9.968  0.5842  0.4316 -0.0656
  945MOL0     C27476   3.789   8.242   9.850  0.4169 -0.8430  0.5397
  945MOL0     C27477   3.917   8.321   9.836  0.0001  0.5382 -0.4373
  945MOL0     C27478   3.978   8.297   9.699  0.2874  0.1296  0.2969
  945MOL0     C27479   4.083   8.408   9.659 -0.5864 -1.4358 -0.2267
  945MOL0     C27480   4.158   8.355   9.539 -0.3914  0.1632 -0.2387
  945MOL0     C27481   4.284   8.455   9.504  0.3377  0.2110  0.2820
  945MOL0     C27482   4.406   8.444   9.609 -0.0935 -0.0749  0.1026
  945MOL0     C27483   4.523   8.524   9.551  0.2622  0.8821 -0.1855
  945MOL0    Cl27484   4.500   8.689   9.592 -0.2298 -0.3092  0.0925
  945MOL0     C27485   3.584   8.318  10.141 -0.4687  0.1681 -0.6392
  945MOL0     C27486   3.489   8.267  10.222  0.0342  0.9924 -0.3883
  945MOL0     O27487   3.394   8.074  10.451  0.4275 -0.0224 -0.0867
  945MOL0     C27488   3.076   7.978  10.327  0.3305 -0.8935 -0.1357
  945MOL0     C27489   2.946   7.933  10.363  0.4011  0.0245 -0.3371
  945MOL0     N27490   2.431   8.465  10.574  0.3636 -0.4394  0.3897
  945MOL0     N27491   2.338   8.539  10.525 -0.1434  0.3208  0.0071
  945MOL0     C27492   1.357   8.117  10.817 -0.4494 -0.0709  0.5717
  945MOL0     C27493   1.228   8.088  10.852 -0.3432 -0.1737 -0.1920
  945MOL0     C27494   0.817   7.849  10.868 -0.3143 -0.7859  0.8861
  945MOL0     C27495   0.746   7.967  10.827 -0.2750  0.4925 -0.3391
  945MOL0     C27496   0.609   7.973  10.827  0.4577 -0.0017  0.3416
  945MOL0     C27497   0.531   7.865  10.861  0.1622  0.3943  1.0074
  945MOL0     O27498   0.397   7.841  10.846 -0.6088  0.7013 -0.5430
  945MOL0     C27499   0.310   7.929  10.776 -0.8560 -0.2862 -1.0958
  945MOL0     C27500   0.203   7.853  10.708  0.1386 -0.2546 -0.9934
  945MOL0     C27501   0.093   7.819  10.808 -0.4687 -0.0243 -0.2530
  945MOL0     C27502  -0.031   7.741  10.738 -0.3280  0.7144  0.2118
  945MOL0     C27503  -0.150   7.712  10.818  0.0601 -0.0302 -0.3606
  945MOL0     C27504  -0.253   7.680  10.867  0.1566  0.1752  0.1071
  945MOL0     C27505   0.591   7.745  10.891 -0.8175  0.1980  0.7006
  945MOL0     C27506   0.736   7.739  10.917  0.5810 -0.1063 -0.0692
  945MOL0     C27507   0.788   7.627  10.997 -0.1279  0.6219 -0.0836
  945MOL0     H27508   1.147   7.827  10.656 -0.5207  0.4830 -0.6353
  945MOL0     H27509   1.379   7.868  10.588  2.4867  1.2138 -0.8594
  945MOL0     H27510   1.607   7.876  10.696  2.0549 -0.2512 -0.7547
  945MOL0     H27511   1.616   7.960  10.541 -0.0597  0.5715 -0.3944
  945MOL0     H27512   1.854   7.928  10.667 -0.1084  0.1816 -0.0376
  945MOL0     H27513   1.804   8.033  10.781 -0.3471 -1.0159 -0.1902
  945MOL0     H27514   1.795   8.232  10.671 -2.2402  0.5981 -1.9904
  945MOL0     H27515   1.775   8.147  10.514 -0.3492 -1.2621  0.7715
  945MOL0     H27516   2.019   8.175  10.677 -0.6780 -0.6192  0.1147
  945MOL0     H27517   2.006   8.050  10.545 -1.7157 -1.6613  4.0503
  945MOL0     H27518   2.125   8.229  10.440 -0.6436 -1.1840  1.8232
  945MOL0     H27519   1.949   8.261  10.386  0.4395  0.8065  0.0138
  945MOL0     H27520   1.931   8.403  10.586  0.2601  2.2188 -0.3195
  945MOL0     H27521   2.108   8.373  10.609  1.2404  1.2382 -0.8489
  945MOL0     H27522   2.070   8.597  10.524  1.6776  0.2114 -1.2220
  945MOL0     H27523   1.957   8.544  10.408 -1.9395 -0.8644  3.6763
  945MOL0     H27524   2.150   8.438  10.268 -1.8223  1.2762 -1.9115
  945MOL0     H27525   2.177   8.609  10.299 -1.4981 -0.4466  0.4090
  945MOL0     H27526   2.329   8.276  10.323 -2.6064 -2.0682  2.3025
  945MOL0     H27527   2.626   8.249  10.435 -3.3055 -2.4666 -4.1061
  945MOL0     H27528   2.615   8.269  10.603  1.8064  0.0980  0.1463
  945MOL0     H27529   2.433   8.126  10.639 -0.5628 -0.6165 -0.1879
  945MOL0     H27530   2.427   8.072  10.471 -1.0568 -0.3155  0.0092
  945MOL0     H27531   2.533   7.918  10.633  2.9456 -1.3619 -0.4924
  945MOL0     H27532   2.650   8.041  10.679  0.5178 -1.8005 -0.0806
  945MOL0     H27533   2.697   8.035  10.419 -3.6556 -0.2075 -1.4945
  945MOL0     H27534   2.628   7.876  10.417 -0.3944 -1.0855  0.8074
  945MOL0     H27535   2.992   7.985  10.701 -0.1050 -0.4830  0.5419
  945MOL0     H27536   3.186   8.077  10.639  0.7266 -0.0634 -0.2634
  945MOL0     H27537   3.400   7.996  10.046  1.3852 -0.8974 -1.2398
  945MOL0     H27538   3.605   8.072   9.908  0.9782 -0.5313  1.8247
  945MOL0     H27539   3.808   8.134   9.851 -1.0958 -1.2561 -2.3680
  945MOL0     H27540   3.716   8.257   9.770  0.2237  0.2452  0.8992
  945MOL0     H27541   3.915   8.427   9.863  0.9649  0.4484  0.0530
  945MOL0     H27542   3.983   8.279   9.913 -2.2672  0.7622  1.7473
  945MOL0     H27543   4.032   8.202   9.711  1.6926  0.9712  0.8148
  945MOL0     H27544   3.901   8.277   9.623  2.1518 -1.0351 -1.3953
  945MOL0     H27545   4.148   8.442   9.741  0.0661 -0.6633 -1.0490
  945MOL0     H27546   4.026   8.496   9.627 -1.1131 -0.6590  2.5030
  945MOL0     H27547   4.089   8.353   9.455  1.4789  0.2918 -1.8616
  945MOL0     H27548   4.190   8.251   9.551 -0.7513 -0.0333 -0.9293
  945MOL0     H27549   4.304   8.437   9.398 -1.6642 -1.7204  0.1714
  945MOL0     H27550   4.249   8.558   9.492  0.0855  0.0719 -0.2070
  945MOL0     H27551   4.439   8.339   9.612 -1.7609 -0.6812 -1.1019
  945MOL0     H27552   4.389   8.488   9.707 -0.5508  0.7484 -0.3368
  945MOL0     H27553   4.614   8.487   9.600 -0.1347 -0.7423 -0.6316
  945MOL0     H27554   4.532   8.503   9.444  0.5503 -1.4892  0.2482
  945MOL0     H27555   3.624   8.419  10.143  0.7789 -0.2558  2.7330
  945MOL0     H27556   3.451   8.324  10.306  1.8842  2.4021 -0.4493
  945MOL0     H27557   3.112   7.968  10.225  1.3003 -0.1443  0.1212
  945MOL0     H27558   2.872   7.889  10.297 -0.5950  0.9596  0.1413
  945MOL0     H27559   1.430   8.184  10.863  0.8796 -1.7112  0.9722
  945MOL0     H27560   1.185   8.151  10.929  1.4842  1.4091 -0.3951
  945MOL0     H27561   0.812   8.047  10.796  1.3799 -1.7270 -3.0967
  945MOL0     H27562   0.551   8.055  10.787 -0.0639 -0.2178  0.6524
  945MOL0     H27563   0.360   7.991  10.701 -2.6845  0.8505 -1.4334
  945MOL0     H27564   0.268   7.991  10.855 -0.3450 -0.2082 -0.8791
  945MOL0     H27565   0.247   7.764  10.662 -1.1613 -0.4534 -1.8820
  945MOL0     H27566   0.151   7.913  10.633 -0.6370 -0.9547 -1.0336
  945MOL0     H27567   0.037   7.904  10.848 -1.1686 -0.0058 -1.2316
  945MOL0     H27568   0.132   7.758  10.890 -1.4065  0.3294  0.4775
  945MOL0     H27569  -0.070   7.803  10.656  1.0411  3.0490  1.2154
  945MOL0     H27570   0.014   7.646  10.707  0.4729  0.3870  2.2258
  945MOL0     H27571  -0.339   7.637  10.915  0.8362 -0.4729  0.7724
  945MOL0     H27572   0.532   7.662  10.928 -0.9624 -1.2987 -2.5401
  945MOL0     H27573   0.842   7.553  10.937 -1.4279 -1.8897  1.6695
  945MOL0     H27574   0.859   7.664  11.072 -1.4940  0.7069  1.2330
  945MOL0     H27575   0.719   7.582  11.069  2.1113  0.7312  2.2732
  946MOL0     O27576   0.450   9.896   4.273 -0.2822 -0.5674 -0.4124
  946MOL0     C27577   0.349   9.952   4.316  0.5255  0.2273 -0.2926
  946MOL0     O27578   0.349  10.061   4.403 -0.3245  0.2808  0.6949
  946MOL0     C27579   0.472  10.108   4.429 -0.6892  0.2505 -0.1366
  946MOL0     C27580   0.533  10.075   4.546 -0.6346  0.2017  0.4542
  946MOL0     C27581   0.658  10.128   4.578 -1.1815  0.1506 -0.2850
  946MOL0     C27582   0.724  10.220   4.488  0.0585 -0.4865 -1.1723
  946MOL0     O27583   0.844  10.280   4.519 -0.6123  0.9043 -0.9464
  946MOL0     C27584   0.930  10.308   4.410 -0.5310  0.0304 -0.2660
  946MOL0     C27585   1.081  10.329   4.442  0.0811 -0.1867 -0.8884
  946MOL0     C27586   1.160  10.211   4.511 -0.8557  0.2608 -0.2251
  946MOL0     C27587   1.266  10.255   4.606 -0.0333  0.7023 -0.5959
  946MOL0     C27588   1.389  10.156   4.608  0.4353  0.3975 -0.4548
  946MOL0     C27589   1.496  10.191   4.720 -0.1113  0.2400  0.3342
  946MOL0     C27590   1.617  10.095   4.719  0.4484 -0.0925 -0.0492
  946MOL0     C27591   1.718  10.139   4.833 -0.3815 -0.1875  0.3349
  946MOL0     N27592   1.840  10.067   4.826  0.0018 -0.5744  0.1915
  946MOL0     C27593   1.943  10.091   4.742 -0.7118  0.0095 -0.2066
  946MOL0     C27594   2.051  10.027   4.798  0.5649 -0.9591  0.0226
  946MOL0     C27595   2.194  10.029   4.764  0.5699 -0.0009 -0.5015
  946MOL0     C27596   2.237   9.948   4.644 -0.2953 -0.1590 -0.7093
  946MOL0     C27597   2.207   9.797   4.639 -0.2924  0.7069 -0.5730
  946MOL0     C27598   2.232   9.719   4.769  0.6417 -0.9258  0.4502
  946MOL0     O27599   2.353   9.744   4.839 -0.4719 -0.7076  0.3134
  946MOL0     C27600   2.474   9.719   4.794 -0.8568  0.7107  0.8924
  946MOL0     C27601   2.573   9.785   4.864  0.2731 -0.2330 -0.4335
  946MOL0     C27602   2.709   9.784   4.813 -1.0975  0.2297  0.3688
  946MOL0     C27603   2.732   9.690   4.708  0.2096 -0.2494 -0.6054
  946MOL0     C27604   2.867   9.686   4.658 -0.6161 -0.0075  0.9255
  946MOL0     O27605   2.963   9.665   4.748 -0.1093 -0.6274 -0.6723
  946MOL0     C27606   3.085   9.613   4.723  0.2274  0.4316 -0.4755
  946MOL0     C27607   3.164   9.586   4.838  0.2436 -0.2115  0.0231
  946MOL0     C27608   3.293   9.529   4.826 -0.9482  0.1210 -0.6030
  946MOL0     C27609   3.354   9.509   4.705 -1.1733  0.1692  0.4111
  946MOL0     O27610   3.482   9.463   4.701  0.6361 -0.2999 -0.3363
  946MOL0     C27611   3.560   9.473   4.576  0.6550  0.4578 -0.4305
  946MOL0     C27612   3.683   9.384   4.599  0.2933  0.4779  0.9926
  946MOL0     C27613   3.783   9.445   4.692  0.6202 -0.0043 -0.4299
  946MOL0     C27614   3.922   9.379   4.704  0.3688 -0.8285 -0.5927
  946MOL0     C27615   4.011   9.467   4.795  0.9463 -0.5475 -0.1416
  946MOL0     C27616   4.158   9.409   4.812  0.3168  0.7071  0.0329
  946MOL0     C27617   4.241   9.429   4.695 -0.2632  0.7001 -0.0389
  946MOL0     C27618   4.377   9.371   4.712 -0.4103 -0.2667 -0.8180
  946MOL0    Cl27619   4.456   9.398   4.559  0.0297 -0.2921  0.1942
  946MOL0     C27620   3.277   9.541   4.587  0.1613  0.7495 -1.3975
  946MOL0     C27621   3.143   9.585   4.601 -0.1551 -0.1676  0.5394
  946MOL0     O27622   2.884   9.697   4.534 -0.2678 -0.1295 -0.2405
  946MOL0     C27623   2.632   9.632   4.628  0.0327  0.0738 -1.2366
  946MOL0     C27624   2.496   9.650   4.670  0.0944 -0.8076  0.5656
  946MOL0     N27625   1.999   9.961   4.908 -0.1301  0.5435  0.6703
  946MOL0     N27626   1.876   9.983   4.924 -0.1541 -0.2863 -1.3542
  946MOL0     C27627   0.652  10.261   4.375 -0.2905 -0.5318 -0.5621
  946MOL0     C27628   0.532  10.194   4.341  0.2327 -0.5322  0.1243
  946MOL0     C27629   0.211   9.905   4.277 -0.1539 -0.1872  0.4832
  946MOL0     C27630   0.106  10.000   4.287 -0.1263  0.1640 -0.1481
  946MOL0     C27631  -0.024   9.967   4.243  0.1098 -0.3779  0.8066
  946MOL0     C27632  -0.061   9.836   4.211  0.8302 -0.2635  0.4407
  946MOL0     O27633  -0.190   9.795   4.191  0.5417 -0.4365 -0.5684
  946MOL0     C27634  -0.289   9.895   4.152  0.2440 -0.2870 -0.0836
  946MOL0     C27635  -0.412   9.827   4.085  0.0362 -0.2975  0.0245
  946MOL0     C27636  -0.375   9.742   3.970 -0.1817  0.4454  1.4448
  946MOL0     C27637  -0.498   9.678   3.895  1.2119 -0.0512 -0.1956
  946MOL0     C27638  -0.580   9.603   3.985  0.1893 -0.0655  0.3573
  946MOL0     C27639  -0.652   9.524   4.038  0.2550  0.4761 -0.0263
  946MOL0     C27640   0.043   9.737   4.189  1.0456  1.2675 -0.1392
  946MOL0     C27641   0.176   9.778   4.216  1.2018 -0.5659  0.2479
  946MOL0     C27642   0.280   9.685   4.156  0.1939  0.1566 -0.4582
  946MOL0     H27643   0.483  10.003   4.610  1.3932 -3.3533 -1.6508
  946MOL0     H27644   0.716  10.111   4.668 -1.6610  0.0509  0.0108
  946MOL0     H27645   0.938  10.227   4.337 -1.1908 -2.3176  2.1141
  946MOL0     H27646   0.890  10.396   4.358  1.7296  0.6692 -1.0606
  946MOL0     H27647   1.084  10.419   4.505 -1.1442  0.4075 -1.6354
  946MOL0     H27648   1.123  10.359   4.346  1.5406  0.7703  0.0038
  946MOL0     H27649   1.209  10.152   4.433 -3.2124 -0.3928 -1.3338
  946MOL0     H27650   1.079  10.153   4.558 -0.1082 -2.8801 -2.4778
  946MOL0     H27651   1.297  10.351   4.564 -0.3450  0.1667 -2.1086
  946MOL0     H27652   1.223  10.270   4.705  2.5853  0.4519  0.6734
  946MOL0     H27653   1.357  10.053   4.628  3.0918 -0.3601  0.4049
  946MOL0     H27654   1.436  10.157   4.510 -0.7272 -0.3457 -1.0425
  946MOL0     H27655   1.526  10.295   4.703 -0.2646  0.0544 -1.1973
  946MOL0     H27656   1.434  10.186   4.810 -1.4647  0.8259 -0.5249
  946MOL0     H27657   1.665  10.098   4.620  2.5836  1.4092  0.9476
  946MOL0     H27658   1.589   9.996   4.757 -1.5450  1.7210  3.7900
  946MOL0     H27659   1.746  10.244   4.821 -0.8055 -0.3373 -2.5476
  946MOL0     H27660   1.666  10.119   4.927  1.7016 -0.1412  1.5590
  946MOL0     H27661   1.944  10.158   4.656  0.4631  0.8628  0.4370
  946MOL0     H27662   2.220  10.134   4.748 -0.7999  0.6989  1.4727
  946MOL0     H27663   2.243   9.986   4.853 -1.2635 -1.4078 -0.1198
  946MOL0     H27664   2.193   9.990   4.552 -0.7478  1.0293  0.0275
  946MOL0     H27665   2.345   9.961   4.649 -0.4063  0.5910 -0.0940
  946MOL0     H27666   2.264   9.759   4.554 -3.1663  2.1789 -3.3680
  946MOL0     H27667   2.102   9.783   4.612 -0.3342 -1.4782  0.5734
  946MOL0     H27668   2.220   9.612   4.746  0.2656 -0.5450 -1.3108
  946MOL0     H27669   2.155   9.736   4.845  1.5240  0.6296  1.0453
  946MOL0     H27670   2.555   9.853   4.947 -3.0210 -0.3437 -0.9099
  946MOL0     H27671   2.790   9.842   4.855 -1.5358  2.1314 -1.2783
  946MOL0     H27672   3.130   9.600   4.940  0.2505  0.0757 -0.0124
  946MOL0     H27673   3.341   9.511   4.921 -0.8157 -1.5842 -0.9756
  946MOL0     H27674   3.504   9.448   4.485  1.9184  0.1520 -1.1581
  946MOL0     H27675   3.581   9.579   4.564  1.4951  0.1241 -2.3194
  946MOL0     H27676   3.658   9.282   4.632  0.3626  0.2793  0.4354
  946MOL0     H27677   3.740   9.377   4.506  1.7965  0.7886  1.8515
  946MOL0     H27678   3.787   9.550   4.661 -0.3535  0.3170  0.4717
  946MOL0     H27679   3.736   9.433   4.790  1.8326 -0.7788  0.0906
  946MOL0     H27680   3.968   9.372   4.605 -0.4641 -1.1889 -0.9638
  946MOL0     H27681   3.906   9.282   4.752 -0.3459  0.5444  2.0982
  946MOL0     H27682   3.979   9.478   4.899  2.4811  0.4985  0.2550
  946MOL0     H27683   4.025   9.567   4.752  1.5557 -1.1967 -1.5362
  946MOL0     H27684   4.193   9.468   4.897 -1.3548  0.8516  0.6733
  946MOL0     H27685   4.147   9.302   4.835  3.2478  0.6184  1.4222
  946MOL0     H27686   4.250   9.536   4.674  0.4266  0.1082 -3.2361
  946MOL0     H27687   4.193   9.380   4.611 -0.0735 -4.3683  2.4371
  946MOL0     H27688   4.426   9.428   4.791 -0.4102 -0.3862 -0.7297
  946MOL0     H27689   4.382   9.270   4.754 -1.6472 -0.9600 -2.2540
  946MOL0     H27690   3.313   9.524   4.486  1.5890  0.0805 -0.8057
  946MOL0     H27691   3.096   9.604   4.505 -1.7092  0.3029  1.3576
  946MOL0     H27692   2.652   9.556   4.552  0.2099  1.4288 -2.6021
  946MOL0     H27693   2.428   9.589   4.612 -0.2746 -1.1566  1.3397
  946MOL0     H27694   0.680  10.339   4.306 -1.2679 -1.0562 -1.5689
  946MOL0     H27695   0.474  10.222   4.254 -0.2419 -0.9054  0.3135
  946MOL0     H27696   0.119  10.103   4.319 -1.7173  0.7753 -1.2896
  946MOL0     H27697  -0.103  10.041   4.252  0.5646  0.0553  1.3063
  946MOL0     H27698  -0.242   9.957   4.075  1.9499 -1.6939 -0.2412
  946MOL0     H27699  -0.324   9.958   4.234  0.4964 -1.6200  1.1047
  946MOL0     H27700  -0.485   9.906   4.062 -0.6383 -1.0769 -0.5636
  946MOL0     H27701  -0.468   9.767   4.157 -1.5034 -0.2324 -1.0609
  946MOL0     H27702  -0.312   9.659   4.001  0.3341  1.2897  2.7611
  946MOL0     H27703  -0.310   9.787   3.895 -0.0693  0.6993  1.6937
  946MOL0     H27704  -0.558   9.753   3.844  2.3554 -0.4469 -2.2186
  946MOL0     H27705  -0.473   9.598   3.825  0.1433 -2.2230  1.7518
  946MOL0     H27706  -0.707   9.452   4.096  0.8339  1.8484  2.3666
  946MOL0     H27707   0.013   9.639   4.152 -0.9848  1.6160  0.4991
  946MOL0     H27708   0.340   9.626   4.225 -0.6012 -0.6300 -0.4271
  946MOL0     H27709   0.225   9.612   4.096 -1.6086  0.2523  1.0003
  946MOL0     H27710   0.344   9.743   4.089 -0.4903 -0.2319 -1.4731
  947MOL0     O27711   9.376   0.788   1.030  0.4210  0.5083 -0.3048
  947MOL0     C27712   9.350   0.685   1.093 -0.4040 -0.4127  0.7707
  947MOL0     O27713   9.420   0.569   1.098 -0.5813  0.3688 -0.2474
  947MOL0     C27714   9.543   0.555   1.032  0.2762  0.4879  0.9846
  947MOL0     C27715   9.645   0.645   1.037 -0.4258  0.2533  0.3313
  947MOL0     C27716   9.759   0.618   0.972 -0.1913 -0.3860  1.1387
  947MOL0     C27717   9.791   0.501   0.904 -0.1476  1.1440  1.0403
  947MOL0     O27718   9.914   0.465   0.839 -0.4484 -0.4849 -0.3801
  947MOL0     C27719  10.020   0.563   0.823  0.0002 -0.0069 -0.0496
  947MOL0     C27720  10.117   0.505   0.728  0.3059  0.6149  0.2010
  947MOL0     C27721  10.209   0.617   0.668  0.5613  0.5421 -1.0189
  947MOL0     C27722  10.300   0.561   0.554  0.4068 -0.4523 -0.7303
  947MOL0     C27723  10.407   0.652   0.518 -0.0439  0.7266  0.2059
  947MOL0     C27724  10.513   0.572   0.450 -0.4501  0.7229  0.3685
  947MOL0     C27725  10.643   0.654   0.427 -0.2314  0.0732  0.1871
  947MOL0     C27726  10.759   0.568   0.376  0.8327  0.1147  0.0538
  947MOL0     N27727  10.877   0.638   0.338 -0.4462 -0.5749  0.5066
  947MOL0     C27728  10.977   0.578   0.257  0.8946  0.9652  0.1127
  947MOL0     C27729  11.081   0.647   0.295  0.7868  1.3610  0.2582
  947MOL0     C27730  11.223   0.627   0.248  0.2640  0.4642  0.0977
  947MOL0     C27731  11.238   0.701   0.105 -0.0966  0.4916  0.6336
  947MOL0     C27732  11.158   0.635  -0.014 -0.7962 -0.1520 -0.5719
  947MOL0     C27733  11.203   0.485  -0.039  1.2540 -0.3663  0.4356
  947MOL0     O27734  11.339   0.447  -0.018  0.6846 -1.0561 -0.7582
  947MOL0     C27735  11.432   0.491  -0.110  0.1643 -0.0232 -0.4977
  947MOL0     C27736  11.408   0.574  -0.224  0.1299  0.6847 -0.7155
  947MOL0     C27737  11.512   0.610  -0.305  0.8277  0.9705  0.2285
  947MOL0     C27738  11.647   0.577  -0.278 -0.9514 -0.2749 -0.4172
  947MOL0     C27739  11.767   0.627  -0.355  1.1513  0.0594  0.8135
  947MOL0     O27740  11.887   0.588  -0.312  0.2068 -0.2503  0.0054
  947MOL0     C27741  12.006   0.631  -0.368 -0.4984 -0.3435 -0.5287
  947MOL0     C27742  12.034   0.619  -0.507 -0.0474  0.6542  1.2162
  947MOL0     C27743  12.157   0.637  -0.564 -0.4510  0.0918  0.4459
  947MOL0     C27744  12.255   0.689  -0.487 -0.7246  0.1139  0.7593
  947MOL0     O27745  12.383   0.723  -0.535 -0.1886 -1.7230 -1.0879
  947MOL0     C27746  12.405   0.742  -0.671 -0.8012  0.7825  0.5248
  947MOL0     C27747  12.471   0.623  -0.738 -0.0423  0.7399 -0.0147
  947MOL0     C27748  12.613   0.603  -0.690 -0.5193  0.6748 -0.0378
  947MOL0     C27749  12.674   0.475  -0.772 -0.9797  0.3231  0.2936
  947MOL0     C27750  12.827   0.479  -0.798 -0.9990  0.4792 -0.0917
  947MOL0     C27751  12.924   0.485  -0.667  0.1974  0.6500  0.3328
  947MOL0     C27752  13.050   0.562  -0.714  0.2754  0.1018  0.2251
  947MOL0     C27753  13.149   0.582  -0.604  1.0493 -1.0908  1.1795
  947MOL0    Cl27754  13.318   0.603  -0.669  0.7310  0.5108  0.2863
  947MOL0     C27755  12.234   0.696  -0.344  0.6523 -0.7422  0.4267
  947MOL0     C27756  12.114   0.670  -0.290 -0.2441  0.1710 -0.2171
  947MOL0     O27757  11.740   0.703  -0.453 -0.1257 -0.1281 -0.0956
  947MOL0     C27758  11.667   0.490  -0.166 -0.6195 -1.2539  0.0793
  947MOL0     C27759  11.567   0.450  -0.080 -0.1117  0.4225 -0.4135
  947MOL0     N27760  11.050   0.756   0.377  0.4096  0.4733 -0.0003
  947MOL0     N27761  10.927   0.751   0.403  0.6877 -0.2653  0.5384
  947MOL0     C27762   9.688   0.408   0.904  0.6190  0.0481  0.5015
  947MOL0     C27763   9.564   0.436   0.957 -0.7867 -0.7860 -0.2831
  947MOL0     C27764   9.221   0.696   1.171 -0.1597  0.4891  0.2879
  947MOL0     C27765   9.201   0.591   1.264 -0.9021 -0.2819 -0.4042
  947MOL0     C27766   9.083   0.577   1.344 -0.5281  0.2297  0.3620
  947MOL0     C27767   8.979   0.668   1.327  0.6365  0.4333  0.3735
  947MOL0     O27768   8.851   0.659   1.389  0.1529 -0.7003  0.2484
  947MOL0     C27769   8.817   0.559   1.487 -0.3402 -0.1979  0.5779
  947MOL0     C27770   8.804   0.418   1.428 -0.1349  0.8401  0.4945
  947MOL0     C27771   8.751   0.409   1.287  1.3481 -0.0826  0.5805
  947MOL0     C27772   8.606   0.469   1.284 -0.0648 -0.4664  0.2517
  947MOL0     C27773   8.502   0.387   1.343 -0.1313 -0.4887  0.2653
  947MOL0     C27774   8.420   0.321   1.402 -0.0725 -0.5015 -0.1429
  947MOL0     C27775   8.999   0.771   1.232 -0.3444  0.2886  0.0400
  947MOL0     C27776   9.111   0.790   1.156 -0.0369  0.6861  0.3798
  947MOL0     C27777   9.114   0.904   1.049  0.8868 -0.0482 -0.1421
  947MOL0     H27778   9.632   0.744   1.079 -0.0322 -0.1395  1.4094
  947MOL0     H27779   9.830   0.700   0.974 -3.1777  2.6599 -2.4186
  947MOL0     H27780   9.981   0.651   0.771 -0.4704 -1.2293 -1.9198
  947MOL0     H27781  10.066   0.584   0.920  0.7777 -2.3487  0.1707
  947MOL0     H27782  10.052   0.462   0.652  0.0505  2.8979 -0.9380
  947MOL0     H27783  10.170   0.420   0.773 -0.2393 -0.6605 -1.4409
  947MOL0     H27784  10.265   0.664   0.749 -0.6939  0.8561 -0.2961
  947MOL0     H27785  10.150   0.695   0.618 -1.1009 -0.7489 -1.1719
  947MOL0     H27786  10.348   0.473   0.599  2.4228  0.4207 -1.0542
  947MOL0     H27787  10.235   0.542   0.468 -2.6267  3.1222  0.5285
  947MOL0     H27788  10.370   0.731   0.452 -1.6583  2.6136  3.1259
  947MOL0     H27789  10.442   0.700   0.610 -1.5764 -0.0955  1.2739
  947MOL0     H27790  10.546   0.485   0.507  0.1500  1.0861  0.5798
  947MOL0     H27791  10.480   0.531   0.354  1.7295  0.0522 -0.1437
  947MOL0     H27792  10.670   0.703   0.521  1.3356  1.2943 -0.8622
  947MOL0     H27793  10.616   0.728   0.352 -1.9295 -1.2385 -0.5728
  947MOL0     H27794  10.777   0.490   0.450  0.1464 -0.9838 -0.9014
  947MOL0     H27795  10.721   0.519   0.286 -1.2776  3.3989 -1.0160
  947MOL0     H27796  10.971   0.485   0.201  0.7527  1.4201 -0.6406
  947MOL0     H27797  11.289   0.660   0.328 -1.3076 -0.4207  1.8401
  947MOL0     H27798  11.241   0.519   0.247  1.6423  0.6670  0.8166
  947MOL0     H27799  11.218   0.808   0.119  2.2771  0.9603  0.7693
  947MOL0     H27800  11.342   0.701   0.072  0.2275  0.3267  1.6060
  947MOL0     H27801  11.171   0.692  -0.107 -2.2260  1.0710 -0.0749
  947MOL0     H27802  11.049   0.640  -0.000 -1.3285 -0.3803 -3.8801
  947MOL0     H27803  11.168   0.457  -0.139  1.9114 -1.5187  0.5149
  947MOL0     H27804  11.143   0.420   0.025 -0.7602  0.4115 -0.5718
  947MOL0     H27805  11.308   0.600  -0.254 -0.2818  0.8699  0.7348
  947MOL0     H27806  11.484   0.671  -0.390 -1.5474 -2.0242 -1.3307
  947MOL0     H27807  11.953   0.579  -0.567  1.3432  1.6400 -1.4922
  947MOL0     H27808  12.166   0.615  -0.670 -2.4612  1.2470 -0.0257
  947MOL0     H27809  12.311   0.777  -0.714  0.3354  1.6329 -1.4137
  947MOL0     H27810  12.475   0.823  -0.694 -0.2307  0.5310  1.3251
  947MOL0     H27811  12.412   0.535  -0.712  3.2477 -1.1839  1.4349
  947MOL0     H27812  12.467   0.634  -0.847 -2.3215 -0.5143 -0.1045
  947MOL0     H27813  12.678   0.688  -0.713  0.2064  0.6417  1.6924
  947MOL0     H27814  12.612   0.583  -0.582 -4.2768  0.1451 -0.0274
  947MOL0     H27815  12.635   0.473  -0.874  1.2720 -4.7583 -0.7835
  947MOL0     H27816  12.646   0.375  -0.738 -0.9260  0.0124 -0.5361
  947MOL0     H27817  12.848   0.567  -0.860 -2.3578  0.9458  0.0790
  947MOL0     H27818  12.856   0.395  -0.862  2.5897  0.4775  1.3111
  947MOL0     H27819  12.871   0.543  -0.590  0.3828  0.6738  0.4436
  947MOL0     H27820  12.947   0.382  -0.639 -0.4573 -0.2946 -2.3069
  947MOL0     H27821  13.025   0.658  -0.761 -0.4456 -0.8157 -1.3181
  947MOL0     H27822  13.111   0.500  -0.780  0.1645 -3.1065  2.8932
  947MOL0     H27823  13.122   0.670  -0.545  0.2973 -0.2609 -0.3206
  947MOL0     H27824  13.151   0.502  -0.530  2.4678 -2.5800 -0.3515
  947MOL0     H27825  12.322   0.725  -0.288  1.1732 -1.5714  0.0762
  947MOL0     H27826  12.087   0.677  -0.185  2.9887  2.0192  0.6085
  947MOL0     H27827  11.769   0.462  -0.142  0.3637 -0.0178 -2.3001
  947MOL0     H27828  11.571   0.387   0.008 -1.0958 -0.5020 -1.0112
  947MOL0     H27829   9.699   0.313   0.851 -1.8999  0.5183 -1.0097
  947MOL0     H27830   9.481   0.367   0.951 -0.6225 -0.9904 -0.2244
  947MOL0     H27831   9.276   0.513   1.274 -0.1865  0.4597  0.1297
  947MOL0     H27832   9.079   0.481   1.395 -1.1360 -1.3965 -2.5683
  947MOL0     H27833   8.720   0.585   1.530 -1.8645 -1.7919 -1.6355
  947MOL0     H27834   8.894   0.552   1.564 -0.0956 -2.2923  0.2216
  947MOL0     H27835   8.736   0.364   1.494 -0.3277  0.0946 -0.3012
  947MOL0     H27836   8.902   0.371   1.438 -0.1742  0.3865 -1.0912
  947MOL0     H27837   8.748   0.303   1.259 -0.4411  0.1560 -0.3426
  947MOL0     H27838   8.808   0.467   1.213  1.8234 -1.9240 -0.5746
  947MOL0     H27839   8.611   0.570   1.327 -1.2911 -0.7347  1.0799
  947MOL0     H27840   8.571   0.491   1.183 -2.0351 -2.6229  0.3939
  947MOL0     H27841   8.349   0.259   1.454 -0.5978 -1.7236 -2.1966
  947MOL0     H27842   8.913   0.837   1.218 -1.9790 -0.7999  3.5953
  947MOL0     H27843   9.218   0.937   1.035  0.4372  2.1020  1.1198
  947MOL0     H27844   9.076   0.849   0.962 -2.4241 -0.5253  1.4449
  947MOL0     H27845   9.064   0.996   1.079  0.4258  0.0893 -1.2948
  948MOL0     O27846   9.078  10.541   0.431  0.5323 -0.0469 -0.3927
  948MOL0     C27847   9.063  10.522   0.552  0.5388  1.3287  0.4282
  948MOL0     O27848   9.160  10.533   0.645  0.4777  0.9404 -0.1649
  948MOL0     C27849   9.281  10.583   0.615 -0.7144 -0.8948 -0.1218
  948MOL0     C27850   9.300  10.700   0.534  0.2259 -0.5356  0.0762
  948MOL0     C27851   9.426  10.733   0.488 -0.2947  0.1877 -0.0429
  948MOL0     C27852   9.535  10.666   0.535 -1.0386  0.9561  0.1595
  948MOL0     O27853   9.667  10.687   0.497 -0.3335 -0.9829  1.1106
  948MOL0     C27854   9.697  10.807   0.420 -0.7832  0.2208  0.7332
  948MOL0     C27855   9.855  10.832   0.427 -0.1549 -0.1568  0.4250
  948MOL0     C27856   9.893  10.860   0.577 -0.5191  0.3918  0.9163
  948MOL0     C27857   9.929  11.004   0.599 -0.0236 -0.2439 -0.8327
  948MOL0     C27858   9.957  11.056   0.740  0.1782 -0.2119  1.2063
  948MOL0     C27859  10.094  11.012   0.776 -0.6107  0.0766  0.3371
  948MOL0     C27860  10.111  11.014   0.935  0.6043 -0.5254 -0.2288
  948MOL0     C27861  10.251  10.974   0.972  0.5397 -1.0018  0.2630
  948MOL0     N27862  10.342  11.076   0.915 -0.2985  0.4213  1.2854
  948MOL0     C27863  10.353  11.209   0.949 -0.4191 -0.1056 -0.2538
  948MOL0     C27864  10.426  11.264   0.842  0.1841 -0.0893  0.3700
  948MOL0     C27865  10.465  11.400   0.818  1.0968  0.4568  0.7278
  948MOL0     C27866  10.576  11.445   0.918 -0.2501  0.5904  0.4839
  948MOL0     C27867  10.613  11.596   0.893  0.3447 -0.4145 -0.5626
  948MOL0     C27868  10.654  11.632   0.751 -0.4961 -0.0063  0.2963
  948MOL0     O27869  10.733  11.756   0.742 -0.0863 -0.2363  0.3219
  948MOL0     C27870  10.874  11.769   0.751 -0.1204  0.6746  0.4935
  948MOL0     C27871  10.933  11.892   0.729 -0.5322 -0.6311 -1.0242
  948MOL0     C27872  11.067  11.915   0.732  0.1779 -0.2493 -0.0164
  948MOL0     C27873  11.153  11.800   0.732 -0.3695  0.1273 -0.2022
  948MOL0     C27874  11.296  11.817   0.718  0.6431 -1.2965  0.0059
  948MOL0     O27875  11.345  11.948   0.742 -0.3245 -0.0341  0.3253
  948MOL0     C27876  11.479  11.959   0.767 -0.0930 -0.2786 -1.1738
  948MOL0     C27877  11.520  11.988   0.899 -0.4603 -0.7849  0.1757
  948MOL0     C27878  11.659  11.990   0.929  1.0597  0.6680  0.9564
  948MOL0     C27879  11.755  11.985   0.825 -0.4334  0.0219 -0.8944
  948MOL0     O27880  11.886  12.006   0.871 -0.1472  0.4009 -0.4633
  948MOL0     C27881  11.983  12.036   0.776 -0.9421 -1.1141  0.0344
  948MOL0     C27882  12.118  12.060   0.845  0.0408  0.7106 -0.6817
  948MOL0     C27883  12.176  12.200   0.836  0.3550  0.0490 -0.0920
  948MOL0     C27884  12.303  12.214   0.924 -0.4404  0.0090 -0.9661
  948MOL0     C27885  12.360  12.355   0.925 -0.0238 -0.0068 -0.2497
  948MOL0     C27886  12.471  12.371   1.029  0.4954  1.1022  0.5399
  948MOL0     C27887  12.536  12.502   1.012 -0.5815 -0.6905  0.2442
  948MOL0     C27888  12.667  12.495   1.098  0.0561 -0.3047 -0.9496
  948MOL0    Cl27889  12.764  12.656   1.098  0.0021  0.1313 -0.3583
  948MOL0     C27890  11.714  11.955   0.697 -0.5641  0.4984 -0.1852
  948MOL0     C27891  11.582  11.939   0.667  0.9111 -0.9125 -0.7551
  948MOL0     O27892  11.358  11.716   0.716  0.2272 -0.6856  0.0322
  948MOL0     C27893  11.101  11.666   0.741  1.0881 -0.4787  0.0818
  948MOL0     C27894  10.962  11.661   0.768 -0.3316  0.0567  0.1295
  948MOL0     N27895  10.470  11.162   0.763 -0.2586  0.3286 -0.4984
  948MOL0     N27896  10.415  11.047   0.805  0.1285 -0.6310 -0.3504
  948MOL0     C27897   9.520  10.550   0.618  1.1279  0.1761  0.0515
  948MOL0     C27898   9.388  10.508   0.661  0.4302 -0.7963  0.1424
  948MOL0     C27899   8.926  10.488   0.596  0.2809  0.5516 -0.3546
  948MOL0     C27900   8.842  10.414   0.512  0.5933  0.0268  0.8826
  948MOL0     C27901   8.712  10.388   0.547  0.4695  0.4328 -0.5272
  948MOL0     C27902   8.660  10.420   0.671  0.0038  0.6563  0.3220
  948MOL0     O27903   8.528  10.386   0.690  0.3677 -0.0411  0.6109
  948MOL0     C27904   8.461  10.410   0.816 -0.5265 -0.7580 -0.2492
  948MOL0     C27905   8.410  10.554   0.812 -0.8167 -0.0195 -0.1051
  948MOL0     C27906   8.300  10.591   0.706 -0.1216  0.2844 -0.5155
  948MOL0     C27907   8.290  10.738   0.686 -0.5649  0.9715 -0.3797
  948MOL0     C27908   8.203  10.774   0.574 -0.7587  0.3109  0.1149
  948MOL0     C27909   8.129  10.801   0.485 -0.6224  0.1392  0.5842
  948MOL0     C27910   8.743  10.500   0.752 -0.2715 -0.2355  0.1724
  948MOL0     C27911   8.875  10.532   0.713  0.3182  0.7021  0.2452
  948MOL0     C27912   8.944  10.631   0.798 -0.5571  0.2553 -0.2298
  948MOL0     H27913   9.216  10.765   0.514  0.6915 -0.5317 -2.1012
  948MOL0     H27914   9.427  10.828   0.435 -0.1319  0.6557  0.7956
  948MOL0     H27915   9.668  10.779   0.319 -0.6899 -1.0065  1.0275
  948MOL0     H27916   9.653  10.903   0.448  0.6271  0.6125  1.7100
  948MOL0     H27917   9.875  10.911   0.354  2.8058 -2.1640 -1.1375
  948MOL0     H27918   9.907  10.740   0.402 -0.6764 -0.0843 -1.0674
  948MOL0     H27919   9.982  10.800   0.602 -0.1477  0.8260  0.6522
  948MOL0     H27920   9.813  10.829   0.644 -0.5630  0.4592  0.8948
  948MOL0     H27921  10.020  11.019   0.542  2.2575 -2.7339  1.8368
  948MOL0     H27922   9.850  11.068   0.557 -0.7908 -1.5498 -1.4357
  948MOL0     H27923   9.952  11.165   0.737  0.2826 -0.2080  1.1491
  948MOL0     H27924   9.885  11.008   0.806  0.7893 -0.8237  1.4412
  948MOL0     H27925  10.121  10.913   0.737 -1.4232  0.9110 -2.6146
  948MOL0     H27926  10.167  11.082   0.734 -1.1689 -0.8447 -2.3839
  948MOL0     H27927  10.025  10.952   0.964  1.3509 -1.7683 -0.6201
  948MOL0     H27928  10.085  11.114   0.973 -4.9323 -0.5604 -2.8370
  948MOL0     H27929  10.271  10.987   1.079  0.6112  0.2476  0.1157
  948MOL0     H27930  10.283  10.873   0.945  0.4348 -1.4648  1.7714
  948MOL0     H27931  10.296  11.264   1.023  0.3724  1.0396 -0.4675
  948MOL0     H27932  10.492  11.412   0.712 -1.4188 -0.8965 -0.1438
  948MOL0     H27933  10.381  11.469   0.826  0.9415  0.5843 -1.3118
  948MOL0     H27934  10.555  11.421   1.023  0.4590 -1.5956  0.1717
  948MOL0     H27935  10.663  11.385   0.891 -0.5762  1.1223 -2.0414
  948MOL0     H27936  10.699  11.620   0.956  0.4869 -0.3265 -0.7893
  948MOL0     H27937  10.537  11.667   0.927  0.1905 -1.0013  0.3772
  948MOL0     H27938  10.572  11.664   0.686 -0.4867  1.2453  0.8755
  948MOL0     H27939  10.699  11.543   0.707 -0.9325  0.4619 -1.1426
  948MOL0     H27940  10.870  11.976   0.703 -0.9938  0.0711  2.0089
  948MOL0     H27941  11.103  12.018   0.724 -1.8148  0.4441 -0.6147
  948MOL0     H27942  11.448  12.008   0.978 -0.6672  0.6050 -0.3483
  948MOL0     H27943  11.700  12.005   1.029  0.9203 -0.1545  1.1471
  948MOL0     H27944  12.000  11.945   0.717  0.6524 -2.9545  3.0845
  948MOL0     H27945  11.957  12.124   0.717 -1.0325 -0.4996  0.9668
  948MOL0     H27946  12.096  12.044   0.951 -3.6039 -1.3144 -1.5474
  948MOL0     H27947  12.187  11.989   0.798 -1.3335 -0.5204 -0.9138
  948MOL0     H27948  12.196  12.221   0.730 -0.7790 -1.7530 -0.7274
  948MOL0     H27949  12.106  12.274   0.876 -2.9117 -2.9636  0.3693
  948MOL0     H27950  12.383  12.150   0.887  0.5278  1.0752 -0.7759
  948MOL0     H27951  12.288  12.183   1.028  2.6006 -0.8195 -0.6896
  948MOL0     H27952  12.279  12.420   0.961 -0.7333 -0.9383 -0.1351
  948MOL0     H27953  12.399  12.386   0.827 -1.0330 -0.6834 -0.8783
  948MOL0     H27954  12.430  12.347   1.128 -1.0683  2.0305  0.1478
  948MOL0     H27955  12.548  12.293   1.027 -0.3130  0.2386  1.8190
  948MOL0     H27956  12.485  12.590   1.054  2.4799  0.7540  1.3007
  948MOL0     H27957  12.566  12.533   0.911  0.5187  1.5505  1.1804
  948MOL0     H27958  12.642  12.474   1.202 -0.7855  0.2184 -1.0320
  948MOL0     H27959  12.736  12.418   1.063 -2.1907 -1.7507 -2.4844
  948MOL0     H27960  11.783  11.940   0.614 -2.3549 -0.6874 -1.5638
  948MOL0     H27961  11.557  11.922   0.563  0.7648  1.3583 -1.1447
  948MOL0     H27962  11.164  11.578   0.753 -0.4772 -1.3592  2.5101
  948MOL0     H27963  10.921  11.561   0.777  1.9018 -1.1948 -2.2597
  948MOL0     H27964   9.603  10.491   0.655  0.0006 -0.8967  0.9953
  948MOL0     H27965   9.382  10.415   0.718  3.2861 -1.6576 -0.7561
  948MOL0     H27966   8.877  10.388   0.413  1.5649 -1.6421  1.6273
  948MOL0     H27967   8.650  10.323   0.487 -0.0432 -2.4952  2.7954
  948MOL0     H27968   8.528  10.420   0.902 -0.3672 -0.8070 -0.3688
  948MOL0     H27969   8.380  10.337   0.828  0.6235 -1.8126  1.6020
  948MOL0     H27970   8.487  10.631   0.800 -1.5516  0.5328 -1.5625
  948MOL0     H27971   8.361  10.561   0.909  1.5293 -2.8965  1.4605
  948MOL0     H27972   8.209  10.547   0.749  0.0084 -0.3304 -0.8516
  948MOL0     H27973   8.317  10.546   0.608 -1.2163 -0.7290 -0.2647
  948MOL0     H27974   8.245  10.792   0.770  0.8901  0.4043  0.8146
  948MOL0     H27975   8.390  10.782   0.682 -0.9107  1.8397  0.2294
  948MOL0     H27976   8.063  10.817   0.402 -2.4356  0.9495  2.1066
  948MOL0     H27977   8.707  10.543   0.845 -1.8744 -0.0649 -0.4801
  948MOL0     H27978   9.016  10.574   0.858 -2.2180 -1.6591  0.0309
  948MOL0     H27979   8.999  10.700   0.733  0.0186 -0.1595 -0.1880
  948MOL0     H27980   8.888  10.702   0.859  0.5622  0.8900  0.0950
  949MOL0     O27981   8.032   3.981   9.789 -0.4398  0.3451 -0.2742
  949MOL0     C27982   7.996   3.867   9.775  0.2035 -0.0206  0.7732
  949MOL0     O27983   7.861   3.825   9.761  0.3977 -0.2189 -0.1075
  949MOL0     C27984   7.764   3.915   9.735  0.9849 -0.1414  0.0817
  949MOL0     C27985   7.785   4.014   9.633 -0.4944 -0.1919 -0.5234
  949MOL0     C27986   7.694   4.114   9.612 -0.8810 -0.6554  0.5254
  949MOL0     C27987   7.574   4.104   9.680 -0.0089 -0.4930  0.8527
  949MOL0     O27988   7.462   4.181   9.659  0.0209  0.1479  0.2146
  949MOL0     C27989   7.437   4.254   9.544  0.2576  0.4190 -0.4535
  949MOL0     C27990   7.290   4.277   9.527 -0.1361 -0.8661 -0.2784
  949MOL0     C27991   7.245   4.377   9.635 -0.4600  0.2584 -0.4183
  949MOL0     C27992   7.303   4.519   9.611  0.3775  0.5326 -0.3590
  949MOL0     C27993   7.227   4.634   9.680  0.6035  0.2540  0.1130
  949MOL0     C27994   7.207   4.631   9.834  0.6035 -0.4261 -0.1054
  949MOL0     C27995   7.334   4.636   9.913 -0.3943  0.7274  0.9640
  949MOL0     C27996   7.324   4.716  10.041 -0.3124  0.1883  0.9237
  949MOL0     N27997   7.450   4.704  10.126  0.0838  0.4904  0.0678
  949MOL0     C27998   7.477   4.593  10.203 -0.3769 -0.5363 -0.0524
  949MOL0     C27999   7.586   4.623  10.274 -0.1603  0.4939  0.0158
  949MOL0     C28000   7.656   4.523  10.360 -0.4066  0.3074 -0.0794
  949MOL0     C28001   7.805   4.552  10.384 -0.2676 -0.1811  0.1822
  949MOL0     C28002   7.867   4.433  10.455 -0.0929 -0.5444  0.6443
  949MOL0     C28003   8.015   4.471  10.471  0.7609 -0.3388  0.4696
  949MOL0     O28004   8.068   4.390  10.576 -0.6454 -0.1798  0.4431
  949MOL0     C28005   8.192   4.424  10.630 -0.2041 -0.0520  0.0904
  949MOL0     C28006   8.290   4.496  10.563  0.0885 -0.0240 -0.3552
  949MOL0     C28007   8.406   4.535  10.631 -0.1145  0.6779  0.7609
  949MOL0     C28008   8.437   4.486  10.756 -0.1612  0.2042 -0.6169
  949MOL0     C28009   8.570   4.519  10.816 -0.2916  0.0502 -0.4067
  949MOL0     O28010   8.665   4.567  10.733  0.4580  0.8689 -0.5004
  949MOL0     C28011   8.792   4.598  10.769 -0.5272  0.6201 -0.2876
  949MOL0     C28012   8.858   4.682  10.688 -0.8409 -0.4661  0.3804
  949MOL0     C28013   8.990   4.726  10.703  0.7231  0.1252  0.7202
  949MOL0     C28014   9.067   4.655  10.799 -0.6940 -0.4518  0.2909
  949MOL0     O28015   9.202   4.687  10.816 -0.3027 -1.2278  0.1811
  949MOL0     C28016   9.295   4.579  10.820  0.4597  0.2171 -0.8385
  949MOL0     C28017   9.355   4.542  10.964 -0.5686 -0.3545 -0.2532
  949MOL0     C28018   9.463   4.641  11.005  0.3703  0.1793 -0.1800
  949MOL0     C28019   9.606   4.593  10.992 -0.3963  0.5056 -0.2120
  949MOL0     C28020   9.634   4.492  11.110 -0.6149 -0.3291 -0.2748
  949MOL0     C28021   9.784   4.472  11.139 -0.2539 -1.0735  0.0035
  949MOL0     C28022   9.857   4.599  11.187 -0.2206 -0.8633  1.1588
  949MOL0     C28023   9.963   4.571  11.296  0.3462 -0.4604 -1.0815
  949MOL0    Cl28024  10.125   4.523  11.247 -0.0521  0.3507  0.3012
  949MOL0     C28025   9.004   4.569  10.892  0.9676 -0.2902 -0.0973
  949MOL0     C28026   8.869   4.542  10.871  0.2104 -0.1209 -0.4284
  949MOL0     O28027   8.578   4.492  10.939 -0.2365  0.1193  0.4519
  949MOL0     C28028   8.332   4.419  10.823 -1.2275  0.0882 -0.6253
  949MOL0     C28029   8.214   4.393  10.758 -0.4183 -0.3270  1.0759
  949MOL0     N28030   7.614   4.753  10.264 -0.1700 -0.3555  0.3131
  949MOL0     N28031   7.522   4.803  10.181  1.0276  0.0108 -0.6185
  949MOL0     C28032   7.550   4.006   9.771 -0.0408  0.0768 -0.7895
  949MOL0     C28033   7.644   3.906   9.809 -0.0012  0.0873  0.4676
  949MOL0     C28034   8.096   3.752   9.798 -0.1942 -0.7148 -0.3717
  949MOL0     C28035   8.061   3.625   9.854  0.1394  0.1741 -0.5521
  949MOL0     C28036   8.154   3.528   9.883 -0.0327  0.6857 -0.6433
  949MOL0     C28037   8.292   3.554   9.867  0.9093  0.0253 -0.4921
  949MOL0     O28038   8.389   3.458   9.883  0.2788  0.3743 -0.1943
  949MOL0     C28039   8.360   3.327   9.939  0.0564  0.6017  0.0801
  949MOL0     C28040   8.483   3.238   9.941  0.0546  0.5313  0.6292
  949MOL0     C28041   8.437   3.090   9.933 -0.1477  0.6752  0.0620
  949MOL0     C28042   8.543   2.988   9.896 -0.6759 -0.0969  0.2828
  949MOL0     C28043   8.657   2.983   9.990 -1.4099 -0.2860 -0.0636
  949MOL0     C28044   8.752   2.999  10.069 -0.4341  0.3655 -0.1166
  949MOL0     C28045   8.334   3.677   9.802  0.0972  0.1651 -0.5999
  949MOL0     C28046   8.232   3.766   9.763 -0.5901 -0.2258  0.1406
  949MOL0     C28047   8.280   3.892   9.685 -0.2455  0.0010  0.9590
  949MOL0     H28048   7.870   4.000   9.568 -0.6002 -1.0852 -0.4766
  949MOL0     H28049   7.714   4.191   9.539 -0.6914 -1.7188 -0.5565
  949MOL0     H28050   7.488   4.351   9.538  0.8460  0.0860 -0.9725
  949MOL0     H28051   7.469   4.196   9.457 -0.8161  0.5671 -0.9563
  949MOL0     H28052   7.236   4.182   9.538  1.1651 -1.4690  1.4898
  949MOL0     H28053   7.274   4.311   9.425  1.9182  0.6928 -0.1549
  949MOL0     H28054   7.259   4.348   9.740 -1.0339 -2.6745 -1.0396
  949MOL0     H28055   7.138   4.391   9.617 -0.4734 -0.3297 -0.8478
  949MOL0     H28056   7.401   4.527   9.659 -0.2317 -0.4712  1.1299
  949MOL0     H28057   7.311   4.536   9.504  1.6884 -2.7415 -0.9107
  949MOL0     H28058   7.278   4.727   9.651  0.0487  0.9300  1.2018
  949MOL0     H28059   7.125   4.634   9.643  0.0758 -0.4914  1.4953
  949MOL0     H28060   7.150   4.722   9.858 -1.0090 -1.7019  1.0890
  949MOL0     H28061   7.151   4.544   9.867  1.6374 -2.3488 -3.0403
  949MOL0     H28062   7.421   4.677   9.862 -1.0532  3.3749  1.8293
  949MOL0     H28063   7.347   4.529   9.934 -2.2818  0.0389 -1.0012
  949MOL0     H28064   7.329   4.819  10.004  1.9315 -0.7917 -1.9544
  949MOL0     H28065   7.237   4.685  10.098  0.3589 -1.7982  0.9573
  949MOL0     H28066   7.422   4.500  10.193  0.5227 -0.9297 -1.5958
  949MOL0     H28067   7.599   4.524  10.454 -0.1304 -0.3276  0.1038
  949MOL0     H28068   7.652   4.420  10.322 -1.0671  1.1536 -2.4710
  949MOL0     H28069   7.847   4.553  10.283 -0.8470 -0.7447 -0.0718
  949MOL0     H28070   7.823   4.648  10.434 -2.4397  0.3434  0.0882
  949MOL0     H28071   7.881   4.340  10.398 -2.1482  0.9198 -2.5994
  949MOL0     H28072   7.821   4.410  10.552 -0.8931  2.9958  1.2298
  949MOL0     H28073   8.009   4.571  10.515 -1.3617 -0.1846 -0.0917
  949MOL0     H28074   8.058   4.465  10.371 -1.9784 -1.0281 -0.7430
  949MOL0     H28075   8.267   4.532  10.463 -0.7491  1.1248  0.2203
  949MOL0     H28076   8.487   4.583  10.577  3.8389 -0.7433  4.7269
  949MOL0     H28077   8.805   4.729  10.606  1.2665 -0.5541 -1.1418
  949MOL0     H28078   9.028   4.790  10.624  0.0785  0.5871  0.7774
  949MOL0     H28079   9.251   4.493  10.769 -1.6775  1.0302 -0.4434
  949MOL0     H28080   9.381   4.603  10.755  3.8561 -2.5824  2.1839
  949MOL0     H28081   9.277   4.548  11.041 -0.2943  1.3989 -0.0769
  949MOL0     H28082   9.395   4.440  10.959  1.5025  0.4860 -2.5971
  949MOL0     H28083   9.446   4.733  10.948  1.1569 -0.2519 -1.1229
  949MOL0     H28084   9.449   4.678  11.107 -1.5775 -0.3678 -0.1992
  949MOL0     H28085   9.680   4.674  10.999 -0.5434  0.5879  0.5564
  949MOL0     H28086   9.623   4.551  10.893 -0.8622  1.0365 -0.5221
  949MOL0     H28087   9.577   4.399  11.103 -2.3104  0.4414  1.9751
  949MOL0     H28088   9.588   4.532  11.202 -0.2198 -0.9546  0.2031
  949MOL0     H28089   9.793   4.401  11.222  1.0877 -2.3829 -1.1911
  949MOL0     H28090   9.840   4.426  11.057  2.8696 -0.0410  1.4106
  949MOL0     H28091   9.773   4.653  11.231 -0.7505 -1.7099  1.2129
  949MOL0     H28092   9.904   4.652  11.103  1.3070 -0.9260  1.9405
  949MOL0     H28093   9.986   4.653  11.365  1.9171  0.5323 -2.6937
  949MOL0     H28094   9.917   4.498  11.363 -1.4843  2.3501  0.9739
  949MOL0     H28095   9.062   4.521  10.971 -1.3478 -0.3516  1.6597
  949MOL0     H28096   8.829   4.466  10.937  0.0650 -2.3719 -2.9150
  949MOL0     H28097   8.330   4.405  10.931 -1.2226  3.0333 -0.1753
  949MOL0     H28098   8.136   4.358  10.825  0.0751 -2.1545  0.7379
  949MOL0     H28099   7.458   4.020   9.826 -0.9733  1.7791 -2.6445
  949MOL0     H28100   7.632   3.826   9.882  0.4873 -2.4408 -2.0482
  949MOL0     H28101   7.954   3.609   9.867 -0.5390  3.5899 -1.1885
  949MOL0     H28102   8.118   3.428   9.905  1.0921 -0.1884 -2.5139
  949MOL0     H28103   8.278   3.276   9.887  0.2910 -0.6840  0.9331
  949MOL0     H28104   8.322   3.339  10.041  1.0023  0.9994  0.3934
  949MOL0     H28105   8.538   3.261  10.033 -2.3231  2.5683  1.6233
  949MOL0     H28106   8.542   3.268   9.853  1.3212  0.3152  1.3706
  949MOL0     H28107   8.352   3.074   9.866 -2.4909  1.4262  2.6570
  949MOL0     H28108   8.409   3.074  10.037 -2.0386  0.6658 -0.4080
  949MOL0     H28109   8.483   2.897   9.905 -2.4731  0.8431 -1.3579
  949MOL0     H28110   8.576   2.995   9.792 -0.5768  0.5932  0.3532
  949MOL0     H28111   8.834   3.022  10.133  0.7987 -1.8697 -0.8093
  949MOL0     H28112   8.437   3.704   9.779 -0.0658  1.7423  0.3623
  949MOL0     H28113   8.223   3.917   9.595  1.7508  0.3585 -0.2556
  949MOL0     H28114   8.289   3.982   9.745  0.5330 -0.8985  2.2531
  949MOL0     H28115   8.378   3.864   9.645  0.3200 -0.1504  2.4032
  950MOL0     O28116  10.715   5.066   8.765  0.1266 -0.2014  0.0596
  950MOL0     C28117  10.683   5.008   8.863  0.5826  0.0686  0.0243
  950MOL0     O28118  10.758   5.001   8.979  0.3040 -0.6833  0.1774
  950MOL0     C28119  10.883   5.063   8.995  0.0686 -1.3745 -0.0295
  950MOL0     C28120  10.898   5.207   8.988 -0.0984 -0.4583 -0.3764
  950MOL0     C28121  11.028   5.264   9.001 -0.6018  0.1619 -0.1469
  950MOL0     C28122  11.135   5.189   9.040  0.3516  0.3218  0.6353
  950MOL0     O28123  11.253   5.259   9.057 -0.2067  0.7658  0.7128
  950MOL0     C28124  11.374   5.193   9.061 -0.4848 -0.0572 -0.4454
  950MOL0     C28125  11.492   5.283   9.111  0.1939 -0.4472 -0.0271
  950MOL0     C28126  11.629   5.256   9.050  0.5107 -0.2600  0.5885
  950MOL0     C28127  11.740   5.344   9.097 -0.2062 -0.0269  0.3404
  950MOL0     C28128  11.878   5.303   9.043 -0.5433 -0.0972  0.2284
  950MOL0     C28129  11.995   5.386   9.083  0.1292  0.3177  0.5286
  950MOL0     C28130  12.120   5.348   9.002  0.4524  0.2282 -0.0424
  950MOL0     C28131  12.236   5.413   9.063 -0.1795 -0.5847 -0.1683
  950MOL0     N28132  12.352   5.401   8.976 -0.2382 -0.9650 -0.2513
  950MOL0     C28133  12.460   5.490   8.966 -0.7539  0.6590 -0.1846
  950MOL0     C28134  12.560   5.422   8.897  0.6785  0.0914 -0.7161
  950MOL0     C28135  12.685   5.492   8.846  0.1281 -0.1555  0.9848
  950MOL0     C28136  12.801   5.431   8.922 -0.0726  0.4127  1.1166
  950MOL0     C28137  12.820   5.475   9.068 -0.3462  0.2252  0.1828
  950MOL0     C28138  12.948   5.430   9.138 -0.3109  0.4411 -0.3699
  950MOL0     O28139  13.056   5.497   9.075  0.2139  0.1122  0.0592
  950MOL0     C28140  13.176   5.432   9.105 -0.2632 -0.2905 -0.4106
  950MOL0     C28141  13.238   5.429   9.232 -0.7613  0.7281  0.5179
  950MOL0     C28142  13.363   5.357   9.254  0.0848 -0.1464  0.0212
  950MOL0     C28143  13.427   5.298   9.150  0.3548  0.5042  0.4284
  950MOL0     C28144  13.555   5.230   9.181 -0.3780 -0.0517  0.0234
  950MOL0     O28145  13.567   5.177   9.302  1.2001 -0.2979  0.2245
  950MOL0     C28146  13.675   5.104   9.348  0.2166 -0.5092  0.4352
  950MOL0     C28147  13.806   5.164   9.376 -0.4401  0.2454  0.0360
  950MOL0     C28148  13.913   5.092   9.418  0.6845  0.0137  1.0504
  950MOL0     C28149  13.890   4.956   9.444  0.3440  0.2119  0.3097
  950MOL0     O28150  13.984   4.878   9.499  0.3776 -0.6874  0.3509
  950MOL0     C28151  14.086   4.930   9.581 -0.3036  0.0295  0.7861
  950MOL0     C28152  14.145   4.821   9.677  0.0612 -0.3695 -0.3299
  950MOL0     C28153  14.066   4.812   9.813  0.0992 -0.5472  0.4391
  950MOL0     C28154  13.913   4.792   9.805 -0.1469 -0.6882 -0.3400
  950MOL0     C28155  13.831   4.742   9.923 -0.4953 -0.5216  0.1160
  950MOL0     C28156  13.680   4.776   9.907 -0.7056  0.4386  0.1890
  950MOL0     C28157  13.641   4.909   9.977  0.7384 -0.8242 -0.2726
  950MOL0     C28158  13.486   4.935   9.959  0.1944  0.1651 -0.3155
  950MOL0    Cl28159  13.442   5.032  10.095 -0.2436  0.3141  0.0814
  950MOL0     C28160  13.765   4.899   9.430  0.5816 -0.8449 -0.4553
  950MOL0     C28161  13.658   4.975   9.380  0.0396  1.5117  0.4113
  950MOL0     O28162  13.647   5.229   9.102 -0.3334 -0.0442 -0.1740
  950MOL0     C28163  13.372   5.313   9.018 -0.5722 -0.2518 -0.0889
  950MOL0     C28164  13.251   5.382   9.000 -0.2852  0.7043  0.1281
  950MOL0     N28165  12.516   5.289   8.883 -0.3735  0.3198  0.0033
  950MOL0     N28166  12.391   5.285   8.921 -0.5145  0.0639 -0.5189
  950MOL0     C28167  11.117   5.052   9.054 -0.4528  0.1570  0.6769
  950MOL0     C28168  10.993   4.988   9.033  0.2478  0.1707  1.4041
  950MOL0     C28169  10.549   4.960   8.881  0.1749 -0.7469  0.4079
  950MOL0     C28170  10.501   4.954   9.010 -0.1573 -0.0689 -0.0543
  950MOL0     C28171  10.380   4.903   9.040 -0.9714  0.5934  0.1892
  950MOL0     C28172  10.298   4.844   8.941 -0.0091  0.2692 -0.0479
  950MOL0     O28173  10.179   4.792   8.971 -0.2851 -0.1068 -0.2592
  950MOL0     C28174  10.081   4.758   8.876 -0.1081  0.7138  0.6553
  950MOL0     C28175   9.948   4.714   8.937 -0.3339  0.0088  0.1785
  950MOL0     C28176   9.852   4.834   8.953 -0.2913  0.1463  0.4344
  950MOL0     C28177   9.717   4.786   8.996 -0.0389  0.6800 -0.2978
  950MOL0     C28178   9.650   4.674   8.923 -0.0431 -0.4488  0.2688
  950MOL0     C28179   9.600   4.580   8.861 -0.2017  0.0469 -0.1794
  950MOL0     C28180  10.348   4.844   8.808  0.5556 -0.4001 -0.4745
  950MOL0     C28181  10.469   4.905   8.775  0.1414  0.3894 -0.1911
  950MOL0     C28182  10.518   4.883   8.634  0.7339 -0.0732  0.2062
  950MOL0     H28183  10.816   5.271   8.956 -1.1715 -1.3180  0.5666
  950MOL0     H28184  11.035   5.372   9.003 -3.0790  0.3928  1.3743
  950MOL0     H28185  11.374   5.121   9.143  3.3931  2.2995  1.9315
  950MOL0     H28186  11.398   5.144   8.966 -0.9362  1.1963 -1.2228
  950MOL0     H28187  11.497   5.279   9.220  1.8280  1.0341 -0.0125
  950MOL0     H28188  11.473   5.386   9.079 -0.5776 -0.5497  0.0671
  950MOL0     H28189  11.611   5.268   8.943 -0.4947 -2.6536  0.4284
  950MOL0     H28190  11.645   5.150   9.070  1.8060 -0.3171 -0.6148
  950MOL0     H28191  11.717   5.445   9.062 -1.8308  0.3307  2.2027
  950MOL0     H28192  11.753   5.346   9.206  1.6495  1.3776  0.1346
  950MOL0     H28193  11.901   5.197   9.057  2.3688  0.6361  1.8650
  950MOL0     H28194  11.868   5.311   8.935  1.5097 -1.5876 -0.1161
  950MOL0     H28195  11.966   5.490   9.066 -3.0749 -0.3170  1.3326
  950MOL0     H28196  12.016   5.370   9.189 -1.7270 -2.4701  0.5754
  950MOL0     H28197  12.103   5.375   8.898 -2.4521  0.1678  0.3367
  950MOL0     H28198  12.131   5.240   9.002 -0.1827  0.1587 -0.0697
  950MOL0     H28199  12.210   5.520   9.064  3.0078  0.3204 -1.6223
  950MOL0     H28200  12.248   5.372   9.164 -0.6933  0.6617  0.4298
  950MOL0     H28201  12.456   5.592   9.004  0.4067  0.0927  1.5926
  950MOL0     H28202  12.688   5.485   8.736 -1.7553 -0.4178  0.9129
  950MOL0     H28203  12.673   5.599   8.864  0.3187  0.1938 -0.7514
  950MOL0     H28204  12.795   5.324   8.899 -0.1796  0.7284 -0.4467
  950MOL0     H28205  12.894   5.469   8.879  0.0898  1.2526  2.1801
  950MOL0     H28206  12.736   5.439   9.128  0.0869 -1.2885 -0.0700
  950MOL0     H28207  12.817   5.584   9.079 -1.5561  0.2439 -0.2294
  950MOL0     H28208  12.958   5.323   9.121  0.3564 -0.0014  2.4415
  950MOL0     H28209  12.946   5.448   9.245  0.3557  0.0698 -0.2938
  950MOL0     H28210  13.188   5.468   9.319 -1.5343  1.2692 -0.1552
  950MOL0     H28211  13.395   5.368   9.357 -2.1464  1.7747  0.5951
  950MOL0     H28212  13.823   5.270   9.361  1.1244  0.1341  0.8315
  950MOL0     H28213  14.002   5.154   9.423 -0.5327  1.9560 -0.1804
  950MOL0     H28214  14.157   4.977   9.513 -2.1697  2.6151  0.4739
  950MOL0     H28215  14.047   5.012   9.642 -1.5535 -0.9894  1.4040
  950MOL0     H28216  14.145   4.720   9.637 -2.7000 -1.5088  2.1206
  950MOL0     H28217  14.243   4.864   9.700 -0.6492  1.7008 -0.9097
  950MOL0     H28218  14.118   4.743   9.881 -0.2330 -0.7147  0.5276
  950MOL0     H28219  14.073   4.911   9.859 -1.0636 -0.5367  0.6241
  950MOL0     H28220  13.893   4.718   9.727  2.0408 -1.3567 -0.3334
  950MOL0     H28221  13.873   4.885   9.766  1.9172  0.8284  0.9400
  950MOL0     H28222  13.880   4.780  10.014  0.6815  1.0738 -1.1161
  950MOL0     H28223  13.841   4.634   9.935 -0.4063 -0.2583  3.2556
  950MOL0     H28224  13.635   4.766   9.807  1.9582 -1.8365 -0.9315
  950MOL0     H28225  13.626   4.704   9.968 -3.8495  0.0274 -2.7772
  950MOL0     H28226  13.686   4.987   9.914  0.2820 -1.9329 -2.0637
  950MOL0     H28227  13.673   4.914  10.081  1.8890 -2.4878 -0.5063
  950MOL0     H28228  13.467   4.998   9.871 -0.1964 -0.9983 -1.0963
  950MOL0     H28229  13.441   4.835   9.966  0.9754 -0.0583  3.1398
  950MOL0     H28230  13.741   4.797   9.461  0.1534 -1.0659 -1.4729
  950MOL0     H28231  13.561   4.928   9.381  0.8169 -0.2313  2.7226
  950MOL0     H28232  13.427   5.263   8.939  1.0955 -1.0672  1.5104
  950MOL0     H28233  13.210   5.377   8.900  0.0887  0.7654 -0.0283
  950MOL0     H28234  11.201   4.985   9.068 -0.0032  0.7010  0.6040
  950MOL0     H28235  10.985   4.880   9.026 -0.9447  0.3435 -1.0244
  950MOL0     H28236  10.562   4.987   9.093  0.1943 -1.1239  0.1112
  950MOL0     H28237  10.361   4.898   9.147 -2.3800 -0.2737 -0.0780
  950MOL0     H28238  10.118   4.675   8.816  0.1572  1.6554 -0.5293
  950MOL0     H28239  10.057   4.838   8.805  0.3403 -1.5017 -2.1713
  950MOL0     H28240   9.966   4.671   9.036 -1.3085  0.6696  0.6503
  950MOL0     H28241   9.911   4.630   8.877  1.6309  0.2543 -1.4914
  950MOL0     H28242   9.835   4.882   8.856 -0.0280  3.6368  1.9873
  950MOL0     H28243   9.903   4.899   9.024  4.0269 -2.3099 -0.0322
  950MOL0     H28244   9.721   4.758   9.101 -0.0049  0.6143 -0.3177
  950MOL0     H28245   9.641   4.864   8.991 -0.7329 -0.0557 -2.1326
  950MOL0     H28246   9.543   4.501   8.816  1.0267  0.4967 -2.7043
  950MOL0     H28247  10.293   4.792   8.730 -0.1986  0.4887 -0.5528
  950MOL0     H28248  10.489   4.966   8.568 -0.1296  0.1009  0.7882
  950MOL0     H28249  10.627   4.878   8.623  0.4522 -1.5838 -2.7304
  950MOL0     H28250  10.480   4.788   8.597  1.1934 -0.0775 -0.2647
  951MOL0     O28251   8.319   2.545   2.124 -0.0730  0.7079 -0.1128
  951MOL0     C28252   8.198   2.526   2.098 -0.0405 -0.3418 -0.0053
  951MOL0     O28253   8.105   2.624   2.070 -0.2428 -0.2312 -0.2792
  951MOL0     C28254   8.149   2.756   2.067 -0.1231  0.4040 -0.6224
  951MOL0     C28255   8.276   2.799   2.024 -0.7023 -0.5605 -0.5744
  951MOL0     C28256   8.309   2.935   2.016  0.0736  0.2234  0.0111
  951MOL0     C28257   8.216   3.036   2.065 -0.7133  0.1091  0.1294
  951MOL0     O28258   8.249   3.168   2.060 -0.1113  0.1206 -0.3288
  951MOL0     C28259   8.147   3.256   2.035  0.2188 -0.3768 -0.0415
  951MOL0     C28260   8.213   3.364   1.948  0.9865  1.9597 -0.5130
  951MOL0     C28261   8.342   3.416   2.006 -0.8786  0.5958 -0.4968
  951MOL0     C28262   8.374   3.549   1.936  0.6471 -0.6291  0.2830
  951MOL0     C28263   8.510   3.599   1.976 -0.7063  0.1667 -0.0322
  951MOL0     C28264   8.520   3.629   2.123  0.2488  0.1657 -0.1941
  951MOL0     C28265   8.424   3.737   2.184 -0.7060 -0.1029 -0.3735
  951MOL0     C28266   8.444   3.766   2.330  0.1064 -1.2229 -0.2697
  951MOL0     N28267   8.424   3.638   2.414  1.2687 -0.4182  0.3419
  951MOL0     C28268   8.300   3.589   2.432 -0.4537 -0.0445  0.7644
  951MOL0     C28269   8.307   3.466   2.502  0.1349  0.4429  0.2195
  951MOL0     C28270   8.201   3.359   2.523 -0.2447 -0.1758  0.5488
  951MOL0     C28271   8.080   3.444   2.584 -0.4416 -0.4203  0.3411
  951MOL0     C28272   8.111   3.514   2.720 -0.0546 -0.7326  0.2746
  951MOL0     C28273   7.990   3.571   2.787  0.1747  0.6000  0.1456
  951MOL0     O28274   7.921   3.664   2.709 -0.3100 -0.0850  0.1544
  951MOL0     C28275   7.789   3.647   2.704 -0.7395  0.4049 -0.7326
  951MOL0     C28276   7.719   3.700   2.812  0.6743 -0.4227  0.0621
  951MOL0     C28277   7.574   3.679   2.810 -0.1484  0.4887 -0.6993
  951MOL0     C28278   7.508   3.609   2.706 -0.6336 -1.5425  0.2090
  951MOL0     C28279   7.366   3.597   2.701  0.4221 -0.1574 -0.7737
  951MOL0     O28280   7.309   3.506   2.612  0.1073 -0.2352 -0.3731
  951MOL0     C28281   7.168   3.518   2.602  0.2888  0.3264  1.0767
  951MOL0     C28282   7.087   3.408   2.625  0.1517  0.1066  0.4735
  951MOL0     C28283   6.953   3.405   2.593 -0.1471 -0.2862 -0.3549
  951MOL0     C28284   6.899   3.523   2.543  0.3026 -0.3675 -0.3004
  951MOL0     O28285   6.761   3.515   2.518 -0.7717 -0.3471 -0.6091
  951MOL0     C28286   6.702   3.626   2.451 -0.6473  0.2355 -0.6272
  951MOL0     C28287   6.574   3.576   2.405 -0.5075  0.1498  0.3936
  951MOL0     C28288   6.477   3.672   2.342  0.0330  0.2033  0.4823
  951MOL0     C28289   6.370   3.591   2.275  0.2986 -0.7345 -0.7779
  951MOL0     C28290   6.257   3.681   2.242  0.3110  0.5217 -0.6060
  951MOL0     C28291   6.298   3.790   2.147 -0.3147 -0.1568 -0.3035
  951MOL0     C28292   6.342   3.738   2.012  0.4273  0.3367  0.5741
  951MOL0     C28293   6.324   3.848   1.902 -0.7930 -0.3042 -0.1742
  951MOL0    Cl28294   6.161   3.834   1.834  0.5073  0.2264 -0.3386
  951MOL0     C28295   6.975   3.643   2.519  0.3783  0.0180 -0.8752
  951MOL0     C28296   7.113   3.634   2.553  0.3155 -0.8085 -0.1369
  951MOL0     O28297   7.302   3.665   2.781  0.7350  0.3051  0.3669
  951MOL0     C28298   7.585   3.554   2.605 -0.0793  0.0327  0.0093
  951MOL0     C28299   7.723   3.578   2.605  0.2840  0.4071 -0.3556
  951MOL0     N28300   8.443   3.452   2.534  0.3642 -0.8045  0.1322
  951MOL0     N28301   8.500   3.560   2.495  0.1891  0.0759  0.4108
  951MOL0     C28302   8.090   2.987   2.101 -1.2621 -0.4228  0.4419
  951MOL0     C28303   8.057   2.857   2.093  0.0115  0.0866 -0.3525
  951MOL0     C28304   8.132   2.396   2.130 -0.6213 -0.6322  0.3150
  951MOL0     C28305   7.999   2.390   2.154 -0.3221  0.0386  0.1794
  951MOL0     C28306   7.928   2.278   2.187  0.8373 -0.3003  0.9519
  951MOL0     C28307   7.987   2.161   2.173 -0.4705  0.3632  0.2323
  951MOL0     O28308   7.916   2.048   2.210 -0.2287 -1.0240  0.0482
  951MOL0     C28309   7.986   1.942   2.271  0.4523 -0.6632 -0.4465
  951MOL0     C28310   7.900   1.834   2.340  0.5485 -1.3159 -0.3360
  951MOL0     C28311   7.799   1.771   2.234  0.0472 -0.6831 -1.4512
  951MOL0     C28312   7.695   1.691   2.309  0.5811  0.0161  0.6652
  951MOL0     C28313   7.744   1.562   2.353  0.1294  0.2969 -0.0318
  951MOL0     C28314   7.790   1.457   2.390  0.2135 -0.5118 -0.4562
  951MOL0     C28315   8.127   2.157   2.135 -0.0373  0.0913  0.0939
  951MOL0     C28316   8.205   2.273   2.123 -0.3340  0.6470  0.0195
  951MOL0     C28317   8.353   2.255   2.102  0.1328  0.1596 -0.4630
  951MOL0     H28318   8.358   2.736   1.992 -0.5603  0.2783 -1.9560
  951MOL0     H28319   8.405   2.970   1.978 -0.8050  0.9585 -1.5910
  951MOL0     H28320   8.059   3.218   1.982  0.6221  0.5910 -1.4465
  951MOL0     H28321   8.112   3.307   2.125  3.7599  2.9427 -0.2974
  951MOL0     H28322   8.134   3.437   1.931 -2.1702 -0.7994  1.1687
  951MOL0     H28323   8.229   3.327   1.846 -1.4422 -0.9568  0.0230
  951MOL0     H28324   8.420   3.346   1.975 -1.0243 -1.0439  2.4790
  951MOL0     H28325   8.337   3.423   2.115  3.1613  4.4759 -0.2474
  951MOL0     H28326   8.373   3.544   1.827  4.2133  2.8515 -0.1466
  951MOL0     H28327   8.287   3.610   1.961 -0.9700 -2.5257 -0.4498
  951MOL0     H28328   8.581   3.517   1.959  2.0870  2.4514 -0.1509
  951MOL0     H28329   8.557   3.677   1.916 -1.0320  0.9447  0.6998
  951MOL0     H28330   8.517   3.534   2.178 -1.0132 -0.8498 -1.9395
  951MOL0     H28331   8.625   3.658   2.134  0.0613  1.3654 -1.4013
  951MOL0     H28332   8.330   3.682   2.177 -0.0451 -1.3871  0.5552
  951MOL0     H28333   8.415   3.831   2.128 -1.8717 -0.5385 -0.9522
  951MOL0     H28334   8.541   3.817   2.332 -1.9754  3.2072  0.0728
  951MOL0     H28335   8.381   3.847   2.366  1.8859 -0.0975  0.4540
  951MOL0     H28336   8.203   3.621   2.395 -1.3928 -1.2274  2.0904
  951MOL0     H28337   8.164   3.321   2.427 -0.9021  1.0791  0.2853
  951MOL0     H28338   8.241   3.283   2.591 -0.2357 -0.5498  0.1274
  951MOL0     H28339   8.034   3.509   2.509  0.6146 -1.1278 -0.9458
  951MOL0     H28340   8.001   3.373   2.612 -1.5149  0.3020 -0.7418
  951MOL0     H28341   8.185   3.593   2.722 -1.2652  0.4356  1.2813
  951MOL0     H28342   8.156   3.434   2.781  0.0686 -1.5137 -0.8208
  951MOL0     H28343   8.031   3.617   2.878  1.0216 -0.7038  0.4424
  951MOL0     H28344   7.920   3.491   2.811 -0.3333  0.3228 -2.0731
  951MOL0     H28345   7.780   3.737   2.894 -0.0082  0.2134  0.2928
  951MOL0     H28346   7.518   3.725   2.891 -0.3713  0.2637 -0.7252
  951MOL0     H28347   7.132   3.311   2.648  0.2811 -0.0257 -0.3010
  951MOL0     H28348   6.892   3.316   2.606  1.4710 -1.2165  1.2735
  951MOL0     H28349   6.681   3.713   2.515  0.7827  0.1354  0.0277
  951MOL0     H28350   6.756   3.661   2.363  1.5599  0.6771  0.8271
  951MOL0     H28351   6.591   3.504   2.324 -0.1399 -0.1283  0.7185
  951MOL0     H28352   6.531   3.527   2.492  1.8961 -0.5575  1.2682
  951MOL0     H28353   6.426   3.722   2.425 -3.7566 -2.2343 -0.1572
  951MOL0     H28354   6.537   3.733   2.275 -0.3651  2.8276  2.3435
  951MOL0     H28355   6.332   3.511   2.339  1.8137 -1.1942 -0.4087
  951MOL0     H28356   6.409   3.542   2.186 -2.2490  0.3965 -2.6284
  951MOL0     H28357   6.205   3.721   2.329  1.3544  1.0645 -0.2037
  951MOL0     H28358   6.178   3.626   2.191 -1.8880  0.3264  2.6728
  951MOL0     H28359   6.213   3.856   2.127 -2.3921 -2.7716 -0.6747
  951MOL0     H28360   6.365   3.859   2.198 -0.8390 -0.1486  0.3970
  951MOL0     H28361   6.269   3.660   1.988 -0.0850  1.2361 -0.9372
  951MOL0     H28362   6.445   3.702   2.018  0.3115  0.2188  2.8948
  951MOL0     H28363   6.339   3.950   1.941 -1.2931 -0.7046  1.1128
  951MOL0     H28364   6.403   3.839   1.827 -0.4159  0.5039  0.1065
  951MOL0     H28365   6.934   3.735   2.477 -1.7668 -1.6015 -2.5449
  951MOL0     H28366   7.169   3.726   2.538  0.6328 -0.9920 -0.0888
  951MOL0     H28367   7.545   3.491   2.527  0.8262  0.8306 -1.1369
  951MOL0     H28368   7.781   3.532   2.525  0.2223  0.1289 -0.2402
  951MOL0     H28369   8.005   3.048   2.132 -0.9504  1.4855 -2.1164
  951MOL0     H28370   7.957   2.818   2.110 -0.4222  0.2927 -2.2221
  951MOL0     H28371   7.945   2.484   2.158 -0.3103  0.0078  2.1728
  951MOL0     H28372   7.823   2.281   2.213  0.5999 -0.1856  0.0355
  951MOL0     H28373   8.062   1.985   2.336  0.3411  1.6106 -1.7397
  951MOL0     H28374   8.033   1.881   2.192  0.4555  0.0885 -1.0343
  951MOL0     H28375   7.844   1.876   2.424 -0.7524  2.0658 -2.6849
  951MOL0     H28376   7.957   1.751   2.384  1.5772  0.8914  2.8616
  951MOL0     H28377   7.848   1.709   2.158 -0.5564 -0.5074 -1.9966
  951MOL0     H28378   7.750   1.847   2.172 -1.9974  0.5304  1.4216
  951MOL0     H28379   7.643   1.733   2.396 -3.1514 -2.3863 -0.1938
  951MOL0     H28380   7.616   1.668   2.237  0.5079  0.3455  0.6351
  951MOL0     H28381   7.830   1.363   2.420 -0.4832 -1.5928 -2.7045
  951MOL0     H28382   8.182   2.065   2.116 -0.6240 -0.0142 -1.2171
  951MOL0     H28383   8.387   2.154   2.075  1.1031  0.1637  0.6748
  951MOL0     H28384   8.381   2.323   2.021 -0.2521  2.1138  0.9950
  951MOL0     H28385   8.396   2.288   2.197 -1.5193 -0.0093  0.3629
  952MOL0     O28386   4.371   3.106  10.469 -0.2273 -0.2538 -0.8259
  952MOL0     C28387   4.358   2.986  10.483  0.8357  0.3690  0.6374
  952MOL0     O28388   4.448   2.892  10.447  0.5408 -0.7594 -0.4938
  952MOL0     C28389   4.557   2.950  10.393 -0.0702  0.8282  0.5078
  952MOL0     C28390   4.658   2.987  10.481 -0.1457 -0.1923  1.0006
  952MOL0     C28391   4.771   3.042  10.427 -0.3221  0.5398 -0.2328
  952MOL0     C28392   4.789   3.062  10.288  0.3100 -0.1288 -0.3253
  952MOL0     O28393   4.895   3.132  10.241  0.1960  0.2450  0.0182
  952MOL0     C28394   5.020   3.128  10.318  0.2828  0.7759  0.5639
  952MOL0     C28395   5.139   3.159  10.229 -0.3499  0.2225  0.3688
  952MOL0     C28396   5.279   3.185  10.304  0.0828 -0.7990  0.0558
  952MOL0     C28397   5.335   3.051  10.337 -0.2455  0.6375 -0.2372
  952MOL0     C28398   5.422   2.988  10.219 -0.0150 -0.2878 -0.0653
  952MOL0     C28399   5.478   2.855  10.279  0.0787 -0.0781  0.1627
  952MOL0     C28400   5.529   2.769  10.163 -0.7341 -0.9039  0.4029
  952MOL0     C28401   5.608   2.656  10.219 -0.5065  0.2958  0.9001
  952MOL0     N28402   5.652   2.575  10.106  0.2593 -0.3415 -0.4526
  952MOL0     C28403   5.771   2.569  10.051 -0.5022 -0.8960  0.5276
  952MOL0     C28404   5.764   2.453   9.980 -0.6953  0.4125 -0.1269
  952MOL0     C28405   5.881   2.412   9.894  0.2932 -0.0212 -0.0230
  952MOL0     C28406   6.005   2.426   9.990 -0.3590 -0.4632 -0.1879
  952MOL0     C28407   6.125   2.371   9.913 -0.0558  0.3151 -0.5739
  952MOL0     C28408   6.263   2.412   9.971  0.1948 -0.1104 -0.5561
  952MOL0     O28409   6.281   2.557   9.965 -0.0399  0.0230 -0.4828
  952MOL0     C28410   6.401   2.605  10.014  0.0939 -0.8994  0.3732
  952MOL0     C28411   6.432   2.733   9.967 -1.0242  0.1716 -0.1340
  952MOL0     C28412   6.543   2.798  10.023 -0.4566 -0.3663 -0.3564
  952MOL0     C28413   6.638   2.730  10.104 -0.2572 -0.9106 -0.3247
  952MOL0     C28414   6.762   2.801  10.159  0.2995 -0.9180 -0.5909
  952MOL0     O28415   6.845   2.723  10.233 -0.1639 -0.0447 -0.1756
  952MOL0     C28416   6.965   2.767  10.281  0.1749  0.7877 -0.7265
  952MOL0     C28417   7.048   2.663  10.328  0.3668  0.3759 -0.2755
  952MOL0     C28418   7.169   2.687  10.389 -0.2627  0.8034  0.0493
  952MOL0     C28419   7.221   2.817  10.391 -0.1721  1.0798 -0.5482
  952MOL0     O28420   7.337   2.852  10.452  0.5774 -0.9478  0.0529
  952MOL0     C28421   7.436   2.752  10.442  0.2284 -0.7367  0.7862
  952MOL0     C28422   7.568   2.815  10.476 -0.5298  0.0175  0.1414
  952MOL0     C28423   7.687   2.709  10.481 -0.1990 -0.1776 -0.1411
  952MOL0     C28424   7.811   2.783  10.520  0.0566  0.3656 -0.5642
  952MOL0     C28425   7.898   2.695  10.609 -0.6526 -0.1700 -0.3156
  952MOL0     C28426   8.005   2.619  10.529 -0.2125  0.0655 -0.0866
  952MOL0     C28427   7.940   2.496  10.453  0.3897  0.2282 -0.3054
  952MOL0     C28428   8.033   2.376  10.452 -0.2355 -0.0551 -0.0788
  952MOL0    Cl28429   8.174   2.424  10.357 -0.3168 -0.1701  0.0932
  952MOL0     C28430   7.139   2.922  10.355 -0.4526  0.3172  0.3180
  952MOL0     C28431   7.012   2.892  10.308  0.4938 -0.7015  0.7732
  952MOL0     O28432   6.784   2.920  10.123 -0.1371 -0.4192 -0.2781
  952MOL0     C28433   6.612   2.601  10.142 -0.1454  0.4185 -0.2552
  952MOL0     C28434   6.483   2.537  10.107  0.0381  0.4885  0.3376
  952MOL0     N28435   5.644   2.395   9.980 -0.3525 -0.6821  0.1299
  952MOL0     N28436   5.575   2.479  10.052 -0.2066 -0.1421 -0.3558
  952MOL0     C28437   4.691   3.026  10.199  0.2636  1.0014  0.9757
  952MOL0     C28438   4.574   2.955  10.247  0.0850 -0.6102 -0.0138
  952MOL0     C28439   4.221   2.937  10.520  0.3181  0.5983  1.4477
  952MOL0     C28440   4.159   2.831  10.442 -0.9625 -0.2389  1.3117
  952MOL0     C28441   4.030   2.790  10.463 -0.3518  0.2450 -0.1225
  952MOL0     C28442   3.953   2.856  10.558 -0.6135  0.5506  0.2688
  952MOL0     O28443   3.826   2.833  10.593  0.1141  0.4346  0.1514
  952MOL0     C28444   3.745   2.752  10.508  0.3198  0.1470 -0.0612
  952MOL0     C28445   3.614   2.731  10.581  0.1711  0.7593 -0.2085
  952MOL0     C28446   3.515   2.844  10.566  0.2636  0.2142  0.3378
  952MOL0     C28447   3.446   2.847  10.432  0.0827  0.1109  0.0601
  952MOL0     C28448   3.344   2.945  10.438  0.2025 -0.4824 -1.1576
  952MOL0     C28449   3.265   3.037  10.443 -0.2655  0.2190  1.1347
  952MOL0     C28450   4.012   2.964  10.636  0.1090 -0.2580 -0.4744
  952MOL0     C28451   4.147   2.997  10.629 -0.1694  0.4076  0.1141
  952MOL0     C28452   4.212   3.080  10.734  0.4450 -0.4773 -0.1707
  952MOL0     H28453   4.653   2.983  10.589  2.7199  0.4221  1.2415
  952MOL0     H28454   4.844   3.089  10.493  1.3414 -1.2821 -0.6746
  952MOL0     H28455   5.014   3.206  10.395 -2.2788  2.4595 -1.2071
  952MOL0     H28456   5.040   3.033  10.370  1.0540  0.5782 -0.0670
  952MOL0     H28457   5.112   3.258  10.189  0.9307 -0.4236 -2.3765
  952MOL0     H28458   5.151   3.091  10.144 -3.0903  0.3564 -0.2239
  952MOL0     H28459   5.258   3.254  10.386  0.3100 -0.3831 -0.2306
  952MOL0     H28460   5.335   3.232  10.222 -1.9930  0.0100 -0.9859
  952MOL0     H28461   5.395   3.056  10.428  1.2570 -1.0719 -1.0667
  952MOL0     H28462   5.254   2.981  10.357 -0.9433  1.8006  1.1599
  952MOL0     H28463   5.358   2.978  10.131 -1.9448  0.6305  1.1433
  952MOL0     H28464   5.507   3.051  10.194  1.0240 -1.5570  0.1692
  952MOL0     H28465   5.560   2.882  10.347 -2.0675 -0.4588  3.0907
  952MOL0     H28466   5.399   2.804  10.335 -1.4594  3.1616  1.2094
  952MOL0     H28467   5.596   2.833  10.104  0.3713 -0.0552  2.4681
  952MOL0     H28468   5.439   2.740  10.109  0.5280 -2.2379 -1.0875
  952MOL0     H28469   5.698   2.682  10.275 -0.6512 -1.1756  1.8667
  952MOL0     H28470   5.545   2.591  10.281 -0.3668 -1.4811 -0.7119
  952MOL0     H28471   5.851   2.643  10.050  0.0185 -1.4579 -0.3418
  952MOL0     H28472   5.866   2.310   9.856 -1.2989  0.7347 -1.5952
  952MOL0     H28473   5.888   2.482   9.811  4.6106 -2.0710 -1.7076
  952MOL0     H28474   6.028   2.528  10.021  0.3497 -0.6959  0.0925
  952MOL0     H28475   5.987   2.365  10.079 -0.7639 -0.2910 -0.1532
  952MOL0     H28476   6.128   2.406   9.810  1.6345  3.2207  0.3691
  952MOL0     H28477   6.117   2.262   9.914  1.7530  0.0776  2.7567
  952MOL0     H28478   6.347   2.359   9.924  0.9846  2.4089 -2.2050
  952MOL0     H28479   6.262   2.390  10.078 -2.3493  0.5269 -0.3843
  952MOL0     H28480   6.358   2.775   9.899 -1.4056  1.2671  0.9331
  952MOL0     H28481   6.569   2.899   9.991 -0.0422 -0.4989 -0.4498
  952MOL0     H28482   7.004   2.564  10.326  2.4071 -0.5909 -2.1899
  952MOL0     H28483   7.216   2.595  10.423 -1.3930  0.4084  0.5779
  952MOL0     H28484   7.414   2.663  10.503  0.2199 -1.4408 -0.2129
  952MOL0     H28485   7.445   2.721  10.337  0.4881 -0.1175  0.6255
  952MOL0     H28486   7.584   2.896  10.405  1.1043 -0.9623 -0.6615
  952MOL0     H28487   7.562   2.852  10.579  1.5436  0.6966  0.0746
  952MOL0     H28488   7.656   2.641  10.561 -4.1500  1.3676 -0.1361
  952MOL0     H28489   7.679   2.663  10.382 -1.7818 -1.2334  0.4313
  952MOL0     H28490   7.789   2.872  10.580  2.4099  0.3966  0.3417
  952MOL0     H28491   7.866   2.812  10.430 -0.5064 -2.4576 -1.9231
  952MOL0     H28492   7.842   2.624  10.671 -1.1818 -1.1179 -1.7979
  952MOL0     H28493   7.944   2.771  10.672 -2.8407  1.1207 -0.1579
  952MOL0     H28494   8.046   2.687  10.454  1.4889 -1.2595 -0.4295
  952MOL0     H28495   8.086   2.593  10.597  0.2269  1.3869 -0.0745
  952MOL0     H28496   7.906   2.526  10.354 -0.1436  1.1911  0.1550
  952MOL0     H28497   7.844   2.472  10.500  0.1265  1.2570 -0.2996
  952MOL0     H28498   8.061   2.346  10.553  0.0241  0.7381  0.1004
  952MOL0     H28499   7.987   2.284  10.415  2.0259 -0.9778 -0.7637
  952MOL0     H28500   7.184   3.018  10.376  0.0460  0.1954 -0.1684
  952MOL0     H28501   6.941   2.973  10.291  0.2545 -1.3219 -1.5020
  952MOL0     H28502   6.684   2.548  10.204 -1.3752 -0.0404  0.8337
  952MOL0     H28503   6.466   2.445  10.161  1.9045  0.2709  0.6405
  952MOL0     H28504   4.698   3.069  10.099 -2.7506 -0.3825  0.0485
  952MOL0     H28505   4.497   2.932  10.174 -0.1837  2.5962 -0.8810
  952MOL0     H28506   4.218   2.785  10.364 -2.4559 -3.0347  1.7066
  952MOL0     H28507   3.998   2.715  10.391 -0.3116 -1.3707  1.4501
  952MOL0     H28508   3.790   2.652  10.503  0.8050  0.2863  1.2384
  952MOL0     H28509   3.736   2.788  10.405  0.8441  1.2681  0.2689
  952MOL0     H28510   3.625   2.705  10.686  1.5379  0.1581 -0.4768
  952MOL0     H28511   3.566   2.638  10.550  1.9967  0.1056 -1.2020
  952MOL0     H28512   3.570   2.937  10.588 -0.1041  0.3127  0.8552
  952MOL0     H28513   3.436   2.841  10.642 -1.0403  3.2449 -0.7178
  952MOL0     H28514   3.514   2.868  10.349 -0.8651 -3.4435 -1.8432
  952MOL0     H28515   3.412   2.750  10.396  0.1533 -0.2182  0.8474
  952MOL0     H28516   3.195   3.119  10.447 -0.8910 -0.2071 -0.3275
  952MOL0     H28517   3.967   3.017  10.720  3.9211 -0.3464  1.8716
  952MOL0     H28518   4.290   3.023  10.786  1.7734  1.5566  0.1664
  952MOL0     H28519   4.255   3.170  10.690 -1.2197  0.1035 -0.6996
  952MOL0     H28520   4.136   3.105  10.809  0.6548  1.8158 -0.6571
  953MOL0     O28521  10.187   4.407   5.137 -0.5405  0.5415 -1.1450
  953MOL0     C28522  10.176   4.473   5.035  0.1886 -0.4171  0.2655
  953MOL0     O28523  10.279   4.520   4.966 -0.4999  0.4665  0.2587
  953MOL0     C28524  10.402   4.481   5.009  0.1102  0.8162 -0.2525
  953MOL0     C28525  10.506   4.569   5.024  0.1203  0.3949  0.0400
  953MOL0     C28526  10.641   4.539   5.040  0.3241  0.4390 -0.4569
  953MOL0     C28527  10.668   4.399   5.054 -1.0233 -0.1186  0.2116
  953MOL0     O28528  10.797   4.346   5.076  0.3856  0.1416 -0.2500
  953MOL0     C28529  10.900   4.432   5.105 -0.8400  0.0158  0.2157
  953MOL0     C28530  10.960   4.493   4.980 -0.1579  0.5837  1.4297
  953MOL0     C28531  11.070   4.582   5.009  0.2765  0.9249  0.1760
  953MOL0     C28532  11.204   4.546   4.947 -0.0692  0.4990 -1.0202
  953MOL0     C28533  11.306   4.655   4.988 -0.0217  0.8922  0.6764
  953MOL0     C28534  11.443   4.602   4.948  0.4245  0.1564  0.0343
  953MOL0     C28535  11.558   4.692   5.003  1.0935  0.3396 -0.2017
  953MOL0     C28536  11.692   4.650   4.970 -0.5997 -0.8879 -0.0300
  953MOL0     N28537  11.732   4.526   5.034  0.3683 -0.4000 -0.1813
  953MOL0     C28538  11.788   4.516   5.156 -0.3229  0.4887 -0.4863
  953MOL0     C28539  11.788   4.380   5.178  0.1181  0.7406  0.7728
  953MOL0     C28540  11.838   4.317   5.313 -0.2753 -0.4099 -0.4486
  953MOL0     C28541  11.912   4.180   5.300 -0.2877  0.0939 -0.9908
  953MOL0     C28542  12.054   4.203   5.242  0.2617  0.0248  0.2664
  953MOL0     C28543  12.146   4.258   5.341 -0.2611 -0.2696 -0.3211
  953MOL0     O28544  12.267   4.190   5.314  0.0782  0.2663  0.6735
  953MOL0     C28545  12.367   4.206   5.400 -0.6600  0.7024  0.0857
  953MOL0     C28546  12.478   4.141   5.358  0.1752 -0.5260  0.0596
  953MOL0     C28547  12.593   4.139   5.430 -0.0620  0.5316 -0.4941
  953MOL0     C28548  12.608   4.203   5.555  0.4987  0.3693  0.3715
  953MOL0     C28549  12.723   4.189   5.648  0.0531 -0.7521  1.2380
  953MOL0     O28550  12.710   4.258   5.766  0.6386  0.3007  0.1064
  953MOL0     C28551  12.825   4.283   5.842  0.1800 -0.2363 -0.2126
  953MOL0     C28552  12.874   4.416   5.838  0.5387 -0.0958 -0.0428
  953MOL0     C28553  12.962   4.455   5.939  0.3074 -0.4505 -0.1694
  953MOL0     C28554  13.017   4.357   6.026 -0.5370 -0.1196  1.1091
  953MOL0     O28555  13.109   4.388   6.118 -0.2711 -0.5428  0.2858
  953MOL0     C28556  13.142   4.523   6.139  0.0777 -0.2901  0.1464
  953MOL0     C28557  13.227   4.544   6.267  0.1902  0.7101 -0.3730
  953MOL0     C28558  13.378   4.522   6.245  1.0208 -0.2561 -1.1325
  953MOL0     C28559  13.450   4.550   6.372 -0.1142  0.5206 -0.6559
  953MOL0     C28560  13.601   4.517   6.345  0.2717 -0.1684 -0.4063
  953MOL0     C28561  13.673   4.533   6.473 -0.4799  0.4333  1.4041
  953MOL0     C28562  13.696   4.681   6.513 -0.1317 -0.4213 -0.1175
  953MOL0     C28563  13.810   4.708   6.606  0.8540  0.2189 -0.4865
  953MOL0    Cl28564  13.968   4.710   6.535 -0.1941  0.1827  0.0047
  953MOL0     C28565  12.972   4.235   6.023  0.3974  0.3955 -0.2336
  953MOL0     C28566  12.876   4.187   5.934  0.3512 -0.2846  0.6024
  953MOL0     O28567  12.824   4.125   5.612  0.1337  0.0034  0.0359
  953MOL0     C28568  12.493   4.281   5.588  0.2401 -1.4570 -0.4327
  953MOL0     C28569  12.374   4.280   5.517 -0.1115  0.7784 -0.4234
  953MOL0     N28570  11.735   4.314   5.064  0.5065  0.1340  0.0318
  953MOL0     N28571  11.710   4.404   4.976 -0.5292  0.0218  0.0847
  953MOL0     C28572  10.567   4.307   5.052  0.0430  0.1756 -0.3541
  953MOL0     C28573  10.435   4.343   5.016  0.0352  0.2393  0.5730
  953MOL0     C28574  10.046   4.526   5.009  0.4369  1.0523  0.7685
  953MOL0     C28575  10.045   4.653   4.953  0.1883 -0.4277 -0.5239
  953MOL0     C28576   9.923   4.714   4.928  0.9054 -0.7343  0.2492
  953MOL0     C28577   9.803   4.646   4.957  0.1872 -0.2942 -1.0717
  953MOL0     O28578   9.687   4.717   4.917  0.1003 -0.0154 -0.0127
  953MOL0     C28579   9.556   4.661   4.930 -0.2613 -1.3093  0.6681
  953MOL0     C28580   9.459   4.781   4.909  0.1640 -0.1575 -0.6747
  953MOL0     C28581   9.306   4.739   4.931 -0.8411 -0.9834  0.7645
  953MOL0     C28582   9.285   4.658   5.053  0.3734  0.2460  0.0684
  953MOL0     C28583   9.325   4.517   5.047 -0.4261 -0.9762  0.8592
  953MOL0     C28584   9.351   4.400   5.043  0.5598  0.5673  0.5355
  953MOL0     C28585   9.804   4.521   5.014  0.4650 -0.3144  0.0429
  953MOL0     C28586   9.929   4.454   5.030  0.0531  0.4542  0.1590
  953MOL0     C28587   9.922   4.305   5.082  0.4399 -0.3201 -0.0279
  953MOL0     H28588  10.468   4.671   5.022 -2.6859 -0.4914  2.2291
  953MOL0     H28589  10.709   4.623   5.047 -0.5230  1.1375 -0.4208
  953MOL0     H28590  10.865   4.506   5.177 -2.0934  0.3907 -0.7309
  953MOL0     H28591  10.975   4.374   5.158 -1.6987 -0.2004  1.2256
  953MOL0     H28592  10.884   4.552   4.926  0.8295 -0.1110 -0.8464
  953MOL0     H28593  10.992   4.407   4.920  0.5064  0.7659  1.5127
  953MOL0     H28594  11.088   4.585   5.117  1.1276  1.7358  0.0231
  953MOL0     H28595  11.034   4.680   4.975 -1.0229  0.5789  0.4898
  953MOL0     H28596  11.236   4.447   4.979 -0.6361  0.6608  0.0907
  953MOL0     H28597  11.186   4.557   4.839 -2.1646  1.7933 -0.5936
  953MOL0     H28598  11.279   4.744   4.930  1.0372  0.0683 -1.1636
  953MOL0     H28599  11.310   4.668   5.096  0.5268 -1.3020  0.9621
  953MOL0     H28600  11.463   4.504   4.991  4.2972  2.1471  3.5985
  953MOL0     H28601  11.453   4.590   4.840 -2.4458  3.1489 -0.7413
  953MOL0     H28602  11.544   4.712   5.109  0.4766  1.1736 -0.4266
  953MOL0     H28603  11.548   4.788   4.952 -0.9476 -0.5874 -1.6722
  953MOL0     H28604  11.692   4.631   4.863 -1.5757 -1.4080  0.0476
  953MOL0     H28605  11.759   4.735   4.988 -0.7298 -1.2600  2.6269
  953MOL0     H28606  11.827   4.583   5.232  0.8754  0.5554 -1.1285
  953MOL0     H28607  11.897   4.381   5.378  0.4761 -0.1075 -1.4081
  953MOL0     H28608  11.741   4.304   5.363 -1.5135  1.4687 -2.1980
  953MOL0     H28609  11.917   4.139   5.401  1.2057  2.1069 -0.1793
  953MOL0     H28610  11.845   4.114   5.243 -1.8331  1.0867 -0.3829
  953MOL0     H28611  12.055   4.263   5.150  1.4632  3.2842  2.2320
  953MOL0     H28612  12.086   4.106   5.202  0.0129  0.0122  0.0916
  953MOL0     H28613  12.126   4.227   5.444  4.5476  3.1745  2.0805
  953MOL0     H28614  12.151   4.367   5.343  0.5004 -0.2978  0.4459
  953MOL0     H28615  12.480   4.090   5.262 -0.6598  1.9166 -1.3488
  953MOL0     H28616  12.678   4.087   5.387  0.9972  0.7826  1.1948
  953MOL0     H28617  12.833   4.494   5.775  0.9703 -0.6980 -1.0887
  953MOL0     H28618  12.986   4.560   5.943  0.3118 -0.3102 -2.6233
  953MOL0     H28619  13.204   4.570   6.062  0.5969 -0.9942  0.1329
  953MOL0     H28620  13.049   4.581   6.151  0.9168  1.0275  0.5278
  953MOL0     H28621  13.229   4.650   6.295  1.3828  0.0803  2.1623
  953MOL0     H28622  13.195   4.484   6.353  1.2258 -0.5958 -0.8660
  953MOL0     H28623  13.384   4.415   6.223  0.6270 -0.7773  1.0779
  953MOL0     H28624  13.424   4.592   6.175  1.7387 -1.9965 -2.4677
  953MOL0     H28625  13.419   4.484   6.454  0.1077  2.1200  0.7732
  953MOL0     H28626  13.435   4.655   6.398  1.0760  0.7111 -0.6637
  953MOL0     H28627  13.641   4.584   6.268  0.5443  0.0556 -0.0723
  953MOL0     H28628  13.628   4.418   6.304  1.2767 -0.6042  1.2305
  953MOL0     H28629  13.629   4.484   6.561 -1.0825 -0.0213  0.8644
  953MOL0     H28630  13.769   4.482   6.466  0.3169  1.9686  0.7711
  953MOL0     H28631  13.608   4.722   6.564  0.0109 -1.0708  0.6674
  953MOL0     H28632  13.707   4.743   6.424 -1.0262 -1.2737 -0.8619
  953MOL0     H28633  13.784   4.811   6.633 -2.2119 -0.8079  0.9501
  953MOL0     H28634  13.803   4.647   6.696  0.7829 -0.8753 -1.2097
  953MOL0     H28635  13.012   4.161   6.091 -0.1566  0.4092  0.1058
  953MOL0     H28636  12.844   4.084   5.939 -1.9053  0.4276  3.0359
  953MOL0     H28637  12.505   4.348   5.672  1.9489 -1.9651 -0.2320
  953MOL0     H28638  12.280   4.325   5.547 -2.4624 -3.0854 -1.4077
  953MOL0     H28639  10.594   4.209   5.089  0.7962 -0.2801 -2.0101
  953MOL0     H28640  10.361   4.263   5.014  1.0579 -0.7450 -2.0517
  953MOL0     H28641  10.133   4.713   4.931 -1.8268  2.8003 -0.5077
  953MOL0     H28642   9.921   4.810   4.878  2.4103 -0.0045  1.5230
  953MOL0     H28643   9.544   4.619   5.031 -1.6809 -1.9688  0.2545
  953MOL0     H28644   9.532   4.586   4.854 -0.8869 -0.0685 -0.3832
  953MOL0     H28645   9.476   4.806   4.804  1.9264  0.5956 -0.2535
  953MOL0     H28646   9.490   4.865   4.973  2.5215  1.9039 -4.1841
  953MOL0     H28647   9.271   4.685   4.842  1.4067  0.7291 -1.3242
  953MOL0     H28648   9.239   4.824   4.947 -0.8089 -0.8428  0.1941
  953MOL0     H28649   9.341   4.711   5.130  3.5677  0.5291 -2.2573
  953MOL0     H28650   9.177   4.655   5.072  0.4660  4.4828  2.3711
  953MOL0     H28651   9.362   4.294   5.039 -2.0078  0.1582  2.1447
  953MOL0     H28652   9.713   4.465   5.032  1.3865 -1.5389  1.1165
  953MOL0     H28653   9.950   4.305   5.187  1.7852  1.1481 -0.3462
  953MOL0     H28654   9.824   4.264   5.054 -0.8593  1.2294  2.0286
  953MOL0     H28655  10.002   4.249   5.032 -0.5767 -2.2693  0.4244
  954MOL0     O28656   1.991   7.695  11.313  0.1067  0.8489  0.2126
  954MOL0     C28657   1.867   7.693  11.294  0.5364 -0.4384 -0.6156
  954MOL0     O28658   1.804   7.669  11.176  0.1491 -0.0103  0.0712
  954MOL0     C28659   1.871   7.639  11.058 -0.3985 -0.2699  0.6859
  954MOL0     C28660   2.002   7.668  11.027 -0.6619  0.7285  0.4261
  954MOL0     C28661   2.049   7.649  10.896 -0.6037  0.2849 -0.9217
  954MOL0     C28662   1.971   7.588  10.797  0.2420 -0.1906  0.2021
  954MOL0     O28663   2.010   7.563  10.669  0.1301 -0.0389  0.2711
  954MOL0     C28664   2.143   7.547  10.630 -0.5100  0.1289  0.4241
  954MOL0     C28665   2.188   7.676  10.553  0.1620  0.2938 -0.0275
  954MOL0     C28666   2.341   7.698  10.540 -0.6886 -0.3626  1.2397
  954MOL0     C28667   2.416   7.574  10.493  0.9047 -0.1517  0.5926
  954MOL0     C28668   2.562   7.601  10.473 -0.8694 -0.0143 -0.4490
  954MOL0     C28669   2.649   7.483  10.429  0.1297 -0.3089  0.3974
  954MOL0     C28670   2.801   7.507  10.420  0.0793  0.2298  0.1845
  954MOL0     C28671   2.837   7.596  10.300 -0.1318 -0.1960  0.2543
  954MOL0     N28672   2.980   7.618  10.288 -0.1563 -0.2786  0.3441
  954MOL0     C28673   3.077   7.648  10.379  0.4003 -0.7967  1.1478
  954MOL0     C28674   3.195   7.663  10.321 -0.0170 -0.2342 -0.1940
  954MOL0     C28675   3.318   7.706  10.395 -0.4475 -0.6664 -0.3317
  954MOL0     C28676   3.440   7.694  10.303  0.2683 -0.7537  0.1695
  954MOL0     C28677   3.560   7.763  10.372  1.0226  0.5233 -0.8675
  954MOL0     C28678   3.694   7.736  10.313  0.1126 -0.8733 -0.4901
  954MOL0     O28679   3.734   7.842  10.227  0.1476 -0.7580 -0.5510
  954MOL0     C28680   3.862   7.846  10.172 -0.0862 -1.3085  0.2837
  954MOL0     C28681   3.893   7.958  10.098 -0.2486 -0.1245  0.5261
  954MOL0     C28682   4.014   7.968  10.027  0.7684 -0.3431 -0.4088
  954MOL0     C28683   4.114   7.872  10.046 -0.0446  0.0026  0.4400
  954MOL0     C28684   4.256   7.892   9.989  0.3563 -0.8253 -0.2244
  954MOL0     O28685   4.294   8.017   9.962  0.2988 -0.3285 -0.1158
  954MOL0     C28686   4.414   8.051   9.915 -0.8937  0.0154 -0.3037
  954MOL0     C28687   4.524   7.970   9.882  0.2785 -0.3998 -0.4468
  954MOL0     C28688   4.644   8.030   9.826 -0.5374  0.1941 -0.2517
  954MOL0     C28689   4.658   8.164   9.802 -0.7265  0.3385 -0.1099
  954MOL0     O28690   4.761   8.215   9.727  0.2134 -0.0086 -0.1848
  954MOL0     C28691   4.888   8.153   9.756 -0.3617  0.4878 -0.6363
  954MOL0     C28692   4.999   8.257   9.730  0.0805  1.1011 -0.7052
  954MOL0     C28693   4.993   8.362   9.834  0.1209 -0.1330 -0.8658
  954MOL0     C28694   5.075   8.327   9.959  0.0501  0.6051 -0.2683
  954MOL0     C28695   5.077   8.441  10.059  0.0184  0.0915  0.2858
  954MOL0     C28696   5.143   8.572  10.012 -0.3911  0.3676 -0.4722
  954MOL0     C28697   5.141   8.667  10.133  0.0423  0.3135 -0.7080
  954MOL0     C28698   5.209   8.796  10.104 -0.8504  0.9567  0.1165
  954MOL0    Cl28699   5.144   8.875   9.958 -0.0255  0.6697  0.4504
  954MOL0     C28700   4.554   8.244   9.843 -0.7644  0.0833 -1.2338
  954MOL0     C28701   4.446   8.191   9.910 -0.9835  0.7528 -0.3023
  954MOL0     O28702   4.314   7.790   9.964 -0.0326 -0.4767 -0.5168
  954MOL0     C28703   4.080   7.757  10.124  0.2207  0.0101  0.1798
  954MOL0     C28704   3.958   7.753  10.189 -0.0424  0.4221 -0.2686
  954MOL0     N28705   3.170   7.645  10.189  0.4514 -0.5704 -0.1510
  954MOL0     N28706   3.047   7.618  10.165  0.5308  0.1656 -0.0132
  954MOL0     C28707   1.835   7.566  10.828  0.3990  0.5807 -0.1026
  954MOL0     C28708   1.787   7.602  10.953  0.1343  1.6123  0.5102
  954MOL0     C28709   1.787   7.695  11.418 -0.0047  0.3982  0.0536
  954MOL0     C28710   1.654   7.678  11.414  0.0923  0.3962 -0.6322
  954MOL0     C28711   1.571   7.672  11.531 -0.0382 -0.0308 -0.5113
  954MOL0     C28712   1.624   7.696  11.659 -0.3532  0.1152  0.6027
  954MOL0     O28713   1.553   7.687  11.782 -1.0799 -0.0203 -0.4272
  954MOL0     C28714   1.413   7.667  11.775 -0.3659 -0.6794 -0.3757
  954MOL0     C28715   1.349   7.663  11.913 -0.1688  0.0733 -0.7440
  954MOL0     C28716   1.204   7.634  11.912  0.1652  0.4909 -0.1785
  954MOL0     C28717   1.146   7.653  12.053  0.0703 -0.1679  0.3152
  954MOL0     C28718   1.100   7.785  12.077 -0.0759 -0.3206  0.0232
  954MOL0     C28719   1.059   7.901  12.103 -0.1105  0.3752 -0.3861
  954MOL0     C28720   1.762   7.710  11.669  0.3731 -1.0365 -0.1654
  954MOL0     C28721   1.843   7.703  11.551  0.4070 -0.5009 -1.0601
  954MOL0     C28722   1.991   7.730  11.589  0.0916  0.0631  0.4638
  954MOL0     H28723   2.061   7.721  11.102  3.6169 -0.0220 -2.1052
  954MOL0     H28724   2.150   7.683  10.874 -0.4840  1.4708  1.2057
  954MOL0     H28725   2.203   7.514  10.716 -1.0562 -6.0392 -1.1201
  954MOL0     H28726   2.155   7.467  10.556 -0.9795 -0.6788  1.2049
  954MOL0     H28727   2.143   7.766  10.597  0.6579  0.8478 -0.6267
  954MOL0     H28728   2.142   7.672  10.454  1.0372  0.1886 -0.4423
  954MOL0     H28729   2.360   7.735  10.641 -0.7008  2.4561  0.2775
  954MOL0     H28730   2.359   7.781  10.470 -0.0969 -1.4490  0.0488
  954MOL0     H28731   2.399   7.500  10.573  0.3606 -0.5473  0.1228
  954MOL0     H28732   2.367   7.542  10.400 -0.6118  0.7488  1.0469
  954MOL0     H28733   2.581   7.671  10.391 -0.7025 -0.9755 -1.2427
  954MOL0     H28734   2.614   7.638  10.562  1.0392  0.4410 -1.6821
  954MOL0     H28735   2.639   7.403  10.503 -0.8587  2.6032  3.6993
  954MOL0     H28736   2.598   7.451  10.338  1.7165  2.0504 -1.4497
  954MOL0     H28737   2.857   7.413  10.415  0.1774  0.1294  2.5047
  954MOL0     H28738   2.835   7.546  10.516  0.0437 -2.8168  1.5427
  954MOL0     H28739   2.817   7.549  10.203  0.6360 -1.5636  0.7361
  954MOL0     H28740   2.776   7.687  10.305 -2.1708 -1.2754 -2.4874
  954MOL0     H28741   3.066   7.656  10.487  0.1273  0.2187  1.0546
  954MOL0     H28742   3.315   7.807  10.437  0.7239  0.6016 -3.0924
  954MOL0     H28743   3.339   7.641  10.481  2.4654  1.0642  0.4053
  954MOL0     H28744   3.462   7.590  10.278 -1.2086 -0.6262 -1.9105
  954MOL0     H28745   3.414   7.756  10.216  0.6455  0.2600  0.7549
  954MOL0     H28746   3.562   7.716  10.471 -1.7700 -0.4759 -1.2145
  954MOL0     H28747   3.535   7.869  10.379  1.2860  0.6219 -1.3504
  954MOL0     H28748   3.691   7.641  10.259  2.6686 -0.5378 -1.3379
  954MOL0     H28749   3.763   7.740  10.397  1.0508  3.7319 -1.2252
  954MOL0     H28750   3.827   8.044  10.089 -0.5415 -0.3704  0.3023
  954MOL0     H28751   4.046   8.058   9.975  0.3079 -0.4902 -0.9538
  954MOL0     H28752   4.521   7.863   9.896 -2.2549 -0.3197  0.1182
  954MOL0     H28753   4.714   7.956   9.789  0.0143  0.4190  0.3291
  954MOL0     H28754   4.901   8.114   9.857  0.6992 -2.2336 -1.7148
  954MOL0     H28755   4.903   8.071   9.685  1.5224  1.2408 -1.1784
  954MOL0     H28756   5.098   8.211   9.731  0.0960  1.1086  1.1713
  954MOL0     H28757   4.975   8.310   9.637  1.7200 -0.4851 -2.0972
  954MOL0     H28758   5.031   8.456   9.794  0.7695 -0.3824 -0.8548
  954MOL0     H28759   4.887   8.370   9.860  0.4915  0.2833  0.5461
  954MOL0     H28760   5.178   8.298   9.933 -0.5993 -1.9246 -0.2954
  954MOL0     H28761   5.039   8.240  10.015 -1.2721  0.9446 -0.5695
  954MOL0     H28762   5.109   8.397  10.153 -3.0372  0.1854  1.4893
  954MOL0     H28763   4.972   8.468  10.077 -0.0912 -0.7570  0.9397
  954MOL0     H28764   5.247   8.558   9.981 -0.4657 -0.6043 -0.3053
  954MOL0     H28765   5.094   8.603   9.919 -0.4836  0.0768 -0.5198
  954MOL0     H28766   5.186   8.619  10.219  0.0341 -0.6820 -1.2452
  954MOL0     H28767   5.044   8.701  10.172 -0.2535 -0.5424 -0.6816
  954MOL0     H28768   5.210   8.863  10.191 -2.3142 -0.9705  1.7190
  954MOL0     H28769   5.312   8.763  10.086 -0.4676  1.2259  1.6494
  954MOL0     H28770   4.554   8.352   9.831  2.2352  0.2268 -0.6098
  954MOL0     H28771   4.397   8.271   9.966  1.3947  1.6903  0.5624
  954MOL0     H28772   4.149   7.674  10.131 -1.4174 -1.3291  1.3878
  954MOL0     H28773   3.948   7.669  10.256  0.1658  1.6495  1.3509
  954MOL0     H28774   1.765   7.519  10.759  0.4846 -0.1368  0.2864
  954MOL0     H28775   1.682   7.587  10.978  0.0771 -2.6777 -1.4711
  954MOL0     H28776   1.600   7.655  11.323 -1.0646 -0.1476  0.1599
  954MOL0     H28777   1.464   7.661  11.516 -0.4454 -1.0838  2.4671
  954MOL0     H28778   1.391   7.571  11.729 -2.0585 -0.0624 -0.9337
  954MOL0     H28779   1.365   7.737  11.707 -0.3214 -0.8058 -0.5374
  954MOL0     H28780   1.380   7.751  11.970  0.9272 -0.7137 -0.0710
  954MOL0     H28781   1.398   7.572  11.950 -0.1083  1.0653  1.7922
  954MOL0     H28782   1.186   7.530  11.884 -3.3960  0.7056  0.8397
  954MOL0     H28783   1.154   7.691  11.833 -0.4436 -0.0572 -0.1928
  954MOL0     H28784   1.062   7.587  12.075 -1.9525  1.9431 -0.5890
  954MOL0     H28785   1.230   7.627  12.119  0.2511 -1.9725 -0.5893
  954MOL0     H28786   1.018   7.996  12.129 -1.8161 -0.7001  1.0735
  954MOL0     H28787   1.806   7.730  11.767  1.4374 -1.0181 -0.6366
  954MOL0     H28788   2.002   7.748  11.696 -1.7040  3.7786  0.1993
  954MOL0     H28789   2.062   7.656  11.554  0.4221  0.4460  0.3193
  954MOL0     H28790   2.028   7.824  11.548 -0.5126  0.6806  1.2884
  955MOL0     O28791  10.484   0.088   1.264  0.1986 -0.2423 -0.0449
  955MOL0     C28792  10.395   0.169   1.268  0.4559 -0.2116 -0.6433
  955MOL0     O28793  10.409   0.307   1.298  0.1712  0.2400 -0.0947
  955MOL0     C28794  10.527   0.383   1.312 -0.1534 -1.2142  0.7000
  955MOL0     C28795  10.520   0.509   1.377 -0.7611 -0.1813  0.0172
  955MOL0     C28796  10.626   0.602   1.363 -1.4520 -0.2629  0.0191
  955MOL0     C28797  10.743   0.563   1.303 -0.2086 -0.5594 -0.2953
  955MOL0     O28798  10.853   0.653   1.292 -0.1394  0.4887 -0.5520
  955MOL0     C28799  10.835   0.793   1.331 -0.3913  0.9089  0.6550
  955MOL0     C28800  10.959   0.867   1.282 -0.6046  0.3927 -0.6744
  955MOL0     C28801  10.964   1.007   1.338 -0.0660 -0.3694  0.7041
  955MOL0     C28802  11.069   1.097   1.264  0.1627 -0.0002  0.1615
  955MOL0     C28803  11.068   1.239   1.331  0.4407  0.6847 -0.3075
  955MOL0     C28804  11.120   1.357   1.237 -0.0548  0.9412  0.7517
  955MOL0     C28805  11.142   1.486   1.311  0.8559 -0.5314  0.6733
  955MOL0     C28806  11.278   1.496   1.391  0.3850  0.2248  0.2982
  955MOL0     N28807  11.405   1.484   1.316 -0.0050  0.3317  0.1437
  955MOL0     C28808  11.439   1.561   1.202 -0.6112  1.5993 -0.8485
  955MOL0     C28809  11.548   1.496   1.160 -0.1679  0.2557 -0.8704
  955MOL0     C28810  11.638   1.540   1.050 -0.2903 -0.3056  0.7221
  955MOL0     C28811  11.760   1.625   1.098 -0.5011 -0.6332  0.0600
  955MOL0     C28812  11.728   1.755   1.172 -0.2956  0.0901  0.3175
  955MOL0     C28813  11.860   1.836   1.183 -0.4052 -0.6502 -0.8301
  955MOL0     O28814  11.901   1.863   1.048 -0.1750 -0.1243 -0.0535
  955MOL0     C28815  12.035   1.892   1.025 -0.1173 -0.0037  0.0593
  955MOL0     C28816  12.137   1.888   1.116 -0.0877  0.3764 -0.6787
  955MOL0     C28817  12.272   1.905   1.085 -0.4177 -0.0376 -0.0712
  955MOL0     C28818  12.308   1.934   0.955 -0.1753 -0.5535  0.5336
  955MOL0     C28819  12.447   1.956   0.914  0.1165 -1.6894 -0.7183
  955MOL0     O28820  12.536   1.898   0.992  0.0945 -0.3188 -0.2797
  955MOL0     C28821  12.673   1.925   0.984 -0.1754 -0.1025  0.0551
  955MOL0     C28822  12.754   1.964   1.092  0.3559  0.0008  0.4426
  955MOL0     C28823  12.886   1.994   1.085 -0.8019 -0.3610  0.5568
  955MOL0     C28824  12.951   1.967   0.961 -0.4653 -0.6736 -0.5473
  955MOL0     O28825  13.091   1.975   0.947  0.7097  0.3330 -0.0534
  955MOL0     C28826  13.168   2.032   1.052  0.1478 -0.5006 -0.4177
  955MOL0     C28827  13.314   2.063   1.004 -0.2757  0.0368 -0.6147
  955MOL0     C28828  13.412   2.112   1.116 -0.4164 -0.8248 -1.0232
  955MOL0     C28829  13.538   2.147   1.044 -0.0761 -0.1817  0.8813
  955MOL0     C28830  13.623   2.269   1.091 -0.0707 -0.7492  0.1073
  955MOL0     C28831  13.543   2.391   1.126 -0.0613 -0.3956 -0.0105
  955MOL0     C28832  13.643   2.505   1.153 -0.9658  0.0210 -0.2347
  955MOL0     C28833  13.709   2.572   1.028  0.2710  0.2963  0.4110
  955MOL0    Cl28834  13.824   2.693   1.075 -0.1047  0.2773  0.2328
  955MOL0     C28835  12.880   1.923   0.852  0.9174  0.4323 -0.5443
  955MOL0     C28836  12.737   1.907   0.860 -0.8672 -0.2807 -0.0280
  955MOL0     O28837  12.469   2.031   0.818 -0.7897  0.0663 -0.4759
  955MOL0     C28838  12.213   1.929   0.854  0.0171  0.1455  0.5774
  955MOL0     C28839  12.076   1.924   0.890 -0.4069 -0.5129  0.4936
  955MOL0     N28840  11.591   1.395   1.247  0.2883  0.2861 -0.9341
  955MOL0     N28841  11.498   1.385   1.336  0.4611 -0.6861 -0.4941
  955MOL0     C28842  10.754   0.436   1.247  0.0846 -0.8827 -0.1726
  955MOL0     C28843  10.647   0.347   1.249  0.8930 -0.3385  0.7682
  955MOL0     C28844  10.255   0.118   1.237  0.2736 -0.4745 -1.4834
  955MOL0     C28845  10.185   0.194   1.142 -0.3744 -0.4759  0.2506
  955MOL0     C28846  10.050   0.167   1.116  1.1658  0.0510 -0.1320
  955MOL0     C28847   9.980   0.059   1.164 -0.2358  0.3685 -0.1251
  955MOL0     O28848   9.856   0.035   1.119  0.1153  0.2229 -0.1198
  955MOL0     C28849   9.802  -0.098   1.136  0.0717 -0.1956  0.0790
  955MOL0     C28850   9.680  -0.126   1.041  0.0645  0.1575 -1.2640
  955MOL0     C28851   9.576  -0.013   1.052 -0.0879 -0.2856 -0.4274
  955MOL0     C28852   9.474  -0.027   0.934 -0.0505  0.3683 -0.2945
  955MOL0     C28853   9.364   0.070   0.950  0.0365  0.7581  0.0175
  955MOL0     C28854   9.269   0.149   0.971 -0.7016 -0.6869  0.1778
  955MOL0     C28855  10.055  -0.022   1.257  0.2361  0.2642  0.8157
  955MOL0     C28856  10.186   0.005   1.293 -0.7166 -0.2633 -0.1343
  955MOL0     C28857  10.255  -0.100   1.376  0.0072  0.3286  0.5153
  955MOL0     H28858  10.432   0.534   1.436  0.1610  0.8948  1.0034
  955MOL0     H28859  10.597   0.705   1.385 -1.2367  0.3591 -2.4023
  955MOL0     H28860  10.741   0.826   1.287 -0.2164 -1.3103 -1.6358
  955MOL0     H28861  10.817   0.799   1.439 -0.0083  3.5526  0.6257
  955MOL0     H28862  10.956   0.884   1.174 -0.7354  2.1023 -0.4238
  955MOL0     H28863  11.049   0.808   1.302  0.0079  1.2043 -1.0380
  955MOL0     H28864  10.980   1.010   1.446 -0.7774 -0.7529  0.8214
  955MOL0     H28865  10.859   1.037   1.333  0.2846  0.8662  0.4333
  955MOL0     H28866  11.165   1.044   1.269  0.7300  1.0649  2.8219
  955MOL0     H28867  11.037   1.102   1.160  2.6062 -1.5928 -0.7617
  955MOL0     H28868  10.964   1.262   1.354  0.3553 -0.2878  0.3223
  955MOL0     H28869  11.133   1.240   1.418 -0.0786  2.2029  0.1025
  955MOL0     H28870  11.215   1.342   1.184  0.2381  1.8636  0.9910
  955MOL0     H28871  11.044   1.372   1.160  0.5516 -2.4720 -0.7337
  955MOL0     H28872  11.055   1.504   1.375 -0.9810  0.0800 -1.8074
  955MOL0     H28873  11.137   1.566   1.235  1.0678 -0.8483  0.3206
  955MOL0     H28874  11.283   1.596   1.435  1.1849  0.4523 -0.2917
  955MOL0     H28875  11.274   1.428   1.477  0.5364  1.5004  1.3521
  955MOL0     H28876  11.389   1.648   1.162 -2.7970  0.9674  0.3416
  955MOL0     H28877  11.679   1.450   1.004  1.3809 -0.9724  3.2858
  955MOL0     H28878  11.587   1.608   0.982 -1.9196 -1.8205  0.3715
  955MOL0     H28879  11.833   1.569   1.157  1.0648 -0.1856 -1.3801
  955MOL0     H28880  11.801   1.651   1.000 -1.0852  1.6051  0.3441
  955MOL0     H28881  11.681   1.726   1.267  2.4077 -3.2526  0.8563
  955MOL0     H28882  11.655   1.814   1.117 -0.7692  1.9856  2.8065
  955MOL0     H28883  11.942   1.799   1.244  1.8125  2.7024 -1.4646
  955MOL0     H28884  11.828   1.931   1.228  3.9213  1.4588 -1.6286
  955MOL0     H28885  12.125   1.868   1.222  0.3509  1.4946 -0.4065
  955MOL0     H28886  12.341   1.902   1.168  0.5456  3.1729 -0.6265
  955MOL0     H28887  12.700   1.971   1.186  1.5432  2.1427  1.0161
  955MOL0     H28888  12.946   2.016   1.173  0.0763 -0.4438 -0.0115
  955MOL0     H28889  13.122   2.126   1.082  1.2800 -0.2162  0.5070
  955MOL0     H28890  13.184   1.967   1.138  2.6016 -0.5347 -0.8236
  955MOL0     H28891  13.362   1.976   0.957 -0.6863 -0.6037  0.1277
  955MOL0     H28892  13.313   2.143   0.930 -0.2513 -1.2204 -2.0366
  955MOL0     H28893  13.370   2.203   1.159 -0.2680  0.2571 -3.0218
  955MOL0     H28894  13.432   2.041   1.197 -3.6467  1.2310  1.8641
  955MOL0     H28895  13.517   2.155   0.938  0.5679 -1.1632  0.6677
  955MOL0     H28896  13.599   2.057   1.056 -1.9664 -1.7514 -0.6508
  955MOL0     H28897  13.698   2.292   1.015  0.4210  3.2139  1.5475
  955MOL0     H28898  13.668   2.238   1.186  3.9155  0.3952 -1.1996
  955MOL0     H28899  13.482   2.416   1.039 -1.0402 -0.2415  0.7077
  955MOL0     H28900  13.486   2.370   1.217  1.1532 -1.7824  0.4628
  955MOL0     H28901  13.715   2.471   1.227 -0.4082  1.5950 -0.0229
  955MOL0     H28902  13.586   2.583   1.205 -1.7820  0.0424 -1.1229
  955MOL0     H28903  13.760   2.495   0.970  1.3479  0.4233  1.1417
  955MOL0     H28904  13.639   2.615   0.957 -1.0878  0.4803  1.8070
  955MOL0     H28905  12.926   1.902   0.756  1.5462  1.4603 -0.4740
  955MOL0     H28906  12.684   1.870   0.773 -0.6573  0.8966 -0.6740
  955MOL0     H28907  12.239   1.938   0.749  0.4913 -0.2973  0.6552
  955MOL0     H28908  12.015   1.931   0.801  1.2044 -0.6114 -0.6720
  955MOL0     H28909  10.841   0.399   1.193  1.1326 -0.1721  0.9942
  955MOL0     H28910  10.649   0.256   1.189 -0.2263 -0.0011  0.1861
  955MOL0     H28911  10.229   0.282   1.096  1.5785 -3.1080 -3.4875
  955MOL0     H28912   9.999   0.236   1.050 -1.6466  0.4199  2.2087
  955MOL0     H28913   9.771  -0.110   1.241  1.3057  1.2300  0.6357
  955MOL0     H28914   9.872  -0.179   1.114  0.5024 -0.9102  3.4414
  955MOL0     H28915   9.636  -0.221   1.073 -2.2318  2.5023  3.6703
  955MOL0     H28916   9.718  -0.143   0.940  2.3326  0.9691 -0.6245
  955MOL0     H28917   9.619   0.088   1.057 -1.1040  0.1693 -0.5574
  955MOL0     H28918   9.520  -0.032   1.144 -0.3924  1.2776 -0.2567
  955MOL0     H28919   9.520  -0.017   0.836 -1.6367 -1.3989 -1.2849
  955MOL0     H28920   9.432  -0.128   0.944 -1.5205  0.7694 -2.0153
  955MOL0     H28921   9.178   0.205   0.975  0.9749  2.2162 -0.2736
  955MOL0     H28922  10.008  -0.113   1.295  0.3353 -1.8972 -3.5733
  955MOL0     H28923  10.288  -0.045   1.464 -0.9150  1.3490  0.2414
  955MOL0     H28924  10.192  -0.182   1.410  0.5171  0.2961  1.3986
  955MOL0     H28925  10.339  -0.143   1.320  0.1695 -2.9630  3.0106
  956MOL0     O28926   6.140   8.437   6.771  0.4842 -0.1543 -0.2787
  956MOL0     C28927   6.050   8.355   6.786 -0.7141  0.8250  0.4316
  956MOL0     O28928   6.070   8.225   6.838  0.4335  0.3402 -0.7268
  956MOL0     C28929   6.188   8.169   6.805  0.6050 -0.4466 -0.1112
  956MOL0     C28930   6.293   8.206   6.881  0.4099  0.1212  0.1730
  956MOL0     C28931   6.418   8.148   6.863 -0.1907  0.6062 -0.2651
  956MOL0     C28932   6.431   8.052   6.759  0.8574 -0.0780  0.3543
  956MOL0     O28933   6.561   8.010   6.740  0.5898  0.1649  0.1731
  956MOL0     C28934   6.567   7.889   6.659  0.8335 -0.2669 -0.6331
  956MOL0     C28935   6.709   7.860   6.628 -0.6263 -0.2383  0.1234
  956MOL0     C28936   6.808   7.850   6.745  0.7193 -0.4427  0.1724
  956MOL0     C28937   6.944   7.796   6.702  0.8666 -0.2898  0.9375
  956MOL0     C28938   7.014   7.731   6.828  0.0486  0.1196 -0.3194
  956MOL0     C28939   7.166   7.704   6.801  0.4944  0.2050 -0.0571
  956MOL0     C28940   7.228   7.639   6.923 -0.3637  0.5756  0.7002
  956MOL0     C28941   7.383   7.622   6.923  0.4440 -0.7849 -0.8969
  956MOL0     N28942   7.427   7.580   6.793 -0.1090  0.7204  0.3791
  956MOL0     C28943   7.499   7.664   6.719  0.0793 -0.7772  1.4502
  956MOL0     C28944   7.529   7.597   6.599  0.3659 -0.1361 -0.1034
  956MOL0     C28945   7.607   7.653   6.490  0.4008  0.2525  0.1128
  956MOL0     C28946   7.700   7.561   6.418 -0.1170  0.4816 -0.0362
  956MOL0     C28947   7.775   7.644   6.305  0.1072  0.8138 -0.5891
  956MOL0     C28948   7.890   7.725   6.370 -0.9839  0.5775  0.2159
  956MOL0     O28949   7.983   7.628   6.438 -0.8100 -0.7961 -0.5858
  956MOL0     C28950   8.116   7.676   6.457  0.5144  0.8628  0.5228
  956MOL0     C28951   8.153   7.811   6.481 -0.0775  0.3262 -0.7537
  956MOL0     C28952   8.286   7.845   6.495  0.8392  0.3642 -0.4074
  956MOL0     C28953   8.388   7.744   6.498 -0.1472 -0.0080  0.5443
  956MOL0     C28954   8.527   7.787   6.511 -0.0883 -0.3303  0.2095
  956MOL0     O28955   8.607   7.688   6.570 -0.2674 -0.6358  0.2567
  956MOL0     C28956   8.744   7.698   6.593 -0.6111  0.6506 -0.6074
  956MOL0     C28957   8.813   7.576   6.607 -0.0689  0.7071  0.2760
  956MOL0     C28958   8.953   7.582   6.628 -0.3274 -0.1012  0.4053
  956MOL0     C28959   9.022   7.705   6.637  0.5131  0.7417 -0.4130
  956MOL0     O28960   9.161   7.714   6.652  0.5224  0.2347 -0.6574
  956MOL0     C28961   9.225   7.691   6.530 -0.2827  0.4334  0.1940
  956MOL0     C28962   9.367   7.705   6.555 -0.7620 -0.2451 -0.1297
  956MOL0     C28963   9.422   7.578   6.631 -0.5701 -0.6811  0.6819
  956MOL0     C28964   9.560   7.606   6.689  0.1563 -0.6275 -0.1813
  956MOL0     C28965   9.668   7.605   6.576 -0.3329 -0.0831 -0.0512
  956MOL0     C28966   9.800   7.632   6.641 -0.4701 -0.4816 -0.6535
  956MOL0     C28967   9.906   7.592   6.540  0.9893  0.2456  0.1674
  956MOL0     C28968   9.952   7.721   6.468  0.2212 -0.4571  0.9039
  956MOL0    Cl28969  10.089   7.682   6.359  0.7258 -0.0890 -0.0059
  956MOL0     C28970   8.951   7.819   6.608 -0.4581  0.5605  0.3767
  956MOL0     C28971   8.817   7.817   6.596  0.7264  0.6612  0.3119
  956MOL0     O28972   8.567   7.895   6.471 -0.2607  0.0385  1.0848
  956MOL0     C28973   8.349   7.610   6.481  0.0680  0.5724 -1.0742
  956MOL0     C28974   8.218   7.577   6.464 -0.1372  0.0089 -0.0576
  956MOL0     N28975   7.465   7.472   6.604  0.2388  0.6751  0.0596
  956MOL0     N28976   7.408   7.465   6.723 -0.8297  0.6020 -0.3393
  956MOL0     C28977   6.313   8.007   6.691  0.2814 -0.8858 -0.1146
  956MOL0     C28978   6.191   8.068   6.715 -0.4148  0.7027  0.6351
  956MOL0     C28979   5.919   8.389   6.752  0.7033 -0.2793 -0.3742
  956MOL0     C28980   5.823   8.288   6.728 -0.9656  0.4646  0.2389
  956MOL0     C28981   5.692   8.311   6.693  0.3435 -0.2711 -0.3518
  956MOL0     C28982   5.642   8.444   6.682 -0.1348 -0.2515 -0.1327
  956MOL0     O28983   5.518   8.487   6.653 -0.6424  0.4325 -0.5671
  956MOL0     C28984   5.410   8.411   6.714 -0.5742 -0.2418  0.3076
  956MOL0     C28985   5.277   8.461   6.664 -0.4394 -0.1213  0.7154
  956MOL0     C28986   5.151   8.390   6.723 -0.4484 -0.0108  0.4791
  956MOL0     C28987   5.020   8.452   6.678 -0.8872 -0.9916 -0.7791
  956MOL0     C28988   4.990   8.407   6.542 -0.0983  0.3642  0.1453
  956MOL0     C28989   4.955   8.363   6.433 -0.2377 -0.6690  0.5553
  956MOL0     C28990   5.736   8.547   6.691  0.5660 -0.3521 -0.6529
  956MOL0     C28991   5.870   8.520   6.737  0.2224 -0.5029  1.0323
  956MOL0     C28992   5.961   8.642   6.760 -0.0285  0.2624  0.4115
  956MOL0     H28993   6.291   8.283   6.958  0.5685  1.2087 -0.8760
  956MOL0     H28994   6.508   8.163   6.922  0.2884  0.2863 -0.9085
  956MOL0     H28995   6.517   7.808   6.712 -0.8209  0.7575 -0.5532
  956MOL0     H28996   6.524   7.915   6.562  3.3506  1.3332 -1.4372
  956MOL0     H28997   6.735   7.942   6.561  1.2035 -1.0430 -0.2090
  956MOL0     H28998   6.703   7.779   6.554  0.6581 -0.7197  0.5118
  956MOL0     H28999   6.771   7.782   6.823  0.9186 -1.1353 -0.3290
  956MOL0     H29000   6.816   7.950   6.789  0.7843 -0.8293  1.0539
  956MOL0     H29001   6.940   7.728   6.617 -3.3997  1.5044 -0.5444
  956MOL0     H29002   6.995   7.882   6.657 -1.5038 -0.0466 -1.4806
  956MOL0     H29003   7.012   7.801   6.913  0.7669  0.2846 -0.4322
  956MOL0     H29004   6.968   7.634   6.849  1.4448 -1.2116 -2.9531
  956MOL0     H29005   7.167   7.634   6.717  0.2860  1.1231 -0.8477
  956MOL0     H29006   7.218   7.791   6.761 -1.7228  0.7992 -1.8991
  956MOL0     H29007   7.190   7.538   6.945 -0.1297  0.2164 -0.4956
  956MOL0     H29008   7.190   7.703   7.003 -0.4474 -0.0497  1.1723
  956MOL0     H29009   7.428   7.715   6.958  0.1846  0.5418 -3.7656
  956MOL0     H29010   7.415   7.541   6.989 -1.4792  2.0003  4.0067
  956MOL0     H29011   7.536   7.763   6.744  2.1670 -0.9386 -0.5847
  956MOL0     H29012   7.535   7.694   6.419  2.9426  1.8870 -1.7292
  956MOL0     H29013   7.660   7.741   6.528  0.3968  0.1206  0.4233
  956MOL0     H29014   7.767   7.513   6.491 -0.3603  0.2079  0.0077
  956MOL0     H29015   7.634   7.489   6.371  1.4170 -0.8478 -0.2584
  956MOL0     H29016   7.708   7.713   6.253 -1.9308 -0.8313 -0.2826
  956MOL0     H29017   7.823   7.574   6.236 -0.0158 -0.5143  0.6250
  956MOL0     H29018   7.850   7.803   6.436 -2.7476  1.4100 -1.7185
  956MOL0     H29019   7.947   7.763   6.285  2.2422 -1.8812  1.0913
  956MOL0     H29020   8.075   7.887   6.478  0.4617  0.8806 -1.0916
  956MOL0     H29021   8.313   7.950   6.500 -0.6294  0.8273 -1.7057
  956MOL0     H29022   8.750   7.488   6.595 -1.7841  1.9815 -0.5136
  956MOL0     H29023   9.014   7.494   6.648  0.6317  0.8457  1.9434
  956MOL0     H29024   9.197   7.591   6.495  0.4513 -1.0792  3.5630
  956MOL0     H29025   9.195   7.774   6.466  3.3750  1.3147 -0.6055
  956MOL0     H29026   9.429   7.734   6.470  1.3098  0.9567  1.6891
  956MOL0     H29027   9.397   7.790   6.617  1.3608 -0.9861 -0.0542
  956MOL0     H29028   9.363   7.538   6.714  0.9641  1.1984  2.8018
  956MOL0     H29029   9.424   7.491   6.565  0.3459 -0.6655  0.6837
  956MOL0     H29030   9.582   7.531   6.766  0.0152  1.2740  1.7892
  956MOL0     H29031   9.557   7.704   6.737 -0.5320 -1.2269  1.0497
  956MOL0     H29032   9.663   7.678   6.496  1.0717  0.1155  0.0280
  956MOL0     H29033   9.661   7.511   6.521  0.9151  1.3719 -2.8727
  956MOL0     H29034   9.803   7.738   6.669 -0.4834 -1.3180  2.9890
  956MOL0     H29035   9.809   7.575   6.734 -2.2367 -1.3782 -0.9756
  956MOL0     H29036   9.867   7.519   6.469  2.7929 -1.1082  0.4818
  956MOL0     H29037   9.994   7.548   6.587  0.8114 -3.4844 -2.5984
  956MOL0     H29038   9.864   7.761   6.416  1.6402  0.2807 -1.0763
  956MOL0     H29039   9.990   7.799   6.534  0.0274  0.3898  0.0415
  956MOL0     H29040   9.001   7.914   6.590 -1.6112  0.9544 -0.9113
  956MOL0     H29041   8.784   7.919   6.576  0.5394  0.5801  0.2074
  956MOL0     H29042   8.422   7.533   6.500  0.7905  1.1765 -1.3519
  956MOL0     H29043   8.182   7.474   6.462 -2.0548  0.4815  3.1442
  956MOL0     H29044   6.308   7.931   6.613  1.1263  0.5986 -1.6816
  956MOL0     H29045   6.106   8.035   6.657 -0.1908 -0.6794  1.0540
  956MOL0     H29046   5.854   8.184   6.725 -3.0811 -0.2078 -2.6125
  956MOL0     H29047   5.621   8.230   6.687  1.2126 -1.0690 -0.1679
  956MOL0     H29048   5.425   8.418   6.822 -2.1969  0.6178  0.5132
  956MOL0     H29049   5.420   8.304   6.694 -2.9305 -0.6112  0.7447
  956MOL0     H29050   5.274   8.469   6.555 -0.9182  2.9929  0.8822
  956MOL0     H29051   5.275   8.566   6.694  3.6816  0.4953 -0.5196
  956MOL0     H29052   5.165   8.399   6.831  1.4451  0.5561  0.2340
  956MOL0     H29053   5.159   8.285   6.694  1.2282  0.5399 -1.2922
  956MOL0     H29054   4.937   8.431   6.747 -1.5228  2.1172 -0.4583
  956MOL0     H29055   5.025   8.560   6.692 -0.2473 -1.2132  0.9474
  956MOL0     H29056   4.920   8.336   6.336 -0.9247  0.4722  0.4665
  956MOL0     H29057   5.706   8.649   6.671  0.4500  0.0422  1.3234
  956MOL0     H29058   6.036   8.662   6.683  0.9121  1.5898  1.6060
  956MOL0     H29059   5.910   8.735   6.788  0.2000  0.3021  0.7144
  956MOL0     H29060   6.015   8.615   6.852  0.6917 -1.5642 -0.5141
  957MOL0     O29061   6.933   1.964   6.598 -0.9004 -0.4116 -0.5985
  957MOL0     C29062   6.932   1.853   6.645  0.8731 -0.1722 -0.1876
  957MOL0     O29063   7.049   1.783   6.661 -0.2249  0.4214 -0.2720
  957MOL0     C29064   7.175   1.839   6.636 -0.1914 -0.7467  0.0799
  957MOL0     C29065   7.207   1.930   6.534 -0.7181  0.8365 -0.3020
  957MOL0     C29066   7.344   1.969   6.510  0.4478  0.3330  0.1665
  957MOL0     C29067   7.450   1.922   6.586  0.5289 -0.3453 -0.4363
  957MOL0     O29068   7.576   1.965   6.555  0.7973  0.2232  0.2458
  957MOL0     C29069   7.694   1.914   6.618 -1.0395  1.1263 -0.9804
  957MOL0     C29070   7.730   1.957   6.764  0.1490  0.0494  0.1038
  957MOL0     C29071   7.880   1.978   6.779  0.2634 -0.3297  0.5008
  957MOL0     C29072   7.964   1.852   6.784 -0.2461 -0.1049  0.4983
  957MOL0     C29073   8.113   1.874   6.822  0.4154  0.2093 -0.3194
  957MOL0     C29074   8.213   1.761   6.764  0.0128 -0.4372 -0.3320
  957MOL0     C29075   8.338   1.738   6.851  0.4548  0.1656  0.2421
  957MOL0     C29076   8.432   1.652   6.762  0.4406 -0.7229  1.1409
  957MOL0     N29077   8.568   1.651   6.814  0.0560  0.1987  0.7892
  957MOL0     C29078   8.615   1.598   6.936 -0.4331  0.2192 -0.4303
  957MOL0     C29079   8.736   1.653   6.956 -0.2471  0.6490  0.0175
  957MOL0     C29080   8.813   1.640   7.085  0.3177  0.0615  0.1890
  957MOL0     C29081   8.807   1.764   7.177 -0.4933 -0.1458 -0.7549
  957MOL0     C29082   8.871   1.722   7.304 -0.5687  0.2627  0.0361
  957MOL0     C29083   8.756   1.684   7.402 -0.7317  0.1239  0.5589
  957MOL0     O29084   8.683   1.791   7.451  0.7700  0.0909  0.7314
  957MOL0     C29085   8.601   1.770   7.560  0.0208  1.1787 -0.5687
  957MOL0     C29086   8.565   1.646   7.613  0.8037  1.0164  0.8196
  957MOL0     C29087   8.499   1.620   7.733 -0.0831 -0.5909 -0.7972
  957MOL0     C29088   8.466   1.734   7.812 -1.5071 -0.1402  0.3966
  957MOL0     C29089   8.404   1.708   7.939  0.1774  0.3488 -0.6896
  957MOL0     O29090   8.429   1.586   7.995  0.4535 -0.2281 -0.7358
  957MOL0     C29091   8.387   1.582   8.128 -1.1272 -0.6573  0.3049
  957MOL0     C29092   8.260   1.559   8.168  0.3369  0.3852 -0.8726
  957MOL0     C29093   8.234   1.546   8.306  0.1628  0.6115 -0.6333
  957MOL0     C29094   8.329   1.558   8.408 -0.6538  0.3919  0.0273
  957MOL0     O29095   8.283   1.556   8.538 -0.2869  1.6708 -0.7984
  957MOL0     C29096   8.366   1.561   8.654  0.0144 -0.5979  0.5185
  957MOL0     C29097   8.278   1.521   8.775 -0.0054  0.0946  0.5478
  957MOL0     C29098   8.150   1.605   8.795  0.9885 -0.1493 -0.4739
  957MOL0     C29099   8.094   1.569   8.941  0.0138 -0.9871  0.5329
  957MOL0     C29100   7.952   1.637   8.954 -0.6122  0.9555 -0.4375
  957MOL0     C29101   7.906   1.639   9.102 -0.1075  0.3800 -0.3773
  957MOL0     C29102   7.770   1.709   9.105 -0.2531 -0.2527 -0.7867
  957MOL0     C29103   7.715   1.723   9.244  0.2941  0.2390  0.1423
  957MOL0    Cl29104   7.818   1.818   9.361  0.2560 -0.2147 -0.3466
  957MOL0     C29105   8.459   1.572   8.364 -0.0486 -0.3333 -0.4340
  957MOL0     C29106   8.483   1.587   8.223 -0.5527 -0.3437  0.0410
  957MOL0     O29107   8.358   1.806   7.996  0.7256 -0.0687 -0.6962
  957MOL0     C29108   8.503   1.858   7.767  0.1083  0.5183  0.2004
  957MOL0     C29109   8.561   1.874   7.641 -0.2844 -0.2706 -0.0741
  957MOL0     N29110   8.768   1.731   6.848 -0.4790 -0.9875 -0.5681
  957MOL0     N29111   8.663   1.735   6.769  0.2262 -0.3234  0.1126
  957MOL0     C29112   7.417   1.837   6.696  0.3055  0.7881  0.3633
  957MOL0     C29113   7.283   1.797   6.716 -0.2037 -0.2522 -0.1812
  957MOL0     C29114   6.798   1.784   6.684  0.4729  0.5652  0.5750
  957MOL0     C29115   6.691   1.859   6.660 -0.1400  0.4295 -0.5672
  957MOL0     C29116   6.569   1.821   6.705 -0.3830  0.3413 -0.0626
  957MOL0     C29117   6.540   1.694   6.766 -0.4824 -0.1569 -0.5107
  957MOL0     O29118   6.417   1.649   6.807 -0.4952 -0.2288  0.2541
  957MOL0     C29119   6.300   1.727   6.791  0.2374  0.2773 -0.2453
  957MOL0     C29120   6.226   1.687   6.658  0.6184 -0.5346  0.0245
  957MOL0     C29121   6.082   1.753   6.665 -0.7023  0.4822 -0.3868
  957MOL0     C29122   5.983   1.655   6.731 -0.4508  1.0138  0.0546
  957MOL0     C29123   5.848   1.718   6.734 -0.3155  0.0304 -0.1869
  957MOL0     C29124   5.744   1.783   6.737  0.4547  0.5125  0.1683
  957MOL0     C29125   6.658   1.613   6.781 -0.3130 -0.8718  0.8536
  957MOL0     C29126   6.783   1.654   6.735 -0.2506 -0.4073  0.0586
  957MOL0     C29127   6.900   1.555   6.745 -1.1626  0.9580 -0.3181
  957MOL0     H29128   7.134   1.976   6.467 -0.0819  0.6988 -1.0927
  957MOL0     H29129   7.355   2.033   6.424 -0.9823  0.8438  0.3286
  957MOL0     H29130   7.689   1.805   6.607 -0.0049  0.9771 -0.0122
  957MOL0     H29131   7.776   1.951   6.556 -1.7447  2.3197 -1.2438
  957MOL0     H29132   7.697   1.879   6.833 -2.6945  1.3637  0.3896
  957MOL0     H29133   7.668   2.046   6.779 -0.5094  0.8561 -5.3289
  957MOL0     H29134   7.892   2.031   6.873 -0.2396 -0.0360  0.4036
  957MOL0     H29135   7.913   2.044   6.698 -0.6929 -1.2183 -0.6557
  957MOL0     H29136   7.935   1.771   6.851  1.7506 -1.5279 -0.2745
  957MOL0     H29137   7.965   1.802   6.687 -0.7880 -0.1963  0.5380
  957MOL0     H29138   8.154   1.972   6.796  2.9096 -0.9837 -1.2465
  957MOL0     H29139   8.123   1.863   6.931 -1.1704  1.3214 -0.0305
  957MOL0     H29140   8.153   1.670   6.756  1.5873 -1.4803 -0.8952
  957MOL0     H29141   8.237   1.790   6.661 -1.0701 -0.8044 -0.7002
  957MOL0     H29142   8.317   1.691   6.947  2.0082 -1.2739 -0.0660
  957MOL0     H29143   8.392   1.833   6.862  1.6224 -0.4095 -0.3108
  957MOL0     H29144   8.393   1.550   6.764  1.1337 -1.0133  4.3179
  957MOL0     H29145   8.436   1.696   6.662 -1.0982  0.5279  1.5795
  957MOL0     H29146   8.563   1.538   7.009 -0.0536  2.3759  1.7509
  957MOL0     H29147   8.784   1.541   7.122  1.3281 -0.9410 -1.5275
  957MOL0     H29148   8.915   1.634   7.046  0.1214 -0.2289 -0.2882
  957MOL0     H29149   8.844   1.856   7.131 -0.5713  0.4743  0.3822
  957MOL0     H29150   8.702   1.792   7.191  0.3796  2.2082  2.1339
  957MOL0     H29151   8.932   1.808   7.333  1.4339 -0.6952 -1.1339
  957MOL0     H29152   8.932   1.632   7.295 -0.2457  0.0964  2.8314
  957MOL0     H29153   8.794   1.627   7.486 -1.5259 -1.4225 -0.0832
  957MOL0     H29154   8.688   1.616   7.348 -2.6349  2.4102 -0.1041
  957MOL0     H29155   8.600   1.552   7.570 -1.2963  0.7672 -0.5063
  957MOL0     H29156   8.458   1.525   7.765 -1.3577  0.0695 -0.3944
  957MOL0     H29157   8.185   1.550   8.090  1.5162  0.3365 -2.0363
  957MOL0     H29158   8.130   1.526   8.330  0.0756  0.6163 -1.0084
  957MOL0     H29159   8.443   1.484   8.649 -0.4121 -0.9625 -0.7065
  957MOL0     H29160   8.405   1.661   8.673 -1.6072  0.0764  0.4897
  957MOL0     H29161   8.246   1.420   8.750 -0.1600  0.3665 -0.4116
  957MOL0     H29162   8.342   1.530   8.863  0.4677 -0.0036  0.2168
  957MOL0     H29163   8.169   1.712   8.810 -3.2783  0.5905  1.1582
  957MOL0     H29164   8.073   1.591   8.719 -1.1474 -5.2059  2.1401
  957MOL0     H29165   8.165   1.612   9.013  1.0253  0.1387 -1.0612
  957MOL0     H29166   8.071   1.463   8.952 -3.8734 -0.2782  0.4886
  957MOL0     H29167   7.877   1.583   8.895  0.1427 -0.7816  0.1376
  957MOL0     H29168   7.968   1.739   8.917  3.8687  0.2569 -0.9794
  957MOL0     H29169   7.924   1.547   9.159  1.5694  1.2033  0.5098
  957MOL0     H29170   7.976   1.704   9.156 -1.2069  1.2549  0.0264
  957MOL0     H29171   7.697   1.667   9.036 -1.0952  0.4500 -0.3433
  957MOL0     H29172   7.787   1.814   9.078 -0.5055 -0.2154 -0.8008
  957MOL0     H29173   7.619   1.775   9.235  0.9597  1.4046 -0.4786
  957MOL0     H29174   7.708   1.616   9.267  0.8158 -0.6725 -3.2938
  957MOL0     H29175   8.543   1.575   8.433  0.0851  2.2673 -0.6242
  957MOL0     H29176   8.583   1.600   8.185 -1.3063  2.3995 -1.2242
  957MOL0     H29177   8.482   1.946   7.828  2.2312  1.2547 -0.0533
  957MOL0     H29178   8.600   1.970   7.610  0.3330 -0.2335  0.7683
  957MOL0     H29179   7.485   1.771   6.749 -0.8087 -0.7384 -0.0366
  957MOL0     H29180   7.252   1.735   6.799 -2.2411  2.3796  1.1685
  957MOL0     H29181   6.688   1.953   6.606  1.6952  1.1024  0.4307
  957MOL0     H29182   6.487   1.890   6.686 -1.3176 -0.4073  1.0735
  957MOL0     H29183   6.332   1.832   6.794 -0.0733  0.4386 -1.6107
  957MOL0     H29184   6.230   1.702   6.871  0.2000  0.3097 -0.2680
  957MOL0     H29185   6.220   1.578   6.667 -0.0301 -0.6341 -1.2966
  957MOL0     H29186   6.277   1.710   6.564  1.6975  1.0348  0.9460
  957MOL0     H29187   6.049   1.788   6.567  0.1718  1.1960 -0.4303
  957MOL0     H29188   6.096   1.846   6.720 -0.2409 -0.4849  1.2126
  957MOL0     H29189   5.978   1.566   6.668  0.6637 -0.6550  2.1728
  957MOL0     H29190   6.014   1.633   6.833  1.0870  3.8896  0.3082
  957MOL0     H29191   5.651   1.835   6.734  0.3783  0.3519 -2.0237
  957MOL0     H29192   6.645   1.509   6.810 -1.4154 -1.3104 -1.0300
  957MOL0     H29193   6.951   1.550   6.648 -1.1078 -1.2124 -0.2319
  957MOL0     H29194   6.981   1.584   6.813  2.6089 -0.6677 -3.6563
  957MOL0     H29195   6.860   1.456   6.770  1.5873 -0.8419 -2.3872
  958MOL0     O29196   4.752   3.547   9.535  0.2791  0.3117 -0.1704
  958MOL0     C29197   4.691   3.652   9.545 -1.2136  0.4444 -0.1550
  958MOL0     O29198   4.728   3.777   9.492  0.8718  0.8892 -0.6169
  958MOL0     C29199   4.835   3.784   9.411  0.1313 -0.3685 -0.0005
  958MOL0     C29200   4.814   3.781   9.277  0.3370 -0.5444  0.6671
  958MOL0     C29201   4.918   3.793   9.187  0.1206  0.0493 -0.2709
  958MOL0     C29202   5.047   3.802   9.243  0.1811 -0.6263 -0.4723
  958MOL0     O29203   5.140   3.831   9.148  0.0382 -0.7153 -0.0336
  958MOL0     C29204   5.281   3.825   9.180 -0.1154  0.3827  0.4040
  958MOL0     C29205   5.361   3.847   9.049 -0.3875 -1.1867  0.3418
  958MOL0     C29206   5.506   3.798   9.060  0.2085 -1.0208 -0.3690
  958MOL0     C29207   5.584   3.859   8.950  0.0519 -0.4516 -0.5696
  958MOL0     C29208   5.710   3.772   8.921 -0.0788  0.1300  0.0431
  958MOL0     C29209   5.821   3.785   9.030 -0.4493 -0.3835 -0.4380
  958MOL0     C29210   5.876   3.927   9.045 -0.3306  0.0625 -0.1805
  958MOL0     C29211   6.024   3.921   9.082  0.0109  0.5142 -0.0792
  958MOL0     N29212   6.098   4.042   9.112 -0.1134  0.0222  0.4187
  958MOL0     C29213   6.232   4.044   9.126 -0.5224  0.9783  0.2243
  958MOL0     C29214   6.257   4.172   9.156 -1.5419 -0.1277 -0.0442
  958MOL0     C29215   6.408   4.209   9.192  0.6426 -0.5283 -0.0453
  958MOL0     C29216   6.409   4.358   9.213  0.0894 -0.3455 -0.2677
  958MOL0     C29217   6.550   4.408   9.247  0.1738  0.1286 -0.9485
  958MOL0     C29218   6.555   4.555   9.257 -0.1927 -0.4851 -0.3964
  958MOL0     O29219   6.523   4.621   9.128 -0.1583  0.0511 -0.6527
  958MOL0     C29220   6.630   4.690   9.062 -0.0232  0.9100 -0.2728
  958MOL0     C29221   6.587   4.766   8.961 -0.7517 -0.0127 -0.7471
  958MOL0     C29222   6.679   4.847   8.890 -0.6167 -0.2822 -0.3675
  958MOL0     C29223   6.822   4.840   8.913 -0.0451  0.1282 -0.4210
  958MOL0     C29224   6.916   4.914   8.827  1.0165  0.5106 -0.0612
  958MOL0     O29225   7.045   4.920   8.866 -0.0623 -0.2185 -0.1913
  958MOL0     C29226   7.144   4.998   8.813 -0.2283  0.1467  0.0731
  958MOL0     C29227   7.127   5.130   8.785  0.0497  0.2716  0.2681
  958MOL0     C29228   7.233   5.208   8.740  0.2173  0.4933 -0.3213
  958MOL0     C29229   7.357   5.144   8.720 -0.4732 -0.1774 -0.1685
  958MOL0     O29230   7.452   5.231   8.674 -0.4058 -0.4029  0.2043
  958MOL0     C29231   7.604   5.207   8.658  0.6467  0.1852  0.5668
  958MOL0     C29232   7.622   5.141   8.523 -0.2771 -0.5027 -0.1262
  958MOL0     C29233   7.764   5.130   8.479  0.2697  0.5275 -0.1618
  958MOL0     C29234   7.842   5.055   8.585  0.1764  0.5929  0.1640
  958MOL0     C29235   7.981   5.022   8.536  0.0058 -0.4616 -0.7412
  958MOL0     C29236   8.071   5.149   8.502 -0.0108  1.5797  0.5069
  958MOL0     C29237   8.218   5.110   8.473  0.2455 -1.1250 -0.4238
  958MOL0     C29238   8.255   5.009   8.370 -0.6641  1.0033 -0.6998
  958MOL0    Cl29239   8.258   5.066   8.193 -0.0835  0.0185 -0.3269
  958MOL0     C29240   7.376   5.005   8.742 -0.2121 -0.1331 -0.4903
  958MOL0     C29241   7.266   4.936   8.792  0.6060  0.4851  0.8243
  958MOL0     O29242   6.867   4.974   8.726  0.4336  0.9551 -0.6405
  958MOL0     C29243   6.868   4.753   9.007  0.7685  0.0756 -0.1274
  958MOL0     C29244   6.768   4.671   9.078 -0.2670  0.0531  0.1426
  958MOL0     N29245   6.138   4.244   9.157 -0.2310 -0.1310 -0.5616
  958MOL0     N29246   6.043   4.162   9.136 -0.0106  0.0400 -0.5095
  958MOL0     C29247   5.073   3.817   9.380 -0.5065  0.4378 -0.7850
  958MOL0     C29248   4.964   3.805   9.461 -0.6201 -0.2228 -0.0773
  958MOL0     C29249   4.559   3.629   9.621 -0.4597  0.1037 -0.2719
  958MOL0     C29250   4.510   3.506   9.667  0.8392  0.0696  0.4309
  958MOL0     C29251   4.385   3.490   9.735 -0.3558  0.1687  0.4188
  958MOL0     C29252   4.298   3.600   9.738 -0.8086 -0.0298 -0.1028
  958MOL0     O29253   4.180   3.598   9.806 -0.9837  0.4138  0.9463
  958MOL0     C29254   4.154   3.485   9.885 -0.3489 -0.2525  0.4099
  958MOL0     C29255   4.025   3.506   9.969 -0.8267 -0.4015  0.0245
  958MOL0     C29256   3.958   3.382  10.026 -0.2427  0.4436  0.4486
  958MOL0     C29257   3.878   3.393  10.157 -0.6465 -0.3843  0.0952
  958MOL0     C29258   3.761   3.481  10.129 -0.2889  0.2925 -0.0796
  958MOL0     C29259   3.667   3.552  10.111  0.2557  0.3069  0.1932
  958MOL0     C29260   4.334   3.715   9.688  0.5450 -0.5676  0.7913
  958MOL0     C29261   4.462   3.740   9.641  0.7099 -0.2101 -0.1119
  958MOL0     C29262   4.486   3.887   9.617  0.1128  1.2585 -0.0978
  958MOL0     H29263   4.713   3.769   9.240 -0.4886  3.1560  1.3351
  958MOL0     H29264   4.896   3.782   9.081 -0.4811  0.0624 -0.1501
  958MOL0     H29265   5.310   3.905   9.249 -1.3282 -0.7546  2.3491
  958MOL0     H29266   5.305   3.726   9.222  0.0625 -0.1220 -0.8373
  958MOL0     H29267   5.351   3.955   9.035 -0.7212 -1.2567  0.0439
  958MOL0     H29268   5.312   3.791   8.969 -0.7043 -0.2072 -0.1686
  958MOL0     H29269   5.507   3.689   9.046  0.5379 -0.9918 -0.5999
  958MOL0     H29270   5.556   3.831   9.151  0.6645 -2.3858 -0.0932
  958MOL0     H29271   5.534   3.864   8.853  1.9330  0.7678 -1.5142
  958MOL0     H29272   5.614   3.963   8.967  1.5137 -0.8668 -0.4872
  958MOL0     H29273   5.682   3.667   8.906 -0.7325 -0.1141  2.6226
  958MOL0     H29274   5.759   3.809   8.830 -0.6032  3.3472  0.9554
  958MOL0     H29275   5.785   3.744   9.125  1.4200 -0.9380  0.0757
  958MOL0     H29276   5.905   3.718   9.008 -1.0522 -1.2566 -0.1474
  958MOL0     H29277   5.820   3.985   9.119 -4.0991  0.0623 -2.7348
  958MOL0     H29278   5.878   3.980   8.949 -0.7654 -2.3979 -1.6465
  958MOL0     H29279   6.028   3.862   9.174  0.6518  0.1174 -0.3526
  958MOL0     H29280   6.075   3.875   8.996 -3.3154 -2.0863 -0.8508
  958MOL0     H29281   6.299   3.958   9.128  1.2532  2.3286  0.6605
  958MOL0     H29282   6.440   4.166   9.288  1.2501 -1.9572 -0.8487
  958MOL0     H29283   6.478   4.179   9.114  1.2767  3.2085 -1.0934
  958MOL0     H29284   6.375   4.410   9.124 -1.3647 -1.1828 -0.2210
  958MOL0     H29285   6.339   4.382   9.293 -1.6305 -1.5915 -1.3456
  958MOL0     H29286   6.614   4.371   9.166  1.9251 -1.1167  0.8940
  958MOL0     H29287   6.594   4.372   9.341  3.0018  1.3932 -1.6837
  958MOL0     H29288   6.658   4.571   9.289 -0.9418  0.4354  1.7304
  958MOL0     H29289   6.491   4.591   9.338 -0.1721 -2.5081  0.5895
  958MOL0     H29290   6.484   4.767   8.926 -1.4848  0.6858  1.2702
  958MOL0     H29291   6.634   4.909   8.813 -3.5167 -1.4676  0.2599
  958MOL0     H29292   7.034   5.179   8.811  0.6097  1.8093 -0.4722
  958MOL0     H29293   7.236   5.315   8.721  0.6388  1.0295  2.3572
  958MOL0     H29294   7.665   5.298   8.666  0.4097  0.3672  0.2972
  958MOL0     H29295   7.643   5.139   8.735 -1.5603 -0.3494  1.2693
  958MOL0     H29296   7.581   5.040   8.528 -0.9354 -0.1759  3.4183
  958MOL0     H29297   7.561   5.196   8.450 -0.2303 -0.9196 -0.4834
  958MOL0     H29298   7.771   5.068   8.389 -0.1294  0.0909  0.1056
  958MOL0     H29299   7.801   5.230   8.456 -4.6109  2.3197 -1.5298
  958MOL0     H29300   7.791   4.962   8.610 -3.1172  1.1678 -3.4122
  958MOL0     H29301   7.851   5.114   8.676  0.7197 -0.8187  1.0556
  958MOL0     H29302   7.974   4.955   8.450 -1.9058 -2.0420  0.5634
  958MOL0     H29303   8.023   4.954   8.610 -2.1712 -2.4903 -1.2554
  958MOL0     H29304   8.027   5.201   8.416 -0.3342 -3.5650 -2.8647
  958MOL0     H29305   8.063   5.230   8.575 -1.3679  3.2316 -1.3308
  958MOL0     H29306   8.252   5.066   8.567  2.7628 -1.7367 -1.5453
  958MOL0     H29307   8.283   5.197   8.457  1.0396 -2.0820 -2.8769
  958MOL0     H29308   8.358   4.983   8.393 -1.4226 -0.9016  0.7690
  958MOL0     H29309   8.193   4.921   8.386  2.2172 -0.8345  1.3597
  958MOL0     H29310   7.468   4.953   8.719  0.4168  1.3337 -1.4398
  958MOL0     H29311   7.272   4.828   8.804  0.7385  0.5225  1.0960
  958MOL0     H29312   6.973   4.745   9.033  0.6003 -1.5393  0.1388
  958MOL0     H29313   6.807   4.600   9.151  0.2425 -1.1590 -1.2679
  958MOL0     H29314   5.163   3.841   9.435 -0.4795 -1.5135  0.0979
  958MOL0     H29315   4.983   3.819   9.567 -2.6276  0.7206  0.2159
  958MOL0     H29316   4.582   3.425   9.661 -0.1640 -0.8492  0.3409
  958MOL0     H29317   4.356   3.392   9.771 -2.1334  0.4416 -0.1324
  958MOL0     H29318   4.238   3.450   9.946  0.5309 -2.8374 -2.0824
  958MOL0     H29319   4.135   3.399   9.820 -5.5774  0.9492 -0.0839
  958MOL0     H29320   3.954   3.557   9.902 -1.2712 -1.5036 -0.3614
  958MOL0     H29321   4.043   3.582  10.045  0.2683  1.4342 -1.9499
  958MOL0     H29322   4.036   3.306  10.035  1.4944  2.1655  0.5975
  958MOL0     H29323   3.890   3.346   9.948 -1.6481  1.5803  1.1194
  958MOL0     H29324   3.849   3.298  10.201 -1.8726  0.0379  0.2469
  958MOL0     H29325   3.955   3.442  10.217  0.3304 -2.1278  0.3063
  958MOL0     H29326   3.572   3.601  10.105  0.1554 -0.0501 -2.9889
  958MOL0     H29327   4.273   3.804   9.697 -1.3424 -1.4932 -1.7123
  958MOL0     H29328   4.481   3.913   9.511  1.6946 -0.0962 -0.5536
  958MOL0     H29329   4.421   3.949   9.679 -2.2960 -2.7474  1.8013
  958MOL0     H29330   4.590   3.906   9.641  0.8928 -2.5398  0.2292
  959MOL0     O29331   6.140  10.269   3.945 -0.2371 -0.5078 -0.4864
  959MOL0     C29332   6.166  10.381   3.988 -0.4242 -0.2423 -0.0760
  959MOL0     O29333   6.265  10.462   3.938  0.0090 -0.1584  0.2315
  959MOL0     C29334   6.362  10.410   3.852 -0.2010 -0.6765  0.0573
  959MOL0     C29335   6.445  10.300   3.883 -0.4041  0.2509 -0.2741
  959MOL0     C29336   6.551  10.279   3.804 -0.6560 -0.1188 -0.6012
  959MOL0     C29337   6.589  10.364   3.695  0.2963  0.8554  0.4864
  959MOL0     O29338   6.693  10.342   3.606  0.0950  0.6081 -0.4692
  959MOL0     C29339   6.821  10.330   3.672  0.2980  0.1341  0.2539
  959MOL0     C29340   6.923  10.285   3.568  0.0007  0.3413  0.5286
  959MOL0     C29341   7.065  10.304   3.613 -0.4443 -0.1809  0.5418
  959MOL0     C29342   7.094  10.232   3.745 -0.7924  0.2611  0.1468
  959MOL0     C29343   7.243  10.263   3.786  0.4705 -0.0550 -0.2942
  959MOL0     C29344   7.346  10.191   3.706 -0.3283  0.7058 -0.1963
  959MOL0     C29345   7.488  10.220   3.756 -0.2480  0.2297  0.2089
  959MOL0     C29346   7.599  10.196   3.662 -0.8176  0.4694  1.6880
  959MOL0     N29347   7.733  10.212   3.733 -0.7375  0.1409  1.1022
  959MOL0     C29348   7.794  10.112   3.790 -1.2445  0.6376 -0.1273
  959MOL0     C29349   7.902  10.161   3.860  0.5486  0.2722 -0.1269
  959MOL0     C29350   8.009  10.081   3.927 -1.3028 -0.7929  0.6420
  959MOL0     C29351   8.064  10.153   4.054  0.2359 -0.1727  0.2876
  959MOL0     C29352   8.146  10.064   4.156 -0.1864  0.2581 -0.4573
  959MOL0     C29353   8.248   9.970   4.089  0.6318  0.6637  0.7118
  959MOL0     O29354   8.351  10.054   4.024 -0.9905 -1.2012 -0.4082
  959MOL0     C29355   8.474  10.064   4.077 -0.7388  0.7360 -0.7710
  959MOL0     C29356   8.499  10.071   4.219 -1.0432 -0.9979  0.5374
  959MOL0     C29357   8.629  10.058   4.267 -0.6680  0.0552 -0.6335
  959MOL0     C29358   8.736  10.052   4.172  0.1911 -0.7832 -0.5355
  959MOL0     C29359   8.868  10.016   4.221  0.6097 -0.4217 -0.7350
  959MOL0     O29360   8.885  10.003   4.360  0.4191  0.6249 -0.2904
  959MOL0     C29361   9.005   9.976   4.421  0.0601 -0.6237  1.7773
  959MOL0     C29362   9.139   9.972   4.364  0.4009  0.5112 -0.6991
  959MOL0     C29363   9.253   9.971   4.447 -0.8881  0.6210 -0.6262
  959MOL0     C29364   9.231   9.985   4.589  0.0583  0.0924  0.2839
  959MOL0     O29365   9.344  10.006   4.669  0.0802  0.4057 -0.5045
  959MOL0     C29366   9.336   9.957   4.805 -0.0458  0.3767  0.5434
  959MOL0     C29367   9.473   9.976   4.861 -0.1492  0.9731 -0.2142
  959MOL0     C29368   9.468  10.003   5.011 -0.7855  0.7450  0.0367
  959MOL0     C29369   9.620  10.012   5.062  0.3882 -0.1748 -0.5844
  959MOL0     C29370   9.682   9.875   5.076  0.9721 -0.8578  0.0885
  959MOL0     C29371   9.818   9.889   5.129  0.4992 -0.1981 -0.2764
  959MOL0     C29372   9.885   9.754   5.154  0.4408  0.4175  0.1944
  959MOL0     C29373   9.924   9.678   5.018  0.4641  0.0875  0.2557
  959MOL0    Cl29374   9.950   9.509   5.063 -0.0198 -0.2347 -0.1472
  959MOL0     C29375   9.105   9.990   4.643  0.0908 -0.0856 -0.3385
  959MOL0     C29376   8.988   9.985   4.562 -0.6959 -0.2759 -1.0029
  959MOL0     O29377   8.953   9.996   4.131  0.1126  1.0941 -1.0367
  959MOL0     C29378   8.705  10.064   4.039  0.6552 -0.0886 -0.4729
  959MOL0     C29379   8.580  10.071   3.992 -0.3380 -1.4019 -0.2247
  959MOL0     N29380   7.900  10.292   3.853 -0.8072 -0.7486  0.5900
  959MOL0     N29381   7.801  10.326   3.774  0.4126  0.3091  0.0055
  959MOL0     C29382   6.505  10.470   3.662  0.3998 -0.3602 -0.1072
  959MOL0     C29383   6.393  10.496   3.748  0.3901  0.0987  0.9617
  959MOL0     C29384   6.068  10.447   4.083 -1.6327 -0.3150 -0.2971
  959MOL0     C29385   5.943  10.390   4.090  0.3871  0.7241  0.2102
  959MOL0     C29386   5.845  10.460   4.164  0.6994 -0.0429 -0.2394
  959MOL0     C29387   5.878  10.572   4.238 -0.1168  0.1364  0.0170
  959MOL0     O29388   5.779  10.616   4.313 -0.2075 -0.1889 -0.2115
  959MOL0     C29389   5.808  10.689   4.431  0.2519 -0.2543  0.0473
  959MOL0     C29390   5.682  10.692   4.532 -0.1692 -0.3432  0.0023
  959MOL0     C29391   5.565  10.794   4.494  0.1638  1.0880  0.1723
  959MOL0     C29392   5.464  10.818   4.606 -0.1757 -0.5833 -0.0819
  959MOL0     C29393   5.370  10.714   4.644 -0.4554  0.1536 -0.5831
  959MOL0     C29394   5.293  10.635   4.685 -0.5719  0.6378 -0.0270
  959MOL0     C29395   6.009  10.619   4.236 -0.3485 -0.3003 -0.1745
  959MOL0     C29396   6.111  10.553   4.163 -0.2124 -1.0791 -0.2841
  959MOL0     C29397   6.236  10.635   4.163  0.0401  1.4398 -0.2801
  959MOL0     H29398   6.425  10.231   3.964  0.8337  0.7558  0.4857
  959MOL0     H29399   6.611  10.194   3.838 -1.0223  0.1029  0.6454
  959MOL0     H29400   6.850  10.430   3.705  1.7710  0.8010 -2.7041
  959MOL0     H29401   6.824  10.268   3.762  1.6611 -0.6917 -0.3103
  959MOL0     H29402   6.912  10.328   3.467  1.2050  0.5338  0.4727
  959MOL0     H29403   6.904  10.180   3.545 -1.7071  0.3115  1.8199
  959MOL0     H29404   7.085  10.411   3.606  0.0666 -0.3741 -1.7464
  959MOL0     H29405   7.121  10.262   3.529 -1.7116 -1.0509  0.0979
  959MOL0     H29406   7.018  10.270   3.813 -2.5516  0.8428 -2.0282
  959MOL0     H29407   7.084  10.123   3.747  2.3841 -0.1565  3.3498
  959MOL0     H29408   7.266  10.369   3.773  2.6768 -0.3962  0.3937
  959MOL0     H29409   7.263  10.244   3.892 -1.5870 -0.5424  0.0549
  959MOL0     H29410   7.334  10.083   3.710  2.1079  0.3697  4.4416
  959MOL0     H29411   7.349  10.229   3.603 -1.9429  1.7584  0.1015
  959MOL0     H29412   7.526  10.157   3.837  1.4984  1.1126  0.1410
  959MOL0     H29413   7.492  10.324   3.788 -3.2426  0.0936  1.2771
  959MOL0     H29414   7.592  10.098   3.614  4.0601  0.4258  0.5376
  959MOL0     H29415   7.588  10.269   3.581 -2.8758  0.9593  2.3478
  959MOL0     H29416   7.769  10.007   3.781 -1.9290  0.5048  2.5869
  959MOL0     H29417   7.978   9.979   3.950 -0.2555 -1.1723  0.4495
  959MOL0     H29418   8.082  10.080   3.846 -1.8486  2.2847 -0.0240
  959MOL0     H29419   8.124  10.231   4.005 -1.9748  0.6751 -1.2447
  959MOL0     H29420   7.981  10.195   4.111 -2.5489 -3.9573 -0.5606
  959MOL0     H29421   8.079  10.003   4.217  2.7312 -3.8331 -0.9629
  959MOL0     H29422   8.206  10.116   4.232  1.7266 -3.5661  0.8974
  959MOL0     H29423   8.197   9.904   4.018  0.4151  1.3156  0.2514
  959MOL0     H29424   8.293   9.897   4.157  1.3540 -1.6936 -2.0807
  959MOL0     H29425   8.413  10.092   4.282 -0.2938 -0.0507  1.2553
  959MOL0     H29426   8.644  10.074   4.373  1.1871 -1.0886 -0.6744
  959MOL0     H29427   9.163   9.963   4.258  1.6006  3.3327 -0.7585
  959MOL0     H29428   9.356   9.968   4.415 -0.3802 -0.7577  0.9797
  959MOL0     H29429   9.265  10.016   4.863  0.7293  1.7080  0.1772
  959MOL0     H29430   9.313   9.851   4.818  2.6626 -0.0710  2.2948
  959MOL0     H29431   9.533   9.885   4.850 -1.5131 -0.1430  1.0669
  959MOL0     H29432   9.532  10.050   4.807 -0.3605 -0.4981 -2.5848
  959MOL0     H29433   9.424  10.102   5.025 -0.0437  1.0930 -0.0445
  959MOL0     H29434   9.412   9.933   5.073 -0.5761  1.2207  0.7817
  959MOL0     H29435   9.614  10.050   5.164  2.8153 -2.1733  0.3939
  959MOL0     H29436   9.682  10.082   5.004  1.3528  0.6950  1.3993
  959MOL0     H29437   9.683   9.823   4.980  2.5391  0.0333 -0.4238
  959MOL0     H29438   9.625   9.816   5.148  2.5975  0.1291  2.3092
  959MOL0     H29439   9.877   9.954   5.062 -0.9077  1.3076 -0.1235
  959MOL0     H29440   9.814   9.945   5.223  1.6054  1.1660 -0.9939
  959MOL0     H29441   9.823   9.691   5.219 -0.0609 -0.9449 -1.5198
  959MOL0     H29442   9.982   9.771   5.201  0.5814  1.9380 -0.5837
  959MOL0     H29443   9.842   9.695   4.948 -1.4450 -2.7718  1.5898
  959MOL0     H29444  10.013   9.728   4.979  0.3844 -0.9903 -1.3846
  959MOL0     H29445   9.087  10.005   4.748  0.1784 -1.8302 -0.0496
  959MOL0     H29446   8.889   9.992   4.605 -1.8274 -0.4387 -3.4044
  959MOL0     H29447   8.777  10.058   3.958  1.1814 -1.0004  0.0420
  959MOL0     H29448   8.551  10.077   3.887  0.1310  0.1628 -0.2922
  959MOL0     H29449   6.518  10.536   3.577 -1.2175  0.7487  0.4548
  959MOL0     H29450   6.334  10.586   3.733  2.4218  1.2543 -0.4961
  959MOL0     H29451   5.918  10.297   4.040 -0.1713  0.3108  1.2168
  959MOL0     H29452   5.743  10.425   4.167  0.4119  0.8065  2.3154
  959MOL0     H29453   5.838  10.792   4.412 -0.3617 -0.0873 -0.0219
  959MOL0     H29454   5.892  10.645   4.486 -0.8443 -2.3726  0.1216
  959MOL0     H29455   5.731  10.714   4.627  0.7627 -6.1302  1.2561
  959MOL0     H29456   5.653  10.588   4.545  1.1392 -0.4506  2.6135
  959MOL0     H29457   5.507  10.759   4.409 -1.6917  1.6579  1.1457
  959MOL0     H29458   5.613  10.886   4.460  0.4780  0.9864  0.3262
  959MOL0     H29459   5.529  10.842   4.691  0.1549 -2.0997  0.1238
  959MOL0     H29460   5.400  10.900   4.572  0.8322 -0.6246 -2.2519
  959MOL0     H29461   5.231  10.557   4.724 -0.3826  1.2047  1.4962
  959MOL0     H29462   6.045  10.687   4.313  1.2003 -2.9972  1.6148
  959MOL0     H29463   6.313  10.558   4.162  0.2507  1.6374  0.2520
  959MOL0     H29464   6.255  10.697   4.075 -0.6017 -1.2491 -2.4349
  959MOL0     H29465   6.247  10.692   4.256  0.0199 -0.5767  0.9971
  960MOL0     O29466   4.319   4.461   6.255  0.0202  0.1064 -0.0065
  960MOL0     C29467   4.259   4.539   6.182  0.4175 -0.2367 -0.3042
  960MOL0     O29468   4.298   4.663   6.139  0.5350  0.1602  0.2243
  960MOL0     C29469   4.421   4.708   6.189  0.9687 -0.7703  0.0778
  960MOL0     C29470   4.538   4.640   6.207 -0.5532  0.8437  0.1370
  960MOL0     C29471   4.655   4.698   6.251 -1.0022  0.3256  0.7674
  960MOL0     C29472   4.663   4.838   6.275 -0.3193  0.7500 -0.3927
  960MOL0     O29473   4.796   4.874   6.305  0.6052  0.7167  0.5031
  960MOL0     C29474   4.806   4.998   6.379  1.0002  0.3159  0.6284
  960MOL0     C29475   4.921   4.992   6.474  0.3111 -0.9147  0.0996
  960MOL0     C29476   5.054   5.027   6.398  0.5883 -0.2141 -0.4316
  960MOL0     C29477   5.172   5.016   6.492 -0.0490 -0.1844  0.0604
  960MOL0     C29478   5.302   5.058   6.420 -0.9032  0.4807  0.6518
  960MOL0     C29479   5.412   5.028   6.519  0.1359  0.8404  0.4455
  960MOL0     C29480   5.543   5.090   6.472  0.1023  0.2079  0.1289
  960MOL0     C29481   5.657   5.062   6.566 -0.2001 -0.3083 -0.3554
  960MOL0     N29482   5.781   5.127   6.505  0.6119  0.6657 -0.1177
  960MOL0     C29483   5.868   5.062   6.421 -0.5679 -0.4272 -0.2664
  960MOL0     C29484   5.954   5.164   6.383 -0.1568 -0.7392 -0.1417
  960MOL0     C29485   6.062   5.138   6.280 -0.9280  0.2882 -0.1837
  960MOL0     C29486   6.194   5.093   6.348  0.2152  0.4009  0.6321
  960MOL0     C29487   6.256   5.177   6.456  0.2004  0.3418 -0.7616
  960MOL0     C29488   6.284   5.326   6.416 -0.3013  0.9206  0.0269
  960MOL0     O29489   6.327   5.393   6.537  0.5114 -0.2033 -0.6220
  960MOL0     C29490   6.463   5.398   6.564 -0.2477 -0.2176 -0.7577
  960MOL0     C29491   6.570   5.354   6.487  0.0738 -0.3782 -0.0789
  960MOL0     C29492   6.703   5.372   6.531 -0.7858 -0.0276 -0.4176
  960MOL0     C29493   6.735   5.433   6.656  0.3064  0.6217  0.0039
  960MOL0     C29494   6.869   5.460   6.700  0.1686 -0.1932  0.0359
  960MOL0     O29495   6.889   5.486   6.831  0.0223  0.0251  0.3764
  960MOL0     C29496   7.005   5.556   6.872 -0.5760  0.7100  0.0455
  960MOL0     C29497   7.133   5.494   6.861 -0.2050  0.6287  0.1051
  960MOL0     C29498   7.252   5.564   6.896  0.4244  1.1698 -0.0849
  960MOL0     C29499   7.248   5.695   6.941 -0.3233 -0.0936 -0.1409
  960MOL0     O29500   7.368   5.749   6.974  0.6586 -0.0343  0.2939
  960MOL0     C29501   7.374   5.864   7.046  0.0693 -1.6275 -0.3508
  960MOL0     C29502   7.519   5.920   7.054  0.1406 -1.0643 -0.0560
  960MOL0     C29503   7.605   5.860   7.164 -0.6894 -0.2996  0.0992
  960MOL0     C29504   7.753   5.891   7.142  0.3761 -0.1989  0.1507
  960MOL0     C29505   7.805   6.038   7.160  0.5171 -0.7978 -0.5707
  960MOL0     C29506   7.961   6.047   7.148  0.1515  0.1787  0.1569
  960MOL0     C29507   8.020   6.190   7.165 -0.0026 -0.4280  0.3035
  960MOL0     C29508   8.170   6.185   7.194  0.7086  0.0863 -0.1113
  960MOL0    Cl29509   8.259   6.339   7.230 -0.0264 -0.2921  0.0000
  960MOL0     C29510   7.124   5.755   6.950 -0.0414  0.0229 -0.5613
  960MOL0     C29511   7.009   5.683   6.919  0.6042  0.1678  0.0279
  960MOL0     O29512   6.959   5.463   6.612 -0.3898 -0.3593 -0.5246
  960MOL0     C29513   6.619   5.453   6.739 -0.7902 -0.3174  0.1380
  960MOL0     C29514   6.491   5.448   6.692  0.3640  0.2755 -0.3305
  960MOL0     N29515   5.911   5.287   6.442 -0.4130 -0.4482 -0.4513
  960MOL0     N29516   5.806   5.268   6.511  0.5967  0.5358  0.3157
  960MOL0     C29517   4.550   4.908   6.264  0.8712 -0.3843  0.5727
  960MOL0     C29518   4.432   4.843   6.218 -0.3278 -0.2030  0.1188
  960MOL0     C29519   4.121   4.507   6.140 -0.3663 -0.2816  0.9253
  960MOL0     C29520   4.044   4.607   6.083  0.5253  0.3414 -0.0886
  960MOL0     C29521   3.915   4.572   6.039 -0.5352  0.1379 -0.0668
  960MOL0     C29522   3.867   4.440   6.052  0.6333  0.7208  0.3087
  960MOL0     O29523   3.732   4.418   6.017 -0.1758  0.0300  0.1117
  960MOL0     C29524   3.658   4.308   6.077 -0.2588 -0.6285  0.6410
  960MOL0     C29525   3.646   4.189   5.978 -0.3254  0.3192 -0.2698
  960MOL0     C29526   3.558   4.214   5.863 -0.1224 -0.0521  0.1678
  960MOL0     C29527   3.529   4.082   5.794  0.2960 -0.0200  0.9930
  960MOL0     C29528   3.436   4.113   5.694  0.1115 -0.5589  0.5335
  960MOL0     C29529   3.355   4.131   5.601  0.4807  0.0209 -0.7759
  960MOL0     C29530   3.950   4.344   6.107 -0.1048 -0.6187 -0.1220
  960MOL0     C29531   4.078   4.371   6.158 -0.9129 -0.0675 -0.8664
  960MOL0     C29532   4.146   4.253   6.218 -0.7504 -0.0746  0.0224
  960MOL0     H29533   4.539   4.532   6.200 -2.5887  0.7269  1.0466
  960MOL0     H29534   4.741   4.632   6.254 -2.2713 -1.5421 -0.9250
  960MOL0     H29535   4.825   5.078   6.307 -0.4529 -0.7387 -1.0208
  960MOL0     H29536   4.716   5.014   6.438  0.8471 -1.6891  1.0060
  960MOL0     H29537   4.924   4.896   6.527  0.9023 -1.5373 -1.0208
  960MOL0     H29538   4.911   5.074   6.545  0.3045  0.9414 -1.9235
  960MOL0     H29539   5.049   5.128   6.355  1.6567 -0.1806 -0.5183
  960MOL0     H29540   5.063   4.957   6.314  0.5303 -3.1931  1.9076
  960MOL0     H29541   5.161   5.077   6.582  2.4651  1.6588 -0.7432
  960MOL0     H29542   5.187   4.913   6.524 -2.0904 -0.6419 -0.3436
  960MOL0     H29543   5.314   4.995   6.332  1.6271  1.3974  0.2604
  960MOL0     H29544   5.302   5.161   6.383  0.0812 -0.0429 -0.8648
  960MOL0     H29545   5.392   5.067   6.619  2.2617 -0.1177  1.3226
  960MOL0     H29546   5.419   4.918   6.522  0.2367  0.7878 -1.0921
  960MOL0     H29547   5.521   5.197   6.462 -1.6977 -0.0619  0.8387
  960MOL0     H29548   5.569   5.046   6.375  1.9784  0.5257  0.4635
  960MOL0     H29549   5.636   5.098   6.667  2.3818 -0.7419  0.3854
  960MOL0     H29550   5.676   4.955   6.573  2.5099  0.1461  0.3767
  960MOL0     H29551   5.864   4.956   6.397  0.8158 -0.6316  0.3056
  960MOL0     H29552   6.028   5.057   6.215  2.0494 -0.0899 -1.4494
  960MOL0     H29553   6.085   5.233   6.230  1.2561  0.5302  1.1382
  960MOL0     H29554   6.167   4.994   6.384  0.3275  0.8815  2.1052
  960MOL0     H29555   6.269   5.080   6.269 -0.0629 -0.0050  0.4322
  960MOL0     H29556   6.339   5.113   6.487  0.9618  1.2612 -0.8552
  960MOL0     H29557   6.181   5.188   6.535  0.6058 -0.0126 -0.3213
  960MOL0     H29558   6.201   5.378   6.368  1.1447  0.2531 -3.5447
  960MOL0     H29559   6.352   5.332   6.330  0.2629  2.5433  0.5617
  960MOL0     H29560   6.553   5.298   6.395 -0.4537 -2.2328  1.1085
  960MOL0     H29561   6.786   5.345   6.465  0.0237 -0.1852  0.6394
  960MOL0     H29562   7.132   5.391   6.829 -0.2980  0.5405  0.3914
  960MOL0     H29563   7.345   5.510   6.902 -0.4101 -0.3123 -0.0230
  960MOL0     H29564   7.313   5.945   7.006 -0.3892 -1.2981  0.9554
  960MOL0     H29565   7.339   5.856   7.150  0.3597 -1.6761 -0.2554
  960MOL0     H29566   7.569   5.897   6.959 -2.1337 -3.3457 -0.8052
  960MOL0     H29567   7.517   6.028   7.075  0.0055 -1.2869  1.1558
  960MOL0     H29568   7.585   5.887   7.268  1.3825 -2.5602  1.1955
  960MOL0     H29569   7.574   5.755   7.162  1.0383 -0.8356 -0.4135
  960MOL0     H29570   7.778   5.860   7.041  0.4203  4.6575 -1.5596
  960MOL0     H29571   7.806   5.834   7.219 -0.4047  1.8918  2.3612
  960MOL0     H29572   7.778   6.073   7.260 -0.4757 -0.2575 -1.0037
  960MOL0     H29573   7.756   6.108   7.091 -2.1348 -3.3795 -1.5300
  960MOL0     H29574   8.009   5.976   7.215  2.8136  3.4517  2.0246
  960MOL0     H29575   8.000   6.007   7.054 -0.9949  1.0782 -0.7390
  960MOL0     H29576   7.971   6.236   7.251 -1.3846 -1.2421 -0.0087
  960MOL0     H29577   7.990   6.244   7.075  1.6026 -0.6967 -0.4169
  960MOL0     H29578   8.181   6.125   7.285 -1.2973 -0.3654 -0.1201
  960MOL0     H29579   8.219   6.126   7.117  0.9633  1.4242 -1.0011
  960MOL0     H29580   7.104   5.851   6.997  2.7709 -0.5712  2.1782
  960MOL0     H29581   6.919   5.743   6.925  0.8626  0.6476 -0.6981
  960MOL0     H29582   6.631   5.481   6.844 -2.0816  1.3975 -0.1292
  960MOL0     H29583   6.421   5.495   6.760  1.3561  1.2073  0.0748
  960MOL0     H29584   4.556   5.014   6.287 -1.9945 -0.7546  3.8623
  960MOL0     H29585   4.349   4.908   6.191 -0.1789 -0.2601 -0.4742
  960MOL0     H29586   4.070   4.710   6.065 -2.4989  1.2089 -0.1227
  960MOL0     H29587   3.846   4.646   6.000  0.1342  1.2509  0.8035
  960MOL0     H29588   3.555   4.337   6.098 -0.6409  1.1033 -2.9879
  960MOL0     H29589   3.702   4.274   6.172 -1.2261 -1.8398  0.6871
  960MOL0     H29590   3.615   4.102   6.036  0.3376  0.8439  0.9113
  960MOL0     H29591   3.746   4.157   5.948 -1.0142 -1.5177 -0.7382
  960MOL0     H29592   3.603   4.276   5.785 -0.3903 -1.7234 -1.3947
  960MOL0     H29593   3.472   4.272   5.899  0.6546  1.7412 -0.7198
  960MOL0     H29594   3.616   4.021   5.766 -1.4633 -2.2422  0.0888
  960MOL0     H29595   3.473   4.029   5.871 -3.1711  4.7293  2.2186
  960MOL0     H29596   3.277   4.135   5.528 -0.6262 -1.0108  0.3162
  960MOL0     H29597   3.905   4.247   6.127 -0.4114  0.0142  2.5281
  960MOL0     H29598   4.237   4.236   6.160 -0.9907  0.9678 -0.6926
  960MOL0     H29599   4.165   4.283   6.321  0.6371  2.6860 -0.9421
  960MOL0     H29600   4.091   4.158   6.213  1.8674 -1.6816  0.1271
  961MOL0     O29601   0.512   9.389   4.161  0.3799 -0.1456 -0.6276
  961MOL0     C29602   0.427   9.383   4.252  0.6012 -0.0443  0.6497
  961MOL0     O29603   0.456   9.386   4.386  0.3684  0.6083 -0.3133
  961MOL0     C29604   0.589   9.401   4.419 -0.9069  0.0806  0.1022
  961MOL0     C29605   0.675   9.292   4.413  0.1593  0.5427  0.1005
  961MOL0     C29606   0.805   9.302   4.465  0.0389 -0.2099  0.0871
  961MOL0     C29607   0.860   9.419   4.516  0.0006  0.0523 -0.1392
  961MOL0     O29608   0.996   9.422   4.557 -0.3715  0.2578 -0.2448
  961MOL0     C29609   1.075   9.305   4.592 -0.5074  0.8651 -0.2273
  961MOL0     C29610   1.196   9.343   4.685  0.2910 -0.3152 -0.3448
  961MOL0     C29611   1.279   9.213   4.723  0.0781  0.4116  0.5933
  961MOL0     C29612   1.416   9.252   4.795 -0.0678 -0.2439 -0.1960
  961MOL0     C29613   1.523   9.157   4.751 -0.5954  0.3811  0.3133
  961MOL0     C29614   1.637   9.170   4.837 -0.6165 -0.4238 -0.3945
  961MOL0     C29615   1.762   9.103   4.773 -0.3267 -0.4029 -0.3885
  961MOL0     C29616   1.739   8.951   4.751  0.4760  0.5549 -0.7436
  961MOL0     N29617   1.856   8.876   4.700  0.4316 -0.5156  1.1686
  961MOL0     C29618   1.987   8.899   4.727 -0.2429 -0.7467 -0.1934
  961MOL0     C29619   2.057   8.810   4.648  0.4158  0.0550  0.0488
  961MOL0     C29620   2.208   8.787   4.660  0.6093 -0.5386 -0.9508
  961MOL0     C29621   2.252   8.663   4.732  0.4369  0.1905  0.3789
  961MOL0     C29622   2.225   8.666   4.879  0.8209  0.3767  0.6126
  961MOL0     C29623   2.317   8.767   4.961 -0.7910  0.2520 -0.1029
  961MOL0     O29624   2.441   8.704   4.978  0.5479  0.8013  0.1122
  961MOL0     C29625   2.546   8.777   5.028 -0.2866 -0.2901  0.0434
  961MOL0     C29626   2.546   8.915   5.070 -1.1444 -0.2579  0.1242
  961MOL0     C29627   2.669   8.971   5.114 -0.1743  1.0599 -0.5064
  961MOL0     C29628   2.788   8.898   5.122 -0.4053  0.1571 -0.3289
  961MOL0     C29629   2.917   8.959   5.162 -0.1768  0.5004  0.2186
  961MOL0     O29630   3.024   8.878   5.173 -0.1697 -0.4031  0.1734
  961MOL0     C29631   3.149   8.927   5.193 -0.2468 -0.2897 -0.8901
  961MOL0     C29632   3.184   9.002   5.310  0.3659  0.6744 -0.1615
  961MOL0     C29633   3.316   9.040   5.326 -0.5232  0.5523 -0.8591
  961MOL0     C29634   3.416   9.006   5.235 -0.4511  0.3231 -0.4170
  961MOL0     O29635   3.551   9.031   5.253 -0.3583 -0.4801  0.0339
  961MOL0     C29636   3.600   9.087   5.381  0.3222 -0.2118 -0.3726
  961MOL0     C29637   3.633   8.974   5.476  0.1210 -0.5008  0.6118
  961MOL0     C29638   3.760   8.895   5.419  0.4103  0.1717 -0.2420
  961MOL0     C29639   3.783   8.760   5.475 -0.6977  0.6358 -0.7440
  961MOL0     C29640   3.819   8.641   5.384  0.0284 -0.1856  0.0687
  961MOL0     C29641   3.813   8.498   5.449  0.3764 -0.4812 -0.1875
  961MOL0     C29642   3.819   8.385   5.348  0.1643  0.0413  0.6197
  961MOL0     C29643   3.747   8.261   5.402 -0.1242  0.2106 -0.3373
  961MOL0    Cl29644   3.857   8.179   5.519  0.0835  0.2282  0.0052
  961MOL0     C29645   3.379   8.936   5.116 -0.0611  0.1310 -0.5303
  961MOL0     C29646   3.252   8.890   5.103  0.9176 -0.2006  0.2819
  961MOL0     O29647   2.925   9.078   5.190  0.1817 -0.3806  0.1901
  961MOL0     C29648   2.791   8.765   5.084  0.5380  0.3523  0.8994
  961MOL0     C29649   2.673   8.708   5.029 -0.1105 -0.4293  0.1853
  961MOL0     N29650   1.966   8.738   4.572 -0.1232 -0.4387  0.0412
  961MOL0     N29651   1.851   8.774   4.611  0.2602 -0.5638  0.5804
  961MOL0     C29652   0.771   9.525   4.518 -0.5719  0.0979  0.0602
  961MOL0     C29653   0.643   9.523   4.466 -0.2217 -0.1392 -0.1322
  961MOL0     C29654   0.275   9.366   4.213 -0.2590 -0.8996 -0.1161
  961MOL0     C29655   0.248   9.330   4.083  0.0751 -0.0957 -0.2481
  961MOL0     C29656   0.115   9.315   4.038  0.2882 -0.6583 -0.2611
  961MOL0     C29657   0.009   9.341   4.121 -0.6337  0.4920  0.4317
  961MOL0     O29658  -0.121   9.341   4.083 -0.0521  0.2119 -0.7632
  961MOL0     C29659  -0.169   9.220   4.013  0.1290  0.0148 -0.2024
  961MOL0     C29660  -0.319   9.226   3.972 -0.7384 -0.0911  0.0295
  961MOL0     C29661  -0.352   9.348   3.882  0.7638 -0.4101  0.1777
  961MOL0     C29662  -0.306   9.336   3.741 -0.5054 -0.2529  0.6992
  961MOL0     C29663  -0.161   9.362   3.725  0.4403  0.3309 -0.5064
  961MOL0     C29664  -0.044   9.369   3.719  0.6139  0.3315 -0.2686
  961MOL0     C29665   0.042   9.382   4.249  0.3157 -0.2041 -0.9298
  961MOL0     C29666   0.171   9.387   4.294  0.4288  0.4301  0.7942
  961MOL0     C29667   0.182   9.432   4.439  0.8101 -0.1532 -0.4925
  961MOL0     H29668   0.640   9.195   4.381 -1.2723  0.3712  2.0514
  961MOL0     H29669   0.866   9.212   4.457  0.3136 -0.0254  0.0956
  961MOL0     H29670   1.010   9.232   4.641  0.7378 -0.8362 -1.0108
  961MOL0     H29671   1.109   9.256   4.501 -1.8432 -0.3639 -0.1091
  961MOL0     H29672   1.166   9.394   4.777 -3.9305  1.0230 -2.1978
  961MOL0     H29673   1.259   9.414   4.632  0.0963 -0.6073 -0.9797
  961MOL0     H29674   1.302   9.156   4.633 -0.1201  2.0521 -0.5452
  961MOL0     H29675   1.223   9.149   4.792  1.3240 -1.7927 -0.3555
  961MOL0     H29676   1.448   9.353   4.770  1.5151 -0.5803  0.3955
  961MOL0     H29677   1.400   9.256   4.903 -2.8544 -0.0701 -0.5387
  961MOL0     H29678   1.481   9.056   4.749  0.1917 -0.0629 -3.6325
  961MOL0     H29679   1.547   9.174   4.645 -2.8191 -0.5978 -0.4215
  961MOL0     H29680   1.657   9.276   4.855 -3.6325  0.1478  0.2369
  961MOL0     H29681   1.614   9.128   4.935 -0.1741  2.2733  0.9628
  961MOL0     H29682   1.848   9.129   4.835 -0.4568  1.8469 -1.0841
  961MOL0     H29683   1.792   9.148   4.678  3.0867  2.7518  1.9072
  961MOL0     H29684   1.715   8.907   4.848 -2.1121  2.9536 -0.1349
  961MOL0     H29685   1.649   8.933   4.692 -1.7516  2.8473  1.6558
  961MOL0     H29686   2.028   8.969   4.800  1.0994 -0.6025 -1.0430
  961MOL0     H29687   2.261   8.787   4.564 -0.1767  0.3084 -1.4077
  961MOL0     H29688   2.250   8.873   4.713 -0.8885 -0.0441 -0.5067
  961MOL0     H29689   2.203   8.578   4.684 -3.0005  0.7763  2.5306
  961MOL0     H29690   2.361   8.657   4.719  0.0591 -0.4088 -4.0260
  961MOL0     H29691   2.252   8.570   4.923 -2.6994  0.1750  2.7314
  961MOL0     H29692   2.121   8.668   4.911  0.8362 -0.1403  0.7016
  961MOL0     H29693   2.279   8.780   5.063 -0.5535 -2.1439  0.3455
  961MOL0     H29694   2.318   8.860   4.903 -1.1556 -1.3504 -2.8482
  961MOL0     H29695   2.459   8.977   5.055 -1.8840 -1.6935 -2.1481
  961MOL0     H29696   2.662   9.074   5.146  0.5663 -0.0605  4.1518
  961MOL0     H29697   3.104   9.023   5.381  0.0480  0.3513 -0.4227
  961MOL0     H29698   3.331   9.103   5.413 -1.2783 -0.7271  0.2296
  961MOL0     H29699   3.691   9.145   5.363 -0.5493  0.5846 -2.6028
  961MOL0     H29700   3.526   9.159   5.417 -1.5651 -2.1073 -0.2663
  961MOL0     H29701   3.669   9.022   5.568  2.2382  1.5338 -1.1253
  961MOL0     H29702   3.544   8.911   5.484 -1.3674  0.9710 -2.6086
  961MOL0     H29703   3.756   8.890   5.310 -2.6985  0.2593 -0.2316
  961MOL0     H29704   3.849   8.947   5.456  0.5865  0.0055 -0.4307
  961MOL0     H29705   3.691   8.726   5.523 -0.4531  1.5051  0.3809
  961MOL0     H29706   3.858   8.779   5.552 -0.3329  2.3495 -1.4794
  961MOL0     H29707   3.912   8.650   5.328 -0.6396 -1.9693 -1.4159
  961MOL0     H29708   3.748   8.647   5.302 -3.8270  1.1968  3.1651
  961MOL0     H29709   3.888   8.486   5.527  0.1347 -0.9900 -0.0271
  961MOL0     H29710   3.714   8.495   5.495 -0.4125  3.5256 -1.2593
  961MOL0     H29711   3.926   8.366   5.335  0.0510  0.1296 -0.5944
  961MOL0     H29712   3.771   8.418   5.255  0.3157  0.6137  0.7365
  961MOL0     H29713   3.644   8.281   5.433 -0.3295 -0.7313 -0.3890
  961MOL0     H29714   3.730   8.180   5.331  0.2422  0.0511 -0.2472
  961MOL0     H29715   3.450   8.910   5.039 -0.5962  1.1076 -1.3777
  961MOL0     H29716   3.220   8.833   5.015 -4.2135  1.3983  0.7476
  961MOL0     H29717   2.880   8.703   5.078  0.9714  0.9959 -4.7370
  961MOL0     H29718   2.669   8.606   4.994 -2.6832  0.2886 -1.9473
  961MOL0     H29719   0.813   9.618   4.557  1.3503 -0.8048  0.2298
  961MOL0     H29720   0.583   9.613   4.457  0.0866 -0.1033 -2.5904
  961MOL0     H29721   0.329   9.298   4.019  0.3782 -1.3719  0.7304
  961MOL0     H29722   0.097   9.300   3.932 -2.4695  1.8790 -0.2802
  961MOL0     H29723  -0.156   9.146   4.092  2.2770  2.0212  1.4679
  961MOL0     H29724  -0.113   9.183   3.927  2.0003  0.2348  0.8624
  961MOL0     H29725  -0.369   9.240   4.068 -0.5372 -3.1513  0.6807
  961MOL0     H29726  -0.347   9.133   3.923  1.6767 -0.7320 -0.2768
  961MOL0     H29727  -0.324   9.440   3.934 -2.3811 -1.0759  3.5386
  961MOL0     H29728  -0.461   9.355   3.890  0.6225 -2.5689  0.7925
  961MOL0     H29729  -0.336   9.242   3.694 -1.9843  0.9204 -0.8219
  961MOL0     H29730  -0.350   9.413   3.677  0.2382  1.0659  1.6895
  961MOL0     H29731   0.058   9.393   3.698  0.2934 -0.2697 -2.9446
  961MOL0     H29732  -0.038   9.403   4.320 -1.2058 -2.5356 -1.8418
  961MOL0     H29733   0.207   9.538   4.432  0.1932 -0.0849 -2.5329
  961MOL0     H29734   0.088   9.425   4.496  1.1208  0.8100  0.1520
  961MOL0     H29735   0.247   9.369   4.500 -0.0999  1.3200  2.1433
  962MOL0     O29736   0.348   0.162   5.163  0.1824 -0.2455 -0.6185
  962MOL0     C29737   0.416   0.109   5.081 -0.0357 -0.5289 -0.3990
  962MOL0     O29738   0.547   0.144   5.063 -0.1522 -0.6316  0.3784
  962MOL0     C29739   0.614   0.203   5.169 -0.4329  0.5515  0.1726
  962MOL0     C29740   0.681   0.322   5.155  0.0807 -0.6478 -0.0763
  962MOL0     C29741   0.765   0.368   5.255 -0.6151 -0.5475 -0.2667
  962MOL0     C29742   0.776   0.298   5.379 -0.9112 -0.4072  0.4856
  962MOL0     O29743   0.864   0.355   5.466 -1.0311 -0.3720  0.2551
  962MOL0     C29744   0.874   0.311   5.600  0.0111  0.3721 -0.0359
  962MOL0     C29745   1.021   0.290   5.643 -0.9056 -0.0350  0.6859
  962MOL0     C29746   1.109   0.418   5.609 -0.0227  0.5276 -0.1499
  962MOL0     C29747   1.254   0.386   5.603 -0.6582  0.0370 -0.0600
  962MOL0     C29748   1.330   0.518   5.561  0.1134 -0.3439  0.2764
  962MOL0     C29749   1.478   0.509   5.576 -0.7847 -0.1302 -0.5155
  962MOL0     C29750   1.546   0.651   5.544  0.8440  0.6521  0.1349
  962MOL0     C29751   1.652   0.693   5.642  0.5684 -0.3457  0.2472
  962MOL0     N29752   1.779   0.614   5.637  0.8063  0.3224  0.2135
  962MOL0     C29753   1.902   0.662   5.606  0.1488  0.1084  0.6479
  962MOL0     C29754   1.988   0.570   5.657 -0.1225 -0.8201 -0.8504
  962MOL0     C29755   2.131   0.566   5.622 -0.2831 -0.7106  0.7439
  962MOL0     C29756   2.207   0.670   5.704 -0.4756  0.0575 -0.4177
  962MOL0     C29757   2.362   0.668   5.679 -0.6587  0.5709  0.9775
  962MOL0     C29758   2.449   0.678   5.801  0.4232  0.7718 -0.8840
  962MOL0     O29759   2.571   0.734   5.769 -0.0386  0.1362  0.2613
  962MOL0     C29760   2.679   0.661   5.723  0.2789 -0.2244 -0.7532
  962MOL0     C29761   2.803   0.726   5.712  0.3896 -0.3387  0.3973
  962MOL0     C29762   2.923   0.657   5.687  0.6939 -0.3321 -0.0412
  962MOL0     C29763   2.921   0.509   5.666  0.4506  0.3310  0.0041
  962MOL0     C29764   3.038   0.435   5.636  1.2932  0.8124  0.2509
  962MOL0     O29765   3.148   0.517   5.622 -0.6700 -0.4740 -0.4893
  962MOL0     C29766   3.277   0.456   5.609  0.8362 -0.6933 -0.1847
  962MOL0     C29767   3.305   0.339   5.680  0.2361  1.0868  0.1137
  962MOL0     C29768   3.430   0.271   5.671  0.2078  1.0325  0.6533
  962MOL0     C29769   3.533   0.333   5.595  0.3111 -0.1447  0.7321
  962MOL0     O29770   3.653   0.280   5.576 -0.0340  0.1007  0.1339
  962MOL0     C29771   3.722   0.223   5.691 -0.4960  0.0722  0.0032
  962MOL0     C29772   3.738   0.072   5.674 -0.0974  0.3317 -0.5473
  962MOL0     C29773   3.821   0.005   5.788 -0.4304  0.2029 -0.3847
  962MOL0     C29774   3.962   0.074   5.798 -0.1408  0.6462  0.0005
  962MOL0     C29775   4.064  -0.006   5.891 -0.1608  0.2259 -0.6670
  962MOL0     C29776   4.156  -0.104   5.810  0.2994 -0.2009  0.1594
  962MOL0     C29777   4.237  -0.048   5.687 -0.2624 -0.1576  0.3326
  962MOL0     C29778   4.339  -0.147   5.624  0.3309  0.0868 -0.7025
  962MOL0    Cl29779   4.488  -0.157   5.729  0.5865  0.4763 -0.1482
  962MOL0     C29780   3.503   0.448   5.522  0.0211 -0.2965 -0.3801
  962MOL0     C29781   3.378   0.514   5.527 -0.7548  0.5510  0.1856
  962MOL0     O29782   3.026   0.318   5.616  0.2161  0.2765 -0.2544
  962MOL0     C29783   2.795   0.447   5.669  0.0742  0.1458 -0.3603
  962MOL0     C29784   2.676   0.527   5.695 -0.0392  0.4960 -0.5693
  962MOL0     N29785   1.915   0.472   5.723  0.3894 -0.2656 -0.3054
  962MOL0     N29786   1.785   0.499   5.718 -0.2800  0.7367 -0.0660
  962MOL0     C29787   0.715   0.174   5.383 -0.1346  0.4060 -0.3100
  962MOL0     C29788   0.631   0.133   5.287 -0.1420 -0.7590  0.1888
  962MOL0     C29789   0.348   0.015   4.989 -0.7064  0.4326  0.2337
  962MOL0     C29790   0.246   0.061   4.893 -1.5037  0.2767  0.0167
  962MOL0     C29791   0.191  -0.022   4.789 -0.3891  0.2107 -0.0116
  962MOL0     C29792   0.235  -0.154   4.785 -0.3034 -0.4877  0.0519
  962MOL0     O29793   0.187  -0.231   4.683  0.2665 -0.5368  0.4014
  962MOL0     C29794   0.229  -0.365   4.656  0.4030  0.2848  0.4236
  962MOL0     C29795   0.137  -0.427   4.551 -1.1970  0.1593 -0.4327
  962MOL0     C29796  -0.012  -0.396   4.566 -0.1687 -0.2361  0.3077
  962MOL0     C29797  -0.120  -0.464   4.465  0.0554 -0.8722 -0.7948
  962MOL0     C29798  -0.082  -0.445   4.324 -0.9203 -0.0226 -0.2005
  962MOL0     C29799  -0.057  -0.398   4.214 -0.2916  0.4472 -0.2349
  962MOL0     C29800   0.335  -0.200   4.868 -0.1539 -0.1252  0.0299
  962MOL0     C29801   0.394  -0.118   4.969  0.2954 -0.5282  0.3970
  962MOL0     C29802   0.504  -0.175   5.050 -0.4031 -0.5283  0.2445
  962MOL0     H29803   0.673   0.379   5.062 -1.1856 -0.1699  0.3096
  962MOL0     H29804   0.813   0.466   5.260 -1.0812 -0.3356  0.0949
  962MOL0     H29805   0.828   0.385   5.666  2.0630  0.8859  0.9149
  962MOL0     H29806   0.818   0.218   5.618  1.1861 -0.1329  1.2814
  962MOL0     H29807   1.055   0.212   5.574 -1.7141  0.4202 -0.2585
  962MOL0     H29808   1.033   0.260   5.747 -1.0184  0.5489  0.8677
  962MOL0     H29809   1.093   0.493   5.687 -1.6146 -0.4851  0.5748
  962MOL0     H29810   1.074   0.464   5.516  0.4514  0.8405 -0.1765
  962MOL0     H29811   1.295   0.342   5.695  2.7640 -1.3251 -2.0458
  962MOL0     H29812   1.258   0.311   5.525 -0.9428  0.1052 -0.1404
  962MOL0     H29813   1.308   0.549   5.459  2.1924  0.0648 -0.0804
  962MOL0     H29814   1.285   0.594   5.627 -2.7479 -1.4699 -0.2154
  962MOL0     H29815   1.520   0.491   5.675  2.4580 -1.5160 -1.9747
  962MOL0     H29816   1.519   0.431   5.511  3.4135 -0.2179  1.9008
  962MOL0     H29817   1.463   0.722   5.545 -0.7047 -0.9432 -2.3819
  962MOL0     H29818   1.592   0.659   5.445  0.5162  0.2926 -0.0527
  962MOL0     H29819   1.660   0.799   5.617 -1.0400 -0.5931 -1.6292
  962MOL0     H29820   1.617   0.679   5.745  0.1500  0.4966  0.2273
  962MOL0     H29821   1.918   0.747   5.541  2.4258 -2.5911 -2.6658
  962MOL0     H29822   2.163   0.465   5.649 -1.3678 -1.4275 -0.5489
  962MOL0     H29823   2.151   0.574   5.515 -2.3140 -0.7740  0.3263
  962MOL0     H29824   2.173   0.772   5.689 -1.2933 -0.4001 -1.8317
  962MOL0     H29825   2.200   0.643   5.810  1.6183 -1.5525 -0.6147
  962MOL0     H29826   2.403   0.738   5.606  1.6954  0.8722  2.4818
  962MOL0     H29827   2.379   0.576   5.622 -0.5010  0.9959  0.3239
  962MOL0     H29828   2.469   0.578   5.841 -0.5546  2.4078  4.4929
  962MOL0     H29829   2.383   0.727   5.873 -2.0346 -1.0623 -1.7588
  962MOL0     H29830   2.802   0.833   5.729  1.3630 -0.2868  0.1615
  962MOL0     H29831   3.013   0.717   5.686  0.2050  0.4541 -1.8199
  962MOL0     H29832   3.229   0.297   5.745  0.0106  0.6697 -0.4020
  962MOL0     H29833   3.446   0.176   5.720  1.1185  1.3876  1.0820
  962MOL0     H29834   3.816   0.279   5.695 -1.5313  2.0000 -1.3036
  962MOL0     H29835   3.666   0.241   5.784  2.0682 -1.5174  2.0021
  962MOL0     H29836   3.635   0.035   5.667 -0.3557  1.2519 -2.0666
  962MOL0     H29837   3.775   0.033   5.579 -2.1057 -1.0553 -0.8291
  962MOL0     H29838   3.760   0.016   5.878  0.2328  1.9375 -0.1149
  962MOL0     H29839   3.828  -0.104   5.776 -0.1061  0.4879 -3.7359
  962MOL0     H29840   3.952   0.174   5.841 -1.7313  0.8434 -0.7588
  962MOL0     H29841   4.004   0.080   5.697 -1.0812  1.1880 -0.3686
  962MOL0     H29842   4.005  -0.063   5.963  0.8666  1.6849  1.4397
  962MOL0     H29843   4.129   0.062   5.947  0.0571 -2.0738  2.1038
  962MOL0     H29844   4.225  -0.151   5.881  1.6979  0.1245 -0.9483
  962MOL0     H29845   4.101  -0.192   5.776  1.9909 -0.7705 -1.2225
  962MOL0     H29846   4.288   0.048   5.701 -2.7603  1.7119 -2.0980
  962MOL0     H29847   4.159  -0.039   5.611  0.2016 -2.4120 -0.4800
  962MOL0     H29848   4.290  -0.245   5.624 -0.1098  0.2058  2.3704
  962MOL0     H29849   4.376  -0.117   5.526 -0.0255  0.3285 -0.7662
  962MOL0     H29850   3.585   0.494   5.469  2.0574 -0.2640  2.5190
  962MOL0     H29851   3.360   0.600   5.464  0.8361 -0.4406 -1.7467
  962MOL0     H29852   2.798   0.340   5.647  1.3502  0.5702 -2.5480
  962MOL0     H29853   2.595   0.455   5.699  2.7640 -3.2399 -3.7378
  962MOL0     H29854   0.715   0.106   5.468 -2.1025  1.5675  0.6702
  962MOL0     H29855   0.580   0.040   5.309 -0.3923 -0.5706  0.4115
  962MOL0     H29856   0.227   0.168   4.886 -1.8095  0.2778  0.7429
  962MOL0     H29857   0.112   0.022   4.728 -0.8877 -1.6279 -0.7571
  962MOL0     H29858   0.222  -0.429   4.744 -0.7041  0.2324  0.3169
  962MOL0     H29859   0.331  -0.358   4.617 -0.6267  0.4956 -2.4688
  962MOL0     H29860   0.158  -0.534   4.551 -0.7292  0.2318 -1.7090
  962MOL0     H29861   0.168  -0.398   4.450 -2.2877  1.3099 -0.4539
  962MOL0     H29862  -0.029  -0.288   4.557 -0.7313 -0.4845 -3.0466
  962MOL0     H29863  -0.045  -0.420   4.667  0.9467 -3.5426  0.0004
  962MOL0     H29864  -0.121  -0.571   4.490 -2.6016 -1.3051 -2.3102
  962MOL0     H29865  -0.217  -0.422   4.496  1.5002  2.7713 -0.7228
  962MOL0     H29866  -0.045  -0.369   4.112  0.4645  0.5675 -0.1178
  962MOL0     H29867   0.373  -0.296   4.834 -1.2701 -0.8827  0.8634
  962MOL0     H29868   0.473  -0.181   5.155 -1.1385 -4.2014 -0.0561
  962MOL0     H29869   0.528  -0.275   5.012  0.0203 -1.3526  2.4809
  962MOL0     H29870   0.595  -0.115   5.037 -1.7071  2.1834  2.4913
  963MOL0     O29871   9.556  11.022  11.270 -0.7560  0.4809 -0.1434
  963MOL0     C29872   9.486  11.119  11.267 -0.1331  0.0285  0.1288
  963MOL0     O29873   9.530  11.246  11.249 -0.4247 -1.0408 -0.2284
  963MOL0     C29874   9.653  11.274  11.210 -0.4779  0.4069 -0.0298
  963MOL0     C29875   9.735  11.359  11.283  0.2280  0.2235  0.4618
  963MOL0     C29876   9.866  11.386  11.248  1.2843 -0.5102 -0.1264
  963MOL0     C29877   9.930  11.333  11.135  0.2427  0.1323  0.5196
  963MOL0     O29878  10.065  11.344  11.107 -0.2321 -0.6316  0.3177
  963MOL0     C29879  10.160  11.383  11.202 -0.0533  0.1078  0.8426
  963MOL0     C29880  10.286  11.303  11.184  0.2975 -0.0315  0.3279
  963MOL0     C29881  10.393  11.326  11.295 -0.3366 -0.1943  0.2033
  963MOL0     C29882  10.522  11.247  11.261  0.4951  0.3406  0.0278
  963MOL0     C29883  10.643  11.297  11.348 -0.4948  0.2913 -0.7187
  963MOL0     C29884  10.765  11.316  11.265 -0.0602 -0.4840  0.0914
  963MOL0     C29885  10.839  11.192  11.205  0.2909 -0.9834 -0.4263
  963MOL0     C29886  10.989  11.196  11.249  0.5371 -0.0320  0.0455
  963MOL0     N29887  11.046  11.313  11.191  0.1023 -0.1710 -0.3185
  963MOL0     C29888  11.070  11.351  11.055  0.1527  0.0134  0.2919
  963MOL0     C29889  11.137  11.466  11.058  1.0796 -0.3574 -0.3681
  963MOL0     C29890  11.186  11.551  10.949  0.1738 -0.0453  1.1317
  963MOL0     C29891  11.338  11.520  10.920  0.0511 -0.8805  0.2655
  963MOL0     C29892  11.371  11.562  10.783  0.6363  0.3404 -0.5350
  963MOL0     C29893  11.525  11.543  10.758  0.3242  0.5752  0.2799
  963MOL0     O29894  11.560  11.408  10.764 -0.1998 -0.4585  0.3494
  963MOL0     C29895  11.688  11.370  10.783 -0.3803 -0.1185 -0.7433
  963MOL0     C29896  11.801  11.463  10.779 -0.0047 -0.7504  0.7792
  963MOL0     C29897  11.929  11.419  10.809 -0.3206  0.1070  0.1305
  963MOL0     C29898  11.954  11.284  10.838 -0.2347 -0.5387  0.1178
  963MOL0     C29899  12.096  11.244  10.867  0.1139  0.1983 -0.0045
  963MOL0     O29900  12.193  11.335  10.902 -0.8477  0.1245 -0.0429
  963MOL0     C29901  12.330  11.311  10.926 -0.1931 -0.3338 -0.1406
  963MOL0     C29902  12.414  11.204  10.885  0.9485  1.0911 -0.7389
  963MOL0     C29903  12.556  11.213  10.901  0.2679 -0.6463  0.2351
  963MOL0     C29904  12.618  11.321  10.963  0.3951 -0.6816 -0.1292
  963MOL0     O29905  12.748  11.326  11.002 -0.6629  0.2321  0.5821
  963MOL0     C29906  12.831  11.358  10.887  0.2765  1.0136  0.5009
  963MOL0     C29907  12.963  11.313  10.936  0.6422  0.1935 -0.3830
  963MOL0     C29908  13.088  11.345  10.847 -1.1987  0.0854  0.4082
  963MOL0     C29909  13.088  11.478  10.766  0.4845  0.0370  0.7693
  963MOL0     C29910  13.220  11.511  10.697  0.8252  0.3862  0.5852
  963MOL0     C29911  13.241  11.437  10.571 -0.0577  0.7691  0.5040
  963MOL0     C29912  13.366  11.476  10.491 -0.2551  0.6901 -0.6449
  963MOL0     C29913  13.495  11.417  10.543  0.3045 -0.0230 -0.6658
  963MOL0    Cl29914  13.507  11.238  10.531 -0.1718  0.3089 -0.0624
  963MOL0     C29915  12.532  11.427  11.003 -0.0828 -0.3038 -0.5301
  963MOL0     C29916  12.390  11.421  10.988  0.8384  0.3574 -0.1081
  963MOL0     O29917  12.113  11.122  10.848 -0.1200  0.2466 -0.0412
  963MOL0     C29918  11.849  11.195  10.834  0.2722 -0.1815 -0.3460
  963MOL0     C29919  11.722  11.238  10.803  0.4303 -0.4050 -0.6214
  963MOL0     N29920  11.157  11.504  11.192 -0.0640  0.1815  0.9665
  963MOL0     N29921  11.107  11.412  11.266  0.3526  0.0887 -0.3664
  963MOL0     C29922   9.847  11.266  11.045  0.0065  0.1569  0.2360
  963MOL0     C29923   9.712  11.232  11.086  0.0895  1.0744  0.7307
  963MOL0     C29924   9.338  11.104  11.289 -0.2113  0.2386  0.6768
  963MOL0     C29925   9.260  11.160  11.187 -0.6726  0.0140 -0.2252
  963MOL0     C29926   9.121  11.173  11.203  0.5013  0.3182  0.1568
  963MOL0     C29927   9.055  11.125  11.316 -0.3247  0.1460 -0.2977
  963MOL0     O29928   8.920  11.135  11.330  0.1246 -0.3029 -0.0891
  963MOL0     C29929   8.831  11.205  11.242 -0.4313  0.9581  0.4029
  963MOL0     C29930   8.859  11.354  11.227  0.1633 -0.6076  0.5924
  963MOL0     C29931   8.799  11.401  11.099 -0.3102  0.3442  0.0686
  963MOL0     C29932   8.795  11.550  11.076 -0.3772 -0.5310  0.1480
  963MOL0     C29933   8.739  11.573  10.938 -0.4908  0.2273 -0.7147
  963MOL0     C29934   8.694  11.575  10.825 -0.0420  0.3303 -0.4828
  963MOL0     C29935   9.134  11.069  11.423 -0.5573  0.3677  0.4696
  963MOL0     C29936   9.278  11.058  11.412  0.3698  0.2572  0.3967
  963MOL0     C29937   9.357  10.973  11.504  0.7512  0.0265  0.1454
  963MOL0     H29938   9.698  11.400  11.376 -0.5469  1.1468 -0.2242
  963MOL0     H29939   9.922  11.452  11.313  0.6080 -1.4280  1.4544
  963MOL0     H29940  10.193  11.487  11.191  1.7494 -0.5183 -0.0639
  963MOL0     H29941  10.123  11.369  11.304 -2.4557  3.1523  0.5441
  963MOL0     H29942  10.337  11.330  11.091 -1.3552  1.3346 -0.2434
  963MOL0     H29943  10.269  11.195  11.182  1.7745 -0.2707 -1.3346
  963MOL0     H29944  10.359  11.299  11.395  0.8104 -1.5321  0.2571
  963MOL0     H29945  10.415  11.434  11.296  2.3459 -0.6790  0.4976
  963MOL0     H29946  10.502  11.142  11.280  0.9464  0.7610  3.4311
  963MOL0     H29947  10.537  11.265  11.154 -2.5795  3.2702 -0.0868
  963MOL0     H29948  10.627  11.387  11.409 -0.2691 -0.4642  0.4912
  963MOL0     H29949  10.660  11.214  11.418  1.0642  1.3204  0.1764
  963MOL0     H29950  10.731  11.373  11.178  1.0351  0.7831  0.4542
  963MOL0     H29951  10.832  11.383  11.320 -1.9200  0.3320  1.4705
  963MOL0     H29952  10.836  11.190  11.095  1.4732  0.0030 -0.4969
  963MOL0     H29953  10.803  11.105  11.260 -0.5084  1.1351  2.6845
  963MOL0     H29954  10.989  11.198  11.359  1.7545  0.6241  0.0464
  963MOL0     H29955  11.044  11.103  11.232  0.2813 -0.8427  3.0082
  963MOL0     H29956  11.032  11.300  10.967 -0.2450  0.8459 -0.0330
  963MOL0     H29957  11.132  11.553  10.854  1.5853 -3.1002  0.1432
  963MOL0     H29958  11.183  11.655  10.981  2.4277 -0.4366  2.9570
  963MOL0     H29959  11.401  11.581  10.985 -0.2776  2.5505 -2.3735
  963MOL0     H29960  11.354  11.412  10.935 -0.5421 -1.1704 -1.0227
  963MOL0     H29961  11.334  11.665  10.773  1.0272  0.5009 -0.3655
  963MOL0     H29962  11.330  11.497  10.705 -0.0150 -1.0464  0.9045
  963MOL0     H29963  11.581  11.614  10.820  0.4040  0.2993  0.5295
  963MOL0     H29964  11.556  11.579  10.660 -1.2032  1.5662  0.1429
  963MOL0     H29965  11.791  11.568  10.754 -0.6028 -1.0250 -0.1669
  963MOL0     H29966  12.014  11.485  10.799 -0.0194  0.0707  2.0874
  963MOL0     H29967  12.373  11.127  10.821 -1.3995  1.3342  0.3685
  963MOL0     H29968  12.615  11.126  10.872  2.2449  1.0488 -1.0520
  963MOL0     H29969  12.802  11.311  10.792  1.5986  1.6345 -0.2343
  963MOL0     H29970  12.831  11.466  10.871  2.3918  1.0778  0.7009
  963MOL0     H29971  12.970  11.367  11.031  0.1868 -1.4497  0.6253
  963MOL0     H29972  12.973  11.208  10.963 -0.7635  0.7593  2.7396
  963MOL0     H29973  13.177  11.336  10.911 -0.9657 -2.4971 -0.1750
  963MOL0     H29974  13.110  11.268  10.772  2.8343  1.2522  0.1640
  963MOL0     H29975  13.066  11.561  10.833  0.0722  1.4440 -1.0254
  963MOL0     H29976  13.012  11.468  10.688  0.1003 -1.8594  1.3429
  963MOL0     H29977  13.303  11.493  10.766  0.2992  3.0871  2.0726
  963MOL0     H29978  13.236  11.618  10.680  3.4849  0.3564  2.2976
  963MOL0     H29979  13.254  11.329  10.587 -0.3971  0.9176  1.8320
  963MOL0     H29980  13.148  11.452  10.515  0.7450 -0.2712 -1.1864
  963MOL0     H29981  13.388  11.583  10.498 -1.6026  0.8808  1.9558
  963MOL0     H29982  13.365  11.453  10.384  0.7670 -2.4768 -0.0737
  963MOL0     H29983  13.576  11.452  10.479  1.0545 -0.6531 -0.0844
  963MOL0     H29984  13.513  11.450  10.646 -0.3116 -3.2217  0.5984
  963MOL0     H29985  12.563  11.520  11.052  1.3015  0.1202 -2.1015
  963MOL0     H29986  12.331  11.509  11.012  0.1045  0.8940 -3.3862
  963MOL0     H29987  11.862  11.092  10.866  0.3824  0.2828  1.2334
  963MOL0     H29988  11.647  11.160  10.802  3.3476 -3.4756  1.0418
  963MOL0     H29989   9.883  11.226  10.950 -0.4199  0.8225 -0.2083
  963MOL0     H29990   9.653  11.159  11.031 -1.6211  0.7655  2.8554
  963MOL0     H29991   9.303  11.204  11.097  0.9770 -1.5248 -0.2418
  963MOL0     H29992   9.076  11.213  11.112  3.4359  1.0008 -1.1377
  963MOL0     H29993   8.731  11.185  11.283  0.1086 -1.1326  0.7993
  963MOL0     H29994   8.844  11.159  11.144  0.1869  1.3531  0.2934
  963MOL0     H29995   8.967  11.369  11.220  0.1808 -1.1912 -0.6303
  963MOL0     H29996   8.824  11.417  11.310  1.2813  3.5311 -1.7748
  963MOL0     H29997   8.696  11.372  11.081 -1.4321  2.7915  1.8630
  963MOL0     H29998   8.858  11.360  11.017 -0.3148 -1.8085  1.0826
  963MOL0     H29999   8.729  11.590  11.154 -0.1332 -0.0704  0.1247
  963MOL0     H30000   8.895  11.593  11.094 -1.1749  0.2982  3.0987
  963MOL0     H30001   8.654  11.585  10.726 -1.8645 -1.7635 -0.0430
  963MOL0     H30002   9.090  11.028  11.513  0.4522 -2.8572 -0.3698
  963MOL0     H30003   9.312  10.976  11.603  4.6751  3.1991  2.1356
  963MOL0     H30004   9.354  10.875  11.455  1.8036  0.7501 -1.4776
  963MOL0     H30005   9.457  11.004  11.537  0.7216 -0.9546  1.2411
  964MOL0     O30006  10.842   4.531   7.404 -0.0700  0.4767  0.6563
  964MOL0     C30007  10.886   4.546   7.292  0.2161  0.2314  1.2123
  964MOL0     O30008  10.824   4.517   7.173  0.5526  0.0374 -0.0361
  964MOL0     C30009  10.698   4.479   7.181 -0.0557  0.1699 -0.4999
  964MOL0     C30010  10.587   4.561   7.220  0.4537  0.9709 -0.6522
  964MOL0     C30011  10.458   4.508   7.219  0.2325  0.0082 -0.2757
  964MOL0     C30012  10.429   4.379   7.175  0.8655 -0.1607  0.5335
  964MOL0     O30013  10.299   4.337   7.180 -0.4649  0.0910  0.8331
  964MOL0     C30014  10.270   4.203   7.183 -0.3899 -0.4817  0.1193
  964MOL0     C30015  10.120   4.174   7.205 -0.5957  0.3054 -0.6220
  964MOL0     C30016  10.083   4.051   7.126  0.8033 -0.8972  0.1895
  964MOL0     C30017  10.172   3.928   7.156  0.8509 -0.6076 -0.5081
  964MOL0     C30018  10.101   3.810   7.090  0.2963 -0.2051 -0.9969
  964MOL0     C30019  10.209   3.700   7.059 -0.2636  0.5398 -0.6448
  964MOL0     C30020  10.138   3.575   7.016 -0.6283 -0.1654 -0.3010
  964MOL0     C30021  10.238   3.469   6.968  0.5965 -0.3760  0.1444
  964MOL0     N30022  10.339   3.425   7.066  0.4685 -0.4933 -0.1944
  964MOL0     C30023  10.318   3.336   7.166  0.2372 -0.0711  0.1516
  964MOL0     C30024  10.439   3.300   7.209  0.9263  0.0064  0.2794
  964MOL0     C30025  10.463   3.183   7.300 -0.8498  0.2576 -0.0115
  964MOL0     C30026  10.612   3.163   7.351  0.1326 -0.6388 -0.1834
  964MOL0     C30027  10.622   3.041   7.440  0.1723 -0.3908 -0.8008
  964MOL0     C30028  10.581   2.904   7.382 -0.0100 -0.6722 -0.1054
  964MOL0     O30029  10.683   2.888   7.277  1.0578 -0.5563  0.7539
  964MOL0     C30030  10.812   2.845   7.302 -0.0676  0.4603  0.4926
  964MOL0     C30031  10.847   2.745   7.391 -1.7694  0.0753 -0.2966
  964MOL0     C30032  10.985   2.709   7.417  0.5578 -0.4104  0.6327
  964MOL0     C30033  11.085   2.765   7.337  0.6734 -0.0676  0.4059
  964MOL0     C30034  11.233   2.728   7.338  0.4902 -0.4792  0.2747
  964MOL0     O30035  11.320   2.829   7.287 -0.4666  0.2258 -0.0605
  964MOL0     C30036  11.461   2.820   7.308  1.0747  0.0372  0.2279
  964MOL0     C30037  11.514   2.790   7.429 -0.0904 -0.3537  0.3575
  964MOL0     C30038  11.655   2.782   7.446 -0.2551  0.3190 -0.9989
  964MOL0     C30039  11.735   2.820   7.341  0.5073  0.1760 -0.8006
  964MOL0     O30040  11.869   2.818   7.356 -0.6513  0.9170  0.3483
  964MOL0     C30041  11.958   2.776   7.251  0.0423 -0.1062 -0.0465
  964MOL0     C30042  12.076   2.701   7.315 -0.1665 -0.0589 -0.3812
  964MOL0     C30043  12.155   2.628   7.209  0.8112 -0.1406 -0.0485
  964MOL0     C30044  12.281   2.564   7.264 -0.5498  0.2261  0.5515
  964MOL0     C30045  12.356   2.495   7.147 -0.2539  0.1679  0.0564
  964MOL0     C30046  12.445   2.381   7.207 -0.3406 -0.4422  0.1889
  964MOL0     C30047  12.571   2.355   7.120  0.1284  0.3276 -0.1208
  964MOL0     C30048  12.549   2.290   6.976 -0.2640  0.9925  0.7288
  964MOL0    Cl30049  12.714   2.282   6.892  0.3567 -0.4197 -0.3299
  964MOL0     C30050  11.682   2.847   7.219  0.2598 -0.6121  0.9474
  964MOL0     C30051  11.542   2.852   7.202  0.5378  0.7196  0.5200
  964MOL0     O30052  11.263   2.632   7.401 -0.0094 -0.4619  0.1808
  964MOL0     C30053  11.046   2.851   7.237 -0.2938  0.3450 -0.6132
  964MOL0     C30054  10.914   2.888   7.227 -0.2087  0.6884  1.1680
  964MOL0     N30055  10.528   3.375   7.138  0.4845 -0.2866 -0.5073
  964MOL0     N30056  10.473   3.456   7.059  0.3695 -0.4629  0.6028
  964MOL0     C30057  10.538   4.302   7.131  0.0512  0.8143  0.4782
  964MOL0     C30058  10.662   4.357   7.130 -0.3126 -0.2397  0.2506
  964MOL0     C30059  11.029   4.592   7.281 -0.0106  0.9843 -0.1228
  964MOL0     C30060  11.106   4.585   7.390  0.5140 -0.2722 -0.5263
  964MOL0     C30061  11.238   4.621   7.383  0.5885 -0.2232 -0.0962
  964MOL0     C30062  11.301   4.676   7.271  1.3170 -0.2611 -0.5627
  964MOL0     O30063  11.429   4.709   7.264 -0.2045 -0.3516 -0.3645
  964MOL0     C30064  11.513   4.697   7.381 -0.1387 -0.2145 -0.0089
  964MOL0     C30065  11.650   4.706   7.313 -1.3119 -0.4981  0.1916
  964MOL0     C30066  11.768   4.697   7.411 -0.0203  0.0427  0.3372
  964MOL0     C30067  11.902   4.731   7.338 -0.4662  0.8637 -0.3335
  964MOL0     C30068  12.008   4.764   7.443  0.1650  0.3328  0.2094
  964MOL0     C30069  12.088   4.788   7.527 -0.5518  0.6727 -0.5009
  964MOL0     C30070  11.221   4.677   7.149  0.0035 -0.4625  0.1783
  964MOL0     C30071  11.087   4.647   7.157 -0.0087  0.5812  0.1841
  964MOL0     C30072  11.002   4.671   7.031  0.5910  0.3864  0.4018
  964MOL0     H30073  10.602   4.659   7.265 -2.2332 -0.1294  3.0838
  964MOL0     H30074  10.375   4.567   7.256  0.5352  1.2121 -1.4250
  964MOL0     H30075  10.295   4.151   7.090  1.1718 -1.6128  1.1382
  964MOL0     H30076  10.340   4.152   7.249  1.3615 -0.6030 -1.7570
  964MOL0     H30077  10.048   4.254   7.185 -0.7108  0.8363  1.7359
  964MOL0     H30078  10.108   4.147   7.310  0.6854  1.3336 -0.1937
  964MOL0     H30079  10.099   4.071   7.020  2.1393 -0.5262  0.4329
  964MOL0     H30080   9.976   4.035   7.144  0.8291 -1.7681 -0.3701
  964MOL0     H30081  10.274   3.940   7.118  1.2825  0.4291  0.8985
  964MOL0     H30082  10.181   3.914   7.264 -2.0661  1.5798  0.1362
  964MOL0     H30083  10.027   3.783   7.165 -0.6236  2.6170 -0.7623
  964MOL0     H30084  10.041   3.842   7.004 -2.1158  0.3406  0.7823
  964MOL0     H30085  10.282   3.734   6.985  0.2397  0.4321 -0.2092
  964MOL0     H30086  10.270   3.683   7.149 -2.4904 -2.3020  0.4648
  964MOL0     H30087  10.068   3.598   6.935 -1.2396 -1.6433 -0.2255
  964MOL0     H30088  10.084   3.537   7.103  0.9523 -0.3502  0.6258
  964MOL0     H30089  10.180   3.390   6.919  0.4050 -1.5060  2.0914
  964MOL0     H30090  10.293   3.505   6.881 -0.4262 -2.1577 -1.3227
  964MOL0     H30091  10.222   3.290   7.191  1.3867 -1.6268  2.0379
  964MOL0     H30092  10.390   3.186   7.381 -1.9716 -1.6733 -0.8754
  964MOL0     H30093  10.440   3.087   7.252  3.0578 -1.9212  1.9774
  964MOL0     H30094  10.691   3.153   7.276 -1.4896  3.3048 -2.7757
  964MOL0     H30095  10.628   3.257   7.405  2.4151 -1.1237  0.0667
  964MOL0     H30096  10.565   3.058   7.531  1.0264 -2.5341  0.1968
  964MOL0     H30097  10.723   3.023   7.478 -0.5488 -0.7806  1.0177
  964MOL0     H30098  10.481   2.901   7.339 -0.6296  1.0324  1.1562
  964MOL0     H30099  10.585   2.823   7.456 -1.4263 -0.1941  0.5304
  964MOL0     H30100  10.766   2.698   7.447 -1.6617  1.5210  1.1485
  964MOL0     H30101  11.015   2.647   7.501  1.9460 -0.1276  0.3809
  964MOL0     H30102  11.454   2.760   7.514 -0.3940 -0.0143  0.2666
  964MOL0     H30103  11.693   2.754   7.543 -1.8295  2.0184  0.1625
  964MOL0     H30104  11.901   2.713   7.181 -3.8569 -1.7451  4.0879
  964MOL0     H30105  11.990   2.872   7.210 -1.5472  0.7862  0.6764
  964MOL0     H30106  12.128   2.782   7.366 -0.9660 -0.1416  0.6032
  964MOL0     H30107  12.026   2.634   7.386 -1.9745  0.8069 -0.7700
  964MOL0     H30108  12.088   2.554   7.163 -1.6398  1.6022  0.4817
  964MOL0     H30109  12.178   2.708   7.139 -0.1844 -0.3054 -0.5839
  964MOL0     H30110  12.252   2.479   7.327  2.0654 -2.7388 -1.9436
  964MOL0     H30111  12.353   2.632   7.311  2.1033 -1.9837 -0.1151
  964MOL0     H30112  12.403   2.568   7.080 -1.0924  0.3696 -0.3170
  964MOL0     H30113  12.291   2.447   7.073  0.5649  1.4290 -1.5706
  964MOL0     H30114  12.484   2.409   7.306  0.4220 -1.4106  0.1773
  964MOL0     H30115  12.388   2.289   7.218  1.6884 -1.5059  3.4098
  964MOL0     H30116  12.639   2.294   7.180 -0.6715  1.4118  2.0167
  964MOL0     H30117  12.606   2.457   7.103 -1.7670  1.5322  2.5637
  964MOL0     H30118  12.518   2.186   6.989 -2.0645  1.3074 -0.7421
  964MOL0     H30119  12.461   2.331   6.926  1.0603  0.5291 -2.2049
  964MOL0     H30120  11.749   2.873   7.138 -2.1776 -0.2959 -1.1081
  964MOL0     H30121  11.500   2.883   7.107  1.0755 -1.2390 -0.4198
  964MOL0     H30122  11.109   2.892   7.159 -0.0201 -0.1322 -0.6437
  964MOL0     H30123  10.893   2.955   7.145  1.3020  1.1932  1.1549
  964MOL0     H30124  10.525   4.204   7.086  1.8034  0.6866  0.1784
  964MOL0     H30125  10.732   4.290   7.081  0.1375  0.8107 -0.5863
  964MOL0     H30126  11.065   4.548   7.483  0.5806  3.5153  1.2011
  964MOL0     H30127  11.293   4.616   7.477 -0.2967  0.3989  0.4790
  964MOL0     H30128  11.500   4.602   7.435  3.2018  0.5388  2.4291
  964MOL0     H30129  11.501   4.781   7.449  1.8101  0.3030 -0.2561
  964MOL0     H30130  11.658   4.796   7.252  1.0128 -0.3281  0.6548
  964MOL0     H30131  11.660   4.616   7.252  1.5145 -0.1441  0.0246
  964MOL0     H30132  11.765   4.591   7.436  0.9526 -0.3938 -1.2539
  964MOL0     H30133  11.757   4.770   7.491  1.2878  2.7068 -1.7510
  964MOL0     H30134  11.935   4.647   7.277 -0.7511  1.1524 -0.9055
  964MOL0     H30135  11.895   4.816   7.269 -2.0401  0.7426 -0.3626
  964MOL0     H30136  12.165   4.801   7.600  0.5424 -1.0146 -1.2706
  964MOL0     H30137  11.257   4.717   7.055 -3.3314 -1.2030 -1.6003
  964MOL0     H30138  10.922   4.742   7.052  0.5158  0.2874  0.4461
  964MOL0     H30139  11.073   4.705   6.955 -0.0760  2.6228  0.7121
  964MOL0     H30140  10.957   4.579   6.994  0.1109  1.7701 -2.7300
  965MOL0     O30141   9.220   3.605   4.385  0.6622 -0.0028 -0.4986
  965MOL0     C30142   9.144   3.650   4.302 -1.1616 -0.6574  0.4625
  965MOL0     O30143   9.146   3.619   4.171 -0.1308 -0.0739 -0.0523
  965MOL0     C30144   9.241   3.539   4.129 -0.0450 -0.3448 -0.6933
  965MOL0     C30145   9.335   3.587   4.040 -0.1833 -0.1048 -1.0279
  965MOL0     C30146   9.414   3.490   3.974 -0.8234 -0.7719  0.2692
  965MOL0     C30147   9.410   3.354   4.001 -0.2685 -0.3682  0.8573
  965MOL0     O30148   9.482   3.260   3.938 -0.3256  0.0670  0.1650
  965MOL0     C30149   9.557   3.290   3.818 -0.1129 -0.2409 -0.5419
  965MOL0     C30150   9.627   3.160   3.768  0.5841 -0.0106  0.7758
  965MOL0     C30151   9.532   3.052   3.707 -0.3341  0.5489  0.5754
  965MOL0     C30152   9.603   2.923   3.673 -0.2657 -0.4124  0.3527
  965MOL0     C30153   9.711   2.944   3.562 -0.2906  0.2773  0.3476
  965MOL0     C30154   9.708   2.821   3.470 -0.3269  0.2251  0.0108
  965MOL0     C30155   9.830   2.786   3.393 -0.3894 -0.5617  0.1370
  965MOL0     C30156   9.848   2.880   3.265 -0.2990 -0.2389  1.1681
  965MOL0     N30157   9.813   2.807   3.141 -0.3533 -0.5532  0.3606
  965MOL0     C30158   9.889   2.721   3.065  0.8434 -0.4279  0.1548
  965MOL0     C30159   9.818   2.705   2.954 -0.0737 -0.0669  0.5873
  965MOL0     C30160   9.858   2.612   2.842 -0.6021  0.0933  0.0458
  965MOL0     C30161   9.770   2.488   2.828  0.4777  0.2969  0.3154
  965MOL0     C30162   9.778   2.399   2.947  0.3820 -0.1063  0.6632
  965MOL0     C30163   9.915   2.346   2.978  0.0640  0.6081  0.5658
  965MOL0     O30164   9.962   2.270   2.862  0.0444  0.1376 -0.1985
  965MOL0     C30165  10.100   2.255   2.830  0.9985 -0.9322  0.7178
  965MOL0     C30166  10.138   2.167   2.729  0.8271 -0.1049 -0.1742
  965MOL0     C30167  10.269   2.136   2.708  0.3513  0.2371  0.4238
  965MOL0     C30168  10.376   2.187   2.784  0.7238 -0.2687 -0.1174
  965MOL0     C30169  10.521   2.164   2.752 -0.2231 -0.4470 -0.1546
  965MOL0     O30170  10.606   2.189   2.859 -0.2792 -0.2487 -0.7646
  965MOL0     C30171  10.727   2.148   2.844 -0.7345  0.9510  0.2615
  965MOL0     C30172  10.822   2.239   2.852 -0.2487 -0.5867 -0.0581
  965MOL0     C30173  10.952   2.199   2.844 -0.5928  0.0154 -0.2569
  965MOL0     C30174  10.987   2.066   2.849 -0.2658 -0.1283 -0.3160
  965MOL0     O30175  11.121   2.038   2.883  0.0873 -0.1516 -0.0487
  965MOL0     C30176  11.148   1.911   2.948 -0.4521  0.9171  0.0070
  965MOL0     C30177  11.285   1.926   3.015  0.1542  0.0192 -0.7069
  965MOL0     C30178  11.401   1.875   2.934  0.3421  0.7788  0.5570
  965MOL0     C30179  11.539   1.909   2.986  0.1995  0.2102 -0.5712
  965MOL0     C30180  11.663   1.860   2.916 -0.1018 -0.3327  0.5470
  965MOL0     C30181  11.777   1.921   2.977  0.9625  0.5077 -0.6946
  965MOL0     C30182  11.904   1.845   2.938  0.3750  0.1558 -0.1255
  965MOL0     C30183  12.023   1.927   2.909 -0.5696 -0.1691  0.2489
  965MOL0    Cl30184  12.165   1.832   2.958  0.4458 -0.2027 -0.0584
  965MOL0     C30185  10.893   1.967   2.842  0.3755  0.2034 -0.4467
  965MOL0     C30186  10.761   2.007   2.838 -0.2974 -0.3038  0.6259
  965MOL0     O30187  10.558   2.099   2.656 -0.0981  0.7990 -0.1231
  965MOL0     C30188  10.329   2.261   2.892  0.1302 -0.3714  0.1864
  965MOL0     C30189  10.195   2.303   2.916 -0.4792 -1.1342 -0.5980
  965MOL0     N30190   9.694   2.754   2.972 -0.0257 -0.4871 -0.1035
  965MOL0     N30191   9.693   2.815   3.083 -0.5734 -0.4070  0.3619
  965MOL0     C30192   9.319   3.312   4.093 -0.0343  0.8355 -0.2693
  965MOL0     C30193   9.235   3.403   4.153 -0.6906  0.2983  0.3534
  965MOL0     C30194   9.047   3.743   4.360  0.3553  0.8527 -0.2984
  965MOL0     C30195   9.076   3.810   4.485 -1.0091  1.0096 -0.2645
  965MOL0     C30196   8.990   3.912   4.529  0.9639  0.7739  0.1959
  965MOL0     C30197   8.861   3.927   4.470 -0.3151 -0.0656 -0.0106
  965MOL0     O30198   8.759   4.007   4.516 -0.9431 -0.6058 -0.1484
  965MOL0     C30199   8.765   4.073   4.644  1.0352  0.7301 -0.1593
  965MOL0     C30200   8.631   4.122   4.692 -0.0910 -0.5135 -0.4261
  965MOL0     C30201   8.597   4.272   4.657 -0.6668  0.0943  0.1427
  965MOL0     C30202   8.477   4.329   4.730  0.5585  0.2213  0.1716
  965MOL0     C30203   8.365   4.328   4.638  0.2763  0.1027 -0.4106
  965MOL0     C30204   8.278   4.319   4.553 -0.1774 -0.3556 -0.5107
  965MOL0     C30205   8.829   3.852   4.364  0.1790 -0.9546  1.5525
  965MOL0     C30206   8.916   3.759   4.302  0.6095 -0.1865 -0.6763
  965MOL0     C30207   8.868   3.689   4.185 -0.0218 -0.5152  0.2500
  965MOL0     H30208   9.318   3.690   4.013 -1.1388  0.1300  0.4130
  965MOL0     H30209   9.479   3.517   3.891 -0.8015 -1.6215 -0.0081
  965MOL0     H30210   9.493   3.325   3.736  1.0859  0.3980 -1.2316
  965MOL0     H30211   9.632   3.367   3.839  1.6389 -1.4404 -2.0843
  965MOL0     H30212   9.693   3.119   3.845  1.2988 -1.3515 -0.4883
  965MOL0     H30213   9.690   3.189   3.683  0.3639 -1.0819  0.2256
  965MOL0     H30214   9.472   3.091   3.625  1.9208  1.3113 -0.8076
  965MOL0     H30215   9.470   3.015   3.790  0.1617  1.1598  1.2311
  965MOL0     H30216   9.639   2.874   3.763 -0.0630  1.7892  1.5331
  965MOL0     H30217   9.517   2.866   3.637 -0.1085  0.0432 -0.8089
  965MOL0     H30218   9.685   3.031   3.501 -2.0209 -0.2929  0.2180
  965MOL0     H30219   9.814   2.955   3.599  0.4427 -0.9176 -1.2067
  965MOL0     H30220   9.674   2.729   3.520  0.4292 -0.1967 -0.2324
  965MOL0     H30221   9.631   2.829   3.393 -0.0405 -0.7882 -0.3991
  965MOL0     H30222   9.813   2.682   3.361  0.3152 -0.2284 -1.3692
  965MOL0     H30223   9.913   2.780   3.464 -0.2603  0.1635  0.0493
  965MOL0     H30224   9.780   2.965   3.258 -0.0417  0.0855  2.3427
  965MOL0     H30225   9.950   2.911   3.241 -0.0138 -2.3264 -0.6247
  965MOL0     H30226   9.988   2.684   3.090  0.5435 -1.0053  0.5192
  965MOL0     H30227   9.849   2.663   2.745 -1.0551 -2.1581 -1.1910
  965MOL0     H30228   9.963   2.585   2.851 -0.7502 -2.4041 -3.3640
  965MOL0     H30229   9.666   2.522   2.816  0.5405  0.8274  1.1950
  965MOL0     H30230   9.801   2.438   2.735 -0.1059  1.0095 -0.2805
  965MOL0     H30231   9.717   2.309   2.933 -1.4524  1.0583  0.9228
  965MOL0     H30232   9.734   2.454   3.030 -2.0486 -1.6189  0.4787
  965MOL0     H30233   9.904   2.287   3.070 -2.7758  0.8665  0.5053
  965MOL0     H30234   9.985   2.427   3.000  1.2198 -0.7582  2.1490
  965MOL0     H30235  10.056   2.123   2.673 -0.9830  1.5311  1.0692
  965MOL0     H30236  10.293   2.069   2.626 -1.5412  1.9142 -1.6369
  965MOL0     H30237  10.794   2.342   2.871  1.3995  0.1380 -1.3201
  965MOL0     H30238  11.036   2.266   2.856  1.2169 -1.8418 -1.8985
  965MOL0     H30239  11.078   1.898   3.031 -1.0354  1.2493 -0.4324
  965MOL0     H30240  11.147   1.823   2.882  1.5549  1.7255 -1.2171
  965MOL0     H30241  11.299   2.029   3.049  2.3880 -0.6031  0.4542
  965MOL0     H30242  11.278   1.858   3.101  0.2436 -1.2512 -1.6799
  965MOL0     H30243  11.394   1.766   2.936  2.3069  0.6148  0.1538
  965MOL0     H30244  11.387   1.897   2.827 -0.1804  1.3790  0.7403
  965MOL0     H30245  11.551   1.862   3.084  0.8951  1.4775 -0.0286
  965MOL0     H30246  11.538   2.018   2.997 -1.1902  0.1060  0.7163
  965MOL0     H30247  11.660   1.870   2.807  0.8034  0.1876  0.5617
  965MOL0     H30248  11.672   1.753   2.931  1.2955 -0.2403  0.5248
  965MOL0     H30249  11.783   2.030   2.969 -0.6588  0.8526  1.7227
  965MOL0     H30250  11.764   1.907   3.085 -2.2113  0.4489 -1.0140
  965MOL0     H30251  11.884   1.790   2.845 -0.8530  0.4456 -0.0463
  965MOL0     H30252  11.929   1.768   3.011  0.1549  0.4146  0.2246
  965MOL0     H30253  12.022   1.954   2.804 -1.1589 -0.9652  0.0397
  965MOL0     H30254  12.022   2.018   2.970  1.2592  0.5755 -0.7703
  965MOL0     H30255  10.916   1.861   2.851  1.4575  0.4675  0.0872
  965MOL0     H30256  10.680   1.935   2.829  0.0422 -0.6683  0.4335
  965MOL0     H30257  10.400   2.310   2.958 -1.6630 -0.2366  2.0936
  965MOL0     H30258  10.181   2.373   2.998  2.0933 -0.1301 -0.9082
  965MOL0     H30259   9.312   3.207   4.119  0.6115  0.3162 -2.0261
  965MOL0     H30260   9.155   3.356   4.210 -0.7313 -0.5252 -0.3717
  965MOL0     H30261   9.165   3.783   4.541 -0.7835 -4.0224 -2.4928
  965MOL0     H30262   9.008   3.960   4.625 -1.4893  0.3861  0.9149
  965MOL0     H30263   8.843   4.150   4.642  2.1330 -0.3441 -1.9494
  965MOL0     H30264   8.801   3.996   4.713 -1.0723 -1.7384 -1.6262
  965MOL0     H30265   8.648   4.121   4.800  0.6433  0.3028 -0.5214
  965MOL0     H30266   8.551   4.051   4.669  1.0682 -2.0015 -0.0297
  965MOL0     H30267   8.591   4.290   4.549 -0.3673  1.7584  0.3766
  965MOL0     H30268   8.687   4.328   4.683 -1.7229  2.5652 -1.1897
  965MOL0     H30269   8.454   4.267   4.818 -0.5022 -0.6828 -0.7032
  965MOL0     H30270   8.491   4.428   4.773 -1.8299  0.7629 -0.1153
  965MOL0     H30271   8.217   4.307   4.465 -1.2113  1.4971 -0.1033
  965MOL0     H30272   8.737   3.880   4.312 -0.1873 -3.1683  0.8904
  965MOL0     H30273   8.925   3.731   4.102 -3.5591  3.1654 -0.6711
  965MOL0     H30274   8.873   3.581   4.196 -2.6082 -1.2405 -3.6067
  965MOL0     H30275   8.763   3.700   4.156  0.9901  0.2859 -3.7474
  966MOL0     O30276  10.144   4.485   9.765 -0.4605  0.6484 -0.2233
  966MOL0     C30277  10.159   4.411   9.667 -0.1746 -0.4647 -0.7490
  966MOL0     O30278  10.257   4.428   9.585  0.1315  0.5241  0.3236
  966MOL0     C30279  10.389   4.434   9.630 -0.3931  1.1518 -0.0638
  966MOL0     C30280  10.435   4.448   9.761  0.8249  0.6671  0.6599
  966MOL0     C30281  10.566   4.459   9.791  0.1928 -0.7491  0.3402
  966MOL0     C30282  10.667   4.458   9.694 -0.2449 -0.8963  0.5358
  966MOL0     O30283  10.796   4.477   9.737 -0.3945  0.1432 -0.0111
  966MOL0     C30284  10.907   4.449   9.650 -0.6498 -0.6214  0.2922
  966MOL0     C30285  11.010   4.359   9.705  0.1650 -0.5629 -0.4312
  966MOL0     C30286  11.117   4.330   9.604 -0.1117  0.1523  0.8505
  966MOL0     C30287  11.252   4.415   9.608 -0.8268 -0.3482  0.4049
  966MOL0     C30288  11.331   4.403   9.482 -0.5417 -0.2548  0.2021
  966MOL0     C30289  11.474   4.462   9.496  0.3353  0.8773  0.4826
  966MOL0     C30290  11.537   4.458   9.357  0.4737  0.3205  0.1318
  966MOL0     C30291  11.658   4.544   9.344  0.2792  0.6656  0.4103
  966MOL0     N30292  11.770   4.481   9.414 -1.0011  0.2914  0.0535
  966MOL0     C30293  11.869   4.406   9.355  0.1580  0.1251 -0.2398
  966MOL0     C30294  11.959   4.387   9.450 -0.9086  0.5347 -0.1855
  966MOL0     C30295  12.077   4.298   9.449  0.0203  0.2443  0.4157
  966MOL0     C30296  12.212   4.374   9.448 -0.0985  1.1407 -0.3534
  966MOL0     C30297  12.222   4.474   9.335 -0.2285  1.0291 -0.2987
  966MOL0     C30298  12.356   4.541   9.357 -0.0596  0.0393  0.1742
  966MOL0     O30299  12.468   4.458   9.340 -0.4284 -0.2552 -0.5886
  966MOL0     C30300  12.589   4.477   9.401  0.0210  0.2973 -0.1436
  966MOL0     C30301  12.638   4.366   9.468 -0.1308 -0.4817 -0.3434
  966MOL0     C30302  12.748   4.381   9.542 -0.3218  0.4018  0.4557
  966MOL0     C30303  12.813   4.504   9.565 -0.1576  0.2354  0.4474
  966MOL0     C30304  12.918   4.514   9.670 -0.4737  0.2215 -0.0058
  966MOL0     O30305  12.930   4.634   9.726 -0.0596  0.0416  0.3036
  966MOL0     C30306  13.032   4.634   9.822  0.3305  0.1928  0.8424
  966MOL0     C30307  13.169   4.635   9.794  0.6335  0.7050  0.3192
  966MOL0     C30308  13.259   4.649   9.899 -0.2285 -0.0012  0.6590
  966MOL0     C30309  13.224   4.684  10.029 -0.1319 -0.1900  0.2929
  966MOL0     O30310  13.323   4.700  10.120 -0.2311 -0.3233  0.4881
  966MOL0     C30311  13.284   4.732  10.251  0.5148  0.5529  0.1983
  966MOL0     C30312  13.394   4.728  10.351  0.8670  0.4393 -0.0093
  966MOL0     C30313  13.462   4.593  10.341  0.2081 -0.1529  0.4626
  966MOL0     C30314  13.572   4.576  10.449 -0.0795 -0.2631  0.2786
  966MOL0     C30315  13.656   4.443  10.423  0.3498 -0.1440  0.1805
  966MOL0     C30316  13.758   4.482  10.313  0.0592  0.5864 -0.0227
  966MOL0     C30317  13.851   4.375  10.276 -0.0882 -0.2876 -0.2431
  966MOL0     C30318  13.950   4.415  10.161  0.0455  0.4106 -1.1178
  966MOL0    Cl30319  14.036   4.572  10.209 -0.3011 -0.1191  0.1274
  966MOL0     C30320  13.085   4.699  10.056 -0.0536 -0.1775  0.4666
  966MOL0     C30321  12.989   4.670   9.950  0.2481 -0.9534 -0.6221
  966MOL0     O30322  12.979   4.414   9.703 -0.2055  0.9553  0.2364
  966MOL0     C30323  12.760   4.621   9.506  0.4331  1.2309  0.6634
  966MOL0     C30324  12.651   4.607   9.417 -0.4316 -0.4186 -0.2498
  966MOL0     N30325  11.916   4.439   9.567  0.2246 -0.3502 -0.1994
  966MOL0     N30326  11.812   4.509   9.543  0.6824  0.4280 -0.1344
  966MOL0     C30327  10.618   4.442   9.560 -0.1115 -0.1314 -0.0441
  966MOL0     C30328  10.483   4.430   9.532  0.1873 -0.2326  0.1187
  966MOL0     C30329  10.057   4.315   9.621  0.5650 -0.1992  0.2503
  966MOL0     C30330   9.929   4.322   9.687 -0.4718  0.1704  0.1257
  966MOL0     C30331   9.823   4.233   9.664 -0.7874 -0.2008  0.7968
  966MOL0     C30332   9.861   4.116   9.594  0.4102  0.8229 -0.9655
  966MOL0     O30333   9.765   4.023   9.599  0.4202  0.5592 -0.0835
  966MOL0     C30334   9.808   3.889   9.568 -0.3712 -0.4755  0.7005
  966MOL0     C30335   9.697   3.783   9.574 -0.0069 -0.3334 -0.2358
  966MOL0     C30336   9.602   3.810   9.456 -0.3115 -0.3677 -0.8985
  966MOL0     C30337   9.488   3.709   9.458 -0.0874 -0.1031 -0.1348
  966MOL0     C30338   9.530   3.582   9.407  0.3625 -0.2111 -0.1818
  966MOL0     C30339   9.566   3.478   9.358  0.3263 -0.0170 -0.2422
  966MOL0     C30340   9.982   4.110   9.528 -0.3005 -0.1124 -0.2165
  966MOL0     C30341  10.079   4.206   9.539  0.5683  0.0321 -0.7441
  966MOL0     C30342  10.209   4.176   9.475 -0.6900 -0.1307  0.6100
  966MOL0     H30343  10.371   4.455   9.848 -3.2115  1.8858 -2.1234
  966MOL0     H30344  10.595   4.477   9.894  2.0245  2.9290 -0.6650
  966MOL0     H30345  10.878   4.415   9.550 -1.2328  0.0698  0.2179
  966MOL0     H30346  10.944   4.551   9.635 -1.5656 -0.2045  0.8209
  966MOL0     H30347  10.972   4.264   9.745  1.7366 -0.8616  0.4325
  966MOL0     H30348  11.042   4.406   9.798 -0.6747 -0.8690  0.0251
  966MOL0     H30349  11.081   4.332   9.501 -0.5600  1.9007  1.0087
  966MOL0     H30350  11.146   4.226   9.616  0.1784  0.1352  0.0605
  966MOL0     H30351  11.214   4.516   9.630 -0.1987 -0.4451  2.1398
  966MOL0     H30352  11.318   4.376   9.686  0.9082  0.1441 -0.7787
  966MOL0     H30353  11.339   4.297   9.455 -0.1546 -0.3725  0.7441
  966MOL0     H30354  11.272   4.450   9.403 -2.4803  1.5023  2.5752
  966MOL0     H30355  11.477   4.564   9.534  0.6601  1.3893 -0.8577
  966MOL0     H30356  11.534   4.392   9.555 -1.5589 -0.8006  0.5227
  966MOL0     H30357  11.464   4.492   9.283  0.3416 -2.2639 -1.0132
  966MOL0     H30358  11.555   4.353   9.333  0.4382  0.2409  0.4427
  966MOL0     H30359  11.680   4.553   9.237 -0.3953 -1.6108  0.0172
  966MOL0     H30360  11.628   4.641   9.386  1.6801  1.1060  0.4271
  966MOL0     H30361  11.872   4.364   9.255  1.2727 -0.8770  0.1853
  966MOL0     H30362  12.072   4.231   9.535  1.2787  1.3959  1.4385
  966MOL0     H30363  12.067   4.240   9.357 -0.0958 -1.5294  1.5193
  966MOL0     H30364  12.216   4.424   9.546 -0.7533 -1.0105  0.8458
  966MOL0     H30365  12.292   4.300   9.445 -1.7560 -0.7241 -0.4420
  966MOL0     H30366  12.141   4.547   9.347 -0.2603  0.9218  0.1820
  966MOL0     H30367  12.219   4.430   9.235  1.5474  0.5458 -0.1617
  966MOL0     H30368  12.344   4.587   9.455 -2.6596 -0.3280  0.1082
  966MOL0     H30369  12.369   4.624   9.288  0.0579 -1.4940 -1.7386
  966MOL0     H30370  12.591   4.269   9.455 -0.5044 -0.8363  2.8308
  966MOL0     H30371  12.801   4.297   9.587  0.4739  0.4864 -0.2773
  966MOL0     H30372  13.193   4.623   9.688 -1.2900 -0.0670 -0.0684
  966MOL0     H30373  13.366   4.634   9.883 -0.0005  1.7023  0.4504
  966MOL0     H30374  13.232   4.828  10.248  1.0699  0.8501  0.0866
  966MOL0     H30375  13.211   4.659  10.288 -0.7485  0.9146 -1.4324
  966MOL0     H30376  13.471   4.801  10.323  1.8209 -1.1709 -1.7895
  966MOL0     H30377  13.355   4.750  10.451  1.2764 -0.3011  0.3165
  966MOL0     H30378  13.388   4.515  10.356 -1.3819  1.6416  2.5462
  966MOL0     H30379  13.505   4.590  10.240  1.2722  2.6467  0.7240
  966MOL0     H30380  13.525   4.574  10.548 -0.6884  0.7594  0.0308
  966MOL0     H30381  13.637   4.664  10.450  0.5920 -0.7419 -0.4617
  966MOL0     H30382  13.583   4.368  10.393  0.3475 -0.8411  1.8040
  966MOL0     H30383  13.714   4.417  10.512  3.8880 -2.1981 -2.4344
  966MOL0     H30384  13.698   4.494  10.222 -0.7084 -0.2787  0.3498
  966MOL0     H30385  13.816   4.572  10.335  3.2790 -1.3393  0.0375
  966MOL0     H30386  13.785   4.294  10.243  1.3126 -0.7117 -2.1842
  966MOL0     H30387  13.910   4.326  10.355 -1.8843 -0.2665  1.1691
  966MOL0     H30388  14.006   4.326  10.134 -0.4585 -0.0779 -0.5854
  966MOL0     H30389  13.891   4.434  10.071  1.1418 -0.8676 -2.1461
  966MOL0     H30390  13.045   4.738  10.150 -2.9926 -0.8454 -0.3853
  966MOL0     H30391  12.885   4.654   9.973 -0.2569  2.0926 -0.2903
  966MOL0     H30392  12.791   4.723   9.524 -0.4014  2.3776 -3.3636
  966MOL0     H30393  12.610   4.693   9.365  3.6836  0.4457 -2.4427
  966MOL0     H30394  10.684   4.436   9.473  2.3971 -2.5021  1.8552
  966MOL0     H30395  10.447   4.410   9.432  2.2396 -2.3496 -0.2861
  966MOL0     H30396   9.893   4.402   9.751 -2.6653  1.2396 -2.2987
  966MOL0     H30397   9.724   4.254   9.701 -0.2885  2.8442  0.7276
  966MOL0     H30398   9.879   3.874   9.650 -0.1929  2.2210  1.1307
  966MOL0     H30399   9.849   3.895   9.466 -2.9141  0.4401 -0.3442
  966MOL0     H30400   9.634   3.807   9.660  0.2436 -0.1109 -0.1136
  966MOL0     H30401   9.739   3.682   9.569  2.0419  0.3733  1.4248
  966MOL0     H30402   9.655   3.805   9.361 -1.1536  1.2449 -1.5109
  966MOL0     H30403   9.551   3.907   9.470 -4.4875 -2.5106  0.6681
  966MOL0     H30404   9.453   3.694   9.560  4.2257 -1.6337  1.3364
  966MOL0     H30405   9.410   3.748   9.391  1.2560 -0.1679 -1.8016
  966MOL0     H30406   9.600   3.388   9.312  1.9141  1.4758 -2.2018
  966MOL0     H30407  10.016   4.020   9.478  0.4602 -0.2426  0.5149
  966MOL0     H30408  10.216   4.229   9.380  2.0584 -0.5482  0.5226
  966MOL0     H30409  10.289   4.208   9.543 -0.6673  1.1012  0.0416
  966MOL0     H30410  10.215   4.071   9.448 -1.4076 -0.1166  0.3811
  967MOL0     O30411   3.078   8.527   0.994  0.0416 -0.8693 -0.4311
  967MOL0     C30412   3.014   8.452   1.063  0.4058  0.7052 -0.2135
  967MOL0     O30413   3.066   8.360   1.149 -0.2803 -0.2321 -1.0348
  967MOL0     C30414   3.205   8.343   1.142  1.0428 -0.6504  0.1578
  967MOL0     C30415   3.288   8.390   1.247  0.0863  0.8118  0.1250
  967MOL0     C30416   3.427   8.371   1.240 -0.4223  0.5167  0.1831
  967MOL0     C30417   3.478   8.298   1.135  0.2519 -0.1316  1.3107
  967MOL0     O30418   3.606   8.257   1.141  0.3171  0.2536  0.2316
  967MOL0     C30419   3.682   8.227   1.026 -0.9981 -0.5105  0.7042
  967MOL0     C30420   3.830   8.262   1.031 -0.5295  0.2856 -0.0002
  967MOL0     C30421   3.924   8.171   1.107  0.2269  0.0234 -0.3545
  967MOL0     C30422   4.055   8.246   1.129  0.5340  0.7431  0.6605
  967MOL0     C30423   4.172   8.157   1.187  1.2789  0.0176 -0.0699
  967MOL0     C30424   4.300   8.242   1.204  0.0595 -0.3290 -0.4901
  967MOL0     C30425   4.433   8.166   1.209  0.3074  0.2128 -0.1106
  967MOL0     C30426   4.444   8.053   1.310 -0.1077 -0.2706  0.8932
  967MOL0     N30427   4.588   8.006   1.318 -0.1140  0.0268  0.0024
  967MOL0     C30428   4.688   8.061   1.397  0.2166 -0.1088  0.9213
  967MOL0     C30429   4.796   7.982   1.387  0.2299 -0.6167  0.9536
  967MOL0     C30430   4.916   7.981   1.477  0.1858  0.0446 -0.5638
  967MOL0     C30431   5.009   8.108   1.450 -0.4907 -0.9897 -0.2034
  967MOL0     C30432   5.140   8.097   1.537 -0.0849  0.9501  0.6795
  967MOL0     C30433   5.245   7.988   1.483  0.0502  0.5630  1.6472
  967MOL0     O30434   5.330   7.936   1.582  0.8558  0.6068 -0.3757
  967MOL0     C30435   5.464   7.935   1.559 -0.4207 -0.3442  0.4600
  967MOL0     C30436   5.534   8.036   1.491 -0.1000 -0.4636  0.5954
  967MOL0     C30437   5.674   8.023   1.459  0.1465 -0.2052  0.3484
  967MOL0     C30438   5.752   7.924   1.525 -0.4372 -0.0193 -0.4522
  967MOL0     C30439   5.897   7.919   1.504 -0.6673  1.1066 -0.0525
  967MOL0     O30440   5.955   8.035   1.460  0.2902  0.0455  0.3404
  967MOL0     C30441   6.088   8.023   1.433 -1.0470  0.0718 -0.4237
  967MOL0     C30442   6.199   8.058   1.512  0.5112 -0.1546 -0.1522
  967MOL0     C30443   6.325   8.029   1.474 -0.4496  0.5579 -0.3339
  967MOL0     C30444   6.360   7.988   1.342 -0.5674  0.7175  0.4410
  967MOL0     O30445   6.482   7.954   1.286 -0.0177 -0.6512 -0.8542
  967MOL0     C30446   6.608   7.970   1.349 -0.5864 -0.9329 -0.0044
  967MOL0     C30447   6.634   7.879   1.467 -0.3375  0.6549 -1.2331
  967MOL0     C30448   6.763   7.788   1.449 -0.2839  0.7639 -0.0520
  967MOL0     C30449   6.881   7.851   1.516 -0.2703  0.3632  0.2390
  967MOL0     C30450   6.993   7.749   1.510  0.4647  0.3718  0.1288
  967MOL0     C30451   7.117   7.788   1.594  0.0955 -0.3000 -0.6339
  967MOL0     C30452   7.235   7.694   1.561  0.3269  0.4519 -0.5263
  967MOL0     C30453   7.355   7.699   1.667  0.0983  0.2056  0.3684
  967MOL0    Cl30454   7.323   7.578   1.794  0.0407 -0.0860  0.2077
  967MOL0     C30455   6.249   7.949   1.263 -0.2781  0.5489 -0.1029
  967MOL0     C30456   6.118   7.975   1.304  0.8506  0.2084  0.3511
  967MOL0     O30457   5.957   7.811   1.522 -0.1803 -0.5700 -0.7905
  967MOL0     C30458   5.682   7.840   1.618 -0.7682  0.8722  0.1127
  967MOL0     C30459   5.545   7.841   1.623  0.2392 -0.5154  0.2269
  967MOL0     N30460   4.761   7.879   1.296 -0.1437 -0.2887  0.3058
  967MOL0     N30461   4.641   7.898   1.254  0.3458  0.1197 -0.0228
  967MOL0     C30462   3.393   8.262   1.021 -0.4304 -0.2173  1.1200
  967MOL0     C30463   3.257   8.284   1.028  0.2589 -0.2710 -0.4186
  967MOL0     C30464   2.863   8.487   1.059 -0.6261  0.8037  0.4475
  967MOL0     C30465   2.784   8.427   1.162  0.5771 -1.0714  0.3003
  967MOL0     C30466   2.656   8.469   1.187 -0.1641 -0.2147  0.0058
  967MOL0     C30467   2.596   8.571   1.108  0.1669  1.1264 -0.6429
  967MOL0     O30468   2.477   8.624   1.143 -0.4156  0.3086  0.2011
  967MOL0     C30469   2.453   8.643   1.286 -0.6733  0.3685  0.1844
  967MOL0     C30470   2.368   8.531   1.348  0.4457  0.4341 -0.2994
  967MOL0     C30471   2.219   8.545   1.330 -0.2065 -0.4340 -0.6520
  967MOL0     C30472   2.179   8.534   1.177  0.1666  0.7149  0.4653
  967MOL0     C30473   2.045   8.587   1.166  0.0036 -0.1798 -0.1902
  967MOL0     C30474   1.928   8.613   1.138  0.3309 -0.0205 -0.5316
  967MOL0     C30475   2.670   8.619   1.000 -0.4022  0.5818 -0.1114
  967MOL0     C30476   2.798   8.580   0.973  0.3655  0.8166 -0.1045
  967MOL0     C30477   2.865   8.638   0.843 -0.0519  0.0664 -0.2154
  967MOL0     H30478   3.237   8.436   1.332 -0.9918  0.1520 -0.1551
  967MOL0     H30479   3.492   8.407   1.318 -1.3552 -0.2342  1.3395
  967MOL0     H30480   3.672   8.119   1.009 -0.8322 -0.6219  1.3098
  967MOL0     H30481   3.639   8.285   0.943 -0.8019  0.5814  1.3499
  967MOL0     H30482   3.842   8.365   1.066  2.9602  0.3528 -1.0517
  967MOL0     H30483   3.859   8.257   0.926  1.8096  4.3193  0.2408
  967MOL0     H30484   3.936   8.074   1.058  1.9697  0.1272 -0.2205
  967MOL0     H30485   3.902   8.146   1.211  2.7177  0.2204  0.2947
  967MOL0     H30486   4.088   8.290   1.035 -3.3584  0.1792 -1.2009
  967MOL0     H30487   4.036   8.328   1.200 -0.9878  0.6584  0.3933
  967MOL0     H30488   4.138   8.118   1.284 -0.7458  1.1800 -0.2511
  967MOL0     H30489   4.188   8.083   1.108  0.6181 -1.1084  0.8033
  967MOL0     H30490   4.311   8.315   1.124  0.0099  1.6721  1.2283
  967MOL0     H30491   4.293   8.306   1.293 -0.3338  0.6326 -1.1909
  967MOL0     H30492   4.508   8.238   1.243 -0.4450  0.1519  1.7896
  967MOL0     H30493   4.457   8.132   1.108 -2.7597  0.5064 -1.0324
  967MOL0     H30494   4.403   8.089   1.405  1.6393 -0.4827  1.7572
  967MOL0     H30495   4.385   7.971   1.268  2.3364 -1.4885 -0.3612
  967MOL0     H30496   4.685   8.136   1.476 -1.5030  2.2367 -1.2317
  967MOL0     H30497   4.879   7.977   1.580 -0.0468  0.5120 -0.6243
  967MOL0     H30498   4.961   7.883   1.462 -1.4189 -1.1184  1.5697
  967MOL0     H30499   5.052   8.115   1.350  0.7503  2.1267  0.4432
  967MOL0     H30500   4.956   8.201   1.472  0.2944  0.0096 -2.3178
  967MOL0     H30501   5.110   8.066   1.637 -0.9607 -0.9558 -0.1232
  967MOL0     H30502   5.201   8.187   1.534  0.0039  0.8929  0.7856
  967MOL0     H30503   5.297   8.022   1.393 -1.6020 -3.2459 -1.0300
  967MOL0     H30504   5.190   7.898   1.453 -1.3809  1.3654  1.7599
  967MOL0     H30505   5.478   8.117   1.446  0.4711  0.2327  1.1111
  967MOL0     H30506   5.724   8.089   1.389  2.2270 -0.7239  1.2678
  967MOL0     H30507   6.185   8.104   1.610  0.7114 -1.6555  0.6109
  967MOL0     H30508   6.402   8.051   1.547 -1.1108  1.7846  0.0129
  967MOL0     H30509   6.685   7.960   1.272 -0.1000  0.6743  0.2202
  967MOL0     H30510   6.608   8.074   1.383 -0.1440 -0.8647 -0.2060
  967MOL0     H30511   6.646   7.932   1.562 -0.7782 -1.9954  0.3921
  967MOL0     H30512   6.552   7.808   1.475  1.6395 -1.5464  1.1871
  967MOL0     H30513   6.746   7.690   1.496 -0.9946  1.3617  0.9765
  967MOL0     H30514   6.782   7.755   1.346 -1.1100 -3.2491  0.8840
  967MOL0     H30515   6.876   7.879   1.622  1.8866  0.0545  0.4592
  967MOL0     H30516   6.916   7.940   1.464 -2.0055  1.7344  1.2791
  967MOL0     H30517   7.012   7.747   1.402  0.0269 -0.0629  0.0515
  967MOL0     H30518   6.975   7.642   1.529 -0.5324  0.8233  1.9194
  967MOL0     H30519   7.137   7.894   1.574 -1.2612  0.1547  0.2726
  967MOL0     H30520   7.093   7.778   1.701  3.0527  0.5831  0.2098
  967MOL0     H30521   7.266   7.709   1.457 -4.1458 -2.1810 -2.5139
  967MOL0     H30522   7.204   7.589   1.565  0.5696  0.4007  0.0811
  967MOL0     H30523   7.444   7.655   1.621  1.0328  1.0147  1.3635
  967MOL0     H30524   7.373   7.801   1.702 -0.9535  0.1625  1.0799
  967MOL0     H30525   6.256   7.918   1.159 -2.0136 -2.4845  0.5668
  967MOL0     H30526   6.041   7.939   1.236 -0.7922  0.8906  1.7679
  967MOL0     H30527   5.731   7.772   1.687  1.0584  0.7652 -1.2330
  967MOL0     H30528   5.503   7.762   1.684  1.0202 -1.2723 -0.1963
  967MOL0     H30529   3.430   8.194   0.945 -2.3061 -0.7347  0.6084
  967MOL0     H30530   3.187   8.262   0.948  0.2344 -0.7951 -0.2567
  967MOL0     H30531   2.829   8.345   1.217 -0.0780 -2.2172 -0.8222
  967MOL0     H30532   2.604   8.403   1.256 -0.3378  0.1328  0.2051
  967MOL0     H30533   2.408   8.741   1.304  0.3672  0.4131  2.8942
  967MOL0     H30534   2.548   8.658   1.338 -0.4250  1.3982 -0.5185
  967MOL0     H30535   2.391   8.547   1.454  3.3741 -1.4670 -0.5538
  967MOL0     H30536   2.395   8.434   1.306 -1.7967 -0.3690 -0.0275
  967MOL0     H30537   2.201   8.642   1.376  0.0619 -0.2531 -0.9240
  967MOL0     H30538   2.171   8.473   1.396  1.4209 -0.1863  0.8825
  967MOL0     H30539   2.247   8.592   1.113 -0.4700 -3.1285 -4.2105
  967MOL0     H30540   2.178   8.437   1.127 -4.9754  1.5831 -1.6850
  967MOL0     H30541   1.830   8.629   1.098  0.9978 -1.0402 -2.7805
  967MOL0     H30542   2.631   8.692   0.930 -0.4551 -0.1184 -0.8317
  967MOL0     H30543   2.930   8.562   0.799  2.1343  1.3735  0.5500
  967MOL0     H30544   2.779   8.658   0.779 -0.0840  0.2224 -0.1223
  967MOL0     H30545   2.930   8.725   0.857  2.3361 -1.6620  0.0888
  968MOL0     O30546   5.100   6.517   8.254  0.1887 -0.3870 -0.9444
  968MOL0     C30547   5.013   6.538   8.342  0.4411  0.6266 -0.4403
  968MOL0     O30548   5.020   6.620   8.450  0.2405 -0.6208 -0.1876
  968MOL0     C30549   5.130   6.703   8.456  0.6452 -0.8395 -0.0554
  968MOL0     C30550   5.227   6.698   8.554  0.3839  0.4206 -0.5026
  968MOL0     C30551   5.341   6.778   8.554 -0.1901  0.1201 -0.1458
  968MOL0     C30552   5.369   6.875   8.464 -0.1236 -0.5599  0.7487
  968MOL0     O30553   5.483   6.949   8.456  0.5602 -0.5942 -0.6932
  968MOL0     C30554   5.493   7.048   8.557 -1.2682 -0.3290  0.4684
  968MOL0     C30555   5.574   7.169   8.502  0.8331 -1.2651  0.6541
  968MOL0     C30556   5.718   7.129   8.493 -0.7240  0.4557 -0.3743
  968MOL0     C30557   5.764   7.132   8.343 -0.2761  0.2622  0.3559
  968MOL0     C30558   5.916   7.107   8.330 -0.1615  0.2539  0.3070
  968MOL0     C30559   5.972   7.134   8.195 -0.1029  0.4108 -0.3712
  968MOL0     C30560   6.119   7.109   8.192 -0.2229 -0.5967 -0.6073
  968MOL0     C30561   6.171   7.074   8.052  0.5790 -0.7978 -0.7485
  968MOL0     N30562   6.314   7.092   8.048 -0.5313 -0.0703  0.0180
  968MOL0     C30563   6.373   7.218   8.061 -0.9671 -1.3492  0.3394
  968MOL0     C30564   6.504   7.185   8.052 -0.0020 -0.7082  0.0625
  968MOL0     C30565   6.610   7.287   8.026  0.5153 -0.4668  0.3371
  968MOL0     C30566   6.637   7.385   8.131  0.5496  0.7134  0.6474
  968MOL0     C30567   6.766   7.466   8.105  0.0333 -0.1275  0.2787
  968MOL0     C30568   6.899   7.397   8.136 -0.7434  0.3151  0.7243
  968MOL0     O30569   7.012   7.476   8.089 -0.2277 -0.3758  0.1997
  968MOL0     C30570   7.129   7.442   8.144 -0.2088 -0.7020 -0.8700
  968MOL0     C30571   7.219   7.547   8.136 -0.2665 -1.2951 -0.0047
  968MOL0     C30572   7.344   7.525   8.182 -0.1600  0.6523  0.5528
  968MOL0     C30573   7.388   7.403   8.233 -0.3085 -0.0467  0.4231
  968MOL0     C30574   7.531   7.385   8.271  0.6356 -0.2438 -0.0010
  968MOL0     O30575   7.616   7.479   8.219 -0.0608 -0.0861 -0.0709
  968MOL0     C30576   7.740   7.470   8.266 -0.4747  0.7948 -0.1148
  968MOL0     C30577   7.842   7.424   8.180  0.9431  0.3277 -0.2373
  968MOL0     C30578   7.975   7.443   8.211 -0.4430 -0.0885 -0.1108
  968MOL0     C30579   8.008   7.497   8.331  0.3330  0.0154 -0.6237
  968MOL0     O30580   8.137   7.517   8.378  0.4344 -0.0214  0.7737
  968MOL0     C30581   8.230   7.527   8.274 -0.8885  0.0957  0.6403
  968MOL0     C30582   8.362   7.604   8.315  0.0968  0.5908 -0.5196
  968MOL0     C30583   8.333   7.751   8.354  0.5741 -0.1415  0.7706
  968MOL0     C30584   8.467   7.818   8.395  0.9073 -0.1188  0.2291
  968MOL0     C30585   8.558   7.839   8.279 -0.9679  1.3365  0.9484
  968MOL0     C30586   8.684   7.916   8.323  0.4801 -0.3498  0.0895
  968MOL0     C30587   8.649   8.067   8.351 -0.3576  0.6500  0.3949
  968MOL0     C30588   8.773   8.146   8.395  0.0445 -0.1467  0.5233
  968MOL0    Cl30589   8.824   8.106   8.570 -0.1887 -0.3170  0.3686
  968MOL0     C30590   7.907   7.527   8.419 -0.0829  0.0328 -0.3773
  968MOL0     C30591   7.775   7.514   8.388 -0.2105 -1.2069  1.3834
  968MOL0     O30592   7.561   7.291   8.347 -1.1373 -0.0608 -0.0246
  968MOL0     C30593   7.298   7.305   8.254  0.8162  0.4600 -0.3611
  968MOL0     C30594   7.164   7.328   8.219  1.1080  0.1841 -0.7151
  968MOL0     N30595   6.530   7.048   8.032  0.2812  0.2873 -0.2471
  968MOL0     N30596   6.414   6.997   8.037  0.3875  0.1212  0.1330
  968MOL0     C30597   5.263   6.886   8.366 -0.1181 -0.1384  0.1517
  968MOL0     C30598   5.152   6.801   8.359 -0.0412 -1.2571 -0.0963
  968MOL0     C30599   4.900   6.440   8.340  0.2550  0.4245 -0.5061
  968MOL0     C30600   4.850   6.386   8.219 -0.7257  0.5239  0.0152
  968MOL0     C30601   4.742   6.297   8.225 -0.3021 -0.1657 -0.1904
  968MOL0     C30602   4.664   6.280   8.336 -0.8820 -0.1069 -0.2878
  968MOL0     O30603   4.557   6.198   8.329 -0.2146 -0.0182 -0.1291
  968MOL0     C30604   4.438   6.268   8.338 -0.1551  0.0456 -0.4085
  968MOL0     C30605   4.337   6.174   8.397 -0.4319  0.5972  0.4887
  968MOL0     C30606   4.197   6.228   8.382 -0.5118 -0.6712  0.5567
  968MOL0     C30607   4.088   6.142   8.451 -0.2431  0.4407  0.0166
  968MOL0     C30608   3.955   6.206   8.462  0.4012  0.2521  0.1135
  968MOL0     C30609   3.858   6.258   8.508  0.0428 -0.2743 -0.2237
  968MOL0     C30610   4.722   6.314   8.456 -0.0769 -0.5848  0.1592
  968MOL0     C30611   4.833   6.405   8.456 -0.5720  1.3041  0.9858
  968MOL0     C30612   4.881   6.439   8.597  0.8985  0.0038 -0.0851
  968MOL0     H30613   5.225   6.624   8.633 -0.0405 -1.2726 -2.0555
  968MOL0     H30614   5.407   6.749   8.635 -1.5926  0.4337  1.1620
  968MOL0     H30615   5.396   7.088   8.590 -0.9051  1.0810 -0.1089
  968MOL0     H30616   5.533   7.014   8.653 -1.6596 -0.8441  0.4538
  968MOL0     H30617   5.551   7.256   8.565 -2.1058 -2.7200  1.7758
  968MOL0     H30618   5.534   7.199   8.404 -2.1093  0.4223  2.2309
  968MOL0     H30619   5.726   7.031   8.542 -1.2940  0.2899 -0.5925
  968MOL0     H30620   5.776   7.203   8.548  0.3825 -1.4456  1.1709
  968MOL0     H30621   5.707   7.061   8.283 -2.8446  2.8891 -0.5748
  968MOL0     H30622   5.738   7.229   8.299  1.6657  0.0176 -1.5044
  968MOL0     H30623   5.975   7.156   8.408  0.2551  0.0071  0.1498
  968MOL0     H30624   5.932   7.000   8.346  1.0614 -0.1008 -2.7608
  968MOL0     H30625   5.921   7.060   8.134  1.8066 -1.3997  0.1292
  968MOL0     H30626   5.948   7.238   8.168  0.2909  1.7396  3.7089
  968MOL0     H30627   6.126   7.020   8.256 -0.3786 -0.1529  0.0403
  968MOL0     H30628   6.165   7.197   8.236 -0.7689 -0.8766  0.5857
  968MOL0     H30629   6.147   6.971   8.025 -2.5776 -0.0043 -1.3024
  968MOL0     H30630   6.123   7.144   7.982  1.9578  2.1494  1.0363
  968MOL0     H30631   6.330   7.317   8.073  0.4273 -0.9598  3.2320
  968MOL0     H30632   6.694   7.219   8.008  0.3460 -0.9928  1.4676
  968MOL0     H30633   6.588   7.342   7.934  1.2758  2.5615  1.8267
  968MOL0     H30634   6.548   7.447   8.131  0.0926  0.0684  0.4094
  968MOL0     H30635   6.648   7.337   8.229  1.6472  0.2164  0.2960
  968MOL0     H30636   6.763   7.557   8.166 -0.3289 -0.2682  0.4695
  968MOL0     H30637   6.769   7.495   7.999  2.4861 -0.2444  0.2558
  968MOL0     H30638   6.898   7.303   8.079  0.3571  0.9536 -0.3979
  968MOL0     H30639   6.890   7.391   8.245  1.4745  0.3521  0.9607
  968MOL0     H30640   7.210   7.643   8.085  1.6129 -0.4147  1.1969
  968MOL0     H30641   7.410   7.610   8.165  0.3409  0.1731  0.0587
  968MOL0     H30642   7.808   7.364   8.097 -2.2447  1.7408 -0.1123
  968MOL0     H30643   8.044   7.400   8.139  0.5100  2.0486 -0.5374
  968MOL0     H30644   8.258   7.431   8.230 -1.2157  0.7414 -1.0537
  968MOL0     H30645   8.182   7.588   8.197 -0.4894 -1.1338 -0.6151
  968MOL0     H30646   8.419   7.550   8.391  0.8721  0.8795 -0.8845
  968MOL0     H30647   8.420   7.606   8.223 -0.5776 -0.6083 -0.9897
  968MOL0     H30648   8.300   7.810   8.268  1.1091  0.6259  1.0854
  968MOL0     H30649   8.260   7.763   8.434 -2.5811  3.5702 -2.2544
  968MOL0     H30650   8.516   7.758   8.473  1.2446 -1.0845 -0.7070
  968MOL0     H30651   8.436   7.915   8.436 -0.7267 -0.4561 -0.1422
  968MOL0     H30652   8.508   7.896   8.200  4.1939  3.8728 -0.9759
  968MOL0     H30653   8.580   7.738   8.242 -2.3708  0.5256  2.2236
  968MOL0     H30654   8.721   7.865   8.413  0.9500  0.8822  0.6229
  968MOL0     H30655   8.756   7.892   8.244 -0.6240  0.2534 -1.1204
  968MOL0     H30656   8.568   8.086   8.422 -1.2589  2.2328 -1.0114
  968MOL0     H30657   8.615   8.109   8.256 -3.6425  2.0410  2.0178
  968MOL0     H30658   8.856   8.136   8.324 -0.2703  1.1920 -0.0595
  968MOL0     H30659   8.756   8.254   8.391 -0.4177 -0.2255 -2.5863
  968MOL0     H30660   7.939   7.561   8.517  2.8466 -1.1298 -0.8020
  968MOL0     H30661   7.694   7.545   8.454 -0.3650  2.7885 -0.3827
  968MOL0     H30662   7.324   7.208   8.296  0.8525  0.6563  0.0794
  968MOL0     H30663   7.082   7.260   8.241  0.7572  0.9449  0.4403
  968MOL0     H30664   5.282   6.947   8.278  3.0328 -3.4851 -1.7745
  968MOL0     H30665   5.087   6.817   8.273 -0.3757 -2.3786 -0.0739
  968MOL0     H30666   4.908   6.405   8.130 -2.0037  0.5125 -0.8467
  968MOL0     H30667   4.711   6.256   8.129 -1.0814 -0.8211  0.3291
  968MOL0     H30668   4.391   6.302   8.246 -0.1274  3.3829  0.6692
  968MOL0     H30669   4.442   6.343   8.418  0.8205 -1.4770  1.0430
  968MOL0     H30670   4.356   6.162   8.504 -2.8220 -1.6727  0.7750
  968MOL0     H30671   4.341   6.076   8.347  0.4601  1.4487 -1.1967
  968MOL0     H30672   4.168   6.230   8.276  2.4888 -3.0727 -0.4506
  968MOL0     H30673   4.186   6.333   8.412 -2.0564 -0.2669 -1.1852
  968MOL0     H30674   4.078   6.053   8.388 -0.0755 -0.0887  0.7258
  968MOL0     H30675   4.121   6.116   8.552 -2.8201 -0.5544  0.6904
  968MOL0     H30676   3.772   6.314   8.541 -0.1870 -1.6525  1.6985
  968MOL0     H30677   4.660   6.280   8.539  1.2722 -3.5458  0.0784
  968MOL0     H30678   4.988   6.447   8.614  0.5965  0.6471  1.7439
  968MOL0     H30679   4.835   6.536   8.615  1.5160  0.7951 -2.4474
  968MOL0     H30680   4.832   6.367   8.664 -2.8326  0.4759 -2.0339
  969MOL0     O30681   3.414   5.876   6.564 -0.1454  0.4945 -0.9379
  969MOL0     C30682   3.380   5.767   6.527  0.1572 -0.7142 -0.4389
  969MOL0     O30683   3.451   5.653   6.534 -0.1502 -0.4434 -1.0199
  969MOL0     C30684   3.589   5.634   6.554  0.0196  0.1083 -0.0372
  969MOL0     C30685   3.626   5.503   6.592  0.0790 -0.3941 -0.2739
  969MOL0     C30686   3.758   5.464   6.612 -0.1717  0.8361 -0.4123
  969MOL0     C30687   3.853   5.566   6.612 -0.3320 -0.3290 -0.2429
  969MOL0     O30688   3.987   5.539   6.635  0.0413  0.5025  0.8138
  969MOL0     C30689   4.011   5.448   6.743 -0.5503  0.2055 -0.3035
  969MOL0     C30690   4.158   5.463   6.787 -0.0208 -0.4917 -0.3435
  969MOL0     C30691   4.183   5.431   6.931  0.2857  0.1320 -0.1934
  969MOL0     C30692   4.333   5.462   6.942 -0.4297 -0.4944 -0.6433
  969MOL0     C30693   4.384   5.380   7.067 -0.4500 -0.7528 -0.6211
  969MOL0     C30694   4.532   5.405   7.086  0.0183  0.0166  0.9428
  969MOL0     C30695   4.596   5.316   7.202  0.9958 -0.2093  0.4783
  969MOL0     C30696   4.745   5.341   7.211  0.2096 -0.3000 -0.3291
  969MOL0     N30697   4.795   5.277   7.332  0.2602 -0.0014 -0.1155
  969MOL0     C30698   4.928   5.238   7.353  0.5548 -0.1857 -0.2963
  969MOL0     C30699   4.930   5.208   7.494 -1.0907 -0.4671  0.0365
  969MOL0     C30700   5.048   5.144   7.559 -0.3999 -0.6713 -0.5855
  969MOL0     C30701   5.166   5.250   7.553 -0.6098 -0.1414 -0.4168
  969MOL0     C30702   5.233   5.263   7.692  0.5724  0.3054  0.6252
  969MOL0     C30703   5.366   5.343   7.690 -1.2129  0.3488  0.0619
  969MOL0     O30704   5.444   5.296   7.803  1.2756  0.1145 -0.0282
  969MOL0     C30705   5.555   5.375   7.828  0.6101  0.6008 -0.2653
  969MOL0     C30706   5.598   5.490   7.752 -0.6623  0.3546  0.2099
  969MOL0     C30707   5.713   5.561   7.794 -0.4370  0.8879  0.9547
  969MOL0     C30708   5.790   5.522   7.895 -0.2876 -0.3520 -0.1065
  969MOL0     C30709   5.892   5.613   7.960 -0.7372  0.0880 -0.8086
  969MOL0     O30710   5.925   5.725   7.884  0.5161  0.6861  0.1624
  969MOL0     C30711   6.040   5.794   7.905  0.8904 -0.0430 -0.1882
  969MOL0     C30712   6.165   5.734   7.907  0.0977  0.3054 -0.2998
  969MOL0     C30713   6.278   5.811   7.927 -0.0104  0.3418 -0.0998
  969MOL0     C30714   6.275   5.953   7.936  0.1142 -0.1144 -0.1605
  969MOL0     O30715   6.397   6.015   7.954 -0.6981 -0.2993 -0.1994
  969MOL0     C30716   6.404   6.156   7.934 -0.6101 -0.0025  0.1189
  969MOL0     C30717   6.553   6.185   7.924 -0.6329 -0.6837  0.3989
  969MOL0     C30718   6.640   6.178   8.053  0.7066  0.1280 -0.6828
  969MOL0     C30719   6.597   6.252   8.179 -0.0312 -0.6808  0.4920
  969MOL0     C30720   6.702   6.241   8.297  1.3364  0.2529 -0.5435
  969MOL0     C30721   6.732   6.100   8.344  1.2433  1.0203  0.0551
  969MOL0     C30722   6.842   6.094   8.442 -0.2244 -0.5304  0.2619
  969MOL0     C30723   6.869   5.957   8.491 -0.1431 -0.0927  0.6178
  969MOL0    Cl30724   7.019   5.973   8.580  0.4057  0.1035 -0.0204
  969MOL0     C30725   6.144   6.017   7.920  1.0241  0.4122  0.0110
  969MOL0     C30726   6.032   5.937   7.901  0.0157 -0.0726 -0.9106
  969MOL0     O30727   5.942   5.580   8.067 -1.1000  0.3224 -0.3555
  969MOL0     C30728   5.765   5.403   7.962  0.0389  0.4844  0.3271
  969MOL0     C30729   5.642   5.327   7.929 -0.1846 -0.2690  0.5827
  969MOL0     N30730   4.804   5.215   7.546  0.3141 -0.0856 -0.4572
  969MOL0     N30731   4.720   5.248   7.452 -0.6231  0.4643  0.3959
  969MOL0     C30732   3.822   5.698   6.574 -0.7021  0.2086  0.0995
  969MOL0     C30733   3.688   5.734   6.539 -0.4227  0.9614 -0.4059
  969MOL0     C30734   3.250   5.766   6.449 -0.1234 -0.8367 -0.1172
  969MOL0     C30735   3.203   5.879   6.383 -0.8970  0.5214 -0.2711
  969MOL0     C30736   3.092   5.884   6.296 -0.0595 -0.3124 -0.7812
  969MOL0     C30737   3.025   5.764   6.282 -0.1439 -0.5448 -0.1100
  969MOL0     O30738   2.913   5.742   6.210  0.8109 -0.5197 -0.2901
  969MOL0     C30739   2.837   5.854   6.153 -0.7269 -0.1440 -0.2947
  969MOL0     C30740   2.733   5.803   6.051 -0.0575  0.0367 -0.4400
  969MOL0     C30741   2.673   5.915   5.969  0.2044 -0.5944  0.7565
  969MOL0     C30742   2.603   6.019   6.048 -0.2665  0.0961  0.0909
  969MOL0     C30743   2.552   6.118   5.954 -0.6579 -0.6391  0.3091
  969MOL0     C30744   2.499   6.200   5.876 -0.4311 -0.0488 -0.0170
  969MOL0     C30745   3.061   5.650   6.357 -0.6924  0.5881  0.6931
  969MOL0     C30746   3.175   5.649   6.441 -0.1704  0.1096  0.2781
  969MOL0     C30747   3.205   5.521   6.525  0.2295  0.0893  0.5634
  969MOL0     H30748   3.553   5.423   6.600 -0.1013 -0.3503 -1.3233
  969MOL0     H30749   3.788   5.361   6.627  3.2575  1.7866  0.1915
  969MOL0     H30750   3.944   5.473   6.826  2.0285 -1.7450  2.5499
  969MOL0     H30751   3.994   5.347   6.706 -1.1799  0.4378 -0.6691
  969MOL0     H30752   4.185   5.568   6.780 -2.0342  0.0411 -0.7383
  969MOL0     H30753   4.223   5.404   6.722 -0.9430  0.6560 -2.3722
  969MOL0     H30754   4.163   5.326   6.954 -0.1247  0.5994  1.7352
  969MOL0     H30755   4.128   5.503   6.992 -0.1589  0.3226 -0.7988
  969MOL0     H30756   4.388   5.430   6.853  3.4803 -0.3111  1.4611
  969MOL0     H30757   4.351   5.567   6.966  3.9097 -0.8922 -1.3318
  969MOL0     H30758   4.333   5.411   7.159  1.8596 -0.6733  0.7009
  969MOL0     H30759   4.365   5.274   7.049 -0.3705 -0.6798 -1.1442
  969MOL0     H30760   4.581   5.390   6.989 -1.9442 -0.1010 -0.0762
  969MOL0     H30761   4.538   5.514   7.098 -1.0370  0.3448 -1.0891
  969MOL0     H30762   4.589   5.208   7.186  5.5129 -0.6857  0.5392
  969MOL0     H30763   4.537   5.342   7.291  2.2180 -0.5559  1.4257
  969MOL0     H30764   4.809   5.325   7.124  1.8919 -3.1870  1.2703
  969MOL0     H30765   4.765   5.446   7.234  0.3669 -0.6702  1.4135
  969MOL0     H30766   5.010   5.228   7.284  0.3809  2.7787 -1.0871
  969MOL0     H30767   5.034   5.124   7.666 -0.7078  1.2720 -0.2279
  969MOL0     H30768   5.084   5.052   7.512  3.6914 -0.1559  1.0593
  969MOL0     H30769   5.241   5.224   7.478  0.0047 -2.0475  0.7832
  969MOL0     H30770   5.130   5.350   7.528 -0.2126 -0.0925 -0.7907
  969MOL0     H30771   5.248   5.160   7.727 -0.1932 -0.6176 -1.6357
  969MOL0     H30772   5.166   5.313   7.763  0.6120  1.6774 -0.2797
  969MOL0     H30773   5.355   5.451   7.702  2.0954  0.7319  0.5813
  969MOL0     H30774   5.432   5.323   7.605  1.6007 -0.4156  2.2550
  969MOL0     H30775   5.547   5.535   7.668 -0.6525  1.0841  0.5855
  969MOL0     H30776   5.751   5.644   7.736 -1.1943 -1.6736 -3.8067
  969MOL0     H30777   6.169   5.627   7.889 -3.4524 -0.3065  1.7497
  969MOL0     H30778   6.378   5.768   7.939 -0.3081 -0.8965 -1.7127
  969MOL0     H30779   6.359   6.175   7.837  1.5267  0.2881 -0.8826
  969MOL0     H30780   6.366   6.227   8.008  1.0511  1.0392  0.0296
  969MOL0     H30781   6.597   6.120   7.848 -1.6887 -0.8583 -0.0793
  969MOL0     H30782   6.559   6.289   7.891 -0.4007 -0.9267 -0.3392
  969MOL0     H30783   6.660   6.072   8.070 -2.8518 -0.7419 -1.2960
  969MOL0     H30784   6.731   6.232   8.023 -1.0027  2.8234 -1.3610
  969MOL0     H30785   6.493   6.222   8.199  0.4182 -1.2777  2.0962
  969MOL0     H30786   6.595   6.359   8.158 -0.2545 -0.3035  2.2729
  969MOL0     H30787   6.660   6.296   8.382  0.5114 -0.6222 -0.3773
  969MOL0     H30788   6.791   6.296   8.265  1.2992 -1.7235 -4.6423
  969MOL0     H30789   6.633   6.077   8.385  1.7393  1.0989  1.3622
  969MOL0     H30790   6.755   6.027   8.266  2.1195  0.9255  0.4005
  969MOL0     H30791   6.819   6.158   8.528 -0.5794 -0.3278  0.0146
  969MOL0     H30792   6.934   6.133   8.397 -1.2923  2.1034  0.2299
  969MOL0     H30793   6.785   5.926   8.554 -1.5371 -1.7447 -1.8824
  969MOL0     H30794   6.869   5.889   8.406  0.9702 -0.2501  0.7263
  969MOL0     H30795   6.143   6.125   7.917 -0.4293  0.4030 -0.6820
  969MOL0     H30796   5.941   5.994   7.885 -1.1016 -0.8709  2.0151
  969MOL0     H30797   5.821   5.370   8.049 -1.1641  0.5483  1.1330
  969MOL0     H30798   5.623   5.230   7.973 -2.5271  0.4453  1.2872
  969MOL0     H30799   3.891   5.782   6.568  1.9913 -1.9397 -1.7998
  969MOL0     H30800   3.666   5.840   6.523  1.6311  1.3285 -1.0961
  969MOL0     H30801   3.244   5.978   6.401  1.0509  0.4198 -3.4826
  969MOL0     H30802   3.066   5.979   6.249  0.6311  0.2484 -0.0627
  969MOL0     H30803   2.902   5.931   6.110 -0.2360 -1.6008 -2.2704
  969MOL0     H30804   2.768   5.900   6.225 -2.9167 -1.1714 -1.6281
  969MOL0     H30805   2.649   5.745   6.090  1.8834 -1.7652  1.2677
  969MOL0     H30806   2.781   5.729   5.988 -0.5221 -1.2567  0.6746
  969MOL0     H30807   2.597   5.880   5.899 -3.4969  0.3333  3.9702
  969MOL0     H30808   2.753   5.968   5.917 -1.2695  1.1392  0.1535
  969MOL0     H30809   2.523   5.973   6.106  1.8380 -0.3249  2.8598
  969MOL0     H30810   2.669   6.065   6.121  1.0907 -1.1438 -0.2943
  969MOL0     H30811   2.470   6.275   5.805  2.1838  1.0802  0.0093
  969MOL0     H30812   3.005   5.559   6.335 -1.1903  1.2236 -0.7762
  969MOL0     H30813   3.114   5.468   6.555  0.1501  0.6765  1.3889
  969MOL0     H30814   3.268   5.448   6.473 -2.7450 -1.9239 -0.4366
  969MOL0     H30815   3.261   5.537   6.618  0.2496 -2.3972  1.0483
  970MOL0     O30816   5.320   2.441   2.780  0.5960 -0.1309  0.6198
  970MOL0     C30817   5.221   2.470   2.847  0.1710 -0.0494 -0.0523
  970MOL0     O30818   5.218   2.500   2.978  0.1047  0.7887 -0.1524
  970MOL0     C30819   5.331   2.526   3.053 -0.3124 -0.4188  0.6914
  970MOL0     C30820   5.467   2.510   3.019  0.6099  1.1049 -0.5224
  970MOL0     C30821   5.572   2.538   3.105 -1.1604  0.6591 -0.0406
  970MOL0     C30822   5.549   2.597   3.224 -0.7464 -0.6873  0.4935
  970MOL0     O30823   5.654   2.642   3.304  0.0682  0.4699  0.1177
  970MOL0     C30824   5.703   2.775   3.282 -0.5974 -0.2013  0.2803
  970MOL0     C30825   5.853   2.784   3.268  0.8227  0.1578  0.1328
  970MOL0     C30826   5.919   2.914   3.285 -0.1658 -0.1480  0.4023
  970MOL0     C30827   6.063   2.923   3.252 -0.0176 -0.1313 -0.6824
  970MOL0     C30828   6.116   3.052   3.314 -0.0585  0.4726 -0.0945
  970MOL0     C30829   6.254   3.081   3.254  0.5899 -0.3549 -0.1162
  970MOL0     C30830   6.304   3.222   3.312  0.3640 -0.5646  0.2725
  970MOL0     C30831   6.426   3.263   3.226  0.5277 -0.0736  0.0484
  970MOL0     N30832   6.499   3.375   3.292 -0.0661 -0.0462 -0.2634
  970MOL0     C30833   6.603   3.361   3.384  0.3656 -0.1532  0.3918
  970MOL0     C30834   6.615   3.481   3.450 -0.4527 -0.3478  1.1061
  970MOL0     C30835   6.712   3.512   3.556  0.7294 -0.6321 -0.5386
  970MOL0     C30836   6.852   3.472   3.521  0.3865  0.4560 -0.5826
  970MOL0     C30837   6.944   3.522   3.639  0.1421  0.1472  0.1176
  970MOL0     C30838   7.082   3.543   3.588 -0.1052  0.3811  0.2349
  970MOL0     O30839   7.131   3.640   3.687  0.0861 -0.3299  0.3304
  970MOL0     C30840   7.269   3.657   3.692  0.8475  0.5278 -0.3068
  970MOL0     C30841   7.312   3.733   3.808  0.0277  1.0939  0.6911
  970MOL0     C30842   7.446   3.759   3.823 -0.5370 -1.0591  0.1111
  970MOL0     C30843   7.541   3.736   3.717 -0.0603  0.7368 -0.5194
  970MOL0     C30844   7.682   3.771   3.730 -1.1890  0.6237  0.8379
  970MOL0     O30845   7.776   3.739   3.630  0.1358 -0.3961 -1.0835
  970MOL0     C30846   7.906   3.787   3.658  1.0170  0.0097 -0.0346
  970MOL0     C30847   7.939   3.926   3.668  0.1101  1.1339  0.3724
  970MOL0     C30848   8.073   3.966   3.681 -0.5427 -0.2763 -0.7750
  970MOL0     C30849   8.173   3.871   3.678 -0.7346  1.0068  0.3215
  970MOL0     O30850   8.300   3.922   3.696  0.0452  0.1206 -0.4140
  970MOL0     C30851   8.418   3.843   3.661  0.6192  0.0271 -0.8408
  970MOL0     C30852   8.424   3.820   3.514  0.0428  0.1406 -0.7336
  970MOL0     C30853   8.427   3.947   3.424  0.1206 -0.5232 -0.4134
  970MOL0     C30854   8.447   3.905   3.279 -0.0605  0.2629  0.0461
  970MOL0     C30855   8.597   3.866   3.261  0.4378  0.3658 -0.3572
  970MOL0     C30856   8.628   3.734   3.202  0.7535  0.3093 -0.4334
  970MOL0     C30857   8.540   3.710   3.081  0.8847  0.7445  0.6252
  970MOL0     C30858   8.601   3.608   2.980  0.6151  0.2868  0.6729
  970MOL0    Cl30859   8.756   3.662   2.902  0.0036  0.1671 -0.2692
  970MOL0     C30860   8.139   3.739   3.659 -0.1425  0.2827  0.1451
  970MOL0     C30861   8.010   3.692   3.665 -0.9750 -0.0258 -0.7903
  970MOL0     O30862   7.704   3.837   3.831 -0.9073 -0.0986  0.0754
  970MOL0     C30863   7.495   3.664   3.600  0.5900 -0.7815 -0.5994
  970MOL0     C30864   7.362   3.627   3.595 -0.4632 -0.5139  1.0013
  970MOL0     N30865   6.528   3.572   3.376 -0.3079  0.7101 -0.0330
  970MOL0     N30866   6.472   3.505   3.284  0.0971  0.2546 -0.5399
  970MOL0     C30867   5.417   2.624   3.262  0.7040 -0.4074  0.2450
  970MOL0     C30868   5.309   2.588   3.177 -0.6161  0.0727  0.0477
  970MOL0     C30869   5.079   2.464   2.797  0.2986  0.2344  0.1097
  970MOL0     C30870   4.971   2.441   2.884  0.1849 -1.1215  0.4169
  970MOL0     C30871   4.845   2.428   2.828 -0.8769 -0.0267  0.5583
  970MOL0     C30872   4.811   2.426   2.697  1.1777  0.0375 -0.6287
  970MOL0     O30873   4.687   2.400   2.646  0.5012  0.9031  0.4422
  970MOL0     C30874   4.589   2.334   2.732  0.2486 -0.0991  0.4731
  970MOL0     C30875   4.479   2.269   2.646 -1.1251 -1.0714 -0.6110
  970MOL0     C30876   4.401   2.162   2.730  0.2767 -0.5018 -0.1842
  970MOL0     C30877   4.288   2.094   2.647  0.2276  0.1613 -0.2897
  970MOL0     C30878   4.206   2.182   2.570  0.2202  0.4908 -0.4658
  970MOL0     C30879   4.131   2.245   2.497 -0.0983  0.0083 -0.1017
  970MOL0     C30880   4.912   2.448   2.609 -0.2419  0.1367  0.3884
  970MOL0     C30881   5.042   2.466   2.654  0.4988 -0.0737  0.9848
  970MOL0     C30882   5.143   2.496   2.541 -0.4709  0.2973  0.0967
  970MOL0     H30883   5.498   2.463   2.926 -0.5572  2.6868 -1.7792
  970MOL0     H30884   5.675   2.514   3.081 -1.7124 -0.8860 -0.9256
  970MOL0     H30885   5.653   2.815   3.193  1.3853  0.5661 -0.5435
  970MOL0     H30886   5.659   2.833   3.364  2.8872  0.1714  2.0841
  970MOL0     H30887   5.880   2.741   3.170 -3.1271  0.1455 -1.1384
  970MOL0     H30888   5.894   2.717   3.345 -2.3062 -0.0509  1.7620
  970MOL0     H30889   5.910   2.937   3.392 -0.7750  4.4524 -0.4076
  970MOL0     H30890   5.855   2.985   3.232 -0.3907 -1.6314 -1.4031
  970MOL0     H30891   6.124   2.836   3.277 -2.0487 -1.1187  1.1539
  970MOL0     H30892   6.068   2.939   3.144 -0.1703 -0.3407 -0.7198
  970MOL0     H30893   6.053   3.139   3.297  1.8660  2.2544  1.3573
  970MOL0     H30894   6.128   3.029   3.421 -0.2849  1.7273  0.2097
  970MOL0     H30895   6.326   3.006   3.289 -1.5686 -2.2660  0.4715
  970MOL0     H30896   6.251   3.082   3.145 -2.7097  2.2314 -0.1481
  970MOL0     H30897   6.347   3.214   3.412  0.6196 -1.6182  0.0896
  970MOL0     H30898   6.226   3.299   3.305  1.0441 -0.0020 -1.7419
  970MOL0     H30899   6.491   3.179   3.201 -0.7688 -0.9083 -0.6223
  970MOL0     H30900   6.400   3.294   3.124  1.8038 -2.4428 -1.0590
  970MOL0     H30901   6.659   3.274   3.417  2.1070  0.0089 -1.9049
  970MOL0     H30902   6.706   3.615   3.592 -0.1122 -1.3677  1.6474
  970MOL0     H30903   6.685   3.454   3.645  1.2515 -0.7707 -0.4657
  970MOL0     H30904   6.863   3.363   3.518 -2.1599  0.1571 -1.3546
  970MOL0     H30905   6.885   3.514   3.426 -1.3232  3.4814  0.0221
  970MOL0     H30906   6.950   3.447   3.718 -2.0750 -1.7811 -1.4101
  970MOL0     H30907   6.909   3.616   3.684 -1.7140 -1.1194  1.4823
  970MOL0     H30908   7.082   3.586   3.488 -4.9935 -1.2041 -0.7146
  970MOL0     H30909   7.135   3.448   3.602 -2.0180 -0.8114 -0.1932
  970MOL0     H30910   7.245   3.759   3.889 -1.8554 -0.1975 -0.3828
  970MOL0     H30911   7.483   3.799   3.916 -1.4688 -1.5798  0.7173
  970MOL0     H30912   7.854   3.994   3.664  0.2034  1.2754  0.7761
  970MOL0     H30913   8.102   4.069   3.695  2.9205 -1.1831 -0.3844
  970MOL0     H30914   8.516   3.877   3.696 -1.2005  0.7186  4.6368
  970MOL0     H30915   8.416   3.748   3.715 -0.0925 -0.9826 -2.5946
  970MOL0     H30916   8.511   3.755   3.495 -0.1481  0.1743 -1.7888
  970MOL0     H30917   8.340   3.753   3.492  1.0020 -1.7935  1.0086
  970MOL0     H30918   8.330   3.995   3.442 -0.0672 -1.5476  1.6370
  970MOL0     H30919   8.509   4.016   3.450 -0.6978  0.4445 -0.3387
  970MOL0     H30920   8.428   3.986   3.207 -0.9302  0.7605  0.8074
  970MOL0     H30921   8.377   3.824   3.255  0.2976  0.6649 -2.6993
  970MOL0     H30922   8.651   3.886   3.354  0.9113  2.9171 -1.0823
  970MOL0     H30923   8.639   3.936   3.188  0.0531  1.7880  0.7370
  970MOL0     H30924   8.735   3.724   3.181  1.0952 -0.6450  1.5629
  970MOL0     H30925   8.607   3.660   3.279 -1.2509 -1.1014 -2.2224
  970MOL0     H30926   8.535   3.806   3.029  2.8911 -0.7097 -2.5701
  970MOL0     H30927   8.439   3.681   3.113  0.3951  2.8356  1.1422
  970MOL0     H30928   8.622   3.516   3.035 -0.3193  1.0706  2.4247
  970MOL0     H30929   8.524   3.594   2.903 -0.4161  2.1223  1.3079
  970MOL0     H30930   8.218   3.664   3.661 -1.2877 -0.9879 -0.3694
  970MOL0     H30931   7.993   3.586   3.680  0.2313  0.1419  2.7122
  970MOL0     H30932   7.554   3.629   3.516 -2.0202  2.2417 -4.0267
  970MOL0     H30933   7.323   3.572   3.510 -0.9541 -1.5539  1.8847
  970MOL0     H30934   5.403   2.682   3.353 -3.7013  1.0910 -1.1108
  970MOL0     H30935   5.212   2.609   3.219  0.0589 -2.5929  3.3261
  970MOL0     H30936   4.992   2.429   2.990 -0.5598  0.9903  0.8452
  970MOL0     H30937   4.769   2.412   2.904 -0.2444 -3.1828  0.7032
  970MOL0     H30938   4.547   2.406   2.803  0.9164 -0.3342  1.1178
  970MOL0     H30939   4.644   2.253   2.780  2.9715  0.8368 -0.8455
  970MOL0     H30940   4.521   2.214   2.561 -0.3412  0.4554 -1.2622
  970MOL0     H30941   4.421   2.347   2.596  1.6783  1.3862 -0.3423
  970MOL0     H30942   4.363   2.196   2.827  0.2934  0.3857 -0.4750
  970MOL0     H30943   4.471   2.080   2.747 -0.8660 -2.0046 -2.2796
  970MOL0     H30944   4.336   2.026   2.576  0.9271  0.9649 -0.5947
  970MOL0     H30945   4.220   2.031   2.706 -0.3891 -1.2378 -2.3954
  970MOL0     H30946   4.081   2.296   2.417 -0.0979 -0.2858 -0.2923
  970MOL0     H30947   4.883   2.436   2.505  1.1444 -2.3897  0.2126
  970MOL0     H30948   5.209   2.409   2.534  2.5454  2.2520  1.8938
  970MOL0     H30949   5.094   2.519   2.446 -1.1816  0.6183  0.5308
  970MOL0     H30950   5.209   2.579   2.567 -0.2992  0.8119 -1.8354
  971MOL0     O30951   7.930   3.178   0.565 -0.7101 -0.4834  0.2634
  971MOL0     C30952   7.862   3.170   0.670  0.7193  1.1419  0.7280
  971MOL0     O30953   7.912   3.153   0.797 -0.3974  0.2280  0.9972
  971MOL0     C30954   8.045   3.124   0.817 -0.1580 -1.0631 -0.1881
  971MOL0     C30955   8.080   3.044   0.932 -0.0150 -0.3192 -0.6094
  971MOL0     C30956   8.210   3.008   0.969 -0.5972 -0.8489  0.6580
  971MOL0     C30957   8.309   3.053   0.888 -0.1665 -1.4997  0.4121
  971MOL0     O30958   8.437   3.036   0.931 -0.3933  0.5377 -0.3759
  971MOL0     C30959   8.543   3.051   0.843 -0.6912 -0.1902  0.6645
  971MOL0     C30960   8.666   2.992   0.909 -0.4353  0.5485 -0.1646
  971MOL0     C30961   8.696   3.032   1.054 -0.7170 -0.1183 -0.1617
  971MOL0     C30962   8.822   2.952   1.101  0.4392  0.4713  0.6430
  971MOL0     C30963   8.907   3.020   1.217  0.1239 -1.1736 -0.2805
  971MOL0     C30964   9.002   2.920   1.291 -0.1468 -0.3833 -0.9336
  971MOL0     C30965   9.096   2.829   1.210  0.1307  0.3288 -0.6417
  971MOL0     C30966   9.199   2.901   1.118  0.5548  0.9638 -0.3438
  971MOL0     N30967   9.295   2.989   1.184  0.1096  0.0379 -0.0103
  971MOL0     C30968   9.407   2.948   1.245 -0.3976 -0.1709 -0.5053
  971MOL0     C30969   9.458   3.064   1.296  0.0558 -0.0932 -0.1707
  971MOL0     C30970   9.586   3.089   1.378 -0.6611  0.3336 -0.1081
  971MOL0     C30971   9.714   3.063   1.293 -0.3569 -0.3714  0.0302
  971MOL0     C30972   9.836   3.148   1.350  0.5020  0.4747 -0.0896
  971MOL0     C30973   9.956   3.114   1.261 -1.0422 -0.0103  0.4562
  971MOL0     O30974  10.053   3.204   1.320  0.7174 -0.1857 -1.1893
  971MOL0     C30975  10.183   3.183   1.290  0.1612  0.0930  0.2424
  971MOL0     C30976  10.229   3.084   1.207 -0.4110 -0.1809 -0.5936
  971MOL0     C30977  10.368   3.073   1.174  0.2708  0.0731  0.3903
  971MOL0     C30978  10.460   3.169   1.222 -0.1237 -0.1831 -0.0882
  971MOL0     C30979  10.600   3.160   1.192 -0.0919  0.7750 -0.5094
  971MOL0     O30980  10.674   3.264   1.221 -0.3223  0.7408 -0.1224
  971MOL0     C30981  10.802   3.245   1.178 -0.5873  0.2317 -0.0444
  971MOL0     C30982  10.885   3.144   1.227 -0.8657 -1.0003 -0.3673
  971MOL0     C30983  11.023   3.140   1.194  0.3729  0.1146 -0.2685
  971MOL0     C30984  11.069   3.235   1.096 -1.1140  0.1986 -0.6774
  971MOL0     O30985  11.201   3.253   1.065  0.2820  0.0124 -0.1489
  971MOL0     C30986  11.287   3.145   1.103  0.4132 -0.5055  0.4510
  971MOL0     C30987  11.431   3.184   1.064 -0.3426 -0.1777 -0.1433
  971MOL0     C30988  11.490   3.304   1.129 -0.5332 -0.5213  0.2017
  971MOL0     C30989  11.631   3.340   1.093 -0.7963  0.3929  0.1285
  971MOL0     C30990  11.665   3.483   1.144  0.2327  0.5948 -0.4850
  971MOL0     C30991  11.654   3.577   1.025  0.1473  0.2576  0.3425
  971MOL0     C30992  11.672   3.726   1.067  0.0001  0.0604  0.7126
  971MOL0     C30993  11.707   3.822   0.949  0.1002 -1.0543 -0.0876
  971MOL0    Cl30994  11.700   3.990   1.025 -0.3415 -0.0818 -0.1455
  971MOL0     C30995  10.979   3.326   1.042 -0.1283  0.1936 -0.5759
  971MOL0     C30996  10.843   3.326   1.081  0.1989 -0.2210  0.1727
  971MOL0     O30997  10.634   3.063   1.130 -0.0229  0.1372  0.4715
  971MOL0     C30998  10.408   3.273   1.306  0.0546  0.5089 -0.4694
  971MOL0     C30999  10.275   3.278   1.345  0.1938  0.0252  0.1248
  971MOL0     N31000   9.370   3.168   1.273  0.6353 -0.3902 -0.6301
  971MOL0     N31001   9.267   3.124   1.205  0.2265  0.2738 -0.5189
  971MOL0     C31002   8.282   3.146   0.788 -0.5338  0.3986  0.1582
  971MOL0     C31003   8.157   3.180   0.746  0.6448 -0.3786 -1.2157
  971MOL0     C31004   7.716   3.180   0.662  0.5366 -0.5148  0.2083
  971MOL0     C31005   7.637   3.135   0.772 -0.0223 -0.1349  0.8473
  971MOL0     C31006   7.494   3.141   0.771 -0.2944 -0.7925  0.9746
  971MOL0     C31007   7.426   3.197   0.664 -0.5593  0.1958 -0.2229
  971MOL0     O31008   7.285   3.201   0.643 -0.4315 -0.0678  0.5832
  971MOL0     C31009   7.214   3.080   0.660 -0.1820 -0.1417  0.5307
  971MOL0     C31010   7.064   3.098   0.618 -0.6489 -0.0975  0.4700
  971MOL0     C31011   7.053   3.125   0.469  0.1149  0.0664  0.5990
  971MOL0     C31012   6.906   3.138   0.430  0.6150  0.1710  0.3033
  971MOL0     C31013   6.831   3.010   0.425 -0.4895 -0.4937  0.3280
  971MOL0     C31014   6.763   2.922   0.455  0.2488  0.5061 -1.1304
  971MOL0     C31015   7.501   3.228   0.556  0.6702 -0.2105 -0.4187
  971MOL0     C31016   7.642   3.233   0.555 -0.1201  1.0936 -1.6108
  971MOL0     C31017   7.702   3.288   0.425  0.2968 -0.0256  0.0557
  971MOL0     H31018   8.002   2.997   0.991  0.1935  0.8564  0.6437
  971MOL0     H31019   8.237   2.943   1.051  1.9066  0.1982  0.7533
  971MOL0     H31020   8.519   2.995   0.752 -1.9656  0.0958  0.8099
  971MOL0     H31021   8.567   3.153   0.813  2.6070 -0.1399  2.9466
  971MOL0     H31022   8.748   3.023   0.843 -1.8451  0.7142 -1.9416
  971MOL0     H31023   8.657   2.883   0.897 -1.7578  0.6576 -0.2815
  971MOL0     H31024   8.604   3.016   1.111 -2.1569  0.8129 -2.0930
  971MOL0     H31025   8.723   3.138   1.066 -0.2906  0.0678 -2.2775
  971MOL0     H31026   8.791   2.853   1.134  0.5400  0.4174  0.5764
  971MOL0     H31027   8.889   2.939   1.015 -0.1214 -0.3456  0.3205
  971MOL0     H31028   8.959   3.105   1.173 -1.3420 -0.5091 -0.7956
  971MOL0     H31029   8.835   3.056   1.291  0.6017 -3.0265  1.1733
  971MOL0     H31030   9.065   2.974   1.363 -0.5190 -0.4881 -0.5237
  971MOL0     H31031   8.937   2.859   1.354 -0.4290 -1.1118 -1.9092
  971MOL0     H31032   9.020   2.777   1.151  0.6708 -0.8220 -0.3509
  971MOL0     H31033   9.143   2.759   1.280 -1.2510  0.0710  0.0735
  971MOL0     H31034   9.253   2.826   1.059  0.2589  0.2603  0.2587
  971MOL0     H31035   9.145   2.963   1.046 -0.5867  1.0533  0.5591
  971MOL0     H31036   9.448   2.850   1.264  3.0280  1.2058 -0.0425
  971MOL0     H31037   9.578   3.187   1.425  0.0459  0.2160  0.2625
  971MOL0     H31038   9.582   3.016   1.460 -0.5609  2.0130  1.4337
  971MOL0     H31039   9.735   2.956   1.286 -0.2168 -0.3499  0.1300
  971MOL0     H31040   9.684   3.094   1.192 -2.5648 -2.1166  0.0712
  971MOL0     H31041   9.856   3.123   1.454  1.9057  0.2905 -0.3869
  971MOL0     H31042   9.822   3.256   1.342  0.7758  0.5078 -0.1139
  971MOL0     H31043   9.941   3.130   1.154  1.5256  1.7470  0.2590
  971MOL0     H31044   9.986   3.010   1.277  1.0069 -0.0210 -2.6555
  971MOL0     H31045  10.164   3.008   1.165 -0.7463  0.2616 -0.8755
  971MOL0     H31046  10.401   2.996   1.105  0.6966  1.6650 -1.2712
  971MOL0     H31047  10.849   3.077   1.305 -0.4966  0.4087  1.0638
  971MOL0     H31048  11.085   3.069   1.248 -1.1427 -2.6809 -2.0015
  971MOL0     H31049  11.291   3.115   1.207  1.2927 -1.1632  0.2373
  971MOL0     H31050  11.250   3.056   1.051  1.1015  0.5277 -1.9939
  971MOL0     H31051  11.505   3.105   1.079 -0.7374 -1.0374 -2.3075
  971MOL0     H31052  11.420   3.208   0.958 -0.0888  3.1230  0.4769
  971MOL0     H31053  11.426   3.391   1.110 -1.9947 -2.0421 -2.5185
  971MOL0     H31054  11.491   3.292   1.237  0.3180 -1.2910  0.1252
  971MOL0     H31055  11.655   3.331   0.986  1.5204  1.9884  0.4431
  971MOL0     H31056  11.693   3.262   1.137  0.5276  0.8353 -0.8595
  971MOL0     H31057  11.758   3.506   1.195  2.8327 -1.2111 -3.9677
  971MOL0     H31058  11.588   3.504   1.219 -0.0140  1.8368 -1.0710
  971MOL0     H31059  11.721   3.546   0.944  0.6409  1.7207  0.1519
  971MOL0     H31060  11.553   3.571   0.984  1.5217 -0.7964 -3.2825
  971MOL0     H31061  11.760   3.728   1.131  0.3344 -2.4398  0.4374
  971MOL0     H31062  11.582   3.751   1.124  0.1308 -1.2826  1.5453
  971MOL0     H31063  11.804   3.801   0.903 -0.1086 -0.0797 -0.9988
  971MOL0     H31064  11.631   3.809   0.871  0.8522 -2.0413 -0.6743
  971MOL0     H31065  11.010   3.414   0.987 -3.0787  1.1766 -0.8109
  971MOL0     H31066  10.767   3.400   1.060 -0.4879  0.0384  3.1097
  971MOL0     H31067  10.473   3.354   1.338  0.7450 -0.2090 -0.0250
  971MOL0     H31068  10.227   3.347   1.413 -0.4947 -1.6624  1.4280
  971MOL0     H31069   8.365   3.187   0.731 -1.2642 -0.9213 -1.9774
  971MOL0     H31070   8.150   3.259   0.672  1.3278  2.9630  1.9934
  971MOL0     H31071   7.679   3.086   0.860 -0.2397  0.3315  1.2188
  971MOL0     H31072   7.447   3.097   0.859  0.5015 -1.8242  0.8987
  971MOL0     H31073   7.215   3.044   0.763 -0.8647 -1.0470  0.2305
  971MOL0     H31074   7.261   3.002   0.599  1.1995 -0.6105  2.1110
  971MOL0     H31075   7.011   3.173   0.678 -2.0519 -1.2285  0.6949
  971MOL0     H31076   7.020   2.999   0.630  1.6731 -1.2182  0.2331
  971MOL0     H31077   7.083   3.039   0.408 -6.9323 -1.1734 -2.0565
  971MOL0     H31078   7.096   3.220   0.436 -2.4969  0.3857 -2.3324
  971MOL0     H31079   6.853   3.212   0.491 -4.1870  0.1554 -3.2792
  971MOL0     H31080   6.896   3.174   0.327 -2.0359 -0.9802  0.0967
  971MOL0     H31081   6.694   2.845   0.483  1.7570 -1.0598 -1.5208
  971MOL0     H31082   7.450   3.250   0.462  1.7646  1.1484 -0.7318
  971MOL0     H31083   7.623   3.328   0.361 -0.6006 -0.6688  0.7350
  971MOL0     H31084   7.769   3.372   0.448 -0.6997  0.2574  2.2501
  971MOL0     H31085   7.755   3.209   0.371 -1.4248 -1.8857  0.9493
  972MOL0     O31086  10.455   7.024   3.008 -0.9333  0.2204 -0.1728
  972MOL0     C31087  10.406   7.023   2.896 -0.1396 -0.1911 -0.3281
  972MOL0     O31088  10.476   7.005   2.782  0.3869  0.0047  0.5599
  972MOL0     C31089  10.608   7.010   2.781  0.4448 -0.7746  0.5000
  972MOL0     C31090  10.682   7.108   2.714 -0.7040 -0.7369 -0.8292
  972MOL0     C31091  10.827   7.092   2.713  1.3971 -0.6199 -0.5335
  972MOL0     C31092  10.902   6.990   2.771 -0.0045 -0.4670  0.5589
  972MOL0     O31093  11.033   6.978   2.740  0.7385 -0.2720  0.2462
  972MOL0     C31094  11.097   6.856   2.734  0.2964  0.0735  0.8339
  972MOL0     C31095  11.182   6.834   2.861  0.3972 -0.2313 -0.3127
  972MOL0     C31096  11.299   6.749   2.826  0.0176 -0.3080  0.1279
  972MOL0     C31097  11.266   6.600   2.781  0.2335 -0.4287 -0.3513
  972MOL0     C31098  11.393   6.522   2.732 -0.3264 -0.7364  1.1422
  972MOL0     C31099  11.372   6.372   2.736 -0.7613 -0.2251  0.0254
  972MOL0     C31100  11.461   6.300   2.638  0.6277  0.4466  0.2307
  972MOL0     C31101  11.399   6.251   2.515  0.5037  0.2069  1.0932
  972MOL0     N31102  11.498   6.185   2.430  0.3685  0.0794 -0.0032
  972MOL0     C31103  11.546   6.060   2.472  0.4820  0.5313 -0.2248
  972MOL0     C31104  11.647   6.034   2.387  1.6693 -0.0267  0.3047
  972MOL0     C31105  11.737   5.913   2.397 -0.6980 -0.3196  0.1301
  972MOL0     C31106  11.702   5.802   2.291  0.1004 -0.0895 -0.0115
  972MOL0     C31107  11.567   5.735   2.324 -0.2632  0.1274  0.4951
  972MOL0     C31108  11.549   5.609   2.229 -0.8462 -0.0004  0.3712
  972MOL0     O31109  11.525   5.640   2.089 -0.1858  0.2330 -0.4990
  972MOL0     C31110  11.401   5.666   2.045  0.3150 -0.3695  0.3449
  972MOL0     C31111  11.285   5.682   2.123  0.1988  0.3242 -0.3092
  972MOL0     C31112  11.163   5.697   2.062 -0.3304 -0.0675 -0.1697
  972MOL0     C31113  11.152   5.697   1.918 -0.0705 -0.9223  0.5648
  972MOL0     C31114  11.020   5.712   1.847 -0.7029 -0.0482  0.4451
  972MOL0     O31115  11.031   5.711   1.709  0.0709  0.6868  0.6538
  972MOL0     C31116  10.912   5.715   1.648 -0.4528  0.5278  0.3567
  972MOL0     C31117  10.796   5.639   1.674  0.4696  0.5211 -0.5021
  972MOL0     C31118  10.680   5.668   1.607  0.2185 -0.2028 -0.1209
  972MOL0     C31119  10.675   5.762   1.497 -0.0815 -0.0647 -0.6617
  972MOL0     O31120  10.566   5.800   1.431  0.4978  0.4277  0.4280
  972MOL0     C31121  10.438   5.794   1.500  0.8127  0.0515  0.6749
  972MOL0     C31122  10.418   5.882   1.619 -0.3382 -0.1798 -0.0305
  972MOL0     C31123  10.274   5.931   1.631  0.1853  0.2025 -0.1964
  972MOL0     C31124  10.211   5.927   1.771  0.3534  0.2701 -0.0332
  972MOL0     C31125  10.069   5.996   1.779  0.3215 -0.0957  0.1943
  972MOL0     C31126   9.951   5.933   1.704 -0.4624  0.7919 -0.2383
  972MOL0     C31127   9.818   5.960   1.776 -0.3209  0.4252 -0.1848
  972MOL0     C31128   9.777   6.102   1.767  0.2981  0.7094  0.0728
  972MOL0    Cl31129   9.633   6.126   1.874 -0.0931 -0.1006 -0.0392
  972MOL0     C31130  10.793   5.837   1.466  0.4178  0.4791 -0.1842
  972MOL0     C31131  10.910   5.805   1.543 -0.4627  1.0000 -0.3902
  972MOL0     O31132  10.921   5.728   1.919  0.0088  0.1647  0.0394
  972MOL0     C31133  11.267   5.698   1.839 -0.6723 -0.2572  0.5309
  972MOL0     C31134  11.387   5.680   1.902 -0.0883  0.9432 -0.5666
  972MOL0     N31135  11.666   6.154   2.308  0.2872  0.3429  0.5293
  972MOL0     N31136  11.570   6.241   2.336  0.0461  0.7000 -0.0206
  972MOL0     C31137  10.828   6.892   2.838 -0.1283 -0.3484 -0.0041
  972MOL0     C31138  10.688   6.905   2.841  0.2020 -0.3822  0.1288
  972MOL0     C31139  10.260   7.040   2.881  0.3735 -0.1752 -0.4578
  972MOL0     C31140  10.212   7.075   2.750 -0.8378 -0.1528 -0.1158
  972MOL0     C31141  10.076   7.093   2.721 -0.7469  1.6364 -0.5538
  972MOL0     C31142   9.982   7.089   2.830  0.4997 -0.6611  0.7460
  972MOL0     O31143   9.846   7.123   2.806 -0.1891  0.1270 -0.1321
  972MOL0     C31144   9.816   7.217   2.706 -0.5719 -0.3500  0.2521
  972MOL0     C31145   9.668   7.252   2.710 -0.1245  0.5211  0.4241
  972MOL0     C31146   9.572   7.170   2.618 -0.8886  0.2179  0.6039
  972MOL0     C31147   9.446   7.249   2.571 -0.3595 -0.0420  0.4022
  972MOL0     C31148   9.397   7.323   2.684  0.6920  0.1233  0.6041
  972MOL0     C31149   9.381   7.377   2.789  0.1815  0.1581  0.8204
  972MOL0     C31150  10.031   7.059   2.956 -0.4905  0.0461  0.7738
  972MOL0     C31151  10.163   7.030   2.983 -0.2199 -0.4989  0.6077
  972MOL0     C31152  10.197   6.982   3.121  0.2142 -0.1162  0.1645
  972MOL0     H31153  10.633   7.188   2.659 -0.3361  0.3055  0.3050
  972MOL0     H31154  10.872   7.171   2.655 -0.8061  1.8863  0.9747
  972MOL0     H31155  11.026   6.775   2.718  0.7613 -0.9300  3.3306
  972MOL0     H31156  11.159   6.846   2.645 -2.0867  0.5568 -0.9768
  972MOL0     H31157  11.109   6.798   2.934 -0.7405  0.2068 -1.1805
  972MOL0     H31158  11.207   6.933   2.900 -0.8680  0.4510 -1.1327
  972MOL0     H31159  11.352   6.730   2.920 -1.4843  2.6249  1.7081
  972MOL0     H31160  11.365   6.802   2.757 -0.4564  1.2010  0.7822
  972MOL0     H31161  11.229   6.548   2.870 -2.9769 -2.3077 -2.5558
  972MOL0     H31162  11.186   6.605   2.706  0.1242 -1.0223 -0.2820
  972MOL0     H31163  11.413   6.555   2.629  0.7106  3.3723  2.4511
  972MOL0     H31164  11.484   6.554   2.783  0.6605  2.6510 -2.2157
  972MOL0     H31165  11.393   6.328   2.834 -0.8438 -2.1488 -0.7669
  972MOL0     H31166  11.265   6.362   2.713 -1.3406  2.7781  0.9803
  972MOL0     H31167  11.487   6.206   2.687 -1.6687  0.9132  2.5758
  972MOL0     H31168  11.557   6.349   2.617  1.0696 -0.0169  1.0986
  972MOL0     H31169  11.307   6.195   2.530  0.7718 -1.5499 -2.5630
  972MOL0     H31170  11.356   6.328   2.450 -0.7157  0.0098  1.6498
  972MOL0     H31171  11.508   5.985   2.541  2.7656 -0.8979 -0.4080
  972MOL0     H31172  11.838   5.948   2.377  0.0823 -2.6723 -0.3951
  972MOL0     H31173  11.749   5.879   2.500 -0.1036  0.2425  0.2497
  972MOL0     H31174  11.687   5.849   2.193 -3.0360 -1.7181 -0.4181
  972MOL0     H31175  11.798   5.749   2.297  2.2512  3.1788 -1.9267
  972MOL0     H31176  11.484   5.806   2.329 -0.2936  0.3259 -1.7755
  972MOL0     H31177  11.559   5.693   2.425 -0.7166  2.4462  1.4855
  972MOL0     H31178  11.465   5.552   2.270 -0.6114 -0.1572  0.6337
  972MOL0     H31179  11.635   5.542   2.227 -2.1126 -1.9170  3.1469
  972MOL0     H31180  11.284   5.672   2.231  0.3553  0.6877 -0.2758
  972MOL0     H31181  11.076   5.707   2.126  0.0318 -0.1515  0.3454
  972MOL0     H31182  10.795   5.552   1.740  0.8890  1.1178  0.3096
  972MOL0     H31183  10.590   5.608   1.618  0.6317 -0.7269  0.4127
  972MOL0     H31184  10.360   5.802   1.424  2.1640  0.5268 -0.6981
  972MOL0     H31185  10.423   5.690   1.532 -1.0887  0.2040  0.4348
  972MOL0     H31186  10.454   5.835   1.711  0.5665 -2.3646 -1.4017
  972MOL0     H31187  10.484   5.969   1.610 -0.2174  0.2774  3.8359
  972MOL0     H31188  10.270   6.032   1.590 -0.1695  0.3219  0.1222
  972MOL0     H31189  10.224   5.865   1.559  1.9773  2.0819 -3.3990
  972MOL0     H31190  10.282   5.982   1.833 -0.1975 -0.8546  1.6459
  972MOL0     H31191  10.204   5.822   1.802 -1.3001 -0.5469 -2.7447
  972MOL0     H31192  10.087   6.096   1.738  1.1802 -0.7744 -1.1655
  972MOL0     H31193  10.034   6.003   1.882 -1.8127 -1.0209 -0.4224
  972MOL0     H31194   9.941   5.983   1.607 -1.9508 -0.3549 -0.7040
  972MOL0     H31195   9.971   5.825   1.703  0.0219  0.6956  4.1248
  972MOL0     H31196   9.826   5.932   1.882  3.4457  0.5633 -0.3144
  972MOL0     H31197   9.739   5.897   1.733 -0.0515  0.3166 -0.5236
  972MOL0     H31198   9.857   6.174   1.786  1.5057 -0.3525 -0.7746
  972MOL0     H31199   9.739   6.128   1.668 -2.4325  2.5750  1.4872
  972MOL0     H31200  10.788   5.905   1.382 -0.3573 -0.0725 -0.6009
  972MOL0     H31201  10.997   5.865   1.516  1.3437 -0.7339  1.2393
  972MOL0     H31202  11.272   5.688   1.731 -0.9087 -0.6121  0.5508
  972MOL0     H31203  11.470   5.658   1.835 -1.5545 -0.8228 -1.9113
  972MOL0     H31204  10.874   6.809   2.890 -3.5584 -2.0371  0.6046
  972MOL0     H31205  10.633   6.834   2.902  1.8013 -1.4913  0.3295
  972MOL0     H31206  10.268   7.099   2.660 -0.8116 -1.6965 -0.5440
  972MOL0     H31207  10.048   7.100   2.617  1.0653 -3.7413 -1.7353
  972MOL0     H31208   9.843   7.181   2.606 -1.9445  1.4848 -0.8456
  972MOL0     H31209   9.869   7.312   2.724  0.2324 -0.9818  1.3745
  972MOL0     H31210   9.659   7.357   2.679 -2.4157  0.5657  1.0213
  972MOL0     H31211   9.632   7.241   2.813  1.5703  3.0153  1.3760
  972MOL0     H31212   9.543   7.078   2.670 -3.2435  0.5180 -0.0468
  972MOL0     H31213   9.625   7.135   2.529  1.2211  2.2512  0.9700
  972MOL0     H31214   9.476   7.323   2.495  0.6190 -1.8062 -1.0063
  972MOL0     H31215   9.379   7.176   2.526 -1.0167  0.6228  0.2789
  972MOL0     H31216   9.377   7.418   2.888 -0.7900 -0.7299  1.1684
  972MOL0     H31217   9.967   7.043   3.042 -0.2846 -0.6286  0.8100
  972MOL0     H31218  10.105   6.976   3.179 -0.4199  0.3871 -0.7765
  972MOL0     H31219  10.249   6.885   3.119 -3.4078 -2.2208 -0.0288
  972MOL0     H31220  10.252   7.057   3.179  2.0687 -0.3885 -1.1549
  973MOL0     O31221   9.819   6.158   1.126  0.1928  0.9057 -0.4300
  973MOL0     C31222   9.861   6.079   1.040 -0.0475 -0.7957  0.8679
  973MOL0     O31223   9.981   6.026   1.033  0.1535 -0.3601 -0.2916
  973MOL0     C31224  10.068   6.076   1.126  0.4318 -0.1341  0.3634
  973MOL0     C31225  10.134   5.996   1.218  0.8147  0.1873 -0.8674
  973MOL0     C31226  10.238   6.051   1.290 -0.1506 -0.0412 -0.5606
  973MOL0     C31227  10.268   6.186   1.292  0.7837 -0.2873 -0.3040
  973MOL0     O31228  10.373   6.237   1.371  0.9241 -0.0034  0.0765
  973MOL0     C31229  10.500   6.217   1.302  0.1146 -0.4313 -1.1209
  973MOL0     C31230  10.605   6.299   1.381 -0.6406 -0.0163 -0.2016
  973MOL0     C31231  10.611   6.226   1.516 -0.2534 -0.3912  0.5531
  973MOL0     C31232  10.705   6.294   1.613 -0.4765 -0.0579  0.2956
  973MOL0     C31233  10.783   6.189   1.704  0.1606 -0.0583  0.2294
  973MOL0     C31234  10.689   6.127   1.806  0.9594  0.3169 -0.4851
  973MOL0     C31235  10.769   6.014   1.891 -0.3435  0.4973  0.8385
  973MOL0     C31236  10.702   5.969   2.014  0.4083  0.5576 -0.1685
  973MOL0     N31237  10.593   5.869   2.001 -0.0974 -0.6497  0.3908
  973MOL0     C31238  10.589   5.754   1.928  0.0741 -0.0965 -0.8065
  973MOL0     C31239  10.467   5.701   1.938  0.4069 -0.1504 -0.6306
  973MOL0     C31240  10.420   5.568   1.878  0.5018 -0.0847 -0.2018
  973MOL0     C31241  10.266   5.565   1.877 -0.7436  0.5173  0.5980
  973MOL0     C31242  10.210   5.417   1.872 -0.1051 -0.3735  0.2754
  973MOL0     C31243  10.058   5.411   1.848 -0.1521  0.0872 -0.2666
  973MOL0     O31244  10.017   5.276   1.834 -0.2520  0.4465  0.8971
  973MOL0     C31245   9.886   5.251   1.823 -0.1835  0.7452  0.4030
  973MOL0     C31246   9.845   5.133   1.765  0.0221 -0.0626  0.5199
  973MOL0     C31247   9.715   5.108   1.733  1.0369 -0.0012 -1.0114
  973MOL0     C31248   9.609   5.191   1.768 -0.1633  0.1702 -0.3677
  973MOL0     C31249   9.471   5.174   1.727 -1.0592 -0.3384  0.2730
  973MOL0     O31250   9.409   5.294   1.681  0.4469  0.7816  0.0962
  973MOL0     C31251   9.270   5.294   1.660  0.5735 -0.3095  0.1987
  973MOL0     C31252   9.167   5.242   1.745 -0.3068 -0.5541  0.1366
  973MOL0     C31253   9.039   5.234   1.703  0.1133 -0.5335 -0.3336
  973MOL0     C31254   8.996   5.286   1.572  0.3939  0.2435  0.1125
  973MOL0     O31255   8.872   5.282   1.522  0.4507  0.3019 -0.2435
  973MOL0     C31256   8.761   5.316   1.603  0.3065  0.3904  1.0725
  973MOL0     C31257   8.645   5.292   1.507  0.6823 -0.5262  0.2387
  973MOL0     C31258   8.636   5.392   1.394  0.3053  0.0784 -0.1043
  973MOL0     C31259   8.496   5.381   1.323  0.1262  0.0766 -0.7969
  973MOL0     C31260   8.519   5.415   1.180 -0.2175  0.1348 -0.3479
  973MOL0     C31261   8.400   5.356   1.097 -0.1747  0.3736 -0.4241
  973MOL0     C31262   8.418   5.403   0.956 -0.4662  0.0605  1.0772
  973MOL0     C31263   8.328   5.329   0.861 -1.1544 -0.0620  0.3425
  973MOL0    Cl31264   8.163   5.333   0.904  0.3636  0.2033 -0.5407
  973MOL0     C31265   9.091   5.339   1.488 -0.9127 -0.4485 -0.0781
  973MOL0     C31266   9.224   5.343   1.535  1.3599 -0.0684  1.4080
  973MOL0     O31267   9.419   5.070   1.752  0.9922  0.5928  0.2724
  973MOL0     C31268   9.650   5.306   1.834  1.1412 -0.0046  0.6534
  973MOL0     C31269   9.780   5.336   1.856 -0.9469 -0.4393 -0.3822
  973MOL0     N31270  10.389   5.791   2.005 -0.7781 -0.3982  0.0581
  973MOL0     N31271  10.465   5.893   2.050 -0.3134 -0.0549  0.4789
  973MOL0     C31272  10.212   6.261   1.191 -0.1437 -0.0539 -0.1371
  973MOL0     C31273  10.110   6.211   1.113  0.2181 -0.4582  0.0646
  973MOL0     C31274   9.765   6.022   0.938 -0.3673  0.0170 -0.0999
  973MOL0     C31275   9.816   5.954   0.832  0.1575  0.5442  0.6101
  973MOL0     C31276   9.733   5.885   0.738  0.7878 -0.2099 -0.3478
  973MOL0     C31277   9.595   5.902   0.735 -0.1839 -0.1025  1.2181
  973MOL0     O31278   9.514   5.842   0.642 -0.5447 -0.3695 -0.2813
  973MOL0     C31279   9.377   5.810   0.675 -0.3002  0.3680 -0.2611
  973MOL0     C31280   9.330   5.689   0.595  0.0282  0.4213 -0.5341
  973MOL0     C31281   9.423   5.577   0.614  0.1683  0.7106 -0.3194
  973MOL0     C31282   9.350   5.442   0.624  0.2285  0.2867  0.2408
  973MOL0     C31283   9.254   5.434   0.511 -0.9481  0.0057 -1.1296
  973MOL0     C31284   9.186   5.434   0.410  0.1914  0.5978  0.1253
  973MOL0     C31285   9.541   5.987   0.831  0.5597  0.1541 -0.0051
  973MOL0     C31286   9.622   6.041   0.938  1.1946 -0.4835  0.3712
  973MOL0     C31287   9.543   6.120   1.040  0.0205  0.8432 -0.0667
  973MOL0     H31288  10.102   5.892   1.217 -1.0750  0.7138 -2.6433
  973MOL0     H31289  10.300   5.993   1.358  0.5307 -0.9769 -1.9400
  973MOL0     H31290  10.525   6.110   1.296 -1.9848 -1.0009 -0.5610
  973MOL0     H31291  10.498   6.260   1.202 -2.7190  1.1991 -0.4806
  973MOL0     H31292  10.589   6.406   1.397  0.8154  0.2884 -0.6743
  973MOL0     H31293  10.706   6.290   1.340 -0.8325  1.1905 -0.9617
  973MOL0     H31294  10.632   6.121   1.493 -0.2872 -0.2813  0.0228
  973MOL0     H31295  10.514   6.224   1.567 -0.4358  4.0920  0.7725
  973MOL0     H31296  10.770   6.358   1.553 -1.5605  0.7112 -0.1085
  973MOL0     H31297  10.653   6.367   1.677  1.0566  1.9810 -0.6738
  973MOL0     H31298  10.828   6.115   1.637 -0.2975 -0.1491  0.0168
  973MOL0     H31299  10.864   6.240   1.756 -0.8091 -0.2413  1.9940
  973MOL0     H31300  10.636   6.197   1.871  2.0353 -0.5552  1.4096
  973MOL0     H31301  10.611   6.070   1.754  0.9685 -1.5123  1.3657
  973MOL0     H31302  10.864   6.062   1.912 -0.1125  0.2119  0.4768
  973MOL0     H31303  10.797   5.927   1.831 -1.1314  1.4479 -1.0083
  973MOL0     H31304  10.779   5.927   2.080 -1.3590  2.3805  3.3349
  973MOL0     H31305  10.665   6.055   2.071  1.7481  0.7208  0.5034
  973MOL0     H31306  10.676   5.708   1.883 -0.6992  1.3492 -4.0973
  973MOL0     H31307  10.471   5.530   1.789 -0.1608  0.6905 -0.9408
  973MOL0     H31308  10.456   5.502   1.957  3.2459  1.4015 -0.0695
  973MOL0     H31309  10.211   5.626   1.949 -0.7837  0.7309  0.3893
  973MOL0     H31310  10.249   5.612   1.780  0.5321  0.3002  0.2422
  973MOL0     H31311  10.230   5.381   1.974  1.8911  1.4225  0.5807
  973MOL0     H31312  10.269   5.355   1.805  1.1889  1.0556  0.0513
  973MOL0     H31313  10.018   5.464   1.761 -2.9925  0.4007  1.1136
  973MOL0     H31314  10.014   5.451   1.940 -0.2607  0.1255 -0.3353
  973MOL0     H31315   9.927   5.067   1.738  0.9895  2.1928 -2.5583
  973MOL0     H31316   9.687   5.018   1.678 -1.9096  0.9478 -1.2524
  973MOL0     H31317   9.194   5.196   1.840 -1.8234  1.6755  1.7503
  973MOL0     H31318   8.968   5.201   1.778 -0.3753  0.0717 -0.5222
  973MOL0     H31319   8.759   5.261   1.698  1.4890 -0.7735  0.4493
  973MOL0     H31320   8.753   5.421   1.632 -1.0715  0.4251  0.6739
  973MOL0     H31321   8.649   5.190   1.469 -0.9975 -0.7572  0.5636
  973MOL0     H31322   8.552   5.292   1.565 -1.3360  0.3709 -2.7639
  973MOL0     H31323   8.645   5.494   1.432  0.0681  0.0722 -0.0277
  973MOL0     H31324   8.721   5.360   1.334  0.4021 -1.6806  0.8718
  973MOL0     H31325   8.427   5.452   1.368  1.1974  1.7365 -1.6661
  973MOL0     H31326   8.456   5.279   1.330  1.6941 -0.4513  2.3750
  973MOL0     H31327   8.612   5.387   1.131 -1.1244 -0.7564 -1.6401
  973MOL0     H31328   8.529   5.524   1.182 -0.6274  0.1952 -1.0811
  973MOL0     H31329   8.395   5.247   1.097 -1.2863  0.4177 -0.7202
  973MOL0     H31330   8.304   5.382   1.142 -0.9782 -5.0835  1.8432
  973MOL0     H31331   8.518   5.378   0.920 -1.0740 -1.7415  0.4960
  973MOL0     H31332   8.405   5.510   0.941 -3.0958 -0.6414 -3.8699
  973MOL0     H31333   8.336   5.374   0.761  1.8898  2.2265  1.4499
  973MOL0     H31334   8.371   5.229   0.857  0.5442  0.6766 -1.6516
  973MOL0     H31335   9.059   5.375   1.391 -1.6014  0.0134  0.3131
  973MOL0     H31336   9.308   5.364   1.469  0.8024 -0.9161  0.4059
  973MOL0     H31337   9.573   5.383   1.841  2.6460  1.7746 -1.3031
  973MOL0     H31338   9.808   5.437   1.882  0.9805 -0.7944 -0.9118
  973MOL0     H31339  10.247   6.364   1.190 -2.0170  0.6791  1.8476
  973MOL0     H31340  10.078   6.279   1.034  4.2498 -0.5877 -1.9504
  973MOL0     H31341   9.923   5.940   0.816 -0.0931 -1.5602  0.4212
  973MOL0     H31342   9.791   5.825   0.668  0.3326  0.3161 -1.1873
  973MOL0     H31343   9.309   5.894   0.658 -0.8518  0.2859  1.3686
  973MOL0     H31344   9.372   5.773   0.778  0.1977  0.8959 -0.0428
  973MOL0     H31345   9.327   5.705   0.487 -0.4660  0.9001 -0.4554
  973MOL0     H31346   9.229   5.669   0.632  1.3156 -1.7866  2.1880
  973MOL0     H31347   9.490   5.591   0.700  1.6846 -1.5135 -1.0479
  973MOL0     H31348   9.496   5.572   0.533  0.2799 -1.9274 -0.1345
  973MOL0     H31349   9.419   5.358   0.626 -0.6580 -0.5016  3.3443
  973MOL0     H31350   9.288   5.444   0.714  0.3345  2.3752  0.3129
  973MOL0     H31351   9.123   5.411   0.327  1.7275 -1.9605 -0.4349
  973MOL0     H31352   9.433   6.002   0.836  0.5091 -0.2879  0.2196
  973MOL0     H31353   9.438   6.127   1.010 -0.9141 -2.9873  1.7783
  973MOL0     H31354   9.533   6.064   1.133  0.7857  0.9075  0.0613
  973MOL0     H31355   9.579   6.221   1.063  0.1606  0.7051  0.3174
  974MOL0     O31356   3.313   0.684   4.205 -0.3588  0.6913  0.4605
  974MOL0     C31357   3.293   0.576   4.254 -0.1352  0.6025  0.6239
  974MOL0     O31358   3.385   0.479   4.268 -0.7897  0.2010  0.1854
  974MOL0     C31359   3.499   0.481   4.197  0.1766 -0.1721  0.5810
  974MOL0     C31360   3.604   0.556   4.243 -0.6278  0.3188 -0.3253
  974MOL0     C31361   3.729   0.553   4.183  0.1198  0.4055  0.5406
  974MOL0     C31362   3.760   0.466   4.074  0.1288  0.4432  0.5344
  974MOL0     O31363   3.877   0.456   4.004  0.2989  0.4347 -0.8046
  974MOL0     C31364   3.988   0.524   4.063  0.1760 -0.1551 -0.4013
  974MOL0     C31365   4.101   0.506   3.957  0.5624  0.4701  0.0219
  974MOL0     C31366   4.222   0.601   3.974 -0.0866 -0.3559 -0.5172
  974MOL0     C31367   4.334   0.568   3.879 -0.7750  0.0959  0.9275
  974MOL0     C31368   4.447   0.680   3.883  0.0582 -0.7211  0.7587
  974MOL0     C31369   4.559   0.637   3.795 -0.7859 -0.3796  1.2692
  974MOL0     C31370   4.673   0.747   3.780 -0.1713  0.0761  0.1264
  974MOL0     C31371   4.784   0.683   3.696 -0.4312 -0.2071  0.2405
  974MOL0     N31372   4.759   0.701   3.555  0.9111  0.2404 -0.4153
  974MOL0     C31373   4.676   0.628   3.477 -0.7044  0.1666  0.0749
  974MOL0     C31374   4.670   0.691   3.362 -0.0019 -0.2019 -0.9222
  974MOL0     C31375   4.582   0.641   3.255 -0.0925 -0.2123  0.3223
  974MOL0     C31376   4.646   0.648   3.110 -0.5086 -0.1064  0.1874
  974MOL0     C31377   4.552   0.608   2.988 -0.4170  0.4021 -0.0207
  974MOL0     C31378   4.628   0.611   2.859  0.0258 -0.8362  0.0998
  974MOL0     O31379   4.720   0.503   2.844  0.2426  0.7915  0.2865
  974MOL0     C31380   4.795   0.490   2.731 -0.0101 -0.0355 -0.4307
  974MOL0     C31381   4.843   0.605   2.660  0.3603  0.0343  0.4145
  974MOL0     C31382   4.962   0.590   2.586  0.3217 -0.2028  0.1870
  974MOL0     C31383   5.038   0.464   2.586  0.6348 -0.4568  1.2622
  974MOL0     C31384   5.174   0.466   2.539 -0.4915  0.4320 -0.1134
  974MOL0     O31385   5.253   0.360   2.581  0.8434  0.5483 -0.8464
  974MOL0     C31386   5.391   0.374   2.580  0.4561 -0.2106 -0.2229
  974MOL0     C31387   5.469   0.399   2.468 -0.1124 -0.2944  0.1651
  974MOL0     C31388   5.611   0.402   2.481 -0.1956 -0.1802 -0.7470
  974MOL0     C31389   5.671   0.374   2.605  0.0521  1.0043 -0.3383
  974MOL0     O31390   5.808   0.382   2.619  0.5424 -0.1708  0.6041
  974MOL0     C31391   5.859   0.412   2.756 -0.0939  0.6325  0.3231
  974MOL0     C31392   5.814   0.538   2.829 -0.0838  0.0066  0.5903
  974MOL0     C31393   5.800   0.675   2.755  0.5522  0.5448 -0.3102
  974MOL0     C31394   5.941   0.733   2.718  0.4633  0.9909 -1.0230
  974MOL0     C31395   5.933   0.872   2.662  0.5462 -0.3052  0.7461
  974MOL0     C31396   6.072   0.935   2.634 -0.2024 -0.2282 -0.1367
  974MOL0     C31397   6.064   1.071   2.565 -0.6173  0.3521 -0.4236
  974MOL0     C31398   6.197   1.115   2.531  0.4993 -1.1357 -0.2275
  974MOL0    Cl31399   6.202   1.285   2.488 -0.0078  0.2973 -0.1251
  974MOL0     C31400   5.584   0.347   2.716 -0.6333 -0.6476 -0.2155
  974MOL0     C31401   5.452   0.351   2.699 -0.3193 -0.2108 -1.0576
  974MOL0     O31402   5.202   0.546   2.455  0.0102 -1.0451  0.1606
  974MOL0     C31403   4.973   0.350   2.634 -0.1136 -0.3440  0.0281
  974MOL0     C31404   4.864   0.372   2.718  0.0384  0.1593 -0.3066
  974MOL0     N31405   4.750   0.808   3.371 -0.1342  0.1143 -0.2341
  974MOL0     N31406   4.800   0.809   3.486  0.3030  0.1317 -0.2335
  974MOL0     C31407   3.646   0.396   4.014  0.3303  0.1047 -0.3725
  974MOL0     C31408   3.518   0.398   4.081 -0.6658  0.5945 -1.0816
  974MOL0     C31409   3.160   0.554   4.306 -0.1119 -0.1934 -1.0167
  974MOL0     C31410   3.124   0.423   4.348  0.0059 -0.4753 -0.0145
  974MOL0     C31411   3.009   0.388   4.404 -0.5663 -0.6563 -0.5217
  974MOL0     C31412   2.909   0.481   4.432 -0.2499  0.4452 -0.2083
  974MOL0     O31413   2.784   0.460   4.494 -0.5205  0.5302 -0.2050
  974MOL0     C31414   2.741   0.322   4.505 -0.2564 -1.0216  0.4214
  974MOL0     C31415   2.622   0.314   4.591 -0.1417  0.4730 -0.4893
  974MOL0     C31416   2.498   0.400   4.533 -2.1267 -0.2637 -0.3630
  974MOL0     C31417   2.419   0.309   4.436  0.0851 -0.2633 -0.5533
  974MOL0     C31418   2.315   0.245   4.520 -1.0161 -0.0678 -0.4728
  974MOL0     C31419   2.234   0.190   4.589  0.3038 -0.3778  0.4807
  974MOL0     C31420   2.939   0.607   4.378 -0.1322  0.4639  0.8686
  974MOL0     C31421   3.052   0.644   4.311 -0.1428 -0.5694 -0.6914
  974MOL0     C31422   3.058   0.791   4.272  0.4094 -0.5455 -0.5101
  974MOL0     H31423   3.578   0.603   4.338 -3.5992 -0.2309 -0.7744
  974MOL0     H31424   3.801   0.630   4.205  1.6831  0.5118 -4.0261
  974MOL0     H31425   3.978   0.630   4.085  0.0974 -0.0431 -0.9821
  974MOL0     H31426   4.014   0.474   4.158 -2.3569 -0.1077  0.3797
  974MOL0     H31427   4.056   0.516   3.858 -2.4593 -3.7454  0.6936
  974MOL0     H31428   4.137   0.403   3.962  1.4721  0.8197  1.0193
  974MOL0     H31429   4.254   0.595   4.078  1.2357  1.5892 -0.7644
  974MOL0     H31430   4.201   0.708   3.958  1.6606 -0.3540 -3.7069
  974MOL0     H31431   4.371   0.471   3.915 -0.2352  1.2062  3.5359
  974MOL0     H31432   4.292   0.561   3.778 -1.9471  0.0538  1.4088
  974MOL0     H31433   4.405   0.779   3.862 -0.0781  0.0023  3.8865
  974MOL0     H31434   4.487   0.691   3.984  2.0967 -0.8647  0.0169
  974MOL0     H31435   4.597   0.549   3.847  1.1450 -1.7085 -2.1044
  974MOL0     H31436   4.511   0.618   3.699 -0.7366  1.4658  0.8352
  974MOL0     H31437   4.703   0.778   3.880 -1.0612 -0.6162  0.6268
  974MOL0     H31438   4.635   0.836   3.728  0.8529  0.2785 -0.2980
  974MOL0     H31439   4.876   0.737   3.722  0.3965 -1.7697  0.6972
  974MOL0     H31440   4.801   0.578   3.719  0.6047 -0.4673 -1.4920
  974MOL0     H31441   4.615   0.543   3.507 -1.9064  0.5241 -1.2301
  974MOL0     H31442   4.553   0.538   3.278  0.6578 -0.2686  1.0988
  974MOL0     H31443   4.486   0.691   3.264 -1.5224 -1.9479 -3.3514
  974MOL0     H31444   4.689   0.747   3.093  0.2268 -0.3362  0.6407
  974MOL0     H31445   4.725   0.572   3.110 -0.4527 -0.1783  3.1572
  974MOL0     H31446   4.459   0.666   2.984  0.2064  1.4834  0.6436
  974MOL0     H31447   4.515   0.506   3.001 -1.0344  0.3844 -1.6635
  974MOL0     H31448   4.678   0.709   2.857 -0.1224 -0.7530 -1.7431
  974MOL0     H31449   4.565   0.613   2.769 -2.5418  2.2123  1.7724
  974MOL0     H31450   4.792   0.701   2.662  1.5649  0.7570 -1.0992
  974MOL0     H31451   5.000   0.680   2.539 -0.4914  0.2183  0.3287
  974MOL0     H31452   5.419   0.407   2.372  1.3570 -0.3616 -0.6523
  974MOL0     H31453   5.668   0.418   2.391 -1.3139 -0.2592 -1.4895
  974MOL0     H31454   5.853   0.322   2.818  3.7062 -1.2010 -1.6135
  974MOL0     H31455   5.967   0.426   2.745  0.0510 -0.5622  0.0501
  974MOL0     H31456   5.718   0.511   2.872 -0.2327 -0.2782  0.0969
  974MOL0     H31457   5.864   0.547   2.925 -2.8417 -0.4327  2.1642
  974MOL0     H31458   5.743   0.653   2.664 -1.1868 -2.6855  1.3550
  974MOL0     H31459   5.740   0.742   2.817 -2.3261 -1.9925 -0.0914
  974MOL0     H31460   5.998   0.659   2.661 -1.2088 -2.3102  1.2207
  974MOL0     H31461   6.000   0.742   2.810 -0.4370 -1.9805 -0.0262
  974MOL0     H31462   5.872   0.943   2.718 -0.7877 -0.6077 -0.2925
  974MOL0     H31463   5.891   0.867   2.561  0.0841 -0.4192  0.9411
  974MOL0     H31464   6.133   0.942   2.724 -1.1094 -1.7117  0.6358
  974MOL0     H31465   6.123   0.870   2.562 -1.7659  0.0342 -1.5565
  974MOL0     H31466   6.014   1.146   2.628  1.2074  1.4561 -0.2157
  974MOL0     H31467   6.013   1.066   2.468  1.5290  0.8273 -1.6565
  974MOL0     H31468   6.258   1.115   2.623 -0.9008  0.4677  0.7628
  974MOL0     H31469   6.240   1.058   2.448 -0.6037  0.3696 -1.9006
  974MOL0     H31470   5.636   0.317   2.807  0.6376 -1.5519 -1.1974
  974MOL0     H31471   5.391   0.337   2.788 -0.4962  1.2282 -0.9324
  974MOL0     H31472   5.023   0.255   2.619 -1.8536 -1.6097  1.6262
  974MOL0     H31473   4.829   0.300   2.791 -2.4120  1.1847 -0.3742
  974MOL0     H31474   3.667   0.329   3.931 -0.5785 -0.1655 -0.3903
  974MOL0     H31475   3.436   0.334   4.053  1.0142 -3.3442  2.0579
  974MOL0     H31476   3.188   0.338   4.326  0.2490  0.2328 -2.3418
  974MOL0     H31477   2.993   0.283   4.426 -5.0601 -0.0382  0.2393
  974MOL0     H31478   2.809   0.253   4.557  0.3256  0.0266  1.0798
  974MOL0     H31479   2.712   0.288   4.405 -1.0081  1.6974 -0.3635
  974MOL0     H31480   2.649   0.351   4.691 -1.5551  1.4931 -0.4564
  974MOL0     H31481   2.600   0.210   4.617  2.9975  0.1454  1.4536
  974MOL0     H31482   2.545   0.485   4.483  1.5790 -1.0504  1.4483
  974MOL0     H31483   2.447   0.440   4.621 -0.7770 -1.9043  1.2320
  974MOL0     H31484   2.377   0.368   4.354 -0.4058 -2.8644 -2.3040
  974MOL0     H31485   2.474   0.232   4.380 -2.0241 -2.1322 -0.1697
  974MOL0     H31486   2.160   0.148   4.654  0.6913 -1.0668  0.4918
  974MOL0     H31487   2.854   0.673   4.393  1.1622  1.7741  2.8302
  974MOL0     H31488   3.151   0.831   4.314  0.2619  0.1342 -0.8167
  974MOL0     H31489   3.068   0.796   4.163  0.4627 -1.7060 -0.5768
  974MOL0     H31490   2.971   0.850   4.301 -0.0266 -2.0756  1.4954
  975MOL0     O31491   6.659   5.351  11.113  0.8122  0.2716 -0.1001
  975MOL0     C31492   6.614   5.464  11.126 -0.6315  0.2750  0.3334
  975MOL0     O31493   6.672   5.559  11.204  0.2687  0.1296 -0.7411
  975MOL0     C31494   6.779   5.523  11.279 -0.3938  0.3609 -0.6746
  975MOL0     C31495   6.775   5.550  11.419 -0.0236 -0.3332  0.2365
  975MOL0     C31496   6.877   5.516  11.496 -0.1900  0.6595 -0.3483
  975MOL0     C31497   6.997   5.454  11.442  0.3932 -0.1200 -0.9476
  975MOL0     O31498   7.110   5.440  11.514  0.2998  0.4791 -0.2965
  975MOL0     C31499   7.109   5.477  11.651  0.2208  0.3033 -0.4249
  975MOL0     C31500   7.239   5.456  11.721 -0.6260  0.3575  0.1965
  975MOL0     C31501   7.240   5.517  11.855 -0.3805 -0.1523  0.1180
  975MOL0     C31502   7.363   5.461  11.940 -0.3849  0.1026  0.0209
  975MOL0     C31503   7.365   5.527  12.081 -0.3123  0.6751  0.3691
  975MOL0     C31504   7.450   5.448  12.184 -0.4300  0.0401  0.1381
  975MOL0     C31505   7.462   5.506  12.322 -0.8306 -0.4245 -0.2416
  975MOL0     C31506   7.546   5.633  12.328  0.5645  0.1536  0.1693
  975MOL0     N31507   7.532   5.695  12.459 -0.2847  0.1302  0.9831
  975MOL0     C31508   7.642   5.730  12.525 -0.3543 -0.2164  1.0603
  975MOL0     C31509   7.598   5.754  12.650  0.1627  0.7718  1.2324
  975MOL0     C31510   7.680   5.796  12.760  0.0402  0.1847  0.1787
  975MOL0     C31511   7.781   5.905  12.733 -0.2330 -0.0316  0.3252
  975MOL0     C31512   7.869   5.932  12.856 -0.0684  0.2649  0.0441
  975MOL0     C31513   7.941   5.813  12.926  0.1077  0.1291  0.7138
  975MOL0     O31514   8.028   5.744  12.837  0.2408  0.1383 -0.3304
  975MOL0     C31515   8.150   5.795  12.815  0.0262 -0.0922  0.7180
  975MOL0     C31516   8.208   5.915  12.871  0.1621 -0.5005  0.3294
  975MOL0     C31517   8.336   5.960  12.832 -0.2362 -0.3045 -0.2144
  975MOL0     C31518   8.409   5.876  12.751 -0.1249  0.5438 -0.9803
  975MOL0     C31519   8.548   5.901  12.721 -0.6721 -0.4937 -0.4037
  975MOL0     O31520   8.634   5.787  12.716 -0.1497  0.6904  0.3410
  975MOL0     C31521   8.768   5.797  12.685 -0.0372 -0.1349  0.3936
  975MOL0     C31522   8.848   5.691  12.722 -0.3375 -0.2072 -0.1672
  975MOL0     C31523   8.982   5.704  12.692  0.3714 -0.2106 -0.0011
  975MOL0     C31524   9.032   5.808  12.609  0.5202  0.3586  0.4216
  975MOL0     O31525   9.160   5.811  12.562 -0.6502  0.0978  0.4359
  975MOL0     C31526   9.191   5.780  12.430  0.2067 -0.1718 -0.4242
  975MOL0     C31527   9.345   5.781  12.408 -0.5601  0.1987 -0.0372
  975MOL0     C31528   9.412   5.673  12.487  0.3978 -0.0709  0.3035
  975MOL0     C31529   9.560   5.677  12.462  0.6425 -0.1811  0.4509
  975MOL0     C31530   9.643   5.564  12.532  0.1686  0.8627  0.7469
  975MOL0     C31531   9.655   5.567  12.685  0.2651  0.5512 -0.1293
  975MOL0     C31532   9.679   5.709  12.741 -0.1745 -0.4241  0.5182
  975MOL0     C31533   9.806   5.778  12.707  0.6975 -0.3519 -0.6052
  975MOL0    Cl31534   9.939   5.670  12.737  0.5387 -0.0981  0.0143
  975MOL0     C31535   8.944   5.908  12.571 -0.7365  0.1764 -0.0192
  975MOL0     C31536   8.812   5.898  12.603 -0.4685  0.3741 -0.2891
  975MOL0     O31537   8.591   6.015  12.734 -0.4108 -0.1089  0.1501
  975MOL0     C31538   8.355   5.761  12.694 -0.0282 -0.1156  0.3022
  975MOL0     C31539   8.227   5.721  12.728 -0.3702 -0.5087  0.4657
  975MOL0     N31540   7.452   5.734  12.659  0.0998  0.1264  0.6289
  975MOL0     N31541   7.423   5.685  12.545  0.4877 -0.2436 -0.2398
  975MOL0     C31542   6.992   5.425  11.307  0.5480  1.1381  0.0311
  975MOL0     C31543   6.892   5.459  11.226 -0.1837 -0.7329 -0.3840
  975MOL0     C31544   6.481   5.493  11.059  0.1338  0.1920  0.3847
  975MOL0     C31545   6.435   5.435  10.936  0.1852 -0.3889 -0.3541
  975MOL0     C31546   6.325   5.475  10.859 -0.3488 -0.2725  0.0741
  975MOL0     C31547   6.245   5.578  10.915 -0.2014  0.6681 -0.5038
  975MOL0     O31548   6.127   5.631  10.862  0.1566 -0.2756  0.1800
  975MOL0     C31549   6.105   5.601  10.722  0.1967  0.7557 -0.0318
  975MOL0     C31550   6.009   5.698  10.665  0.3503 -0.0166  0.4273
  975MOL0     C31551   5.858   5.671  10.693 -0.5661 -0.3816  0.4743
  975MOL0     C31552   5.803   5.541  10.638  0.2189  0.5199 -0.3244
  975MOL0     C31553   5.761   5.534  10.492 -0.1115  1.0341 -0.3067
  975MOL0     C31554   5.736   5.523  10.377 -0.1446  0.5906 -0.7076
  975MOL0     C31555   6.284   5.632  11.033  0.1502 -0.9417 -0.2429
  975MOL0     C31556   6.401   5.604  11.105  0.1355 -0.1321 -0.7900
  975MOL0     C31557   6.420   5.701  11.222 -0.4560  0.1598  0.0687
  975MOL0     H31558   6.689   5.600  11.462  1.0377  0.3021  1.6939
  975MOL0     H31559   6.860   5.528  11.602 -1.0205 -0.2987 -0.3614
  975MOL0     H31560   7.081   5.583  11.649 -1.1806 -0.0675 -1.2100
  975MOL0     H31561   7.042   5.414  11.710  2.5596 -3.1897 -1.1995
  975MOL0     H31562   7.330   5.503  11.683 -0.8906  0.8649  0.1761
  975MOL0     H31563   7.254   5.350  11.742  3.1898  1.2231  2.9971
  975MOL0     H31564   7.152   5.485  11.912 -0.7953 -0.1584 -0.5125
  975MOL0     H31565   7.241   5.626  11.857  0.9485 -0.1378 -0.5844
  975MOL0     H31566   7.349   5.353  11.954 -3.2535  0.3050 -0.5085
  975MOL0     H31567   7.456   5.458  11.883  1.5628 -1.8675  2.9648
  975MOL0     H31568   7.410   5.623  12.054 -1.6288  0.9738 -0.8973
  975MOL0     H31569   7.259   5.545  12.102 -0.7371 -1.1667  0.0317
  975MOL0     H31570   7.424   5.342  12.191  4.1411 -1.3288 -0.2265
  975MOL0     H31571   7.554   5.437  12.152  0.5147  2.5449  1.9402
  975MOL0     H31572   7.506   5.426  12.383  0.0029 -0.4115 -0.8063
  975MOL0     H31573   7.364   5.532  12.363  0.5109  1.2018  2.1192
  975MOL0     H31574   7.650   5.612  12.301  0.2937 -1.6605  0.3842
  975MOL0     H31575   7.505   5.697  12.249  0.5588 -1.0006 -0.7974
  975MOL0     H31576   7.745   5.727  12.491 -0.0566 -0.0722  1.9268
  975MOL0     H31577   7.615   5.836  12.839  0.0179 -1.0809  0.8213
  975MOL0     H31578   7.728   5.707  12.803 -1.7809 -0.6627  0.5723
  975MOL0     H31579   7.850   5.874  12.654  0.4828 -1.8547  1.6104
  975MOL0     H31580   7.728   5.997  12.708  0.1322  0.1346  0.1508
  975MOL0     H31581   7.808   5.972  12.937 -2.9772  1.1678 -2.4086
  975MOL0     H31582   7.952   5.999  12.834 -1.5934  1.6921 -1.6757
  975MOL0     H31583   7.878   5.740  12.977 -0.5524 -0.6924 -1.1983
  975MOL0     H31584   8.011   5.859  12.997  1.9510  1.1642 -1.6259
  975MOL0     H31585   8.150   5.982  12.934  0.8639 -1.1173  1.6653
  975MOL0     H31586   8.382   6.053  12.865  2.1113 -1.5186  0.2070
  975MOL0     H31587   8.806   5.608  12.778  3.5492 -0.3402  3.0625
  975MOL0     H31588   9.059   5.631  12.716  0.0717 -0.7689 -0.7209
  975MOL0     H31589   9.159   5.676  12.413  0.8843 -0.5353  0.4847
  975MOL0     H31590   9.134   5.845  12.363  0.8646 -1.0797 -1.9317
  975MOL0     H31591   9.381   5.758  12.308  3.5563  0.5752  1.1795
  975MOL0     H31592   9.395   5.874  12.436  2.1984 -1.5446  1.2213
  975MOL0     H31593   9.393   5.670  12.595 -0.5940 -0.2604  0.1380
  975MOL0     H31594   9.387   5.574  12.447  3.0156 -1.6497  2.2352
  975MOL0     H31595   9.601   5.775  12.489  0.3997 -0.4002  1.6702
  975MOL0     H31596   9.580   5.665  12.355 -0.4314  0.8319  0.1189
  975MOL0     H31597   9.743   5.570  12.488  0.8111  0.2857  2.0663
  975MOL0     H31598   9.594   5.468  12.516 -0.1923  0.8496  1.8057
  975MOL0     H31599   9.561   5.529  12.726 -1.0665  2.4493 -1.2609
  975MOL0     H31600   9.734   5.502  12.723 -1.4636 -1.4420  0.2605
  975MOL0     H31601   9.668   5.686  12.847 -2.6865 -0.5781  0.2818
  975MOL0     H31602   9.598   5.782  12.724 -0.2084 -0.7322 -0.7256
  975MOL0     H31603   9.802   5.822  12.607 -0.1932  0.1576 -0.3582
  975MOL0     H31604   9.828   5.861  12.775  1.6071 -1.4670  0.4966
  975MOL0     H31605   8.983   5.989  12.509  1.0683 -0.7385 -0.1415
  975MOL0     H31606   8.734   5.958  12.556 -2.3153 -1.8667 -0.2846
  975MOL0     H31607   8.411   5.704  12.620  0.8618  2.9092 -1.5500
  975MOL0     H31608   8.193   5.625  12.691 -0.8551 -0.0182 -0.3827
  975MOL0     H31609   7.077   5.375  11.262  0.9573  0.4007  1.5310
  975MOL0     H31610   6.899   5.433  11.121 -1.2655  0.4333 -0.7818
  975MOL0     H31611   6.500   5.360  10.893 -0.3174 -0.4449 -1.0303
  975MOL0     H31612   6.300   5.424  10.767  1.6643  0.3134 -0.8396
  975MOL0     H31613   6.082   5.495  10.708 -0.5443  0.8067  0.7165
  975MOL0     H31614   6.197   5.604  10.662 -0.3418 -0.7604 -0.9823
  975MOL0     H31615   6.018   5.693  10.557 -0.9490 -0.1782  0.3077
  975MOL0     H31616   6.034   5.798  10.700  1.5161 -0.2731  0.3543
  975MOL0     H31617   5.797   5.755  10.659  0.5509 -0.0672 -0.8093
  975MOL0     H31618   5.846   5.672  10.802 -1.9592  0.6527  0.3411
  975MOL0     H31619   5.863   5.456  10.671  1.1159  1.7153  1.2280
  975MOL0     H31620   5.711   5.519  10.693  1.5225 -0.5302  1.5231
  975MOL0     H31621   5.708   5.506  10.276 -3.9921  0.2013  0.2814
  975MOL0     H31622   6.223   5.714  11.070  1.5348 -1.7184  4.4287
  975MOL0     H31623   6.466   5.656  11.310 -2.0519 -1.3201  0.1995
  975MOL0     H31624   6.490   5.779  11.191  1.4041 -1.5850 -0.3786
  975MOL0     H31625   6.326   5.745  11.255 -0.4149  0.8072 -0.6431
  976MOL0     O31626   5.100   6.918   1.839  0.4289  0.4225 -0.3112
  976MOL0     C31627   5.136   7.034   1.864 -0.2314  0.0306  0.0494
  976MOL0     O31628   5.239   7.103   1.800 -0.2137 -0.3766  0.5779
  976MOL0     C31629   5.297   7.052   1.688 -0.2143 -0.0748  0.4522
  976MOL0     C31630   5.224   6.993   1.580 -0.3734  0.5190 -0.2755
  976MOL0     C31631   5.297   6.947   1.471  0.5259  0.5018 -0.5823
  976MOL0     C31632   5.433   6.954   1.463  0.3541  0.0245 -0.5317
  976MOL0     O31633   5.493   6.916   1.344  0.0396  0.6395  0.1534
  976MOL0     C31634   5.459   6.775   1.306 -0.0258  0.2869  0.2115
  976MOL0     C31635   5.565   6.737   1.202 -0.2332 -0.2697  1.0697
  976MOL0     C31636   5.699   6.723   1.260 -0.5690  0.1953 -0.4666
  976MOL0     C31637   5.793   6.704   1.139 -0.9225 -0.4134 -0.4412
  976MOL0     C31638   5.935   6.675   1.177 -0.3073  0.3737 -0.1043
  976MOL0     C31639   5.998   6.788   1.273  0.7780 -0.0646 -0.2065
  976MOL0     C31640   6.144   6.824   1.232  0.3117 -0.2842 -0.1872
  976MOL0     C31641   6.203   6.951   1.292  0.0209  0.5600  0.1911
  976MOL0     N31642   6.346   6.982   1.289 -0.0171  0.0760 -0.1157
  976MOL0     C31643   6.434   6.914   1.202  0.1453  0.0996 -0.8179
  976MOL0     C31644   6.548   6.983   1.220 -1.1338  0.0340 -0.3726
  976MOL0     C31645   6.684   6.958   1.152  0.3140 -0.8467 -0.4557
  976MOL0     C31646   6.766   6.866   1.246 -0.3934  0.7430  0.5013
  976MOL0     C31647   6.903   6.853   1.163  0.7319  0.0169  0.0173
  976MOL0     C31648   7.031   6.833   1.250 -0.1322 -0.5089 -0.4398
  976MOL0     O31649   7.144   6.801   1.163  0.1296 -0.2153  0.5201
  976MOL0     C31650   7.260   6.777   1.230  0.3383 -0.6342  0.5941
  976MOL0     C31651   7.287   6.790   1.368  0.4928  0.0307  0.6662
  976MOL0     C31652   7.408   6.766   1.427 -0.4696 -0.5902  0.1880
  976MOL0     C31653   7.513   6.724   1.346 -0.8877  0.1380 -0.5828
  976MOL0     C31654   7.639   6.697   1.420  0.7878 -0.6672  0.9059
  976MOL0     O31655   7.738   6.641   1.333 -0.0860 -0.1341 -0.0304
  976MOL0     C31656   7.871   6.640   1.366  0.8484  0.4333  0.5943
  976MOL0     C31657   7.919   6.610   1.498 -0.0972 -0.2577  0.0392
  976MOL0     C31658   8.055   6.609   1.519 -0.0321  0.4396  0.2063
  976MOL0     C31659   8.144   6.637   1.405 -0.3000 -0.7548 -1.1853
  976MOL0     O31660   8.281   6.634   1.412  0.0671  0.4285 -0.0489
  976MOL0     C31661   8.338   6.638   1.548  0.0602 -0.3836  0.9557
  976MOL0     C31662   8.490   6.656   1.542  0.3569 -0.4748 -0.1828
  976MOL0     C31663   8.554   6.520   1.519  0.0335  0.0023 -0.2131
  976MOL0     C31664   8.702   6.545   1.487  0.0638  0.2916 -0.4423
  976MOL0     C31665   8.777   6.424   1.425 -0.1384  0.7739  0.1339
  976MOL0     C31666   8.927   6.461   1.384  0.5926  0.2233 -0.0637
  976MOL0     C31667   9.014   6.340   1.344  0.1212 -0.2584 -0.1041
  976MOL0     C31668   9.163   6.378   1.305 -0.5993  0.8301 -0.8797
  976MOL0    Cl31669   9.191   6.501   1.176  0.1365  0.2391  0.3371
  976MOL0     C31670   8.093   6.668   1.283 -0.0592  0.1005 -0.2608
  976MOL0     C31671   7.961   6.669   1.263 -0.5361 -0.1259  0.1217
  976MOL0     O31672   7.660   6.745   1.529 -0.4210  0.4512 -0.1120
  976MOL0     C31673   7.497   6.710   1.211 -0.7488 -0.3264  0.6306
  976MOL0     C31674   7.372   6.726   1.154  1.0974  0.0220  0.6647
  976MOL0     N31675   6.526   7.081   1.321 -0.4465 -0.0592  0.2253
  976MOL0     N31676   6.403   7.089   1.356 -0.2175  0.2792 -0.2531
  976MOL0     C31677   5.503   7.010   1.568  0.3326 -0.4617  0.3400
  976MOL0     C31678   5.433   7.048   1.686 -0.7006  0.3727 -0.6088
  976MOL0     C31679   5.055   7.113   1.966  0.1772 -0.6960 -0.2574
  976MOL0     C31680   5.062   7.252   1.973 -0.0485 -0.3575  0.0801
  976MOL0     C31681   4.994   7.327   2.067  0.8146 -0.6304  0.0182
  976MOL0     C31682   4.892   7.266   2.148 -0.1516  0.3921 -0.7772
  976MOL0     O31683   4.792   7.336   2.220 -0.2015  0.5663  0.0395
  976MOL0     C31684   4.833   7.461   2.280  0.8071 -0.6308 -0.2071
  976MOL0     C31685   4.766   7.582   2.213  0.1713  0.4331  0.0613
  976MOL0     C31686   4.613   7.572   2.214  0.2454  0.0197  0.2004
  976MOL0     C31687   4.544   7.560   2.359  0.7366  0.4733  1.2349
  976MOL0     C31688   4.570   7.686   2.423  0.3420  0.1975  0.7736
  976MOL0     C31689   4.597   7.796   2.472  0.3019  0.7721 -0.2394
  976MOL0     C31690   4.897   7.132   2.147 -0.6944  0.4915  0.4684
  976MOL0     C31691   4.985   7.050   2.070  0.5097 -0.1038  0.7495
  976MOL0     C31692   5.004   6.903   2.109  0.3733 -0.3022  0.3699
  976MOL0     H31693   5.115   6.989   1.575 -0.4004 -0.3266  0.6761
  976MOL0     H31694   5.230   6.911   1.392  0.8949  0.4445 -0.8710
  976MOL0     H31695   5.453   6.698   1.384 -0.8594  0.6703  0.5339
  976MOL0     H31696   5.362   6.784   1.258 -1.6449  1.6056  3.4262
  976MOL0     H31697   5.571   6.810   1.121 -2.6926 -0.0207  1.0285
  976MOL0     H31698   5.537   6.645   1.149  2.8461 -1.0395  0.5826
  976MOL0     H31699   5.715   6.639   1.328  2.2953 -0.4301 -1.7759
  976MOL0     H31700   5.732   6.815   1.310  1.4247 -0.1898 -1.0029
  976MOL0     H31701   5.753   6.626   1.074  1.1328  0.5217 -3.0285
  976MOL0     H31702   5.799   6.797   1.082  0.9448 -0.9838 -1.2554
  976MOL0     H31703   5.942   6.578   1.226  0.2147  0.9082  0.9287
  976MOL0     H31704   5.999   6.669   1.088  0.3650 -0.2411  0.4094
  976MOL0     H31705   5.948   6.882   1.249  1.7180  0.4454 -0.2450
  976MOL0     H31706   5.986   6.759   1.378  1.4764 -0.1926 -0.1550
  976MOL0     H31707   6.152   6.823   1.123  2.3523 -0.7960 -0.0712
  976MOL0     H31708   6.194   6.738   1.276 -1.4007 -1.8620 -1.1700
  976MOL0     H31709   6.157   7.038   1.243 -2.8495 -1.4625 -1.0330
  976MOL0     H31710   6.163   6.957   1.393  0.4697 -1.0974  0.5038
  976MOL0     H31711   6.409   6.831   1.137 -0.1981  0.5058 -1.2085
  976MOL0     H31712   6.669   6.922   1.050  0.2504 -1.5688 -0.1970
  976MOL0     H31713   6.741   7.051   1.141 -2.5166  1.6565  3.3194
  976MOL0     H31714   6.777   6.914   1.344  0.6658  3.4170 -0.8409
  976MOL0     H31715   6.699   6.782   1.270 -0.3617  0.3135 -0.8586
  976MOL0     H31716   6.908   6.938   1.095  0.0218 -0.3916 -0.5514
  976MOL0     H31717   6.897   6.760   1.106  2.4858 -0.0506 -0.1365
  976MOL0     H31718   7.010   6.766   1.333  1.0956  1.3398  1.4691
  976MOL0     H31719   7.064   6.925   1.300  1.9946 -1.2389 -0.3786
  976MOL0     H31720   7.214   6.833   1.436 -0.2948 -0.0665 -0.0878
  976MOL0     H31721   7.430   6.797   1.529 -2.2900 -2.0445  1.0749
  976MOL0     H31722   7.845   6.606   1.578  0.0159  0.9006  0.2257
  976MOL0     H31723   8.089   6.577   1.617 -0.8898 -2.2848 -0.2896
  976MOL0     H31724   8.287   6.707   1.616 -1.1596 -2.0205  1.7597
  976MOL0     H31725   8.326   6.543   1.600 -0.9620  0.1475  1.7370
  976MOL0     H31726   8.509   6.746   1.483  2.0265  0.0436  1.0742
  976MOL0     H31727   8.524   6.685   1.642 -2.1832 -0.4527  0.7666
  976MOL0     H31728   8.552   6.458   1.609  0.6243  0.1847 -0.0706
  976MOL0     H31729   8.509   6.464   1.437 -2.2279 -0.6321  1.3758
  976MOL0     H31730   8.765   6.560   1.575 -2.0764 -2.2472  1.6965
  976MOL0     H31731   8.705   6.635   1.425  0.6636 -0.1226 -1.0393
  976MOL0     H31732   8.715   6.391   1.341  1.8027  2.5523 -2.1528
  976MOL0     H31733   8.770   6.336   1.489 -3.8875  0.2756 -0.7440
  976MOL0     H31734   8.921   6.541   1.308 -2.1413  1.4879  1.3410
  976MOL0     H31735   8.975   6.494   1.476  0.4607 -1.0502  0.4745
  976MOL0     H31736   8.971   6.296   1.254  3.3927  0.7366 -2.3361
  976MOL0     H31737   9.008   6.259   1.418 -1.3037 -0.5099 -0.4586
  976MOL0     H31738   9.218   6.403   1.397 -1.1026 -1.4433  0.1128
  976MOL0     H31739   9.207   6.282   1.277 -0.0868  0.5936  0.6125
  976MOL0     H31740   8.163   6.691   1.204 -0.4628  3.6246  0.2529
  976MOL0     H31741   7.906   6.690   1.172 -3.0403 -0.7278  1.4028
  976MOL0     H31742   7.586   6.682   1.155 -1.0816 -0.5956  0.2355
  976MOL0     H31743   7.349   6.694   1.053 -1.3193 -1.4060  1.6027
  976MOL0     H31744   5.610   7.019   1.560  0.2915  0.2418  0.5453
  976MOL0     H31745   5.491   7.086   1.770 -0.0826  2.1078 -1.7453
  976MOL0     H31746   5.127   7.311   1.909  0.6470  1.7147  2.5065
  976MOL0     H31747   5.006   7.435   2.062  0.4550 -0.6024 -0.3492
  976MOL0     H31748   4.940   7.483   2.285  0.3650  1.7365  3.5308
  976MOL0     H31749   4.811   7.460   2.388 -3.4659  1.0833 -0.8492
  976MOL0     H31750   4.796   7.576   2.108  0.6564 -3.8526  0.2738
  976MOL0     H31751   4.801   7.675   2.260 -1.4891  0.3789  1.5016
  976MOL0     H31752   4.574   7.488   2.156  0.7726 -0.3233  0.3347
  976MOL0     H31753   4.574   7.662   2.165 -1.4566 -0.9526 -0.3354
  976MOL0     H31754   4.436   7.548   2.344  0.0774  5.4025  0.4023
  976MOL0     H31755   4.600   7.482   2.413  1.7483 -0.0264 -0.4503
  976MOL0     H31756   4.614   7.895   2.509 -0.9995  1.2503 -0.8668
  976MOL0     H31757   4.837   7.073   2.216  0.7048 -0.4002  0.9666
  976MOL0     H31758   5.108   6.870   2.100  1.4360  3.0235 -0.9653
  976MOL0     H31759   4.972   6.882   2.212 -1.4507 -4.8629 -0.8522
  976MOL0     H31760   4.941   6.837   2.048 -2.0963  2.7736 -0.7113
  977MOL0     O31761  10.942   1.666   2.984 -0.4876  0.5654  0.0405
  977MOL0     C31762  10.883   1.600   2.893  0.5436 -0.5335  0.1286
  977MOL0     O31763  10.945   1.510   2.811  0.5717 -0.5219  0.2165
  977MOL0     C31764  11.077   1.513   2.798 -0.6894 -1.3037  0.1793
  977MOL0     C31765  11.166   1.483   2.907 -0.6192  0.1232 -0.6935
  977MOL0     C31766  11.312   1.492   2.879 -0.5558  0.2492 -0.5147
  977MOL0     C31767  11.356   1.529   2.760  0.0938 -0.2275  0.1927
  977MOL0     O31768  11.490   1.521   2.729 -0.1693  0.1111 -0.5526
  977MOL0     C31769  11.523   1.520   2.586 -0.1697  0.9277 -0.4953
  977MOL0     C31770  11.663   1.453   2.574  0.0122  0.1548  0.0856
  977MOL0     C31771  11.769   1.521   2.669  0.0196  0.3224 -0.0342
  977MOL0     C31772  11.910   1.491   2.606 -0.5572  0.1573 -0.1117
  977MOL0     C31773  12.020   1.551   2.685 -1.4559  0.2398  0.5123
  977MOL0     C31774  12.157   1.475   2.647  0.5137 -0.3984  0.4376
  977MOL0     C31775  12.266   1.545   2.732  0.5817  0.1382 -0.2067
  977MOL0     C31776  12.409   1.488   2.727  0.4047  0.1855 -0.4434
  977MOL0     N31777  12.464   1.487   2.589  0.0472 -1.3527 -0.3843
  977MOL0     C31778  12.569   1.565   2.546 -0.2643 -0.1376 -1.1176
  977MOL0     C31779  12.611   1.497   2.440 -0.2102 -0.6055  0.6612
  977MOL0     C31780  12.720   1.532   2.346  0.1933  0.0548  0.2210
  977MOL0     C31781  12.802   1.407   2.297  0.5454 -0.4158 -0.7544
  977MOL0     C31782  12.917   1.472   2.212  0.7445  0.9646  0.5008
  977MOL0     C31783  13.003   1.353   2.162 -0.1393 -0.0972 -0.1396
  977MOL0     O31784  13.106   1.388   2.070  0.1020  1.0092  0.1446
  977MOL0     C31785  13.232   1.416   2.104 -0.3339 -0.2057 -0.7512
  977MOL0     C31786  13.267   1.481   2.230  0.0810 -0.8040 -0.2206
  977MOL0     C31787  13.404   1.485   2.262 -0.7580  0.7276 -0.0283
  977MOL0     C31788  13.493   1.437   2.172 -1.0228 -0.0273 -0.5358
  977MOL0     C31789  13.639   1.436   2.215  0.6328 -0.3361  0.6735
  977MOL0     O31790  13.739   1.445   2.119 -0.0307  0.4931 -0.2535
  977MOL0     C31791  13.865   1.413   2.161  0.0070 -0.2523  0.6700
  977MOL0     C31792  13.910   1.280   2.177  0.5930 -1.5101 -0.0885
  977MOL0     C31793  14.038   1.251   2.215 -0.1200 -0.1011  0.2948
  977MOL0     C31794  14.135   1.355   2.243 -1.3899  0.2149 -0.5747
  977MOL0     O31795  14.264   1.328   2.295 -0.1921  0.0868 -0.4331
  977MOL0     C31796  14.300   1.208   2.361  0.2551  1.1609  0.7911
  977MOL0     C31797  14.389   1.123   2.271  0.4928 -0.6934  0.5504
  977MOL0     C31798  14.501   1.199   2.193 -0.7322  0.3191 -0.7589
  977MOL0     C31799  14.624   1.114   2.150  0.4290  0.2921 -0.3668
  977MOL0     C31800  14.739   1.203   2.101  0.0310  0.1371  0.0285
  977MOL0     C31801  14.818   1.264   2.222  0.1478  0.1986  0.4118
  977MOL0     C31802  14.923   1.358   2.168 -0.3229 -0.6565  0.1521
  977MOL0     C31803  15.009   1.435   2.267  0.4015 -0.5961  0.1298
  977MOL0    Cl31804  15.106   1.325   2.363 -0.0228 -0.1255 -0.0749
  977MOL0     C31805  14.094   1.485   2.220  0.6832 -0.5509 -0.3013
  977MOL0     C31806  13.961   1.505   2.182  0.3270 -0.7782  0.4659
  977MOL0     O31807  13.651   1.427   2.332  0.1276  0.1622  0.2521
  977MOL0     C31808  13.458   1.381   2.053 -0.2467  0.3510 -0.3861
  977MOL0     C31809  13.329   1.370   2.013 -0.3359 -0.8853  0.2815
  977MOL0     N31810  12.544   1.376   2.423 -0.2738 -0.2866  0.1998
  977MOL0     N31811  12.465   1.369   2.518  0.2838 -0.4927  0.0709
  977MOL0     C31812  11.266   1.579   2.664 -0.3000  0.5201  0.1824
  977MOL0     C31813  11.129   1.562   2.681 -0.0533 -0.3410  0.7198
  977MOL0     C31814  10.731   1.625   2.864 -0.5138  0.4700  0.0051
  977MOL0     C31815  10.651   1.692   2.954  0.2651  0.6217 -0.1428
  977MOL0     C31816  10.513   1.694   2.953 -0.2441  0.3254  0.6340
  977MOL0     C31817  10.444   1.636   2.850  0.2054 -0.4189 -0.4222
  977MOL0     O31818  10.310   1.647   2.853  0.4919 -0.8353  0.2864
  977MOL0     C31819  10.221   1.578   2.759 -0.9923  0.6735 -0.5315
  977MOL0     C31820  10.132   1.675   2.672  0.1677  0.4508  0.1060
  977MOL0     C31821  10.216   1.758   2.578 -0.2388  0.9287  0.0490
  977MOL0     C31822  10.124   1.839   2.498 -0.1867 -0.2255 -0.0635
  977MOL0     C31823  10.062   1.763   2.392  0.3237  0.3237 -0.0621
  977MOL0     C31824  10.016   1.705   2.303  0.2611  0.3836  0.1978
  977MOL0     C31825  10.520   1.589   2.745  0.4944  0.0661  0.7023
  977MOL0     C31826  10.656   1.574   2.753 -0.2869  0.8321  0.0186
  977MOL0     C31827  10.702   1.491   2.639  0.6269 -0.3402  0.3143
  977MOL0     H31828  11.135   1.462   3.009 -1.3167  0.4888 -0.8214
  977MOL0     H31829  11.386   1.472   2.956 -0.9367  2.6590  0.5533
  977MOL0     H31830  11.451   1.456   2.532  1.5413 -0.6179 -1.0457
  977MOL0     H31831  11.535   1.624   2.553  2.7923  1.8542  2.9382
  977MOL0     H31832  11.681   1.442   2.466 -0.9281 -2.4483  0.1190
  977MOL0     H31833  11.653   1.348   2.602 -0.6686  0.3291  0.5243
  977MOL0     H31834  11.769   1.480   2.770 -0.0897  1.9184  0.6545
  977MOL0     H31835  11.758   1.630   2.675  0.7069  0.4100 -0.2595
  977MOL0     H31836  11.922   1.382   2.609 -0.6640  0.1445 -0.1520
  977MOL0     H31837  11.914   1.516   2.500 -2.0210  0.9192 -0.0081
  977MOL0     H31838  12.042   1.655   2.659 -0.3970  0.0490  0.5833
  977MOL0     H31839  11.999   1.550   2.793 -3.4715 -4.4255  0.3261
  977MOL0     H31840  12.148   1.368   2.668  0.5678 -0.3091  0.9188
  977MOL0     H31841  12.180   1.485   2.540 -0.3566 -1.1336  0.1689
  977MOL0     H31842  12.227   1.540   2.834 -0.4393  3.0257 -0.3756
  977MOL0     H31843  12.272   1.651   2.707 -0.7720  0.0544 -0.9963
  977MOL0     H31844  12.468   1.553   2.792  0.2904  0.6869 -0.8349
  977MOL0     H31845  12.419   1.389   2.772  3.6037  1.3426  1.7368
  977MOL0     H31846  12.609   1.659   2.583 -1.0413 -0.2113 -0.0211
  977MOL0     H31847  12.669   1.578   2.261 -0.0555 -1.3784 -0.4478
  977MOL0     H31848  12.788   1.600   2.398  2.1632 -1.8777  0.3566
  977MOL0     H31849  12.858   1.362   2.380  0.2902 -0.3466 -0.5465
  977MOL0     H31850  12.739   1.339   2.239 -0.0495 -1.5378  1.1016
  977MOL0     H31851  12.976   1.542   2.272  0.4517  0.3000  1.6046
  977MOL0     H31852  12.874   1.535   2.134 -0.3907  1.8939  1.8367
  977MOL0     H31853  12.941   1.279   2.110  0.8866 -1.5741  0.6621
  977MOL0     H31854  13.041   1.307   2.254  0.2267 -2.3098 -1.3377
  977MOL0     H31855  13.200   1.515   2.309  0.3575 -0.1990 -0.2385
  977MOL0     H31856  13.437   1.514   2.361 -1.6178 -1.3282  0.9250
  977MOL0     H31857  13.829   1.209   2.162 -0.1065 -0.3722 -2.2334
  977MOL0     H31858  14.072   1.148   2.210  3.6263  0.9917 -0.0301
  977MOL0     H31859  14.357   1.233   2.451  0.2903 -0.6828  1.3162
  977MOL0     H31860  14.207   1.154   2.381 -0.6213  1.0032 -2.9728
  977MOL0     H31861  14.441   1.045   2.327 -0.2993 -1.3482  0.3923
  977MOL0     H31862  14.326   1.063   2.205  0.3672  0.1768 -0.1388
  977MOL0     H31863  14.448   1.238   2.106 -1.6540 -0.6151 -0.6380
  977MOL0     H31864  14.537   1.280   2.258  0.1812 -1.5829  1.2454
  977MOL0     H31865  14.588   1.045   2.073 -0.7833 -0.2528  0.6500
  977MOL0     H31866  14.667   1.051   2.229  1.0398  1.1387 -0.0142
  977MOL0     H31867  14.704   1.281   2.032 -0.2228 -0.2394 -0.2738
  977MOL0     H31868  14.804   1.143   2.037  0.1681  2.0825 -1.7643
  977MOL0     H31869  14.746   1.316   2.286 -1.7113  0.1783 -1.5619
  977MOL0     H31870  14.860   1.178   2.276 -1.4373 -0.6849  0.2962
  977MOL0     H31871  14.886   1.429   2.093  3.4173 -0.4240 -1.7307
  977MOL0     H31872  14.994   1.300   2.107  0.3774  0.2192  0.1175
  977MOL0     H31873  15.071   1.510   2.218  0.8257 -0.5217  0.7633
  977MOL0     H31874  14.941   1.494   2.329  0.0591  0.8498 -1.5630
  977MOL0     H31875  14.162   1.569   2.229  1.0847 -1.0729  2.3683
  977MOL0     H31876  13.926   1.603   2.152  0.4315 -0.4555  1.3529
  977MOL0     H31877  13.530   1.338   1.985 -0.0128 -0.1663  0.1737
  977MOL0     H31878  13.304   1.315   1.922 -0.1941 -1.4955  0.6044
  977MOL0     H31879  11.289   1.616   2.565 -2.8740  3.0668  0.3900
  977MOL0     H31880  11.059   1.584   2.600 -0.9994  2.2403  2.1367
  977MOL0     H31881  10.695   1.724   3.047  0.8544 -0.3239 -0.0793
  977MOL0     H31882  10.460   1.750   3.030 -0.2543  1.4070 -0.1388
  977MOL0     H31883  10.162   1.512   2.823  2.0688 -0.1965  1.6601
  977MOL0     H31884  10.271   1.507   2.693 -1.5238 -0.2957  0.0789
  977MOL0     H31885  10.078   1.741   2.741 -0.8192  0.6539 -0.8187
  977MOL0     H31886  10.064   1.613   2.611  3.8500 -1.3509 -2.5433
  977MOL0     H31887  10.281   1.696   2.516 -0.2858 -2.1363  2.8216
  977MOL0     H31888  10.281   1.831   2.628 -0.1098  2.6140 -2.4363
  977MOL0     H31889  10.045   1.890   2.554  1.0874  1.7210  0.0872
  977MOL0     H31890  10.174   1.923   2.448 -2.3261  1.1600 -0.0054
  977MOL0     H31891   9.986   1.645   2.219 -0.4001 -1.0352  1.4102
  977MOL0     H31892  10.467   1.562   2.654  1.4125  0.8614 -0.0963
  977MOL0     H31893  10.707   1.394   2.688 -0.5336 -0.2844  0.5653
  977MOL0     H31894  10.636   1.501   2.552 -0.9826  1.6634  1.6412
  977MOL0     H31895  10.803   1.513   2.603  0.8002 -1.4667  0.0838
  978MOL0     O31896  10.963   7.739   8.545 -0.1758 -0.2712 -0.0490
  978MOL0     C31897  10.940   7.640   8.476 -0.3965  0.4490 -0.0308
  978MOL0     O31898  11.026   7.587   8.379  0.4891  1.1895 -0.1231
  978MOL0     C31899  11.155   7.629   8.368 -0.0501 -0.0236 -0.0649
  978MOL0     C31900  11.192   7.643   8.233  0.5217 -0.5400  0.5473
  978MOL0     C31901  11.319   7.689   8.200  0.8833  0.7417  0.2532
  978MOL0     C31902  11.413   7.717   8.297  0.5789 -0.6397 -0.0563
  978MOL0     O31903  11.540   7.758   8.262  0.1491 -0.0585  0.1919
  978MOL0     C31904  11.634   7.815   8.363 -0.3499  0.3064  0.7364
  978MOL0     C31905  11.739   7.893   8.300  0.5251 -0.0888  0.4332
  978MOL0     C31906  11.856   7.923   8.391 -0.3580  0.0004  0.1276
  978MOL0     C31907  11.942   8.050   8.336  0.1945  0.1486  0.2095
  978MOL0     C31908  12.040   8.096   8.439  0.2769  0.2547 -0.0859
  978MOL0     C31909  12.123   8.220   8.390  0.6889 -0.5967 -0.7183
  978MOL0     C31910  12.255   8.180   8.332  0.2011 -0.4271  1.0853
  978MOL0     C31911  12.321   8.286   8.239 -0.6044 -0.8647  0.0116
  978MOL0     N31912  12.356   8.414   8.307  0.6897  0.0579 -0.5205
  978MOL0     C31913  12.471   8.443   8.360  0.2189 -0.1529 -0.2256
  978MOL0     C31914  12.462   8.569   8.414 -0.5005 -0.4582  0.0416
  978MOL0     C31915  12.570   8.673   8.419 -0.4757 -0.1541  0.4611
  978MOL0     C31916  12.692   8.625   8.502 -1.1208  0.2619 -0.2682
  978MOL0     C31917  12.649   8.629   8.648  0.3870 -0.6557 -0.6859
  978MOL0     C31918  12.770   8.609   8.737  0.3516 -0.0424 -0.7888
  978MOL0     O31919  12.855   8.724   8.720 -0.5165  0.0949 -0.7394
  978MOL0     C31920  12.991   8.704   8.757  0.8906 -0.1618 -0.1012
  978MOL0     C31921  13.051   8.599   8.822  0.5734 -0.0698 -0.5183
  978MOL0     C31922  13.189   8.575   8.835 -0.0148 -0.0360 -0.5233
  978MOL0     C31923  13.272   8.666   8.771 -0.5846  0.4914 -0.4721
  978MOL0     C31924  13.418   8.651   8.765  0.2538 -0.3273 -0.1496
  978MOL0     O31925  13.491   8.769   8.768  0.0647  0.1152  0.4809
  978MOL0     C31926  13.621   8.778   8.753 -0.9797  0.2050  0.1780
  978MOL0     C31927  13.671   8.905   8.740 -0.2422  0.0671 -0.3111
  978MOL0     C31928  13.801   8.937   8.719 -0.1693  0.0283  0.1273
  978MOL0     C31929  13.902   8.841   8.720  1.5134  0.6544 -0.1271
  978MOL0     O31930  14.033   8.861   8.687 -0.4075  0.0924 -0.1963
  978MOL0     C31931  14.084   8.996   8.702  0.4102  1.1251 -0.7826
  978MOL0     C31932  14.233   9.018   8.662 -0.5545 -0.3851  0.0841
  978MOL0     C31933  14.339   8.938   8.747  0.0639 -0.3085 -0.1922
  978MOL0     C31934  14.474   8.937   8.681  0.3958  0.1426 -0.3325
  978MOL0     C31935  14.555   9.055   8.727 -0.4017  0.1698  1.4852
  978MOL0     C31936  14.704   9.047   8.689 -0.4445  0.6124 -0.0850
  978MOL0     C31937  14.806   9.118   8.789 -0.2970 -0.4455 -0.3652
  978MOL0     C31938  14.933   9.034   8.814  0.2452 -0.5374 -0.8415
  978MOL0    Cl31939  15.039   9.061   8.671 -0.2415 -0.1497  0.0359
  978MOL0     C31940  13.855   8.705   8.726 -0.2495  0.2967 -0.1843
  978MOL0     C31941  13.713   8.676   8.749 -0.2836 -0.0783 -0.5216
  978MOL0     O31942  13.457   8.535   8.759  0.3375  1.3503 -0.7651
  978MOL0     C31943  13.209   8.790   8.728 -0.3717  1.0256 -0.1432
  978MOL0     C31944  13.073   8.797   8.717  0.0777 -0.0942 -0.4914
  978MOL0     N31945  12.328   8.606   8.403  0.1902  0.5963  0.2102
  978MOL0     N31946  12.265   8.513   8.334  0.0557 -0.6855  0.7060
  978MOL0     C31947  11.381   7.694   8.430 -0.3918 -0.4263 -0.4275
  978MOL0     C31948  11.253   7.654   8.471 -0.2240  0.1067 -0.0671
  978MOL0     C31949  10.810   7.567   8.512 -0.1297 -0.2445  0.5013
  978MOL0     C31950  10.791   7.455   8.426 -0.1406  0.9137  0.8188
  978MOL0     C31951  10.679   7.375   8.449  0.3669  0.5920 -0.8556
  978MOL0     C31952  10.575   7.418   8.534 -0.2427  0.2343 -0.3404
  978MOL0     O31953  10.472   7.333   8.551 -0.5665 -0.0329 -0.0064
  978MOL0     C31954  10.377   7.303   8.441  0.0769  0.2903  0.3566
  978MOL0     C31955  10.230   7.299   8.478 -0.1202 -0.4468  0.6272
  978MOL0     C31956  10.182   7.165   8.541 -1.3221 -0.1646  0.7305
  978MOL0     C31957  10.039   7.156   8.519 -0.5564  0.9999  0.3465
  978MOL0     C31958   9.985   7.035   8.580  0.4976  0.0116 -0.9613
  978MOL0     C31959   9.934   6.938   8.635 -0.3372  0.1873 -0.0897
  978MOL0     C31960  10.592   7.537   8.609  0.0905 -0.3648 -0.6885
  978MOL0     C31961  10.706   7.614   8.597  0.2534  0.2640 -1.1063
  978MOL0     C31962  10.716   7.741   8.682  0.6879 -0.0146  1.2069
  978MOL0     H31963  11.113   7.615   8.166  0.8924  1.4246 -0.8057
  978MOL0     H31964  11.351   7.719   8.101  2.1701  1.1474  0.7715
  978MOL0     H31965  11.587   7.894   8.422  0.4751  0.2069  1.5525
  978MOL0     H31966  11.678   7.740   8.430  0.6200  1.4193  1.3822
  978MOL0     H31967  11.693   7.986   8.264  1.9487  0.6529  0.4686
  978MOL0     H31968  11.780   7.837   8.215  1.9082  0.9148  0.4057
  978MOL0     H31969  11.926   7.840   8.400 -0.7419 -0.2224  1.2211
  978MOL0     H31970  11.814   7.938   8.491 -0.8282 -0.4528  0.0063
  978MOL0     H31971  11.992   8.030   8.240 -0.3835  0.0138 -0.0659
  978MOL0     H31972  11.876   8.131   8.305 -0.7408 -0.9932 -0.8832
  978MOL0     H31973  11.993   8.114   8.536  0.0410 -2.7814  0.4723
  978MOL0     H31974  12.102   8.007   8.456  0.2487  0.6327  2.4855
  978MOL0     H31975  12.066   8.279   8.318 -0.0809  1.5010  1.5196
  978MOL0     H31976  12.142   8.278   8.481 -0.3239 -2.5386  0.8119
  978MOL0     H31977  12.248   8.090   8.271 -0.9107 -1.8024  3.1283
  978MOL0     H31978  12.328   8.145   8.407  0.4749 -0.5414  0.7678
  978MOL0     H31979  12.414   8.248   8.196  0.3084  1.9149 -0.6944
  978MOL0     H31980  12.253   8.301   8.155 -1.9570 -1.3225  0.9983
  978MOL0     H31981  12.565   8.390   8.350  0.0248 -0.8758  1.4691
  978MOL0     H31982  12.597   8.679   8.313 -0.1593  0.3775  0.5647
  978MOL0     H31983  12.533   8.770   8.454  0.1083  0.2500 -0.0158
  978MOL0     H31984  12.708   8.521   8.470  1.7843  0.8649 -1.0179
  978MOL0     H31985  12.783   8.682   8.479 -0.8410  0.2460  0.7488
  978MOL0     H31986  12.580   8.544   8.653 -2.2551  1.4086  2.6547
  978MOL0     H31987  12.601   8.721   8.685  1.0700  0.0487 -1.4988
  978MOL0     H31988  12.823   8.519   8.705  1.2703 -1.0782  3.0383
  978MOL0     H31989  12.745   8.585   8.841  0.6180 -1.2846 -0.9936
  978MOL0     H31990  12.985   8.524   8.864 -3.0789  2.5068 -1.2045
  978MOL0     H31991  13.231   8.488   8.885  0.8706  1.3806  1.3184
  978MOL0     H31992  13.597   8.985   8.741 -0.0733  0.2277 -0.7350
  978MOL0     H31993  13.816   9.043   8.704 -0.8461  0.4094  1.9521
  978MOL0     H31994  14.026   9.064   8.639 -1.1650 -0.2536 -0.8679
  978MOL0     H31995  14.079   9.032   8.805  0.5166 -0.1278 -0.3179
  978MOL0     H31996  14.245   8.986   8.558 -3.4068  0.4397 -0.5959
  978MOL0     H31997  14.262   9.124   8.660  0.7347 -0.7162  0.6802
  978MOL0     H31998  14.349   8.994   8.840  1.5093 -0.3951 -0.2643
  978MOL0     H31999  14.300   8.837   8.766 -0.8922  0.5651  2.9793
  978MOL0     H32000  14.470   8.944   8.572  2.0835 -1.8944 -0.6015
  978MOL0     H32001  14.531   8.845   8.698 -0.4123 -0.7040 -1.9042
  978MOL0     H32002  14.551   9.072   8.835  0.1866  2.2722  1.2272
  978MOL0     H32003  14.511   9.147   8.689  1.2830  0.1897 -0.6226
  978MOL0     H32004  14.741   8.944   8.679 -2.1117  0.0910 -1.1439
  978MOL0     H32005  14.732   9.085   8.591  0.0385  1.7379  0.4747
  978MOL0     H32006  14.754   9.148   8.881 -0.8731  2.8247 -1.6227
  978MOL0     H32007  14.841   9.216   8.754 -0.2602 -0.2340  0.2409
  978MOL0     H32008  14.973   9.072   8.908  1.8857  2.0448 -2.4436
  978MOL0     H32009  14.909   8.929   8.833 -0.6608 -0.3355 -0.8273
  978MOL0     H32010  13.925   8.623   8.709 -0.4105 -0.3337  1.9126
  978MOL0     H32011  13.687   8.571   8.745  0.3526 -0.3071  0.7948
  978MOL0     H32012  13.276   8.869   8.698  0.7326  0.4139  0.6500
  978MOL0     H32013  13.029   8.881   8.664  1.1983  0.6186 -0.3306
  978MOL0     H32014  11.458   7.710   8.505 -0.3978  1.0475 -0.7074
  978MOL0     H32015  11.229   7.658   8.576  0.8933  3.2637  0.1781
  978MOL0     H32016  10.859   7.415   8.352 -0.4839  1.1799  0.3546
  978MOL0     H32017  10.664   7.278   8.402  0.2350  0.1385  0.1159
  978MOL0     H32018  10.410   7.207   8.402  2.8924  1.5939 -0.7038
  978MOL0     H32019  10.391   7.371   8.356  0.7064 -0.9943 -0.5897
  978MOL0     H32020  10.171   7.314   8.386  0.8712 -1.3870 -0.1895
  978MOL0     H32021  10.194   7.370   8.553  0.2118  0.3842  0.0234
  978MOL0     H32022  10.215   7.159   8.645 -0.6292  1.1445  0.6083
  978MOL0     H32023  10.220   7.079   8.486 -2.1775  0.3869 -0.7652
  978MOL0     H32024   9.987   7.243   8.562 -0.8325 -0.2995  2.8121
  978MOL0     H32025  10.014   7.156   8.413  1.8589  3.8219 -0.3787
  978MOL0     H32026   9.877   6.865   8.688  1.0138 -0.6343  0.2917
  978MOL0     H32027  10.512   7.568   8.676 -1.3902  1.0380 -2.9598
  978MOL0     H32028  10.815   7.750   8.730  1.2097 -0.1728  0.1766
  978MOL0     H32029  10.702   7.832   8.623  4.0865 -0.6584 -0.8418
  978MOL0     H32030  10.638   7.732   8.758  0.0962 -0.0685  0.5903
  979MOL0     O32031   8.184   7.101   2.798 -0.2915 -0.2618  0.5693
  979MOL0     C32032   8.167   7.174   2.697 -0.5016  0.1251 -0.4991
  979MOL0     O32033   8.267   7.257   2.647 -0.7002  0.2723  0.4902
  979MOL0     C32034   8.386   7.255   2.711 -0.7328  0.0886 -0.0778
  979MOL0     C32035   8.504   7.234   2.638  0.3529  0.1304 -0.0034
  979MOL0     C32036   8.631   7.236   2.694  0.1421 -0.4863  0.2442
  979MOL0     C32037   8.648   7.269   2.828  1.0766  0.1404 -0.4114
  979MOL0     O32038   8.764   7.295   2.900  0.5426 -0.0765 -0.2722
  979MOL0     C32039   8.881   7.326   2.826  0.9318  0.7468  0.8914
  979MOL0     C32040   8.979   7.392   2.910  0.2233  1.1351  0.1130
  979MOL0     C32041   8.932   7.534   2.944 -0.7185 -0.3349  0.6840
  979MOL0     C32042   9.054   7.631   2.982 -0.3610 -1.1707 -0.5934
  979MOL0     C32043   9.002   7.756   3.068 -0.8024 -0.3431  0.1812
  979MOL0     C32044   9.104   7.828   3.145 -0.3554 -0.3633  0.9556
  979MOL0     C32045   9.177   7.742   3.248 -1.0630  0.0031 -0.6639
  979MOL0     C32046   9.320   7.714   3.206  0.2213  0.1349  0.7176
  979MOL0     N32047   9.416   7.832   3.219 -0.0812 -0.0227  0.1588
  979MOL0     C32048   9.514   7.847   3.321  0.1817  0.3599  0.3471
  979MOL0     C32049   9.573   7.963   3.301 -1.0095 -0.8906 -0.2421
  979MOL0     C32050   9.671   8.016   3.401  0.3307  0.8129 -0.6926
  979MOL0     C32051   9.627   8.160   3.440  0.2256  0.1914 -0.1961
  979MOL0     C32052   9.735   8.246   3.498  0.4368  0.1681  0.5594
  979MOL0     C32053   9.805   8.197   3.626 -0.3974  0.2828  0.0467
  979MOL0     O32054   9.879   8.075   3.604 -0.3759  0.0217  0.0237
  979MOL0     C32055   9.989   8.053   3.682  0.1912  0.0667 -0.2652
  979MOL0     C32056  10.088   7.975   3.622 -0.3818 -0.4912 -0.4982
  979MOL0     C32057  10.203   7.942   3.686  0.0375 -1.3601 -0.2434
  979MOL0     C32058  10.229   8.000   3.810 -0.8557 -0.4818 -1.0233
  979MOL0     C32059  10.366   7.983   3.877 -0.8835  0.9273 -0.1654
  979MOL0     O32060  10.474   7.956   3.795 -0.4053 -0.4119  0.6991
  979MOL0     C32061  10.605   7.970   3.831 -0.4208 -0.6660 -0.5496
  979MOL0     C32062  10.653   7.933   3.955 -0.9735 -0.2471  0.7334
  979MOL0     C32063  10.791   7.937   3.981 -0.1675  0.4136 -0.6742
  979MOL0     C32064  10.878   7.987   3.884 -0.6261 -0.8568 -0.0088
  979MOL0     O32065  11.014   8.006   3.917 -0.3778  0.2142 -0.3167
  979MOL0     C32066  11.036   8.079   4.042 -0.0072  0.3215 -0.2752
  979MOL0     C32067  11.183   8.068   4.064 -1.1943 -0.5960  0.4161
  979MOL0     C32068  11.239   7.923   4.041  0.2413 -0.3503  0.1873
  979MOL0     C32069  11.390   7.930   4.072  0.1723  0.9121  0.2327
  979MOL0     C32070  11.456   7.796   4.046 -0.5514 -0.2050 -0.0669
  979MOL0     C32071  11.611   7.806   4.070  0.7134  1.1233  0.3640
  979MOL0     C32072  11.679   7.673   4.039  0.1593  0.6135 -0.6032
  979MOL0     C32073  11.823   7.685   4.070  0.0840 -0.4216 -0.2842
  979MOL0    Cl32074  11.864   7.680   4.244 -0.3893 -0.6736 -0.1919
  979MOL0     C32075  10.826   8.010   3.756 -0.7205  1.2862  0.6912
  979MOL0     C32076  10.692   8.013   3.737 -0.5354 -0.8012  0.0984
  979MOL0     O32077  10.370   8.008   3.997  0.0975  0.6302 -0.0699
  979MOL0     C32078  10.131   8.075   3.879 -0.1375 -0.0643 -0.0669
  979MOL0     C32079  10.012   8.108   3.809 -0.1344 -0.7630 -0.1629
  979MOL0     N32080   9.524   8.026   3.195  0.0490 -0.0784  0.2187
  979MOL0     N32081   9.430   7.951   3.140 -0.4998 -0.0002 -0.7183
  979MOL0     C32082   8.533   7.289   2.905 -0.5668  0.8614  0.3935
  979MOL0     C32083   8.404   7.287   2.852 -0.1231  0.7669  0.2766
  979MOL0     C32084   8.033   7.194   2.641  0.1466  0.0043  0.3509
  979MOL0     C32085   7.977   7.310   2.587 -0.5162  0.8291  0.4358
  979MOL0     C32086   7.840   7.320   2.549 -0.1445 -0.0351 -0.6821
  979MOL0     C32087   7.768   7.211   2.527  0.5945  0.6958 -0.1374
  979MOL0     O32088   7.649   7.199   2.464  0.5930  0.0366  0.1473
  979MOL0     C32089   7.589   7.318   2.408 -0.1688  0.1680 -0.3394
  979MOL0     C32090   7.473   7.275   2.324  0.2305  0.7936 -0.3313
  979MOL0     C32091   7.418   7.384   2.245  0.1926 -0.2417  0.0288
  979MOL0     C32092   7.291   7.344   2.169 -0.4745 -0.3832 -0.4285
  979MOL0     C32093   7.177   7.323   2.255  0.4393 -0.8200  0.2447
  979MOL0     C32094   7.088   7.293   2.328  0.5473  0.3390 -0.2062
  979MOL0     C32095   7.818   7.092   2.566  0.1731  0.4619 -1.1528
  979MOL0     C32096   7.950   7.079   2.624 -0.8016 -0.7500  0.1314
  979MOL0     C32097   7.991   6.939   2.655  0.1665 -0.2024  0.8343
  979MOL0     H32098   8.489   7.217   2.532 -1.8931 -2.2341  0.6001
  979MOL0     H32099   8.716   7.225   2.628 -2.0683 -3.2088 -2.3976
  979MOL0     H32100   8.926   7.234   2.785 -3.4436 -0.0605 -2.9625
  979MOL0     H32101   8.865   7.389   2.738 -0.7709 -0.6634  0.1417
  979MOL0     H32102   9.075   7.399   2.858 -0.9794  0.4944 -2.3461
  979MOL0     H32103   9.003   7.345   3.006 -0.3177  0.8715  0.1274
  979MOL0     H32104   8.866   7.527   3.031 -2.4850 -0.8079 -0.6204
  979MOL0     H32105   8.882   7.580   2.858 -0.8783 -2.0164 -0.1662
  979MOL0     H32106   9.125   7.583   3.049  2.4465  1.9535 -1.0303
  979MOL0     H32107   9.118   7.651   2.895  3.6116 -2.5095  1.7410
  979MOL0     H32108   8.961   7.823   2.992  0.2288 -1.6951 -1.6232
  979MOL0     H32109   8.922   7.724   3.136  0.1283 -3.3342  0.0013
  979MOL0     H32110   9.173   7.877   3.076 -0.2054 -0.8374  0.7638
  979MOL0     H32111   9.054   7.911   3.194  0.0206  0.9357 -0.7595
  979MOL0     H32112   9.131   7.645   3.269  0.0973 -0.4280  0.0136
  979MOL0     H32113   9.185   7.802   3.338 -1.6312  0.3725 -0.8568
  979MOL0     H32114   9.347   7.629   3.268 -1.6827 -2.0121 -1.1904
  979MOL0     H32115   9.315   7.668   3.107 -0.4035  0.6597  0.4913
  979MOL0     H32116   9.547   7.781   3.400 -0.3868  0.5315  0.7274
  979MOL0     H32117   9.668   7.946   3.485 -0.1859  1.7647  0.1106
  979MOL0     H32118   9.768   8.006   3.352 -0.0726 -1.3772 -1.1406
  979MOL0     H32119   9.605   8.210   3.345  0.5945  0.3273 -0.2101
  979MOL0     H32120   9.549   8.163   3.516 -0.6268  0.4472 -1.0551
  979MOL0     H32121   9.697   8.348   3.508  1.0610  0.5352 -0.6114
  979MOL0     H32122   9.812   8.246   3.420 -0.9475 -0.4277 -0.8571
  979MOL0     H32123   9.739   8.175   3.710 -0.7281  0.1320 -0.2483
  979MOL0     H32124   9.878   8.274   3.655  1.2289 -1.5112  0.9939
  979MOL0     H32125  10.069   7.929   3.525  0.5320 -2.9771  0.4092
  979MOL0     H32126  10.273   7.890   3.622  0.5612  0.3372 -1.1018
  979MOL0     H32127  10.585   7.883   4.023 -1.6151 -0.7202 -0.2349
  979MOL0     H32128  10.817   7.908   4.083 -0.7460  1.4598 -0.2097
  979MOL0     H32129  11.008   8.181   4.015  1.8693  0.3649 -2.3900
  979MOL0     H32130  10.972   8.035   4.119 -0.9865  0.4739 -0.9671
  979MOL0     H32131  11.228   8.144   4.000 -4.1532  1.7480  0.9043
  979MOL0     H32132  11.207   8.092   4.168  0.7274  2.7044 -0.6447
  979MOL0     H32133  11.203   7.859   4.122  1.3078 -1.6602 -0.3425
  979MOL0     H32134  11.218   7.879   3.943  0.6991  1.9331 -1.0330
  979MOL0     H32135  11.413   7.960   4.174  3.0231  0.7417 -0.2823
  979MOL0     H32136  11.423   8.007   4.001 -1.7445  1.5704 -0.0277
  979MOL0     H32137  11.438   7.775   3.940 -1.1100  3.6321 -0.8974
  979MOL0     H32138  11.409   7.713   4.100  0.6605 -0.5609  0.4608
  979MOL0     H32139  11.650   7.884   4.004  0.2736  1.7283  0.8027
  979MOL0     H32140  11.618   7.821   4.178  0.1779 -2.1695  0.9621
  979MOL0     H32141  11.666   7.654   3.932 -0.0701 -1.2201 -0.2767
  979MOL0     H32142  11.631   7.589   4.090 -0.9906  0.3779 -1.9985
  979MOL0     H32143  11.887   7.615   4.017  4.0202  3.6526 -1.5133
  979MOL0     H32144  11.864   7.781   4.036  2.5571 -0.7237  1.6097
  979MOL0     H32145  10.899   8.032   3.679 -2.6969 -0.5047 -1.8529
  979MOL0     H32146  10.652   8.050   3.643 -0.8389 -1.5148 -0.0613
  979MOL0     H32147  10.141   8.119   3.978  3.4023 -2.1234  0.6438
  979MOL0     H32148   9.930   8.170   3.843 -1.3199 -1.5316 -1.5063
  979MOL0     H32149   8.542   7.297   3.013 -1.0088 -2.6990  0.8152
  979MOL0     H32150   8.318   7.298   2.917 -1.5732  0.8187 -1.5663
  979MOL0     H32151   8.050   7.389   2.577  1.1478 -0.9401 -3.6338
  979MOL0     H32152   7.801   7.417   2.517  2.5505  1.6951  0.8631
  979MOL0     H32153   7.660   7.364   2.338 -1.2981 -0.3283 -1.8708
  979MOL0     H32154   7.565   7.382   2.493 -0.6624 -0.3898 -0.0559
  979MOL0     H32155   7.403   7.226   2.391 -1.1013  1.7191 -0.9976
  979MOL0     H32156   7.514   7.193   2.264  0.4831  0.3114  0.4873
  979MOL0     H32157   7.494   7.414   2.172  0.8609 -1.5297  0.1680
  979MOL0     H32158   7.390   7.461   2.317 -0.8532 -0.9221  0.3832
  979MOL0     H32159   7.271   7.428   2.102  0.7122  2.4149  2.4800
  979MOL0     H32160   7.311   7.253   2.111 -2.6885  1.0734 -3.8272
  979MOL0     H32161   7.013   7.257   2.396  2.0313  2.6524  2.8896
  979MOL0     H32162   7.756   7.005   2.545 -0.7450  0.1823  2.1889
  979MOL0     H32163   7.971   6.927   2.761  0.7901 -0.5940  0.9116
  979MOL0     H32164   7.932   6.869   2.595 -1.3442  2.1271 -0.5343
  979MOL0     H32165   8.097   6.923   2.633 -0.4845 -0.8739 -2.3250
  980MOL0     O32166   8.677   6.947   8.419  0.5151  0.3134  0.8308
  980MOL0     C32167   8.589   7.028   8.429 -0.3985 -0.2265 -0.7824
  980MOL0     O32168   8.610   7.160   8.454  0.1879 -0.6500  0.4305
  980MOL0     C32169   8.730   7.223   8.460  0.2704 -0.0654 -0.3675
  980MOL0     C32170   8.854   7.175   8.403  0.3342 -0.2941  0.1626
  980MOL0     C32171   8.969   7.250   8.417 -0.4205  0.0120 -0.4484
  980MOL0     C32172   8.964   7.378   8.475 -0.5027 -0.2921  0.2290
  980MOL0     O32173   9.072   7.457   8.486 -0.1386 -0.4997  0.8790
  980MOL0     C32174   9.069   7.594   8.438 -0.0801  0.7761  0.5043
  980MOL0     C32175   9.163   7.590   8.315 -0.3893  0.4993  0.0574
  980MOL0     C32176   9.143   7.711   8.228 -0.3627  0.0500  0.0001
  980MOL0     C32177   9.016   7.718   8.141  0.8372  0.5493  0.1645
  980MOL0     C32178   8.977   7.603   8.053  1.0191 -0.0845  0.3310
  980MOL0     C32179   8.859   7.518   8.124 -0.0393 -0.3066  0.0475
  980MOL0     C32180   8.844   7.377   8.077 -0.0615  0.0304 -0.3686
  980MOL0     C32181   8.716   7.320   8.142 -0.6890 -0.2679  0.4845
  980MOL0     N32182   8.591   7.359   8.075 -0.3885 -0.8418  0.5205
  980MOL0     C32183   8.581   7.472   7.990  0.2002  0.4077 -0.3945
  980MOL0     C32184   8.446   7.468   7.959 -0.7661 -1.2639 -0.6225
  980MOL0     C32185   8.369   7.538   7.854  0.2428  0.8351  0.5226
  980MOL0     C32186   8.263   7.641   7.898  0.4241  0.7770 -0.3707
  980MOL0     C32187   8.323   7.775   7.938  0.0752 -0.0533 -0.5387
  980MOL0     C32188   8.326   7.883   7.828 -0.5670  0.3696 -0.2417
  980MOL0     O32189   8.390   8.011   7.863 -0.0035 -0.0449 -1.1120
  980MOL0     C32190   8.527   8.024   7.877 -0.1150 -1.1207 -0.6064
  980MOL0     C32191   8.566   8.157   7.910 -0.8570 -0.1789  0.2499
  980MOL0     C32192   8.698   8.191   7.930  0.0156 -0.7958  0.0182
  980MOL0     C32193   8.796   8.093   7.918 -0.2991 -0.2288  0.6629
  980MOL0     C32194   8.940   8.130   7.938 -1.1776 -0.2505 -0.7144
  980MOL0     O32195   9.039   8.030   7.921 -0.1473  0.0688  0.1408
  980MOL0     C32196   9.178   8.057   7.933 -0.6635  0.0381 -1.7060
  980MOL0     C32197   9.236   8.062   8.066  0.2329  0.6155 -0.4437
  980MOL0     C32198   9.376   8.077   8.087 -0.3648  0.4019 -0.2849
  980MOL0     C32199   9.468   8.063   7.984  0.8996  0.9727 -1.1378
  980MOL0     O32200   9.603   8.033   8.005 -0.2817 -0.0041 -0.0214
  980MOL0     C32201   9.678   8.113   8.097 -0.0144  0.4452  0.1412
  980MOL0     C32202   9.701   8.249   8.054 -0.1044  0.4698  0.3232
  980MOL0     C32203   9.787   8.251   7.938 -0.9438 -0.2315  0.4055
  980MOL0     C32204   9.789   8.389   7.872  0.2274  0.5781 -1.0108
  980MOL0     C32205   9.881   8.407   7.760 -0.3505  0.0272  0.0240
  980MOL0     C32206  10.030   8.420   7.811 -0.4551  0.4471  0.6544
  980MOL0     C32207  10.129   8.454   7.701  0.5360 -0.0456  0.6130
  980MOL0     C32208  10.274   8.441   7.752 -0.2531 -0.0020  0.4159
  980MOL0    Cl32209  10.313   8.276   7.795 -0.1315  0.2854  0.1754
  980MOL0     C32210   9.412   8.037   7.857  0.5248  0.2890  0.9472
  980MOL0     C32211   9.269   8.035   7.835 -0.1353  0.2297  0.8669
  980MOL0     O32212   8.968   8.243   7.963  1.0268 -0.4281 -0.9266
  980MOL0     C32213   8.757   7.963   7.874 -0.0343  0.1733 -0.4255
  980MOL0     C32214   8.627   7.923   7.862  0.7510 -0.6682  0.2113
  980MOL0     N32215   8.392   7.363   8.028  0.1112  0.2390  0.7324
  980MOL0     N32216   8.476   7.304   8.111  0.2879  0.2693  0.3464
  980MOL0     C32217   8.844   7.431   8.520 -0.0125 -0.2249 -0.5838
  980MOL0     C32218   8.725   7.351   8.515  0.6297 -0.5476 -0.6375
  980MOL0     C32219   8.450   6.987   8.406 -0.0599 -0.2065  0.5889
  980MOL0     C32220   8.347   7.090   8.384 -0.6837  0.1896  0.0019
  980MOL0     C32221   8.211   7.058   8.365  0.0109 -1.5333  0.5443
  980MOL0     C32222   8.170   6.925   8.361  0.2143 -0.4037 -0.2178
  980MOL0     O32223   8.044   6.868   8.345  0.3196 -0.6906  0.2361
  980MOL0     C32224   7.918   6.955   8.342 -0.7233 -0.1008  1.2222
  980MOL0     C32225   7.907   6.999   8.192  0.3373  0.0820  0.5040
  980MOL0     C32226   7.782   7.074   8.153 -0.1616 -0.5707  0.4906
  980MOL0     C32227   7.670   6.983   8.114  0.4444 -0.9707  1.6851
  980MOL0     C32228   7.548   7.054   8.074  0.3174 -0.2497 -0.4449
  980MOL0     C32229   7.448   7.114   8.030  0.3261 -0.6882 -0.1506
  980MOL0     C32230   8.269   6.828   8.376 -0.5698  0.0143  0.3848
  980MOL0     C32231   8.406   6.853   8.404 -0.1144 -0.1062  0.6517
  980MOL0     C32232   8.490   6.717   8.409 -0.1833 -0.3416 -0.0297
  980MOL0     H32233   8.858   7.075   8.361 -1.5929 -0.4220  0.2210
  980MOL0     H32234   9.066   7.208   8.392  0.4438  1.8294 -0.3858
  980MOL0     H32235   8.968   7.623   8.409 -0.2743 -0.1428  0.2118
  980MOL0     H32236   9.103   7.666   8.514  1.1994 -0.2870  0.9823
  980MOL0     H32237   9.147   7.501   8.253  0.5826  1.2309 -1.3024
  980MOL0     H32238   9.267   7.578   8.345 -0.3933 -0.5255 -0.2887
  980MOL0     H32239   9.221   7.708   8.152 -1.4358 -2.4564 -1.0960
  980MOL0     H32240   9.141   7.804   8.287 -1.1599  1.2977 -1.9141
  980MOL0     H32241   8.934   7.746   8.208  0.2728  1.0350 -0.7158
  980MOL0     H32242   9.023   7.803   8.073  0.4754  0.0672 -0.4771
  980MOL0     H32243   8.941   7.640   7.957 -1.3644 -2.0405  0.3446
  980MOL0     H32244   9.045   7.529   8.010 -0.7901 -1.9439  0.4707
  980MOL0     H32245   8.889   7.511   8.229  0.6238  0.8167 -0.0457
  980MOL0     H32246   8.767   7.577   8.126  0.2641  0.1660  2.1350
  980MOL0     H32247   8.922   7.316   8.124 -1.7855 -2.4072 -0.4849
  980MOL0     H32248   8.842   7.376   7.967  1.1965  0.6349 -0.4119
  980MOL0     H32249   8.712   7.211   8.149 -0.5863 -0.3291 -0.3104
  980MOL0     H32250   8.711   7.367   8.241 -3.9125  0.3497  0.1419
  980MOL0     H32251   8.661   7.534   7.952 -0.8693  2.0205 -0.1148
  980MOL0     H32252   8.437   7.573   7.776 -0.0694 -0.2064 -0.2379
  980MOL0     H32253   8.320   7.456   7.802 -2.2591  3.8487 -2.2997
  980MOL0     H32254   8.195   7.663   7.815 -0.9799  0.6809  0.7113
  980MOL0     H32255   8.211   7.607   7.988 -1.3662  2.8134 -0.5296
  980MOL0     H32256   8.419   7.762   7.989 -0.1486 -0.2754 -0.1652
  980MOL0     H32257   8.256   7.822   8.011  0.3642  3.7164 -2.4451
  980MOL0     H32258   8.223   7.901   7.797 -0.6520  1.5070  0.6227
  980MOL0     H32259   8.373   7.836   7.742  2.7420  2.7318  0.0873
  980MOL0     H32260   8.493   8.237   7.905  0.2648  0.8456 -0.4033
  980MOL0     H32261   8.730   8.295   7.936  2.2889 -1.3316 -1.5707
  980MOL0     H32262   9.171   8.052   8.152 -0.0331 -1.5043 -0.8284
  980MOL0     H32263   9.411   8.078   8.190 -0.2176 -0.7802 -0.2999
  980MOL0     H32264   9.631   8.107   8.196 -0.8380 -2.0360 -0.3313
  980MOL0     H32265   9.782   8.083   8.112 -0.1327  1.3252  3.7307
  980MOL0     H32266   9.604   8.294   8.028  0.0434 -0.0890 -1.3155
  980MOL0     H32267   9.742   8.307   8.137 -0.4398  2.5404 -0.8792
  980MOL0     H32268   9.890   8.236   7.970 -0.1648  0.0049 -1.8415
  980MOL0     H32269   9.764   8.173   7.865  1.2012  0.6910 -1.3445
  980MOL0     H32270   9.814   8.453   7.957 -0.5229 -0.6517  0.1670
  980MOL0     H32271   9.691   8.409   7.829  0.2937 -1.0922 -2.0527
  980MOL0     H32272   9.846   8.500   7.713 -2.1094 -1.2220 -1.2940
  980MOL0     H32273   9.863   8.321   7.695  0.2979  1.3541 -2.0205
  980MOL0     H32274  10.043   8.497   7.888  0.4210  1.5667 -0.5683
  980MOL0     H32275  10.071   8.336   7.868 -1.6516  0.5713  1.7252
  980MOL0     H32276  10.108   8.555   7.664 -0.8163 -0.7640 -0.7365
  980MOL0     H32277  10.117   8.382   7.619 -1.4119 -0.0232  0.8203
  980MOL0     H32278  10.331   8.466   7.662 -1.1771  0.1183 -0.1434
  980MOL0     H32279  10.303   8.513   7.830  1.6037  2.1995 -2.1178
  980MOL0     H32280   9.468   8.019   7.765 -0.5737  0.5271  0.2063
  980MOL0     H32281   9.241   8.028   7.730  1.4828 -1.7413  0.4982
  980MOL0     H32282   8.833   7.892   7.842  0.9109  0.5030  0.9793
  980MOL0     H32283   8.592   7.822   7.841 -3.1969  0.4053  0.7399
  980MOL0     H32284   8.824   7.532   8.554  2.7060  1.1044 -2.5012
  980MOL0     H32285   8.628   7.381   8.554 -0.0751 -0.7885 -2.1249
  980MOL0     H32286   8.368   7.196   8.379 -0.4480  0.0885 -1.3439
  980MOL0     H32287   8.140   7.140   8.357 -0.7085 -2.0956  0.9862
  980MOL0     H32288   7.928   7.044   8.405 -0.7503  2.2640 -1.8580
  980MOL0     H32289   7.825   6.907   8.375 -0.4359  0.2437  2.6104
  980MOL0     H32290   7.934   6.923   8.119  1.1755  1.0773 -0.2450
  980MOL0     H32291   7.994   7.063   8.176 -0.4462  1.0783  0.1504
  980MOL0     H32292   7.803   7.141   8.070 -3.7741  1.5593  1.0774
  980MOL0     H32293   7.753   7.139   8.236  3.0892  0.0235  1.3145
  980MOL0     H32294   7.704   6.938   8.020 -0.5102 -1.8241  1.7332
  980MOL0     H32295   7.652   6.909   8.193  0.9965 -0.1101  2.6530
  980MOL0     H32296   7.368   7.177   7.995  1.0890  0.6397  0.4140
  980MOL0     H32297   8.243   6.723   8.364 -0.3574 -0.4155  2.9912
  980MOL0     H32298   8.520   6.703   8.304 -0.1142  1.8766 -0.3616
  980MOL0     H32299   8.577   6.727   8.473  0.0101  1.8787 -0.5495
  980MOL0     H32300   8.434   6.631   8.448  1.2090 -0.2358  2.3782
  981MOL0     O32301   7.611  10.652   7.228  0.7111  0.1512 -0.4422
  981MOL0     C32302   7.507  10.583   7.197 -0.2903 -0.8410 -0.1416
  981MOL0     O32303   7.513  10.451   7.159 -0.0022 -0.0173 -0.0595
  981MOL0     C32304   7.636  10.408   7.132 -0.9411  0.5160 -0.2508
  981MOL0     C32305   7.746  10.403   7.217 -0.2117 -0.7860 -0.0814
  981MOL0     C32306   7.872  10.369   7.175  0.5448 -0.2885  0.3131
  981MOL0     C32307   7.893  10.327   7.043 -0.1626 -0.2505 -0.7551
  981MOL0     O32308   8.005  10.283   6.982  0.3351  0.5415  0.2538
  981MOL0     C32309   8.126  10.271   7.060 -0.4744 -0.0483  0.7998
  981MOL0     C32310   8.211  10.400   7.034 -0.4182  0.1886 -0.3632
  981MOL0     C32311   8.340  10.385   7.115 -0.4555 -0.0929  0.5444
  981MOL0     C32312   8.449  10.479   7.066 -0.1469 -0.4122 -0.0198
  981MOL0     C32313   8.572  10.478   7.144  0.4056  0.1566  0.2251
  981MOL0     C32314   8.662  10.352   7.116  0.5236  0.0897  0.1672
  981MOL0     C32315   8.807  10.363   7.161  0.3301  0.1625 -0.5227
  981MOL0     C32316   8.888  10.452   7.071  0.3890  0.6856  0.0618
  981MOL0     N32317   9.025  10.472   7.108  0.4000 -0.3333 -0.4346
  981MOL0     C32318   9.131  10.412   7.050 -0.0948  0.2886 -0.1468
  981MOL0     C32319   9.234  10.432   7.134  0.0680  0.3199 -0.2595
  981MOL0     C32320   9.369  10.366   7.120 -0.1601 -0.2311  0.9952
  981MOL0     C32321   9.472  10.431   7.199 -0.1973 -0.8241  0.1213
  981MOL0     C32322   9.613  10.371   7.178  0.3158 -0.2887 -0.2028
  981MOL0     C32323   9.720  10.450   7.240  0.8782  0.4520 -0.0747
  981MOL0     O32324   9.846  10.380   7.223 -0.2701 -0.0589 -0.7610
  981MOL0     C32325   9.956  10.449   7.250  0.4769  0.0972 -0.3638
  981MOL0     C32326  10.068  10.384   7.222 -0.2927  0.1926 -0.3783
  981MOL0     C32327  10.193  10.442   7.229 -0.0855 -0.2238  0.3729
  981MOL0     C32328  10.201  10.568   7.296  0.7788 -0.2576  0.5706
  981MOL0     C32329  10.338  10.619   7.333 -0.1654  0.0288  0.1111
  981MOL0     O32330  10.444  10.528   7.353 -0.3770  0.2967  0.4859
  981MOL0     C32331  10.558  10.569   7.419 -0.0202  0.6018  0.3652
  981MOL0     C32332  10.600  10.482   7.519 -0.3877 -0.3036  0.3107
  981MOL0     C32333  10.718  10.514   7.578  0.4289 -0.1286 -0.0589
  981MOL0     C32334  10.780  10.635   7.554  0.0202 -0.3482  0.5285
  981MOL0     O32335  10.895  10.664   7.621  0.0610  0.7477  0.2571
  981MOL0     C32336  10.897  10.649   7.762 -0.7779  0.7148 -0.6046
  981MOL0     C32337  10.940  10.785   7.818 -0.0133 -0.4880  0.4067
  981MOL0     C32338  11.086  10.827   7.768  0.2494  0.2831  0.2048
  981MOL0     C32339  11.136  10.965   7.824  0.8905  0.3413 -0.0582
  981MOL0     C32340  11.264  11.019   7.772  0.3153 -0.3842 -0.3579
  981MOL0     C32341  11.383  10.921   7.786 -0.9450 -0.1042 -0.8100
  981MOL0     C32342  11.510  10.974   7.728  0.2740  0.0312  0.0465
  981MOL0     C32343  11.516  10.951   7.579  0.3536 -0.0898  0.0725
  981MOL0    Cl32344  11.673  11.018   7.526  0.4628  0.1492 -0.0570
  981MOL0     C32345  10.742  10.723   7.460  0.7546  0.4055  1.0345
  981MOL0     C32346  10.629  10.689   7.387 -0.5140 -0.1116  0.1934
  981MOL0     O32347  10.352  10.738   7.348  0.6166 -0.0742 -0.6231
  981MOL0     C32348  10.085  10.636   7.343 -0.3777 -0.0842 -0.3473
  981MOL0     C32349   9.967  10.577   7.307  0.4398  0.0358  0.8708
  981MOL0     N32350   9.187  10.511   7.249 -0.9899  0.3693  0.0694
  981MOL0     N32351   9.062  10.524   7.231 -0.0832  0.4587  0.4705
  981MOL0     C32352   7.786  10.312   6.965 -0.0841  0.0834  0.2457
  981MOL0     C32353   7.659  10.351   7.004 -0.8620  0.3608 -0.5802
  981MOL0     C32354   7.367  10.646   7.194 -0.1342  0.0342  0.5288
  981MOL0     C32355   7.253  10.564   7.180 -0.6425 -0.1440  0.3256
  981MOL0     C32356   7.121  10.604   7.172 -0.3107  0.1018  1.0224
  981MOL0     C32357   7.096  10.741   7.170 -0.1662 -0.8068  0.9296
  981MOL0     O32358   6.963  10.779   7.178 -0.3047 -0.2558 -0.3412
  981MOL0     C32359   6.932  10.902   7.258  0.2275  0.5893 -0.1691
  981MOL0     C32360   6.781  10.902   7.295  0.3431 -0.6062  0.4919
  981MOL0     C32361   6.709  10.971   7.183  0.8661  0.3605 -0.0117
  981MOL0     C32362   6.554  10.971   7.218 -0.5483  0.9636 -0.0448
  981MOL0     C32363   6.487  11.055   7.115 -0.2767 -0.2006  0.0928
  981MOL0     C32364   6.416  11.109   7.042 -0.3588 -0.5569  0.0565
  981MOL0     C32365   7.209  10.830   7.171  0.6401 -0.2007 -0.3943
  981MOL0     C32366   7.342  10.789   7.186 -0.1933 -0.3968 -1.1029
  981MOL0     C32367   7.445  10.900   7.211  0.3427 -0.0111  0.5217
  981MOL0     H32368   7.744  10.439   7.319  1.5246  1.1429 -0.6722
  981MOL0     H32369   7.956  10.365   7.243  1.5306  4.2826 -0.3321
  981MOL0     H32370   8.122  10.245   7.166  0.8071 -2.4357  0.3294
  981MOL0     H32371   8.192  10.200   7.010  2.5391  3.2312 -0.3269
  981MOL0     H32372   8.148  10.484   7.063 -0.1861  0.9426 -1.8930
  981MOL0     H32373   8.241  10.415   6.930  0.9932  0.9892  0.1329
  981MOL0     H32374   8.384  10.286   7.102  3.5605  1.3916  1.2321
  981MOL0     H32375   8.327  10.402   7.223  1.9817  0.8300  0.7480
  981MOL0     H32376   8.475  10.454   6.963  0.9294 -2.3230  0.6584
  981MOL0     H32377   8.400  10.577   7.075  2.1793  0.6984  1.3241
  981MOL0     H32378   8.624  10.568   7.111 -0.3416  0.7888  0.7168
  981MOL0     H32379   8.543  10.488   7.249 -1.7593  2.7751 -0.5044
  981MOL0     H32380   8.614  10.268   7.168  1.0827  0.7928  1.8932
  981MOL0     H32381   8.660  10.326   7.010 -1.3186 -0.7826  0.3611
  981MOL0     H32382   8.856  10.266   7.152  1.5058  0.6369  0.4976
  981MOL0     H32383   8.821  10.404   7.262  1.3981 -1.0445 -0.1513
  981MOL0     H32384   8.881  10.412   6.969 -1.7585 -2.2131  1.2283
  981MOL0     H32385   8.831  10.545   7.068 -0.4013  0.3088  2.0712
  981MOL0     H32386   9.135  10.347   6.963  0.7515  1.6312 -1.1735
  981MOL0     H32387   9.350  10.264   7.156  1.2637 -0.2163  1.8254
  981MOL0     H32388   9.395  10.365   7.014  3.4037 -0.5768  1.7612
  981MOL0     H32389   9.467  10.538   7.177  1.0146 -0.2700  2.2873
  981MOL0     H32390   9.446  10.428   7.305 -3.0497 -0.3099 -0.4881
  981MOL0     H32391   9.626  10.364   7.070  2.0418  0.5613 -0.0892
  981MOL0     H32392   9.617  10.267   7.212  1.9613 -0.8529 -1.9346
  981MOL0     H32393   9.693  10.477   7.343 -1.7314  0.2594 -0.6307
  981MOL0     H32394   9.727  10.545   7.186  0.1350  0.3749 -0.3160
  981MOL0     H32395  10.062  10.283   7.184 -3.2169 -0.1536  0.7464
  981MOL0     H32396  10.281  10.385   7.203  0.4226  0.8307 -0.3020
  981MOL0     H32397  10.546  10.390   7.540  0.9874 -1.5547 -1.3162
  981MOL0     H32398  10.750  10.450   7.660 -0.6694  1.6294  1.8358
  981MOL0     H32399  10.801  10.621   7.806 -0.7532  2.2516  0.4964
  981MOL0     H32400  10.962  10.565   7.788 -2.1981 -0.4027 -0.5496
  981MOL0     H32401  10.860  10.858   7.803 -1.5411 -2.3220 -0.8600
  981MOL0     H32402  10.944  10.778   7.927 -2.0449 -0.4348  0.5231
  981MOL0     H32403  11.148  10.748   7.811  0.2685 -0.0600 -0.4542
  981MOL0     H32404  11.086  10.838   7.659 -1.5287  4.6736  0.4384
  981MOL0     H32405  11.145  10.955   7.933 -3.2043 -0.5550  0.3609
  981MOL0     H32406  11.052  11.034   7.813  0.4789  0.2769  2.1968
  981MOL0     H32407  11.293  11.099   7.841 -2.8114  1.4643 -1.0100
  981MOL0     H32408  11.251  11.068   7.676 -1.0641  1.1941  0.5809
  981MOL0     H32409  11.393  10.894   7.891 -1.4379  1.3674 -0.3543
  981MOL0     H32410  11.367  10.827   7.732  1.0253 -0.2814 -1.1420
  981MOL0     H32411  11.587  10.920   7.784 -2.0483  1.6877  5.5407
  981MOL0     H32412  11.518  11.083   7.741  1.6014 -0.2864  2.4616
  981MOL0     H32413  11.522  10.848   7.545  2.8724  0.3510 -1.0200
  981MOL0     H32414  11.432  10.995   7.526 -0.8389 -1.6202  0.6026
  981MOL0     H32415  10.802  10.814   7.454  0.2287  0.6944 -0.3614
  981MOL0     H32416  10.598  10.763   7.314  2.1011  0.6641 -0.2323
  981MOL0     H32417  10.083  10.732   7.392 -0.3798  0.1264 -0.7504
  981MOL0     H32418   9.876  10.631   7.329  0.9523  1.2138  0.1888
  981MOL0     H32419   7.796  10.272   6.864 -1.9965  1.0735 -0.3845
  981MOL0     H32420   7.574  10.338   6.937 -0.9592  3.6017 -1.2442
  981MOL0     H32421   7.254  10.457   7.163 -2.1471 -0.1609  0.1451
  981MOL0     H32422   7.043  10.530   7.189 -0.8589  0.0488 -1.3029
  981MOL0     H32423   6.962  10.994   7.206 -1.9639  1.0131 -0.7682
  981MOL0     H32424   6.995  10.899   7.348  2.5683  2.4190 -1.6019
  981MOL0     H32425   6.764  10.970   7.380  0.0270  0.9444 -0.7585
  981MOL0     H32426   6.743  10.803   7.321  0.2429 -1.0085 -1.1031
  981MOL0     H32427   6.721  10.915   7.090  2.4591  1.0883 -0.2730
  981MOL0     H32428   6.749  11.073   7.176 -1.7061  1.9366  4.2317
  981MOL0     H32429   6.509  10.871   7.223 -1.6899  1.5050  0.8813
  981MOL0     H32430   6.537  11.021   7.314 -0.6721  0.0256  0.4391
  981MOL0     H32431   6.351  11.158   6.972  0.1505 -1.4945 -1.1097
  981MOL0     H32432   7.196  10.937   7.174  2.1372  0.0061  2.4218
  981MOL0     H32433   7.399  10.997   7.231 -0.9358 -0.6920  1.0009
  981MOL0     H32434   7.507  10.873   7.296  2.0612  2.0667  0.0005
  981MOL0     H32435   7.507  10.908   7.121 -1.9243 -0.2943 -1.1707
  982MOL0     O32436   3.199   6.089   3.354 -0.5666  0.4674 -0.3871
  982MOL0     C32437   3.146   6.044   3.252  0.1333 -0.4743  0.0851
  982MOL0     O32438   3.191   5.945   3.172  0.0496 -0.4013  0.3469
  982MOL0     C32439   3.292   5.860   3.209  0.8056  0.4410 -0.7654
  982MOL0     C32440   3.335   5.774   3.101 -0.5277 -0.0075  0.3774
  982MOL0     C32441   3.434   5.676   3.130 -0.3788 -0.3941  0.4027
  982MOL0     C32442   3.504   5.667   3.255 -0.3776 -0.2595  1.1895
  982MOL0     O32443   3.599   5.573   3.271 -0.5265  1.0010 -0.0619
  982MOL0     C32444   3.651   5.547   3.405 -0.1874 -1.3753 -0.0047
  982MOL0     C32445   3.739   5.422   3.407 -0.2938 -0.4485 -0.3831
  982MOL0     C32446   3.833   5.420   3.286 -0.6816 -0.2263 -0.2888
  982MOL0     C32447   3.977   5.372   3.315 -0.4128  0.9910 -0.5441
  982MOL0     C32448   4.086   5.403   3.211  0.1081  0.0264 -0.0850
  982MOL0     C32449   4.221   5.316   3.222  0.0103 -0.1078 -0.5587
  982MOL0     C32450   4.320   5.361   3.112  0.5009 -0.2113 -0.6464
  982MOL0     C32451   4.415   5.259   3.060 -0.8080  0.3779 -0.2249
  982MOL0     N32452   4.526   5.237   3.158 -0.5066 -0.3743 -0.4974
  982MOL0     C32453   4.618   5.332   3.200 -0.6520 -0.4165 -0.0498
  982MOL0     C32454   4.708   5.270   3.278 -0.3210  0.1109 -0.1597
  982MOL0     C32455   4.836   5.335   3.332  0.8352  0.5224 -0.0558
  982MOL0     C32456   4.811   5.357   3.482  0.4788 -0.5012 -0.3081
  982MOL0     C32457   4.937   5.364   3.561 -0.5947 -0.2136 -0.2013
  982MOL0     C32458   5.045   5.437   3.490 -0.8104 -0.9359  0.2231
  982MOL0     O32459   5.154   5.452   3.581 -0.3392 -0.2944 -0.2727
  982MOL0     C32460   5.280   5.479   3.539  0.5805 -0.7676  0.5382
  982MOL0     C32461   5.310   5.544   3.413 -0.2139 -0.4092  0.3264
  982MOL0     C32462   5.450   5.553   3.384  0.0563  0.0605 -0.1404
  982MOL0     C32463   5.545   5.499   3.458 -0.4703 -0.5065  0.5614
  982MOL0     C32464   5.687   5.521   3.429  0.3101 -0.4039  0.5775
  982MOL0     O32465   5.770   5.485   3.531  0.3292  0.2990 -0.0092
  982MOL0     C32466   5.905   5.495   3.528 -0.1343  0.2006 -1.1342
  982MOL0     C32467   5.967   5.521   3.654 -0.1781  1.0995 -0.4355
  982MOL0     C32468   6.105   5.523   3.662  0.4303 -0.1940 -0.0549
  982MOL0     C32469   6.186   5.508   3.556 -0.0733  0.5758  0.7284
  982MOL0     O32470   6.325   5.510   3.571 -0.7022 -1.3708  0.5315
  982MOL0     C32471   6.400   5.594   3.479  0.0008 -1.3989 -0.5570
  982MOL0     C32472   6.551   5.576   3.503 -0.2787  0.4764 -0.4335
  982MOL0     C32473   6.648   5.661   3.410  0.1848  0.2613  0.5935
  982MOL0     C32474   6.757   5.738   3.487  1.0712 -0.9000  0.0574
  982MOL0     C32475   6.879   5.648   3.522  0.3022  0.3719  0.9769
  982MOL0     C32476   6.970   5.631   3.400  0.0982 -0.7023 -0.9182
  982MOL0     C32477   7.107   5.573   3.452  0.1506  0.3603 -0.6842
  982MOL0     C32478   7.183   5.500   3.348 -0.2430  0.0608 -0.6556
  982MOL0    Cl32479   7.361   5.496   3.395 -0.0227 -0.2872 -0.1470
  982MOL0     C32480   6.122   5.502   3.427  0.2800  0.0674  0.5625
  982MOL0     C32481   5.984   5.490   3.415 -0.2962 -0.2567  0.6046
  982MOL0     O32482   5.725   5.572   3.323  0.3526 -0.4443  0.6726
  982MOL0     C32483   5.507   5.416   3.569 -0.0216 -0.2703 -0.7012
  982MOL0     C32484   5.377   5.421   3.620 -0.4866  0.5814  0.7766
  982MOL0     N32485   4.669   5.137   3.288 -0.9426  0.9673  1.3131
  982MOL0     N32486   4.567   5.114   3.208  0.0054  0.1770  1.3175
  982MOL0     C32487   3.454   5.752   3.359  0.3768 -0.0559  0.1270
  982MOL0     C32488   3.350   5.844   3.336  0.0771  0.0431 -0.0389
  982MOL0     C32489   3.029   6.124   3.216  0.2794  0.4627  0.4322
  982MOL0     C32490   2.960   6.083   3.099 -0.0554  0.0734 -0.3633
  982MOL0     C32491   2.844   6.152   3.052 -0.0371  0.2382 -0.0701
  982MOL0     C32492   2.789   6.256   3.128  1.4730  0.7620 -1.2242
  982MOL0     O32493   2.677   6.323   3.093 -0.0289 -0.5358  0.0984
  982MOL0     C32494   2.585   6.262   3.000 -0.0257 -0.2611 -0.6276
  982MOL0     C32495   2.608   6.300   2.852 -0.3578 -0.1706 -0.1114
  982MOL0     C32496   2.564   6.194   2.748 -0.5315  0.7447 -0.6275
  982MOL0     C32497   2.613   6.225   2.606 -0.5305 -0.1544  0.0762
  982MOL0     C32498   2.550   6.132   2.510  0.3140 -0.5857  0.5107
  982MOL0     C32499   2.509   6.046   2.438 -0.3855  0.1604 -0.6048
  982MOL0     C32500   2.859   6.302   3.241 -0.2824 -0.0985 -0.5197
  982MOL0     C32501   2.981   6.243   3.286  0.0777 -0.6810  0.1125
  982MOL0     C32502   3.030   6.298   3.425  0.3392  0.1764  0.0957
  982MOL0     H32503   3.311   5.789   2.996 -0.1878 -0.4696  0.2303
  982MOL0     H32504   3.477   5.614   3.052  3.9157  2.4310  0.1829
  982MOL0     H32505   3.702   5.636   3.445  0.5929 -1.3503 -1.0141
  982MOL0     H32506   3.576   5.538   3.484  0.9861  3.3563  1.9991
  982MOL0     H32507   3.687   5.326   3.418  0.6535 -0.7511  2.3286
  982MOL0     H32508   3.800   5.435   3.497  0.3064  2.4559 -1.0861
  982MOL0     H32509   3.837   5.518   3.237 -1.5492  0.8330  1.6667
  982MOL0     H32510   3.790   5.355   3.209  0.9440  0.7838 -2.1409
  982MOL0     H32511   4.010   5.413   3.412  0.5721  1.5867 -1.1113
  982MOL0     H32512   3.971   5.264   3.333  0.8993  1.1176  0.9646
  982MOL0     H32513   4.043   5.401   3.110 -0.7283  2.8388  0.1252
  982MOL0     H32514   4.115   5.507   3.225  1.7637 -0.1268 -1.9915
  982MOL0     H32515   4.262   5.348   3.318 -2.2976  2.4914 -0.3215
  982MOL0     H32516   4.205   5.208   3.222 -1.4563  0.0861  0.3370
  982MOL0     H32517   4.376   5.447   3.151 -0.3220  0.1321 -0.1956
  982MOL0     H32518   4.252   5.376   3.028 -3.5039 -2.2449  1.9324
  982MOL0     H32519   4.352   5.172   3.040 -3.7983  2.6071 -1.3519
  982MOL0     H32520   4.455   5.290   2.963  0.8774 -1.6329 -0.2437
  982MOL0     H32521   4.613   5.438   3.177  0.3412 -0.6018 -1.2098
  982MOL0     H32522   4.916   5.260   3.325  0.5875  0.3576 -1.3469
  982MOL0     H32523   4.859   5.432   3.287 -0.1349  1.7786  2.0447
  982MOL0     H32524   4.747   5.442   3.506 -0.5422 -0.9425 -1.3622
  982MOL0     H32525   4.772   5.266   3.528  0.6424 -0.4162  0.0047
  982MOL0     H32526   4.981   5.264   3.569  1.9557  0.4767 -3.2883
  982MOL0     H32527   4.932   5.409   3.661  1.5424 -2.6093  1.0846
  982MOL0     H32528   4.999   5.527   3.449  0.4947 -1.0028 -1.5291
  982MOL0     H32529   5.079   5.374   3.406 -0.1402  1.5214 -1.4540
  982MOL0     H32530   5.229   5.588   3.356  2.1451  2.5436 -1.0583
  982MOL0     H32531   5.478   5.618   3.302 -0.7335  1.8603  0.9628
  982MOL0     H32532   5.910   5.535   3.745  0.6464 -1.0583  0.4812
  982MOL0     H32533   6.149   5.547   3.759 -3.0361  0.5860  1.4826
  982MOL0     H32534   6.379   5.568   3.375  2.0752 -2.4212 -0.7632
  982MOL0     H32535   6.380   5.701   3.492  0.8462 -1.3516  0.4810
  982MOL0     H32536   6.576   5.592   3.608 -3.0703 -0.1005  0.4103
  982MOL0     H32537   6.568   5.468   3.495 -1.8502  0.1048  0.6625
  982MOL0     H32538   6.676   5.594   3.329 -2.2828 -0.5652  0.3142
  982MOL0     H32539   6.577   5.733   3.368  0.4966  0.0065 -0.3924
  982MOL0     H32540   6.705   5.780   3.574 -1.6722  2.2821 -2.8128
  982MOL0     H32541   6.787   5.830   3.436 -1.3875  0.6492  1.2251
  982MOL0     H32542   6.861   5.553   3.572  0.7559 -0.4326 -0.3323
  982MOL0     H32543   6.944   5.701   3.592  4.1509 -1.5073 -0.8711
  982MOL0     H32544   6.922   5.564   3.329 -0.0621 -1.2083 -0.3391
  982MOL0     H32545   6.986   5.731   3.358  0.0903 -1.1672 -2.0679
  982MOL0     H32546   7.089   5.505   3.536  0.9426 -0.9134 -1.5275
  982MOL0     H32547   7.156   5.662   3.492 -1.9282  0.6318  1.5915
  982MOL0     H32548   7.139   5.403   3.325 -0.3954  0.1647 -0.8107
  982MOL0     H32549   7.170   5.546   3.249 -2.3837 -0.6769 -0.7726
  982MOL0     H32550   6.173   5.501   3.331 -1.6438  1.1156 -0.5343
  982MOL0     H32551   5.933   5.489   3.320 -0.2512  2.3429  0.5030
  982MOL0     H32552   5.574   5.366   3.638 -1.8050 -2.5922 -0.5386
  982MOL0     H32553   5.355   5.371   3.713  0.4331  0.6195  1.0243
  982MOL0     H32554   3.482   5.733   3.462  1.1988 -0.7796 -0.2153
  982MOL0     H32555   3.321   5.909   3.418 -0.5997 -0.8927  0.4811
  982MOL0     H32556   2.983   6.002   3.031  0.0385 -1.3807  1.3287
  982MOL0     H32557   2.801   6.130   2.955  1.0350  1.2211 -0.7985
  982MOL0     H32558   2.483   6.299   3.014 -0.8324 -3.0071  1.6165
  982MOL0     H32559   2.582   6.154   3.014 -0.6683 -0.0122  1.6031
  982MOL0     H32560   2.714   6.319   2.838 -0.2426  0.2208  1.1479
  982MOL0     H32561   2.549   6.388   2.826 -2.5781 -0.4810  3.2269
  982MOL0     H32562   2.456   6.180   2.751 -0.2533 -1.5956 -0.1567
  982MOL0     H32563   2.593   6.095   2.783  0.3684  0.9417 -0.7850
  982MOL0     H32564   2.584   6.324   2.570  0.7732 -0.0268 -0.6774
  982MOL0     H32565   2.723   6.223   2.611 -0.5277 -0.2075  0.0001
  982MOL0     H32566   2.482   5.977   2.360  2.3303  0.7669 -2.2002
  982MOL0     H32567   2.822   6.385   3.300 -1.3743 -1.0667  0.2112
  982MOL0     H32568   2.973   6.383   3.463 -0.0856  0.1972 -0.5599
  982MOL0     H32569   3.032   6.213   3.494  0.5493  0.0666 -0.0433
  982MOL0     H32570   3.131   6.336   3.409  0.0532 -0.1267 -3.1898
  983MOL0     O32571   0.599   9.684  10.447  0.5043 -0.1919 -0.1086
  983MOL0     C32572   0.541   9.761  10.516  0.8174  0.5374  0.5622
  983MOL0     O32573   0.600   9.863  10.581  0.2633  0.3508 -0.1267
  983MOL0     C32574   0.706   9.838  10.658 -0.6297 -0.2413 -0.0095
  983MOL0     C32575   0.814   9.767  10.616 -0.2491 -0.7971 -0.3159
  983MOL0     C32576   0.917   9.723  10.699 -0.0956 -0.0065 -1.0130
  983MOL0     C32577   0.917   9.755  10.834 -0.4248  0.3757 -0.6701
  983MOL0     O32578   1.016   9.709  10.922 -0.4055 -0.1296  0.1222
  983MOL0     C32579   1.012   9.734  11.065 -0.2529 -0.1007 -0.2589
  983MOL0     C32580   1.146   9.681  11.123  0.0595 -0.3957 -0.2628
  983MOL0     C32581   1.264   9.778  11.103  0.7799  0.4926 -0.7586
  983MOL0     C32582   1.390   9.726  11.170 -0.1274 -0.8146 -0.5140
  983MOL0     C32583   1.510   9.817  11.138  0.0076 -0.1876 -1.1473
  983MOL0     C32584   1.639   9.744  11.183 -0.1092  0.5689 -0.5946
  983MOL0     C32585   1.769   9.819  11.178  0.1098 -0.0693 -0.6788
  983MOL0     C32586   1.831   9.842  11.041 -0.4970  0.4945  0.0909
  983MOL0     N32587   1.951   9.922  11.054 -0.3000 -1.1960  0.8222
  983MOL0     C32588   1.969  10.049  11.013  0.2199  0.0784 -0.0035
  983MOL0     C32589   2.104  10.071  11.011 -0.4139  0.1342 -0.8657
  983MOL0     C32590   2.177  10.202  10.987  0.3114 -0.0719 -0.0632
  983MOL0     C32591   2.143  10.283  11.113 -0.3647 -0.8346 -0.7984
  983MOL0     C32592   2.228  10.413  11.130  0.2035  0.2172 -0.9730
  983MOL0     C32593   2.369  10.366  11.173  0.5747 -0.4910  0.4029
  983MOL0     O32594   2.450  10.486  11.196 -0.3523 -0.3162  0.5974
  983MOL0     C32595   2.586  10.475  11.220 -0.2997  0.4533 -0.4563
  983MOL0     C32596   2.646  10.350  11.268  0.3369 -1.4693  0.6336
  983MOL0     C32597   2.776  10.348  11.302 -1.3913 -0.1101 -0.1542
  983MOL0     C32598   2.859  10.467  11.291  0.3212 -0.3114 -0.1366
  983MOL0     C32599   3.000  10.466  11.331 -0.2780  0.4758 -0.1801
  983MOL0     O32600   3.061  10.343  11.345 -0.3524 -0.3687 -0.1210
  983MOL0     C32601   3.192  10.320  11.384  0.5507  0.7619  0.0010
  983MOL0     C32602   3.228  10.192  11.356 -0.2717  0.2544 -0.4464
  983MOL0     C32603   3.356  10.149  11.381 -0.0241 -0.2053  0.8730
  983MOL0     C32604   3.448  10.235  11.441  0.3719 -0.7507 -0.6736
  983MOL0     O32605   3.570  10.189  11.471 -0.3866  0.1698  0.1435
  983MOL0     C32606   3.676  10.262  11.397  0.0350 -0.6288  0.2194
  983MOL0     C32607   3.812  10.194  11.416 -0.6567 -0.9263  0.2980
  983MOL0     C32608   3.808  10.044  11.378  0.6806 -0.2758 -0.0437
  983MOL0     C32609   3.741  10.013  11.237 -0.0571 -0.6127 -0.4012
  983MOL0     C32610   3.757   9.872  11.190  0.3039  0.6622  0.7951
  983MOL0     C32611   3.905   9.835  11.179 -0.5170  0.8368 -0.3442
  983MOL0     C32612   3.927   9.700  11.107  0.2701  0.1767  0.5267
  983MOL0     C32613   4.068   9.646  11.094 -1.2121 -0.2511 -0.4776
  983MOL0    Cl32614   4.153   9.604  11.257  0.2122  0.4650  0.1476
  983MOL0     C32615   3.414  10.365  11.474 -0.2444 -0.0367  0.1001
  983MOL0     C32616   3.285  10.415  11.434 -0.2243 -0.1406 -0.6394
  983MOL0     O32617   3.061  10.571  11.336 -0.4129  0.1097  0.8903
  983MOL0     C32618   2.799  10.585  11.241 -1.1792  0.5322  0.3060
  983MOL0     C32619   2.664  10.588  11.211 -0.4186 -0.5673 -0.1192
  983MOL0     N32620   2.173   9.954  11.039  0.5336  0.2837  0.0779
  983MOL0     N32621   2.079   9.875  11.069 -0.0671 -0.5790 -0.2122
  983MOL0     C32622   0.813   9.836  10.875 -0.3532 -0.0150 -0.1958
  983MOL0     C32623   0.707   9.882  10.792  0.4708 -0.2003  0.9251
  983MOL0     C32624   0.390   9.760  10.512  0.3517 -0.1189  0.2039
  983MOL0     C32625   0.328   9.675  10.407  0.0967 -0.2617 -0.0008
  983MOL0     C32626   0.191   9.673  10.392  0.3347  0.8706 -0.0103
  983MOL0     C32627   0.110   9.743  10.478  0.0549 -0.6092  0.1932
  983MOL0     O32628  -0.021   9.737  10.442 -0.8570  0.0964  0.6054
  983MOL0     C32629  -0.123   9.786  10.524 -0.1370 -0.3513  0.2783
  983MOL0     C32630  -0.252   9.742  10.447  0.5954 -0.5826 -0.1088
  983MOL0     C32631  -0.377   9.740  10.534  0.1253  0.5988  0.1367
  983MOL0     C32632  -0.377   9.608  10.613  0.2125  0.3126  1.0358
  983MOL0     C32633  -0.503   9.602  10.679 -1.8009  0.4386 -0.4917
  983MOL0     C32634  -0.598   9.583  10.741  0.0822  0.1463 -0.7467
  983MOL0     C32635   0.157   9.818  10.576  0.1073 -0.5170 -1.4987
  983MOL0     C32636   0.297   9.837  10.594 -0.3770  0.4996  0.0218
  983MOL0     C32637   0.345   9.931  10.700  0.0966  0.1650 -0.1777
  983MOL0     H32638   0.827   9.750  10.510 -0.2706 -0.1561 -0.4276
  983MOL0     H32639   0.988   9.650  10.662 -0.2018  0.1568 -1.5420
  983MOL0     H32640   1.009   9.841  11.089 -0.4187 -0.3562  0.9689
  983MOL0     H32641   0.926   9.686  11.114  1.6829 -2.1251  1.3894
  983MOL0     H32642   1.173   9.580  11.088  3.3334 -0.3077  1.5900
  983MOL0     H32643   1.121   9.669  11.228  2.6903  0.8346  0.5815
  983MOL0     H32644   1.251   9.875  11.151  1.5910  1.5557 -2.5468
  983MOL0     H32645   1.283   9.790  10.995 -1.2957 -2.1800 -1.5176
  983MOL0     H32646   1.378   9.713  11.278 -2.3203 -0.9441 -0.7162
  983MOL0     H32647   1.410   9.629  11.126 -1.4875 -0.8551 -1.0868
  983MOL0     H32648   1.509   9.841  11.031  1.5063 -1.1595 -1.4079
  983MOL0     H32649   1.493   9.907  11.197 -0.9464 -1.1061  0.0273
  983MOL0     H32650   1.632   9.702  11.283  1.6452 -3.1312 -1.8241
  983MOL0     H32651   1.657   9.651  11.128 -1.1508  0.2979 -0.4884
  983MOL0     H32652   1.846   9.761  11.231  0.5647  1.4483  0.3770
  983MOL0     H32653   1.762   9.910  11.238  2.1205 -0.7597  0.6979
  983MOL0     H32654   1.854   9.744  10.997 -0.8268  0.9388 -1.0915
  983MOL0     H32655   1.765   9.889  10.967 -1.7871 -0.2448  0.7256
  983MOL0     H32656   1.886  10.112  10.981 -0.6053 -0.7223  0.5049
  983MOL0     H32657   2.284  10.194  10.965 -0.0364 -0.5409 -1.6275
  983MOL0     H32658   2.133  10.259  10.905  0.9816  0.9889  0.2853
  983MOL0     H32659   2.038  10.310  11.116 -0.4422 -1.1045 -0.9923
  983MOL0     H32660   2.164  10.212  11.194  0.0213 -1.6295 -1.5783
  983MOL0     H32661   2.200  10.486  11.207  1.8264  0.6180 -0.7150
  983MOL0     H32662   2.239  10.465  11.035  0.5882  1.0971 -0.4651
  983MOL0     H32663   2.408  10.301  11.094 -1.7559 -0.1005 -1.1766
  983MOL0     H32664   2.354  10.315  11.268 -0.9569  1.7691  1.4454
  983MOL0     H32665   2.594  10.254  11.276 -1.6053 -0.5848 -0.5693
  983MOL0     H32666   2.823  10.255  11.331 -0.4480  0.4821  0.2745
  983MOL0     H32667   3.162  10.125  11.303  3.7154 -2.6506 -2.2918
  983MOL0     H32668   3.384  10.046  11.361 -1.0309 -0.6236  1.5162
  983MOL0     H32669   3.650  10.268  11.291  0.6889  1.8640  0.1492
  983MOL0     H32670   3.699  10.361  11.436  0.7983 -0.7110 -0.0098
  983MOL0     H32671   3.886  10.250  11.357 -0.4517 -0.7251  0.7455
  983MOL0     H32672   3.841  10.202  11.521  1.0356  1.0970 -0.2545
  983MOL0     H32673   3.911  10.008  11.383  0.3188 -1.2016  1.0471
  983MOL0     H32674   3.762   9.986  11.458 -1.1753 -1.0488 -1.5847
  983MOL0     H32675   3.778  10.083  11.162 -1.9392  1.7684  0.7610
  983MOL0     H32676   3.633  10.028  11.250  0.3222  1.7937  0.4801
  983MOL0     H32677   3.701   9.861  11.097  0.1976 -3.0197  1.1807
  983MOL0     H32678   3.714   9.800  11.260  1.6434 -0.3542  0.6180
  983MOL0     H32679   3.958   9.910  11.119 -1.1873 -0.4622 -2.7213
  983MOL0     H32680   3.945   9.821  11.279  1.6285  0.7545 -1.1643
  983MOL0     H32681   3.888   9.703  11.004 -0.5407 -2.2419  0.6960
  983MOL0     H32682   3.861   9.621  11.145 -0.1430 -0.1564 -0.8147
  983MOL0     H32683   4.070   9.554  11.034  2.4036 -0.9362  0.4261
  983MOL0     H32684   4.138   9.716  11.048 -1.7157  1.0665  0.7053
  983MOL0     H32685   3.479  10.437  11.522  0.6262  0.6383 -1.9436
  983MOL0     H32686   3.260  10.520  11.445 -3.4834 -0.6979 -1.6393
  983MOL0     H32687   2.859  10.674  11.228  0.9554 -0.4008  2.9205
  983MOL0     H32688   2.617  10.683  11.190  1.5641  0.5130  0.1588
  983MOL0     H32689   0.799   9.858  10.980 -2.9637  1.0568 -0.6789
  983MOL0     H32690   0.624   9.946  10.821  0.0643  0.3197 -1.1998
  983MOL0     H32691   0.389   9.615  10.340  1.0295 -0.0245  0.6181
  983MOL0     H32692   0.146   9.617  10.311 -1.2478  2.8730 -0.6107
  983MOL0     H32693  -0.121   9.895  10.513 -1.7915 -0.2448  0.7559
  983MOL0     H32694  -0.117   9.751  10.627  1.7700 -0.1781  0.2514
  983MOL0     H32695  -0.235   9.638  10.417  4.0523  0.2124 -1.3654
  983MOL0     H32696  -0.269   9.812  10.364 -0.0413  1.0703  1.3560
  983MOL0     H32697  -0.469   9.758  10.478  0.3638  1.5818  0.0402
  983MOL0     H32698  -0.366   9.825  10.602  2.7712  0.0751  0.4852
  983MOL0     H32699  -0.377   9.520  10.548  0.3440  1.2143 -0.2431
  983MOL0     H32700  -0.285   9.603  10.673  2.4083  0.7491 -2.0234
  983MOL0     H32701  -0.687   9.564  10.799 -0.8996  2.0462 -1.5294
  983MOL0     H32702   0.089   9.878  10.635  2.5203 -0.7665  1.8707
  983MOL0     H32703   0.258   9.969  10.753 -0.9785 -1.5367 -0.6630
  983MOL0     H32704   0.422   9.880  10.760  0.6277  0.5487 -0.5189
  983MOL0     H32705   0.391  10.018  10.651 -1.1011  2.8619  3.0645
  984MOL0     O32706   8.881   2.807   5.285 -0.4783  0.0132 -0.7859
  984MOL0     C32707   8.805   2.797   5.195  0.2583  0.3741  0.3243
  984MOL0     O32708   8.840   2.734   5.073 -0.7975 -0.4791 -0.0982
  984MOL0     C32709   8.758   2.745   4.959 -0.4302  0.5437 -0.8826
  984MOL0     C32710   8.780   2.824   4.851 -0.6114 -0.2243  0.0612
  984MOL0     C32711   8.684   2.839   4.750 -0.5662  0.5226 -0.0306
  984MOL0     C32712   8.562   2.778   4.758 -0.3501 -0.0716  0.6508
  984MOL0     O32713   8.465   2.816   4.658  0.7959  0.5412 -0.3887
  984MOL0     C32714   8.326   2.779   4.662 -0.1785  0.0338 -0.3127
  984MOL0     C32715   8.249   2.868   4.571 -0.0616  0.4831 -0.2223
  984MOL0     C32716   8.242   2.804   4.430 -0.5510  1.0328 -0.0530
  984MOL0     C32717   8.143   2.881   4.333  0.0721 -0.4826  0.0168
  984MOL0     C32718   8.155   2.845   4.179 -0.1340  0.0133 -0.3641
  984MOL0     C32719   8.264   2.909   4.088 -0.2963 -0.5019  0.3073
  984MOL0     C32720   8.289   3.056   4.107 -0.3004  0.1790 -0.6187
  984MOL0     C32721   8.179   3.141   4.056  0.1592  0.2210  0.1951
  984MOL0     N32722   8.217   3.274   4.015 -0.1258 -0.1498 -0.9366
  984MOL0     C32723   8.219   3.382   4.106 -0.6929 -0.2434 -0.9070
  984MOL0     C32724   8.247   3.492   4.024  0.4963  0.2797  0.3641
  984MOL0     C32725   8.241   3.636   4.056  0.2953  0.3656 -0.3351
  984MOL0     C32726   8.372   3.679   4.107 -1.0424 -0.4118 -0.3704
  984MOL0     C32727   8.394   3.827   4.144 -0.8278 -0.3109  0.2587
  984MOL0     C32728   8.289   3.892   4.227 -0.0495  0.2452 -0.3624
  984MOL0     O32729   8.184   3.911   4.132 -0.2026 -0.2133  0.3465
  984MOL0     C32730   8.068   3.945   4.186  0.9948  0.1770  0.0446
  984MOL0     C32731   7.959   3.937   4.098  0.8459  0.1009  0.9981
  984MOL0     C32732   7.830   3.974   4.136  0.5354  0.6236  0.2150
  984MOL0     C32733   7.806   4.017   4.272  1.0515 -0.1091  0.4274
  984MOL0     C32734   7.671   4.050   4.323  0.0756  0.1631  0.0163
  984MOL0     O32735   7.655   4.137   4.430 -0.3787 -0.1129 -0.0104
  984MOL0     C32736   7.544   4.197   4.474 -0.1874  0.4436  0.4513
  984MOL0     C32737   7.439   4.229   4.388  0.0127 -0.0892 -0.7505
  984MOL0     C32738   7.332   4.294   4.429  0.4833 -0.4180 -0.7800
  984MOL0     C32739   7.318   4.331   4.562 -0.3319 -0.4371 -1.5744
  984MOL0     O32740   7.205   4.399   4.614 -0.8228 -0.1337 -0.5647
  984MOL0     C32741   7.090   4.311   4.620 -0.2814 -0.1151  0.7944
  984MOL0     C32742   6.984   4.370   4.711 -0.1656 -0.4499  0.2701
  984MOL0     C32743   6.853   4.300   4.688  0.2645  0.3135  0.0107
  984MOL0     C32744   6.736   4.350   4.778 -0.4410  0.1951 -0.0866
  984MOL0     C32745   6.667   4.477   4.728  0.4313 -1.3327  0.2586
  984MOL0     C32746   6.550   4.524   4.814  0.3858  0.3764 -0.3851
  984MOL0     C32747   6.452   4.609   4.736 -0.6838  0.3311 -0.4849
  984MOL0     C32748   6.341   4.657   4.826 -0.7063 -0.3871  0.0534
  984MOL0    Cl32749   6.414   4.754   4.972 -0.3109  0.4652 -0.0182
  984MOL0     C32750   7.423   4.314   4.649 -0.1087 -0.2451 -0.2016
  984MOL0     C32751   7.530   4.247   4.603  0.4694  0.5058  0.4051
  984MOL0     O32752   7.583   3.983   4.273 -0.3910  0.0874  0.7937
  984MOL0     C32753   7.917   4.022   4.358 -0.4442  0.4996 -0.5581
  984MOL0     C32754   8.044   3.990   4.318 -1.0423 -0.8362  0.0752
  984MOL0     N32755   8.273   3.441   3.900 -0.2326  0.5014  0.6409
  984MOL0     N32756   8.266   3.316   3.898 -1.3360  0.1470 -0.1308
  984MOL0     C32757   8.537   2.686   4.856  0.3995  0.9962 -0.6902
  984MOL0     C32758   8.644   2.662   4.953  1.4554 -0.3256 -0.3969
  984MOL0     C32759   8.671   2.859   5.208  0.2570 -0.4221 -0.5741
  984MOL0     C32760   8.637   2.971   5.130  0.1842 -0.0236 -0.3853
  984MOL0     C32761   8.509   3.031   5.134 -0.2423 -0.1686  0.1909
  984MOL0     C32762   8.417   2.978   5.217  0.6374  0.2635 -0.6721
  984MOL0     O32763   8.287   3.019   5.219 -0.3011  0.2659 -0.2983
  984MOL0     C32764   8.231   3.017   5.087  0.9046 -0.4683  0.6958
  984MOL0     C32765   8.226   2.879   5.010  0.0448 -0.4045 -0.5715
  984MOL0     C32766   8.151   2.779   5.090  0.0447  0.0331 -0.6364
  984MOL0     C32767   8.174   2.630   5.061  0.0066  0.4499  0.3461
  984MOL0     C32768   8.156   2.593   4.918  0.6126  0.4348  0.1103
  984MOL0     C32769   8.141   2.550   4.807  0.2385 -0.1384  0.0843
  984MOL0     C32770   8.448   2.863   5.298  0.1168  0.1518  0.4317
  984MOL0     C32771   8.575   2.806   5.293 -1.2784  0.1755 -0.2365
  984MOL0     C32772   8.612   2.679   5.373  0.3124  0.6096 -0.3977
  984MOL0     H32773   8.871   2.883   4.845 -0.5335 -0.0466  2.1366
  984MOL0     H32774   8.716   2.900   4.666  0.3618 -1.7961 -1.4944
  984MOL0     H32775   8.306   2.671   4.652  1.5925 -0.4045  0.4831
  984MOL0     H32776   8.300   2.808   4.764 -3.7886 -3.5623  0.0544
  984MOL0     H32777   8.293   2.968   4.560  2.0683 -0.4349 -0.5823
  984MOL0     H32778   8.151   2.877   4.619  1.1342 -0.5393  2.6377
  984MOL0     H32779   8.197   2.706   4.448 -1.7875  1.5849 -0.0342
  984MOL0     H32780   8.342   2.782   4.390  0.4548 -0.9682  3.2076
  984MOL0     H32781   8.043   2.846   4.358  1.1897 -3.7127  0.4294
  984MOL0     H32782   8.157   2.989   4.347  1.4035  0.0367 -3.9709
  984MOL0     H32783   8.169   2.737   4.180  0.0098  0.0332  0.4940
  984MOL0     H32784   8.060   2.870   4.131 -0.3709  1.0919  0.6191
  984MOL0     H32785   8.354   2.860   4.127  0.1273 -1.9394 -2.2285
  984MOL0     H32786   8.265   2.884   3.981  3.9874  2.0293 -0.4796
  984MOL0     H32787   8.378   3.084   4.049 -1.4965  1.9697 -1.6970
  984MOL0     H32788   8.299   3.080   4.213 -1.2252  3.0946 -1.0966
  984MOL0     H32789   8.144   3.093   3.964  1.3267 -1.4635  0.5655
  984MOL0     H32790   8.098   3.131   4.128  0.6063 -3.8986  0.3777
  984MOL0     H32791   8.185   3.373   4.209 -0.6116 -1.2649 -0.9592
  984MOL0     H32792   8.218   3.697   3.968 -0.7471 -2.8681 -2.4860
  984MOL0     H32793   8.163   3.655   4.130 -0.0995 -1.7090 -0.1537
  984MOL0     H32794   8.392   3.617   4.196  2.5458  0.1438 -0.6159
  984MOL0     H32795   8.445   3.643   4.034 -0.0259  0.2352  0.3017
  984MOL0     H32796   8.414   3.887   4.055  1.1748  0.2561  1.0259
  984MOL0     H32797   8.486   3.844   4.202 -0.3150  1.9623 -1.0971
  984MOL0     H32798   8.324   3.989   4.263 -1.2131 -0.3835  2.7293
  984MOL0     H32799   8.261   3.826   4.310  0.3278  1.9191  1.1542
  984MOL0     H32800   7.969   3.885   4.004 -0.5953 -0.1315  0.9534
  984MOL0     H32801   7.757   3.956   4.058 -0.5944 -0.5668  1.4979
  984MOL0     H32802   7.448   4.198   4.285 -0.9847 -2.0851 -0.3126
  984MOL0     H32803   7.257   4.324   4.356 -0.8739 -1.4256  0.1375
  984MOL0     H32804   7.060   4.310   4.515  1.9218  1.5365  0.0899
  984MOL0     H32805   7.115   4.207   4.647 -0.8836 -0.3481  0.4666
  984MOL0     H32806   7.012   4.355   4.815 -0.3704  0.0590  0.3993
  984MOL0     H32807   6.977   4.477   4.689  2.2523 -0.0289  1.2340
  984MOL0     H32808   6.829   4.312   4.582  2.2997 -2.0365 -0.8108
  984MOL0     H32809   6.860   4.192   4.707 -0.9775  0.3331  0.7088
  984MOL0     H32810   6.772   4.371   4.879 -1.8530  0.6074  0.3599
  984MOL0     H32811   6.666   4.266   4.785  0.6464 -0.6097  2.1275
  984MOL0     H32812   6.636   4.451   4.627  0.7808  1.8819 -0.7940
  984MOL0     H32813   6.733   4.565   4.721 -1.5340  0.3056  1.1461
  984MOL0     H32814   6.493   4.436   4.846 -0.9458  1.7520  1.2421
  984MOL0     H32815   6.586   4.577   4.903 -0.9640 -0.9433  1.0232
  984MOL0     H32816   6.399   4.557   4.656  0.8306 -1.7665 -0.2174
  984MOL0     H32817   6.495   4.705   4.706 -4.1598  1.8882 -0.9376
  984MOL0     H32818   6.275   4.713   4.760  2.0206 -0.0154 -2.5451
  984MOL0     H32819   6.277   4.576   4.864 -3.3877  1.7911  0.4621
  984MOL0     H32820   7.428   4.346   4.752  0.7098 -1.4190  0.1329
  984MOL0     H32821   7.613   4.243   4.672  1.4616 -0.2923 -0.7792
  984MOL0     H32822   7.886   4.028   4.462 -0.7438 -1.0734 -0.5325
  984MOL0     H32823   8.116   3.993   4.400 -0.2951  1.8896 -0.5693
  984MOL0     H32824   8.440   2.638   4.862 -0.7835  3.3479  0.3194
  984MOL0     H32825   8.616   2.595   5.034  0.9534 -0.9884 -1.1013
  984MOL0     H32826   8.710   3.004   5.056  2.9887 -0.1134  2.1322
  984MOL0     H32827   8.489   3.124   5.081 -0.0963  0.2248  0.8180
  984MOL0     H32828   8.273   3.091   5.018 -1.6408 -0.0960 -0.5872
  984MOL0     H32829   8.125   3.045   5.096  1.0851  1.0217 -1.1200
  984MOL0     H32830   8.330   2.846   4.999  0.4563  0.4505  0.5444
  984MOL0     H32831   8.171   2.896   4.917 -0.7356 -0.0082 -0.0425
  984MOL0     H32832   8.046   2.809   5.079  0.1963  0.3034 -1.3608
  984MOL0     H32833   8.182   2.780   5.195 -1.1339 -2.8662 -0.1560
  984MOL0     H32834   8.280   2.613   5.083  0.8772 -1.0301 -3.9612
  984MOL0     H32835   8.109   2.562   5.116  0.8912 -1.0475 -0.3879
  984MOL0     H32836   8.137   2.514   4.706  0.0197  1.1254 -0.3800
  984MOL0     H32837   8.378   2.814   5.365  1.5940 -0.5386  1.5010
  984MOL0     H32838   8.696   2.695   5.441  0.0146  0.8372 -0.0826
  984MOL0     H32839   8.532   2.638   5.436  2.8157 -1.8425  1.4002
  984MOL0     H32840   8.635   2.597   5.305  2.2572  1.9283 -1.4115
  985MOL0     O32841   6.420   0.347   5.388  0.0484  0.0751 -0.4281
  985MOL0     C32842   6.336   0.260   5.374  0.4084 -0.8799 -0.4608
  985MOL0     O32843   6.350   0.156   5.289  0.0622 -0.5196  0.0695
  985MOL0     C32844   6.479   0.138   5.234  0.6624 -0.3033  0.1026
  985MOL0     C32845   6.590   0.115   5.317  0.6162  0.0610 -0.2969
  985MOL0     C32846   6.701   0.054   5.262 -0.1328 -0.1537 -0.3512
  985MOL0     C32847   6.714   0.036   5.124 -0.1286 -0.1832 -0.9319
  985MOL0     O32848   6.813  -0.034   5.058  0.2552 -0.2660 -0.1985
  985MOL0     C32849   6.862  -0.152   5.126 -0.1279  0.0862  0.4598
  985MOL0     C32850   6.967  -0.210   5.035  0.3972 -0.0013 -0.2266
  985MOL0     C32851   7.083  -0.107   5.016 -0.0955  0.4547  0.1884
  985MOL0     C32852   7.194  -0.185   4.947  0.6801 -0.0916  0.9416
  985MOL0     C32853   7.320  -0.100   4.942 -0.5531 -0.1368  0.1963
  985MOL0     C32854   7.427  -0.158   4.863 -0.0117 -0.4292 -0.0394
  985MOL0     C32855   7.558  -0.066   4.852 -0.8401  0.0836  0.2795
  985MOL0     C32856   7.685  -0.143   4.797 -0.7171 -0.9060  0.1754
  985MOL0     N32857   7.812  -0.104   4.869  0.1519  0.3484 -0.1551
  985MOL0     C32858   7.854  -0.131   5.001 -0.0915  0.5615 -0.4006
  985MOL0     C32859   7.953  -0.038   5.024 -0.9870  0.1741 -0.7227
  985MOL0     C32860   8.035  -0.024   5.156 -0.5442  0.3371  0.1329
  985MOL0     C32861   8.122  -0.157   5.177  1.1194 -0.5217 -0.2853
  985MOL0     C32862   8.168  -0.168   5.326 -0.0519  0.1116 -0.5715
  985MOL0     C32863   8.254  -0.049   5.380 -0.3015 -0.1502 -0.5369
  985MOL0     O32864   8.373  -0.047   5.301  0.0413 -0.1794 -0.0424
  985MOL0     C32865   8.480   0.035   5.338  0.5016 -0.3312  0.8966
  985MOL0     C32866   8.600   0.015   5.266 -0.1013 -0.4861  0.5461
  985MOL0     C32867   8.717   0.081   5.300 -0.3018 -0.4668  0.0335
  985MOL0     C32868   8.724   0.180   5.396 -0.3524 -0.3053 -0.5526
  985MOL0     C32869   8.845   0.257   5.404  0.5526 -0.8376 -0.4489
  985MOL0     O32870   8.937   0.242   5.299 -0.4548  0.4397 -0.3781
  985MOL0     C32871   9.060   0.307   5.313  0.2167  0.7645  0.3599
  985MOL0     C32872   9.105   0.390   5.217 -0.1909 -0.4895  0.4743
  985MOL0     C32873   9.232   0.457   5.229  0.2688  0.7496 -0.0637
  985MOL0     C32874   9.311   0.436   5.338 -1.0253  0.3094 -0.4617
  985MOL0     O32875   9.437   0.488   5.369 -0.1236  0.6301  0.3161
  985MOL0     C32876   9.493   0.580   5.271 -0.4869 -0.1027 -0.5602
  985MOL0     C32877   9.624   0.646   5.319 -0.0403  0.4903 -0.9191
  985MOL0     C32878   9.613   0.686   5.464 -1.1482 -0.1838  0.5111
  985MOL0     C32879   9.747   0.676   5.537 -0.3673 -0.3081 -0.8393
  985MOL0     C32880   9.728   0.725   5.684 -1.2506 -0.3177 -0.1558
  985MOL0     C32881   9.861   0.753   5.751  0.5562  0.3559  0.0714
  985MOL0     C32882   9.831   0.810   5.891 -0.5112  0.7280  0.6299
  985MOL0     C32883   9.952   0.886   5.954  0.1399 -0.7213  0.2411
  985MOL0    Cl32884   9.998   1.027   5.852 -0.0712 -0.0341 -0.1058
  985MOL0     C32885   9.269   0.350   5.437  0.9650  0.2510  0.2681
  985MOL0     C32886   9.140   0.293   5.431  0.0760  0.5083 -0.0276
  985MOL0     O32887   8.864   0.326   5.506 -0.5432 -0.0217 -0.3320
  985MOL0     C32888   8.606   0.189   5.476  0.0637 -0.4678 -0.0030
  985MOL0     C32889   8.489   0.124   5.448 -0.5684  0.5304 -0.7430
  985MOL0     N32890   7.961   0.055   4.918  0.0383 -0.1402  0.3416
  985MOL0     N32891   7.885   0.006   4.831 -0.4360 -0.1110  0.1623
  985MOL0     C32892   6.601   0.069   5.041 -0.2655  0.7535 -0.8309
  985MOL0     C32893   6.488   0.120   5.105  0.0154  0.8940  0.4923
  985MOL0     C32894   6.201   0.278   5.435  0.0899  0.3750  0.1968
  985MOL0     C32895   6.195   0.356   5.556 -0.1398  0.3788  0.9741
  985MOL0     C32896   6.080   0.379   5.620 -0.8199  0.1834 -0.5451
  985MOL0     C32897   5.959   0.325   5.574 -0.2367  0.3648 -0.0062
  985MOL0     O32898   5.837   0.339   5.631  0.1809  0.2636  0.0009
  985MOL0     C32899   5.803   0.466   5.697  0.9156 -0.0691  0.1049
  985MOL0     C32900   5.654   0.487   5.692 -0.2133  1.3416  0.4003
  985MOL0     C32901   5.594   0.493   5.544  0.0533  0.4078  0.1017
  985MOL0     C32902   5.442   0.460   5.542 -0.3984 -0.0771 -0.0645
  985MOL0     C32903   5.419   0.313   5.567  0.1776 -0.2182  0.6077
  985MOL0     C32904   5.401   0.188   5.564  0.3834 -0.6982 -0.0899
  985MOL0     C32905   5.967   0.242   5.457  0.6671 -0.7093 -0.2610
  985MOL0     C32906   6.085   0.217   5.389  0.1696  0.1820 -0.0108
  985MOL0     C32907   6.070   0.137   5.251 -0.8933 -1.0772  0.4143
  985MOL0     H32908   6.595   0.132   5.424  2.4041  1.6531 -0.5664
  985MOL0     H32909   6.779   0.033   5.335 -2.2811 -1.7102  1.6844
  985MOL0     H32910   6.894  -0.131   5.228 -2.2531  2.4112  0.7291
  985MOL0     H32911   6.783  -0.228   5.133  0.0928 -0.2959 -0.7707
  985MOL0     H32912   6.923  -0.229   4.936 -0.7941  2.1138 -0.1565
  985MOL0     H32913   6.986  -0.311   5.073 -1.8911  0.4928  2.5588
  985MOL0     H32914   7.118  -0.062   5.109 -1.4241 -0.6070  1.2541
  985MOL0     H32915   7.047  -0.021   4.960 -1.3224 -1.2480 -1.7966
  985MOL0     H32916   7.212  -0.283   4.992  3.4725 -0.6851 -1.2047
  985MOL0     H32917   7.157  -0.202   4.846  1.1482 -1.7003  1.0134
  985MOL0     H32918   7.305  -0.004   4.893  1.1409 -0.3504 -0.7846
  985MOL0     H32919   7.357  -0.088   5.044  1.6409  0.4343 -0.6284
  985MOL0     H32920   7.454  -0.253   4.911  1.4919  0.7009  1.4647
  985MOL0     H32921   7.382  -0.184   4.767  1.2280 -1.6763 -0.3290
  985MOL0     H32922   7.596  -0.035   4.949  2.3762 -1.5872 -0.2969
  985MOL0     H32923   7.530   0.018   4.788 -1.9296 -0.2312  0.3248
  985MOL0     H32924   7.668  -0.249   4.817 -0.2222 -0.9637  0.3167
  985MOL0     H32925   7.702  -0.129   4.690  5.9944  0.6996  1.0003
  985MOL0     H32926   7.829  -0.220   5.057  1.0325 -0.2789 -1.2019
  985MOL0     H32927   8.109   0.056   5.149  0.7389 -0.9378 -2.1641
  985MOL0     H32928   7.965  -0.011   5.239  1.4671  0.5419  1.8917
  985MOL0     H32929   8.061  -0.238   5.136 -2.0405  2.2348 -1.5051
  985MOL0     H32930   8.218  -0.150   5.125  1.6295  2.3749  0.8589
  985MOL0     H32931   8.237  -0.253   5.335  1.3367  1.2963  0.4038
  985MOL0     H32932   8.076  -0.182   5.384  1.6384  2.2075  2.9053
  985MOL0     H32933   8.268  -0.060   5.488  1.4372 -0.7171 -0.7932
  985MOL0     H32934   8.195   0.042   5.364  0.1369  0.0544 -1.0338
  985MOL0     H32935   8.585  -0.056   5.185  0.6081 -1.1033  0.9447
  985MOL0     H32936   8.789   0.064   5.219  0.8277  5.3096 -0.6184
  985MOL0     H32937   9.048   0.402   5.125  1.9063  0.7077 -0.7589
  985MOL0     H32938   9.254   0.530   5.152 -2.3738 -0.0020 -1.6590
  985MOL0     H32939   9.522   0.522   5.183  0.8493 -1.3725  0.6633
  985MOL0     H32940   9.419   0.657   5.248  1.2556  3.0000  3.1313
  985MOL0     H32941   9.695   0.565   5.299 -1.2356 -0.4811 -1.4016
  985MOL0     H32942   9.653   0.731   5.257 -0.0919  1.0461 -0.1952
  985MOL0     H32943   9.568   0.786   5.467 -1.2238 -0.1837 -0.4590
  985MOL0     H32944   9.553   0.614   5.521 -0.6799 -2.4407 -1.7056
  985MOL0     H32945   9.824   0.735   5.488  0.4559 -1.8988 -1.5489
  985MOL0     H32946   9.784   0.573   5.540  1.2125  0.2434  1.8765
  985MOL0     H32947   9.684   0.644   5.743 -2.8471 -0.9374 -2.0694
  985MOL0     H32948   9.659   0.810   5.686 -0.1694  0.5620  0.7407
  985MOL0     H32949   9.926   0.665   5.761 -0.1473 -0.2262 -0.3118
  985MOL0     H32950   9.920   0.826   5.696  1.4973  0.3162  0.9951
  985MOL0     H32951   9.794   0.729   5.955  2.2439 -0.8115  0.4251
  985MOL0     H32952   9.761   0.892   5.873  0.3411  1.4452  0.4964
  985MOL0     H32953   9.914   0.920   6.051 -2.1648  0.5856 -1.0160
  985MOL0     H32954  10.041   0.827   5.978  1.6315  1.2077 -0.3115
  985MOL0     H32955   9.331   0.348   5.526  2.4448  1.2560 -0.6878
  985MOL0     H32956   9.111   0.235   5.518 -0.6755  1.6825  0.5299
  985MOL0     H32957   8.605   0.258   5.559  3.1451 -0.4797  0.1549
  985MOL0     H32958   8.402   0.147   5.510 -0.4111 -0.7472 -0.0106
  985MOL0     H32959   6.613   0.057   4.934  1.4189 -0.1656 -0.5626
  985MOL0     H32960   6.410   0.149   5.036 -0.1177 -0.4072  0.0689
  985MOL0     H32961   6.283   0.408   5.592  1.5255 -0.2385 -1.8704
  985MOL0     H32962   6.082   0.434   5.714  1.7954 -4.3272  2.3994
  985MOL0     H32963   5.856   0.545   5.643 -0.5326 -1.2087 -3.2504
  985MOL0     H32964   5.824   0.467   5.804 -0.7355  2.1085  0.4801
  985MOL0     H32965   5.632   0.580   5.747  0.5539  1.8278 -0.0996
  985MOL0     H32966   5.604   0.405   5.744 -0.1923  0.0001 -1.6175
  985MOL0     H32967   5.647   0.418   5.484  1.2069  2.2522 -1.2997
  985MOL0     H32968   5.600   0.590   5.494  1.5718 -0.2638 -1.1251
  985MOL0     H32969   5.378   0.512   5.614  1.4453  0.4536  1.2726
  985MOL0     H32970   5.402   0.485   5.443  0.4311 -0.5802 -0.5325
  985MOL0     H32971   5.391   0.082   5.574 -1.1108 -0.4539  1.4844
  985MOL0     H32972   5.866   0.215   5.430 -0.7648  0.8523  2.9890
  985MOL0     H32973   6.093   0.198   5.163 -0.8902 -0.7596  0.6345
  985MOL0     H32974   6.144   0.056   5.251  0.9673  0.5477  0.8842
  985MOL0     H32975   5.977   0.084   5.229 -1.2922 -1.9371  3.5820
  986MOL0     O32976   9.178   2.320   6.903  0.3868  0.4534 -0.7561
  986MOL0     C32977   9.154   2.342   6.781  0.4357  0.0966 -0.6411
  986MOL0     O32978   9.243   2.383   6.699 -0.5123 -0.3262  0.1712
  986MOL0     C32979   9.368   2.438   6.745  0.1305 -0.0864 -0.2349
  986MOL0     C32980   9.396   2.509   6.865 -0.1211 -0.4816 -0.0200
  986MOL0     C32981   9.521   2.565   6.886 -0.8463 -0.3385 -0.3046
  986MOL0     C32982   9.625   2.537   6.802  0.5677  0.3765 -0.0877
  986MOL0     O32983   9.747   2.604   6.828  0.4420  0.0160  0.6178
  986MOL0     C32984   9.831   2.635   6.708 -0.1865  0.3719  0.2173
  986MOL0     C32985   9.923   2.762   6.729  0.1638  0.2226 -0.3219
  986MOL0     C32986  10.009   2.788   6.610 -1.2562 -1.4177 -1.1740
  986MOL0     C32987  10.103   2.918   6.630 -0.0956  0.1150  0.4983
  986MOL0     C32988  10.169   2.978   6.506  0.3189  0.8007  0.0020
  986MOL0     C32989  10.262   2.883   6.429  0.8021  0.4230  0.3801
  986MOL0     C32990  10.370   2.946   6.333  0.2975 -0.2240 -0.4940
  986MOL0     C32991  10.294   3.001   6.208 -0.2827 -0.3396  0.0114
  986MOL0     N32992  10.229   2.885   6.146 -0.1070  0.0983  0.5948
  986MOL0     C32993  10.295   2.791   6.072 -0.3997  0.8862 -0.5658
  986MOL0     C32994  10.205   2.697   6.028  0.4863  0.2112  0.2992
  986MOL0     C32995  10.240   2.592   5.919  0.1528 -0.5232 -0.1173
  986MOL0     C32996  10.358   2.513   5.968 -1.4531 -0.0545  0.4721
  986MOL0     C32997  10.443   2.427   5.869  0.9509  0.0429 -0.3335
  986MOL0     C32998  10.456   2.489   5.726  0.3849 -0.4181 -0.1700
  986MOL0     O32999  10.527   2.616   5.726  0.1983  0.6699  0.4090
  986MOL0     C33000  10.667   2.600   5.694 -0.3038  0.2144 -0.8818
  986MOL0     C33001  10.741   2.479   5.711  0.1897 -0.1876  0.9145
  986MOL0     C33002  10.873   2.469   5.660  0.6671 -0.7997 -0.0841
  986MOL0     C33003  10.921   2.566   5.565 -0.1959  0.5474 -0.0151
  986MOL0     C33004  11.052   2.546   5.513 -0.3393  0.1040 -0.5923
  986MOL0     O33005  11.093   2.618   5.405  0.6365  0.2918  0.1143
  986MOL0     C33006  11.226   2.598   5.362  1.2964 -0.2281  0.7420
  986MOL0     C33007  11.246   2.527   5.237  0.0523  0.3214  1.2318
  986MOL0     C33008  11.373   2.517   5.185  1.5376 -0.2414  0.5527
  986MOL0     C33009  11.482   2.560   5.262  0.6387  0.2628 -0.0441
  986MOL0     O33010  11.614   2.540   5.235 -0.2102 -0.2273 -0.0873
  986MOL0     C33011  11.659   2.470   5.112 -0.3191  0.4023  0.0291
  986MOL0     C33012  11.785   2.557   5.075 -0.0417 -0.0908  0.0507
  986MOL0     C33013  11.899   2.531   5.179  0.6459 -0.5252  0.4234
  986MOL0     C33014  12.037   2.550   5.109 -0.4814 -0.2979 -0.6610
  986MOL0     C33015  12.148   2.585   5.208 -0.7028 -0.6007  0.1011
  986MOL0     C33016  12.196   2.465   5.284 -0.2717  0.3269  0.9611
  986MOL0     C33017  12.316   2.502   5.366  0.4203 -0.2409  0.2972
  986MOL0     C33018  12.372   2.384   5.448  0.3201  0.5138 -0.9933
  986MOL0    Cl33019  12.258   2.293   5.540 -0.8081 -0.5280  0.2422
  986MOL0     C33020  11.462   2.636   5.377 -0.1111 -0.5997 -0.0145
  986MOL0     C33021  11.333   2.651   5.426 -0.4887  0.1882 -0.2650
  986MOL0     O33022  11.121   2.461   5.569  0.0878  0.0462  0.1365
  986MOL0     C33023  10.841   2.676   5.531  0.2639 -0.0429 -0.2717
  986MOL0     C33024  10.723   2.688   5.601 -1.0301  0.1680 -0.0041
  986MOL0     N33025  10.082   2.752   6.059  0.6935  0.6293 -0.0703
  986MOL0     N33026  10.099   2.863   6.127  0.1510 -0.4984  0.1173
  986MOL0     C33027   9.598   2.454   6.695 -0.1736  0.1043  0.4601
  986MOL0     C33028   9.475   2.409   6.659  0.7822  0.2498 -0.7773
  986MOL0     C33029   9.022   2.320   6.721  0.4773  0.7009 -0.4014
  986MOL0     C33030   8.978   2.414   6.630  0.0689  0.6539  0.1549
  986MOL0     C33031   8.844   2.411   6.592 -1.3653  0.7600  0.3922
  986MOL0     C33032   8.762   2.300   6.619 -0.4720  1.0637 -0.4059
  986MOL0     O33033   8.635   2.305   6.579 -0.5854  0.5451 -0.4016
  986MOL0     C33034   8.551   2.374   6.661  0.1585  0.3289  0.3709
  986MOL0     C33035   8.434   2.277   6.691  0.2903  0.4810 -0.2956
  986MOL0     C33036   8.342   2.250   6.571  0.0810 -0.3336  0.5295
  986MOL0     C33037   8.214   2.165   6.595 -0.3146 -0.0104 -0.1315
  986MOL0     C33038   8.125   2.227   6.703 -0.2734  0.6501 -0.2150
  986MOL0     C33039   8.036   2.276   6.766  0.0099  1.0669  0.6876
  986MOL0     C33040   8.821   2.194   6.694  0.0452 -0.3914  0.9616
  986MOL0     C33041   8.948   2.199   6.748  1.0140  0.5407 -0.0740
  986MOL0     C33042   8.995   2.086   6.842  0.3333 -0.1903  0.7199
  986MOL0     H33043   9.317   2.513   6.939 -0.5077 -2.2327 -0.2975
  986MOL0     H33044   9.545   2.628   6.971 -2.8695  0.9295 -0.5885
  986MOL0     H33045   9.883   2.548   6.668  2.7719  1.3656  1.5589
  986MOL0     H33046   9.761   2.667   6.630  0.2716 -2.0945 -1.3238
  986MOL0     H33047   9.983   2.749   6.819  1.6019 -0.6734 -1.3683
  986MOL0     H33048   9.843   2.834   6.749  0.6711  0.9801 -0.9727
  986MOL0     H33049   9.952   2.810   6.520  0.0341 -3.5761 -2.6305
  986MOL0     H33050  10.072   2.701   6.587  2.3114  0.4631  0.5762
  986MOL0     H33051  10.041   2.997   6.674 -0.8377 -1.0867  1.7175
  986MOL0     H33052  10.179   2.894   6.705 -0.4725  0.8235  1.1301
  986MOL0     H33053  10.100   3.020   6.432  0.0633  1.7624  0.7642
  986MOL0     H33054  10.214   3.073   6.533  1.5656  0.8184 -1.9689
  986MOL0     H33055  10.317   2.821   6.500  1.5294 -1.7365 -1.9275
  986MOL0     H33056  10.204   2.809   6.374  2.4453 -0.4964 -0.1912
  986MOL0     H33057  10.452   2.876   6.311  0.6729 -0.0677  0.3677
  986MOL0     H33058  10.417   3.030   6.384  2.1426 -1.0867 -0.6888
  986MOL0     H33059  10.216   3.071   6.236 -1.0292 -1.0628 -0.2167
  986MOL0     H33060  10.364   3.063   6.152 -0.2141  1.9449  2.4528
  986MOL0     H33061  10.398   2.801   6.038  0.0289 -3.5302 -1.1259
  986MOL0     H33062  10.155   2.525   5.904 -0.1039 -0.5522  1.4083
  986MOL0     H33063  10.266   2.654   5.832  0.2657  0.4519  0.5989
  986MOL0     H33064  10.430   2.576   6.021 -2.6289  0.2724  1.7212
  986MOL0     H33065  10.330   2.433   6.037 -0.3387 -0.4074  0.5379
  986MOL0     H33066  10.393   2.330   5.856  0.7171  0.1503 -0.2389
  986MOL0     H33067  10.541   2.416   5.915  1.9315  0.4968 -2.2089
  986MOL0     H33068  10.358   2.515   5.687  1.2706  2.8936 -0.4585
  986MOL0     H33069  10.507   2.417   5.660  0.9774 -0.9214  0.8176
  986MOL0     H33070  10.713   2.389   5.764  2.6009 -2.6071 -1.5623
  986MOL0     H33071  10.923   2.374   5.670 -2.8616 -2.5836  2.8442
  986MOL0     H33072  11.159   2.496   5.179  2.2339 -1.5078 -1.3512
  986MOL0     H33073  11.386   2.473   5.087 -1.6745 -3.4879  1.3827
  986MOL0     H33074  11.686   2.369   5.145  2.0754  0.7877 -0.5591
  986MOL0     H33075  11.586   2.473   5.032 -0.4238 -1.9858 -0.0422
  986MOL0     H33076  11.821   2.525   4.977  1.7458  0.4554  0.4988
  986MOL0     H33077  11.755   2.662   5.079 -1.5345 -0.5115  0.5433
  986MOL0     H33078  11.888   2.587   5.272 -2.6426 -1.8832  0.9653
  986MOL0     H33079  11.887   2.427   5.209 -1.6304 -0.3981  0.1382
  986MOL0     H33080  12.025   2.636   5.042 -3.0324 -0.4391 -0.4956
  986MOL0     H33081  12.063   2.463   5.048 -1.4576  0.1556 -1.7777
  986MOL0     H33082  12.107   2.657   5.280  0.2197 -0.0204  0.0596
  986MOL0     H33083  12.234   2.628   5.156  0.5739  1.4134  3.5354
  986MOL0     H33084  12.113   2.447   5.352 -0.7409  1.9793  0.8713
  986MOL0     H33085  12.205   2.376   5.220 -1.7004  1.8608 -1.5564
  986MOL0     H33086  12.275   2.572   5.440 -2.0126 -0.0549 -1.1133
  986MOL0     H33087  12.390   2.546   5.298  0.6130 -2.5662 -1.1048
  986MOL0     H33088  12.418   2.313   5.377  1.6523  1.2755 -0.9306
  986MOL0     H33089  12.456   2.420   5.509 -0.6391  3.4155 -1.2378
  986MOL0     H33090  11.555   2.670   5.421  0.2525 -0.5009 -0.8391
  986MOL0     H33091  11.327   2.700   5.522 -0.6492 -0.5501  0.1110
  986MOL0     H33092  10.868   2.748   5.455  1.0318 -2.5788 -2.5534
  986MOL0     H33093  10.662   2.774   5.575 -3.5853 -1.6017 -0.2636
  986MOL0     H33094   9.677   2.428   6.625  1.1953 -2.7206  2.8188
  986MOL0     H33095   9.456   2.360   6.564  4.4018 -1.1670 -0.8886
  986MOL0     H33096   9.046   2.486   6.585  0.0764  0.1632 -0.6404
  986MOL0     H33097   8.796   2.490   6.536  3.1707  3.2383 -0.5067
  986MOL0     H33098   8.499   2.453   6.606 -2.1008 -0.5074  1.1880
  986MOL0     H33099   8.596   2.412   6.753 -0.7653  1.0209  0.5580
  986MOL0     H33100   8.385   2.311   6.783 -0.2400  1.0121 -0.7703
  986MOL0     H33101   8.478   2.185   6.731  1.2691 -0.1425 -2.6579
  986MOL0     H33102   8.401   2.197   6.496  1.0238 -0.2410  1.1981
  986MOL0     H33103   8.301   2.344   6.532 -0.6256 -0.4921  0.8625
  986MOL0     H33104   8.158   2.161   6.501 -1.2746  0.2476  0.4103
  986MOL0     H33105   8.243   2.064   6.626 -3.4571 -0.7194  0.8787
  986MOL0     H33106   7.955   2.318   6.822  0.3675  3.1151 -0.2603
  986MOL0     H33107   8.761   2.106   6.712  0.2290 -0.4936  1.0797
  986MOL0     H33108   8.988   2.115   6.947 -1.5542 -0.6600  0.7508
  986MOL0     H33109   8.941   1.993   6.824  0.8415 -0.2571 -0.6104
  986MOL0     H33110   9.101   2.067   6.826  0.4363  1.7418 -1.6116
  987MOL0     O33111   5.279   1.381   2.365  0.2914 -0.2861  0.1316
  987MOL0     C33112   5.180   1.428   2.321 -0.7485 -0.2664  0.0178
  987MOL0     O33113   5.178   1.549   2.252  0.3364 -0.6054 -0.4283
  987MOL0     C33114   5.298   1.590   2.201 -0.4505  0.5443 -0.4453
  987MOL0     C33115   5.337   1.544   2.075  0.2312 -0.0420 -0.1458
  987MOL0     C33116   5.458   1.592   2.024 -0.7395  0.4392 -0.6267
  987MOL0     C33117   5.549   1.668   2.092 -0.0967  0.1919 -0.3282
  987MOL0     O33118   5.667   1.713   2.040 -0.5129 -0.7797 -0.5289
  987MOL0     C33119   5.707   1.665   1.916 -0.1780 -1.0524 -0.7786
  987MOL0     C33120   5.779   1.540   1.928  0.0460  0.2889  0.5408
  987MOL0     C33121   5.905   1.545   2.021 -0.1338  0.2814 -0.8955
  987MOL0     C33122   5.956   1.400   2.052  0.1948 -0.0013 -0.6770
  987MOL0     C33123   6.065   1.402   2.157 -0.0859  0.6769  0.3301
  987MOL0     C33124   6.202   1.445   2.100  0.5852 -0.6383  0.7559
  987MOL0     C33125   6.289   1.514   2.214  0.8939  0.0942 -0.3013
  987MOL0     C33126   6.439   1.525   2.167 -0.0197  0.4536 -0.0303
  987MOL0     N33127   6.519   1.582   2.274  0.1314 -0.0471 -0.6526
  987MOL0     C33128   6.619   1.508   2.344 -0.2326 -0.4841  0.4931
  987MOL0     C33129   6.683   1.599   2.423 -0.1616  0.0926 -0.7494
  987MOL0     C33130   6.795   1.565   2.511  0.1291  0.2101  0.1212
  987MOL0     C33131   6.917   1.652   2.491  0.6935  0.7497  0.2179
  987MOL0     C33132   6.995   1.596   2.371 -0.7350  0.3525  0.1141
  987MOL0     C33133   7.121   1.675   2.343 -0.1066 -0.0413 -0.7521
  987MOL0     O33134   7.205   1.670   2.469  0.4177  0.0379  0.2691
  987MOL0     C33135   7.269   1.785   2.505  0.3102 -0.0727 -0.3619
  987MOL0     C33136   7.396   1.816   2.456  0.4980  0.3090  0.1598
  987MOL0     C33137   7.478   1.911   2.519  0.7487  0.4678  0.0164
  987MOL0     C33138   7.426   1.995   2.616  0.4898  0.3546 -0.3189
  987MOL0     C33139   7.504   2.110   2.674  0.0522 -0.0348  0.4516
  987MOL0     O33140   7.632   2.122   2.617  0.3642  0.3713 -0.1183
  987MOL0     C33141   7.719   2.222   2.650  0.3989 -0.2036 -0.2719
  987MOL0     C33142   7.838   2.217   2.569  0.1710 -0.3165 -0.6870
  987MOL0     C33143   7.938   2.302   2.585 -0.3197  0.4801 -0.1732
  987MOL0     C33144   7.935   2.389   2.699 -0.5331 -0.0579  0.4950
  987MOL0     O33145   8.054   2.451   2.726 -0.2135  0.2997  0.2171
  987MOL0     C33146   8.064   2.479   2.870 -0.7243 -0.5843 -0.7447
  987MOL0     C33147   8.201   2.553   2.897 -0.1295  0.1233 -0.7419
  987MOL0     C33148   8.251   2.667   2.801  0.2901  0.0715 -1.2244
  987MOL0     C33149   8.378   2.720   2.843 -0.3575 -0.7027  0.1927
  987MOL0     C33150   8.416   2.844   2.766  0.3616 -0.0639  0.1373
  987MOL0     C33151   8.537   2.902   2.843  0.4787  0.5307 -0.1072
  987MOL0     C33152   8.594   3.018   2.769  0.0614 -0.5209 -1.0328
  987MOL0     C33153   8.509   3.139   2.734  0.1161 -0.8526  0.1591
  987MOL0    Cl33154   8.476   3.228   2.893 -0.4994  0.2887 -0.2776
  987MOL0     C33155   7.812   2.401   2.771 -0.2516  0.9212  0.1968
  987MOL0     C33156   7.706   2.321   2.744 -0.3265 -0.1435 -0.1286
  987MOL0     O33157   7.451   2.187   2.748  0.0540 -0.3278 -0.0915
  987MOL0     C33158   7.290   1.973   2.662 -0.8128 -0.2436 -0.3831
  987MOL0     C33159   7.217   1.869   2.607  0.9755 -0.4269  0.7894
  987MOL0     N33160   6.625   1.722   2.404  1.0014 -0.9599 -0.4612
  987MOL0     N33161   6.518   1.708   2.322  0.2837 -0.3135 -0.8241
  987MOL0     C33162   5.503   1.714   2.218  0.4741  0.7828  0.2215
  987MOL0     C33163   5.384   1.678   2.275  0.1491  0.4094  0.3151
  987MOL0     C33164   5.050   1.372   2.371  0.0304 -0.5835  0.1454
  987MOL0     C33165   4.928   1.416   2.323  0.2238  0.5689 -0.3650
  987MOL0     C33166   4.807   1.359   2.365  0.1312  0.6179 -0.2799
  987MOL0     C33167   4.799   1.258   2.457  0.1489 -0.1032 -0.3452
  987MOL0     O33168   4.681   1.212   2.511  0.7862  0.1209  0.5479
  987MOL0     C33169   4.557   1.273   2.467 -0.1994 -0.8642  0.1807
  987MOL0     C33170   4.439   1.188   2.530 -0.1400  0.7014 -0.1727
  987MOL0     C33171   4.463   1.174   2.679 -0.0545 -0.1551 -0.5552
  987MOL0     C33172   4.510   1.303   2.748  0.6583 -0.2375 -0.0710
  987MOL0     C33173   4.478   1.307   2.893 -0.1821  0.2681 -0.1063
  987MOL0     C33174   4.441   1.306   3.012 -0.7723 -0.1841 -0.1273
  987MOL0     C33175   4.918   1.220   2.515 -0.6376  0.0271  0.2818
  987MOL0     C33176   5.041   1.271   2.475  0.6478 -0.2463 -0.7550
  987MOL0     C33177   5.161   1.204   2.539  0.4499 -0.5200  1.2907
  987MOL0     H33178   5.270   1.475   2.025 -1.9703  1.6551  0.2753
  987MOL0     H33179   5.476   1.543   1.928  0.3115 -1.0717  0.2909
  987MOL0     H33180   5.627   1.666   1.841 -0.6645  3.8579 -0.5243
  987MOL0     H33181   5.782   1.735   1.878  2.1945 -0.9861  3.3603
  987MOL0     H33182   5.811   1.514   1.827 -0.2581 -0.1702  0.5565
  987MOL0     H33183   5.707   1.465   1.963 -1.9976  2.3300  0.9779
  987MOL0     H33184   5.876   1.591   2.116  1.2435 -1.1626  0.2685
  987MOL0     H33185   5.978   1.607   1.969 -1.0370  2.0118 -0.1958
  987MOL0     H33186   5.869   1.348   2.093  1.3698 -1.1815  0.3971
  987MOL0     H33187   5.992   1.351   1.961 -0.1955  0.7641 -1.2545
  987MOL0     H33188   6.039   1.468   2.240 -2.0537 -0.8523  0.9989
  987MOL0     H33189   6.077   1.304   2.204 -0.2519  1.0949  1.2735
  987MOL0     H33190   6.261   1.364   2.059  2.7598 -0.0800  2.5743
  987MOL0     H33191   6.189   1.522   2.024 -0.9888 -0.6161  0.9948
  987MOL0     H33192   6.287   1.446   2.300  1.2627  2.1291  1.4209
  987MOL0     H33193   6.238   1.605   2.249 -2.6966 -2.1471  0.8112
  987MOL0     H33194   6.484   1.427   2.146  1.8404  1.4420 -0.8580
  987MOL0     H33195   6.438   1.596   2.085  0.9774 -1.1733 -1.5163
  987MOL0     H33196   6.633   1.400   2.345  0.4071 -0.4802 -1.6661
  987MOL0     H33197   6.760   1.567   2.614 -0.0168 -0.7127  0.0989
  987MOL0     H33198   6.815   1.461   2.485 -0.2554  0.4816 -1.3718
  987MOL0     H33199   6.882   1.753   2.467 -0.4601  1.0153  2.7007
  987MOL0     H33200   6.988   1.653   2.574 -1.5367 -2.5398  2.3596
  987MOL0     H33201   6.936   1.584   2.279 -0.5385 -0.5957  0.1014
  987MOL0     H33202   7.012   1.491   2.393 -5.2178 -1.1056 -2.0381
  987MOL0     H33203   7.079   1.772   2.312 -2.4956  0.8609  4.2695
  987MOL0     H33204   7.178   1.630   2.262 -0.6042 -1.3762 -0.3921
  987MOL0     H33205   7.436   1.759   2.373  2.6618  1.4175  0.3888
  987MOL0     H33206   7.580   1.916   2.483  1.4545 -2.7150  1.2692
  987MOL0     H33207   7.848   2.142   2.491 -0.4052 -1.9003  0.7052
  987MOL0     H33208   8.031   2.279   2.534  1.0177 -0.9003  2.6507
  987MOL0     H33209   7.995   2.553   2.914  2.5314  2.3247 -0.0649
  987MOL0     H33210   8.065   2.384   2.924 -2.0909 -0.4547 -0.4498
  987MOL0     H33211   8.198   2.578   3.004 -1.4223  1.8269 -1.1354
  987MOL0     H33212   8.273   2.472   2.882  1.2311  1.4428 -1.5620
  987MOL0     H33213   8.267   2.629   2.699 -0.6703 -0.5380 -1.1704
  987MOL0     H33214   8.177   2.748   2.809 -1.2714 -1.2767 -1.3904
  987MOL0     H33215   8.462   2.651   2.829  1.1741  1.4793 -2.1975
  987MOL0     H33216   8.364   2.752   2.947 -4.3110  0.1413 -0.4652
  987MOL0     H33217   8.334   2.916   2.758  0.9594  0.7973  1.4380
  987MOL0     H33218   8.454   2.811   2.669 -0.8219 -0.1797 -0.3006
  987MOL0     H33219   8.498   2.939   2.939  1.1433 -0.2360  0.4722
  987MOL0     H33220   8.612   2.825   2.864 -0.1761 -0.7869 -2.3744
  987MOL0     H33221   8.642   2.990   2.674  0.1817  0.8308 -1.3852
  987MOL0     H33222   8.681   3.050   2.827  0.5769 -0.6425 -1.7185
  987MOL0     H33223   8.565   3.205   2.667 -1.0149 -0.1268 -0.1165
  987MOL0     H33224   8.416   3.114   2.681  1.4044 -2.7535 -1.3292
  987MOL0     H33225   7.808   2.465   2.859  0.8329 -0.3375  1.1972
  987MOL0     H33226   7.624   2.325   2.815  0.6337 -1.2556  1.0976
  987MOL0     H33227   7.246   2.042   2.733 -4.0631 -1.6261 -0.8986
  987MOL0     H33228   7.116   1.857   2.645  0.2380  0.7066 -0.7218
  987MOL0     H33229   5.565   1.785   2.271  0.3081  1.0089  0.1133
  987MOL0     H33230   5.345   1.712   2.371 -0.4893 -2.2236  1.0884
  987MOL0     H33231   4.929   1.491   2.245  0.3009  0.7835 -0.1618
  987MOL0     H33232   4.717   1.389   2.313  0.4849 -0.8853 -1.8548
  987MOL0     H33233   4.540   1.277   2.359 -1.6707 -2.1727  0.3375
  987MOL0     H33234   4.547   1.379   2.493  0.2802 -0.7992  0.1119
  987MOL0     H33235   4.440   1.090   2.480  1.6153 -0.4600  1.9734
  987MOL0     H33236   4.340   1.233   2.517  0.3195  1.2066 -2.3496
  987MOL0     H33237   4.544   1.101   2.688  0.5871  0.7680  1.8848
  987MOL0     H33238   4.377   1.137   2.734  0.9344 -2.1906 -0.2933
  987MOL0     H33239   4.618   1.320   2.741  0.8218 -1.5365 -1.3163
  987MOL0     H33240   4.466   1.387   2.693  4.1893 -0.5271 -3.9204
  987MOL0     H33241   4.410   1.313   3.114  0.6029 -2.1064  0.4908
  987MOL0     H33242   4.917   1.137   2.585 -0.9774 -0.2295 -0.0215
  987MOL0     H33243   5.134   1.130   2.614  1.4060  0.5243  2.7063
  987MOL0     H33244   5.211   1.146   2.461 -0.3086 -1.3332  1.3966
  987MOL0     H33245   5.229   1.277   2.584 -1.4851  1.8692  0.5788
  988MOL0     O33246   9.867   5.228   0.783 -0.1538  0.4530  0.4860
  988MOL0     C33247   9.787   5.318   0.783  0.5247 -0.3503  0.9570
  988MOL0     O33248   9.811   5.448   0.798 -0.7652  0.7064  0.1915
  988MOL0     C33249   9.941   5.498   0.782 -0.6938 -0.2041 -0.0469
  988MOL0     C33250   9.976   5.626   0.843  0.0803  0.4819  0.2697
  988MOL0     C33251  10.101   5.680   0.823 -0.2348 -0.3047  0.0982
  988MOL0     C33252  10.208   5.618   0.753  0.9109  0.6646  0.1479
  988MOL0     O33253  10.329   5.680   0.746 -0.0841 -0.2178  1.0294
  988MOL0     C33254  10.444   5.606   0.714 -0.2835 -0.0104  0.6279
  988MOL0     C33255  10.456   5.604   0.559 -0.0308 -0.5710 -0.0080
  988MOL0     C33256  10.599   5.603   0.505  0.7806  0.2401 -0.5448
  988MOL0     C33257  10.656   5.741   0.499  0.0496 -0.5182 -0.4936
  988MOL0     C33258  10.753   5.762   0.381 -0.7016 -0.1021 -0.1657
  988MOL0     C33259  10.709   5.866   0.275 -0.5640 -0.6190  0.1149
  988MOL0     C33260  10.610   5.790   0.178 -0.4117 -0.4259  0.0950
  988MOL0     C33261  10.609   5.826   0.024 -0.5225 -0.4697  0.2150
  988MOL0     N33262  10.514   5.753  -0.054 -0.0050 -0.0316  0.6095
  988MOL0     C33263  10.398   5.802  -0.089  0.3634 -0.5353  0.3012
  988MOL0     C33264  10.353   5.721  -0.195  0.4348  0.3258 -0.2379
  988MOL0     C33265  10.228   5.738  -0.277 -0.0007 -0.5118 -0.7895
  988MOL0     C33266  10.098   5.749  -0.182 -0.8683 -0.1628  0.2255
  988MOL0     C33267   9.976   5.768  -0.269  0.7980 -0.2424 -0.0586
  988MOL0     C33268   9.852   5.782  -0.184  0.3749  0.6095  0.4089
  988MOL0     O33269   9.833   5.914  -0.147  0.0387 -0.2730 -0.0050
  988MOL0     C33270   9.721   5.938  -0.074  0.3934  0.7423 -0.3956
  988MOL0     C33271   9.603   5.855  -0.071  0.0400  0.0014 -0.0081
  988MOL0     C33272   9.501   5.879   0.016  0.1816  0.0875 -0.4030
  988MOL0     C33273   9.514   5.978   0.109 -0.3518 -0.2212  0.2870
  988MOL0     C33274   9.410   5.995   0.216 -0.4440  0.4221  0.4866
  988MOL0     O33275   9.290   5.952   0.184  0.1028  0.6763 -0.3552
  988MOL0     C33276   9.178   5.970   0.259  1.7812 -0.1096  0.4560
  988MOL0     C33277   9.164   5.997   0.397 -0.6530 -0.1679 -0.5844
  988MOL0     C33278   9.039   6.042   0.448 -0.2534  1.4118 -1.0678
  988MOL0     C33279   8.927   6.049   0.368  0.0073 -0.6880 -0.2258
  988MOL0     O33280   8.810   6.106   0.418  0.0225  0.1253 -0.2797
  988MOL0     C33281   8.699   6.018   0.418  0.0255 -0.2313  0.2773
  988MOL0     C33282   8.576   6.098   0.466  0.4051 -0.4654  0.7014
  988MOL0     C33283   8.437   6.018   0.458  0.5411  0.1380  0.3089
  988MOL0     C33284   8.342   6.038   0.327 -0.0413  0.3378 -0.7870
  988MOL0     C33285   8.290   6.182   0.314 -0.1487 -0.0107  0.6202
  988MOL0     C33286   8.203   6.231   0.430  0.0623 -0.3446 -0.9628
  988MOL0     C33287   8.164   6.383   0.404 -0.3230 -0.5580  0.2205
  988MOL0     C33288   8.074   6.451   0.510 -0.5989 -0.1163 -0.2055
  988MOL0    Cl33289   8.089   6.626   0.485 -0.1142 -0.5699 -0.1797
  988MOL0     C33290   8.942   6.012   0.237 -0.3442 -0.6901 -0.0870
  988MOL0     C33291   9.061   5.969   0.184  0.4421  0.0775  0.2945
  988MOL0     O33292   9.446   6.047   0.323  0.4508 -0.1943  0.9439
  988MOL0     C33293   9.614   6.080   0.097 -0.1383 -0.3682 -0.5131
  988MOL0     C33294   9.712   6.061  -0.006  0.3907  0.1657  0.6041
  988MOL0     N33295  10.445   5.625  -0.215  0.2903 -0.0175 -0.4247
  988MOL0     N33296  10.544   5.652  -0.144  0.8731 -0.3094  0.4781
  988MOL0     C33297  10.174   5.502   0.678 -0.1153  0.2620 -0.9236
  988MOL0     C33298  10.042   5.439   0.699 -0.7576  0.1782 -0.5241
  988MOL0     C33299   9.657   5.280   0.823  0.4420 -1.0321 -0.4406
  988MOL0     C33300   9.592   5.364   0.920  0.0343  0.0636  0.0655
  988MOL0     C33301   9.466   5.335   0.966 -0.6823 -0.0086  0.2100
  988MOL0     C33302   9.392   5.229   0.904  0.2533 -0.2964 -0.6724
  988MOL0     O33303   9.262   5.224   0.947  0.3797 -0.6703  0.4519
  988MOL0     C33304   9.188   5.104   0.906 -0.7222  0.4577  0.5933
  988MOL0     C33305   9.046   5.098   0.970  0.2316 -0.2060  0.9163
  988MOL0     C33306   8.947   5.176   0.878 -0.8034 -0.0502  0.9185
  988MOL0     C33307   8.967   5.332   0.871 -0.4334 -0.2374 -1.3197
  988MOL0     C33308   8.985   5.388   1.005  0.3070 -0.3346  0.1395
  988MOL0     C33309   8.997   5.427   1.119  0.3236  0.3137 -0.7242
  988MOL0     C33310   9.457   5.147   0.816  0.4359 -0.4563  0.6412
  988MOL0     C33311   9.588   5.169   0.767 -0.4940 -0.8807 -0.6118
  988MOL0     C33312   9.659   5.072   0.672 -0.1601  0.0670  0.0575
  988MOL0     H33313   9.906   5.681   0.905  0.0423  0.7637 -0.0217
  988MOL0     H33314  10.127   5.773   0.873 -2.5011 -0.4605  1.7014
  988MOL0     H33315  10.529   5.645   0.770 -0.0941 -1.9724  1.8077
  988MOL0     H33316  10.437   5.507   0.761  1.3050 -1.6097 -2.2180
  988MOL0     H33317  10.404   5.694   0.525 -1.0878 -1.5500 -1.0489
  988MOL0     H33318  10.401   5.520   0.515 -3.1878  1.1816  0.2744
  988MOL0     H33319  10.590   5.563   0.404 -1.5125 -1.5011  0.2633
  988MOL0     H33320  10.663   5.534   0.561  1.3141  1.5519  0.5256
  988MOL0     H33321  10.583   5.823   0.496 -0.6699 -1.1704 -1.2464
  988MOL0     H33322  10.708   5.752   0.594  1.1005 -1.9229 -0.8715
  988MOL0     H33323  10.823   5.828   0.433 -2.0744  1.0742  0.2790
  988MOL0     H33324  10.801   5.672   0.341  2.7206  1.2965  0.4361
  988MOL0     H33325  10.650   5.950   0.312 -1.5321 -0.9860 -0.5333
  988MOL0     H33326  10.797   5.899   0.220 -1.2696 -0.9857 -1.2684
  988MOL0     H33327  10.512   5.814   0.221  1.0347 -0.1701  3.5998
  988MOL0     H33328  10.632   5.685   0.201  2.3909  0.2397  0.8718
  988MOL0     H33329  10.574   5.930   0.022  1.3197  0.3289  3.2878
  988MOL0     H33330  10.710   5.825  -0.016 -1.1216  1.0707 -1.5013
  988MOL0     H33331  10.343   5.882  -0.041  0.6850 -0.4434  0.5211
  988MOL0     H33332  10.237   5.825  -0.342 -1.9310  0.3346 -0.0323
  988MOL0     H33333  10.205   5.657  -0.346 -0.6628 -0.8407 -0.2001
  988MOL0     H33334  10.079   5.654  -0.132  1.7724  0.6476  3.0500
  988MOL0     H33335  10.110   5.827  -0.107  0.6172  2.4442 -2.4958
  988MOL0     H33336   9.962   5.685  -0.339 -0.7647  0.2357 -0.3310
  988MOL0     H33337   9.983   5.861  -0.326 -0.7280 -1.1611 -1.8664
  988MOL0     H33338   9.860   5.714  -0.099 -1.5737  1.5713  1.4536
  988MOL0     H33339   9.768   5.751  -0.246 -0.5667 -0.3901  2.1093
  988MOL0     H33340   9.590   5.771  -0.139  2.3848 -0.9834  0.6369
  988MOL0     H33341   9.419   5.808   0.014  1.0998 -1.0223 -3.4227
  988MOL0     H33342   9.240   5.982   0.473 -0.0291 -0.6314 -1.2970
  988MOL0     H33343   9.033   6.043   0.556  0.0528  1.0913 -1.0473
  988MOL0     H33344   8.677   5.976   0.320 -1.3728  0.5066  0.2496
  988MOL0     H33345   8.726   5.931   0.480  2.2700 -2.1090 -3.0073
  988MOL0     H33346   8.589   6.130   0.570  0.6586  0.1167  0.4949
  988MOL0     H33347   8.585   6.192   0.412 -0.1187  0.3979  2.0776
  988MOL0     H33348   8.466   5.912   0.464 -3.2303 -1.0031  1.1222
  988MOL0     H33349   8.380   6.033   0.549  1.4767  0.6316  0.8321
  988MOL0     H33350   8.248   5.981   0.324 -1.8923  3.0183  1.1037
  988MOL0     H33351   8.393   6.012   0.233  1.0699 -2.2258  0.4123
  988MOL0     H33352   8.231   6.186   0.222  0.9991  0.6245 -0.1270
  988MOL0     H33353   8.373   6.251   0.298  0.5434 -0.9796 -0.1345
  988MOL0     H33354   8.105   6.183   0.441  0.2161 -0.3717  0.6252
  988MOL0     H33355   8.254   6.209   0.524  1.2899  1.5569 -1.1401
  988MOL0     H33356   8.099   6.389   0.316 -1.7374 -2.0006  1.1124
  988MOL0     H33357   8.252   6.447   0.396 -0.7899  0.3688  2.0592
  988MOL0     H33358   7.971   6.418   0.501  0.0398 -2.1938 -0.5041
  988MOL0     H33359   8.114   6.425   0.609  2.1474 -1.1295 -1.4736
  988MOL0     H33360   8.849   6.003   0.183 -1.2628 -2.7402  1.6546
  988MOL0     H33361   9.081   5.954   0.078  2.7442  0.7707  0.5571
  988MOL0     H33362   9.599   6.168   0.159 -1.9267 -1.6064  0.9513
  988MOL0     H33363   9.794   6.127  -0.031  0.1954  0.1186 -0.1792
  988MOL0     H33364  10.247   5.448   0.620  1.4473  0.5758  0.6472
  988MOL0     H33365  10.017   5.344   0.654  0.7338  0.1205 -1.3103
  988MOL0     H33366   9.647   5.449   0.960 -1.4968  0.7396  0.8173
  988MOL0     H33367   9.420   5.390   1.047  3.2876  0.7278  2.1738
  988MOL0     H33368   9.237   5.009   0.929  2.3093  0.7079 -3.6621
  988MOL0     H33369   9.186   5.105   0.797 -3.0125  2.6384  0.5490
  988MOL0     H33370   9.051   5.141   1.071 -0.5292 -1.7423  1.6434
  988MOL0     H33371   9.022   4.992   0.960  0.7189 -0.0869 -5.1100
  988MOL0     H33372   8.844   5.164   0.911  0.0567 -1.4728  3.3780
  988MOL0     H33373   8.956   5.137   0.776  0.5896  0.3194  0.8708
  988MOL0     H33374   9.051   5.369   0.810  0.8023  2.5782  1.7931
  988MOL0     H33375   8.873   5.376   0.836 -0.6975  0.5730  0.3383
  988MOL0     H33376   8.997   5.474   1.215 -0.9153  0.0171 -0.5600
  988MOL0     H33377   9.407   5.059   0.777 -1.9237 -0.1636  2.7360
  988MOL0     H33378   9.585   4.995   0.650 -1.9424  1.4578  0.9260
  988MOL0     H33379   9.676   5.122   0.576  2.0951  3.6963  2.0842
  988MOL0     H33380   9.748   5.030   0.719  0.7165  1.4856 -0.2651
  989MOL0     O33381   5.544   1.395   4.016  0.0173  0.2034 -0.6298
  989MOL0     C33382   5.489   1.374   3.909 -0.2282 -1.2714 -0.0846
  989MOL0     O33383   5.551   1.322   3.804  0.0538  0.1212 -0.2330
  989MOL0     C33384   5.680   1.311   3.820  0.0025 -0.1880 -0.0029
  989MOL0     C33385   5.731   1.209   3.888 -0.4467  1.0578  0.1426
  989MOL0     C33386   5.871   1.195   3.909 -0.6777 -0.9610  0.4406
  989MOL0     C33387   5.961   1.272   3.836 -0.8478 -0.2222  0.1036
  989MOL0     O33388   6.101   1.259   3.853  0.2606  0.1814 -0.6615
  989MOL0     C33389   6.180   1.371   3.827  0.9037 -1.1548 -0.5047
  989MOL0     C33390   6.318   1.346   3.885 -0.1153 -0.7269 -0.1982
  989MOL0     C33391   6.406   1.262   3.798 -0.8251  0.4723  0.5757
  989MOL0     C33392   6.544   1.230   3.874 -0.1070  0.5705 -0.5516
  989MOL0     C33393   6.651   1.168   3.771 -0.9575  0.2800 -0.1036
  989MOL0     C33394   6.725   1.292   3.712 -0.3286  0.2524  1.0001
  989MOL0     C33395   6.848   1.250   3.621 -0.3132  0.1521  0.1095
  989MOL0     C33396   6.806   1.164   3.503  0.1420 -0.9872 -0.5791
  989MOL0     N33397   6.929   1.149   3.423  0.1044  0.3801 -0.2328
  989MOL0     C33398   6.956   1.222   3.309  0.2557  0.7981  0.5394
  989MOL0     C33399   7.081   1.168   3.270 -0.0145 -0.0157  0.4241
  989MOL0     C33400   7.165   1.214   3.152  0.0894  0.3440  0.2692
  989MOL0     C33401   7.316   1.203   3.199  0.0412 -0.2269  0.4225
  989MOL0     C33402   7.402   1.260   3.099 -0.9959  0.4087  0.5202
  989MOL0     C33403   7.543   1.276   3.147  0.2293 -0.0821 -0.2906
  989MOL0     O33404   7.630   1.309   3.037  0.3994  0.7522  0.4116
  989MOL0     C33405   7.760   1.339   3.076 -0.7422  0.0862 -0.2985
  989MOL0     C33406   7.846   1.373   2.976 -0.1261  0.0949  0.5428
  989MOL0     C33407   7.973   1.426   2.997  0.6904 -0.1625  0.2322
  989MOL0     C33408   8.024   1.432   3.128  0.3113 -0.1219 -0.2105
  989MOL0     C33409   8.163   1.491   3.148  0.3730  0.9082  1.0477
  989MOL0     O33410   8.247   1.481   3.035 -0.3162  0.1201 -0.1710
  989MOL0     C33411   8.380   1.530   3.049 -1.0660 -0.4530  0.4068
  989MOL0     C33412   8.438   1.611   2.949  0.1449 -0.8006 -0.1035
  989MOL0     C33413   8.573   1.661   2.975 -0.0554 -0.4691  0.0593
  989MOL0     C33414   8.646   1.603   3.077  0.0051 -0.1379 -0.0194
  989MOL0     O33415   8.781   1.630   3.115 -0.3588  0.1439 -0.4508
  989MOL0     C33416   8.843   1.724   3.029 -0.5777 -0.2342 -0.8409
  989MOL0     C33417   8.955   1.783   3.112 -0.9304  0.7591  0.8303
  989MOL0     C33418   9.078   1.820   3.016 -0.1607  0.0417  0.4936
  989MOL0     C33419   9.187   1.878   3.106 -0.8736 -0.2643  0.2986
  989MOL0     C33420   9.322   1.866   3.030 -0.3174 -0.1896 -0.1116
  989MOL0     C33421   9.426   1.961   3.094 -0.2361 -0.3841  0.2508
  989MOL0     C33422   9.555   1.969   3.012 -0.4953 -0.2297  0.0336
  989MOL0     C33423   9.659   1.870   3.066 -0.0344  0.2633  0.2105
  989MOL0    Cl33424   9.828   1.898   2.999  0.7128  0.0077  0.0569
  989MOL0     C33425   8.586   1.526   3.170 -0.6638  0.2806 -0.2242
  989MOL0     C33426   8.454   1.489   3.155 -0.5595  0.5943 -0.0273
  989MOL0     O33427   8.193   1.525   3.259  0.2089 -0.7298 -0.2958
  989MOL0     C33428   7.941   1.386   3.232  0.2029 -0.1603  0.3829
  989MOL0     C33429   7.807   1.338   3.205  0.1373  0.6186  0.1560
  989MOL0     N33430   7.114   1.060   3.353  0.0069  0.7523  0.1614
  989MOL0     N33431   7.022   1.051   3.443  0.1129  0.3565 -0.0337
  989MOL0     C33432   5.901   1.372   3.749  0.1399  0.2611 -0.4328
  989MOL0     C33433   5.768   1.390   3.742  0.3078 -0.0033 -0.2815
  989MOL0     C33434   5.345   1.425   3.879  0.1161  1.1808  0.4860
  989MOL0     C33435   5.294   1.414   3.750 -0.1360  0.1890 -0.1662
  989MOL0     C33436   5.164   1.452   3.721  0.4947 -0.2799  0.2522
  989MOL0     C33437   5.074   1.486   3.824  0.5178  0.6829  0.4294
  989MOL0     O33438   4.940   1.506   3.808 -0.8259 -0.4103 -0.3387
  989MOL0     C33439   4.878   1.456   3.692  0.3099 -0.6334 -0.4617
  989MOL0     C33440   4.739   1.444   3.748 -0.1739  0.0016  0.1437
  989MOL0     C33441   4.667   1.577   3.750  0.9386  0.3398  0.5341
  989MOL0     C33442   4.517   1.570   3.796  0.1088  0.6837  0.0361
  989MOL0     C33443   4.434   1.476   3.727 -0.1653 -1.2767 -0.9339
  989MOL0     C33444   4.374   1.390   3.667  0.4111 -0.5063  0.4476
  989MOL0     C33445   5.123   1.489   3.954 -0.1519  0.5666 -0.2077
  989MOL0     C33446   5.257   1.458   3.983  0.6113 -0.5314 -0.4447
  989MOL0     C33447   5.297   1.475   4.131 -1.0986  0.3567  0.0903
  989MOL0     H33448   5.656   1.149   3.940 -2.9680  1.1765 -3.0471
  989MOL0     H33449   5.905   1.112   3.971  1.6170  0.0646  0.6373
  989MOL0     H33450   6.184   1.387   3.719 -1.3341 -0.6343 -0.5530
  989MOL0     H33451   6.136   1.463   3.866 -0.0721 -1.2448 -1.3376
  989MOL0     H33452   6.313   1.311   3.989 -1.2498  2.7693  1.0492
  989MOL0     H33453   6.367   1.443   3.888  1.6485 -1.5262 -1.3329
  989MOL0     H33454   6.428   1.308   3.700 -1.3347  0.4935  0.4717
  989MOL0     H33455   6.357   1.166   3.781  1.0783  0.0134 -4.1455
  989MOL0     H33456   6.586   1.314   3.930  1.6239 -1.1569  0.9071
  989MOL0     H33457   6.531   1.149   3.947  3.6113  0.5542  0.2866
  989MOL0     H33458   6.727   1.104   3.816 -0.8114  0.2424 -0.3988
  989MOL0     H33459   6.601   1.113   3.690 -1.9814 -1.0559  1.3786
  989MOL0     H33460   6.657   1.343   3.644  2.5095  3.6259  0.4686
  989MOL0     H33461   6.761   1.359   3.791 -1.2670  2.3847 -0.3072
  989MOL0     H33462   6.925   1.202   3.681  1.6523  0.4419 -2.0447
  989MOL0     H33463   6.898   1.337   3.578 -1.5733  0.4897 -0.7155
  989MOL0     H33464   6.782   1.066   3.546  0.6503 -1.4523 -1.3551
  989MOL0     H33465   6.725   1.206   3.443 -0.6307  2.2146  2.3486
  989MOL0     H33466   6.898   1.302   3.264  1.1179  0.3498 -1.4895
  989MOL0     H33467   7.143   1.159   3.060  1.1760  2.2152 -1.1544
  989MOL0     H33468   7.143   1.320   3.141 -3.2538 -0.1740  0.7032
  989MOL0     H33469   7.325   1.244   3.300 -1.2548  1.0129  0.0765
  989MOL0     H33470   7.335   1.096   3.198  1.6829  0.0452 -0.4651
  989MOL0     H33471   7.362   1.356   3.065 -0.5723  0.2175 -0.5652
  989MOL0     H33472   7.397   1.205   3.004  4.5464  3.4988 -2.0506
  989MOL0     H33473   7.588   1.188   3.193  2.0827  1.3495  0.7784
  989MOL0     H33474   7.539   1.355   3.223 -1.7650  0.0294 -0.4543
  989MOL0     H33475   7.797   1.367   2.879 -2.2558  0.1002  1.5483
  989MOL0     H33476   8.043   1.450   2.917  0.8067 -3.8813 -0.9828
  989MOL0     H33477   8.366   1.647   2.877 -2.3637 -2.5505  1.4026
  989MOL0     H33478   8.614   1.732   2.903 -0.4834  1.7180  1.8443
  989MOL0     H33479   8.881   1.667   2.943  1.8841 -0.5385  0.3487
  989MOL0     H33480   8.796   1.816   2.994  2.5426  1.3663 -1.1564
  989MOL0     H33481   8.925   1.876   3.162 -1.1571  1.6425 -0.8846
  989MOL0     H33482   8.993   1.717   3.191  1.8694  0.3492 -0.7389
  989MOL0     H33483   9.112   1.728   2.967 -0.2735 -0.8413  2.0083
  989MOL0     H33484   9.056   1.892   2.936  2.3463 -0.5387 -0.8353
  989MOL0     H33485   9.181   1.820   3.198  0.2005  0.8741  1.1130
  989MOL0     H33486   9.148   1.976   3.137 -3.1468 -1.5814  1.8410
  989MOL0     H33487   9.297   1.897   2.928 -2.3427 -1.7924 -0.1747
  989MOL0     H33488   9.369   1.769   3.014  1.6591  0.7778 -0.4695
  989MOL0     H33489   9.379   2.060   3.104 -3.0829 -1.8316  3.0477
  989MOL0     H33490   9.437   1.923   3.195 -1.6164 -0.6002  0.3474
  989MOL0     H33491   9.596   2.070   3.016  0.6536 -0.7319  1.2003
  989MOL0     H33492   9.521   1.949   2.909 -1.7097 -2.8146  0.8589
  989MOL0     H33493   9.658   1.899   3.172  0.9718  0.5115  0.1619
  989MOL0     H33494   9.639   1.763   3.058  0.1792  0.0160  2.5109
  989MOL0     H33495   8.651   1.497   3.252 -0.1185  2.4981  0.1836
  989MOL0     H33496   8.407   1.436   3.238  0.2689 -0.1352 -0.0113
  989MOL0     H33497   7.985   1.385   3.331 -0.0197 -0.7015  0.4801
  989MOL0     H33498   7.749   1.302   3.290  0.7870  0.6211  0.6096
  989MOL0     H33499   5.954   1.447   3.691  0.5041  0.1351 -0.2665
  989MOL0     H33500   5.713   1.463   3.683  0.7920 -0.6248 -1.5520
  989MOL0     H33501   5.341   1.384   3.657 -3.3941 -2.9102 -1.0341
  989MOL0     H33502   5.139   1.462   3.615  2.2883  3.9186  0.0154
  989MOL0     H33503   4.928   1.363   3.663  2.3203  0.5353 -0.9135
  989MOL0     H33504   4.891   1.517   3.602  2.0659 -0.6657 -0.2775
  989MOL0     H33505   4.751   1.411   3.851  1.2058  0.8311  0.2701
  989MOL0     H33506   4.681   1.377   3.684 -0.5757 -0.4018  0.9245
  989MOL0     H33507   4.669   1.621   3.650 -1.2065  1.0142  0.7425
  989MOL0     H33508   4.718   1.650   3.813 -0.8888 -0.2020  2.7661
  989MOL0     H33509   4.524   1.539   3.900  0.7127 -3.4285 -1.0529
  989MOL0     H33510   4.463   1.665   3.796 -0.8852  0.1461 -1.3125
  989MOL0     H33511   4.310   1.319   3.619 -1.4069  1.3386 -0.0196
  989MOL0     H33512   5.044   1.519   4.023 -0.3867 -1.2458  0.3632
  989MOL0     H33513   5.347   1.382   4.158  0.6630  0.7302 -1.6714
  989MOL0     H33514   5.365   1.561   4.134 -1.3889  0.7515 -2.2783
  989MOL0     H33515   5.211   1.502   4.193 -0.9071  0.4746  0.3059
  990MOL0     O33516   8.841   8.793   1.059 -0.3226  0.2165  0.3920
  990MOL0     C33517   8.898   8.878   1.128 -0.5836 -0.3880 -0.4939
  990MOL0     O33518   9.030   8.909   1.123 -0.1857 -0.1150  0.2778
  990MOL0     C33519   9.125   8.834   1.067 -0.1492  0.0233  0.3537
  990MOL0     C33520   9.119   8.697   1.034 -0.0502  0.4321 -0.8162
  990MOL0     C33521   9.220   8.640   0.952  0.3548 -0.3880 -0.3283
  990MOL0     C33522   9.337   8.713   0.916  0.7589 -0.1547  0.1929
  990MOL0     O33523   9.431   8.646   0.840 -0.0296 -0.3141 -0.2900
  990MOL0     C33524   9.561   8.700   0.819 -0.2177  0.0987  0.0992
  990MOL0     C33525   9.645   8.597   0.751  0.0989 -0.0592 -0.0633
  990MOL0     C33526   9.791   8.631   0.746  0.6494  0.5475  0.4210
  990MOL0     C33527   9.832   8.663   0.598  0.3981 -0.1744 -0.4205
  990MOL0     C33528   9.972   8.730   0.573  0.3004  0.3667  0.5267
  990MOL0     C33529  10.078   8.621   0.562  0.3369  0.0047 -0.3870
  990MOL0     C33530  10.222   8.676   0.578  0.4822 -0.5737 -0.0879
  990MOL0     C33531  10.332   8.574   0.619 -0.3123 -0.5350  0.4057
  990MOL0     N33532  10.464   8.631   0.615 -0.2579  0.0935  0.7337
  990MOL0     C33533  10.525   8.714   0.703 -0.0861 -0.3963  0.4493
  990MOL0     C33534  10.647   8.733   0.660  0.7833 -0.4604 -0.4078
  990MOL0     C33535  10.755   8.824   0.722 -0.2117 -0.0666  0.0460
  990MOL0     C33536  10.837   8.734   0.808 -0.0100  0.0829 -0.5386
  990MOL0     C33537  10.923   8.622   0.746 -1.1990  0.1688 -0.4365
  990MOL0     C33538  11.053   8.654   0.669 -0.5514  0.1298  0.1378
  990MOL0     O33539  11.131   8.728   0.755  0.2807  0.3874 -0.4533
  990MOL0     C33540  11.259   8.702   0.781 -0.3411  0.3831  0.5105
  990MOL0     C33541  11.354   8.792   0.738  0.3008  0.3270  0.1271
  990MOL0     C33542  11.489   8.767   0.760  0.0205  0.0057  0.5525
  990MOL0     C33543  11.534   8.650   0.808  0.2616  0.2724 -1.6493
  990MOL0     C33544  11.671   8.613   0.831 -0.1155  0.1462 -0.0961
  990MOL0     O33545  11.696   8.518   0.930  0.7701 -0.5119  0.1428
  990MOL0     C33546  11.826   8.471   0.963  0.2399  0.1139  0.3626
  990MOL0     C33547  11.840   8.344   1.009 -0.4917  1.1734  0.0489
  990MOL0     C33548  11.956   8.286   1.046 -0.2589  0.3896 -0.5968
  990MOL0     C33549  12.076   8.358   1.033  0.0220 -0.4359 -0.6818
  990MOL0     O33550  12.191   8.294   1.053  0.1404 -0.4817  0.1030
  990MOL0     C33551  12.309   8.378   1.056 -0.4176 -0.9628  0.0715
  990MOL0     C33552  12.437   8.303   1.104  0.7385 -0.2651 -0.0231
  990MOL0     C33553  12.462   8.169   1.037  0.2635  0.1626  0.4971
  990MOL0     C33554  12.616   8.135   1.045  0.2562  1.6374 -0.2785
  990MOL0     C33555  12.644   7.998   0.981  1.0117 -0.7451  0.1576
  990MOL0     C33556  12.792   7.957   1.023  0.4205 -0.3993 -0.0741
  990MOL0     C33557  12.843   7.837   0.938  0.2994 -0.6338 -0.4373
  990MOL0     C33558  12.986   7.802   0.975 -0.4499  0.4505  0.5336
  990MOL0    Cl33559  13.110   7.889   0.876 -0.3861 -0.2803  0.0316
  990MOL0     C33560  12.064   8.490   0.993  0.2161 -0.6131  0.3647
  990MOL0     C33561  11.943   8.548   0.959  0.6764 -0.1076 -0.2973
  990MOL0     O33562  11.759   8.663   0.762 -0.3491 -0.2681  0.0627
  990MOL0     C33563  11.436   8.561   0.855 -0.6280 -0.1672 -0.5114
  990MOL0     C33564  11.303   8.581   0.842 -0.2201  0.4918  0.8288
  990MOL0     N33565  10.655   8.677   0.535  0.4576  0.7030  0.1401
  990MOL0     N33566  10.545   8.608   0.509  0.3744  0.3906 -0.5920
  990MOL0     C33567   9.342   8.845   0.958  0.8537  0.0401 -0.5342
  990MOL0     C33568   9.244   8.903   1.037 -0.0023 -0.1867 -0.1491
  990MOL0     C33569   8.826   8.981   1.207 -0.4042 -0.3935  0.0530
  990MOL0     C33570   8.878   9.119   1.205  1.1281  0.2101  0.9377
  990MOL0     C33571   8.822   9.217   1.284  0.0068 -1.3422 -0.6773
  990MOL0     C33572   8.717   9.189   1.372  0.1047  0.3553 -0.3152
  990MOL0     O33573   8.647   9.277   1.455 -0.3280  0.3019  0.0199
  990MOL0     C33574   8.640   9.416   1.418  0.1811  0.2208 -0.1942
  990MOL0     C33575   8.513   9.487   1.463  0.1053  0.0561  0.1198
  990MOL0     C33576   8.380   9.423   1.433  0.2031  0.2252 -0.4161
  990MOL0     C33577   8.334   9.306   1.516 -0.6056  0.5244  0.6847
  990MOL0     C33578   8.183   9.293   1.544  0.3471  0.9555  0.1094
  990MOL0     C33579   8.065   9.261   1.566 -0.2430  0.0879  0.1658
  990MOL0     C33580   8.669   9.055   1.385 -0.3277 -0.2764 -0.3054
  990MOL0     C33581   8.719   8.951   1.296 -0.2505  0.3675 -1.2005
  990MOL0     C33582   8.673   8.805   1.332 -0.7492  0.1404  0.7803
  990MOL0     H33583   9.030   8.651   1.073  0.0485  1.8056  1.1770
  990MOL0     H33584   9.208   8.535   0.926  0.4036 -0.0372 -1.8818
  990MOL0     H33585   9.550   8.790   0.758 -1.5440  0.0323  0.1963
  990MOL0     H33586   9.601   8.727   0.917 -0.5099  0.0549  0.2337
  990MOL0     H33587   9.614   8.582   0.647  0.2463  2.3775 -0.5050
  990MOL0     H33588   9.626   8.498   0.792 -2.1380 -1.0977 -3.1818
  990MOL0     H33589   9.848   8.543   0.776  1.6268  0.8529 -0.4561
  990MOL0     H33590   9.821   8.719   0.804  0.3658  0.1607  1.1602
  990MOL0     H33591   9.812   8.578   0.532  0.6571  0.0935 -0.8488
  990MOL0     H33592   9.755   8.735   0.567 -1.3787 -2.3813 -1.4776
  990MOL0     H33593   9.978   8.788   0.480  1.4805 -4.3139 -2.6797
  990MOL0     H33594   9.991   8.800   0.654  1.4039  1.9749 -1.0422
  990MOL0     H33595  10.068   8.563   0.655 -1.9262 -1.1974 -1.3037
  990MOL0     H33596  10.067   8.556   0.475  0.1461  0.1821 -0.4946
  990MOL0     H33597  10.213   8.753   0.655 -3.3407  0.1782 -1.0867
  990MOL0     H33598  10.262   8.728   0.490  2.1346  0.4675  1.2217
  990MOL0     H33599  10.313   8.530   0.717 -0.1077 -0.3722  0.5187
  990MOL0     H33600  10.335   8.486   0.553  1.5887 -0.8111  0.7835
  990MOL0     H33601  10.479   8.753   0.793 -1.0085  0.8826 -0.5319
  990MOL0     H33602  10.814   8.860   0.637 -1.1110 -0.0220 -0.5798
  990MOL0     H33603  10.710   8.899   0.788  0.5397 -0.4880  1.0486
  990MOL0     H33604  10.906   8.797   0.866 -1.9280  0.4153  1.5089
  990MOL0     H33605  10.762   8.701   0.881  0.6251 -0.5837 -0.1688
  990MOL0     H33606  10.867   8.555   0.680  0.2202 -1.4696 -0.0479
  990MOL0     H33607  10.956   8.556   0.827  0.4715 -0.1133 -1.3045
  990MOL0     H33608  11.034   8.708   0.576  0.7498  3.1208  1.4715
  990MOL0     H33609  11.110   8.564   0.644  0.4523  0.0254  2.5052
  990MOL0     H33610  11.325   8.885   0.690  2.1049  1.8243  1.7724
  990MOL0     H33611  11.558   8.850   0.747 -0.1587 -0.1361 -1.6804
  990MOL0     H33612  11.759   8.273   1.013 -0.5532  1.2929  1.4398
  990MOL0     H33613  11.955   8.181   1.073  0.8330  0.4406 -0.3288
  990MOL0     H33614  12.337   8.435   0.967  0.6251  2.5153  2.3939
  990MOL0     H33615  12.290   8.456   1.130 -1.3807 -0.3781 -0.7652
  990MOL0     H33616  12.519   8.372   1.087  1.8587 -1.5901 -0.1535
  990MOL0     H33617  12.430   8.276   1.210  2.2823 -1.3117 -0.1630
  990MOL0     H33618  12.401   8.086   1.073  1.3739 -1.3195 -0.8722
  990MOL0     H33619  12.442   8.170   0.929 -0.9929 -3.6134  0.5449
  990MOL0     H33620  12.630   8.130   1.153  0.6512 -1.1510 -0.3807
  990MOL0     H33621  12.676   8.221   1.013 -0.4887  1.3715 -2.5902
  990MOL0     H33622  12.638   8.009   0.872  1.1330  2.5677  0.3571
  990MOL0     H33623  12.566   7.925   1.002 -1.3656  1.3192 -0.9372
  990MOL0     H33624  12.861   8.041   1.028  0.7233 -0.4617 -2.4162
  990MOL0     H33625  12.779   7.925   1.127 -1.7668  1.7017  0.3961
  990MOL0     H33626  12.853   7.872   0.835  1.5895  3.8304  0.9619
  990MOL0     H33627  12.782   7.747   0.954  1.0762 -0.8732  1.5744
  990MOL0     H33628  12.999   7.832   1.080 -2.5006  0.1235  0.9367
  990MOL0     H33629  12.998   7.696   0.951 -1.6693  0.7331 -1.6276
  990MOL0     H33630  12.153   8.551   0.989  0.0606 -0.3924  0.2160
  990MOL0     H33631  11.942   8.651   0.927 -0.3141 -0.9963 -3.4014
  990MOL0     H33632  11.459   8.468   0.907 -3.8178 -0.6988  0.1432
  990MOL0     H33633  11.228   8.515   0.883 -1.7703  1.0960 -0.8620
  990MOL0     H33634   9.423   8.899   0.911  0.7133  0.7373  0.0018
  990MOL0     H33635   9.244   9.008   1.068 -1.5945 -0.2341  0.1079
  990MOL0     H33636   8.942   9.159   1.127  0.1198  0.8371  0.4198
  990MOL0     H33637   8.870   9.309   1.252 -1.4792 -0.8003 -1.4287
  990MOL0     H33638   8.636   9.423   1.309  4.0503  0.2761 -0.4782
  990MOL0     H33639   8.728   9.469   1.456 -0.3647 -0.1481  1.6789
  990MOL0     H33640   8.511   9.594   1.440  0.8196  0.0124 -0.1632
  990MOL0     H33641   8.517   9.494   1.572  0.6588  3.2718 -0.0147
  990MOL0     H33642   8.383   9.372   1.336 -2.7608 -1.0880  0.0758
  990MOL0     H33643   8.302   9.499   1.421 -0.7086 -0.3245  1.5623
  990MOL0     H33644   8.377   9.217   1.470  0.9118  1.6371 -0.1315
  990MOL0     H33645   8.393   9.314   1.608  0.0959 -4.2623  0.8888
  990MOL0     H33646   7.959   9.247   1.578 -0.7885  2.2573 -1.4517
  990MOL0     H33647   8.590   9.023   1.452  1.1086  0.9170  2.1317
  990MOL0     H33648   8.759   8.755   1.378  0.0493 -1.1182 -1.9044
  990MOL0     H33649   8.589   8.797   1.402 -0.3944  0.1657  1.2169
  990MOL0     H33650   8.642   8.747   1.245  0.3344  0.4769  0.1473
  991MOL0     O33651   3.304   4.140   5.114  0.2677  0.0031 -0.1130
  991MOL0     C33652   3.341   4.249   5.067  0.1970  0.8938  0.0971
  991MOL0     O33653   3.460   4.272   4.999 -0.2799  0.3424 -0.4372
  991MOL0     C33654   3.560   4.180   5.022  0.6524 -0.0742 -0.1390
  991MOL0     C33655   3.545   4.051   4.969 -0.0404 -0.5617 -0.1395
  991MOL0     C33656   3.644   3.956   4.992  0.1441 -0.6184 -0.2678
  991MOL0     C33657   3.762   3.991   5.055  0.1203 -0.7143 -0.5832
  991MOL0     O33658   3.863   3.894   5.077  0.1126 -0.7694  0.7210
  991MOL0     C33659   3.987   3.918   5.144  0.5083 -0.1822 -0.2832
  991MOL0     C33660   4.075   3.794   5.164  0.0096 -0.0425 -0.1605
  991MOL0     C33661   4.197   3.822   5.254  0.3500 -0.3519 -0.2537
  991MOL0     C33662   4.307   3.904   5.188  0.0268  0.1158 -0.5698
  991MOL0     C33663   4.407   3.974   5.286  0.3461 -0.6339  0.7692
  991MOL0     C33664   4.529   3.889   5.307 -0.2439  0.0930 -0.6984
  991MOL0     C33665   4.614   3.947   5.427  0.4360 -0.8666 -0.4278
  991MOL0     C33666   4.731   3.859   5.458  0.5604  0.1020 -0.3792
  991MOL0     N33667   4.777   3.887   5.597  0.2979  0.6264  0.6180
  991MOL0     C33668   4.869   3.976   5.630 -0.7593 -0.0892 -0.2941
  991MOL0     C33669   4.899   3.947   5.761 -0.3184  0.0693  0.0735
  991MOL0     C33670   5.005   4.007   5.842 -0.0583  0.3659  0.0693
  991MOL0     C33671   5.103   3.899   5.881 -0.2294 -0.0461  0.6892
  991MOL0     C33672   5.226   3.883   5.788 -0.3691 -0.6021 -0.2922
  991MOL0     C33673   5.325   3.776   5.825 -0.0763  0.0885  0.1215
  991MOL0     O33674   5.407   3.738   5.711  0.6119 -0.9600 -0.3989
  991MOL0     C33675   5.522   3.812   5.698  0.5146 -0.2195  0.3374
  991MOL0     C33676   5.572   3.911   5.787 -0.8397  0.4296  0.2073
  991MOL0     C33677   5.688   3.990   5.751  0.0493  0.5040 -0.7450
  991MOL0     C33678   5.767   3.944   5.646 -0.2325 -0.6488 -0.3545
  991MOL0     C33679   5.903   3.999   5.619  0.1302 -0.2982 -0.1893
  991MOL0     O33680   5.966   3.968   5.496 -0.1768 -0.1045  0.4429
  991MOL0     C33681   6.092   4.015   5.475 -0.1516 -0.7246  0.8851
  991MOL0     C33682   6.172   3.952   5.379 -0.6655 -0.2936 -0.4263
  991MOL0     C33683   6.303   3.996   5.348  0.1787  0.2945 -0.1304
  991MOL0     C33684   6.352   4.113   5.400 -0.3736  0.7969 -1.0374
  991MOL0     O33685   6.470   4.167   5.357  1.1136  0.7376 -0.1717
  991MOL0     C33686   6.571   4.191   5.455  0.2923  0.0171 -0.3192
  991MOL0     C33687   6.686   4.269   5.387  0.1187  0.3964  0.4005
  991MOL0     C33688   6.645   4.398   5.326 -0.1827 -0.2581 -0.1343
  991MOL0     C33689   6.752   4.461   5.233 -0.4174  0.1329 -0.1102
  991MOL0     C33690   6.729   4.608   5.209 -0.4728  0.8652 -0.7405
  991MOL0     C33691   6.835   4.678   5.133 -0.1255  0.5297  0.8848
  991MOL0     C33692   6.783   4.819   5.080  0.1941  0.0521  0.4104
  991MOL0     C33693   6.858   4.860   4.953 -0.1814  0.4540  0.3830
  991MOL0    Cl33694   7.025   4.897   5.018  0.2644 -0.2139  0.1392
  991MOL0     C33695   6.276   4.178   5.500  0.3619 -0.5437  0.3854
  991MOL0     C33696   6.148   4.134   5.535 -0.1732  1.4599 -0.0927
  991MOL0     O33697   5.954   4.067   5.709 -0.1381 -0.0398  0.2572
  991MOL0     C33698   5.718   3.840   5.559  0.3183  0.3960 -0.9509
  991MOL0     C33699   5.598   3.777   5.586  0.0683  0.5227 -0.0148
  991MOL0     N33700   4.806   3.867   5.812  0.2242  0.7084  0.3529
  991MOL0     N33701   4.741   3.821   5.711  0.7897 -0.2980 -0.0744
  991MOL0     C33702   3.773   4.128   5.110  0.2877  0.1120  0.3410
  991MOL0     C33703   3.667   4.218   5.089 -0.3180  0.5966  0.1394
  991MOL0     C33704   3.226   4.356   5.058 -0.5369 -0.2689 -0.5736
  991MOL0     C33705   3.220   4.443   4.947  0.2047  1.1395 -0.4856
  991MOL0     C33706   3.107   4.530   4.929 -0.1458  0.2253  0.3018
  991MOL0     C33707   2.998   4.531   5.017 -0.0576 -0.5596 -0.8295
  991MOL0     O33708   2.893   4.611   4.979  0.3643  0.1685 -0.0400
  991MOL0     C33709   2.764   4.598   5.048  0.0283 -0.1773 -0.3272
  991MOL0     C33710   2.662   4.687   4.973  0.1499 -1.1377 -0.3863
  991MOL0     C33711   2.533   4.665   5.043 -0.2362  0.4386 -0.5071
  991MOL0     C33712   2.435   4.776   5.011 -0.3687  0.2276  0.3053
  991MOL0     C33713   2.312   4.766   5.097  0.0756 -0.2984 -0.3962
  991MOL0     C33714   2.206   4.743   5.160 -0.4654  0.3744 -0.1469
  991MOL0     C33715   3.006   4.456   5.135  0.2330  0.1274  0.2657
  991MOL0     C33716   3.120   4.371   5.155 -0.5153 -0.9045 -0.8624
  991MOL0     C33717   3.111   4.287   5.281 -0.9184  0.2193 -0.2638
  991MOL0     H33718   3.456   4.028   4.911 -0.2770  1.0625 -0.4525
  991MOL0     H33719   3.643   3.851   4.963  2.1755 -1.1290  1.2775
  991MOL0     H33720   4.046   3.984   5.080 -1.1203 -0.3179 -2.0222
  991MOL0     H33721   3.963   3.959   5.242 -0.1080 -0.9056 -0.1193
  991MOL0     H33722   4.112   3.757   5.068 -1.6844 -3.8232  0.4690
  991MOL0     H33723   4.030   3.706   5.212 -0.7763 -0.3562 -1.4259
  991MOL0     H33724   4.244   3.732   5.293  0.1199 -0.5612 -0.4575
  991MOL0     H33725   4.166   3.879   5.342  4.3575 -0.0074  1.1826
  991MOL0     H33726   4.361   3.828   5.130  0.3158 -0.2429  0.1615
  991MOL0     H33727   4.265   3.978   5.119 -1.3681  0.2084  0.3531
  991MOL0     H33728   4.445   4.069   5.248  0.1271 -1.2716 -1.1454
  991MOL0     H33729   4.358   4.004   5.379  0.9477  1.6779  0.4043
  991MOL0     H33730   4.492   3.789   5.332  1.7947  0.1642  3.4659
  991MOL0     H33731   4.587   3.877   5.215 -2.1240  1.3937 -2.1338
  991MOL0     H33732   4.556   3.959   5.519  0.3072  2.5368 -0.8203
  991MOL0     H33733   4.645   4.051   5.413 -1.4435 -0.0718  0.9521
  991MOL0     H33734   4.707   3.753   5.449  3.7200 -0.7302 -0.3677
  991MOL0     H33735   4.818   3.875   5.393  1.4604 -0.3334  0.7012
  991MOL0     H33736   4.914   4.052   5.567 -0.1217  1.5078  1.9557
  991MOL0     H33737   5.063   4.084   5.790 -1.0943  0.6346 -0.7182
  991MOL0     H33738   4.968   4.044   5.937 -1.8231  0.4521 -0.6077
  991MOL0     H33739   5.150   3.936   5.973  1.2133  0.0205 -0.0430
  991MOL0     H33740   5.052   3.803   5.893  1.9147 -1.1828  1.1778
  991MOL0     H33741   5.279   3.979   5.784  0.0184 -0.7908  0.2458
  991MOL0     H33742   5.195   3.852   5.687  0.6730 -0.0296 -0.8060
  991MOL0     H33743   5.263   3.690   5.855  1.2837 -0.3157  1.9976
  991MOL0     H33744   5.387   3.798   5.913 -1.3702  1.4620  0.7354
  991MOL0     H33745   5.516   3.945   5.873 -1.9722 -1.4835  0.2965
  991MOL0     H33746   5.721   4.072   5.814  2.5381  0.1123 -1.4469
  991MOL0     H33747   6.136   3.859   5.337 -2.8845 -0.7205  2.1124
  991MOL0     H33748   6.359   3.955   5.265  0.8471 -0.2548  0.5817
  991MOL0     H33749   6.540   4.248   5.542 -1.1801 -0.3139 -0.5882
  991MOL0     H33750   6.597   4.087   5.479  0.0113 -0.5337 -2.1675
  991MOL0     H33751   6.765   4.286   5.462  2.8028  0.3841 -2.2266
  991MOL0     H33752   6.725   4.204   5.308 -0.9362  0.4380 -0.1681
  991MOL0     H33753   6.563   4.384   5.254  2.4940 -2.8457 -2.9461
  991MOL0     H33754   6.623   4.470   5.405 -1.9413  0.5394 -1.2944
  991MOL0     H33755   6.758   4.400   5.142 -1.2303 -0.9534  0.5434
  991MOL0     H33756   6.841   4.459   5.297 -1.2636  1.9130  1.2167
  991MOL0     H33757   6.721   4.656   5.307  0.0025 -0.2301 -0.1423
  991MOL0     H33758   6.628   4.610   5.168 -1.2856 -1.6557  0.8561
  991MOL0     H33759   6.930   4.679   5.187 -0.3067 -0.9150  1.2825
  991MOL0     H33760   6.858   4.612   5.048  0.2042  0.8190  0.7459
  991MOL0     H33761   6.791   4.900   5.154 -0.8024  1.2972 -0.7891
  991MOL0     H33762   6.679   4.799   5.054  0.9990 -1.9977 -1.5265
  991MOL0     H33763   6.856   4.795   4.866  1.4715 -0.0367  0.6801
  991MOL0     H33764   6.819   4.951   4.906  1.7292  0.7472 -0.7257
  991MOL0     H33765   6.309   4.273   5.541 -2.3633  0.3122  0.8278
  991MOL0     H33766   6.101   4.202   5.605  0.7825  0.3619  1.6980
  991MOL0     H33767   5.781   3.798   5.481  0.8257  1.2962 -1.0331
  991MOL0     H33768   5.561   3.699   5.521  0.3031  0.2532  0.1710
  991MOL0     H33769   3.860   4.155   5.168 -0.4866 -1.2366  2.2435
  991MOL0     H33770   3.672   4.320   5.125 -1.9274  0.1913  1.6413
  991MOL0     H33771   3.293   4.454   4.868  0.0554 -0.0147 -0.7981
  991MOL0     H33772   3.101   4.604   4.850 -1.5384  2.5225  2.4209
  991MOL0     H33773   2.785   4.628   5.151 -0.3122 -1.9643  0.3039
  991MOL0     H33774   2.727   4.495   5.041  1.1816 -0.5928 -0.6951
  991MOL0     H33775   2.660   4.658   4.867  1.5446 -0.7915 -0.5280
  991MOL0     H33776   2.687   4.793   4.982  0.3020 -0.7837 -3.7508
  991MOL0     H33777   2.551   4.665   5.151 -0.9032  0.8750 -0.3940
  991MOL0     H33778   2.500   4.565   5.014  1.1218  0.2856 -1.6029
  991MOL0     H33779   2.486   4.872   5.020  1.3385 -0.3243 -2.4814
  991MOL0     H33780   2.390   4.762   4.913  0.0155  4.7303 -0.7163
  991MOL0     H33781   2.107   4.734   5.200  0.2104 -2.4989  1.1392
  991MOL0     H33782   2.922   4.465   5.204 -2.1412 -3.9594 -1.7105
  991MOL0     H33783   3.053   4.331   5.362  1.6546 -1.6929  2.8448
  991MOL0     H33784   3.069   4.189   5.255  0.1924 -0.8480  1.7054
  991MOL0     H33785   3.212   4.276   5.321  0.4081  2.3607 -2.6801
  992MOL0     O33786   9.085   1.694   4.444  0.2272 -0.0788  0.3115
  992MOL0     C33787   9.161   1.749   4.366 -0.4221  0.2583  0.2246
  992MOL0     O33788   9.123   1.856   4.289  0.2900 -0.1451  0.0521
  992MOL0     C33789   8.990   1.892   4.283  0.2052  0.4454  0.0177
  992MOL0     C33790   8.933   1.976   4.377  0.3501 -0.0147 -0.1473
  992MOL0     C33791   8.796   2.001   4.380 -0.8157  0.7387 -0.2814
  992MOL0     C33792   8.715   1.947   4.282  0.4241 -0.1920  0.3526
  992MOL0     O33793   8.577   1.969   4.303 -0.2540  0.2504 -0.0271
  992MOL0     C33794   8.486   1.920   4.210 -0.7314  0.3082 -0.9371
  992MOL0     C33795   8.450   2.009   4.091  0.4114  0.1653 -0.0217
  992MOL0     C33796   8.405   1.935   3.962 -0.2713 -1.1029 -0.6076
  992MOL0     C33797   8.510   1.846   3.890  0.2518  0.6310  0.4065
  992MOL0     C33798   8.460   1.768   3.762  0.5638 -0.3155 -0.1627
  992MOL0     C33799   8.403   1.858   3.661  0.5690 -0.2143  0.3643
  992MOL0     C33800   8.341   1.775   3.543 -0.3523 -0.0081  0.3494
  992MOL0     C33801   8.456   1.707   3.456  1.0201 -0.0963 -0.2655
  992MOL0     N33802   8.504   1.800   3.355  0.9238 -0.6997  0.6060
  992MOL0     C33803   8.424   1.868   3.261 -0.3224 -0.5125  0.7614
  992MOL0     C33804   8.513   1.952   3.196 -0.3876  0.2990 -0.4874
  992MOL0     C33805   8.488   2.032   3.069  0.4364 -0.9366 -0.9558
  992MOL0     C33806   8.425   2.168   3.102  0.0002  0.5954 -0.4278
  992MOL0     C33807   8.505   2.257   3.201  0.3665  0.4342 -0.3482
  992MOL0     C33808   8.636   2.307   3.141 -0.2358  0.5262  0.3753
  992MOL0     O33809   8.616   2.360   3.004 -0.1057 -0.5491 -0.9437
  992MOL0     C33810   8.718   2.421   2.950 -1.0596 -0.3003 -0.4278
  992MOL0     C33811   8.845   2.420   3.004 -0.5901 -1.5482 -0.6804
  992MOL0     C33812   8.956   2.482   2.935 -0.2553 -0.6588 -0.2364
  992MOL0     C33813   8.929   2.543   2.812  0.1364  0.0744 -0.0688
  992MOL0     C33814   9.039   2.601   2.735 -0.3162 -1.4574  0.1576
  992MOL0     O33815   9.007   2.707   2.650 -0.4036 -0.0908  0.6840
  992MOL0     C33816   9.087   2.766   2.557  0.1409 -1.1104  1.0961
  992MOL0     C33817   9.180   2.705   2.476 -0.4148  0.0953  0.1643
  992MOL0     C33818   9.252   2.784   2.375 -0.1782 -0.8981 -0.2281
  992MOL0     C33819   9.217   2.920   2.352 -0.8653  0.8929 -1.0312
  992MOL0     O33820   9.285   3.012   2.275  0.5682  0.4841  0.0371
  992MOL0     C33821   9.382   2.961   2.182 -0.2197  0.3341 -0.4434
  992MOL0     C33822   9.414   3.070   2.073 -0.2814 -0.1425  0.4101
  992MOL0     C33823   9.547   3.030   2.000 -0.9924  0.1355 -0.4489
  992MOL0     C33824   9.584   3.139   1.897  0.1590  0.2237 -0.2619
  992MOL0     C33825   9.726   3.087   1.835 -0.1675 -0.3544 -0.9099
  992MOL0     C33826   9.760   3.182   1.724  0.5747  0.7804 -0.3768
  992MOL0     C33827   9.810   3.320   1.777 -1.1538  0.3733 -0.1353
  992MOL0     C33828   9.900   3.379   1.667 -0.3345 -0.4306 -0.4694
  992MOL0    Cl33829  10.053   3.276   1.651 -0.2183  0.2686  0.5543
  992MOL0     C33830   9.120   2.978   2.430  0.3105 -0.1629  0.6637
  992MOL0     C33831   9.052   2.901   2.525  0.2076 -0.6236  0.2190
  992MOL0     O33832   9.148   2.553   2.749 -0.0529 -0.1591 -0.2992
  992MOL0     C33833   8.797   2.549   2.756  0.4638 -0.3728 -0.3932
  992MOL0     C33834   8.697   2.481   2.826  0.1229 -0.1658  0.2525
  992MOL0     N33835   8.638   1.930   3.252 -0.0217 -0.4343  0.2271
  992MOL0     N33836   8.631   1.842   3.346 -0.4364  1.2308  0.1921
  992MOL0     C33837   8.780   1.891   4.165  0.1591 -0.9054  0.0097
  992MOL0     C33838   8.916   1.856   4.172 -0.5824 -0.8077  0.0770
  992MOL0     C33839   9.298   1.709   4.336  0.7059 -0.0297  0.0306
  992MOL0     C33840   9.369   1.771   4.225 -0.2452  0.7330 -0.2398
  992MOL0     C33841   9.492   1.721   4.185 -0.9607 -0.7435  0.6415
  992MOL0     C33842   9.549   1.618   4.254  0.0374  0.1209  0.0747
  992MOL0     O33843   9.681   1.574   4.233  0.6961  0.8739  0.3072
  992MOL0     C33844   9.766   1.643   4.135 -0.4269  1.0156 -0.2673
  992MOL0     C33845   9.887   1.553   4.121  0.1087  0.6424  0.9406
  992MOL0     C33846  10.007   1.620   4.052 -0.3518 -0.0816 -0.0900
  992MOL0     C33847   9.994   1.646   3.900  0.0166  0.1912  0.3851
  992MOL0     C33848  10.046   1.528   3.817  1.8377 -0.6938 -0.3194
  992MOL0     C33849  10.098   1.441   3.751  0.6346 -1.1093  0.4112
  992MOL0     C33850   9.487   1.552   4.358 -0.1162 -0.0023 -0.6137
  992MOL0     C33851   9.366   1.606   4.406 -0.8945 -0.2639  0.5651
  992MOL0     C33852   9.303   1.535   4.525 -0.2278  0.0810  0.4889
  992MOL0     H33853   9.004   2.018   4.448  2.6846 -2.0298 -1.1174
  992MOL0     H33854   8.757   2.052   4.467 -1.7413  0.5473 -0.5802
  992MOL0     H33855   8.524   1.826   4.169 -0.5858 -0.0123 -0.0979
  992MOL0     H33856   8.397   1.896   4.268 -0.8074  1.5665 -0.4995
  992MOL0     H33857   8.542   2.062   4.067  0.4849  0.1007  0.1169
  992MOL0     H33858   8.372   2.082   4.115  0.8510 -0.0718  2.4263
  992MOL0     H33859   8.390   2.022   3.897 -0.5721 -2.3086 -2.2147
  992MOL0     H33860   8.309   1.884   3.974 -0.5440 -0.9257 -1.9058
  992MOL0     H33861   8.593   1.901   3.845 -1.3861  3.3949  0.5704
  992MOL0     H33862   8.544   1.775   3.966 -1.1828  2.3196  2.7785
  992MOL0     H33863   8.549   1.726   3.714  3.0034  3.1424  0.9692
  992MOL0     H33864   8.384   1.700   3.800 -1.1302  0.4502 -2.0124
  992MOL0     H33865   8.316   1.914   3.696 -0.8346 -0.7462 -2.0207
  992MOL0     H33866   8.477   1.921   3.611  1.1946 -0.5426  0.8767
  992MOL0     H33867   8.291   1.842   3.472  1.0032 -0.2495 -0.8763
  992MOL0     H33868   8.270   1.702   3.581 -1.6337  1.0248  0.0297
  992MOL0     H33869   8.538   1.682   3.524  0.4590  2.0827  1.3593
  992MOL0     H33870   8.418   1.615   3.412 -2.1287  1.5282 -1.2884
  992MOL0     H33871   8.323   1.857   3.223  0.4847  1.2091 -2.1908
  992MOL0     H33872   8.581   2.043   3.013  1.1412  0.8828  0.4664
  992MOL0     H33873   8.416   1.977   3.007 -0.1214 -0.5836 -0.6304
  992MOL0     H33874   8.414   2.222   3.007 -3.6077 -2.2663 -1.8515
  992MOL0     H33875   8.322   2.146   3.130  0.5182  0.2096  1.3159
  992MOL0     H33876   8.508   2.204   3.297 -1.5988  0.3680 -0.2678
  992MOL0     H33877   8.442   2.345   3.217  0.3308 -0.0309  2.6797
  992MOL0     H33878   8.710   2.228   3.122  0.3575  1.3928 -1.1544
  992MOL0     H33879   8.688   2.379   3.204  0.0102  1.0136 -0.3751
  992MOL0     H33880   8.864   2.373   3.100  0.3351  0.9447  0.4547
  992MOL0     H33881   9.050   2.475   2.987  1.0652  0.2084 -2.3843
  992MOL0     H33882   9.203   2.599   2.476 -2.3716 -0.3761 -1.1990
  992MOL0     H33883   9.326   2.727   2.320  1.5412 -0.6203  1.6690
  992MOL0     H33884   9.478   2.925   2.220  1.7224  2.0739 -3.2943
  992MOL0     H33885   9.343   2.872   2.131  0.6952 -1.1194  1.2774
  992MOL0     H33886   9.334   3.078   1.999  1.3759 -1.2113 -1.6116
  992MOL0     H33887   9.427   3.169   2.118  0.9745 -1.5942  3.5520
  992MOL0     H33888   9.625   3.014   2.074 -1.4484  2.1379  0.5231
  992MOL0     H33889   9.515   2.938   1.949  0.1745  0.4083 -1.7207
  992MOL0     H33890   9.592   3.237   1.944  1.0255 -0.2712  0.6496
  992MOL0     H33891   9.506   3.142   1.820  0.3491  0.4083 -0.4477
  992MOL0     H33892   9.717   2.984   1.798 -1.2077 -0.4091 -0.5542
  992MOL0     H33893   9.805   3.089   1.910 -0.4791 -0.1848 -0.5858
  992MOL0     H33894   9.840   3.136   1.665 -0.0701 -2.5421  1.0583
  992MOL0     H33895   9.680   3.201   1.652 -0.8444  3.1245  1.6395
  992MOL0     H33896   9.866   3.316   1.871  1.1874 -1.1915 -1.5059
  992MOL0     H33897   9.724   3.387   1.786  2.1204  4.8552  2.1951
  992MOL0     H33898   9.839   3.372   1.577  0.5517  0.6504 -1.1817
  992MOL0     H33899   9.933   3.480   1.693  2.9203 -0.9914 -1.9383
  992MOL0     H33900   9.088   3.081   2.416 -1.0381 -0.2320  2.7138
  992MOL0     H33901   8.981   2.964   2.578 -1.6844  1.5200 -4.2739
  992MOL0     H33902   8.761   2.605   2.670 -0.0545  0.0874  0.1170
  992MOL0     H33903   8.602   2.467   2.777  2.1038 -0.9328 -3.8334
  992MOL0     H33904   8.724   1.872   4.074  0.5297 -0.4744 -0.3134
  992MOL0     H33905   8.972   1.797   4.100  0.6753  0.5590 -0.1157
  992MOL0     H33906   9.324   1.842   4.156 -3.7087 -2.5880 -1.7465
  992MOL0     H33907   9.540   1.759   4.096 -1.4118  0.4798  0.9072
  992MOL0     H33908   9.785   1.741   4.179 -1.2273  0.5273  1.2272
  992MOL0     H33909   9.716   1.654   4.038 -3.0670  2.6160  1.1544
  992MOL0     H33910   9.861   1.464   4.063  0.1650  1.6403 -0.6686
  992MOL0     H33911   9.918   1.528   4.223  1.7617  0.4871  0.4333
  992MOL0     H33912  10.091   1.550   4.056  0.5721  0.9005 -1.3033
  992MOL0     H33913  10.031   1.711   4.107  0.4397 -0.6983  0.6041
  992MOL0     H33914   9.898   1.682   3.863 -0.5579  1.9184  3.2712
  992MOL0     H33915  10.074   1.719   3.882  1.6611 -1.4255  0.7833
  992MOL0     H33916  10.143   1.360   3.696 -1.0247 -1.8730  0.1205
  992MOL0     H33917   9.530   1.468   4.411  0.6254  0.4805 -0.4372
  992MOL0     H33918   9.360   1.448   4.557  0.5521  0.4634  0.1724
  992MOL0     H33919   9.293   1.611   4.603  1.8093 -0.1617  1.0468
  992MOL0     H33920   9.205   1.492   4.503 -1.3318  2.4682  0.3436
  993MOL0     O33921   0.449   2.327  10.902  0.2158 -0.3495 -0.2917
  993MOL0     C33922   0.431   2.222  10.963  0.5869 -1.1512 -0.2734
  993MOL0     O33923   0.518   2.168  11.052  0.3008 -0.3304 -0.5763
  993MOL0     C33924   0.653   2.166  11.033  0.3017  0.7210 -0.0163
  993MOL0     C33925   0.728   2.255  10.955 -0.0914  0.1309  0.4778
  993MOL0     C33926   0.864   2.235  10.920  0.2652  0.5169  0.2720
  993MOL0     C33927   0.934   2.123  10.976  0.3827 -0.4402  0.3943
  993MOL0     O33928   1.062   2.099  10.954  0.2592 -0.4839 -0.0284
  993MOL0     C33929   1.097   2.075  10.817  1.4381 -0.1214  0.1481
  993MOL0     C33930   1.230   1.991  10.808  0.0991 -0.3284 -0.9335
  993MOL0     C33931   1.355   2.079  10.801  1.1949  0.1792 -0.9983
  993MOL0     C33932   1.406   2.107  10.941 -0.0935 -0.3073 -0.0660
  993MOL0     C33933   1.516   2.213  10.932  1.0243  0.3873 -0.4426
  993MOL0     C33934   1.596   2.229  11.058 -0.2327 -0.5305  0.1758
  993MOL0     C33935   1.695   2.348  11.050 -0.3268 -0.6968  0.2030
  993MOL0     C33936   1.780   2.368  11.179 -1.1550 -0.2409  0.3459
  993MOL0     N33937   1.923   2.372  11.152  0.3081  0.2225 -0.1672
  993MOL0     C33938   1.993   2.482  11.097  0.6528 -1.2018  0.3613
  993MOL0     C33939   2.113   2.438  11.074  0.1110 -0.2961 -0.9085
  993MOL0     C33940   2.231   2.502  11.005  0.6026  1.0440 -0.0611
  993MOL0     C33941   2.325   2.558  11.099  0.9979  0.4793 -1.2667
  993MOL0     C33942   2.473   2.520  11.060  0.9559 -0.4496  0.1666
  993MOL0     C33943   2.564   2.625  11.130  1.7124  0.6544 -0.0070
  993MOL0     O33944   2.697   2.584  11.109  0.2541 -0.2812 -0.1618
  993MOL0     C33945   2.810   2.669  11.111 -1.2739 -0.4369 -0.4940
  993MOL0     C33946   2.806   2.794  11.177  0.7506 -0.1110  0.7193
  993MOL0     C33947   2.906   2.889  11.186  0.4378  0.2023  0.0710
  993MOL0     C33948   3.021   2.856  11.115  1.0807  0.0602  0.0349
  993MOL0     C33949   3.134   2.954  11.097 -0.4384  0.5287  0.4109
  993MOL0     O33950   3.213   2.926  10.989  0.2002  0.7429 -0.2034
  993MOL0     C33951   3.332   2.997  10.977 -0.1046 -0.2328  0.4397
  993MOL0     C33952   3.362   3.050  10.848  0.7365 -0.3096  0.4449
  993MOL0     C33953   3.473   3.131  10.824 -0.1167 -0.2364  0.2182
  993MOL0     C33954   3.560   3.170  10.927 -0.4530 -0.0940  0.4349
  993MOL0     O33955   3.658   3.262  10.900 -0.5866  0.0696  0.5753
  993MOL0     C33956   3.787   3.219  10.948 -0.4420  0.0805 -0.2052
  993MOL0     C33957   3.823   3.327  11.049  0.9015  0.5387  0.0634
  993MOL0     C33958   3.975   3.331  11.077 -0.8851  0.3733  0.3594
  993MOL0     C33959   4.013   3.380  11.222  0.3348  0.1347 -0.4223
  993MOL0     C33960   3.967   3.524  11.241  0.4290 -0.1966 -0.8976
  993MOL0     C33961   3.959   3.553  11.399  0.0440 -0.3597  0.4542
  993MOL0     C33962   4.098   3.596  11.449 -0.0678 -0.5316  0.3853
  993MOL0     C33963   4.115   3.617  11.598  0.5098  1.1620  0.4867
  993MOL0    Cl33964   4.286   3.635  11.635 -0.3528  0.4202 -0.2573
  993MOL0     C33965   3.531   3.116  11.053  0.5101 -0.4496 -0.4865
  993MOL0     C33966   3.431   3.024  11.074  0.4740  1.0105 -0.0572
  993MOL0     O33967   3.138   3.046  11.180 -0.2755 -0.1140  0.2410
  993MOL0     C33968   3.031   2.724  11.058  0.0767  0.3587  0.6798
  993MOL0     C33969   2.933   2.632  11.053  1.3346 -0.5334 -0.1832
  993MOL0     N33970   2.125   2.319  11.132  0.2603  0.1082  0.1729
  993MOL0     N33971   2.016   2.282  11.186 -0.6379 -0.6924 -1.0099
  993MOL0     C33972   0.863   2.042  11.069  0.5138  0.5670 -0.6893
  993MOL0     C33973   0.723   2.062  11.088 -0.6238 -0.0111  0.0047
  993MOL0     C33974   0.295   2.156  10.965 -0.1566  0.7851  0.5119
  993MOL0     C33975   0.287   2.006  10.970 -0.4539  0.0975 -0.1824
  993MOL0     C33976   0.160   1.943  10.958  0.7605 -0.6990  0.4259
  993MOL0     C33977   0.043   2.014  10.944  0.2234  0.2227  0.1311
  993MOL0     O33978  -0.069   1.938  10.942  0.9747  0.4272  0.2747
  993MOL0     C33979  -0.195   1.993  10.917 -0.4080  0.1089  0.5489
  993MOL0     C33980  -0.298   1.878  10.905  0.6395 -0.4755  0.2896
  993MOL0     C33981  -0.247   1.783  10.795 -0.7361 -0.1044 -0.1543
  993MOL0     C33982  -0.358   1.700  10.734  1.0611 -0.0390 -0.7000
  993MOL0     C33983  -0.477   1.769  10.689 -0.3892 -1.0511  0.3236
  993MOL0     C33984  -0.580   1.816  10.653  0.0938  0.7143 -0.7953
  993MOL0     C33985   0.053   2.147  10.929  0.2736  0.2947 -0.3397
  993MOL0     C33986   0.173   2.223  10.941  0.0272 -0.3310 -0.6905
  993MOL0     C33987   0.166   2.367  10.911 -0.1030  0.1333 -0.5611
  993MOL0     H33988   0.689   2.347  10.912 -2.7438 -0.3035  1.7247
  993MOL0     H33989   0.911   2.297  10.845 -2.5398  2.8124  0.2383
  993MOL0     H33990   1.016   2.021  10.768 -0.3536  0.8544  1.8905
  993MOL0     H33991   1.111   2.169  10.762  0.3141  0.5216  0.9260
  993MOL0     H33992   1.216   1.946  10.709  2.4658 -0.0963 -1.4243
  993MOL0     H33993   1.237   1.914  10.886  0.0603 -2.1589 -2.6480
  993MOL0     H33994   1.332   2.178  10.762 -1.7439  0.5121  1.3114
  993MOL0     H33995   1.429   2.015  10.751  0.7691 -1.1343 -0.0119
  993MOL0     H33996   1.329   2.140  11.010  0.9683  3.4267 -0.4183
  993MOL0     H33997   1.454   2.019  10.984  0.8162 -0.4953 -1.3797
  993MOL0     H33998   1.583   2.178  10.853  1.6576  1.0682 -0.2222
  993MOL0     H33999   1.461   2.302  10.902 -2.1670 -1.5985 -0.9714
  993MOL0     H34000   1.529   2.249  11.143 -2.7887  0.3403 -1.9215
  993MOL0     H34001   1.654   2.141  11.086 -0.4089  0.2622  3.4703
  993MOL0     H34002   1.633   2.437  11.036  1.6733  0.4251 -2.3050
  993MOL0     H34003   1.765   2.342  10.966  0.7460  7.4169 -0.3238
  993MOL0     H34004   1.748   2.457  11.235  0.7323  1.7718 -1.5513
  993MOL0     H34005   1.760   2.278  11.237 -0.2164 -0.3039  0.6045
  993MOL0     H34006   1.972   2.582  11.060  1.4930 -1.1683 -0.0317
  993MOL0     H34007   2.282   2.423  10.949 -1.0804 -0.1174 -0.0256
  993MOL0     H34008   2.208   2.585  10.937  1.9966  1.2214 -0.3336
  993MOL0     H34009   2.302   2.664  11.117 -2.0995 -0.2627 -0.2625
  993MOL0     H34010   2.316   2.517  11.200 -1.5331  2.4860 -0.5843
  993MOL0     H34011   2.473   2.528  10.951  0.3686  2.6266  0.2923
  993MOL0     H34012   2.494   2.421  11.100 -0.5931 -1.1979 -0.8051
  993MOL0     H34013   2.538   2.623  11.236 -0.7018  0.3179 -0.5477
  993MOL0     H34014   2.537   2.727  11.101 -0.2884  1.0783  2.8343
  993MOL0     H34015   2.715   2.831  11.222  1.0129  0.8979  0.4688
  993MOL0     H34016   2.891   2.989  11.225  1.1781 -0.5557  2.4606
  993MOL0     H34017   3.295   3.024  10.767  0.5492 -1.9968  1.0963
  993MOL0     H34018   3.490   3.182  10.730 -0.0589  1.6007  1.1654
  993MOL0     H34019   3.791   3.121  10.995 -0.7858  0.5470  0.8233
  993MOL0     H34020   3.852   3.220  10.860 -1.0437  0.1162 -0.6623
  993MOL0     H34021   3.782   3.423  11.017  1.8427  0.6366 -0.8999
  993MOL0     H34022   3.774   3.296  11.141  1.3220  1.8839  0.7629
  993MOL0     H34023   4.021   3.232  11.082  1.7875  1.5563  1.2936
  993MOL0     H34024   4.032   3.386  11.000  0.6683 -0.4726  0.8596
  993MOL0     H34025   4.120   3.369  11.245  0.0808 -1.7862 -0.0215
  993MOL0     H34026   3.966   3.311  11.292  1.1033 -0.4588 -0.4745
  993MOL0     H34027   3.868   3.531  11.196 -0.0704  2.3319  0.4358
  993MOL0     H34028   4.034   3.593  11.189  0.5423 -1.7490 -2.9409
  993MOL0     H34029   3.879   3.626  11.412 -0.0426 -0.1531 -1.0162
  993MOL0     H34030   3.919   3.464  11.448 -2.2182 -0.1974 -0.9536
  993MOL0     H34031   4.123   3.693  11.403 -0.9767 -0.6370 -0.3521
  993MOL0     H34032   4.172   3.518  11.428 -0.5056 -0.9578  0.4008
  993MOL0     H34033   4.051   3.700  11.630 -0.6531  0.6357 -0.4046
  993MOL0     H34034   4.088   3.522  11.645 -1.3246  2.2205  1.6727
  993MOL0     H34035   3.579   3.143  11.147 -2.9103  1.0421  0.9883
  993MOL0     H34036   3.416   2.985  11.174  0.5280  4.3713  1.3744
  993MOL0     H34037   3.123   2.696  11.007 -0.3830  2.2538 -1.3411
  993MOL0     H34038   2.958   2.540  11.002  1.0943 -1.6111  1.5433
  993MOL0     H34039   0.902   1.950  11.110  0.6391  0.7672 -0.3526
  993MOL0     H34040   0.663   1.990  11.144 -0.2529  1.4023  2.3632
  993MOL0     H34041   0.381   1.956  10.990 -0.5250  0.1037  0.1841
  993MOL0     H34042   0.161   1.835  10.942 -0.4420 -0.6791  0.0635
  993MOL0     H34043  -0.209   2.058  10.830 -2.9517 -3.1800 -1.8025
  993MOL0     H34044  -0.235   2.046  11.004 -0.3496 -3.6725  3.1058
  993MOL0     H34045  -0.393   1.927  10.883  1.6471  1.3257 -0.2674
  993MOL0     H34046  -0.298   1.827  11.002  2.1022 -1.5288 -0.2319
  993MOL0     H34047  -0.167   1.718  10.831  0.1738 -0.3585 -2.4453
  993MOL0     H34048  -0.199   1.837  10.713 -0.7353 -2.7270 -2.0351
  993MOL0     H34049  -0.315   1.640  10.653  0.8687 -0.5329 -0.4423
  993MOL0     H34050  -0.400   1.633  10.810 -1.4318  2.1922  0.0222
  993MOL0     H34051  -0.670   1.850  10.607 -0.3772 -0.4370 -0.7585
  993MOL0     H34052  -0.033   2.210  10.911  1.6192  2.0344 -1.0048
  993MOL0     H34053   0.220   2.420  10.990 -1.0660 -0.3733  0.4758
  993MOL0     H34054   0.207   2.394  10.814 -0.9383  0.7668 -0.7491
  993MOL0     H34055   0.061   2.398  10.915 -0.7896 -2.0345 -0.1736
  994MOL0     O34056   2.119   1.127   7.959 -0.6526  0.3798 -0.0954
  994MOL0     C34057   2.132   1.233   8.005 -0.4818 -0.4592 -0.6087
  994MOL0     O34058   2.240   1.277   8.086  0.1807 -0.1504  0.0449
  994MOL0     C34059   2.367   1.216   8.075  0.7506  0.4984 -0.0498
  994MOL0     C34060   2.471   1.270   7.999  1.0003 -0.1076 -0.4870
  994MOL0     C34061   2.599   1.212   7.986  0.5179 -0.2439  0.0323
  994MOL0     C34062   2.628   1.097   8.056  0.0863 -0.1988 -0.2542
  994MOL0     O34063   2.749   1.039   8.055  0.3199  0.4222 -0.1582
  994MOL0     C34064   2.866   1.122   8.051 -0.2468  0.6854 -0.0934
  994MOL0     C34065   2.931   1.097   7.920  0.9169  0.2384 -0.1379
  994MOL0     C34066   3.042   0.994   7.930  0.0957 -0.4050  0.2285
  994MOL0     C34067   3.171   1.044   7.988  0.1365 -0.1361 -0.0518
  994MOL0     C34068   3.284   0.945   7.989  1.1825 -0.0224  0.0507
  994MOL0     C34069   3.246   0.796   8.028 -0.0339 -0.7814 -0.0199
  994MOL0     C34070   3.362   0.705   8.041  0.2624  0.1893 -1.0605
  994MOL0     C34071   3.450   0.713   7.918  0.0655 -0.5971 -0.0465
  994MOL0     N34072   3.560   0.614   7.921 -0.7909  0.0754  0.1196
  994MOL0     C34073   3.581   0.523   7.823 -0.3620  1.2052 -0.0457
  994MOL0     C34074   3.701   0.466   7.843 -0.6601  0.4146 -0.0475
  994MOL0     C34075   3.769   0.357   7.758 -0.3560  0.0038  0.3081
  994MOL0     C34076   3.909   0.400   7.723 -0.0191 -0.3144  0.2466
  994MOL0     C34077   3.928   0.521   7.627  0.4179 -0.3329 -0.1071
  994MOL0     C34078   4.065   0.576   7.640 -0.1383 -0.8168 -0.0060
  994MOL0     O34079   4.174   0.481   7.608  0.2459  0.1159  0.9735
  994MOL0     C34080   4.308   0.497   7.638  0.0951  0.0258  0.0450
  994MOL0     C34081   4.356   0.615   7.693 -0.3819  0.4658 -0.4687
  994MOL0     C34082   4.492   0.636   7.709 -1.0093  0.0821 -0.5652
  994MOL0     C34083   4.587   0.544   7.655 -0.0215  0.3514  0.4916
  994MOL0     C34084   4.729   0.556   7.670  1.2541  0.3892 -0.7453
  994MOL0     O34085   4.796   0.453   7.624 -0.1038 -0.3565 -0.6152
  994MOL0     C34086   4.934   0.427   7.617  0.6759  0.1057 -0.4908
  994MOL0     C34087   4.974   0.296   7.610 -0.2885  0.0997 -0.4353
  994MOL0     C34088   5.111   0.264   7.605 -0.9548  1.1004 -0.4952
  994MOL0     C34089   5.208   0.366   7.622  0.3723 -0.1873  0.4966
  994MOL0     O34090   5.340   0.336   7.624 -0.1133 -0.3740 -0.4978
  994MOL0     C34091   5.387   0.198   7.625  0.1377 -0.6329  0.0565
  994MOL0     C34092   5.531   0.211   7.662  0.2801  0.6421  0.6831
  994MOL0     C34093   5.620   0.082   7.651 -0.1573  0.2599  0.6390
  994MOL0     C34094   5.768   0.113   7.688  0.1716 -1.1369 -0.4064
  994MOL0     C34095   5.842   0.200   7.597 -0.7466  0.9297  0.0829
  994MOL0     C34096   5.978   0.240   7.661  0.3551  0.1324  0.0762
  994MOL0     C34097   6.044   0.358   7.590 -1.4585  0.2289  0.4717
  994MOL0     C34098   6.172   0.402   7.653 -0.4537  0.3271  0.7564
  994MOL0    Cl34099   6.155   0.453   7.821  0.8518  0.0580  0.0107
  994MOL0     C34100   5.168   0.499   7.628 -0.2427 -0.6084 -0.1981
  994MOL0     C34101   5.031   0.530   7.622  0.0056  0.4007  0.8658
  994MOL0     O34102   4.772   0.653   7.731 -0.6297 -0.8874  0.3215
  994MOL0     C34103   4.529   0.430   7.597 -0.5691  0.8608 -0.1626
  994MOL0     C34104   4.392   0.405   7.588  0.9494 -0.3770 -0.7662
  994MOL0     N34105   3.757   0.522   7.955  0.0879 -0.4852 -0.0173
  994MOL0     N34106   3.673   0.611   8.007 -0.2591 -0.0237 -0.8192
  994MOL0     C34107   2.524   1.036   8.128  0.3582  0.1476  0.3452
  994MOL0     C34108   2.395   1.098   8.140 -0.2353 -0.8168  0.5869
  994MOL0     C34109   2.023   1.337   8.006  0.8760  0.1399  0.1069
  994MOL0     C34110   1.998   1.413   8.117 -0.5648  1.1541  0.3329
  994MOL0     C34111   1.901   1.511   8.122  0.2221 -0.0925 -0.8920
  994MOL0     C34112   1.815   1.534   8.014 -0.3587 -0.8133 -0.1114
  994MOL0     O34113   1.701   1.607   8.046  0.3117 -0.3439  0.8601
  994MOL0     C34114   1.603   1.637   7.939  0.0015  0.2142  0.2175
  994MOL0     C34115   1.636   1.775   7.871 -0.2393  0.8001 -0.3774
  994MOL0     C34116   1.632   1.891   7.977 -0.5705 -0.3194 -0.3777
  994MOL0     C34117   1.774   1.934   8.005  0.2490  0.1185  0.3831
  994MOL0     C34118   1.771   2.023   8.120 -0.1218 -0.2547  0.3754
  994MOL0     C34119   1.753   2.089   8.221  0.5908 -0.2517 -1.0330
  994MOL0     C34120   1.841   1.456   7.902 -0.6757  1.0247  0.2522
  994MOL0     C34121   1.945   1.362   7.897  0.2579  0.5210  0.6770
  994MOL0     C34122   1.966   1.283   7.769  0.9608 -0.0889  0.4591
  994MOL0     H34123   2.439   1.353   7.938  1.1155 -0.5482 -1.1564
  994MOL0     H34124   2.681   1.250   7.925  0.1481  0.0414 -0.2859
  994MOL0     H34125   2.842   1.229   8.063 -0.0979  0.8200 -0.9518
  994MOL0     H34126   2.929   1.095   8.136 -0.3628  1.2406  0.1751
  994MOL0     H34127   2.966   1.191   7.875 -0.6199  0.7188 -0.3647
  994MOL0     H34128   2.856   1.048   7.858  0.9037 -0.4592  0.4070
  994MOL0     H34129   3.062   0.956   7.830  0.9979  1.4567 -0.3525
  994MOL0     H34130   2.995   0.919   7.995  0.1054 -1.2440 -0.7157
  994MOL0     H34131   3.202   1.120   7.916 -1.1066 -2.2378 -2.9927
  994MOL0     H34132   3.169   1.077   8.092 -0.7803 -0.5379  0.0704
  994MOL0     H34133   3.324   0.947   7.887 -2.4298  1.9289 -1.4990
  994MOL0     H34134   3.357   0.982   8.062  0.2392  1.1712  0.4090
  994MOL0     H34135   3.196   0.793   8.125  1.1351 -1.7053  0.5903
  994MOL0     H34136   3.177   0.762   7.950 -0.1356  0.1868 -0.3732
  994MOL0     H34137   3.322   0.604   8.049  0.9452  0.0729  2.0322
  994MOL0     H34138   3.415   0.727   8.134 -0.1465 -6.2633  1.1600
  994MOL0     H34139   3.387   0.705   7.829  2.0933 -1.2081 -1.5003
  994MOL0     H34140   3.498   0.811   7.917 -1.2760  0.2892  3.8477
  994MOL0     H34141   3.507   0.499   7.747 -0.2951  2.5909 -0.5824
  994MOL0     H34142   3.775   0.274   7.829 -1.2718  0.6890  1.1976
  994MOL0     H34143   3.718   0.318   7.669  0.6806  1.0575 -0.7881
  994MOL0     H34144   3.968   0.413   7.814 -0.9970 -0.1280  0.8661
  994MOL0     H34145   3.969   0.321   7.677  1.2274  0.6113  0.2306
  994MOL0     H34146   3.860   0.599   7.665 -1.9313 -1.7896 -1.1030
  994MOL0     H34147   3.903   0.493   7.525  1.6239 -1.6691 -0.0626
  994MOL0     H34148   4.085   0.625   7.737 -0.9374  3.7112 -1.8598
  994MOL0     H34149   4.071   0.659   7.569  0.6101 -1.1359 -0.3230
  994MOL0     H34150   4.286   0.684   7.739  0.5385  1.2920 -0.2672
  994MOL0     H34151   4.524   0.729   7.757 -2.0919  0.9691 -1.5024
  994MOL0     H34152   4.905   0.213   7.608 -0.5797  0.3416 -0.7083
  994MOL0     H34153   5.129   0.158   7.595 -2.9460  0.9340 -4.2413
  994MOL0     H34154   5.335   0.134   7.697  0.7120 -0.2458  0.8403
  994MOL0     H34155   5.382   0.155   7.525  1.9383 -3.2474  0.9906
  994MOL0     H34156   5.571   0.294   7.605  0.2252  2.6964  3.4186
  994MOL0     H34157   5.527   0.233   7.769  0.9427  0.6446  0.7064
  994MOL0     H34158   5.584  -0.002   7.712 -0.1115 -0.5880 -0.4613
  994MOL0     H34159   5.624   0.061   7.543  0.0068  3.8816 -0.1740
  994MOL0     H34160   5.823   0.019   7.698  2.1187 -0.1319 -1.1138
  994MOL0     H34161   5.777   0.152   7.790  0.1867 -2.4129  0.1036
  994MOL0     H34162   5.795   0.293   7.563 -2.6252 -0.1634 -0.4214
  994MOL0     H34163   5.864   0.142   7.507 -0.0298 -2.2158  2.1137
  994MOL0     H34164   5.960   0.262   7.767  1.6464 -1.3353  0.6369
  994MOL0     H34165   6.044   0.154   7.670  0.1217  0.0683  1.3632
  994MOL0     H34166   5.976   0.443   7.596  0.2852  1.7014  0.2521
  994MOL0     H34167   6.052   0.340   7.482  0.3108  0.5518  0.5194
  994MOL0     H34168   6.240   0.316   7.647  0.6985  1.2442  0.1310
  994MOL0     H34169   6.220   0.481   7.594 -0.8057 -0.5578 -0.7755
  994MOL0     H34170   5.244   0.575   7.629  1.3113 -2.0623  2.3987
  994MOL0     H34171   5.008   0.636   7.624 -0.9033  0.2579 -0.7207
  994MOL0     H34172   4.591   0.349   7.562  0.5054  1.9046 -0.7494
  994MOL0     H34173   4.366   0.311   7.540 -2.6488 -1.4221  2.5983
  994MOL0     H34174   2.537   0.935   8.164  0.4681 -0.8244 -2.2346
  994MOL0     H34175   2.316   1.056   8.202 -2.9534  2.4040 -0.4073
  994MOL0     H34176   2.061   1.400   8.204  0.8010  1.0533 -0.6253
  994MOL0     H34177   1.875   1.553   8.219  0.1527 -1.0596 -0.4804
  994MOL0     H34178   1.502   1.641   7.981 -0.0758  2.7127 -0.0884
  994MOL0     H34179   1.613   1.563   7.859  3.2097 -0.6807  1.2629
  994MOL0     H34180   1.561   1.801   7.795  1.4053 -0.0482 -2.4175
  994MOL0     H34181   1.735   1.771   7.825  0.2835  1.8725  0.6086
  994MOL0     H34182   1.586   1.853   8.069 -1.3245 -1.9166 -1.3551
  994MOL0     H34183   1.585   1.978   7.930  0.6775  0.0112 -1.0449
  994MOL0     H34184   1.825   1.842   8.035 -0.8916 -0.5686  0.2795
  994MOL0     H34185   1.825   1.975   7.918 -0.9541  0.5496 -0.1239
  994MOL0     H34186   1.737   2.156   8.302 -0.7805 -0.9419 -0.7066
  994MOL0     H34187   1.776   1.471   7.816 -0.1874 -1.4645 -0.6410
  994MOL0     H34188   2.069   1.258   7.743  0.8358 -0.9700  0.7741
  994MOL0     H34189   1.897   1.198   7.767 -3.4514  3.1294  1.4048
  994MOL0     H34190   1.929   1.348   7.689  1.5227  0.9630  1.0307
  995MOL0     O34191   3.872   7.875   9.699  0.0497  0.6574 -0.4452
  995MOL0     C34192   3.946   7.777   9.733  0.0816  0.3223  0.3614
  995MOL0     O34193   4.083   7.772   9.708 -0.0546 -0.2832 -0.3343
  995MOL0     C34194   4.137   7.845   9.608 -0.2660 -0.5152  0.2300
  995MOL0     C34195   4.279   7.849   9.597  0.0594 -0.4987  0.3551
  995MOL0     C34196   4.341   7.919   9.492 -0.3116  0.2580 -0.1872
  995MOL0     C34197   4.267   7.982   9.394 -0.1076  0.4815 -1.3356
  995MOL0     O34198   4.336   8.046   9.291 -0.1521 -0.2951 -0.4334
  995MOL0     C34199   4.376   8.180   9.318  0.1436  0.0579  0.0128
  995MOL0     C34200   4.478   8.239   9.227 -0.1404  0.2146 -0.0668
  995MOL0     C34201   4.614   8.160   9.239 -0.5637 -0.4152  0.1892
  995MOL0     C34202   4.668   8.135   9.382  0.8998  0.9325  0.5235
  995MOL0     C34203   4.807   8.069   9.374 -0.7769 -0.4599  1.0168
  995MOL0     C34204   4.914   8.179   9.354 -0.9678  0.9763 -0.1564
  995MOL0     C34205   5.050   8.123   9.392 -0.5063  0.2500 -0.7953
  995MOL0     C34206   5.159   8.219   9.355 -0.6641  0.2877  0.5897
  995MOL0     N34207   5.288   8.178   9.417  0.9813 -0.0757 -0.3737
  995MOL0     C34208   5.335   8.262   9.512 -0.4723  0.4190 -0.9802
  995MOL0     C34209   5.471   8.256   9.497 -0.1587 -0.6151  0.6296
  995MOL0     C34210   5.581   8.328   9.565  0.5996 -0.0566  0.4447
  995MOL0     C34211   5.557   8.370   9.716  0.0562  0.0531  0.4826
  995MOL0     C34212   5.490   8.258   9.793  0.3321  0.4264  0.7040
  995MOL0     C34213   5.512   8.279   9.939  0.5508  0.5553 -0.5260
  995MOL0     O34214   5.476   8.415   9.978  0.3386 -0.5219  0.5012
  995MOL0     C34215   5.487   8.443  10.110  0.7732  0.4785 -0.4486
  995MOL0     C34216   5.512   8.571  10.149 -0.1553 -0.3483  0.4654
  995MOL0     C34217   5.547   8.604  10.274  0.5183  0.1680 -0.3452
  995MOL0     C34218   5.526   8.508  10.375 -0.5048 -0.2037 -0.0495
  995MOL0     C34219   5.567   8.535  10.513 -0.3419 -0.1153  0.2322
  995MOL0     O34220   5.598   8.410  10.581 -0.0075  0.4722  0.6954
  995MOL0     C34221   5.667   8.406  10.698 -0.4248 -0.7289 -0.1175
  995MOL0     C34222   5.782   8.321  10.701  0.1230  0.3836 -0.1000
  995MOL0     C34223   5.848   8.293  10.822  0.5114  0.7720  0.4333
  995MOL0     C34224   5.796   8.338  10.941 -0.0986 -0.3895 -0.7123
  995MOL0     O34225   5.837   8.297  11.065  0.2212  0.3769 -0.1421
  995MOL0     C34226   5.939   8.196  11.074 -0.8553 -0.4486  0.0944
  995MOL0     C34227   5.962   8.186  11.221  0.6289 -0.2295  0.0279
  995MOL0     C34228   6.082   8.107  11.260  0.5687  0.1287  0.3976
  995MOL0     C34229   6.141   8.145  11.398 -0.3902  0.3072  0.2403
  995MOL0     C34230   6.046   8.133  11.511  0.5912 -0.6950 -0.0345
  995MOL0     C34231   6.115   8.174  11.638  0.2304 -0.0945 -0.5443
  995MOL0     C34232   6.017   8.160  11.756 -0.5239 -0.7270 -0.8166
  995MOL0     C34233   6.103   8.171  11.883 -0.6777  0.1501 -0.4317
  995MOL0    Cl34234   6.199   8.023  11.904 -0.2146 -0.2434  0.3498
  995MOL0     C34235   5.687   8.424  10.942  0.1284  0.5539  0.6244
  995MOL0     C34236   5.623   8.457  10.819 -0.5570  0.3522 -0.2022
  995MOL0     O34237   5.571   8.649  10.562 -0.3581  0.4265 -0.0414
  995MOL0     C34238   5.484   8.379  10.341  0.1134 -0.9548  0.1186
  995MOL0     C34239   5.463   8.346  10.213  0.0865 -0.6084  0.1299
  995MOL0     N34240   5.506   8.166   9.396 -0.3060  1.0053 -0.0912
  995MOL0     N34241   5.393   8.119   9.355 -0.2401  0.1362 -0.6003
  995MOL0     C34242   4.129   7.977   9.400 -0.6476 -0.3043 -0.2531
  995MOL0     C34243   4.064   7.910   9.501 -0.4376 -0.6499  0.0393
  995MOL0     C34244   3.897   7.666   9.813  0.0947  0.4086  0.1871
  995MOL0     C34245   3.987   7.557   9.845  0.5070 -0.6035  0.4368
  995MOL0     C34246   3.951   7.450   9.922  0.9380 -0.2001 -0.3444
  995MOL0     C34247   3.815   7.434   9.970 -0.0420  0.3395 -0.7508
  995MOL0     O34248   3.786   7.332  10.054  0.0343  0.6808 -0.4252
  995MOL0     C34249   3.846   7.354  10.185  0.6315  0.0719 -0.5866
  995MOL0     C34250   3.837   7.234  10.273  0.0223  0.1317 -0.2782
  995MOL0     C34251   3.690   7.184  10.274  0.2608 -0.6409  0.4791
  995MOL0     C34252   3.667   7.084  10.384 -0.0357 -0.2713 -0.3336
  995MOL0     C34253   3.526   7.054  10.388  0.2997 -0.0512 -0.7072
  995MOL0     C34254   3.400   7.023  10.401 -0.7258  0.0921  0.7101
  995MOL0     C34255   3.724   7.536   9.932  1.0137  0.4538  0.5165
  995MOL0     C34256   3.763   7.652   9.860 -0.3707 -0.2501  0.7355
  995MOL0     C34257   3.665   7.761   9.843 -1.0641  0.5826  0.2994
  995MOL0     H34258   4.333   7.795   9.674  0.0453 -3.1362 -1.3621
  995MOL0     H34259   4.446   7.907   9.468  0.5104  0.3337  2.9576
  995MOL0     H34260   4.284   8.237   9.305  0.2466 -0.2069 -2.2478
  995MOL0     H34261   4.410   8.196   9.421 -2.4003 -1.6655  1.2158
  995MOL0     H34262   4.485   8.348   9.238 -1.4680  0.2915  0.2403
  995MOL0     H34263   4.443   8.225   9.125  0.4764 -1.7290 -0.0484
  995MOL0     H34264   4.693   8.209   9.183  2.0665 -2.1354  2.1514
  995MOL0     H34265   4.611   8.067   9.182  3.5425 -1.3731  1.1833
  995MOL0     H34266   4.661   8.230   9.436  1.4521  2.2507 -1.6317
  995MOL0     H34267   4.597   8.072   9.437  0.2051  0.9781 -0.2915
  995MOL0     H34268   4.815   8.016   9.470 -4.2162 -0.5472  1.3636
  995MOL0     H34269   4.830   8.005   9.289  3.5306 -0.2539  1.7671
  995MOL0     H34270   4.914   8.212   9.250 -0.7624 -0.8221 -0.7610
  995MOL0     H34271   4.896   8.267   9.418  1.3607  1.6513 -0.3110
  995MOL0     H34272   5.060   8.025   9.343 -1.5858  0.1080 -0.7557
  995MOL0     H34273   5.054   8.114   9.501  1.2401 -0.4037 -0.8809
  995MOL0     H34274   5.169   8.222   9.246 -0.5071 -0.3564  0.5804
  995MOL0     H34275   5.132   8.319   9.391 -0.1528  0.1456  1.3855
  995MOL0     H34276   5.285   8.331   9.579  1.4731 -1.9537  3.3318
  995MOL0     H34277   5.674   8.272   9.553 -0.1376 -1.7753  2.2217
  995MOL0     H34278   5.594   8.423   9.513  2.0459 -1.4421 -1.8957
  995MOL0     H34279   5.653   8.397   9.761 -1.6053  2.3972  2.9859
  995MOL0     H34280   5.497   8.461   9.721  0.2305  0.1111  2.1510
  995MOL0     H34281   5.520   8.162   9.750 -0.5889  0.9566 -1.2606
  995MOL0     H34282   5.382   8.253   9.774  0.8267  0.3919 -2.9053
  995MOL0     H34283   5.615   8.265   9.972 -0.1595 -1.5461  1.0196
  995MOL0     H34284   5.443   8.210   9.989 -1.1993  2.0087 -0.8493
  995MOL0     H34285   5.525   8.644  10.070 -0.8218  0.3893  1.0186
  995MOL0     H34286   5.576   8.706  10.295  0.7805  0.1985 -0.8467
  995MOL0     H34287   5.815   8.277  10.607  0.5506 -2.3773  1.2324
  995MOL0     H34288   5.931   8.223  10.823  1.1329  1.3937 -1.5979
  995MOL0     H34289   5.908   8.099  11.034 -0.8954  0.2122 -1.5520
  995MOL0     H34290   6.034   8.226  11.029 -0.7982  1.2933  1.2725
  995MOL0     H34291   5.978   8.289  11.257 -0.8710 -0.4395  1.4479
  995MOL0     H34292   5.875   8.146  11.274  2.4515 -1.9628  1.8630
  995MOL0     H34293   6.051   8.002  11.263  2.6942 -0.5508  0.1122
  995MOL0     H34294   6.155   8.100  11.179  0.6413 -0.1180  0.4843
  995MOL0     H34295   6.172   8.250  11.392  0.2099  0.0819 -1.2335
  995MOL0     H34296   6.230   8.085  11.415 -0.3627 -0.7801 -3.0764
  995MOL0     H34297   6.009   8.030  11.512 -0.2822 -0.3911  0.4002
  995MOL0     H34298   5.959   8.200  11.504 -0.0505 -1.4882  0.1842
  995MOL0     H34299   6.198   8.104  11.652 -1.5535 -1.6132  4.6250
  995MOL0     H34300   6.136   8.281  11.638 -3.1855  0.6849 -1.2096
  995MOL0     H34301   5.971   8.061  11.752  1.8501 -1.8858 -3.9112
  995MOL0     H34302   5.949   8.244  11.768  2.4354  1.4588  3.3855
  995MOL0     H34303   6.180   8.248  11.873 -0.9612  0.9777  2.6868
  995MOL0     H34304   6.046   8.199  11.972  0.2042  1.1926 -0.1823
  995MOL0     H34305   5.639   8.460  11.033 -1.6255  0.2487 -0.1486
  995MOL0     H34306   5.544   8.531  10.816 -0.3931  0.5896  1.1096
  995MOL0     H34307   5.447   8.297  10.402 -1.7778  0.5027  1.0155
  995MOL0     H34308   5.459   8.238  10.206  0.3574 -0.8547  2.6876
  995MOL0     H34309   4.076   8.032   9.322 -0.8797 -1.6196 -1.0505
  995MOL0     H34310   3.956   7.905   9.488 -0.4826 -0.1542  0.1986
  995MOL0     H34311   4.091   7.562   9.816  0.5770  0.4057  0.8149
  995MOL0     H34312   4.027   7.381   9.959  1.4876  1.7003  2.3233
  995MOL0     H34313   3.791   7.433  10.237 -0.0519 -2.1023  2.2433
  995MOL0     H34314   3.947   7.396  10.183  0.1107  1.4504  0.4318
  995MOL0     H34315   3.881   7.250  10.371 -0.2052  1.3703 -0.3634
  995MOL0     H34316   3.896   7.149  10.239 -0.0026 -0.4917  1.1828
  995MOL0     H34317   3.661   7.154  10.173  1.0062  1.7296 -0.5033
  995MOL0     H34318   3.619   7.263  10.302 -0.0858 -1.2373  1.3177
  995MOL0     H34319   3.716   6.986  10.376  0.4829  0.0670 -1.3859
  995MOL0     H34320   3.700   7.134  10.476  1.9012 -2.1212  0.0705
  995MOL0     H34321   3.298   6.990  10.407 -0.4946 -0.7772  0.0460
  995MOL0     H34322   3.624   7.535   9.974  1.4569  1.6654  1.6639
  995MOL0     H34323   3.645   7.778   9.737 -1.0056  1.3549  0.4115
  995MOL0     H34324   3.574   7.751   9.903  0.1926  3.5685  3.0029
  995MOL0     H34325   3.702   7.852   9.890  1.0366 -0.7943  1.5127
  996MOL0     O34326   0.779   8.132   8.007 -0.0420 -0.0479 -0.0144
  996MOL0     C34327   0.711   8.071   7.921 -0.8177 -0.4247 -0.0099
  996MOL0     O34328   0.742   7.944   7.879  0.4973  0.1238  0.0759
  996MOL0     C34329   0.837   7.873   7.948  1.2561 -0.0577  0.3274
  996MOL0     C34330   0.801   7.821   8.065 -0.1756 -0.0784 -0.3467
  996MOL0     C34331   0.887   7.762   8.150 -0.4926  0.6379  0.0676
  996MOL0     C34332   1.019   7.745   8.113  0.4552  0.2142 -0.5610
  996MOL0     O34333   1.111   7.690   8.201  0.5346  0.1556  0.6463
  996MOL0     C34334   1.235   7.639   8.157  0.1357  0.6177  0.8893
  996MOL0     C34335   1.299   7.566   8.270 -0.0949  0.2737  0.0176
  996MOL0     C34336   1.424   7.493   8.227 -0.6273 -0.2435 -0.4601
  996MOL0     C34337   1.471   7.388   8.328 -0.4598 -0.3840 -0.2629
  996MOL0     C34338   1.588   7.315   8.276  0.1213  0.1723  1.0111
  996MOL0     C34339   1.636   7.197   8.364 -0.8121  0.0126 -0.3620
  996MOL0     C34340   1.769   7.139   8.339  0.5006 -0.4467 -0.0322
  996MOL0     C34341   1.881   7.244   8.370 -0.2064 -1.3969 -0.2492
  996MOL0     N34342   2.009   7.183   8.351 -0.4495 -0.7399 -0.1535
  996MOL0     C34343   2.099   7.154   8.457 -0.1042 -0.0597  0.6870
  996MOL0     C34344   2.204   7.095   8.387 -0.9165 -1.2473 -0.4643
  996MOL0     C34345   2.323   7.026   8.458  0.6838  0.0993  0.0884
  996MOL0     C34346   2.401   7.132   8.532  0.2700  0.3595 -0.1375
  996MOL0     C34347   2.523   7.065   8.590 -0.0738  0.4963  0.2912
  996MOL0     C34348   2.625   7.178   8.641 -0.3244 -0.7036  0.4742
  996MOL0     O34349   2.733   7.117   8.715  0.3252 -0.1676 -0.1009
  996MOL0     C34350   2.849   7.190   8.740  0.1542 -0.4459 -0.1898
  996MOL0     C34351   2.899   7.290   8.658 -0.7361  0.4246  0.0809
  996MOL0     C34352   3.032   7.334   8.665 -0.1086  0.6812 -0.3758
  996MOL0     C34353   3.109   7.293   8.783 -0.1954  0.1977 -0.3720
  996MOL0     C34354   3.248   7.340   8.800  0.2202 -0.0970 -0.6616
  996MOL0     O34355   3.308   7.405   8.695 -0.0268  0.5909 -0.4542
  996MOL0     C34356   3.424   7.473   8.703  0.5678  0.1961  0.0145
  996MOL0     C34357   3.482   7.521   8.824  0.9754 -1.3145  0.0475
  996MOL0     C34358   3.612   7.583   8.826 -0.5835  0.0749 -0.3818
  996MOL0     C34359   3.686   7.587   8.710 -0.3946  0.2806 -0.4720
  996MOL0     O34360   3.814   7.646   8.713 -0.2724 -0.1715 -0.3663
  996MOL0     C34361   3.891   7.648   8.586  0.1249  1.2081  0.3985
  996MOL0     C34362   4.020   7.719   8.607  0.0396  0.0233 -0.3757
  996MOL0     C34363   4.107   7.735   8.479  0.5208  0.6460 -0.4299
  996MOL0     C34364   4.238   7.820   8.498  0.1954 -0.2244 -0.1681
  996MOL0     C34365   4.295   7.856   8.361 -0.1339 -0.3764 -0.2489
  996MOL0     C34366   4.298   7.744   8.254  0.5793 -0.8297  0.5089
  996MOL0     C34367   4.373   7.778   8.119  0.2731 -0.2869 -0.4362
  996MOL0     C34368   4.345   7.668   8.018 -0.0777  0.2311  0.1012
  996MOL0    Cl34369   4.394   7.726   7.851 -0.0039  0.4257  0.0666
  996MOL0     C34370   3.630   7.540   8.590  0.5780  0.7337  0.5270
  996MOL0     C34371   3.501   7.491   8.587  0.6047 -0.0073  0.2015
  996MOL0     O34372   3.293   7.320   8.914 -0.5886  0.0327  0.3694
  996MOL0     C34373   3.047   7.201   8.866 -0.8250 -0.2917  0.1226
  996MOL0     C34374   2.924   7.153   8.848  0.4552  0.1073 -0.3945
  996MOL0     N34375   2.174   7.096   8.250  0.0511  0.4033 -0.2473
  996MOL0     N34376   2.056   7.145   8.232 -0.6313 -0.3054  0.1240
  996MOL0     C34377   1.059   7.814   8.000  0.7344 -0.3498 -0.0660
  996MOL0     C34378   0.967   7.868   7.917 -0.5526 -0.0299  0.2147
  996MOL0     C34379   0.592   8.138   7.855 -0.8219  0.8564 -0.1508
  996MOL0     C34380   0.535   8.254   7.926 -0.3807 -0.4277  0.7050
  996MOL0     C34381   0.431   8.336   7.874  1.0197 -0.0709 -0.9444
  996MOL0     C34382   0.364   8.297   7.757  0.5850 -1.2186  0.3137
  996MOL0     O34383   0.255   8.365   7.702  0.0688 -0.0658  0.2054
  996MOL0     C34384   0.204   8.320   7.573 -0.2050 -0.0652  0.2784
  996MOL0     C34385   0.291   8.354   7.451  0.8050  0.2193  0.7721
  996MOL0     C34386   0.205   8.328   7.326  0.7695 -0.1389 -0.2713
  996MOL0     C34387   0.283   8.345   7.203 -0.7174  0.5148  0.8549
  996MOL0     C34388   0.241   8.234   7.112 -0.6955 -0.0133 -0.2381
  996MOL0     C34389   0.232   8.137   7.039  0.2394 -0.8960 -0.8578
  996MOL0     C34390   0.417   8.176   7.696  0.0675  0.0922 -0.0044
  996MOL0     C34391   0.531   8.107   7.731 -0.6428  0.3113 -0.6293
  996MOL0     C34392   0.586   7.993   7.641 -1.0223 -0.2013 -0.3230
  996MOL0     H34393   0.698   7.825   8.098  0.0922 -0.4255  0.5441
  996MOL0     H34394   0.853   7.736   8.250  0.1955  0.2916  0.2175
  996MOL0     H34395   1.199   7.567   8.083 -2.0669  2.6167 -0.1473
  996MOL0     H34396   1.290   7.720   8.106 -0.7346  0.6945  0.0418
  996MOL0     H34397   1.229   7.486   8.299  0.0133  0.1079 -0.1690
  996MOL0     H34398   1.313   7.644   8.345 -1.1527  0.5675 -0.0725
  996MOL0     H34399   1.503   7.568   8.215  1.0163 -2.0361 -1.3804
  996MOL0     H34400   1.401   7.441   8.134  0.9866 -3.1757  0.6797
  996MOL0     H34401   1.487   7.441   8.423  0.3575 -4.6237  2.2025
  996MOL0     H34402   1.393   7.314   8.349  0.3581 -1.2067 -0.0674
  996MOL0     H34403   1.566   7.282   8.174 -0.4471  1.0492  0.8398
  996MOL0     H34404   1.660   7.397   8.284 -0.8206  1.6794 -3.2775
  996MOL0     H34405   1.623   7.220   8.470 -2.1006 -3.3352  0.3393
  996MOL0     H34406   1.568   7.114   8.341 -0.1299 -0.4370 -0.7968
  996MOL0     H34407   1.774   7.097   8.238  1.6716 -0.6860  0.1057
  996MOL0     H34408   1.785   7.049   8.400 -1.8565 -1.5714 -0.9222
  996MOL0     H34409   1.871   7.325   8.299 -1.8113 -1.2204  0.1419
  996MOL0     H34410   1.879   7.289   8.470  2.5525 -1.4762 -0.0929
  996MOL0     H34411   2.066   7.171   8.559 -1.2084 -0.2322  0.3810
  996MOL0     H34412   2.288   6.947   8.526  0.4350  0.3777  0.2887
  996MOL0     H34413   2.385   6.986   8.377 -0.3584  0.7703 -1.0860
  996MOL0     H34414   2.431   7.215   8.468  0.7678 -0.6275 -1.2122
  996MOL0     H34415   2.341   7.175   8.612 -1.5893 -2.2565  0.0061
  996MOL0     H34416   2.573   7.004   8.513  1.8029  3.5255 -1.0788
  996MOL0     H34417   2.490   7.009   8.678 -0.2952  0.5541  0.2455
  996MOL0     H34418   2.561   7.244   8.700  0.9158  2.3882 -1.4204
  996MOL0     H34419   2.662   7.237   8.556 -1.2052 -2.6482 -1.3627
  996MOL0     H34420   2.846   7.332   8.573  0.0098 -0.6411 -0.9501
  996MOL0     H34421   3.066   7.411   8.596 -1.8036 -0.0849 -2.1394
  996MOL0     H34422   3.412   7.523   8.907 -0.6900 -2.1891 -1.2797
  996MOL0     H34423   3.660   7.614   8.918  0.0650 -0.4129 -0.5470
  996MOL0     H34424   3.910   7.546   8.553 -1.7496  0.0483  2.5856
  996MOL0     H34425   3.849   7.700   8.499  1.1283 -0.4546 -1.1466
  996MOL0     H34426   3.986   7.817   8.643  1.7070 -0.6401  3.5077
  996MOL0     H34427   4.073   7.668   8.689  0.9053  0.2292 -0.7975
  996MOL0     H34428   4.131   7.630   8.459  2.1001  0.9876 -0.4727
  996MOL0     H34429   4.038   7.759   8.398 -0.0064  1.0603  0.1358
  996MOL0     H34430   4.311   7.766   8.560 -0.4619 -0.1362  0.7045
  996MOL0     H34431   4.221   7.915   8.549 -0.4213 -0.7466  0.6339
  996MOL0     H34432   4.402   7.868   8.384  0.2078 -2.2988 -0.6782
  996MOL0     H34433   4.248   7.945   8.317 -0.2804 -1.2885 -2.0276
  996MOL0     H34434   4.345   7.662   8.309 -0.6676 -0.7227  1.7898
  996MOL0     H34435   4.196   7.721   8.222  0.0875  2.2796 -0.4625
  996MOL0     H34436   4.480   7.789   8.139  0.4801 -1.1203 -1.0053
  996MOL0     H34437   4.339   7.876   8.085 -0.1537  0.9456  3.1001
  996MOL0     H34438   4.405   7.577   8.035  1.5432  0.9498 -1.4400
  996MOL0     H34439   4.241   7.638   8.005 -0.4150  1.4184  0.0072
  996MOL0     H34440   3.682   7.545   8.495  0.1156 -1.8523  0.0665
  996MOL0     H34441   3.473   7.462   8.486  2.2047  0.6416 -0.4746
  996MOL0     H34442   3.107   7.168   8.951  0.9121 -0.9582 -1.3012
  996MOL0     H34443   2.902   7.067   8.912  1.1448  2.4567  3.3158
  996MOL0     H34444   1.165   7.816   7.974  0.4835 -1.6359 -1.3183
  996MOL0     H34445   0.996   7.944   7.844 -0.8191 -1.2612 -1.2202
  996MOL0     H34446   0.579   8.278   8.023 -0.1728  2.3280  0.0090
  996MOL0     H34447   0.398   8.425   7.926 -1.7624 -1.1279 -0.6941
  996MOL0     H34448   0.101   8.359   7.568  1.1138  3.9184  0.5809
  996MOL0     H34449   0.188   8.212   7.579  2.6589 -0.6234 -0.6892
  996MOL0     H34450   0.382   8.295   7.466  0.6535  0.6002  3.7659
  996MOL0     H34451   0.328   8.456   7.444  3.2583 -0.2370  4.4781
  996MOL0     H34452   0.113   8.386   7.335  0.9597 -0.0422  1.3076
  996MOL0     H34453   0.172   8.224   7.333 -1.1515  0.5012  1.0913
  996MOL0     H34454   0.259   8.439   7.153 -1.3638  0.4374  1.0190
  996MOL0     H34455   0.391   8.328   7.217 -0.5608 -1.0104 -1.6164
  996MOL0     H34456   0.219   8.043   6.990 -3.0633 -0.5804 -0.8583
  996MOL0     H34457   0.362   8.136   7.612  1.0037 -1.7795  0.2237
  996MOL0     H34458   0.694   7.980   7.623 -0.2470  5.1581 -1.2788
  996MOL0     H34459   0.552   7.898   7.682 -2.6937  0.2997 -0.4732
  996MOL0     H34460   0.543   7.997   7.540 -2.9023 -1.8405  0.3540
  997MOL0     O34461   5.721   4.068   8.088  0.5182  0.1389  0.8335
  997MOL0     C34462   5.626   4.138   8.047  0.6128 -0.4112  0.8903
  997MOL0     O34463   5.643   4.273   8.009  0.1967 -0.7017 -0.3916
  997MOL0     C34464   5.757   4.344   8.059 -0.1422  0.1719 -0.8184
  997MOL0     C34465   5.879   4.340   7.998 -0.0154  0.1522  0.9389
  997MOL0     C34466   5.982   4.426   8.035 -0.2254  0.0133  0.6595
  997MOL0     C34467   5.970   4.527   8.126 -0.3226  0.4467  0.7274
  997MOL0     O34468   6.070   4.617   8.159 -0.9606  0.3389  0.1233
  997MOL0     C34469   6.196   4.547   8.180  0.2380  0.4738 -0.7496
  997MOL0     C34470   6.266   4.622   8.283  0.2011  0.0253 -0.8553
  997MOL0     C34471   6.404   4.569   8.317  0.1654  0.7559 -0.0531
  997MOL0     C34472   6.503   4.678   8.361 -0.1285  0.7081 -0.2394
  997MOL0     C34473   6.642   4.626   8.341 -0.5084 -0.5140 -0.1479
  997MOL0     C34474   6.745   4.723   8.391 -0.1990 -0.0498 -0.2719
  997MOL0     C34475   6.883   4.665   8.362 -0.3415  0.5244  0.1057
  997MOL0     C34476   6.981   4.749   8.434  0.8412 -0.5691 -0.1826
  997MOL0     N34477   7.105   4.684   8.453 -0.4132  0.3248  1.2351
  997MOL0     C34478   7.187   4.622   8.361 -0.0958  0.7789  0.7888
  997MOL0     C34479   7.308   4.593   8.421 -0.3106 -0.6841  0.0158
  997MOL0     C34480   7.438   4.530   8.370  0.3928  0.4204 -0.2178
  997MOL0     C34481   7.530   4.646   8.317  0.0880  0.4619  0.1591
  997MOL0     C34482   7.584   4.755   8.426  0.5883  0.1823 -0.7915
  997MOL0     C34483   7.683   4.691   8.524 -1.0513  0.2109 -0.0835
  997MOL0     O34484   7.809   4.675   8.463  0.3772  0.2057  0.2596
  997MOL0     C34485   7.918   4.645   8.543 -0.5222 -0.8805  0.5459
  997MOL0     C34486   7.924   4.587   8.671 -0.1676  0.6780  1.2234
  997MOL0     C34487   8.037   4.542   8.729  0.2164  0.4171  0.5448
  997MOL0     C34488   8.160   4.578   8.671 -0.8514  0.8530  0.4172
  997MOL0     C34489   8.287   4.545   8.736  0.4425  0.7230  0.0344
  997MOL0     O34490   8.396   4.589   8.680  0.4598  0.6354  1.2144
  997MOL0     C34491   8.516   4.523   8.672  1.0081  0.4652 -0.6237
  997MOL0     C34492   8.522   4.383   8.659  0.1964 -1.2961  0.2037
  997MOL0     C34493   8.649   4.322   8.622 -0.8295  0.0114 -0.7604
  997MOL0     C34494   8.766   4.399   8.612  0.5772 -0.5017  0.4133
  997MOL0     O34495   8.883   4.333   8.568  0.0542 -0.6225 -0.5118
  997MOL0     C34496   9.003   4.377   8.633  0.2980 -0.5745  0.0053
  997MOL0     C34497   9.097   4.259   8.668 -0.7239  0.4419 -0.4707
  997MOL0     C34498   9.063   4.184   8.798  0.5294  0.1183 -0.1424
  997MOL0     C34499   9.149   4.056   8.834  0.3947  0.1683 -0.5529
  997MOL0     C34500   9.285   4.097   8.868  0.0451  0.0775 -0.5100
  997MOL0     C34501   9.367   3.973   8.897  0.3763 -0.0893 -0.0285
  997MOL0     C34502   9.511   4.013   8.909 -0.3893 -0.7919  0.6484
  997MOL0     C34503   9.616   3.902   8.905 -0.3719 -0.1117  0.0422
  997MOL0    Cl34504   9.596   3.778   9.028  0.0991 -0.1512 -0.2724
  997MOL0     C34505   8.756   4.537   8.633  0.5095 -0.8147  0.0733
  997MOL0     C34506   8.627   4.596   8.661  0.8533 -0.0037 -0.2679
  997MOL0     O34507   8.276   4.464   8.830 -0.0237  1.0366 -0.1962
  997MOL0     C34508   8.159   4.620   8.539 -0.2816  0.1695 -0.5520
  997MOL0     C34509   8.038   4.661   8.478 -0.2913 -0.6874  1.1173
  997MOL0     N34510   7.307   4.668   8.538 -0.5809  0.2409 -0.8265
  997MOL0     N34511   7.187   4.716   8.556 -0.1230 -0.8196 -0.6596
  997MOL0     C34512   5.842   4.537   8.183  0.0106 -0.6275 -0.6838
  997MOL0     C34513   5.741   4.446   8.157 -0.2558  0.5929 -0.4190
  997MOL0     C34514   5.491   4.077   8.035 -0.1399  0.5230 -0.6140
  997MOL0     C34515   5.377   4.158   8.019  0.1320 -0.6688 -0.0576
  997MOL0     C34516   5.249   4.107   8.003  0.2048 -0.5389  0.3711
  997MOL0     C34517   5.222   3.965   8.013  0.7514 -0.2288  0.2221
  997MOL0     O34518   5.098   3.897   8.008 -0.2070 -0.9628  0.5064
  997MOL0     C34519   4.985   3.973   7.997 -0.5403 -1.3145 -0.3729
  997MOL0     C34520   4.932   3.966   7.847 -0.4343 -0.5980  0.1549
  997MOL0     C34521   4.787   4.009   7.842 -0.3980  0.0442  0.8578
  997MOL0     C34522   4.731   3.988   7.696 -0.4198  0.1238  0.0156
  997MOL0     C34523   4.617   4.075   7.666  0.1311 -0.3417  0.3930
  997MOL0     C34524   4.509   4.130   7.645  0.2971 -0.3895  0.3982
  997MOL0     C34525   5.331   3.887   8.025  0.0117 -0.1746 -1.2286
  997MOL0     C34526   5.463   3.935   8.036  0.3919  0.5031  0.2630
  997MOL0     C34527   5.566   3.833   8.035 -0.0151  0.5058  0.2954
  997MOL0     H34528   5.898   4.262   7.926 -1.5406  0.0008  0.6628
  997MOL0     H34529   6.078   4.416   7.986 -0.0603  0.7382  0.8285
  997MOL0     H34530   6.181   4.449   8.227  1.2094  1.6572  2.2561
  997MOL0     H34531   6.248   4.536   8.085  0.6919  2.4812 -0.7748
  997MOL0     H34532   6.202   4.627   8.372  0.4227 -2.3528 -0.4944
  997MOL0     H34533   6.286   4.723   8.246  0.7926  0.8731  1.5737
  997MOL0     H34534   6.430   4.517   8.224 -0.0715  2.5649 -1.2048
  997MOL0     H34535   6.384   4.497   8.397 -0.5225  1.0458  0.0451
  997MOL0     H34536   6.488   4.770   8.304 -0.5585 -0.0237 -1.3261
  997MOL0     H34537   6.482   4.702   8.466  0.1910  0.3692 -0.0972
  997MOL0     H34538   6.649   4.531   8.393  1.8715 -0.3952 -0.1361
  997MOL0     H34539   6.667   4.614   8.235  2.8105 -0.8918  0.5687
  997MOL0     H34540   6.748   4.812   8.327  1.8210  1.0190  1.2049
  997MOL0     H34541   6.725   4.756   8.493  0.2985  4.5364 -1.4365
  997MOL0     H34542   6.910   4.664   8.256  0.1506  2.3295  0.1829
  997MOL0     H34543   6.905   4.564   8.398 -0.7230 -0.0980 -1.3316
  997MOL0     H34544   6.983   4.847   8.386  1.4069 -1.3994 -1.9306
  997MOL0     H34545   6.935   4.767   8.532 -0.3438  0.9015 -0.9617
  997MOL0     H34546   7.162   4.587   8.262 -1.2189 -1.8071  1.8873
  997MOL0     H34547   7.487   4.473   8.450 -0.7532 -1.6502 -0.9284
  997MOL0     H34548   7.412   4.457   8.293  1.7351  0.0448 -0.3434
  997MOL0     H34549   7.614   4.598   8.267  2.3359  2.2533  1.9512
  997MOL0     H34550   7.468   4.703   8.247 -0.7056  1.5834  1.6991
  997MOL0     H34551   7.497   4.798   8.476  0.2490 -1.7634  0.4282
  997MOL0     H34552   7.635   4.836   8.374 -0.3228 -0.1285 -2.2559
  997MOL0     H34553   7.657   4.586   8.541 -0.0735  0.0953  0.7797
  997MOL0     H34554   7.683   4.735   8.624  1.0014  2.4254 -0.9688
  997MOL0     H34555   7.832   4.567   8.725  0.1022  1.8888  2.1892
  997MOL0     H34556   8.028   4.497   8.828  0.8317 -1.9467 -0.3890
  997MOL0     H34557   8.439   4.314   8.657  0.5326 -1.7108 -1.9874
  997MOL0     H34558   8.656   4.216   8.597 -2.5377 -0.3351  0.0846
  997MOL0     H34559   9.049   4.445   8.561 -2.3818  1.9886  0.5268
  997MOL0     H34560   8.995   4.446   8.717  2.6245  3.3781 -2.7053
  997MOL0     H34561   9.104   4.182   8.591 -0.2030  0.7634 -0.7465
  997MOL0     H34562   9.201   4.291   8.684  0.5465 -2.9746 -1.0345
  997MOL0     H34563   9.065   4.249   8.885 -1.0327 -1.4319  1.1216
  997MOL0     H34564   8.960   4.151   8.782 -1.0843  3.0852  2.9556
  997MOL0     H34565   9.150   3.991   8.746  0.6567  1.1313 -1.2869
  997MOL0     H34566   9.112   3.999   8.919  4.3123 -0.1517  1.1297
  997MOL0     H34567   9.291   4.160   8.957 -1.1906  0.6230 -0.7869
  997MOL0     H34568   9.326   4.157   8.787 -1.5164  3.6376  1.1037
  997MOL0     H34569   9.340   3.925   8.992  3.2563  0.6171  1.2494
  997MOL0     H34570   9.357   3.901   8.816 -1.7050  0.9955 -0.7914
  997MOL0     H34571   9.523   4.070   9.001 -1.3663 -1.2203  1.0623
  997MOL0     H34572   9.553   4.076   8.830 -0.0679  1.3409  2.4200
  997MOL0     H34573   9.612   3.856   8.806 -1.5051  1.4153 -0.6614
  997MOL0     H34574   9.719   3.935   8.925 -0.0905 -1.6901  1.3294
  997MOL0     H34575   8.841   4.601   8.615  0.8298 -0.9682  1.0207
  997MOL0     H34576   8.617   4.703   8.672 -3.2311 -0.3796  1.5943
  997MOL0     H34577   8.250   4.637   8.483 -0.7960  2.6373 -0.7518
  997MOL0     H34578   8.043   4.696   8.375 -1.8329 -1.4560  0.7392
  997MOL0     H34579   5.839   4.603   8.269  0.7712 -1.6674  0.1670
  997MOL0     H34580   5.655   4.454   8.222  0.9869  1.0074  1.2475
  997MOL0     H34581   5.401   4.261   8.042  2.5756 -1.0681 -0.5627
  997MOL0     H34582   5.167   4.177   7.992 -2.2652 -2.8090  2.5667
  997MOL0     H34583   4.996   4.079   8.021  1.6673 -1.5803 -0.0024
  997MOL0     H34584   4.917   3.931   8.071  0.2908 -0.4967  0.8915
  997MOL0     H34585   4.945   3.862   7.815  2.2045 -0.7554  1.4692
  997MOL0     H34586   4.988   4.030   7.778 -2.0786 -1.0207 -1.6898
  997MOL0     H34587   4.773   4.113   7.875  0.5630  0.6487 -0.5295
  997MOL0     H34588   4.726   3.937   7.896  1.0211 -0.6593  1.5654
  997MOL0     H34589   4.809   3.993   7.620  0.2007 -0.7093  0.5720
  997MOL0     H34590   4.700   3.883   7.690  1.0519 -0.6125  2.9570
  997MOL0     H34591   4.420   4.186   7.624  1.5833  1.5534 -0.1861
  997MOL0     H34592   5.322   3.779   8.030 -0.5419 -0.0824  0.1051
  997MOL0     H34593   5.627   3.853   7.946  2.4635 -1.0873  1.5337
  997MOL0     H34594   5.626   3.840   8.126  1.9893  0.8889 -0.9953
  997MOL0     H34595   5.521   3.736   8.014  1.5991 -0.0255 -0.9766
  998MOL0     O34596   5.420   7.979   7.023 -0.4816 -0.3641 -0.0324
  998MOL0     C34597   5.376   8.089   6.998  0.7704 -0.3275 -0.0478
  998MOL0     O34598   5.418   8.204   7.052  0.2653 -0.0234  1.3830
  998MOL0     C34599   5.543   8.207   7.108  0.4587  0.4303 -0.5068
  998MOL0     C34600   5.566   8.137   7.228  0.1072 -0.2147 -0.5138
  998MOL0     C34601   5.688   8.145   7.297  0.9647 -0.3884 -0.1122
  998MOL0     C34602   5.793   8.219   7.242  0.1920 -1.0258  1.0149
  998MOL0     O34603   5.908   8.243   7.313  0.6682 -0.3104  0.0053
  998MOL0     C34604   5.919   8.372   7.370 -0.5007  0.0874  0.8557
  998MOL0     C34605   6.054   8.401   7.416  0.6638 -0.1922 -0.8097
  998MOL0     C34606   6.146   8.437   7.307  0.1595  0.1355  0.0048
  998MOL0     C34607   6.300   8.439   7.346  0.1604 -0.4913  0.2032
  998MOL0     C34608   6.386   8.472   7.229  0.3498  0.2060 -0.0973
  998MOL0     C34609   6.534   8.502   7.285 -0.0626  0.2781  0.8175
  998MOL0     C34610   6.641   8.525   7.176 -0.1162  0.2627 -0.3074
  998MOL0     C34611   6.783   8.553   7.237  0.2577 -0.0016 -0.1043
  998MOL0     N34612   6.859   8.443   7.278 -0.2361  0.1628 -0.4170
  998MOL0     C34613   6.885   8.330   7.209  0.2028  0.3814 -0.2729
  998MOL0     C34614   6.984   8.263   7.268  0.0660 -0.5202 -0.3925
  998MOL0     C34615   7.041   8.146   7.192  0.1950  0.0535 -0.6177
  998MOL0     C34616   7.198   8.164   7.164 -0.4300 -0.4578  0.4897
  998MOL0     C34617   7.268   8.038   7.120  0.4642  0.2423  0.1655
  998MOL0     C34618   7.415   8.064   7.117  0.0486 -0.2208  0.2451
  998MOL0     O34619   7.477   7.945   7.079  0.2152  0.7400  0.0904
  998MOL0     C34620   7.614   7.934   7.072 -0.3602 -0.3413 -0.3095
  998MOL0     C34621   7.697   8.046   7.096  0.6285  0.1385 -0.6563
  998MOL0     C34622   7.836   8.041   7.096 -0.6597  0.1081 -0.0306
  998MOL0     C34623   7.905   7.928   7.079  0.3682  0.1070  0.3181
  998MOL0     C34624   8.059   7.922   7.065 -0.0839 -0.7717 -0.1693
  998MOL0     O34625   8.112   8.046   7.017 -0.0427  0.1470 -1.2706
  998MOL0     C34626   8.239   8.044   6.975 -0.4638  0.4031  0.1829
  998MOL0     C34627   8.276   7.982   6.858 -0.3501 -0.0813 -0.3303
  998MOL0     C34628   8.412   7.990   6.814  0.8421 -0.2063  0.4368
  998MOL0     C34629   8.511   8.038   6.903 -0.1708 -0.0387  0.3107
  998MOL0     O34630   8.636   8.038   6.852  0.9093 -1.0583 -0.2224
  998MOL0     C34631   8.713   8.155   6.891  0.0709 -0.6305 -0.4819
  998MOL0     C34632   8.860   8.148   6.847  0.1624 -0.1692 -0.4047
  998MOL0     C34633   8.945   8.042   6.926  0.6859  0.1476 -0.6740
  998MOL0     C34634   9.092   8.057   6.891 -0.6916  0.5571 -0.2375
  998MOL0     C34635   9.186   7.995   7.001 -0.2049 -0.4189  0.7395
  998MOL0     C34636   9.331   7.992   6.940  0.0997 -0.6360  0.0791
  998MOL0     C34637   9.426   7.970   7.054 -0.9028 -0.2179 -0.0004
  998MOL0     C34638   9.574   7.955   7.011  0.0052  0.3731 -0.0162
  998MOL0    Cl34639   9.633   8.115   6.951 -0.3510  0.0395 -0.2624
  998MOL0     C34640   8.480   8.095   7.026 -0.1394  0.8423 -1.4573
  998MOL0     C34641   8.341   8.098   7.058  0.5303  0.2542 -0.6136
  998MOL0     O34642   8.124   7.825   7.092  0.4800 -0.0592  0.0386
  998MOL0     C34643   7.829   7.813   7.051  0.2969  0.4009 -1.0673
  998MOL0     C34644   7.684   7.814   7.050 -0.2420  0.0733 -0.0203
  998MOL0     N34645   7.019   8.338   7.380 -0.5430 -1.2470 -0.0025
  998MOL0     N34646   6.945   8.438   7.389  0.8100  0.1934  0.5726
  998MOL0     C34647   5.772   8.289   7.118  1.4170  0.0858  0.1342
  998MOL0     C34648   5.651   8.287   7.060  0.0167 -0.0670  0.2365
  998MOL0     C34649   5.244   8.103   6.929 -0.2765  0.3650 -0.2384
  998MOL0     C34650   5.146   8.171   6.995  0.1551  1.1463 -0.2734
  998MOL0     C34651   5.017   8.171   6.957 -0.2675  0.1111  0.4413
  998MOL0     C34652   4.976   8.107   6.844 -0.3388  1.2570 -0.2410
  998MOL0     O34653   4.852   8.130   6.795 -0.2009 -0.1193 -0.7631
  998MOL0     C34654   4.819   8.072   6.672  0.1403 -0.2706  0.3297
  998MOL0     C34655   4.682   8.131   6.631  0.2255  0.1319 -0.1533
  998MOL0     C34656   4.617   8.071   6.513 -0.4552  0.1083 -0.0875
  998MOL0     C34657   4.502   8.160   6.463  0.3795  0.0185 -0.2631
  998MOL0     C34658   4.548   8.295   6.415 -0.2586  0.6760 -0.2903
  998MOL0     C34659   4.592   8.395   6.369 -0.1170  0.5866 -0.2164
  998MOL0     C34660   5.077   8.029   6.777  0.6377 -0.1670 -0.4855
  998MOL0     C34661   5.208   8.024   6.822  1.1389  0.0721  0.5365
  998MOL0     C34662   5.311   7.934   6.751 -0.4784  0.3089  0.3284
  998MOL0     H34663   5.479   8.084   7.267  1.1071 -0.9642  0.8234
  998MOL0     H34664   5.705   8.089   7.388  0.5090  0.9835  0.8432
  998MOL0     H34665   5.884   8.451   7.303 -4.5703  1.8970  4.6400
  998MOL0     H34666   5.854   8.381   7.457 -1.7651  0.0582 -0.0660
  998MOL0     H34667   6.092   8.310   7.463  1.7279  0.2186 -0.8335
  998MOL0     H34668   6.057   8.483   7.487  0.5559 -0.4736 -0.4807
  998MOL0     H34669   6.132   8.542   7.280 -0.6328 -0.4580 -2.0746
  998MOL0     H34670   6.131   8.372   7.221 -0.9561  0.0584  0.2525
  998MOL0     H34671   6.316   8.511   7.427  2.0008  0.1925 -0.7123
  998MOL0     H34672   6.337   8.345   7.391 -0.3399 -0.8596 -0.1489
  998MOL0     H34673   6.383   8.395   7.152  0.7381 -2.8893  2.7538
  998MOL0     H34674   6.347   8.562   7.181 -1.1124  0.0443  0.7357
  998MOL0     H34675   6.533   8.582   7.359  3.9796 -0.9111  2.4017
  998MOL0     H34676   6.576   8.420   7.345  0.8939  0.3518  0.2713
  998MOL0     H34677   6.609   8.619   7.131  2.1361 -0.0537 -2.8072
  998MOL0     H34678   6.644   8.447   7.100 -3.1128  1.2546 -1.5847
  998MOL0     H34679   6.843   8.595   7.156  0.0785 -0.4439 -0.4657
  998MOL0     H34680   6.777   8.624   7.321 -0.6026  0.1739 -0.3082
  998MOL0     H34681   6.836   8.304   7.116 -0.0855 -0.5861  0.1353
  998MOL0     H34682   7.032   8.055   7.251  0.4254 -0.0309 -0.7137
  998MOL0     H34683   6.995   8.132   7.093  0.3502 -1.6285 -0.4804
  998MOL0     H34684   7.211   8.240   7.087 -1.7253 -2.4756 -1.8919
  998MOL0     H34685   7.245   8.209   7.252  0.3008  3.8271 -1.8515
  998MOL0     H34686   7.228   8.011   7.022 -0.1589  2.2276 -0.1760
  998MOL0     H34687   7.250   7.958   7.192  0.5700  1.2572  1.3626
  998MOL0     H34688   7.456   8.080   7.217 -0.4526 -2.4629  0.8662
  998MOL0     H34689   7.439   8.143   7.045 -4.3859 -0.8272 -2.2783
  998MOL0     H34690   7.657   8.142   7.125  3.4093  1.4224 -0.8051
  998MOL0     H34691   7.897   8.128   7.115  0.4059 -1.1148  2.5915
  998MOL0     H34692   8.208   7.945   6.782  1.4963 -3.0186 -0.7357
  998MOL0     H34693   8.422   7.962   6.710  1.4149 -1.8594  0.9049
  998MOL0     H34694   8.670   8.247   6.849 -3.1035 -0.4521  2.6545
  998MOL0     H34695   8.719   8.177   6.998 -1.9561 -0.3890 -0.3783
  998MOL0     H34696   8.867   8.126   6.740  2.1731  2.4761 -0.9257
  998MOL0     H34697   8.911   8.244   6.860  1.7439 -0.9383 -0.7642
  998MOL0     H34698   8.926   8.059   7.032 -3.4021 -1.0105 -1.0567
  998MOL0     H34699   8.906   7.944   6.899 -1.5493  0.8077 -0.1260
  998MOL0     H34700   9.120   8.161   6.876  1.0803 -0.0232 -1.2367
  998MOL0     H34701   9.104   8.009   6.793  0.7588  1.9075 -0.7584
  998MOL0     H34702   9.155   7.891   7.015 -3.2432 -0.0971 -2.2226
  998MOL0     H34703   9.181   8.047   7.097  1.1615  1.6634 -0.2183
  998MOL0     H34704   9.343   7.919   6.859  3.3296  0.9839 -1.0340
  998MOL0     H34705   9.356   8.088   6.895  0.0628  0.7411  2.7976
  998MOL0     H34706   9.397   7.872   7.094 -2.0233 -0.1903 -0.7133
  998MOL0     H34707   9.415   8.040   7.137 -0.0685 -3.1584  2.8144
  998MOL0     H34708   9.635   7.923   7.096  0.2379 -1.9672 -0.9803
  998MOL0     H34709   9.581   7.878   6.933  0.1145 -0.4205  0.7620
  998MOL0     H34710   8.541   8.139   7.105 -0.4935 -0.4699 -0.4156
  998MOL0     H34711   8.308   8.151   7.146  0.1045 -3.1546  1.4416
  998MOL0     H34712   7.887   7.721   7.043  1.7091  1.2356 -0.8720
  998MOL0     H34713   7.619   7.728   7.037 -0.5178  0.4836 -1.5438
  998MOL0     H34714   5.843   8.354   7.069 -0.6557  0.2987 -2.9112
  998MOL0     H34715   5.643   8.339   6.965  2.2424  0.7488  0.4432
  998MOL0     H34716   5.157   8.231   7.085  0.6507 -2.2598  2.1339
  998MOL0     H34717   4.936   8.231   6.997 -1.2693 -0.4865 -0.6585
  998MOL0     H34718   4.813   7.963   6.682  1.8393 -0.3579  0.5675
  998MOL0     H34719   4.881   8.102   6.587 -2.2255  1.0096 -1.0639
  998MOL0     H34720   4.694   8.238   6.609 -2.7399  0.7810  0.9256
  998MOL0     H34721   4.619   8.116   6.719 -2.6268  0.9276 -1.9419
  998MOL0     H34722   4.569   7.984   6.557  0.0989 -0.7901 -1.2115
  998MOL0     H34723   4.679   8.029   6.433 -1.0473  1.5877 -1.3862
  998MOL0     H34724   4.452   8.104   6.384  0.1130  0.1891 -0.2173
  998MOL0     H34725   4.422   8.175   6.536 -0.7971 -1.8153 -1.0959
  998MOL0     H34726   4.643   8.487   6.354 -0.2359  0.7542  0.3832
  998MOL0     H34727   5.055   7.982   6.682  0.8719 -2.3789  0.4648
  998MOL0     H34728   5.281   7.911   6.648  1.1698 -0.0996 -0.1013
  998MOL0     H34729   5.410   7.978   6.734 -0.3394 -0.2673 -0.3810
  998MOL0     H34730   5.318   7.842   6.810  0.3866  1.1040  1.5209
  999MOL0     O34731   8.309   2.507   6.228 -0.4025  0.0214  0.4486
  999MOL0     C34732   8.248   2.398   6.245 -0.8522  0.7105  0.4751
  999MOL0     O34733   8.295   2.273   6.211 -0.3827 -0.0293 -0.3697
  999MOL0     C34734   8.434   2.258   6.199 -0.5771  0.2742 -0.5784
  999MOL0     C34735   8.532   2.311   6.288 -0.1679 -0.2773  0.9328
  999MOL0     C34736   8.671   2.287   6.263 -0.0367  0.0379  0.0611
  999MOL0     C34737   8.715   2.211   6.164 -0.1721  0.6022 -0.1248
  999MOL0     O34738   8.847   2.213   6.130 -0.0934 -0.0223  0.9059
  999MOL0     C34739   8.895   2.155   6.004  0.4528 -0.2677  0.7149
  999MOL0     C34740   9.043   2.160   5.998 -0.0888 -0.1133 -0.1762
  999MOL0     C34741   9.116   2.060   6.094  0.5240 -0.6586 -0.3248
  999MOL0     C34742   9.268   2.050   6.073  0.5475 -0.0115  0.0164
  999MOL0     C34743   9.331   2.191   6.098  0.1591  0.1145  0.6487
  999MOL0     C34744   9.473   2.175   6.147 -0.6343 -0.2682 -0.5450
  999MOL0     C34745   9.583   2.165   6.032  0.2144  0.5153 -0.6909
  999MOL0     C34746   9.617   2.021   5.987 -0.0344 -0.3744  0.5620
  999MOL0     N34747   9.757   2.023   5.939 -0.2627 -0.8563  0.0066
  999MOL0     C34748   9.801   2.110   5.836 -0.5513 -0.5003 -0.1180
  999MOL0     C34749   9.906   2.048   5.773 -0.5839  0.1633  0.3777
  999MOL0     C34750   9.999   2.117   5.670  0.0846 -0.2993  0.1263
  999MOL0     C34751  10.142   2.077   5.676  0.0786 -0.3156  0.8182
  999MOL0     C34752  10.242   2.170   5.595  0.6140 -0.6922 -0.8565
  999MOL0     C34753  10.385   2.134   5.621 -0.6764  0.3460 -0.3591
  999MOL0     O34754  10.465   2.210   5.526  0.1341 -0.6220 -0.0620
  999MOL0     C34755  10.586   2.170   5.487 -0.1510  0.7246  0.4136
  999MOL0     C34756  10.635   2.036   5.492  0.1713  0.3428 -0.5883
  999MOL0     C34757  10.763   2.012   5.443  0.2929 -0.5196 -0.3621
  999MOL0     C34758  10.857   2.113   5.399  1.0276  0.6724  0.3305
  999MOL0     C34759  10.990   2.078   5.356 -1.3952  0.5292 -0.1831
  999MOL0     O34760  11.053   2.151   5.268  0.1739  0.7210  0.3936
  999MOL0     C34761  11.190   2.136   5.258  0.5871  0.6749  1.0577
  999MOL0     C34762  11.256   2.065   5.155  1.3418  0.6513 -0.7222
  999MOL0     C34763  11.398   2.053   5.149 -0.0238  0.0998 -1.0130
  999MOL0     C34764  11.470   2.119   5.248  0.3129  0.1983 -0.4065
  999MOL0     O34765  11.606   2.116   5.250  0.4635 -0.0141  0.2866
  999MOL0     C34766  11.672   1.994   5.223  0.0458 -0.1029 -0.1098
  999MOL0     C34767  11.789   1.979   5.322  0.7802 -0.1160  0.1813
  999MOL0     C34768  11.893   2.094   5.323 -0.7487 -0.0969  1.1079
  999MOL0     C34769  11.967   2.108   5.191 -0.5355  0.1103  0.2108
  999MOL0     C34770  12.081   1.995   5.168  0.2182 -0.6373 -0.0900
  999MOL0     C34771  12.208   2.033   5.240 -0.4587  0.5535 -0.2452
  999MOL0     C34772  12.296   1.910   5.266  0.0759  0.1628  0.3903
  999MOL0     C34773  12.258   1.829   5.390  0.2567 -0.1565  0.3837
  999MOL0    Cl34774  12.397   1.722   5.426  0.0954 -0.1852  0.3519
  999MOL0     C34775  11.410   2.199   5.345  0.3922 -0.4836  0.3627
  999MOL0     C34776  11.269   2.211   5.345  0.5116  0.1606 -0.7663
  999MOL0     O34777  11.042   1.982   5.410 -0.1825 -0.3853 -0.2734
  999MOL0     C34778  10.812   2.241   5.407  0.8179 -0.6744 -0.2207
  999MOL0     C34779  10.674   2.262   5.446 -0.5241  0.4320  0.9224
  999MOL0     N34780   9.917   1.926   5.828 -0.7628  0.3486  0.1078
  999MOL0     N34781   9.841   1.917   5.930  0.4507 -0.3131  0.5235
  999MOL0     C34782   8.611   2.138   6.083 -0.2028 -0.1378  0.2974
  999MOL0     C34783   8.479   2.166   6.105  0.6518  0.5930  0.2793
  999MOL0     C34784   8.109   2.398   6.301 -0.0809 -0.1482 -0.3444
  999MOL0     C34785   8.032   2.290   6.278  1.0055  0.4105 -0.3153
  999MOL0     C34786   7.914   2.271   6.344 -0.2146  0.6071  0.6725
  999MOL0     C34787   7.867   2.353   6.441 -0.0368  0.8184 -0.1683
  999MOL0     O34788   7.749   2.317   6.508 -0.0423 -0.0058 -0.3976
  999MOL0     C34789   7.695   2.381   6.624 -1.0665  0.2336 -0.9967
  999MOL0     C34790   7.562   2.335   6.674 -0.4858  0.3473  0.3780
  999MOL0     C34791   7.525   2.400   6.807 -0.2944  0.0735  0.6260
  999MOL0     C34792   7.388   2.359   6.864  0.0569  0.3063  0.7178
  999MOL0     C34793   7.290   2.429   6.782  0.1925 -0.8576 -0.7344
  999MOL0     C34794   7.215   2.496   6.718  0.7904 -0.6897  0.3127
  999MOL0     C34795   7.943   2.461   6.475 -0.6501 -0.0565 -0.4897
  999MOL0     C34796   8.064   2.486   6.409  1.4043  1.2845  0.6853
  999MOL0     C34797   8.135   2.599   6.467 -1.1855  0.5526  0.6295
  999MOL0     H34798   8.509   2.387   6.362 -2.3459  0.6105 -0.5417
  999MOL0     H34799   8.735   2.353   6.320 -0.3884 -0.8150  1.4746
  999MOL0     H34800   8.872   2.048   6.003  2.6364 -0.7818  1.2870
  999MOL0     H34801   8.841   2.199   5.920 -0.2664 -2.8680 -0.2830
  999MOL0     H34802   9.088   2.260   6.003  1.6468 -0.9387  2.0428
  999MOL0     H34803   9.074   2.129   5.897  1.4956 -0.6575  0.4447
  999MOL0     H34804   9.065   1.964   6.101 -2.0702  0.6479 -0.1645
  999MOL0     H34805   9.099   2.104   6.193  1.5627  0.2240 -0.5078
  999MOL0     H34806   9.311   1.979   6.143 -0.8871 -0.8259  0.1158
  999MOL0     H34807   9.295   2.014   5.974  0.3450 -2.3709  0.7693
  999MOL0     H34808   9.324   2.246   6.004 -1.6829  1.2247  1.3854
  999MOL0     H34809   9.275   2.257   6.165  0.5685  0.6475  0.4754
  999MOL0     H34810   9.499   2.265   6.202  2.0771 -1.9152  1.1541
  999MOL0     H34811   9.475   2.099   6.226 -0.5048  1.9070  1.6548
  999MOL0     H34812   9.677   2.208   6.066  0.6610 -0.1530 -1.0665
  999MOL0     H34813   9.560   2.230   5.947  0.2297 -0.6309 -1.5970
  999MOL0     H34814   9.613   1.954   6.074 -1.9196 -1.2314 -0.1288
  999MOL0     H34815   9.542   1.988   5.914  0.5834  1.5546 -1.0264
  999MOL0     H34816   9.770   2.213   5.827  0.0221 -0.1299  1.7276
  999MOL0     H34817   9.951   2.096   5.574 -1.8696 -0.0663  0.9990
  999MOL0     H34818   9.996   2.224   5.696  3.5544 -0.3566  1.2917
  999MOL0     H34819  10.172   2.088   5.781  0.7342  3.3313  0.3594
  999MOL0     H34820  10.143   1.977   5.630  0.1295  1.0716 -2.4613
  999MOL0     H34821  10.219   2.273   5.623  0.6044 -0.9374  0.0449
  999MOL0     H34822  10.220   2.158   5.488  2.7378 -2.1891 -1.1915
  999MOL0     H34823  10.396   2.025   5.609 -1.3389  0.3392 -0.9356
  999MOL0     H34824  10.415   2.152   5.725 -3.3291 -0.5314  0.6260
  999MOL0     H34825  10.576   1.951   5.523 -0.4477  1.5232  1.7102
  999MOL0     H34826  10.803   1.911   5.439  0.8768 -0.2600 -1.5427
  999MOL0     H34827  11.193   2.007   5.088  0.4491 -0.0067  0.6518
  999MOL0     H34828  11.454   1.995   5.077 -1.6911 -2.4560 -0.3756
  999MOL0     H34829  11.609   1.909   5.251 -1.8172  1.3659  0.3880
  999MOL0     H34830  11.700   1.981   5.118  0.5194 -2.2181  0.2332
  999MOL0     H34831  11.737   1.968   5.418  0.5620 -1.0174 -0.0300
  999MOL0     H34832  11.838   1.885   5.296  2.1845  0.3075  1.1664
  999MOL0     H34833  11.835   2.185   5.339 -1.8964 -0.1892 -1.9816
  999MOL0     H34834  11.963   2.096   5.407 -0.1728  2.2046  0.6496
  999MOL0     H34835  12.022   2.202   5.179  2.0734 -1.3468  0.0381
  999MOL0     H34836  11.884   2.099   5.121 -2.6472  1.1582  2.4450
  999MOL0     H34837  12.099   1.988   5.060  0.5935 -0.1185 -0.0652
  999MOL0     H34838  12.050   1.895   5.199 -3.0937 -0.3176 -1.9407
  999MOL0     H34839  12.257   2.114   5.186 -1.0561  1.8433  1.0682
  999MOL0     H34840  12.185   2.083   5.335 -2.4305  0.1003 -0.4386
  999MOL0     H34841  12.399   1.945   5.270 -0.4486  2.0083 -0.8608
  999MOL0     H34842  12.295   1.846   5.177 -1.9051 -0.0650  0.5182
  999MOL0     H34843  12.245   1.901   5.471 -0.9422  1.3911 -1.1263
  999MOL0     H34844  12.166   1.776   5.366  1.1827 -1.2643 -0.8589
  999MOL0     H34845  11.472   2.243   5.423  0.9347 -2.5778  1.1821
  999MOL0     H34846  11.227   2.258   5.434  0.8327  0.2364 -0.6520
  999MOL0     H34847  10.866   2.332   5.381 -1.8171  1.0742  0.0280
  999MOL0     H34848  10.643   2.366   5.450 -0.0614  0.5673  1.1876
  999MOL0     H34849   8.636   2.069   6.004 -0.9666 -0.7717  0.5984
  999MOL0     H34850   8.410   2.108   6.044  1.7636  0.3459 -0.8022
  999MOL0     H34851   8.063   2.224   6.198  0.2965 -0.6331  0.2291
  999MOL0     H34852   7.862   2.184   6.305  0.1488  0.0207  1.4787
  999MOL0     H34853   7.702   2.489   6.608 -1.1246  0.3541 -0.2626
  999MOL0     H34854   7.772   2.368   6.700 -0.1477  1.9535 -1.5808
  999MOL0     H34855   7.549   2.227   6.666 -0.2535  0.4269 -1.8439
  999MOL0     H34856   7.484   2.368   6.604 -1.6182 -0.8524  1.0370
  999MOL0     H34857   7.540   2.508   6.817  3.9564 -0.5561  4.2323
  999MOL0     H34858   7.597   2.364   6.881  2.3811  0.5497 -1.5715
  999MOL0     H34859   7.390   2.249   6.868  1.5365  0.2438 -0.6376
  999MOL0     H34860   7.378   2.398   6.966  0.2966  0.6466  0.6119
  999MOL0     H34861   7.143   2.570   6.687  0.7252 -0.6554  0.5425
  999MOL0     H34862   7.908   2.514   6.563  0.7004 -0.4977  0.3439
  999MOL0     H34863   8.122   2.688   6.405 -1.0220  0.1610  0.0325
  999MOL0     H34864   8.097   2.626   6.566  0.3232 -1.2115  1.7454
  999MOL0     H34865   8.240   2.573   6.483 -1.2001 -1.8564 -2.3429
 1000MOL0     O34866   4.178   8.235   8.239 -0.4973 -0.5892 -0.0170
 1000MOL0     C34867   4.098   8.213   8.330  0.5069 -1.0480 -0.5445
 1000MOL0     O34868   4.105   8.258   8.456 -0.9746  0.1969  0.2888
 1000MOL0     C34869   4.209   8.351   8.468  0.0458  0.9310 -0.9643
 1000MOL0     C34870   4.336   8.300   8.486  0.4673  0.3328  0.1001
 1000MOL0     C34871   4.438   8.397   8.509 -0.5166 -0.0662  0.4926
 1000MOL0     C34872   4.410   8.539   8.524  0.6623 -1.1695  0.5353
 1000MOL0     O34873   4.524   8.619   8.544 -0.2220  0.3905 -0.4295
 1000MOL0     C34874   4.503   8.754   8.573  0.9598  0.0138 -0.4378
 1000MOL0     C34875   4.639   8.811   8.603  0.1081  0.4115 -0.2995
 1000MOL0     C34876   4.639   8.968   8.590 -0.0512 -0.3277  0.1535
 1000MOL0     C34877   4.699   9.030   8.714 -0.2587  0.0154  0.2038
 1000MOL0     C34878   4.699   9.185   8.684  0.1566  0.0027 -0.1884
 1000MOL0     C34879   4.790   9.268   8.775  0.3415  0.1424 -0.5895
 1000MOL0     C34880   4.759   9.259   8.932  0.2700 -0.4394  0.5530
 1000MOL0     C34881   4.626   9.319   8.976  1.1365  0.3836  0.1583
 1000MOL0     N34882   4.621   9.319   9.127 -0.3430 -0.7221  0.1199
 1000MOL0     C34883   4.612   9.199   9.193 -0.4889  0.0517 -0.6751
 1000MOL0     C34884   4.620   9.237   9.326 -0.0734  0.0014 -0.2354
 1000MOL0     C34885   4.598   9.141   9.445  0.1595  0.2824 -0.1308
 1000MOL0     C34886   4.450   9.140   9.498 -0.0630 -0.3477  0.1561
 1000MOL0     C34887   4.341   9.080   9.409 -0.3589 -0.4099 -0.1167
 1000MOL0     C34888   4.361   8.931   9.380 -0.3482 -0.7892 -0.6741
 1000MOL0     O34889   4.275   8.886   9.277  0.5999  0.3315  0.0159
 1000MOL0     C34890   4.160   8.818   9.297  0.3838 -0.1975 -0.0881
 1000MOL0     C34891   4.108   8.779   9.170 -0.7586 -0.2564 -0.3670
 1000MOL0     C34892   3.979   8.729   9.161 -0.6018  0.5533 -0.5265
 1000MOL0     C34893   3.910   8.692   9.277  0.9050 -0.2083 -0.9086
 1000MOL0     C34894   3.773   8.630   9.274 -0.1298 -0.0232  0.1698
 1000MOL0     O34895   3.709   8.593   9.387 -0.3416  0.3048 -0.6394
 1000MOL0     C34896   3.585   8.544   9.383  0.1968  0.4453  0.0135
 1000MOL0     C34897   3.489   8.559   9.283  0.4543 -0.2432 -0.5357
 1000MOL0     C34898   3.368   8.494   9.301  0.0585  0.3258 -0.0986
 1000MOL0     C34899   3.337   8.410   9.416  0.5212 -0.1642  0.3109
 1000MOL0     O34900   3.225   8.336   9.434 -0.0288  0.2676 -0.2866
 1000MOL0     C34901   3.122   8.347   9.350  0.2471  0.4126 -0.3693
 1000MOL0     C34902   3.046   8.475   9.366 -0.5715  0.1112  0.7218
 1000MOL0     C34903   3.014   8.517   9.521  0.1346 -0.1163  0.5852
 1000MOL0     C34904   2.980   8.667   9.526  0.5274 -0.6569 -0.5313
 1000MOL0     C34905   2.942   8.713   9.674  0.9866 -0.2739 -0.3751
 1000MOL0     C34906   2.794   8.702   9.709 -0.0863  0.3316 -0.6100
 1000MOL0     C34907   2.697   8.792   9.643  0.6713 -0.0526  0.8049
 1000MOL0     C34908   2.556   8.792   9.699 -0.3204 -0.0184 -0.1701
 1000MOL0    Cl34909   2.497   8.627   9.645 -0.0234  0.0550 -0.0402
 1000MOL0     C34910   3.430   8.420   9.525 -0.8920 -0.2354  0.1077
 1000MOL0     C34911   3.554   8.489   9.511 -0.5302  0.1404  0.3726
 1000MOL0     O34912   3.748   8.587   9.160  1.4648  0.1051  0.6677
 1000MOL0     C34913   3.967   8.727   9.401 -0.3525  1.0034 -0.2054
 1000MOL0     C34914   4.091   8.786   9.414  0.1877  0.1052 -0.2139
 1000MOL0     N34915   4.633   9.375   9.332  0.0444  0.5896 -0.8330
 1000MOL0     N34916   4.626   9.420   9.217 -0.2766 -1.0723 -0.1798
 1000MOL0     C34917   4.276   8.582   8.515 -0.1239 -0.0837 -0.0248
 1000MOL0     C34918   4.176   8.484   8.481 -0.7013 -0.2091  0.1838
 1000MOL0     C34919   3.988   8.111   8.316  0.2234 -0.3075  0.1907
 1000MOL0     C34920   3.918   8.065   8.434 -0.2877  0.1258  0.0239
 1000MOL0     C34921   3.821   7.953   8.428 -0.1053 -1.3981 -0.2907
 1000MOL0     C34922   3.799   7.881   8.308  0.3395 -0.2398 -0.5428
 1000MOL0     O34923   3.693   7.796   8.286 -0.5993  0.1569  0.6774
 1000MOL0     C34924   3.572   7.822   8.360  0.2648 -0.2795  1.9022
 1000MOL0     C34925   3.458   7.748   8.287  0.0996 -0.1201 -0.4186
 1000MOL0     C34926   3.336   7.756   8.380  0.1557  0.0891  0.0254
 1000MOL0     C34927   3.255   7.622   8.383 -0.6692 -0.0692  0.3392
 1000MOL0     C34928   3.119   7.659   8.432 -0.4648  0.6448  0.2215
 1000MOL0     C34929   3.013   7.677   8.485  0.1103  0.9778  1.2580
 1000MOL0     C34930   3.863   7.934   8.192  0.3492  0.0170 -0.6682
 1000MOL0     C34931   3.955   8.043   8.193 -0.5513 -0.5980 -0.2287
 1000MOL0     C34932   4.025   8.078   8.062  0.2420 -0.4233 -0.5486
 1000MOL0     H34933   4.369   8.197   8.472  3.0106  1.3773 -2.6498
 1000MOL0     H34934   4.543   8.369   8.507 -0.0156  1.2423  3.2698
 1000MOL0     H34935   4.445   8.800   8.493  0.7284  0.9584  0.2490
 1000MOL0     H34936   4.452   8.765   8.670  1.8722  0.8390 -0.0388
 1000MOL0     H34937   4.719   8.773   8.539  3.1056  2.2005  2.0737
 1000MOL0     H34938   4.671   8.770   8.699 -3.0449 -0.7491  0.3916
 1000MOL0     H34939   4.539   9.008   8.573  0.6686  1.7201  0.4953
 1000MOL0     H34940   4.706   8.997   8.508  0.9387  2.7835  1.9055
 1000MOL0     H34941   4.643   9.005   8.805  1.2396 -0.1760  1.1054
 1000MOL0     H34942   4.800   8.994   8.735  0.1536  1.5019  0.9088
 1000MOL0     H34943   4.727   9.197   8.579  1.5751  0.3903  0.2161
 1000MOL0     H34944   4.594   9.214   8.687 -0.0428 -0.7064  2.5838
 1000MOL0     H34945   4.894   9.235   8.768  0.9112  1.2531  1.7788
 1000MOL0     H34946   4.792   9.375   8.748 -3.0787  0.6501  0.6529
 1000MOL0     H34947   4.839   9.305   8.990  1.0115 -0.5387 -0.3697
 1000MOL0     H34948   4.758   9.156   8.969  1.7172 -1.1895 -1.3771
 1000MOL0     H34949   4.607   9.417   8.931 -0.7132 -0.0033  0.0093
 1000MOL0     H34950   4.546   9.251   8.943  2.0233 -1.2710  1.2987
 1000MOL0     H34951   4.590   9.099   9.156  0.5649 -0.9977  1.3228
 1000MOL0     H34952   4.621   9.040   9.410 -0.9336  0.3931 -1.2676
 1000MOL0     H34953   4.671   9.171   9.520  2.1954 -1.2423 -1.3821
 1000MOL0     H34954   4.456   9.075   9.586 -1.5281 -2.2874 -1.0871
 1000MOL0     H34955   4.428   9.243   9.529  2.4997 -0.6080  3.3614
 1000MOL0     H34956   4.337   9.138   9.316 -0.9326  1.4032  0.9784
 1000MOL0     H34957   4.251   9.109   9.464 -0.6998 -2.0739  0.2410
 1000MOL0     H34958   4.357   8.868   9.470  3.8399  0.9077  0.9415
 1000MOL0     H34959   4.461   8.910   9.340 -0.1030 -0.0730 -0.4596
 1000MOL0     H34960   4.172   8.785   9.083  0.2410  2.8688  0.4431
 1000MOL0     H34961   3.950   8.704   9.060  3.4806  0.0026 -1.7495
 1000MOL0     H34962   3.521   8.604   9.190  0.7238 -0.4955 -0.5654
 1000MOL0     H34963   3.309   8.505   9.211  0.0558 -0.1848 -0.1628
 1000MOL0     H34964   3.153   8.331   9.246 -2.7102  0.0866 -1.2890
 1000MOL0     H34965   3.058   8.262   9.375  1.4195 -0.3771  0.0362
 1000MOL0     H34966   3.116   8.542   9.317  0.3139 -1.0725  0.3512
 1000MOL0     H34967   2.954   8.475   9.307  0.1628  2.0131 -0.4991
 1000MOL0     H34968   2.924   8.467   9.558  0.5106 -0.5508  0.9328
 1000MOL0     H34969   3.089   8.483   9.593 -2.0118 -3.2486  1.5721
 1000MOL0     H34970   2.892   8.693   9.466  0.9628 -1.7483 -1.6808
 1000MOL0     H34971   3.059   8.731   9.485  0.3876 -0.9410 -1.2556
 1000MOL0     H34972   2.969   8.819   9.681 -1.9468  0.4478  3.0381
 1000MOL0     H34973   2.998   8.650   9.743 -0.0544 -1.0875 -0.2546
 1000MOL0     H34974   2.771   8.599   9.679 -3.2226  1.7026 -3.4818
 1000MOL0     H34975   2.788   8.716   9.817  0.5368 -0.2411 -0.4904
 1000MOL0     H34976   2.688   8.774   9.535 -1.7285  1.2055  0.7183
 1000MOL0     H34977   2.736   8.894   9.638 -0.3361  0.3734  1.2519
 1000MOL0     H34978   2.557   8.800   9.808 -2.7912 -0.8606 -0.0117
 1000MOL0     H34979   2.495   8.879   9.676  0.0193  0.6180  1.2094
 1000MOL0     H34980   3.394   8.369   9.613 -0.7745 -1.6561 -0.6463
 1000MOL0     H34981   3.636   8.501   9.582 -0.4645  1.2219  0.1360
 1000MOL0     H34982   3.914   8.700   9.492 -2.3959  2.1134 -0.9964
 1000MOL0     H34983   4.129   8.807   9.513  0.1596  2.7912 -0.6830
 1000MOL0     H34984   4.252   8.687   8.525 -0.1100 -0.2733  2.7370
 1000MOL0     H34985   4.082   8.534   8.463  0.4059  2.4451  1.2877
 1000MOL0     H34986   3.937   8.109   8.531  1.2718  0.6029 -0.4659
 1000MOL0     H34987   3.766   7.936   8.520  2.7203  4.8943  3.2125
 1000MOL0     H34988   3.555   7.929   8.370 -0.3306 -0.5360  4.3013
 1000MOL0     H34989   3.592   7.791   8.463  1.0763 -1.2196  1.4739
 1000MOL0     H34990   3.483   7.642   8.278 -0.5063 -0.1986 -1.3497
 1000MOL0     H34991   3.448   7.780   8.183  0.8023 -3.1636 -1.5125
 1000MOL0     H34992   3.273   7.838   8.343  0.1050  0.2419  0.4429
 1000MOL0     H34993   3.365   7.776   8.483  1.1864 -2.0194  0.2005
 1000MOL0     H34994   3.256   7.579   8.282  0.2040  1.4522 -0.3398
 1000MOL0     H34995   3.303   7.555   8.455  0.7333  0.9422  0.3689
 1000MOL0     H34996   2.918   7.670   8.535 -0.8114 -5.0720 -0.4904
 1000MOL0     H34997   3.829   7.896   8.096 -0.8032  1.5212 -0.9094
 1000MOL0     H34998   4.126   8.037   8.061  0.7149  0.5212  1.8914
 1000MOL0     H34999   3.964   8.039   7.980 -0.8480  1.6977 -0.8300
 1000MOL0     H35000   4.025   8.187   8.051  1.7867 -0.4695 -1.2352
 1001MOL0     O35001   9.469   8.357   2.133 -0.0290  0.3020  0.8443
 1001MOL0     C35002   9.455   8.419   2.022  0.1039 -1.0244  0.7948
 1001MOL0     O35003   9.560   8.477   1.946  0.2292  1.0559  0.3521
 1001MOL0     C35004   9.689   8.448   1.995 -0.5357  0.0448 -0.2632
 1001MOL0     C35005   9.740   8.321   1.984  0.3589 -0.4870 -0.3158
 1001MOL0     C35006   9.872   8.297   2.023  0.0377 -0.4425  0.1682
 1001MOL0     C35007   9.947   8.395   2.094 -0.1439 -0.3398  0.3182
 1001MOL0     O35008  10.078   8.361   2.127 -0.5897 -0.0065  0.8048
 1001MOL0     C35009  10.128   8.421   2.246  0.3649  0.7642 -1.4215
 1001MOL0     C35010  10.206   8.540   2.224 -0.5652 -0.2132  0.3042
 1001MOL0     C35011  10.293   8.574   2.351 -0.0580  0.1312  0.1330
 1001MOL0     C35012  10.315   8.723   2.373 -0.0738 -0.4297  0.2723
 1001MOL0     C35013  10.425   8.731   2.477  0.8406  0.5335  0.7562
 1001MOL0     C35014  10.470   8.873   2.499 -0.8692  0.0214 -1.1527
 1001MOL0     C35015  10.586   8.873   2.602  1.0888 -0.7620 -0.1717
 1001MOL0     C35016  10.618   9.015   2.643 -0.6210  0.6209 -0.2122
 1001MOL0     N35017  10.704   9.018   2.764 -0.3221 -0.6709  0.4009
 1001MOL0     C35018  10.840   8.970   2.786  0.7627  0.8306 -0.8219
 1001MOL0     C35019  10.864   8.984   2.922  0.9260  0.2095 -0.1153
 1001MOL0     C35020  10.992   8.937   2.973 -0.7637  0.1077  0.1472
 1001MOL0     C35021  11.119   8.991   2.897 -0.7203  0.5199 -0.0575
 1001MOL0     C35022  11.244   8.905   2.947 -0.1484  0.0346  0.5258
 1001MOL0     C35023  11.356   8.971   2.876 -0.0521 -0.2161  0.4111
 1001MOL0     O35024  11.466   8.932   2.955  0.1868 -1.1475 -0.1298
 1001MOL0     C35025  11.594   8.971   2.923 -0.3101  0.7500  0.5845
 1001MOL0     C35026  11.696   8.940   3.013 -0.2661  0.4082  0.1799
 1001MOL0     C35027  11.831   8.975   2.984  1.1151  0.5452 -0.4165
 1001MOL0     C35028  11.859   9.047   2.870  0.4431  0.0019  0.0847
 1001MOL0     C35029  11.998   9.091   2.856 -0.8991 -1.5200 -0.4842
 1001MOL0     O35030  12.090   9.035   2.928 -0.3529  0.7943  0.7447
 1001MOL0     C35031  12.224   9.050   2.894 -0.2359  0.6470 -0.6937
 1001MOL0     C35032  12.310   9.099   2.993  0.0007  0.2023 -0.1545
 1001MOL0     C35033  12.443   9.126   2.966 -0.0761 -0.8363  1.3661
 1001MOL0     C35034  12.491   9.098   2.836 -0.1530 -0.5964  0.6089
 1001MOL0     O35035  12.616   9.127   2.799  0.3610  0.0673  0.1659
 1001MOL0     C35036  12.722   9.044   2.849 -0.1062 -0.6349 -0.4258
 1001MOL0     C35037  12.749   8.922   2.761 -0.5641 -0.1495  0.0952
 1001MOL0     C35038  12.788   8.968   2.619  0.4029 -0.0919 -0.6688
 1001MOL0     C35039  12.903   9.063   2.608 -0.1869 -0.9846 -0.3278
 1001MOL0     C35040  13.042   8.992   2.634  0.0078  0.3535 -0.5055
 1001MOL0     C35041  13.155   9.098   2.642 -0.3486 -0.3291  0.1418
 1001MOL0     C35042  13.288   9.032   2.632 -0.0209  0.2739 -0.4284
 1001MOL0     C35043  13.391   9.136   2.593  0.0497 -0.0568 -0.1344
 1001MOL0    Cl35044  13.392   9.275   2.703  0.0395  0.1354 -0.2647
 1001MOL0     C35045  12.409   9.055   2.728 -0.9810  0.4623 -0.4582
 1001MOL0     C35046  12.277   9.022   2.765  0.4223  0.2164  0.0433
 1001MOL0     O35047  12.014   9.164   2.757  0.2579 -0.7328  0.5348
 1001MOL0     C35048  11.752   9.086   2.787  0.3225  0.5559  0.6930
 1001MOL0     C35049  11.620   9.049   2.812  0.1204  0.1284  0.3199
 1001MOL0     N35050  10.753   9.046   2.975  0.0031 -1.4802 -0.0237
 1001MOL0     N35051  10.660   9.069   2.881 -0.5516  0.7539 -0.5496
 1001MOL0     C35052   9.883   8.525   2.116 -0.4871 -0.1926 -0.4217
 1001MOL0     C35053   9.759   8.547   2.070  0.2819  0.5267  0.0278
 1001MOL0     C35054   9.312   8.459   1.977  0.4511  0.1117  0.8128
 1001MOL0     C35055   9.207   8.428   2.069  0.1428 -0.0102 -0.3097
 1001MOL0     C35056   9.074   8.457   2.026  0.1377  0.5176  0.1713
 1001MOL0     C35057   9.042   8.522   1.909 -0.0044  0.0544  0.1667
 1001MOL0     O35058   8.913   8.553   1.870 -0.4893 -0.3519  0.7070
 1001MOL0     C35059   8.801   8.520   1.962  0.0662  0.7445 -0.0958
 1001MOL0     C35060   8.776   8.616   2.095 -0.8894  0.1473  0.0330
 1001MOL0     C35061   8.785   8.772   2.064  0.5335  0.1943  0.1351
 1001MOL0     C35062   8.711   8.865   2.163 -0.1327  0.6023 -0.2049
 1001MOL0     C35063   8.778   8.854   2.291  0.3869 -0.5989  0.0606
 1001MOL0     C35064   8.843   8.852   2.399  0.9989  0.2456  0.2246
 1001MOL0     C35065   9.142   8.540   1.819 -0.2136 -0.3596 -0.0919
 1001MOL0     C35066   9.272   8.513   1.852  0.4406  0.0055  0.7079
 1001MOL0     C35067   9.365   8.495   1.732 -0.4457  0.2311  0.3029
 1001MOL0     H35068   9.686   8.239   1.940  0.6373 -2.3307  2.5186
 1001MOL0     H35069   9.903   8.193   2.019 -0.5913 -0.7312  1.9037
 1001MOL0     H35070  10.033   8.441   2.296  0.5655  2.0340 -1.5118
 1001MOL0     H35071  10.191   8.350   2.301 -1.9695  0.2606  0.7994
 1001MOL0     H35072  10.137   8.619   2.194  0.0802 -0.3950 -1.8994
 1001MOL0     H35073  10.277   8.527   2.141 -0.5877 -0.9146  0.3925
 1001MOL0     H35074  10.387   8.519   2.350  0.2461  0.5747  1.3291
 1001MOL0     H35075  10.235   8.548   2.440  1.4233  0.7925  1.3386
 1001MOL0     H35076  10.337   8.761   2.273 -1.8196 -0.1174 -0.0206
 1001MOL0     H35077  10.227   8.779   2.407  1.8731  3.0062  0.1458
 1001MOL0     H35078  10.374   8.692   2.566  0.3917 -2.4899 -0.6995
 1001MOL0     H35079  10.514   8.669   2.458  0.9309  0.7165  0.5803
 1001MOL0     H35080  10.513   8.910   2.406  0.7402  1.2398  0.0287
 1001MOL0     H35081  10.386   8.937   2.528  0.1143  1.2199 -0.8718
 1001MOL0     H35082  10.668   8.818   2.555 -0.1185  0.0235 -3.4535
 1001MOL0     H35083  10.550   8.818   2.690 -0.2198 -0.7790 -0.6847
 1001MOL0     H35084  10.671   9.064   2.561  0.6292 -1.7652 -0.9107
 1001MOL0     H35085  10.524   9.068   2.660  1.0906  4.2858 -1.2896
 1001MOL0     H35086  10.895   8.911   2.714  0.0609 -0.8798 -0.0167
 1001MOL0     H35087  11.011   8.951   3.080 -1.4344 -2.1345  0.6054
 1001MOL0     H35088  10.988   8.828   2.965  2.2536  0.0403 -2.2756
 1001MOL0     H35089  11.112   8.995   2.788 -4.9887  2.2072  0.1037
 1001MOL0     H35090  11.139   9.092   2.935 -1.7365  0.2434  1.3310
 1001MOL0     H35091  11.227   8.804   2.907  0.7634 -0.3508  1.0866
 1001MOL0     H35092  11.266   8.910   3.054  0.2914  1.7605  0.3783
 1001MOL0     H35093  11.359   9.079   2.859 -0.9818 -0.4182 -1.2561
 1001MOL0     H35094  11.370   8.919   2.781  0.3526  0.2896  0.1868
 1001MOL0     H35095  11.660   8.882   3.098  0.4044  2.7667  2.1927
 1001MOL0     H35096  11.910   8.956   3.056  1.4020 -1.6334 -1.2292
 1001MOL0     H35097  12.282   9.122   3.095 -0.3802 -1.3549  0.1260
 1001MOL0     H35098  12.507   9.173   3.040 -0.9210  0.5274  1.2586
 1001MOL0     H35099  12.812   9.107   2.858 -1.3329  1.6471 -2.7212
 1001MOL0     H35100  12.687   9.009   2.947 -3.8237  0.3037 -1.2824
 1001MOL0     H35101  12.831   8.857   2.792 -1.3873 -0.5038  1.5758
 1001MOL0     H35102  12.662   8.858   2.772  0.1054 -0.9994  0.6002
 1001MOL0     H35103  12.815   8.878   2.563  3.6555 -1.2624  2.4214
 1001MOL0     H35104  12.701   9.014   2.571 -0.0919  1.0075  1.1628
 1001MOL0     H35105  12.885   9.155   2.663 -0.8121  0.9114 -3.4233
 1001MOL0     H35106  12.899   9.102   2.505 -0.6293  1.3185  0.5087
 1001MOL0     H35107  13.060   8.926   2.548  1.8573  0.5692 -0.3277
 1001MOL0     H35108  13.043   8.928   2.722 -0.5941 -2.0169 -2.1091
 1001MOL0     H35109  13.154   9.177   2.567 -3.2946 -1.8643 -1.6248
 1001MOL0     H35110  13.147   9.146   2.740  0.9208 -2.3116  1.2844
 1001MOL0     H35111  13.282   8.949   2.560  3.0485 -2.2166  1.8974
 1001MOL0     H35112  13.315   8.981   2.726 -0.4163 -0.4381 -0.6931
 1001MOL0     H35113  13.487   9.085   2.608 -0.4781 -1.2114 -0.6420
 1001MOL0     H35114  13.378   9.159   2.487 -2.3091  0.1937  0.1697
 1001MOL0     H35115  12.452   9.037   2.630  0.4970  2.6270 -0.2896
 1001MOL0     H35116  12.212   8.982   2.687  0.2902  1.3381 -0.4440
 1001MOL0     H35117  11.764   9.147   2.698  1.1013  1.2452  1.2500
 1001MOL0     H35118  11.542   9.079   2.743 -0.2879  0.4320  0.9082
 1001MOL0     H35119   9.941   8.607   2.156  1.1211 -0.2873 -2.4007
 1001MOL0     H35120   9.715   8.641   2.103  0.8969 -0.0680  2.8414
 1001MOL0     H35121   9.203   8.379   2.166  1.9304 -2.1952 -1.2383
 1001MOL0     H35122   8.991   8.442   2.093  0.2815 -0.1681  0.2041
 1001MOL0     H35123   8.802   8.416   1.994  2.2510  1.2092  1.5677
 1001MOL0     H35124   8.708   8.518   1.904 -1.6152  0.0028  2.4795
 1001MOL0     H35125   8.855   8.608   2.170  0.9576 -0.7517 -1.9166
 1001MOL0     H35126   8.686   8.576   2.142  0.3962 -1.9100  0.8499
 1001MOL0     H35127   8.731   8.781   1.969  1.4685  1.9283 -0.2562
 1001MOL0     H35128   8.886   8.806   2.038  0.4913 -0.5344 -1.0488
 1001MOL0     H35129   8.720   8.968   2.129 -0.3643  0.9015  0.6122
 1001MOL0     H35130   8.604   8.846   2.174  0.2203 -0.6229  1.5086
 1001MOL0     H35131   8.909   8.848   2.483  3.9389  0.0206 -1.9516
 1001MOL0     H35132   9.123   8.586   1.723  2.9933 -1.5333 -1.4179
 1001MOL0     H35133   9.301   8.505   1.643 -1.0039 -1.5910  0.4593
 1001MOL0     H35134   9.453   8.560   1.734 -1.0388  1.0671  2.6498
 1001MOL0     H35135   9.411   8.396   1.724  3.7790  1.6514  3.4668
 1002MOL0     O35136   3.415   1.882   8.058  0.0343 -0.2326 -0.1889
 1002MOL0     C35137   3.359   1.940   7.961 -0.0656  0.0300  0.1827
 1002MOL0     O35138   3.414   1.959   7.840 -0.2891 -0.3789 -0.2664
 1002MOL0     C35139   3.550   1.970   7.831 -0.0930  0.0128 -0.3739
 1002MOL0     C35140   3.619   1.854   7.831 -1.0918  0.0291  0.2897
 1002MOL0     C35141   3.755   1.849   7.806  0.3670 -0.2132  0.1486
 1002MOL0     C35142   3.823   1.963   7.760 -0.0190  0.3575  0.0080
 1002MOL0     O35143   3.963   1.959   7.752 -0.2086 -0.6032 -0.8246
 1002MOL0     C35144   4.021   2.081   7.707 -0.3563  0.1808 -0.6235
 1002MOL0     C35145   4.174   2.081   7.693  0.3530 -0.1243 -0.3483
 1002MOL0     C35146   4.230   1.972   7.594 -0.5753  0.4100  0.4829
 1002MOL0     C35147   4.389   1.969   7.595  0.3832  0.0872  0.6516
 1002MOL0     C35148   4.445   2.073   7.498  0.9929  0.5501 -0.3590
 1002MOL0     C35149   4.598   2.081   7.514 -0.5136 -0.0627  0.1476
 1002MOL0     C35150   4.667   2.199   7.443  0.0284 -0.1787  0.0094
 1002MOL0     C35151   4.823   2.204   7.481  0.3182  0.6924  0.3132
 1002MOL0     N35152   4.876   2.073   7.528  0.4146 -0.2230  0.0026
 1002MOL0     C35153   4.914   1.966   7.457  0.3921  0.3714 -0.5634
 1002MOL0     C35154   4.973   1.876   7.539  0.0714 -0.3475  0.0274
 1002MOL0     C35155   5.045   1.743   7.500 -0.0934 -0.8827 -0.0248
 1002MOL0     C35156   5.170   1.791   7.427 -0.0553 -0.2633  0.0374
 1002MOL0     C35157   5.272   1.844   7.530 -0.7171  0.0446 -0.7376
 1002MOL0     C35158   5.407   1.879   7.466  1.1818 -0.4822 -0.3110
 1002MOL0     O35159   5.510   1.782   7.476  0.3546  0.6037  0.8217
 1002MOL0     C35160   5.641   1.830   7.475 -0.1287 -0.0422  0.2692
 1002MOL0     C35161   5.680   1.968   7.450 -0.2237  0.0960 -0.4885
 1002MOL0     C35162   5.808   2.008   7.454 -0.2024 -0.2275 -0.8592
 1002MOL0     C35163   5.905   1.918   7.494 -0.4863 -0.8270 -0.1973
 1002MOL0     C35164   6.049   1.967   7.522  0.7832  0.3368  0.0481
 1002MOL0     O35165   6.087   2.089   7.485 -0.0970 -0.0322  0.2101
 1002MOL0     C35166   6.209   2.139   7.495 -0.1456  1.1776 -0.7836
 1002MOL0     C35167   6.259   2.219   7.399 -0.2062 -0.8885  0.6296
 1002MOL0     C35168   6.393   2.264   7.397 -0.1065  0.3870  0.1111
 1002MOL0     C35169   6.482   2.222   7.492  0.1995  1.1182  0.5190
 1002MOL0     O35170   6.608   2.269   7.479 -0.0355 -0.2501  0.6824
 1002MOL0     C35171   6.703   2.242   7.585 -0.3998 -0.0761  1.0648
 1002MOL0     C35172   6.834   2.312   7.550 -0.2364  0.3800 -0.1027
 1002MOL0     C35173   6.898   2.243   7.420  0.2023  0.2154 -0.4824
 1002MOL0     C35174   7.022   2.317   7.362  0.4471 -0.0730  0.2316
 1002MOL0     C35175   7.043   2.315   7.215 -0.1197  0.2987 -0.5184
 1002MOL0     C35176   7.048   2.175   7.155 -0.6339 -0.4446 -0.5716
 1002MOL0     C35177   7.075   2.190   7.004  0.5951  0.2830  0.1026
 1002MOL0     C35178   7.061   2.057   6.924 -0.2656  0.9028  0.6708
 1002MOL0    Cl35179   6.899   1.987   6.929 -0.2564  0.2721  0.2651
 1002MOL0     C35180   6.438   2.139   7.591 -0.0147  0.2226  0.2659
 1002MOL0     C35181   6.305   2.104   7.595  0.8795  1.5515 -0.6136
 1002MOL0     O35182   6.127   1.884   7.571  0.4868 -0.4054  0.2447
 1002MOL0     C35183   5.871   1.779   7.520  0.7546 -0.2104  0.2788
 1002MOL0     C35184   5.741   1.737   7.510 -0.1640  0.2371 -0.0885
 1002MOL0     N35185   4.969   1.939   7.660 -0.0099 -0.2490  0.1058
 1002MOL0     N35186   4.918   2.051   7.657  0.2078 -0.2899  0.1154
 1002MOL0     C35187   3.753   2.085   7.755 -0.4162 -0.4876 -0.3776
 1002MOL0     C35188   3.615   2.087   7.789  0.3944  0.1180 -1.0801
 1002MOL0     C35189   3.216   1.977   7.963 -0.9856  0.6726 -0.4866
 1002MOL0     C35190   3.164   2.079   7.878 -0.3375 -0.6640 -0.5609
 1002MOL0     C35191   3.024   2.095   7.870 -0.3473 -0.5140 -0.4331
 1002MOL0     C35192   2.926   2.016   7.946 -0.1798  0.4069  1.1157
 1002MOL0     O35193   2.791   2.021   7.914 -0.1293  0.4462  1.1651
 1002MOL0     C35194   2.716   1.917   7.960 -0.1047  0.7051 -0.8535
 1002MOL0     C35195   2.758   1.780   7.899 -0.0558  0.6904 -0.3234
 1002MOL0     C35196   2.763   1.785   7.742  0.4998  0.1641 -0.5690
 1002MOL0     C35197   2.791   1.647   7.679  0.0249 -0.0310  0.1158
 1002MOL0     C35198   2.687   1.545   7.706 -0.1807 -0.5681 -0.1919
 1002MOL0     C35199   2.609   1.456   7.707 -0.2460 -0.3138 -0.4356
 1002MOL0     C35200   2.988   1.932   8.040 -0.5518 -0.8453  0.2724
 1002MOL0     C35201   3.125   1.917   8.057  0.3667 -0.1073 -0.5873
 1002MOL0     C35202   3.161   1.812   8.162  0.3964 -0.1758  0.1432
 1002MOL0     H35203   3.562   1.767   7.861  0.9039 -1.3181  0.3949
 1002MOL0     H35204   3.802   1.751   7.806 -0.8564 -0.8401 -1.2353
 1002MOL0     H35205   3.978   2.112   7.611 -2.7256 -0.2494  0.2251
 1002MOL0     H35206   4.005   2.162   7.779 -0.3901 -0.8477  0.5584
 1002MOL0     H35207   4.217   2.065   7.793  2.6494 -0.4247 -1.3369
 1002MOL0     H35208   4.206   2.182   7.663  2.2030 -1.0076 -1.5237
 1002MOL0     H35209   4.197   1.996   7.492  0.1343 -1.2338 -0.1607
 1002MOL0     H35210   4.184   1.877   7.623  0.6246 -0.6498 -0.9717
 1002MOL0     H35211   4.417   1.979   7.700 -1.4421 -0.2359  1.2058
 1002MOL0     H35212   4.417   1.871   7.555  1.0989  1.4748 -2.5624
 1002MOL0     H35213   4.411   2.049   7.397 -0.0070 -0.1573  0.1245
 1002MOL0     H35214   4.405   2.166   7.540 -2.3979 -0.4335 -1.1211
 1002MOL0     H35215   4.628   2.086   7.620 -1.0623 -0.3438  0.3222
 1002MOL0     H35216   4.642   1.990   7.471 -2.8291 -1.0563 -0.2715
 1002MOL0     H35217   4.623   2.297   7.468 -0.1791  0.0227 -1.0871
 1002MOL0     H35218   4.658   2.184   7.335  1.9513 -1.2414 -0.0463
 1002MOL0     H35219   4.894   2.248   7.410 -0.4367  1.5045  0.0341
 1002MOL0     H35220   4.832   2.269   7.569 -0.3400  2.0288 -0.5733
 1002MOL0     H35221   4.897   1.942   7.353 -1.3350 -1.7632  0.1213
 1002MOL0     H35222   5.073   1.695   7.594 -2.8216  0.6249  1.6911
 1002MOL0     H35223   4.984   1.685   7.430 -0.3152 -1.9627  1.0288
 1002MOL0     H35224   5.215   1.709   7.370 -0.3581 -0.6523  0.3534
 1002MOL0     H35225   5.147   1.876   7.363  2.5525  1.2969  1.0192
 1002MOL0     H35226   5.288   1.765   7.604  0.1681  1.3899  0.5604
 1002MOL0     H35227   5.236   1.926   7.593 -1.1028  0.1213 -1.0518
 1002MOL0     H35228   5.435   1.970   7.520 -1.4098 -0.7413  1.7277
 1002MOL0     H35229   5.384   1.907   7.363 -2.1906 -0.6616  0.2605
 1002MOL0     H35230   5.611   2.040   7.408 -0.4784 -0.6667 -1.4096
 1002MOL0     H35231   5.832   2.113   7.448 -0.4474 -0.1450 -0.3798
 1002MOL0     H35232   6.196   2.256   7.319  1.5741  0.5885 -0.1499
 1002MOL0     H35233   6.419   2.336   7.320  0.2028 -0.7968 -0.9280
 1002MOL0     H35234   6.667   2.273   7.683 -0.2610 -1.9896  1.7591
 1002MOL0     H35235   6.727   2.136   7.592 -0.4483 -0.0236  2.2335
 1002MOL0     H35236   6.809   2.411   7.511  2.2218  1.2278  0.2993
 1002MOL0     H35237   6.902   2.306   7.636 -1.5716 -0.3340  0.9508
 1002MOL0     H35238   6.931   2.141   7.442 -1.2791 -0.0345  0.7625
 1002MOL0     H35239   6.812   2.250   7.352  0.3502  0.6766 -0.6251
 1002MOL0     H35240   7.114   2.268   7.396  1.6596  2.1837  0.4374
 1002MOL0     H35241   7.031   2.423   7.386 -2.0382  0.4798 -0.9773
 1002MOL0     H35242   7.142   2.357   7.196  0.5391 -2.1839 -3.2118
 1002MOL0     H35243   6.964   2.376   7.170  0.3414  1.5669  0.3103
 1002MOL0     H35244   7.127   2.117   7.202 -1.6263 -0.2315  1.4506
 1002MOL0     H35245   6.959   2.112   7.164  0.6466 -2.5991 -1.9678
 1002MOL0     H35246   7.169   2.242   6.984  0.7061 -0.4233 -1.4169
 1002MOL0     H35247   6.994   2.255   6.970  1.3809  4.2530  4.8295
 1002MOL0     H35248   7.091   2.078   6.821 -0.4623  3.3323  1.0532
 1002MOL0     H35249   7.123   1.984   6.976 -1.7742  0.7652  2.3871
 1002MOL0     H35250   6.501   2.091   7.665 -0.0801  1.5490  1.2183
 1002MOL0     H35251   6.273   2.033   7.671 -1.1993  1.1580 -1.7916
 1002MOL0     H35252   5.951   1.715   7.556 -0.6064 -0.7167  2.5565
 1002MOL0     H35253   5.705   1.635   7.511 -1.9864  0.8589  0.6694
 1002MOL0     H35254   3.800   2.180   7.729  0.5543 -0.5873  0.9247
 1002MOL0     H35255   3.564   2.181   7.774 -1.2836  0.0431  3.0786
 1002MOL0     H35256   3.220   2.140   7.808  1.1426  2.4834  3.0044
 1002MOL0     H35257   2.999   2.172   7.798  0.8280  1.6824  1.3790
 1002MOL0     H35258   2.616   1.949   7.930 -0.6037  0.9079  0.8804
 1002MOL0     H35259   2.713   1.905   8.069  0.2319  0.1562 -0.9013
 1002MOL0     H35260   2.681   1.707   7.923 -0.4935  1.0763 -0.5453
 1002MOL0     H35261   2.850   1.742   7.945 -0.9209 -0.8228  0.2130
 1002MOL0     H35262   2.840   1.855   7.710  1.9359 -1.0013  0.2296
 1002MOL0     H35263   2.670   1.828   7.703 -0.1207 -0.6779 -0.0511
 1002MOL0     H35264   2.807   1.654   7.571 -0.2540 -0.3518  0.0529
 1002MOL0     H35265   2.887   1.618   7.722 -0.2147 -1.9521 -0.5585
 1002MOL0     H35266   2.540   1.375   7.714 -0.9324  0.2766 -0.3201
 1002MOL0     H35267   2.921   1.877   8.105 -2.8123  1.5618  0.1506
 1002MOL0     H35268   3.244   1.840   8.228  0.7267 -0.6732 -0.0483
 1002MOL0     H35269   3.077   1.790   8.228 -0.8710  2.9649 -0.2645
 1002MOL0     H35270   3.202   1.722   8.115  0.8615  0.8007 -1.3976
 1003MOL0     O35271   7.042   3.509   0.558  0.9184 -0.1630 -0.3575
 1003MOL0     C35272   7.012   3.622   0.525  0.3876 -0.8453 -0.2464
 1003MOL0     O35273   7.100   3.714   0.486  0.4697  0.1427  0.0622
 1003MOL0     C35274   7.230   3.690   0.453  0.2970  0.4818 -0.6492
 1003MOL0     C35275   7.294   3.565   0.422 -0.3984 -0.2282  0.3120
 1003MOL0     C35276   7.420   3.569   0.371  0.3632 -0.2394  0.6145
 1003MOL0     C35277   7.497   3.682   0.368 -0.7043 -1.5491  0.0365
 1003MOL0     O35278   7.630   3.679   0.343  0.0569 -0.1650  0.1064
 1003MOL0     C35279   7.659   3.628   0.207  0.6338 -0.1949 -0.2355
 1003MOL0     C35280   7.778   3.704   0.147 -0.3569  0.7244  0.3447
 1003MOL0     C35281   7.908   3.669   0.217 -0.4437  0.0495 -0.0478
 1003MOL0     C35282   7.937   3.528   0.168  0.0887  0.0229 -0.1340
 1003MOL0     C35283   8.084   3.477   0.223  0.4906 -0.8190 -0.0595
 1003MOL0     C35284   8.109   3.334   0.173  0.3941  0.1206  0.0261
 1003MOL0     C35285   8.232   3.261   0.236 -0.3416  1.6028 -0.4442
 1003MOL0     C35286   8.227   3.222   0.381 -0.2985 -0.6414 -0.2933
 1003MOL0     N35287   8.333   3.128   0.417  0.1665 -0.3367 -0.3211
 1003MOL0     C35288   8.370   3.014   0.350 -0.5296 -0.5013 -0.7518
 1003MOL0     C35289   8.494   2.989   0.401  0.0824 -0.2896  0.3904
 1003MOL0     C35290   8.576   2.866   0.370  0.1477 -0.1139  0.7286
 1003MOL0     C35291   8.662   2.887   0.250 -0.0083  0.0366  0.3301
 1003MOL0     C35292   8.769   2.995   0.261 -0.3379 -0.0830  0.8479
 1003MOL0     C35293   8.865   2.992   0.380 -0.3257  0.2934  0.0785
 1003MOL0     O35294   8.950   3.117   0.347 -0.7420 -0.5702 -0.8723
 1003MOL0     C35295   9.080   3.083   0.335 -1.7393  0.2353  0.3298
 1003MOL0     C35296   9.133   3.012   0.224  0.0056  0.0783 -0.6536
 1003MOL0     C35297   9.270   2.993   0.224  0.3042 -0.5672  0.6267
 1003MOL0     C35298   9.353   3.016   0.334  0.1086 -0.9355 -0.3985
 1003MOL0     C35299   9.507   3.012   0.317  0.2693  0.3116  0.2736
 1003MOL0     O35300   9.571   3.039   0.436 -0.0641  0.5264 -0.2374
 1003MOL0     C35301   9.703   3.024   0.442 -0.2341 -0.2915  0.1230
 1003MOL0     C35302   9.744   2.913   0.505  0.2995  0.0759 -0.3664
 1003MOL0     C35303   9.878   2.880   0.508 -0.2958  0.2916 -0.2784
 1003MOL0     C35304   9.969   2.969   0.454 -0.3530 -0.1409  0.4124
 1003MOL0     O35305  10.096   2.936   0.470 -0.4707 -0.8171 -0.7558
 1003MOL0     C35306  10.194   2.992   0.380  0.4861 -0.5473 -0.1877
 1003MOL0     C35307  10.327   2.924   0.409  0.3304  0.3808 -0.5850
 1003MOL0     C35308  10.437   2.968   0.315  0.1769 -0.6331 -0.1765
 1003MOL0     C35309  10.573   2.937   0.368 -0.4084  0.2408 -0.1749
 1003MOL0     C35310  10.685   3.003   0.280 -0.2195 -0.0035  0.3026
 1003MOL0     C35311  10.814   2.981   0.356 -0.7018 -0.3873 -0.8842
 1003MOL0     C35312  10.922   3.059   0.297 -0.2829 -0.1766  0.1847
 1003MOL0     C35313  11.059   3.019   0.363  0.6024  0.2520 -0.5170
 1003MOL0    Cl35314  11.193   3.100   0.274 -0.0204  0.7330  0.0022
 1003MOL0     C35315   9.923   3.086   0.397  0.1406 -0.6942  0.1275
 1003MOL0     C35316   9.791   3.114   0.389  0.0018 -0.0816 -0.0319
 1003MOL0     O35317   9.562   2.960   0.223  0.2055 -0.5572 -0.2204
 1003MOL0     C35318   9.299   3.077   0.450 -0.9977  0.5823  0.5415
 1003MOL0     C35319   9.161   3.109   0.449 -0.4491 -0.0476 -0.4401
 1003MOL0     N35320   8.528   3.079   0.498 -0.0191  0.3760  0.1498
 1003MOL0     N35321   8.430   3.164   0.504 -0.6052 -0.1027 -0.9230
 1003MOL0     C35322   7.437   3.802   0.412  0.3928  0.8928 -0.5632
 1003MOL0     C35323   7.311   3.798   0.461  0.3483 -0.4496  0.0486
 1003MOL0     C35324   6.867   3.653   0.519  0.1236  0.1054  0.3497
 1003MOL0     C35325   6.825   3.762   0.439 -0.4318  0.9808 -0.1802
 1003MOL0     C35326   6.693   3.791   0.407 -0.4879 -0.4543  0.1846
 1003MOL0     C35327   6.590   3.719   0.456  0.5081 -0.1881  0.2737
 1003MOL0     O35328   6.461   3.746   0.424  0.0162 -0.2765  0.3908
 1003MOL0     C35329   6.435   3.866   0.344  0.3781 -0.2269 -0.2730
 1003MOL0     C35330   6.285   3.903   0.346  0.3532 -0.3859 -0.3393
 1003MOL0     C35331   6.211   3.816   0.243  0.0072  0.8184 -0.5926
 1003MOL0     C35332   6.153   3.897   0.126  0.3736 -0.4902  0.9269
 1003MOL0     C35333   6.057   4.003   0.164  0.1878 -0.0937 -0.4182
 1003MOL0     C35334   5.971   4.084   0.197 -0.0277 -0.4621 -0.5041
 1003MOL0     C35335   6.626   3.618   0.542 -0.1342  0.6867  0.9124
 1003MOL0     C35336   6.756   3.589   0.588 -0.5705 -0.3380 -0.1947
 1003MOL0     C35337   6.772   3.475   0.681  0.4308  0.1993 -0.2363
 1003MOL0     H35338   7.237   3.473   0.421 -1.4548  0.3770  2.2639
 1003MOL0     H35339   7.480   3.483   0.341  1.4595  0.8407 -0.4371
 1003MOL0     H35340   7.684   3.524   0.228 -1.8658 -0.4836  1.7835
 1003MOL0     H35341   7.573   3.629   0.140 -0.6707  1.7167  1.3111
 1003MOL0     H35342   7.766   3.811   0.164  2.4366  0.8323  2.3546
 1003MOL0     H35343   7.791   3.695   0.039  1.4941  3.3036  0.2652
 1003MOL0     H35344   7.890   3.664   0.324  1.1278  1.0424  0.2926
 1003MOL0     H35345   7.984   3.746   0.200  2.7737 -2.7356  0.7141
 1003MOL0     H35346   7.871   3.451   0.209 -0.1642 -0.7411 -1.8656
 1003MOL0     H35347   7.917   3.509   0.062 -0.0575  1.7260 -0.4282
 1003MOL0     H35348   8.163   3.544   0.185 -0.4126  0.6241  0.5210
 1003MOL0     H35349   8.078   3.491   0.331 -1.2788  0.4161 -0.2667
 1003MOL0     H35350   8.019   3.271   0.185 -1.9352  2.8032 -1.9974
 1003MOL0     H35351   8.127   3.340   0.065 -1.4851  1.5498 -0.2567
 1003MOL0     H35352   8.315   3.332   0.228  1.4133 -0.2992  0.0779
 1003MOL0     H35353   8.241   3.168   0.180  1.3284 -0.0442  2.3732
 1003MOL0     H35354   8.236   3.310   0.445  0.5887 -0.9060 -0.0454
 1003MOL0     H35355   8.131   3.171   0.395 -0.9592  0.8002  0.6430
 1003MOL0     H35356   8.314   2.966   0.270 -1.2222  2.0432 -1.8934
 1003MOL0     H35357   8.639   2.828   0.451  0.4157 -0.1925  0.4850
 1003MOL0     H35358   8.507   2.783   0.353 -0.2005 -0.3875  3.1208
 1003MOL0     H35359   8.702   2.787   0.229 -1.1934 -0.0702 -1.7402
 1003MOL0     H35360   8.597   2.912   0.165  0.6804 -1.9283 -0.8476
 1003MOL0     H35361   8.716   3.090   0.269 -0.8344 -0.3873  1.2791
 1003MOL0     H35362   8.823   2.989   0.167  0.1562 -1.5627  1.1873
 1003MOL0     H35363   8.921   2.897   0.386 -2.4924 -1.1165 -0.8732
 1003MOL0     H35364   8.811   2.996   0.475  2.7280 -3.1339  2.2769
 1003MOL0     H35365   9.062   2.980   0.149  1.1743  0.7777 -2.0940
 1003MOL0     H35366   9.320   2.951   0.137 -1.2086 -1.2566  0.0519
 1003MOL0     H35367   9.670   2.853   0.556  0.7896  2.0451  2.9778
 1003MOL0     H35368   9.918   2.795   0.563  1.5816  0.9589 -0.5629
 1003MOL0     H35369  10.173   2.969   0.275  1.5368 -2.0086 -0.1055
 1003MOL0     H35370  10.211   3.100   0.390 -2.0180 -0.0558 -0.6096
 1003MOL0     H35371  10.367   2.940   0.509  1.9281  0.8602 -1.2548
 1003MOL0     H35372  10.317   2.815   0.412  3.1157  0.0615  2.5107
 1003MOL0     H35373  10.437   2.917   0.219  3.0981 -1.7468  0.3041
 1003MOL0     H35374  10.432   3.077   0.307 -0.8280 -0.6494  0.0718
 1003MOL0     H35375  10.584   2.829   0.374  0.4230  0.4179  2.5772
 1003MOL0     H35376  10.582   2.979   0.468  1.4193  0.5549 -0.4465
 1003MOL0     H35377  10.669   3.110   0.264  1.4804  0.4362  1.3317
 1003MOL0     H35378  10.690   2.948   0.185  0.4419 -0.2652  0.4820
 1003MOL0     H35379  10.804   3.010   0.461  3.7840 -0.6509 -0.1631
 1003MOL0     H35380  10.846   2.877   0.349 -1.0047 -0.5141 -0.4277
 1003MOL0     H35381  10.905   3.167   0.291 -0.0793 -0.0891  0.9800
 1003MOL0     H35382  10.938   3.027   0.194 -0.3311  0.8801 -0.1645
 1003MOL0     H35383  11.056   3.041   0.470 -0.2175 -0.4065 -0.3918
 1003MOL0     H35384  11.073   2.912   0.345 -3.9030  0.0007 -4.3582
 1003MOL0     H35385   9.988   3.165   0.362  1.3344 -1.9154 -0.4921
 1003MOL0     H35386   9.752   3.210   0.357 -0.9158  0.6145  2.8688
 1003MOL0     H35387   9.360   3.088   0.539 -1.6334 -4.1401  1.8816
 1003MOL0     H35388   9.122   3.155   0.540  2.3579  3.3206 -0.6959
 1003MOL0     H35389   7.496   3.892   0.404 -0.9314  1.6868 -2.0149
 1003MOL0     H35390   7.257   3.887   0.491  0.3975  0.1578 -1.5819
 1003MOL0     H35391   6.904   3.833   0.419  0.5483  1.1001  3.4522
 1003MOL0     H35392   6.687   3.869   0.332  1.7650 -0.5660 -0.1824
 1003MOL0     H35393   6.473   3.853   0.242 -1.1729 -0.4276 -0.8643
 1003MOL0     H35394   6.490   3.951   0.384 -2.2691  0.9927  1.0500
 1003MOL0     H35395   6.284   4.009   0.322  0.8322 -0.1719  0.5237
 1003MOL0     H35396   6.232   3.901   0.442  0.4024 -2.4808 -0.3105
 1003MOL0     H35397   6.126   3.781   0.302  0.2849  1.1523  0.0150
 1003MOL0     H35398   6.271   3.731   0.209  2.1355  2.4504 -1.1551
 1003MOL0     H35399   6.232   3.945   0.068  0.2692  1.4958  2.3458
 1003MOL0     H35400   6.094   3.833   0.060 -1.3516  2.2410 -0.3368
 1003MOL0     H35401   5.912   4.169   0.223 -0.0487 -0.2482 -1.2289
 1003MOL0     H35402   6.538   3.572   0.584 -1.5148  0.6757 -1.7517
 1003MOL0     H35403   6.774   3.375   0.636  1.5765 -0.5369  1.3388
 1003MOL0     H35404   6.871   3.483   0.728 -0.0732  1.8047  0.6580
 1003MOL0     H35405   6.697   3.481   0.761  0.5898  0.9176 -0.1313
 1004MOL0     O35406   9.655   5.649   8.563 -0.3677 -0.3832  0.1532
 1004MOL0     C35407   9.558   5.723   8.567  0.4444 -0.2157  0.6572
 1004MOL0     O35408   9.562   5.853   8.526 -0.0431 -0.8324 -0.0877
 1004MOL0     C35409   9.669   5.898   8.445 -0.0097 -0.4096  0.0192
 1004MOL0     C35410   9.701   5.847   8.316 -0.1372  0.0035 -0.4064
 1004MOL0     C35411   9.816   5.896   8.252  0.0308 -0.4715 -0.6261
 1004MOL0     C35412   9.881   6.013   8.306  0.5628  0.4971  0.2500
 1004MOL0     O35413   9.998   6.050   8.244  0.1824  0.0311 -0.1241
 1004MOL0     C35414   9.996   6.063   8.103  0.0934 -0.4182  0.3632
 1004MOL0     C35415  10.096   6.161   8.049  0.0511  0.0328 -0.3848
 1004MOL0     C35416  10.247   6.109   8.060  0.7371 -0.1978 -0.5405
 1004MOL0     C35417  10.277   5.963   8.013 -0.4243  0.1027  0.2931
 1004MOL0     C35418  10.412   5.904   8.066 -0.1307 -0.1549  0.1241
 1004MOL0     C35419  10.424   5.754   8.039 -0.2499 -0.2021 -0.3375
 1004MOL0     C35420  10.576   5.723   8.058 -0.3113 -1.3048  0.6103
 1004MOL0     C35421  10.590   5.581   8.093  0.7287 -0.5585  0.0009
 1004MOL0     N35422  10.536   5.555   8.231 -0.4293 -0.7483 -1.0183
 1004MOL0     C35423  10.476   5.440   8.269 -0.3436  0.3239 -0.4950
 1004MOL0     C35424  10.513   5.423   8.398 -0.0386 -0.2295 -0.2707
 1004MOL0     C35425  10.491   5.288   8.467 -0.4837  0.7827 -0.1189
 1004MOL0     C35426  10.515   5.290   8.623 -0.3529 -0.3164 -0.4837
 1004MOL0     C35427  10.425   5.385   8.697  0.8263 -0.2192 -0.1329
 1004MOL0     C35428  10.282   5.332   8.724 -0.2555 -0.2958  0.0771
 1004MOL0     O35429  10.208   5.305   8.602  0.0570 -0.1231  0.3485
 1004MOL0     C35430  10.089   5.244   8.608  0.2746  1.0263  0.4810
 1004MOL0     C35431  10.007   5.232   8.721 -0.6659 -0.5697  0.1414
 1004MOL0     C35432   9.876   5.183   8.724  0.1674  0.2565 -0.5804
 1004MOL0     C35433   9.815   5.144   8.607 -0.1689 -0.0858 -0.1736
 1004MOL0     C35434   9.679   5.094   8.610  0.2997  0.4275 -0.2914
 1004MOL0     O35435   9.637   5.059   8.734  0.2968  0.4527 -0.1004
 1004MOL0     C35436   9.521   4.988   8.750  0.6114 -0.5065  0.1415
 1004MOL0     C35437   9.438   5.022   8.857 -0.7619  0.2419  0.2574
 1004MOL0     C35438   9.321   4.951   8.869 -0.3391  0.1839  0.2940
 1004MOL0     C35439   9.285   4.844   8.788  0.4164  0.7067 -0.1094
 1004MOL0     O35440   9.170   4.777   8.794 -0.4201 -0.3210  0.3135
 1004MOL0     C35441   9.090   4.781   8.909 -0.6620 -0.8539  0.1631
 1004MOL0     C35442   8.988   4.677   8.907  0.3731  0.3292  0.2882
 1004MOL0     C35443   8.868   4.712   8.996  0.6440  0.6375 -0.1029
 1004MOL0     C35444   8.790   4.582   9.025  0.1999 -0.2958 -0.5205
 1004MOL0     C35445   8.664   4.614   9.104 -0.1313 -0.1157  0.8124
 1004MOL0     C35446   8.556   4.501   9.092 -0.1347 -1.1006  0.2066
 1004MOL0     C35447   8.434   4.535   9.183 -0.1080 -0.0251 -0.7517
 1004MOL0     C35448   8.319   4.437   9.182  0.1579  0.0637 -0.5448
 1004MOL0    Cl35449   8.346   4.309   9.302 -0.2713 -0.0207 -0.2106
 1004MOL0     C35450   9.382   4.805   8.694  0.6308 -0.4878 -0.3477
 1004MOL0     C35451   9.492   4.878   8.669 -0.1751 -0.2955  0.7404
 1004MOL0     O35452   9.618   5.074   8.502 -0.9072  0.0961  0.1996
 1004MOL0     C35453   9.889   5.161   8.484  0.6378 -0.4044 -0.4403
 1004MOL0     C35454  10.016   5.215   8.492  0.9410  0.3876  0.4591
 1004MOL0     N35455  10.607   5.517   8.431 -0.4053 -0.2711 -0.3001
 1004MOL0     N35456  10.613   5.605   8.333  0.4870  0.2051 -0.5464
 1004MOL0     C35457   9.839   6.071   8.425  0.8968 -0.6952 -0.0099
 1004MOL0     C35458   9.736   6.014   8.497 -0.0404 -0.6550 -0.6045
 1004MOL0     C35459   9.426   5.668   8.632  0.1607  0.2376 -0.8087
 1004MOL0     C35460   9.321   5.763   8.652  0.2829 -0.1797  0.4598
 1004MOL0     C35461   9.208   5.731   8.728  0.3461  1.2415  0.4932
 1004MOL0     C35462   9.185   5.595   8.767 -0.2011 -0.2500 -0.2451
 1004MOL0     O35463   9.081   5.552   8.851  0.5214 -0.3180  0.0462
 1004MOL0     C35464   8.984   5.651   8.873  1.2233  0.5414  0.4951
 1004MOL0     C35465   8.849   5.592   8.923 -0.9339 -0.7741 -0.3452
 1004MOL0     C35466   8.788   5.519   8.806 -0.2865 -0.1277  0.0463
 1004MOL0     C35467   8.659   5.442   8.843 -0.3389 -1.0125 -0.0157
 1004MOL0     C35468   8.554   5.527   8.886 -0.0569  0.0933 -0.6768
 1004MOL0     C35469   8.466   5.598   8.924 -0.1025 -0.2297  0.0316
 1004MOL0     C35470   9.288   5.500   8.746  0.2172  0.1779  0.1740
 1004MOL0     C35471   9.402   5.532   8.672 -0.1636 -0.0614  0.9434
 1004MOL0     C35472   9.497   5.419   8.642  0.6682 -0.1831 -0.1830
 1004MOL0     H35473   9.653   5.773   8.254  2.0705  0.0818 -2.3604
 1004MOL0     H35474   9.848   5.855   8.157 -0.5662 -3.7468  0.4773
 1004MOL0     H35475  10.007   5.968   8.050 -0.0826 -0.3586  0.2187
 1004MOL0     H35476   9.897   6.102   8.081  0.4568  0.1385 -0.3101
 1004MOL0     H35477  10.091   6.250   8.113  2.0755 -0.2928  0.2970
 1004MOL0     H35478  10.074   6.192   7.947  1.0662 -0.2134 -0.6844
 1004MOL0     H35479  10.259   6.118   8.168 -2.5026 -0.1215 -0.0990
 1004MOL0     H35480  10.321   6.180   8.022  0.8525  0.1899  0.4026
 1004MOL0     H35481  10.198   5.895   8.047 -0.0825 -1.0832 -1.1661
 1004MOL0     H35482  10.294   5.978   7.906  2.2441  1.9141  0.8916
 1004MOL0     H35483  10.491   5.958   8.013  1.5147 -1.3371  1.2775
 1004MOL0     H35484  10.422   5.934   8.171 -2.7304  1.3709  0.0470
 1004MOL0     H35485  10.367   5.707   8.120 -3.4420  2.5774 -0.7771
 1004MOL0     H35486  10.391   5.730   7.938  1.8974 -0.0425 -1.1313
 1004MOL0     H35487  10.630   5.792   8.123 -2.2649  2.9530 -1.8365
 1004MOL0     H35488  10.629   5.742   7.964  0.7396 -1.0692  1.2373
 1004MOL0     H35489  10.544   5.522   8.013 -1.1448  1.4829 -0.5409
 1004MOL0     H35490  10.696   5.554   8.088  0.6123 -0.9537 -0.3600
 1004MOL0     H35491  10.406   5.376   8.217 -1.1049  1.6609 -1.1793
 1004MOL0     H35492  10.393   5.242   8.448 -0.2157  0.2338 -0.2050
 1004MOL0     H35493  10.563   5.216   8.427 -2.2221  0.2616 -2.5420
 1004MOL0     H35494  10.511   5.188   8.660  2.6526 -0.1942  0.4058
 1004MOL0     H35495  10.619   5.313   8.649 -0.2708 -1.6498  0.4634
 1004MOL0     H35496  10.406   5.475   8.638 -0.6806 -1.1213 -1.0734
 1004MOL0     H35497  10.474   5.412   8.791 -0.3744  0.4212  0.3317
 1004MOL0     H35498  10.218   5.406   8.773  1.7115 -1.4834  5.1437
 1004MOL0     H35499  10.302   5.247   8.791  1.3377  1.0829  1.4432
 1004MOL0     H35500  10.043   5.248   8.822 -1.1492  0.7414  0.1170
 1004MOL0     H35501   9.823   5.172   8.818  1.6827 -4.7067 -0.0247
 1004MOL0     H35502   9.463   5.098   8.930 -1.8968  0.0396  0.8926
 1004MOL0     H35503   9.251   4.980   8.947 -0.3262  1.0991 -0.0218
 1004MOL0     H35504   9.160   4.749   8.987  1.7735 -4.0456 -2.9837
 1004MOL0     H35505   9.043   4.879   8.920  0.2345 -0.6681  3.1064
 1004MOL0     H35506   8.941   4.680   8.808  0.7800  1.3080  0.1061
 1004MOL0     H35507   9.023   4.580   8.943 -0.3111  0.2878  0.8542
 1004MOL0     H35508   8.906   4.749   9.091  1.4575 -1.1611  0.3199
 1004MOL0     H35509   8.796   4.786   8.960 -0.1154  0.7463  1.5778
 1004MOL0     H35510   8.853   4.506   9.072  3.0668  0.8879 -2.1907
 1004MOL0     H35511   8.772   4.532   8.929  1.0413 -1.3842 -0.1291
 1004MOL0     H35512   8.611   4.702   9.066  0.9950 -0.2584 -1.2037
 1004MOL0     H35513   8.684   4.617   9.211 -1.1646 -3.8540  1.2709
 1004MOL0     H35514   8.533   4.489   8.985 -2.1889  1.7990  0.1888
 1004MOL0     H35515   8.603   4.403   9.103  0.8762 -0.7975 -1.0893
 1004MOL0     H35516   8.394   4.633   9.154 -3.1221 -1.7662 -3.0454
 1004MOL0     H35517   8.460   4.562   9.286 -3.5463  0.7200  0.0378
 1004MOL0     H35518   8.225   4.491   9.196  0.8217  2.1454 -3.2158
 1004MOL0     H35519   8.305   4.387   9.086 -2.4255 -0.9431  0.2689
 1004MOL0     H35520   9.355   4.717   8.637 -0.7352 -0.0959 -0.3394
 1004MOL0     H35521   9.554   4.858   8.582 -0.4940  0.9469  0.2026
 1004MOL0     H35522   9.828   5.141   8.397 -3.7770 -1.0538  2.4367
 1004MOL0     H35523  10.065   5.229   8.396 -2.0674  2.9462 -0.8652
 1004MOL0     H35524   9.883   6.159   8.470  1.6914 -1.2643  0.3599
 1004MOL0     H35525   9.702   6.051   8.593  1.6704 -2.9750  0.9976
 1004MOL0     H35526   9.336   5.868   8.632  0.8022 -0.2796  0.3162
 1004MOL0     H35527   9.144   5.808   8.769 -1.1742  0.5092 -0.4344
 1004MOL0     H35528   8.961   5.709   8.783 -1.2934 -1.1684 -0.0808
 1004MOL0     H35529   9.016   5.717   8.954 -1.6156  1.5432  0.9273
 1004MOL0     H35530   8.788   5.676   8.958  3.7208  2.4255  1.1591
 1004MOL0     H35531   8.869   5.530   9.012 -1.0308  0.3226  0.4627
 1004MOL0     H35532   8.860   5.442   8.779  0.7350 -0.8060  3.9944
 1004MOL0     H35533   8.765   5.587   8.724  4.5336  0.7002 -0.9065
 1004MOL0     H35534   8.612   5.398   8.755 -1.6976  1.4471 -0.6056
 1004MOL0     H35535   8.676   5.368   8.922 -2.4575 -0.0333  1.4291
 1004MOL0     H35536   8.389   5.664   8.959  0.7762  0.8486  0.0282
 1004MOL0     H35537   9.281   5.396   8.775  1.4213 -0.2466 -0.9424
 1004MOL0     H35538   9.593   5.446   8.687 -1.0243  2.4493  2.1950
 1004MOL0     H35539   9.455   5.322   8.667  0.2124 -0.9951 -3.5739
 1004MOL0     H35540   9.521   5.412   8.535  1.2929 -0.3305 -0.0403
 1005MOL0     O35541   1.725   7.668   2.502  0.0963  0.0533 -0.5821
 1005MOL0     C35542   1.632   7.624   2.576  0.1037  0.2710  0.4243
 1005MOL0     O35543   1.645   7.587   2.710  0.5311  0.0204  0.7263
 1005MOL0     C35544   1.750   7.635   2.784  0.3922  0.1604 -0.3246
 1005MOL0     C35545   1.782   7.771   2.781  0.6283 -0.7143 -0.5534
 1005MOL0     C35546   1.892   7.816   2.853 -0.1634  0.3826  0.6573
 1005MOL0     C35547   1.962   7.723   2.941  0.4396 -0.1294 -0.3495
 1005MOL0     O35548   2.067   7.752   3.029 -0.1428 -0.5146  0.2251
 1005MOL0     C35549   2.125   7.889   3.040  0.1073 -0.1446  0.0393
 1005MOL0     C35550   2.190   7.924   3.172  0.1889  0.8692  0.2919
 1005MOL0     C35551   2.330   7.987   3.149 -1.0999  1.3335 -0.1389
 1005MOL0     C35552   2.400   8.002   3.280  0.0651  0.4106  0.3047
 1005MOL0     C35553   2.555   8.030   3.249 -0.6730  0.9570  0.2889
 1005MOL0     C35554   2.577   8.165   3.170  0.1203  0.2484  0.2457
 1005MOL0     C35555   2.729   8.201   3.164  0.0561  0.6430  1.6427
 1005MOL0     C35556   2.753   8.331   3.085 -0.3797  0.1316  1.1931
 1005MOL0     N35557   2.890   8.391   3.107  0.0042  0.4928  1.0761
 1005MOL0     C35558   2.941   8.446   3.220 -0.2077  0.0130  0.7904
 1005MOL0     C35559   3.075   8.461   3.201 -0.1252  0.1369  0.9022
 1005MOL0     C35560   3.180   8.503   3.298 -0.2941  0.6308 -0.0458
 1005MOL0     C35561   3.163   8.413   3.424 -0.5311  0.0037 -0.4782
 1005MOL0     C35562   3.272   8.443   3.535  0.5994  0.3278 -0.8093
 1005MOL0     C35563   3.413   8.409   3.490 -0.2554 -0.0468  0.0479
 1005MOL0     O35564   3.491   8.373   3.603  0.3256 -0.1542  0.0758
 1005MOL0     C35565   3.624   8.346   3.586 -0.5121 -0.1111  0.7997
 1005MOL0     C35566   3.703   8.288   3.689  0.3260  0.1254 -0.4216
 1005MOL0     C35567   3.832   8.260   3.672 -0.2970  0.1413 -0.0819
 1005MOL0     C35568   3.900   8.290   3.553 -0.3638  0.0040 -0.3091
 1005MOL0     C35569   4.044   8.278   3.534 -0.3681  0.3830  0.1837
 1005MOL0     O35570   4.100   8.299   3.417 -0.2137 -0.0408  0.2257
 1005MOL0     C35571   4.231   8.262   3.383 -0.8428 -0.0291 -0.2762
 1005MOL0     C35572   4.287   8.317   3.268 -0.3631  0.1597  0.8100
 1005MOL0     C35573   4.420   8.285   3.223 -0.0496 -0.4578 -0.2090
 1005MOL0     C35574   4.497   8.189   3.286  1.3508  0.4516 -0.1937
 1005MOL0     O35575   4.619   8.136   3.249  0.4635  0.9247  0.3297
 1005MOL0     C35576   4.641   8.133   3.113  0.3879 -0.2563  0.0620
 1005MOL0     C35577   4.760   8.047   3.084  0.1114  0.0400 -0.1549
 1005MOL0     C35578   4.891   8.113   3.127  0.1440  0.5896 -0.5438
 1005MOL0     C35579   4.999   8.004   3.123 -0.9338 -0.1306  0.4655
 1005MOL0     C35580   5.143   8.045   3.142 -0.3667  0.6947  0.1758
 1005MOL0     C35581   5.182   8.069   3.292 -0.0614  0.2511  0.0140
 1005MOL0     C35582   5.328   8.120   3.325  0.5290 -0.1033 -0.3314
 1005MOL0     C35583   5.378   8.057   3.456  0.1500  0.4903  0.0487
 1005MOL0    Cl35584   5.389   7.878   3.419  0.0305 -0.5023  0.2893
 1005MOL0     C35585   4.438   8.123   3.399  0.9600 -0.6479 -0.6627
 1005MOL0     C35586   4.307   8.162   3.444 -1.3119 -1.3209 -0.5713
 1005MOL0     O35587   4.105   8.252   3.639 -0.0221 -0.3364 -0.8156
 1005MOL0     C35588   3.827   8.350   3.450  0.4399  0.5939  0.0584
 1005MOL0     C35589   3.693   8.360   3.458 -0.3660 -0.2052  0.0987
 1005MOL0     N35590   3.107   8.409   3.075  0.2737 -0.3222  0.0700
 1005MOL0     N35591   2.991   8.364   3.026 -0.2158 -0.5080 -0.1827
 1005MOL0     C35592   1.923   7.589   2.944  0.1287 -0.6650  0.4454
 1005MOL0     C35593   1.823   7.543   2.858 -0.0101  0.7372 -0.3853
 1005MOL0     C35594   1.492   7.605   2.524  0.3272  0.8177 -0.3133
 1005MOL0     C35595   1.397   7.541   2.603  0.1159 -0.9216 -0.2850
 1005MOL0     C35596   1.276   7.517   2.553 -0.2100 -0.3223  0.2384
 1005MOL0     C35597   1.233   7.559   2.428  0.0492  1.5244  0.2154
 1005MOL0     O35598   1.114   7.557   2.371 -1.0432  0.7200  0.2126
 1005MOL0     C35599   1.003   7.511   2.445 -0.4057 -0.3667  0.4097
 1005MOL0     C35600   0.957   7.613   2.543 -0.1228 -0.4804 -0.3525
 1005MOL0     C35601   0.851   7.546   2.626  0.5672  0.1524 -0.4103
 1005MOL0     C35602   0.729   7.529   2.554  0.0626  0.3018 -0.5041
 1005MOL0     C35603   0.613   7.492   2.632 -0.2087  0.8107  0.2087
 1005MOL0     C35604   0.523   7.476   2.710  0.0274 -0.5369 -0.2896
 1005MOL0     C35605   1.330   7.617   2.354  0.0512  0.0101 -0.4207
 1005MOL0     C35606   1.460   7.647   2.393 -0.0291  1.2214 -0.5478
 1005MOL0     C35607   1.548   7.700   2.289  0.3548  0.0931 -0.0174
 1005MOL0     H35608   1.712   7.837   2.731  0.1664 -1.6163 -1.1373
 1005MOL0     H35609   1.908   7.924   2.852 -0.9910  0.5279  1.5058
 1005MOL0     H35610   2.204   7.896   2.965 -0.3004  0.6276 -0.3276
 1005MOL0     H35611   2.059   7.975   3.022  1.6424  1.0760 -0.0053
 1005MOL0     H35612   2.192   7.829   3.228 -0.1440 -0.0303 -1.1764
 1005MOL0     H35613   2.122   7.987   3.229 -0.5917 -0.4784  0.9008
 1005MOL0     H35614   2.324   8.082   3.097  0.3534 -0.0717 -3.1063
 1005MOL0     H35615   2.393   7.925   3.085 -0.0182  3.2210 -0.9595
 1005MOL0     H35616   2.349   8.085   3.328 -3.8263 -1.8673  0.5667
 1005MOL0     H35617   2.398   7.922   3.355 -0.1735 -0.5632 -0.7052
 1005MOL0     H35618   2.607   8.025   3.344 -0.3188 -2.4652  0.0389
 1005MOL0     H35619   2.593   7.948   3.188 -3.0827  2.5121 -3.7339
 1005MOL0     H35620   2.544   8.159   3.066  2.9901 -0.1914 -0.7442
 1005MOL0     H35621   2.523   8.247   3.219  2.1122  0.7114  1.8444
 1005MOL0     H35622   2.790   8.127   3.112 -1.4682  2.5068 -3.3979
 1005MOL0     H35623   2.763   8.208   3.268 -1.3652  3.2946  2.0453
 1005MOL0     H35624   2.741   8.311   2.978  2.1003  0.3991  0.7879
 1005MOL0     H35625   2.690   8.410   3.128  2.4973  1.3066  3.6793
 1005MOL0     H35626   2.872   8.477   3.298 -2.3947  1.6037 -1.6307
 1005MOL0     H35627   3.280   8.493   3.254  0.7468 -2.3866  2.6220
 1005MOL0     H35628   3.152   8.606   3.324  0.5700  1.8618 -3.4187
 1005MOL0     H35629   3.063   8.426   3.467 -1.9929 -3.3229 -2.4670
 1005MOL0     H35630   3.169   8.309   3.392 -0.2905  0.3848 -1.7472
 1005MOL0     H35631   3.247   8.383   3.622 -0.4312 -0.7023 -1.7939
 1005MOL0     H35632   3.274   8.551   3.555 -0.6654  0.4276 -1.1597
 1005MOL0     H35633   3.460   8.498   3.448  0.6789 -0.8296 -0.6084
 1005MOL0     H35634   3.404   8.330   3.415  0.3482 -1.3064  1.2631
 1005MOL0     H35635   3.654   8.264   3.782  2.4950 -2.4942  0.1646
 1005MOL0     H35636   3.894   8.239   3.758 -0.4357  0.9391  0.2226
 1005MOL0     H35637   4.236   8.385   3.200 -0.3605 -0.0438  0.6006
 1005MOL0     H35638   4.452   8.332   3.130 -0.5790  0.6453  0.1512
 1005MOL0     H35639   4.550   8.093   3.067 -1.4015  1.1585  2.1897
 1005MOL0     H35640   4.651   8.234   3.071 -1.4480 -0.5199 -1.1209
 1005MOL0     H35641   4.753   7.948   3.131 -0.8641  0.2725  0.2119
 1005MOL0     H35642   4.763   8.029   2.976  1.2995  0.5874 -0.2300
 1005MOL0     H35643   4.912   8.190   3.053 -0.0266  2.8366  1.5894
 1005MOL0     H35644   4.877   8.160   3.225  0.4460 -0.6116  0.0886
 1005MOL0     H35645   4.999   7.965   3.021  3.0073 -1.5247  0.8027
 1005MOL0     H35646   4.965   7.929   3.195 -1.7678  2.0650  2.4642
 1005MOL0     H35647   5.174   8.134   3.086  3.1119 -0.7695 -0.4830
 1005MOL0     H35648   5.214   7.968   3.112  2.4122  3.2714 -0.2763
 1005MOL0     H35649   5.121   8.150   3.332 -1.8980 -1.4246  0.8090
 1005MOL0     H35650   5.164   7.975   3.346  0.1748 -0.4421 -1.0758
 1005MOL0     H35651   5.330   8.230   3.327  1.4263 -0.1260  0.0571
 1005MOL0     H35652   5.401   8.099   3.246 -1.5337 -1.6057 -1.9536
 1005MOL0     H35653   5.480   8.093   3.474  2.4294 -2.0438 -5.3340
 1005MOL0     H35654   5.300   8.067   3.531  0.6556 -4.3612  1.5593
 1005MOL0     H35655   4.502   8.056   3.454  1.4905  1.2688  1.2068
 1005MOL0     H35656   4.265   8.117   3.533 -3.7409  0.0576 -0.9305
 1005MOL0     H35657   3.871   8.382   3.356  2.7120 -0.4279  0.7008
 1005MOL0     H35658   3.638   8.409   3.379 -3.3654  0.6002  2.4849
 1005MOL0     H35659   1.975   7.523   3.013  0.7929  0.5250  1.1028
 1005MOL0     H35660   1.789   7.440   2.857  1.1702  0.2750  1.5436
 1005MOL0     H35661   1.427   7.502   2.700 -0.5689 -0.9770 -0.0935
 1005MOL0     H35662   1.203   7.469   2.617 -0.9532  0.7648  0.2403
 1005MOL0     H35663   1.013   7.417   2.501  0.3284 -0.7560 -0.3650
 1005MOL0     H35664   0.935   7.490   2.363 -1.2463 -2.0096  1.4765
 1005MOL0     H35665   0.909   7.701   2.499  0.8409  0.4904  0.4644
 1005MOL0     H35666   1.043   7.642   2.603  1.0171  1.7460 -2.8559
 1005MOL0     H35667   0.825   7.621   2.701  0.7304 -0.2789  0.0911
 1005MOL0     H35668   0.877   7.453   2.678 -3.2707 -0.1638  1.3098
 1005MOL0     H35669   0.682   7.617   2.509 -2.2121 -0.7814 -0.3931
 1005MOL0     H35670   0.736   7.456   2.472 -1.7473  0.1497 -0.5556
 1005MOL0     H35671   0.440   7.489   2.776 -1.7739  0.5143 -2.6429
 1005MOL0     H35672   1.312   7.652   2.253  0.1096  0.4924 -0.2655
 1005MOL0     H35673   1.636   7.638   2.272  0.5984  0.9035 -1.9816
 1005MOL0     H35674   1.496   7.718   2.194 -0.4673  2.3197  0.7835
 1005MOL0     H35675   1.587   7.802   2.303 -0.7769  0.9599 -2.5816
 1006MOL0     O35676   2.638   5.563   3.653 -0.1450  0.2993 -0.1200
 1006MOL0     C35677   2.538   5.541   3.597 -0.3266  0.0204  1.2592
 1006MOL0     O35678   2.532   5.485   3.474  0.3523 -0.9586  0.1682
 1006MOL0     C35679   2.651   5.480   3.401  0.3821  0.0428 -0.5947
 1006MOL0     C35680   2.704   5.351   3.377 -0.4459  0.8162 -0.2874
 1006MOL0     C35681   2.829   5.330   3.311  0.4891 -0.0087  0.0046
 1006MOL0     C35682   2.885   5.441   3.254  0.1150 -0.2041  0.7551
 1006MOL0     O35683   3.006   5.421   3.185  0.0267  0.4970 -0.2356
 1006MOL0     C35684   3.101   5.520   3.141 -0.0467 -0.5228 -0.5394
 1006MOL0     C35685   3.202   5.443   3.049  0.3939  0.2649  0.4057
 1006MOL0     C35686   3.311   5.351   3.112  0.4511 -0.1367  0.3285
 1006MOL0     C35687   3.353   5.232   3.013 -0.3595  0.1176 -0.3645
 1006MOL0     C35688   3.465   5.145   3.075  0.4480 -0.2565  0.0115
 1006MOL0     C35689   3.509   5.035   2.977  0.0360  0.1465 -0.2119
 1006MOL0     C35690   3.649   4.979   3.006 -0.6602  0.3748 -0.3774
 1006MOL0     C35691   3.769   5.066   2.976  0.3049  0.4128 -0.2567
 1006MOL0     N35692   3.903   5.014   3.022 -0.0710 -0.1158  0.6789
 1006MOL0     C35693   3.995   4.962   2.937 -0.0762 -0.0758 -0.1158
 1006MOL0     C35694   4.101   4.934   3.019  0.1053 -0.0664  0.5737
 1006MOL0     C35695   4.241   4.886   2.969  0.3092 -0.7460  0.5064
 1006MOL0     C35696   4.301   4.763   3.037 -0.0442  0.1447  0.8052
 1006MOL0     C35697   4.425   4.713   2.963  0.5037 -0.4119 -0.6798
 1006MOL0     C35698   4.550   4.784   3.012 -0.1823 -0.3565  0.4874
 1006MOL0     O35699   4.655   4.774   2.916  0.1906  0.3365 -0.4369
 1006MOL0     C35700   4.783   4.766   2.955 -0.0462  0.3203 -0.1465
 1006MOL0     C35701   4.821   4.847   3.062 -0.0684  0.8955  0.5317
 1006MOL0     C35702   4.953   4.838   3.096 -0.0193 -0.2675  0.2113
 1006MOL0     C35703   5.046   4.755   3.028 -0.2957 -0.4560  0.3007
 1006MOL0     C35704   5.190   4.776   3.050  1.0832  1.0115 -0.2145
 1006MOL0     O35705   5.228   4.890   3.115 -0.0514 -0.0087 -0.3897
 1006MOL0     C35706   5.359   4.926   3.155  0.3525 -0.1073  0.0824
 1006MOL0     C35707   5.375   5.060   3.192 -0.0322 -0.6434 -0.4209
 1006MOL0     C35708   5.500   5.109   3.224  0.2099 -0.9302 -0.3940
 1006MOL0     C35709   5.615   5.032   3.239 -0.2259 -0.1220 -0.2179
 1006MOL0     O35710   5.729   5.096   3.286  0.3522  0.3881  0.1861
 1006MOL0     C35711   5.838   5.019   3.335 -0.3681  0.4841 -0.1249
 1006MOL0     C35712   5.940   5.128   3.380 -0.6901 -0.4279 -0.4111
 1006MOL0     C35713   6.064   5.058   3.436 -0.1916 -0.4981  0.2096
 1006MOL0     C35714   6.171   5.163   3.454  0.4436 -0.0221  0.7235
 1006MOL0     C35715   6.304   5.094   3.489 -0.1029 -0.8057  0.0361
 1006MOL0     C35716   6.417   5.185   3.539 -0.4538  0.5591 -0.7602
 1006MOL0     C35717   6.513   5.118   3.650 -0.6672 -0.4498 -0.2641
 1006MOL0     C35718   6.624   5.207   3.704 -0.5009  0.0217 -0.0127
 1006MOL0    Cl35719   6.738   5.266   3.576 -0.4145  0.1957 -0.1904
 1006MOL0     C35720   5.600   4.894   3.209  0.1415  0.8747  0.5994
 1006MOL0     C35721   5.477   4.842   3.160 -0.0566 -0.3930 -0.5285
 1006MOL0     O35722   5.260   4.687   3.004  0.3141 -0.2346 -0.2351
 1006MOL0     C35723   5.002   4.666   2.925 -1.1415 -0.6484 -0.1257
 1006MOL0     C35724   4.871   4.678   2.883  0.7115 -0.4860 -0.3204
 1006MOL0     N35725   4.082   4.980   3.150 -0.0343  0.1137 -0.4288
 1006MOL0     N35726   3.958   5.018   3.143 -0.9540  0.2974 -0.7178
 1006MOL0     C35727   2.832   5.566   3.270  0.7058 -0.8009 -0.8630
 1006MOL0     C35728   2.715   5.584   3.343  0.2633  0.2458  0.3658
 1006MOL0     C35729   2.406   5.556   3.663 -0.0222 -0.4008 -0.3603
 1006MOL0     C35730   2.293   5.508   3.599  0.1282 -0.0211  0.0203
 1006MOL0     C35731   2.167   5.530   3.661 -0.2252  1.3089 -0.2195
 1006MOL0     C35732   2.151   5.596   3.782 -1.1836 -0.9919 -0.0952
 1006MOL0     O35733   2.028   5.624   3.836  0.9474 -0.0676  0.3630
 1006MOL0     C35734   2.011   5.714   3.947 -0.3550 -0.9767 -0.1397
 1006MOL0     C35735   1.863   5.748   3.977  0.2237 -0.7877  0.5788
 1006MOL0     C35736   1.772   5.773   3.850 -0.3048  0.3424 -0.3699
 1006MOL0     C35737   1.625   5.809   3.872  0.1678  0.3542 -0.1851
 1006MOL0     C35738   1.605   5.938   3.938  0.0606  0.8144 -0.7390
 1006MOL0     C35739   1.588   6.051   3.981 -0.1761  1.4334 -0.5242
 1006MOL0     C35740   2.266   5.624   3.854  0.2458  0.6172 -0.5780
 1006MOL0     C35741   2.394   5.596   3.803  1.1430 -0.3364  0.5687
 1006MOL0     C35742   2.508   5.627   3.896  0.7975  0.0936 -0.9963
 1006MOL0     H35743   2.643   5.270   3.416 -0.3571  0.8918  0.0053
 1006MOL0     H35744   2.894   5.244   3.300  0.2151 -0.2034 -0.1109
 1006MOL0     H35745   3.052   5.600   3.085 -0.5755  0.1025  0.7507
 1006MOL0     H35746   3.154   5.577   3.218  0.2062  0.4276 -1.4057
 1006MOL0     H35747   3.250   5.514   2.982 -1.0484  0.4162 -0.5135
 1006MOL0     H35748   3.137   5.377   2.990  1.5849  0.0630 -0.6989
 1006MOL0     H35749   3.265   5.305   3.200 -2.5287 -0.8147 -1.4597
 1006MOL0     H35750   3.400   5.409   3.136  0.7753  0.8032 -2.6593
 1006MOL0     H35751   3.267   5.169   2.990 -0.7015  0.0597  1.0093
 1006MOL0     H35752   3.400   5.261   2.918  1.7851 -4.2977 -0.9090
 1006MOL0     H35753   3.548   5.212   3.095  0.2388 -0.3132  1.1142
 1006MOL0     H35754   3.446   5.098   3.172  0.6685 -0.5294 -0.0749
 1006MOL0     H35755   3.446   4.948   2.998 -0.2432  0.3562 -0.1721
 1006MOL0     H35756   3.492   5.066   2.874  0.2821 -0.7309 -0.5310
 1006MOL0     H35757   3.672   4.889   2.950 -1.5770  0.4579 -0.9028
 1006MOL0     H35758   3.659   4.954   3.112 -2.0949  1.5698  0.0756
 1006MOL0     H35759   3.762   5.064   2.867 -3.5578  3.2153 -0.2686
 1006MOL0     H35760   3.766   5.172   3.002 -2.7442  0.4579 -0.3902
 1006MOL0     H35761   3.990   4.936   2.831  4.0408  0.7459 -0.6700
 1006MOL0     H35762   4.229   4.879   2.861 -2.0767  3.5285  0.2605
 1006MOL0     H35763   4.320   4.959   2.989 -0.0035 -0.4258  0.5837
 1006MOL0     H35764   4.326   4.786   3.141 -1.3112 -0.0336  1.1599
 1006MOL0     H35765   4.225   4.685   3.030  0.1817  0.0905 -2.3408
 1006MOL0     H35766   4.405   4.720   2.856 -0.1288  1.1326 -0.4887
 1006MOL0     H35767   4.432   4.608   2.992 -0.8113 -0.5217 -0.6894
 1006MOL0     H35768   4.576   4.753   3.114 -1.3229  1.4538  1.3895
 1006MOL0     H35769   4.534   4.892   3.016 -0.3491 -0.4093  1.5763
 1006MOL0     H35770   4.747   4.905   3.116 -0.4111 -0.9974  2.2446
 1006MOL0     H35771   4.986   4.907   3.173  0.7746  1.5389 -1.6504
 1006MOL0     H35772   5.293   5.131   3.189 -1.7039 -2.3766  1.2175
 1006MOL0     H35773   5.516   5.216   3.226 -0.0244 -0.8258 -2.1235
 1006MOL0     H35774   5.816   4.962   3.426  1.3310 -0.6722 -0.3940
 1006MOL0     H35775   5.875   4.948   3.260 -1.4722  0.4023 -0.6105
 1006MOL0     H35776   5.977   5.183   3.293  0.3731  1.2374  1.0158
 1006MOL0     H35777   5.901   5.196   3.456  0.1055  0.3673 -0.6901
 1006MOL0     H35778   6.035   5.017   3.533 -0.7637  4.9404  2.7032
 1006MOL0     H35779   6.102   4.984   3.364 -0.2740  0.6169 -1.0143
 1006MOL0     H35780   6.135   5.231   3.531  1.0647 -1.1681  2.0688
 1006MOL0     H35781   6.189   5.211   3.357 -0.3495  2.0893  1.5780
 1006MOL0     H35782   6.336   5.026   3.410 -0.4572  0.6925 -1.4696
 1006MOL0     H35783   6.277   5.034   3.576 -0.5377 -1.1016 -0.2978
 1006MOL0     H35784   6.483   5.213   3.456 -0.4618 -1.3667 -1.4781
 1006MOL0     H35785   6.373   5.271   3.590  2.0378  0.7526  1.2315
 1006MOL0     H35786   6.553   5.031   3.597 -1.4745 -0.7799 -0.3344
 1006MOL0     H35787   6.465   5.072   3.737 -0.2219 -1.9426 -0.7894
 1006MOL0     H35788   6.580   5.293   3.756 -2.1536 -1.1693  0.6553
 1006MOL0     H35789   6.671   5.152   3.785  1.3913 -0.5010 -1.4045
 1006MOL0     H35790   5.685   4.827   3.223 -0.8422 -0.0712  2.3946
 1006MOL0     H35791   5.465   4.735   3.146 -3.2261 -0.3628  1.0697
 1006MOL0     H35792   5.062   4.600   2.864  1.6322  0.5656  1.1074
 1006MOL0     H35793   4.826   4.623   2.800 -2.1053 -2.1464  2.1150
 1006MOL0     H35794   2.876   5.654   3.224 -2.1943  0.9334 -0.5573
 1006MOL0     H35795   2.667   5.681   3.337 -0.8860 -0.3967 -3.4055
 1006MOL0     H35796   2.290   5.457   3.503 -0.4981  1.2559 -0.6697
 1006MOL0     H35797   2.091   5.487   3.596  1.1751 -0.9415 -0.5007
 1006MOL0     H35798   2.059   5.812   3.942  0.7621 -1.4266  1.0996
 1006MOL0     H35799   2.049   5.657   4.033 -0.4245  0.4141  0.8530
 1006MOL0     H35800   1.852   5.832   4.046 -0.8419 -0.0922 -0.4206
 1006MOL0     H35801   1.816   5.657   4.016 -2.8166  0.4958  0.1576
 1006MOL0     H35802   1.772   5.688   3.782 -2.6812  3.1205 -4.2673
 1006MOL0     H35803   1.825   5.849   3.792  0.1519  0.3344  0.0255
 1006MOL0     H35804   1.582   5.800   3.772  0.1229 -3.6126  0.0349
 1006MOL0     H35805   1.585   5.730   3.936  0.0788  1.1227  0.7307
 1006MOL0     H35806   1.573   6.152   4.013 -1.6554  1.0832  0.0055
 1006MOL0     H35807   2.265   5.656   3.958  0.6228  0.4533 -0.5214
 1006MOL0     H35808   2.478   5.654   3.998  0.5006 -2.4590 -0.3473
 1006MOL0     H35809   2.574   5.541   3.905  0.8193  0.3215  1.6839
 1006MOL0     H35810   2.554   5.715   3.849 -1.0487  0.9594 -1.2844
 1007MOL0     O35811   6.247   4.616  10.035  0.0511  0.0425  0.0292
 1007MOL0     C35812   6.164   4.546  10.091 -0.5102  1.4496  0.5526
 1007MOL0     O35813   6.177   4.467  10.198  0.1329  0.1159  0.1808
 1007MOL0     C35814   6.297   4.456  10.263  0.6740  1.0841 -0.4421
 1007MOL0     C35815   6.288   4.448  10.406 -0.8982  0.5824 -0.0281
 1007MOL0     C35816   6.405   4.424  10.481  0.3731  0.1829  0.1820
 1007MOL0     C35817   6.534   4.415  10.428 -0.2302  0.0719 -0.5085
 1007MOL0     O35818   6.640   4.397  10.520 -0.3031 -0.6766 -0.0903
 1007MOL0     C35819   6.769   4.433  10.466 -0.6492 -0.2024 -0.1280
 1007MOL0     C35820   6.864   4.436  10.587 -0.2989  0.1564  0.9053
 1007MOL0     C35821   6.919   4.299  10.616 -0.4143  0.4686 -0.0961
 1007MOL0     C35822   7.022   4.286  10.723 -0.7710 -0.5401 -0.1542
 1007MOL0     C35823   7.062   4.142  10.738  0.1322 -0.5406  0.1079
 1007MOL0     C35824   7.165   4.122  10.853 -0.7324 -0.2383 -0.4357
 1007MOL0     C35825   7.133   4.198  10.980 -0.3071 -1.1474  1.0059
 1007MOL0     C35826   7.224   4.169  11.096  0.1743 -0.6195 -0.5520
 1007MOL0     N35827   7.362   4.218  11.082  0.2736 -0.6674 -0.9365
 1007MOL0     C35828   7.404   4.307  10.988  0.7311 -1.1496  0.2072
 1007MOL0     C35829   7.535   4.338  11.012 -0.7622 -0.0081 -1.5157
 1007MOL0     C35830   7.626   4.433  10.938  0.3446 -0.4331  0.5459
 1007MOL0     C35831   7.736   4.370  10.853  0.7333 -0.3182  0.0718
 1007MOL0     C35832   7.845   4.284  10.944  0.5399 -0.5471 -0.1400
 1007MOL0     C35833   7.907   4.379  11.054  0.0335  0.6297 -0.0135
 1007MOL0     O35834   7.941   4.505  10.990 -0.4997  0.3216 -0.2464
 1007MOL0     C35835   8.062   4.568  11.020  0.0723  0.2773  0.6179
 1007MOL0     C35836   8.097   4.693  10.956 -1.0420 -0.1118 -0.1199
 1007MOL0     C35837   8.213   4.757  10.985 -0.0563 -0.8038  0.3492
 1007MOL0     C35838   8.293   4.716  11.097 -0.4842  0.3303  0.0530
 1007MOL0     C35839   8.419   4.790  11.128 -0.3025 -0.0411 -0.5895
 1007MOL0     O35840   8.462   4.884  11.039  0.1860  0.1909  0.4933
 1007MOL0     C35841   8.592   4.921  11.055 -0.3207 -0.3055  0.4027
 1007MOL0     C35842   8.620   5.032  11.126 -0.5823 -0.5252 -0.6293
 1007MOL0     C35843   8.758   5.070  11.143  0.4594 -0.3282 -0.6883
 1007MOL0     C35844   8.860   4.999  11.073 -0.0617 -0.5451  0.2279
 1007MOL0     O35845   8.989   5.039  11.086  0.3055 -0.4480  0.1073
 1007MOL0     C35846   9.081   4.934  11.120  0.0690  0.5279  0.0616
 1007MOL0     C35847   9.183   5.004  11.219 -0.2321  0.3463 -0.1238
 1007MOL0     C35848   9.312   4.932  11.222 -0.3922 -0.2424  0.2470
 1007MOL0     C35849   9.431   5.000  11.307  0.1892 -0.4087  1.1082
 1007MOL0     C35850   9.555   4.905  11.296  0.4715  0.4330 -0.0360
 1007MOL0     C35851   9.535   4.783  11.393 -0.5005 -0.0793 -0.1973
 1007MOL0     C35852   9.513   4.798  11.542  0.4679  0.0698  0.8338
 1007MOL0     C35853   9.628   4.880  11.616  0.2224  0.0718  0.3613
 1007MOL0    Cl35854   9.783   4.784  11.604  0.1400  0.5862  0.0390
 1007MOL0     C35855   8.828   4.892  10.998  0.1062 -0.1218 -0.1551
 1007MOL0     C35856   8.695   4.851  10.991 -0.4732 -0.4816 -0.1445
 1007MOL0     O35857   8.467   4.768  11.245 -0.2086 -0.0323 -0.6285
 1007MOL0     C35858   8.252   4.600  11.168  0.4245 -0.4251 -0.5647
 1007MOL0     C35859   8.143   4.530  11.129 -0.7600  0.6936  0.4265
 1007MOL0     N35860   7.571   4.263  11.129  0.5007  0.5982  1.0389
 1007MOL0     N35861   7.466   4.193  11.166  0.0205 -0.8017 -0.3153
 1007MOL0     C35862   6.545   4.425  10.291 -0.2775 -0.5046 -0.3208
 1007MOL0     C35863   6.426   4.437  10.206  0.5389 -0.3849 -0.5148
 1007MOL0     C35864   6.049   4.523  10.013  0.2262 -0.2750 -0.0856
 1007MOL0     C35865   6.050   4.546   9.872 -0.2893 -0.5174  0.1139
 1007MOL0     C35866   5.944   4.520   9.787  0.7872 -1.0992  0.8511
 1007MOL0     C35867   5.828   4.473   9.847 -0.2584  0.0104  0.4267
 1007MOL0     O35868   5.735   4.434   9.752  0.4289 -0.0721 -0.5731
 1007MOL0     C35869   5.624   4.356   9.779  0.1052 -0.3967  0.5836
 1007MOL0     C35870   5.522   4.424   9.859  1.1208 -0.0381  0.1966
 1007MOL0     C35871   5.377   4.411   9.813 -0.7643 -0.1944  0.3456
 1007MOL0     C35872   5.269   4.431   9.926  0.6088  0.3870  0.0681
 1007MOL0     C35873   5.130   4.402   9.869 -0.4210 -0.4535  0.4712
 1007MOL0     C35874   5.021   4.401   9.819  0.2622  0.0608 -0.2552
 1007MOL0     C35875   5.817   4.461   9.988  0.2388 -0.7862 -0.1183
 1007MOL0     C35876   5.930   4.475  10.070  0.2407 -0.5395  0.1375
 1007MOL0     C35877   5.908   4.444  10.221  0.0701 -0.1281  0.4078
 1007MOL0     H35878   6.190   4.437  10.450 -1.0434 -0.0700 -0.5049
 1007MOL0     H35879   6.370   4.408  10.583 -1.3563  1.9232 -0.0739
 1007MOL0     H35880   6.806   4.373  10.382 -0.2363 -0.3405  0.1511
 1007MOL0     H35881   6.760   4.538  10.436  0.7935 -0.6134 -2.2031
 1007MOL0     H35882   6.813   4.472  10.676  1.4015  0.6980  1.6962
 1007MOL0     H35883   6.943   4.504  10.555  0.0613 -1.4451 -2.0130
 1007MOL0     H35884   6.957   4.261  10.520  0.0441 -0.5328  0.4692
 1007MOL0     H35885   6.837   4.234  10.649  0.3767  0.1338  1.2561
 1007MOL0     H35886   7.107   4.349  10.698 -1.1865 -0.6193 -1.8900
 1007MOL0     H35887   6.976   4.325  10.815  0.0478  0.6022 -0.2198
 1007MOL0     H35888   6.980   4.076  10.766  0.6978 -0.7844  1.2596
 1007MOL0     H35889   7.112   4.107  10.647  1.5704 -0.7159  0.9346
 1007MOL0     H35890   7.173   4.017  10.883  3.1223 -0.1194 -0.5951
 1007MOL0     H35891   7.266   4.156  10.827  0.3060 -0.6829  2.5856
 1007MOL0     H35892   7.028   4.178  11.003 -1.3597 -1.2701 -3.1431
 1007MOL0     H35893   7.139   4.307  10.967  1.9412 -1.4322 -0.9563
 1007MOL0     H35894   7.182   4.212  11.187  2.1494 -0.5441  0.3734
 1007MOL0     H35895   7.225   4.064  11.126  1.0645  0.5404  4.2053
 1007MOL0     H35896   7.344   4.347  10.906  0.8081 -2.1484 -0.3461
 1007MOL0     H35897   7.567   4.486  10.863 -2.6927  0.5001  3.3671
 1007MOL0     H35898   7.662   4.503  11.014 -0.9108 -0.2639  0.9919
 1007MOL0     H35899   7.701   4.299  10.777  2.4615 -3.3256  1.8487
 1007MOL0     H35900   7.795   4.446  10.801 -0.4387 -1.7094 -3.5429
 1007MOL0     H35901   7.923   4.258  10.872 -1.5972 -0.2264 -2.7303
 1007MOL0     H35902   7.800   4.192  10.983 -1.3984 -0.6649 -2.4205
 1007MOL0     H35903   7.986   4.328  11.109 -0.7734  0.5057  1.0658
 1007MOL0     H35904   7.828   4.381  11.130  2.2715 -1.6582  2.5954
 1007MOL0     H35905   8.045   4.729  10.868 -1.7591  2.4011  1.2270
 1007MOL0     H35906   8.238   4.845  10.927 -2.6670 -0.0947  0.1381
 1007MOL0     H35907   8.537   5.097  11.153  2.0883  1.9981  2.2078
 1007MOL0     H35908   8.779   5.167  11.188  0.8015 -0.7250  0.0195
 1007MOL0     H35909   9.026   4.848  11.160 -1.8647  0.4474 -2.5254
 1007MOL0     H35910   9.128   4.906  11.025 -1.7017  1.6269 -1.2128
 1007MOL0     H35911   9.208   5.103  11.179  3.9974 -0.0899  0.9537
 1007MOL0     H35912   9.148   5.009  11.322 -2.0582  1.3219 -0.7530
 1007MOL0     H35913   9.293   4.830  11.256 -3.5577 -0.5121 -1.9128
 1007MOL0     H35914   9.346   4.925  11.118  1.4067  1.1339  0.6931
 1007MOL0     H35915   9.412   5.022  11.413  0.9763  0.1954  1.1367
 1007MOL0     H35916   9.453   5.097  11.262 -0.7804 -0.1520  1.1695
 1007MOL0     H35917   9.650   4.959  11.303  1.5053 -1.1219 -1.3213
 1007MOL0     H35918   9.571   4.865  11.196  4.0180  0.3397  0.4366
 1007MOL0     H35919   9.459   4.718  11.348 -0.4578  1.3805 -2.5624
 1007MOL0     H35920   9.623   4.720  11.378  1.2058  2.4056 -1.3334
 1007MOL0     H35921   9.521   4.696  11.582 -0.9242 -0.2443  0.3515
 1007MOL0     H35922   9.410   4.823  11.566 -0.0334 -1.3451  0.2449
 1007MOL0     H35923   9.644   4.979  11.571 -0.8597 -0.2292 -0.7514
 1007MOL0     H35924   9.599   4.893  11.720  2.4911  3.3156  0.7639
 1007MOL0     H35925   8.905   4.843  10.940 -0.7075 -0.7432 -0.7408
 1007MOL0     H35926   8.675   4.769  10.922  1.3564  0.0023 -1.3198
 1007MOL0     H35927   8.316   4.563  11.248  0.5538 -0.7511 -0.8156
 1007MOL0     H35928   8.111   4.453  11.199  2.9611 -1.5396 -0.0448
 1007MOL0     H35929   6.646   4.424  10.252  0.0022 -1.2497  0.3897
 1007MOL0     H35930   6.448   4.445  10.100  2.3260 -0.1579 -0.1602
 1007MOL0     H35931   6.134   4.586   9.816  0.7781 -0.3354  1.7820
 1007MOL0     H35932   5.951   4.527   9.679  3.2413  0.2486  1.0356
 1007MOL0     H35933   5.663   4.268   9.830 -1.0568 -0.8031  0.8181
 1007MOL0     H35934   5.575   4.324   9.686 -2.0688 -0.2964  1.6208
 1007MOL0     H35935   5.552   4.529   9.859 -1.1843  0.8363 -3.8118
 1007MOL0     H35936   5.522   4.377   9.957 -0.6775 -1.8248 -0.5722
 1007MOL0     H35937   5.364   4.309   9.776 -0.5124  0.5489 -1.9271
 1007MOL0     H35938   5.362   4.495   9.745  0.9538  2.2099  2.7062
 1007MOL0     H35939   5.292   4.357  10.003  0.4115  0.6400  0.3695
 1007MOL0     H35940   5.274   4.530   9.972  0.9115  1.1419 -1.5107
 1007MOL0     H35941   4.932   4.394   9.760  1.2662  1.5997 -2.0414
 1007MOL0     H35942   5.736   4.415  10.044  0.0247 -1.7949 -1.2279
 1007MOL0     H35943   5.962   4.519  10.279  0.9505 -1.1822  0.9936
 1007MOL0     H35944   5.810   4.442  10.270  0.6397 -1.3206  1.5568
 1007MOL0     H35945   5.956   4.348  10.243  0.0909 -0.3764 -0.6506
 1008MOL0     O35946  10.526   9.308   7.600  0.1949 -0.2055 -0.3918
 1008MOL0     C35947  10.576   9.330   7.712  0.1666  0.4507 -0.8887
 1008MOL0     O35948  10.548   9.258   7.826 -0.0446 -0.1549 -0.6913
 1008MOL0     C35949  10.437   9.178   7.827  0.2712  0.0167 -0.0933
 1008MOL0     C35950  10.331   9.207   7.911 -0.1517  0.2036 -0.9439
 1008MOL0     C35951  10.217   9.123   7.923  0.2173  0.1110 -0.7231
 1008MOL0     C35952  10.206   9.004   7.843 -0.6227 -0.2963  0.0667
 1008MOL0     O35953  10.104   8.919   7.858  0.7569  0.0605  1.0936
 1008MOL0     C35954  10.054   8.871   7.732 -0.0249 -0.2244  0.0305
 1008MOL0     C35955   9.921   8.786   7.754 -0.0737 -0.1820 -0.3716
 1008MOL0     C35956   9.817   8.857   7.840 -0.5430 -0.3916 -0.7900
 1008MOL0     C35957   9.700   8.757   7.842  0.0702 -0.3466 -0.1893
 1008MOL0     C35958   9.592   8.822   7.935  0.1342 -0.7507  0.3484
 1008MOL0     C35959   9.461   8.749   7.919 -0.4380 -0.0585  1.1828
 1008MOL0     C35960   9.362   8.805   8.016 -0.2464  0.8784  0.2676
 1008MOL0     C35961   9.218   8.738   8.004  0.1712 -0.8355  0.7425
 1008MOL0     N35962   9.137   8.742   8.126  0.2411  0.9778  0.1487
 1008MOL0     C35963   8.999   8.772   8.127  0.0228 -0.8573 -0.7219
 1008MOL0     C35964   8.980   8.820   8.250  0.1086  0.1444 -0.6586
 1008MOL0     C35965   8.854   8.850   8.327  0.6567  0.3197 -0.0690
 1008MOL0     C35966   8.807   8.995   8.303  0.6434  0.5687 -0.3764
 1008MOL0     C35967   8.652   8.996   8.350  0.0339 -0.2011  0.8678
 1008MOL0     C35968   8.584   9.122   8.324  0.0595 -0.1580  0.3018
 1008MOL0     O35969   8.662   9.219   8.385  0.2296 -0.0520 -0.1557
 1008MOL0     C35970   8.613   9.330   8.446  0.4406 -0.4210  0.1712
 1008MOL0     C35971   8.707   9.414   8.497  0.2854 -0.2105 -0.0507
 1008MOL0     C35972   8.673   9.532   8.579  1.0069 -0.1313  1.5552
 1008MOL0     C35973   8.535   9.567   8.593 -0.7052 -0.4086 -0.3779
 1008MOL0     C35974   8.499   9.698   8.653 -0.1285  0.5394 -0.6870
 1008MOL0     O35975   8.362   9.716   8.649 -0.0173 -0.2927 -0.7804
 1008MOL0     C35976   8.309   9.836   8.626  0.4239  0.3304  0.7540
 1008MOL0     C35977   8.174   9.857   8.659 -0.0605  0.4158 -0.7773
 1008MOL0     C35978   8.123   9.988   8.633 -0.8008  0.2883 -1.2360
 1008MOL0     C35979   8.195  10.079   8.560 -0.4551 -0.3769 -0.0952
 1008MOL0     O35980   8.149  10.201   8.534  0.2350 -0.3945 -0.3240
 1008MOL0     C35981   8.130  10.237   8.398  0.1561 -0.1388  0.3359
 1008MOL0     C35982   8.047  10.367   8.396 -1.0704 -0.2032  0.5158
 1008MOL0     C35983   7.928  10.368   8.482 -0.4449  0.1316  0.1888
 1008MOL0     C35984   7.831  10.486   8.470 -0.3990 -0.3944 -0.9025
 1008MOL0     C35985   7.706  10.465   8.557  0.1057  0.4762 -0.0783
 1008MOL0     C35986   7.608  10.589   8.539  0.3439  0.4967 -0.3739
 1008MOL0     C35987   7.655  10.715   8.622  0.2980 -0.4682  0.3891
 1008MOL0     C35988   7.592  10.846   8.572 -0.3792  0.2676  0.2672
 1008MOL0    Cl35989   7.678  10.986   8.636  0.2032  0.3785 -0.2371
 1008MOL0     C35990   8.320  10.055   8.519 -0.6847  0.9141  0.1344
 1008MOL0     C35991   8.376   9.929   8.549 -0.5157  0.2543  0.7119
 1008MOL0     O35992   8.581   9.771   8.706  0.4240 -0.0729 -0.2931
 1008MOL0     C35993   8.442   9.482   8.528  0.4407 -0.7069  0.4493
 1008MOL0     C35994   8.474   9.369   8.458  0.8992  1.6558 -1.2747
 1008MOL0     N35995   9.101   8.811   8.324  0.4227  0.1065  0.3874
 1008MOL0     N35996   9.192   8.771   8.251 -0.5333 -0.2523 -0.1505
 1008MOL0     C35997  10.323   8.979   7.755 -0.2373  0.1628  0.4311
 1008MOL0     C35998  10.440   9.059   7.760  0.7008 -0.0433 -0.4625
 1008MOL0     C35999  10.690   9.431   7.722  0.3416  0.1756  0.2073
 1008MOL0     C36000  10.733   9.498   7.601  0.4118  0.8994 -0.6676
 1008MOL0     C36001  10.828   9.594   7.609  0.5152  0.2928  0.1503
 1008MOL0     C36002  10.897   9.622   7.721 -1.3394  0.2753 -0.1091
 1008MOL0     O36003  10.995   9.707   7.699 -0.6083 -0.5599  0.1923
 1008MOL0     C36004  11.087   9.737   7.799  0.0780  0.2153 -0.0740
 1008MOL0     C36005  11.197   9.834   7.751  1.2645  0.3292 -1.0539
 1008MOL0     C36006  11.288   9.867   7.866  0.7659  0.1070 -0.7782
 1008MOL0     C36007  11.421   9.932   7.816  0.3365 -0.1067 -0.1577
 1008MOL0     C36008  11.412  10.040   7.718 -0.5303 -0.0524 -0.6113
 1008MOL0     C36009  11.407  10.130   7.635 -0.1385  0.8411 -0.3569
 1008MOL0     C36010  10.859   9.568   7.841  0.3686 -0.5854 -0.2982
 1008MOL0     C36011  10.748   9.481   7.841  0.0492  0.6467  1.3254
 1008MOL0     C36012  10.684   9.447   7.975 -0.2167 -0.6088 -0.5699
 1008MOL0     H36013  10.338   9.297   7.971  0.4157  0.6583 -1.6717
 1008MOL0     H36014  10.144   9.132   8.003  1.1893 -3.0167  0.6693
 1008MOL0     H36015  10.044   8.963   7.674 -2.6417 -1.2862 -1.3766
 1008MOL0     H36016  10.118   8.801   7.679 -0.7772 -0.5084 -0.5197
 1008MOL0     H36017   9.954   8.692   7.800 -1.6134 -0.1069  0.9936
 1008MOL0     H36018   9.877   8.760   7.657 -2.0923  1.1741  0.1070
 1008MOL0     H36019   9.797   8.953   7.792  4.0858  1.2388  0.0038
 1008MOL0     H36020   9.864   8.877   7.936 -1.1981 -0.8734 -0.3620
 1008MOL0     H36021   9.645   8.744   7.749 -0.7567 -4.9805  0.7093
 1008MOL0     H36022   9.732   8.660   7.883 -0.1621  0.3207  1.6644
 1008MOL0     H36023   9.604   8.820   8.044  0.6781  3.2121  0.5005
 1008MOL0     H36024   9.572   8.927   7.910 -0.8312 -0.9127  0.4075
 1008MOL0     H36025   9.432   8.769   7.815  1.3010  0.4764  0.7650
 1008MOL0     H36026   9.482   8.645   7.946  1.0948  0.4067  1.8413
 1008MOL0     H36027   9.354   8.913   7.999  0.4324  0.7809 -0.8160
 1008MOL0     H36028   9.401   8.783   8.116  0.5880 -1.0148 -0.4218
 1008MOL0     H36029   9.160   8.801   7.936 -2.4920 -2.7113  1.1062
 1008MOL0     H36030   9.231   8.634   7.973  1.1065 -0.8197  1.0505
 1008MOL0     H36031   8.922   8.760   8.051 -2.3854  0.7843  1.2820
 1008MOL0     H36032   8.779   8.779   8.291 -0.5730  1.8332 -0.6210
 1008MOL0     H36033   8.861   8.826   8.433 -0.9675 -1.6737 -0.3510
 1008MOL0     H36034   8.855   9.081   8.351 -0.2969 -0.2759  2.2668
 1008MOL0     H36035   8.805   9.008   8.195 -2.2470 -0.6167 -0.5713
 1008MOL0     H36036   8.646   8.977   8.457 -0.8215  0.1299  0.8874
 1008MOL0     H36037   8.595   8.917   8.301  0.1823  0.2156 -0.0046
 1008MOL0     H36038   8.477   9.122   8.346 -1.2906 -1.3693 -4.8582
 1008MOL0     H36039   8.596   9.131   8.216  1.3094  2.6555  0.5745
 1008MOL0     H36040   8.810   9.383   8.488  0.5586  0.5592  0.3204
 1008MOL0     H36041   8.748   9.595   8.625  1.3600  1.0712 -0.5505
 1008MOL0     H36042   8.101   9.790   8.703 -0.8278  1.9268  0.3918
 1008MOL0     H36043   8.023  10.010   8.669 -2.9173 -2.9866 -4.3318
 1008MOL0     H36044   8.227  10.247   8.347 -0.3968  1.3139 -0.5050
 1008MOL0     H36045   8.080  10.156   8.345  0.7179 -1.1790  1.3692
 1008MOL0     H36046   8.114  10.443   8.439 -1.2500 -0.2957  0.9656
 1008MOL0     H36047   8.023  10.382   8.290 -3.5135  1.6629  1.2375
 1008MOL0     H36048   7.873  10.275   8.462  3.6322 -2.8388  1.4515
 1008MOL0     H36049   7.976  10.372   8.580  2.2646 -0.0404 -1.0339
 1008MOL0     H36050   7.796  10.505   8.368 -0.7707  0.4104 -0.6335
 1008MOL0     H36051   7.886  10.573   8.507 -2.1374  0.4606 -0.2263
 1008MOL0     H36052   7.724  10.446   8.664  0.8834 -1.8203 -0.5668
 1008MOL0     H36053   7.647  10.377   8.529  0.9390 -1.0877  2.6325
 1008MOL0     H36054   7.607  10.615   8.432 -1.2948  3.1246  0.1819
 1008MOL0     H36055   7.506  10.565   8.569  1.4383  1.2929  4.8496
 1008MOL0     H36056   7.762  10.726   8.604  0.7818  0.9792  3.4714
 1008MOL0     H36057   7.637  10.700   8.729 -0.9398 -1.5648  0.0501
 1008MOL0     H36058   7.592  10.846   8.462 -1.3668  2.8485  0.1982
 1008MOL0     H36059   7.489  10.835   8.608 -0.4852 -0.0961 -0.1385
 1008MOL0     H36060   8.379  10.125   8.461  2.1068 -1.2545  0.0818
 1008MOL0     H36061   8.479   9.919   8.515 -0.0236  0.0800  2.1841
 1008MOL0     H36062   8.337   9.501   8.547  0.9296  0.8661  1.7792
 1008MOL0     H36063   8.386   9.313   8.430 -0.2389  0.9157  3.1126
 1008MOL0     H36064  10.328   8.890   7.693  0.1784  1.8761 -2.1421
 1008MOL0     H36065  10.520   9.015   7.701  0.8428 -1.9130  1.0149
 1008MOL0     H36066  10.677   9.482   7.509 -0.8240  1.1598  0.0204
 1008MOL0     H36067  10.864   9.643   7.519  0.8530  0.7309  0.5229
 1008MOL0     H36068  11.123   9.649   7.854  0.2155  2.4030  3.6829
 1008MOL0     H36069  11.029   9.797   7.870 -1.2619 -1.2373  0.1156
 1008MOL0     H36070  11.155   9.928   7.713  1.8070  1.6242  1.4162
 1008MOL0     H36071  11.258   9.779   7.678 -0.5867  1.6345 -3.7936
 1008MOL0     H36072  11.306   9.783   7.934  0.3794 -0.0516 -0.8700
 1008MOL0     H36073  11.227   9.940   7.919 -0.0859 -1.4235  0.4227
 1008MOL0     H36074  11.484   9.985   7.888  1.0148  1.5616 -1.8844
 1008MOL0     H36075  11.479   9.856   7.761  0.3354  1.1471 -1.9555
 1008MOL0     H36076  11.402  10.207   7.561  1.0656 -0.0016 -1.3682
 1008MOL0     H36077  10.901   9.607   7.933 -0.1845  1.8398 -0.9922
 1008MOL0     H36078  10.584   9.492   7.975  0.5072  1.0762 -1.2330
 1008MOL0     H36079  10.682   9.340   7.996 -1.3127 -0.2883  1.1304
 1008MOL0     H36080  10.741   9.486   8.059 -3.7241 -1.4297  2.4367
 1009MOL0     O36081   6.324   4.133   9.542 -0.3712  0.4788  0.4145
 1009MOL0     C36082   6.207   4.160   9.546 -0.6560 -0.4663 -0.0274
 1009MOL0     O36083   6.162   4.288   9.550  0.2960  0.8881  0.5326
 1009MOL0     C36084   6.243   4.380   9.608  0.9470 -0.1484  0.2854
 1009MOL0     C36085   6.247   4.510   9.546 -0.1288 -0.9048 -0.0660
 1009MOL0     C36086   6.329   4.613   9.603  0.8305 -0.2136  0.6322
 1009MOL0     C36087   6.407   4.590   9.711 -0.3965  0.2657 -0.1048
 1009MOL0     O36088   6.502   4.674   9.754 -0.6343  0.2766 -0.2114
 1009MOL0     C36089   6.467   4.814   9.758 -0.3441 -0.0336  0.3171
 1009MOL0     C36090   6.524   4.879   9.632 -0.4086 -0.0500  0.1782
 1009MOL0     C36091   6.663   4.936   9.650 -0.1896 -0.4494  0.1077
 1009MOL0     C36092   6.717   5.000   9.522  0.0094 -0.7881 -0.1854
 1009MOL0     C36093   6.858   5.059   9.562  0.4096 -0.0334 -0.6352
 1009MOL0     C36094   6.904   5.142   9.455 -0.4095  0.3307  1.1113
 1009MOL0     C36095   7.035   5.208   9.491 -0.6461  0.5515  0.8986
 1009MOL0     C36096   7.007   5.332   9.569 -0.0118  0.2482 -1.2547
 1009MOL0     N36097   7.130   5.409   9.578 -0.0329 -0.5859  0.2988
 1009MOL0     C36098   7.258   5.358   9.586  0.7295 -0.2561  0.6956
 1009MOL0     C36099   7.338   5.472   9.594 -0.3120  0.7514 -0.7649
 1009MOL0     C36100   7.482   5.481   9.593 -0.6530 -1.1548 -0.5407
 1009MOL0     C36101   7.542   5.549   9.719 -0.0257 -0.0194  0.5459
 1009MOL0     C36102   7.685   5.575   9.700  0.6756 -0.0756 -0.6860
 1009MOL0     C36103   7.791   5.465   9.682 -0.1088 -0.4540  0.5247
 1009MOL0     O36104   7.790   5.380   9.562 -0.2436  0.2896  0.2866
 1009MOL0     C36105   7.888   5.281   9.541 -0.1576 -0.6435  0.0169
 1009MOL0     C36106   7.986   5.243   9.636  0.6578  0.6831  0.4183
 1009MOL0     C36107   8.094   5.159   9.601  0.1017  0.2711 -0.4238
 1009MOL0     C36108   8.106   5.110   9.469  0.5235  0.8984 -0.3054
 1009MOL0     C36109   8.208   5.018   9.425 -0.8434  0.0229 -1.0374
 1009MOL0     O36110   8.313   4.993   9.511 -0.1542 -0.1741  0.3972
 1009MOL0     C36111   8.441   4.958   9.468  0.7740  0.0086  0.3387
 1009MOL0     C36112   8.527   4.885   9.559  0.6488 -0.7777  0.2880
 1009MOL0     C36113   8.658   4.853   9.522 -0.4281  0.2459 -0.4697
 1009MOL0     C36114   8.705   4.881   9.391 -0.5645 -0.9817 -0.0009
 1009MOL0     O36115   8.835   4.846   9.350  0.3596  0.3611  0.5195
 1009MOL0     C36116   8.892   4.740   9.423 -0.6446 -0.8118 -0.4032
 1009MOL0     C36117   9.015   4.690   9.347 -0.3385  0.0858  0.2883
 1009MOL0     C36118   9.115   4.607   9.422 -0.0207 -0.4288 -0.3265
 1009MOL0     C36119   9.159   4.473   9.371 -1.1350 -0.2817  0.2550
 1009MOL0     C36120   9.260   4.407   9.464  0.0731  0.6629  0.1017
 1009MOL0     C36121   9.298   4.263   9.418 -0.3711 -0.0449 -0.1904
 1009MOL0     C36122   9.192   4.164   9.453 -0.0934  0.1382 -0.0869
 1009MOL0     C36123   9.221   4.023   9.410 -0.6689  0.5864  0.2028
 1009MOL0    Cl36124   9.170   3.973   9.242 -0.6860  0.2778  0.1209
 1009MOL0     C36125   8.618   4.955   9.301 -0.9636 -0.2217  0.6353
 1009MOL0     C36126   8.488   4.988   9.341  0.7938 -0.4911 -0.7654
 1009MOL0     O36127   8.199   4.966   9.315 -0.2728  0.4470  1.0646
 1009MOL0     C36128   8.003   5.146   9.377 -0.8043  1.1620 -0.1434
 1009MOL0     C36129   7.898   5.236   9.410 -1.4326 -0.3278  0.6488
 1009MOL0     N36130   7.260   5.586   9.621 -0.2129  0.2540  0.0967
 1009MOL0     N36131   7.137   5.540   9.601 -0.6259 -0.0168 -0.5392
 1009MOL0     C36132   6.408   4.466   9.774 -0.0015  0.4353  0.2198
 1009MOL0     C36133   6.329   4.363   9.715  0.2116 -0.1599  1.1693
 1009MOL0     C36134   6.102   4.052   9.533 -0.1800 -0.6510 -0.1127
 1009MOL0     C36135   5.960   4.103   9.534 -0.8111  0.0764 -0.8712
 1009MOL0     C36136   5.852   4.007   9.510 -0.3709 -0.4196  0.1892
 1009MOL0     C36137   5.878   3.880   9.489  0.7544 -0.6689  0.8146
 1009MOL0     O36138   5.781   3.785   9.466 -0.2442 -0.0342 -0.0459
 1009MOL0     C36139   5.645   3.812   9.520 -0.2457 -0.5250 -0.5166
 1009MOL0     C36140   5.584   3.682   9.581  0.1402  0.2492  0.2319
 1009MOL0     C36141   5.526   3.595   9.463 -0.4188 -0.1813  0.9248
 1009MOL0     C36142   5.441   3.485   9.503  0.3084  0.0572  0.1301
 1009MOL0     C36143   5.324   3.538   9.576  0.3967 -0.2358 -1.1083
 1009MOL0     C36144   5.218   3.588   9.619 -0.2099  0.5912 -0.2165
 1009MOL0     C36145   6.008   3.842   9.470  0.1139 -0.1213  0.3274
 1009MOL0     C36146   6.120   3.918   9.493  0.4536 -0.7849 -0.1356
 1009MOL0     C36147   6.257   3.837   9.473  0.3953 -0.0763 -0.0681
 1009MOL0     H36148   6.184   4.532   9.460 -0.3879 -2.8784 -0.4274
 1009MOL0     H36149   6.325   4.705   9.547  0.6944  0.8787  2.3691
 1009MOL0     H36150   6.358   4.826   9.758 -0.4532 -0.5003 -2.2165
 1009MOL0     H36151   6.509   4.868   9.843 -0.0852 -0.7763  0.6675
 1009MOL0     H36152   6.458   4.962   9.605  1.2960  0.4114 -3.0870
 1009MOL0     H36153   6.520   4.811   9.546  0.2443  2.4433 -1.9592
 1009MOL0     H36154   6.737   4.860   9.674  2.1252  1.2759 -1.1203
 1009MOL0     H36155   6.665   5.021   9.719  1.6397  1.2021 -1.8009
 1009MOL0     H36156   6.742   4.919   9.453 -0.9697 -0.0299 -1.4624
 1009MOL0     H36157   6.638   5.065   9.485 -1.7067 -1.6857  1.7525
 1009MOL0     H36158   6.842   5.121   9.651 -3.5666 -0.8856 -0.5795
 1009MOL0     H36159   6.935   4.985   9.584  0.4748 -0.2747 -1.6423
 1009MOL0     H36160   6.926   5.088   9.362  0.9900  1.7274  0.5905
 1009MOL0     H36161   6.834   5.220   9.424  1.0168  0.6178 -1.7312
 1009MOL0     H36162   7.084   5.233   9.396 -1.4769  1.3027  0.6595
 1009MOL0     H36163   7.106   5.145   9.545  2.3807  1.8185 -1.2981
 1009MOL0     H36164   6.928   5.384   9.514  0.3480  0.6444 -1.4032
 1009MOL0     H36165   6.985   5.315   9.675  4.6225  0.5254 -0.0281
 1009MOL0     H36166   7.289   5.256   9.563  1.5147  0.3302 -0.9944
 1009MOL0     H36167   7.531   5.383   9.583  0.3869 -0.6777 -0.1918
 1009MOL0     H36168   7.507   5.542   9.506 -0.3710  0.1582  0.4472
 1009MOL0     H36169   7.491   5.646   9.726 -0.6496 -0.1940 -1.1496
 1009MOL0     H36170   7.528   5.490   9.810  1.7654  1.5956  1.9522
 1009MOL0     H36171   7.717   5.627   9.791 -0.9466  1.1283 -0.7636
 1009MOL0     H36172   7.702   5.647   9.620 -2.6324  0.8855 -0.6601
 1009MOL0     H36173   7.777   5.401   9.769  2.9318  0.2179  1.6384
 1009MOL0     H36174   7.886   5.519   9.679 -1.6471  2.4098 -0.3368
 1009MOL0     H36175   7.981   5.282   9.737 -2.3997  0.4769  0.4299
 1009MOL0     H36176   8.171   5.145   9.676 -1.6294 -0.6327  1.2789
 1009MOL0     H36177   8.484   4.865   9.657  1.4357  0.3173  0.8796
 1009MOL0     H36178   8.716   4.799   9.596 -0.6260 -2.0941 -1.9221
 1009MOL0     H36179   8.925   4.768   9.524 -2.8088  1.1937 -0.1647
 1009MOL0     H36180   8.827   4.653   9.434  1.0970 -2.3027 -1.3373
 1009MOL0     H36181   8.975   4.626   9.268  0.4772  1.4784 -1.3194
 1009MOL0     H36182   9.057   4.778   9.297 -0.8651 -0.6073 -1.4666
 1009MOL0     H36183   9.206   4.667   9.434 -0.2965 -0.1851  0.6975
 1009MOL0     H36184   9.072   4.593   9.522 -0.2412  4.4632  0.5130
 1009MOL0     H36185   9.194   4.488   9.268 -1.0506  0.7033  0.4125
 1009MOL0     H36186   9.073   4.407   9.358 -1.4461 -0.4131  2.6337
 1009MOL0     H36187   9.218   4.404   9.566 -0.4068  0.9645 -0.0820
 1009MOL0     H36188   9.349   4.470   9.466 -0.0077  0.7999 -0.5203
 1009MOL0     H36189   9.317   4.248   9.311  1.0248  2.8520 -0.4356
 1009MOL0     H36190   9.391   4.236   9.469 -0.5895 -0.9854 -0.2655
 1009MOL0     H36191   9.095   4.196   9.412  0.4286 -0.5898 -1.9617
 1009MOL0     H36192   9.178   4.165   9.562 -1.7771  0.2700 -0.2732
 1009MOL0     H36193   9.330   4.022   9.420 -0.7499 -1.2590  1.3922
 1009MOL0     H36194   9.195   3.937   9.472  1.0074 -0.7300 -0.8323
 1009MOL0     H36195   8.654   4.998   9.208  0.1167  0.4854  1.3516
 1009MOL0     H36196   8.435   5.039   9.261 -0.6304  0.0695  0.5072
 1009MOL0     H36197   8.018   5.104   9.278  0.4974  1.2205  0.0025
 1009MOL0     H36198   7.828   5.278   9.338 -2.0280 -2.0945  0.1361
 1009MOL0     H36199   6.475   4.449   9.857  2.8791  2.4252 -1.5187
 1009MOL0     H36200   6.352   4.271   9.767  0.4328  1.0774  3.3883
 1009MOL0     H36201   5.922   4.201   9.560 -3.1282 -0.9875  0.1405
 1009MOL0     H36202   5.749   4.042   9.508 -0.2044  0.0998  0.4305
 1009MOL0     H36203   5.586   3.850   9.437 -1.1093  0.0272  0.3234
 1009MOL0     H36204   5.640   3.893   9.593  0.8246 -1.7900  1.0566
 1009MOL0     H36205   5.504   3.704   9.653 -1.6120 -1.4688 -1.0648
 1009MOL0     H36206   5.661   3.628   9.636  2.1074 -1.7970 -4.0812
 1009MOL0     H36207   5.610   3.539   9.420  1.8288  2.6327  1.3728
 1009MOL0     H36208   5.493   3.655   9.378  1.2254  0.7600  0.9122
 1009MOL0     H36209   5.402   3.426   9.419  3.7158  0.8732 -2.2489
 1009MOL0     H36210   5.501   3.416   9.565 -2.6694 -1.9615  1.0025
 1009MOL0     H36211   5.130   3.631   9.661 -0.5847 -2.1408  2.0788
 1009MOL0     H36212   6.020   3.737   9.444 -1.2411 -0.7234  1.9372
 1009MOL0     H36213   6.313   3.832   9.566  1.4412 -2.2156 -0.7455
 1009MOL0     H36214   6.248   3.741   9.422 -2.2225  1.2609 -2.4291
 1009MOL0     H36215   6.327   3.889   9.406 -0.0190 -0.5921 -0.9248
 1010MOL0     O36216   4.583   9.918  11.121 -0.0074 -0.6162  0.0033
 1010MOL0     C36217   4.541   9.958  11.010  0.0907 -0.0865 -0.4757
 1010MOL0     O36218   4.606   9.951  10.891 -0.3918  0.6255 -0.0185
 1010MOL0     C36219   4.729   9.886  10.891 -0.1271 -0.6855 -0.2517
 1010MOL0     C36220   4.848   9.956  10.881  0.3045  0.8342  0.8097
 1010MOL0     C36221   4.975   9.891  10.889  0.7003 -0.6724  0.0082
 1010MOL0     C36222   4.973   9.754  10.919 -0.3933  0.2741  0.5051
 1010MOL0     O36223   5.090   9.677  10.931  0.2984  0.0228  0.7741
 1010MOL0     C36224   5.218   9.710  10.868  0.6213  0.4520  0.1166
 1010MOL0     C36225   5.298   9.586  10.835  0.6918 -0.3133  0.1898
 1010MOL0     C36226   5.434   9.591  10.766  0.6823  0.6297  0.9233
 1010MOL0     C36227   5.505   9.456  10.766  0.1289  0.1162 -0.5198
 1010MOL0     C36228   5.630   9.444  10.676  0.3978  0.6534 -0.0656
 1010MOL0     C36229   5.605   9.439  10.521  0.3998  0.0816 -0.4809
 1010MOL0     C36230   5.727   9.409  10.439 -0.2573 -0.5590 -0.0327
 1010MOL0     C36231   5.714   9.430  10.284  0.2499  0.8855  0.3588
 1010MOL0     N36232   5.845   9.406  10.221 -0.4998 -0.3476  0.4081
 1010MOL0     C36233   5.897   9.285  10.189  0.7916  0.1408  0.9785
 1010MOL0     C36234   5.995   9.303  10.096  0.6146 -0.1621  0.2155
 1010MOL0     C36235   6.074   9.200  10.025  0.3839 -0.0509 -0.0226
 1010MOL0     C36236   6.195   9.143  10.095 -0.9227  0.8552  0.1192
 1010MOL0     C36237   6.240   9.003  10.052 -0.1009 -0.7015  0.0469
 1010MOL0     C36238   6.251   8.979   9.906  0.8712 -0.1739  0.6912
 1010MOL0     O36239   6.322   9.083   9.838  0.0591 -0.0876 -0.2179
 1010MOL0     C36240   6.446   9.080   9.797 -1.1448 -0.0654 -0.8435
 1010MOL0     C36241   6.481   9.180   9.710  0.2762  0.0001 -0.0721
 1010MOL0     C36242   6.601   9.196   9.660 -0.9669  0.4859  0.3473
 1010MOL0     C36243   6.712   9.113   9.699  0.3857  1.0265 -0.1046
 1010MOL0     C36244   6.855   9.135   9.653  0.0659  0.1810  0.7479
 1010MOL0     O36245   6.955   9.113   9.740  0.4715  0.8424 -0.2847
 1010MOL0     C36246   7.086   9.129   9.704 -0.2603  0.9640  1.3980
 1010MOL0     C36247   7.153   9.026   9.639  0.5452  0.2991 -0.0935
 1010MOL0     C36248   7.294   9.025   9.633 -0.2409 -0.1089 -0.5113
 1010MOL0     C36249   7.372   9.135   9.673 -0.2739  0.0244 -0.9500
 1010MOL0     O36250   7.508   9.122   9.668 -0.3648 -0.6096  1.0057
 1010MOL0     C36251   7.588   9.211   9.752  0.3177  0.2432 -0.2744
 1010MOL0     C36252   7.734   9.169   9.771  0.2938  0.1940 -0.0337
 1010MOL0     C36253   7.808   9.258   9.867 -0.4646  0.2633 -0.2499
 1010MOL0     C36254   7.931   9.189   9.925 -0.6466  0.2256  0.0727
 1010MOL0     C36255   8.036   9.289   9.969 -0.4674 -1.6575 -0.2460
 1010MOL0     C36256   8.161   9.213  10.023  0.2039  0.4778 -0.4804
 1010MOL0     C36257   8.270   9.313  10.077 -0.1307 -0.8720 -1.0505
 1010MOL0     C36258   8.390   9.244  10.140 -0.2871 -0.2339  0.0732
 1010MOL0    Cl36259   8.515   9.363  10.160  0.0071 -0.3402 -0.4809
 1010MOL0     C36260   7.304   9.236   9.736  0.6449 -0.1388  0.1923
 1010MOL0     C36261   7.162   9.235   9.759 -1.3753  0.1092  0.3910
 1010MOL0     O36262   6.863   9.190   9.540  0.0656  0.4313 -0.2922
 1010MOL0     C36263   6.690   9.013   9.804 -0.2457  1.3829  0.5561
 1010MOL0     C36264   6.551   8.992   9.836 -0.0212 -0.0277 -0.7154
 1010MOL0     N36265   6.000   9.444  10.078  0.4271 -0.0810  0.7200
 1010MOL0     N36266   5.908   9.498  10.146  0.2180 -0.3440  0.6362
 1010MOL0     C36267   4.850   9.691  10.935 -0.3251  1.1555 -0.6236
 1010MOL0     C36268   4.731   9.745  10.910 -0.2345 -0.3506  0.4714
 1010MOL0     C36269   4.394  10.002  11.006 -0.6003  0.1899  0.1974
 1010MOL0     C36270   4.334  10.030  11.129 -0.3042  0.1371 -0.0476
 1010MOL0     C36271   4.206  10.094  11.130  0.0324  0.0270 -0.7229
 1010MOL0     C36272   4.126  10.125  11.023 -0.1265 -0.1518 -0.2298
 1010MOL0     O36273   4.008  10.192  11.041 -0.0174 -0.4075 -0.6670
 1010MOL0     C36274   3.952  10.250  10.924  0.1709 -0.0296  0.4524
 1010MOL0     C36275   3.849  10.354  10.965 -0.8907 -0.2495  0.2740
 1010MOL0     C36276   3.769  10.421  10.859  0.3751  0.5876 -0.3884
 1010MOL0     C36277   3.731  10.562  10.909 -0.8933  0.2382 -0.3068
 1010MOL0     C36278   3.664  10.634  10.798 -0.2898  0.2628 -0.4275
 1010MOL0     C36279   3.612  10.671  10.688  0.0513 -0.4579 -0.6131
 1010MOL0     C36280   4.189  10.105  10.904 -0.3541 -0.9495 -0.1148
 1010MOL0     C36281   4.311  10.039  10.894  0.2441  0.2782  0.2959
 1010MOL0     C36282   4.356  10.027  10.756  0.5815  0.1915  0.7425
 1010MOL0     H36283   4.839  10.062  10.861  2.2559  0.7422 -0.8900
 1010MOL0     H36284   5.061   9.958  10.880 -1.7173  2.5149 -1.6747
 1010MOL0     H36285   5.202   9.771  10.778 -2.2633  1.9332  1.5128
 1010MOL0     H36286   5.283   9.772  10.930  0.3070  1.1500 -0.2301
 1010MOL0     H36287   5.230   9.515  10.787 -0.8436 -1.7545  4.1095
 1010MOL0     H36288   5.319   9.531  10.927 -0.0586 -0.4685  0.2716
 1010MOL0     H36289   5.485   9.667  10.826 -1.1891  0.3530  2.9857
 1010MOL0     H36290   5.423   9.619  10.661 -0.5976 -6.1566 -1.2525
 1010MOL0     H36291   5.544   9.436  10.866  2.8335 -1.1617 -1.7397
 1010MOL0     H36292   5.435   9.378  10.734  0.0199  0.9485 -2.4586
 1010MOL0     H36293   5.694   9.528  10.702 -1.1983  1.9533 -0.1849
 1010MOL0     H36294   5.671   9.346  10.703 -0.1482  0.1326 -1.0619
 1010MOL0     H36295   5.525   9.366  10.505  0.3993 -0.3854  1.4852
 1010MOL0     H36296   5.569   9.538  10.491  0.9945  0.6856  0.7437
 1010MOL0     H36297   5.764   9.308  10.460  1.9759 -0.2375 -1.9229
 1010MOL0     H36298   5.809   9.472  10.476  0.0288 -0.3267 -1.0245
 1010MOL0     H36299   5.637   9.361  10.246 -1.9687  2.6821  1.3734
 1010MOL0     H36300   5.679   9.530  10.258  0.5227  1.5051  2.2746
 1010MOL0     H36301   5.856   9.186  10.203 -0.0165  0.4418  0.7844
 1010MOL0     H36302   6.009   9.114  10.004  0.3617 -0.6827  2.3826
 1010MOL0     H36303   6.098   9.244   9.927  1.1163 -0.1901  0.0841
 1010MOL0     H36304   6.279   9.212  10.082  0.1767  0.2721  3.2883
 1010MOL0     H36305   6.183   9.147  10.204  0.4218 -0.1963  0.3271
 1010MOL0     H36306   6.171   8.927  10.090 -1.0418  0.3687  0.5265
 1010MOL0     H36307   6.336   8.980  10.099  0.1178 -1.1330 -0.5962
 1010MOL0     H36308   6.149   8.972   9.868  0.4582 -2.2757  2.0359
 1010MOL0     H36309   6.288   8.879   9.885 -0.6880 -0.4455 -0.9410
 1010MOL0     H36310   6.403   9.247   9.677  1.8575  1.8273 -0.2458
 1010MOL0     H36311   6.616   9.273   9.585  3.0886 -1.2234 -0.8822
 1010MOL0     H36312   7.093   8.936   9.630  0.6931 -0.1317  2.4358
 1010MOL0     H36313   7.351   8.940   9.597  0.1652  1.0471 -2.7574
 1010MOL0     H36314   7.587   9.308   9.702 -0.1270 -0.3341 -1.4112
 1010MOL0     H36315   7.533   9.223   9.846 -1.7914 -0.3122 -1.3676
 1010MOL0     H36316   7.729   9.065   9.805 -2.0775  0.2793  0.0494
 1010MOL0     H36317   7.780   9.169   9.671 -0.4201 -0.6950 -0.3743
 1010MOL0     H36318   7.843   9.346   9.813 -1.2779  0.4495 -0.4822
 1010MOL0     H36319   7.744   9.292   9.949  0.3569 -0.3415  0.6562
 1010MOL0     H36320   7.986   9.136   9.847 -0.7177  0.5911 -0.2274
 1010MOL0     H36321   7.909   9.130  10.014  1.7152  0.3382  0.8004
 1010MOL0     H36322   8.004   9.364  10.042  1.9026  2.8796 -3.3434
 1010MOL0     H36323   8.069   9.349   9.884 -2.5348  0.9244  0.6443
 1010MOL0     H36324   8.116   9.154  10.103 -4.9036  0.9573 -2.5800
 1010MOL0     H36325   8.195   9.138   9.951  2.9081  0.2102  0.9709
 1010MOL0     H36326   8.222   9.378  10.150 -2.4929 -0.3923 -2.8997
 1010MOL0     H36327   8.303   9.369   9.990 -0.4657 -0.7782 -1.1159
 1010MOL0     H36328   8.367   9.192  10.234 -2.4594 -1.7538 -1.2235
 1010MOL0     H36329   8.427   9.166  10.073  1.6765  2.7524 -2.6049
 1010MOL0     H36330   7.361   9.319   9.778 -1.8164  2.0815 -0.5991
 1010MOL0     H36331   7.123   9.315   9.822  2.5256  0.9419  2.0199
 1010MOL0     H36332   6.773   8.961   9.849  1.4027  2.9919 -0.4970
 1010MOL0     H36333   6.517   8.924   9.913  0.4749 -1.4881 -1.7453
 1010MOL0     H36334   4.858   9.588  10.970  1.4498  1.4343 -0.0986
 1010MOL0     H36335   4.639   9.689  10.921  0.0169 -0.9347 -0.3643
 1010MOL0     H36336   4.385  10.009  11.223  1.9790 -1.3377 -1.5221
 1010MOL0     H36337   4.173  10.119  11.231  3.2254 -0.1783  0.4835
 1010MOL0     H36338   3.899  10.171  10.869  1.2406  0.1740 -0.8941
 1010MOL0     H36339   4.017  10.313  10.863 -2.7435  1.9695 -0.7948
 1010MOL0     H36340   3.903  10.426  11.027 -3.5941  0.1161  2.4505
 1010MOL0     H36341   3.782  10.303  11.035  1.5332 -0.2321  2.7652
 1010MOL0     H36342   3.680  10.360  10.841  0.2311  0.1126  1.7115
 1010MOL0     H36343   3.823  10.426  10.764 -0.0828  1.1416 -0.6259
 1010MOL0     H36344   3.664  10.557  10.995 -1.8633 -2.7433 -1.1021
 1010MOL0     H36345   3.830  10.609  10.919 -0.5334  0.1940 -2.8391
 1010MOL0     H36346   3.559  10.711  10.605  2.7757  1.1347 -1.7145
 1010MOL0     H36347   4.133  10.133  10.815 -0.5376 -2.9692 -0.6866
 1010MOL0     H36348   4.274  10.047  10.687  0.5967 -0.8274  0.4144
 1010MOL0     H36349   4.447  10.088  10.745 -1.1773  3.1044  1.2363
 1010MOL0     H36350   4.390   9.926  10.731  0.3780  0.3312 -0.1058
 1011MOL0     O36351   1.271   7.832   3.134  0.6388  0.1193 -0.1682
 1011MOL0     C36352   1.186   7.878   3.061 -0.4312  0.4924  0.0127
 1011MOL0     O36353   1.055   7.909   3.102  0.2483  0.4571  0.2929
 1011MOL0     C36354   1.015   7.911   3.235 -0.3748  0.0109  0.8338
 1011MOL0     C36355   0.881   7.912   3.248  0.4607 -0.6100 -0.3057
 1011MOL0     C36356   0.815   7.896   3.374  0.3049  0.1387  0.4489
 1011MOL0     C36357   0.899   7.884   3.495 -0.0108  0.3887 -0.1761
 1011MOL0     O36358   0.828   7.881   3.607 -0.0726 -0.3889  1.0091
 1011MOL0     C36359   0.898   7.810   3.715  0.5004 -0.2629  0.4938
 1011MOL0     C36360   0.806   7.773   3.841 -1.0185  0.5904  0.5340
 1011MOL0     C36361   0.880   7.778   3.972 -0.2304  0.1541 -0.2524
 1011MOL0     C36362   0.964   7.647   3.992 -0.7669  0.8452 -0.1291
 1011MOL0     C36363   1.089   7.662   4.080  0.4688  0.2183  0.4652
 1011MOL0     C36364   1.165   7.540   4.140 -0.1461  1.0449 -0.2030
 1011MOL0     C36365   1.207   7.442   4.029  0.5758 -0.2551 -0.3870
 1011MOL0     C36366   1.255   7.310   4.079  0.8017  0.6959  0.0570
 1011MOL0     N36367   1.148   7.247   4.161  0.0131 -0.4752 -0.6317
 1011MOL0     C36368   1.027   7.198   4.122 -0.1686  0.0383  0.0957
 1011MOL0     C36369   0.976   7.142   4.234 -0.2471 -0.3894 -0.3105
 1011MOL0     C36370   0.849   7.070   4.252  0.2031  0.0470 -0.0566
 1011MOL0     C36371   0.879   6.922   4.240 -1.2155  0.2794 -0.5404
 1011MOL0     C36372   0.760   6.837   4.279 -0.3208 -0.1364  0.8133
 1011MOL0     C36373   0.761   6.692   4.214 -0.4466  0.7516 -1.1119
 1011MOL0     O36374   0.882   6.624   4.265 -0.1466  0.7179  0.1068
 1011MOL0     C36375   0.922   6.526   4.181 -0.1997 -0.5184 -0.2198
 1011MOL0     C36376   0.936   6.538   4.045  0.0049 -0.5876  0.1561
 1011MOL0     C36377   0.993   6.433   3.972 -0.2694  0.3032 -0.0468
 1011MOL0     C36378   1.037   6.315   4.036 -0.0322 -0.9161  0.1478
 1011MOL0     C36379   1.083   6.187   3.957  0.7487 -0.2173  0.8105
 1011MOL0     O36380   1.052   6.174   3.829  0.1373 -0.1761 -0.2944
 1011MOL0     C36381   1.134   6.095   3.750 -0.4259 -0.0437  0.1059
 1011MOL0     C36382   1.263   6.137   3.698 -0.4883  0.5528 -0.2509
 1011MOL0     C36383   1.332   6.045   3.620  0.8315  0.1877  1.0678
 1011MOL0     C36384   1.274   5.912   3.593 -0.0952 -0.5220 -0.4636
 1011MOL0     O36385   1.341   5.817   3.528 -0.1055 -0.8416  0.9418
 1011MOL0     C36386   1.468   5.849   3.471 -0.1105 -0.1723  0.7865
 1011MOL0     C36387   1.539   5.733   3.405  0.4898  0.1038 -0.0010
 1011MOL0     C36388   1.512   5.718   3.253 -0.3991 -0.2972  0.2535
 1011MOL0     C36389   1.372   5.665   3.221 -0.2395  0.1491 -0.2908
 1011MOL0     C36390   1.368   5.634   3.065  0.1892  0.0060 -1.1552
 1011MOL0     C36391   1.240   5.556   3.020  0.2935  0.1065  0.0044
 1011MOL0     C36392   1.118   5.640   2.997 -0.1462  0.9970  0.2723
 1011MOL0     C36393   1.014   5.541   2.958  0.1635 -0.2829 -0.6428
 1011MOL0    Cl36394   0.854   5.615   2.948 -0.4382 -0.5324 -0.2476
 1011MOL0     C36395   1.154   5.879   3.653 -0.4544  0.4879  0.8483
 1011MOL0     C36396   1.088   5.970   3.724  1.2387  0.4704 -0.5511
 1011MOL0     O36397   1.150   6.110   4.023  0.0718  0.7847 -0.0134
 1011MOL0     C36398   1.030   6.310   4.178  0.2676  0.7044  0.4151
 1011MOL0     C36399   0.976   6.414   4.244  0.1650 -0.8711 -0.2708
 1011MOL0     N36400   1.055   7.180   4.344 -0.3442 -0.2215  0.4468
 1011MOL0     N36401   1.154   7.235   4.301 -0.5815 -0.5091 -0.0580
 1011MOL0     C36402   1.041   7.886   3.473 -0.4511 -0.5922  0.5624
 1011MOL0     C36403   1.096   7.898   3.342  0.6597  0.2028 -0.0812
 1011MOL0     C36404   1.231   7.929   2.926  0.0446 -0.7267 -0.1935
 1011MOL0     C36405   1.169   8.051   2.887  0.5546  0.0158  0.6102
 1011MOL0     C36406   1.201   8.108   2.762  0.1701  0.3129 -0.0009
 1011MOL0     C36407   1.275   8.037   2.666  0.0267 -0.3806  0.3934
 1011MOL0     O36408   1.272   8.092   2.543 -1.2753  0.1736 -0.0795
 1011MOL0     C36409   1.252   8.001   2.437  0.5353 -0.0305  0.1723
 1011MOL0     C36410   1.117   7.923   2.443 -0.1273 -1.2258 -0.7954
 1011MOL0     C36411   1.004   8.037   2.422  0.9710 -0.1329 -0.3279
 1011MOL0     C36412   0.861   7.990   2.462 -0.7157  0.5599  0.1959
 1011MOL0     C36413   0.846   7.952   2.606 -0.1125 -0.1792  0.1081
 1011MOL0     C36414   0.840   7.918   2.727  0.4288 -0.2318  0.3651
 1011MOL0     C36415   1.345   7.926   2.706  0.4529  0.2447 -0.5474
 1011MOL0     C36416   1.328   7.876   2.837 -0.7155 -0.7550  0.1895
 1011MOL0     C36417   1.398   7.760   2.876  0.0248  0.9423  0.1569
 1011MOL0     H36418   0.826   7.930   3.156  1.5579 -1.1905 -1.1007
 1011MOL0     H36419   0.707   7.899   3.377  0.2573 -0.8806  0.2467
 1011MOL0     H36420   0.938   7.718   3.672 -0.1033 -0.0442 -0.5707
 1011MOL0     H36421   0.983   7.868   3.751  0.0077 -0.5468  2.2189
 1011MOL0     H36422   0.757   7.677   3.825 -2.4533  1.5022 -0.9162
 1011MOL0     H36423   0.723   7.845   3.841 -0.9281  0.6963  1.0608
 1011MOL0     H36424   0.808   7.792   4.053 -0.0251  0.2001 -0.0790
 1011MOL0     H36425   0.936   7.871   3.980 -1.1101  0.5901  1.2525
 1011MOL0     H36426   0.897   7.573   4.037  1.1142  0.1016  1.6138
 1011MOL0     H36427   0.995   7.611   3.893  0.3021  3.6549 -0.9135
 1011MOL0     H36428   1.164   7.702   4.011  0.2985  0.2197  0.2771
 1011MOL0     H36429   1.060   7.725   4.164 -0.0537 -2.0516  2.0687
 1011MOL0     H36430   1.251   7.575   4.198  0.3718 -1.5808  0.7688
 1011MOL0     H36431   1.086   7.503   4.206  0.3432  0.7106  0.2033
 1011MOL0     H36432   1.289   7.492   3.977 -1.2224  2.1000 -1.1041
 1011MOL0     H36433   1.131   7.429   3.952  1.3231  2.2398 -1.6395
 1011MOL0     H36434   1.282   7.241   3.998  0.2782 -0.7363  1.0598
 1011MOL0     H36435   1.342   7.330   4.140  0.3761 -0.7949  1.2174
 1011MOL0     H36436   0.978   7.203   4.026  1.6037 -0.0556 -0.8428
 1011MOL0     H36437   0.799   7.091   4.347  1.1016 -2.9736  1.2118
 1011MOL0     H36438   0.777   7.093   4.174  0.4862 -2.3336 -1.1094
 1011MOL0     H36439   0.899   6.909   4.133 -1.8315  0.1542 -0.6451
 1011MOL0     H36440   0.968   6.894   4.298 -1.6858 -1.4951 -0.6153
 1011MOL0     H36441   0.666   6.883   4.246 -0.0396 -1.0277 -1.3792
 1011MOL0     H36442   0.763   6.829   4.388  2.5318  0.2615  0.8293
 1011MOL0     H36443   0.753   6.687   4.105  0.7333 -3.9566 -1.2246
 1011MOL0     H36444   0.671   6.643   4.252 -0.0746  1.1204  0.3002
 1011MOL0     H36445   0.914   6.629   3.990  1.2146  0.1011  0.7856
 1011MOL0     H36446   0.995   6.440   3.863  2.0612  2.7762  0.0311
 1011MOL0     H36447   1.301   6.237   3.713  0.3907  0.0756  0.8063
 1011MOL0     H36448   1.431   6.053   3.577  1.3958 -4.6624  0.9116
 1011MOL0     H36449   1.461   5.937   3.406  1.6402  0.2829  1.1406
 1011MOL0     H36450   1.529   5.877   3.558  0.0949  1.2635  0.2113
 1011MOL0     H36451   1.647   5.753   3.415  0.2071  1.5673  0.4096
 1011MOL0     H36452   1.516   5.634   3.445 -0.2623 -0.6408 -2.1767
 1011MOL0     H36453   1.523   5.816   3.206 -0.6125 -1.1056 -1.5625
 1011MOL0     H36454   1.589   5.650   3.216  0.1253  1.1803 -1.4953
 1011MOL0     H36455   1.292   5.735   3.246  0.3348  0.8636 -0.3885
 1011MOL0     H36456   1.363   5.579   3.287  1.1129 -0.1668 -0.4956
 1011MOL0     H36457   1.448   5.563   3.041 -0.3648 -0.4747 -1.6138
 1011MOL0     H36458   1.384   5.730   3.017 -2.6968  0.3500 -1.5882
 1011MOL0     H36459   1.257   5.509   2.922  0.0031 -2.0742  0.9327
 1011MOL0     H36460   1.219   5.480   3.096 -0.8523  0.0502 -0.3520
 1011MOL0     H36461   1.139   5.713   2.919  0.6881 -0.6456 -1.1160
 1011MOL0     H36462   1.084   5.682   3.092 -0.8962  0.8822  0.0557
 1011MOL0     H36463   1.035   5.495   2.861 -0.9153 -3.0545  0.3409
 1011MOL0     H36464   1.005   5.462   3.033  1.7093  1.2445  1.2651
 1011MOL0     H36465   1.122   5.775   3.644 -0.1047  0.4625 -0.2896
 1011MOL0     H36466   1.003   5.930   3.778 -0.2298  0.3356 -2.8055
 1011MOL0     H36467   1.066   6.228   4.239  0.7716  1.3421  1.0029
 1011MOL0     H36468   0.974   6.410   4.352  2.1184  2.2202 -0.0005
 1011MOL0     H36469   1.108   7.873   3.558  2.5919  0.4426 -1.5188
 1011MOL0     H36470   1.203   7.916   3.336  0.7147  0.1688  0.7266
 1011MOL0     H36471   1.095   8.110   2.942  1.3668  2.6454 -0.9009
 1011MOL0     H36472   1.153   8.202   2.737 -0.4323 -0.3532 -1.4583
 1011MOL0     H36473   1.339   7.936   2.432  0.4515 -0.2088  0.9338
 1011MOL0     H36474   1.251   8.056   2.342  1.4254  0.0921  0.2308
 1011MOL0     H36475   1.109   7.878   2.542  0.8137  3.2693  1.5844
 1011MOL0     H36476   1.109   7.850   2.362 -0.4005 -1.2735 -0.7264
 1011MOL0     H36477   1.010   8.056   2.314  0.1152 -2.5126 -0.8653
 1011MOL0     H36478   1.023   8.125   2.484 -0.3870 -0.3745  0.4710
 1011MOL0     H36479   0.792   8.074   2.455  1.7365  3.0155  3.0880
 1011MOL0     H36480   0.830   7.905   2.400 -0.3704  0.1158  0.6219
 1011MOL0     H36481   0.838   7.909   2.834  1.0722  2.8834  0.7460
 1011MOL0     H36482   1.401   7.885   2.623 -2.2620  0.5828 -2.7057
 1011MOL0     H36483   1.336   7.675   2.907  3.5048 -2.0483 -0.3485
 1011MOL0     H36484   1.443   7.705   2.793 -3.8922 -0.6929 -1.0960
 1011MOL0     H36485   1.472   7.774   2.956  0.9012 -1.8141 -0.0570
 1012MOL0     O36486   1.232  11.012   1.974  0.7128  0.7863  0.3801
 1012MOL0     C36487   1.192  11.105   1.902 -0.1136 -0.8470  0.0008
 1012MOL0     O36488   1.275  11.197   1.848 -0.5355  0.1075 -0.6570
 1012MOL0     C36489   1.408  11.172   1.827 -0.3253  0.3812  0.2452
 1012MOL0     C36490   1.459  11.056   1.755 -0.7983  0.0754 -0.8341
 1012MOL0     C36491   1.594  11.033   1.729 -0.2154  0.6897  0.5883
 1012MOL0     C36492   1.687  11.137   1.756 -0.2660  0.1100 -0.4297
 1012MOL0     O36493   1.821  11.132   1.738  0.5630  0.1748 -0.1538
 1012MOL0     C36494   1.875  11.005   1.708  0.8463  0.9851  0.0707
 1012MOL0     C36495   2.023  11.007   1.702  0.7240  0.1043 -0.7024
 1012MOL0     C36496   2.078  11.090   1.583  0.2707 -0.2544 -0.3048
 1012MOL0     C36497   2.213  11.039   1.548 -0.3084  0.6354 -0.0938
 1012MOL0     C36498   2.287  11.106   1.432 -0.6184  0.4159 -0.5571
 1012MOL0     C36499   2.205  11.162   1.323 -0.0168 -0.4726 -0.2578
 1012MOL0     C36500   2.289  11.211   1.199  0.7446  0.7119  0.5945
 1012MOL0     C36501   2.378  11.336   1.222 -0.6057 -0.2856 -0.3645
 1012MOL0     N36502   2.455  11.371   1.106 -0.9703  0.8242  1.1544
 1012MOL0     C36503   2.549  11.287   1.046 -0.7744 -0.3700 -0.3880
 1012MOL0     C36504   2.606  11.370   0.950 -0.1989 -1.1982 -0.5112
 1012MOL0     C36505   2.719  11.330   0.856  0.4764  0.0818  0.2808
 1012MOL0     C36506   2.853  11.327   0.921 -0.0652  0.2138 -0.2541
 1012MOL0     C36507   2.955  11.300   0.814  0.2980 -0.2888  0.1784
 1012MOL0     C36508   3.098  11.287   0.868  0.4123  0.2676  0.1118
 1012MOL0     O36509   3.146  11.413   0.906 -0.2886 -0.0083 -0.3207
 1012MOL0     C36510   3.282  11.421   0.928  0.0008 -0.3166 -0.2595
 1012MOL0     C36511   3.358  11.316   0.978  0.5443  1.1998 -0.5844
 1012MOL0     C36512   3.497  11.331   0.989  0.1978  0.6788 -0.1119
 1012MOL0     C36513   3.560  11.449   0.949 -0.1317 -1.5731 -0.1661
 1012MOL0     C36514   3.709  11.464   0.942 -0.2266  0.3679 -0.5382
 1012MOL0     O36515   3.750  11.590   0.927 -0.3541  0.2444 -0.4409
 1012MOL0     C36516   3.882  11.607   0.916  0.7273  0.2435  0.0736
 1012MOL0     C36517   3.969  11.639   1.022  1.0963  0.5777 -0.9849
 1012MOL0     C36518   4.106  11.649   1.013 -0.6569  0.9022 -0.1167
 1012MOL0     C36519   4.164  11.616   0.888  0.0656  1.4641  0.0308
 1012MOL0     O36520   4.304  11.602   0.870  0.0944 -0.0455  0.1193
 1012MOL0     C36521   4.379  11.712   0.926  0.7294 -0.1451  0.4434
 1012MOL0     C36522   4.335  11.852   0.865  0.2769 -0.0017  0.3280
 1012MOL0     C36523   4.446  11.952   0.868 -0.1400 -0.4607 -0.3909
 1012MOL0     C36524   4.508  11.971   1.008  0.0137  0.2547  0.2105
 1012MOL0     C36525   4.630  12.072   1.012 -0.4919  0.2539  0.0574
 1012MOL0     C36526   4.741  12.040   0.908  0.7725  0.2720 -1.2592
 1012MOL0     C36527   4.852  12.143   0.931 -0.0048 -0.5492  0.1525
 1012MOL0     C36528   4.985  12.075   0.894 -0.1271 -0.4919  0.5024
 1012MOL0    Cl36529   5.116  12.193   0.914 -0.3980 -0.0152  0.3462
 1012MOL0     C36530   4.076  11.578   0.782 -0.8455 -0.2972  0.2464
 1012MOL0     C36531   3.943  11.581   0.796 -0.4037  0.5324 -0.7087
 1012MOL0     O36532   3.780  11.361   0.942  0.7127  0.8655 -0.6382
 1012MOL0     C36533   3.475  11.559   0.911 -0.5433 -0.3861 -0.0514
 1012MOL0     C36534   3.342  11.540   0.895 -0.3058  0.2345 -0.3911
 1012MOL0     N36535   2.557  11.494   0.951  0.4587  0.2869 -0.4071
 1012MOL0     N36536   2.455  11.489   1.037  0.7683  0.8524  0.2424
 1012MOL0     C36537   1.644  11.243   1.832  0.3924 -1.0350  0.7361
 1012MOL0     C36538   1.504  11.268   1.865 -0.2443  0.2170  0.3967
 1012MOL0     C36539   1.057  11.114   1.863 -0.5854  0.1198 -1.4031
 1012MOL0     C36540   0.955  11.124   1.967  0.0953 -0.1724  0.2178
 1012MOL0     C36541   0.818  11.116   1.941 -0.3950  0.1200  0.7085
 1012MOL0     C36542   0.779  11.087   1.806 -0.0921 -0.4589 -0.4136
 1012MOL0     O36543   0.640  11.085   1.791  0.1514 -0.4484  0.2046
 1012MOL0     C36544   0.585  11.050   1.664 -0.6135  0.4287 -0.2204
 1012MOL0     C36545   0.446  10.986   1.677 -0.7469  0.1107  0.3541
 1012MOL0     C36546   0.372  11.000   1.543 -0.3112  0.1061 -0.0132
 1012MOL0     C36547   0.246  10.924   1.540  0.6050 -0.0595 -1.1388
 1012MOL0     C36548   0.261  10.778   1.567  0.4509  0.1337 -0.2803
 1012MOL0     C36549   0.256  10.666   1.604 -0.0346 -0.4553  0.4201
 1012MOL0     C36550   0.876  11.086   1.710 -0.2084  0.5029 -0.0382
 1012MOL0     C36551   1.013  11.089   1.733 -0.2529 -0.3490 -0.3074
 1012MOL0     C36552   1.105  11.103   1.608 -0.5867  1.0262 -1.0401
 1012MOL0     H36553   1.390  10.973   1.744 -0.4717 -0.8247  2.6586
 1012MOL0     H36554   1.634  10.947   1.675  0.2320  2.1228 -1.4780
 1012MOL0     H36555   1.836  10.933   1.781  2.2577  2.4255  2.4070
 1012MOL0     H36556   1.832  10.966   1.616  0.8857  1.1051  0.0004
 1012MOL0     H36557   2.058  10.904   1.695 -0.5248 -0.5525  1.7826
 1012MOL0     H36558   2.062  11.048   1.795  1.6132  2.8339 -2.1567
 1012MOL0     H36559   2.075  11.196   1.613 -3.0980 -0.6142  1.0426
 1012MOL0     H36560   2.015  11.072   1.496  2.6047 -0.9960 -1.9591
 1012MOL0     H36561   2.281  11.047   1.633 -0.0302  5.2812 -0.5278
 1012MOL0     H36562   2.202  10.932   1.526  1.1120  0.4637 -0.0677
 1012MOL0     H36563   2.353  11.182   1.474 -0.2262  0.6662 -1.6017
 1012MOL0     H36564   2.360  11.036   1.389 -0.7525 -0.8208  1.1388
 1012MOL0     H36565   2.135  11.082   1.296 -1.1781 -0.7134  3.0679
 1012MOL0     H36566   2.144  11.243   1.365 -0.9259 -0.7355 -1.0252
 1012MOL0     H36567   2.229  11.228   1.109  1.2622 -1.5802 -0.2610
 1012MOL0     H36568   2.355  11.127   1.174  0.4182  0.9054 -1.0616
 1012MOL0     H36569   2.318  11.424   1.244 -1.9821 -1.5649  1.3023
 1012MOL0     H36570   2.449  11.323   1.305 -1.1821 -0.3832  0.1221
 1012MOL0     H36571   2.576  11.187   1.077 -1.5300 -0.4018  0.2180
 1012MOL0     H36572   2.685  11.229   0.829 -0.4965  0.0907  1.3719
 1012MOL0     H36573   2.714  11.392   0.767  0.9833 -1.1523 -0.6317
 1012MOL0     H36574   2.868  11.429   0.960 -1.9938  0.4904 -0.1346
 1012MOL0     H36575   2.862  11.250   0.997  0.0519  0.2587 -0.2219
 1012MOL0     H36576   2.947  11.388   0.750  1.4395  0.5495  1.1413
 1012MOL0     H36577   2.921  11.206   0.768  0.9925 -1.2375  1.5232
 1012MOL0     H36578   3.166  11.255   0.788  1.2099  3.8126 -0.7992
 1012MOL0     H36579   3.094  11.214   0.949 -0.3907 -1.2532 -1.2192
 1012MOL0     H36580   3.309  11.220   0.985  3.2456 -0.1815  1.3074
 1012MOL0     H36581   3.557  11.247   1.024  3.5408  1.5374 -3.0864
 1012MOL0     H36582   3.925  11.632   1.120  0.9857  1.5460 -0.9560
 1012MOL0     H36583   4.160  11.672   1.104  0.3732  1.9523 -0.9447
 1012MOL0     H36584   4.368  11.721   1.034 -1.8140  1.7810  0.1545
 1012MOL0     H36585   4.482  11.687   0.901  0.8510  1.1493 -0.4931
 1012MOL0     H36586   4.314  11.834   0.759  0.5454 -3.7147  0.7879
 1012MOL0     H36587   4.239  11.880   0.910 -0.8801 -5.5809  2.1634
 1012MOL0     H36588   4.522  11.911   0.800  1.8645 -0.6422  1.8349
 1012MOL0     H36589   4.413  12.049   0.829 -0.4317 -0.3345  0.1552
 1012MOL0     H36590   4.557  11.875   1.026 -1.6641 -1.2204 -2.3789
 1012MOL0     H36591   4.437  11.995   1.087  0.9787 -2.9905  2.2546
 1012MOL0     H36592   4.675  12.079   1.112  2.0783  0.7609 -1.0449
 1012MOL0     H36593   4.600  12.174   0.987  1.2067  0.5866 -0.8239
 1012MOL0     H36594   4.788  11.941   0.909  1.2868  0.4982 -1.8953
 1012MOL0     H36595   4.708  12.053   0.805 -0.6578 -1.8029 -1.1243
 1012MOL0     H36596   4.857  12.173   1.036  1.5980  0.1624 -0.1091
 1012MOL0     H36597   4.828  12.234   0.876 -0.4104 -1.8619 -1.9253
 1012MOL0     H36598   5.011  11.993   0.962  2.6296  0.3917  0.6215
 1012MOL0     H36599   4.977  12.036   0.793  1.7548 -2.2461  0.9647
 1012MOL0     H36600   4.119  11.533   0.693 -0.3451 -1.7951  1.1963
 1012MOL0     H36601   3.877  11.553   0.713  1.5370 -0.3790 -2.0181
 1012MOL0     H36602   3.515  11.657   0.886  1.8526 -1.2238  0.3376
 1012MOL0     H36603   3.283  11.626   0.863  1.1623  2.7759  3.0206
 1012MOL0     H36604   1.713  11.311   1.882 -0.7766 -0.2156  1.2644
 1012MOL0     H36605   1.476  11.366   1.902 -0.8116 -1.0208  3.6048
 1012MOL0     H36606   0.993  11.152   2.065  2.2054  1.7024 -1.0231
 1012MOL0     H36607   0.742  11.109   2.019  0.4021 -2.1400  1.3746
 1012MOL0     H36608   0.645  10.979   1.606  0.1171  2.5223 -2.1886
 1012MOL0     H36609   0.590  11.142   1.605  2.4546 -0.4021 -1.4915
 1012MOL0     H36610   0.384  11.040   1.751 -0.0413 -0.7723  1.6272
 1012MOL0     H36611   0.444  10.884   1.716 -3.3249  0.4095  1.2293
 1012MOL0     H36612   0.425  10.963   1.454 -2.0369  0.5488 -1.2919
 1012MOL0     H36613   0.349  11.105   1.526 -0.8637  0.3860  2.2151
 1012MOL0     H36614   0.174  10.963   1.613  1.8472  3.4369 -1.5842
 1012MOL0     H36615   0.192  10.939   1.445 -1.1698  0.2041 -0.1377
 1012MOL0     H36616   0.260  10.572   1.655 -1.4821  0.2064  1.8392
 1012MOL0     H36617   0.845  11.067   1.607 -0.2527 -0.2378  0.1026
 1012MOL0     H36618   1.176  11.187   1.608  1.0077 -0.2611 -0.0502
 1012MOL0     H36619   1.176  11.019   1.611 -1.6124  0.1636  0.2720
 1012MOL0     H36620   1.044  11.086   1.519 -0.8130 -2.0873 -0.3854
 1013MOL0     O36621   2.444   4.770   4.426  0.4051  0.1923  0.3323
 1013MOL0     C36622   2.459   4.683   4.345 -0.5091 -0.3430 -1.0477
 1013MOL0     O36623   2.573   4.617   4.323 -0.2809  0.2104 -0.5596
 1013MOL0     C36624   2.684   4.640   4.394  0.3167  0.0706  0.0678
 1013MOL0     C36625   2.680   4.634   4.536  0.4226  1.0147  0.8724
 1013MOL0     C36626   2.794   4.675   4.614 -0.6612  0.2144 -0.1630
 1013MOL0     C36627   2.920   4.705   4.550 -0.1957 -0.8201  0.2625
 1013MOL0     O36628   3.030   4.734   4.626  0.6232 -0.3230  0.9910
 1013MOL0     C36629   3.157   4.694   4.579 -0.5868 -0.2138  0.2539
 1013MOL0     C36630   3.168   4.541   4.568 -0.0960 -0.6830  0.0625
 1013MOL0     C36631   3.304   4.506   4.503  0.9679  0.9515 -0.2683
 1013MOL0     C36632   3.388   4.424   4.606  0.5242 -1.0515  0.2905
 1013MOL0     C36633   3.506   4.355   4.541  0.3636 -0.0759 -0.1510
 1013MOL0     C36634   3.612   4.300   4.639  0.8735 -0.3325 -0.4452
 1013MOL0     C36635   3.723   4.242   4.557 -0.0790  0.0384  1.0477
 1013MOL0     C36636   3.821   4.153   4.623 -0.0660  0.4761 -0.0344
 1013MOL0     N36637   3.908   4.216   4.715 -1.1471 -0.3827 -0.6821
 1013MOL0     C36638   4.008   4.303   4.680  0.8967  0.4737 -0.1748
 1013MOL0     C36639   4.079   4.326   4.790 -0.7507  0.5508  0.6193
 1013MOL0     C36640   4.207   4.406   4.790 -0.5889  0.0907 -0.0193
 1013MOL0     C36641   4.295   4.368   4.917  0.0388 -0.7313 -0.3965
 1013MOL0     C36642   4.365   4.243   4.892  0.0105 -0.2395  0.1812
 1013MOL0     C36643   4.466   4.213   4.996  0.6396 -1.2932  0.0336
 1013MOL0     O36644   4.563   4.111   4.954  0.1051 -0.4580  0.2616
 1013MOL0     C36645   4.689   4.112   5.017  1.1749  0.1545  0.3056
 1013MOL0     C36646   4.719   4.159   5.148 -0.7085 -0.3547  0.2028
 1013MOL0     C36647   4.838   4.124   5.205  0.2786  0.1225  0.0664
 1013MOL0     C36648   4.934   4.040   5.140  0.4777  0.3336 -1.1496
 1013MOL0     C36649   5.068   4.006   5.191  0.5908  0.9967 -0.6101
 1013MOL0     O36650   5.143   3.914   5.138 -0.6356  1.0557  0.3998
 1013MOL0     C36651   5.277   3.901   5.169 -0.4585  0.4609 -0.0045
 1013MOL0     C36652   5.355   3.859   5.054 -0.5565 -0.5705 -0.3657
 1013MOL0     C36653   5.500   3.847   5.068 -0.2357 -0.1810 -0.0925
 1013MOL0     C36654   5.553   3.856   5.199  0.2653 -1.0075  0.3157
 1013MOL0     O36655   5.687   3.837   5.234 -0.1221  0.1295  0.0224
 1013MOL0     C36656   5.758   3.731   5.164  0.0764  0.4098 -0.5645
 1013MOL0     C36657   5.901   3.714   5.216 -1.0103  0.0775  0.6722
 1013MOL0     C36658   5.962   3.585   5.160 -0.5975  0.3437  0.0443
 1013MOL0     C36659   5.923   3.463   5.254  0.4457 -0.2802 -0.8445
 1013MOL0     C36660   5.960   3.325   5.200  0.0254  0.2182 -0.0823
 1013MOL0     C36661   6.109   3.300   5.216 -0.0452  0.3488  0.3411
 1013MOL0     C36662   6.142   3.147   5.209  0.0152  0.0096  0.5970
 1013MOL0     C36663   6.289   3.124   5.199 -0.4513 -0.5400 -0.0628
 1013MOL0    Cl36664   6.362   3.126   5.362  0.4229  0.0911 -0.2996
 1013MOL0     C36665   5.475   3.904   5.306 -0.1016  0.0477  0.2298
 1013MOL0     C36666   5.335   3.922   5.289 -0.7438  0.9651 -0.1857
 1013MOL0     O36667   5.107   4.072   5.284 -0.6369 -0.0136  0.7154
 1013MOL0     C36668   4.897   3.997   5.011  0.4486 -0.0789 -0.4622
 1013MOL0     C36669   4.777   4.025   4.951 -0.4177 -0.3839 -0.0025
 1013MOL0     N36670   4.023   4.263   4.900  0.7632  0.4859  0.2616
 1013MOL0     N36671   3.922   4.191   4.856  0.3164 -0.1460  0.1951
 1013MOL0     C36672   2.911   4.705   4.410  0.0650  0.1810  0.9010
 1013MOL0     C36673   2.797   4.677   4.334 -0.4601  0.1109 -0.1890
 1013MOL0     C36674   2.336   4.626   4.272 -0.7822  0.2768  0.2224
 1013MOL0     C36675   2.368   4.548   4.157 -0.4150 -0.9277 -0.3351
 1013MOL0     C36676   2.275   4.486   4.087  0.4512 -0.2692  0.9577
 1013MOL0     C36677   2.138   4.510   4.117 -0.7202  0.4608  0.0516
 1013MOL0     O36678   2.037   4.473   4.032 -0.8735  0.4017 -0.1674
 1013MOL0     C36679   1.995   4.588   3.961 -0.3514 -0.1921 -0.1529
 1013MOL0     C36680   2.080   4.614   3.839 -0.4921  0.4346  0.2638
 1013MOL0     C36681   2.030   4.733   3.750 -1.1272  0.8450 -0.5329
 1013MOL0     C36682   1.896   4.719   3.691  0.6950 -0.3530  0.0210
 1013MOL0     C36683   1.873   4.825   3.590  0.2430  0.2894  0.5685
 1013MOL0     C36684   1.853   4.904   3.504  0.3201  0.7387  0.0287
 1013MOL0     C36685   2.105   4.570   4.236  0.1912 -1.3698  0.1412
 1013MOL0     C36686   2.200   4.640   4.304 -0.0051 -0.0568 -0.0661
 1013MOL0     C36687   2.149   4.705   4.432  0.4065  0.2462 -0.3350
 1013MOL0     H36688   2.590   4.596   4.584  1.2179 -3.5109 -0.6499
 1013MOL0     H36689   2.790   4.672   4.722  1.4553 -1.3285 -0.0427
 1013MOL0     H36690   3.180   4.742   4.483 -1.3547 -0.8867 -0.2905
 1013MOL0     H36691   3.235   4.743   4.637 -1.2570  3.8525 -1.8693
 1013MOL0     H36692   3.089   4.502   4.502  1.7146 -0.1983 -2.5749
 1013MOL0     H36693   3.154   4.500   4.668 -2.1325 -1.0358 -0.3154
 1013MOL0     H36694   3.362   4.594   4.474 -1.1556  2.9777  1.2930
 1013MOL0     H36695   3.293   4.443   4.414  2.3913 -2.1917  1.5908
 1013MOL0     H36696   3.413   4.496   4.685 -0.0026  1.0567 -1.3839
 1013MOL0     H36697   3.324   4.341   4.638 -0.4342  0.2288  1.9184
 1013MOL0     H36698   3.470   4.275   4.475  0.1162 -0.5715  0.5718
 1013MOL0     H36699   3.553   4.430   4.477 -0.8413 -1.6604 -3.1251
 1013MOL0     H36700   3.646   4.382   4.703  0.7409  1.0541 -2.0770
 1013MOL0     H36701   3.558   4.223   4.695  0.7019 -0.7483 -1.1686
 1013MOL0     H36702   3.779   4.328   4.519  2.5969 -1.5608  1.1568
 1013MOL0     H36703   3.680   4.192   4.470  0.6882  0.4221  0.4295
 1013MOL0     H36704   3.770   4.069   4.673 -0.1577 -0.2093 -1.2312
 1013MOL0     H36705   3.880   4.098   4.548 -0.5969 -1.7273  1.0591
 1013MOL0     H36706   4.026   4.342   4.580 -1.3109  3.5161  0.4523
 1013MOL0     H36707   4.264   4.388   4.699 -0.1101 -0.7006  0.4358
 1013MOL0     H36708   4.171   4.509   4.800  2.0470  1.1242 -0.3698
 1013MOL0     H36709   4.367   4.450   4.929  0.9413 -1.6681  0.9000
 1013MOL0     H36710   4.247   4.362   5.015 -0.8079  1.4999 -0.6218
 1013MOL0     H36711   4.410   4.238   4.793  1.3990 -1.2159  0.8323
 1013MOL0     H36712   4.289   4.164   4.896  1.2689 -1.5030 -0.1152
 1013MOL0     H36713   4.408   4.169   5.078  0.6954 -2.2426 -0.4218
 1013MOL0     H36714   4.512   4.301   5.043 -0.7700 -0.1575 -0.6187
 1013MOL0     H36715   4.649   4.222   5.202 -0.9559  0.5484 -1.1181
 1013MOL0     H36716   4.869   4.183   5.291 -0.1236 -0.2195  0.4496
 1013MOL0     H36717   5.304   3.849   4.959 -1.5058 -0.5754  0.1378
 1013MOL0     H36718   5.555   3.839   4.974  0.0556 -2.3838  0.2180
 1013MOL0     H36719   5.703   3.637   5.170 -0.1925  0.6042  0.0708
 1013MOL0     H36720   5.775   3.759   5.059 -0.0870  0.8837 -0.4665
 1013MOL0     H36721   5.958   3.802   5.185  2.6463 -1.9931  0.8551
 1013MOL0     H36722   5.899   3.701   5.325  5.4158 -2.0965  0.9459
 1013MOL0     H36723   5.922   3.571   5.059  0.2259 -1.4366 -0.0662
 1013MOL0     H36724   6.070   3.596   5.148 -0.6259  0.6944  0.1041
 1013MOL0     H36725   5.816   3.461   5.275  0.3815  1.2400 -0.9240
 1013MOL0     H36726   5.970   3.475   5.353  0.6590  1.7419 -1.1495
 1013MOL0     H36727   5.930   3.320   5.095 -3.9563 -0.1064  0.8797
 1013MOL0     H36728   5.892   3.251   5.243 -0.5504  1.3342  0.9945
 1013MOL0     H36729   6.159   3.362   5.141  1.2907 -0.3786  0.5897
 1013MOL0     H36730   6.147   3.331   5.314  3.3911  3.1381 -1.6011
 1013MOL0     H36731   6.088   3.102   5.125 -0.8235 -2.1412  2.1954
 1013MOL0     H36732   6.106   3.091   5.296  1.9511  1.1824  2.2188
 1013MOL0     H36733   6.313   3.031   5.147 -3.5557 -0.9600 -0.9401
 1013MOL0     H36734   6.339   3.202   5.142 -0.6342 -0.4889 -0.1531
 1013MOL0     H36735   5.518   3.936   5.401  0.6444 -0.2726  0.0093
 1013MOL0     H36736   5.277   3.952   5.376  1.0497  1.8459  0.7657
 1013MOL0     H36737   4.972   3.946   4.952  0.3959  1.9721 -2.4404
 1013MOL0     H36738   4.752   3.982   4.854 -0.4161  2.1776 -1.2082
 1013MOL0     H36739   3.000   4.724   4.350  0.4236 -0.1744  1.3092
 1013MOL0     H36740   2.813   4.685   4.227  2.2591 -1.3209  0.0227
 1013MOL0     H36741   2.475   4.534   4.144 -0.3397  0.2031 -1.1569
 1013MOL0     H36742   2.284   4.432   3.994 -2.4364  0.5596  0.0640
 1013MOL0     H36743   1.989   4.678   4.023 -3.2893  0.5324 -1.2812
 1013MOL0     H36744   1.896   4.567   3.919  0.6898 -0.4714 -2.6013
 1013MOL0     H36745   2.071   4.526   3.775  0.4895  1.8966 -2.0281
 1013MOL0     H36746   2.182   4.643   3.866  0.1983 -0.8714 -0.8369
 1013MOL0     H36747   2.096   4.752   3.665 -1.7414 -1.1073 -1.5230
 1013MOL0     H36748   2.020   4.815   3.822  1.4491 -0.9475  2.1094
 1013MOL0     H36749   1.881   4.627   3.634 -0.0267  0.1526 -0.6408
 1013MOL0     H36750   1.815   4.716   3.764 -2.3866  0.3257 -3.0897
 1013MOL0     H36751   1.846   4.983   3.431  2.6955 -0.0140 -1.1397
 1013MOL0     H36752   2.003   4.585   4.267  0.9638  1.6538  1.6090
 1013MOL0     H36753   2.158   4.635   4.516 -0.0621  1.3018  0.6232
 1013MOL0     H36754   2.198   4.799   4.457 -1.1520  1.2278 -0.8544
 1013MOL0     H36755   2.045   4.734   4.418  0.1919  0.6799  1.7745
 1014MOL0     O36756  10.811   9.904   8.139 -0.0367  0.3830 -0.1908
 1014MOL0     C36757  10.793   9.795   8.195  0.5709 -0.6335  0.3587
 1014MOL0     O36758  10.886   9.694   8.213 -0.5578  0.7820  0.0823
 1014MOL0     C36759  11.023   9.710   8.199  0.1530  0.6729 -0.3314
 1014MOL0     C36760  11.102   9.595   8.202 -0.2477 -0.3404 -0.1685
 1014MOL0     C36761  11.244   9.608   8.226  0.0879  0.0814  0.1430
 1014MOL0     C36762  11.307   9.728   8.246  0.3514 -0.3382  0.7247
 1014MOL0     O36763  11.441   9.752   8.278  0.6471  0.3679  0.1531
 1014MOL0     C36764  11.516   9.650   8.338 -0.9166 -0.7076 -0.1501
 1014MOL0     C36765  11.653   9.702   8.400  0.2981 -0.0636 -0.1808
 1014MOL0     C36766  11.622   9.810   8.516  0.3616  0.2148 -0.2466
 1014MOL0     C36767  11.680   9.948   8.517 -0.4945  0.0200  0.4975
 1014MOL0     C36768  11.654  10.016   8.383  0.4473 -1.1553  0.6681
 1014MOL0     C36769  11.645  10.165   8.415  0.1128 -0.9010  1.2307
 1014MOL0     C36770  11.622  10.260   8.301 -0.0403  0.1311 -0.1730
 1014MOL0     C36771  11.488  10.245   8.221  0.7015  0.4798  1.1418
 1014MOL0     N36772  11.372  10.252   8.302  0.1151 -0.1260 -0.4853
 1014MOL0     C36773  11.307  10.155   8.376 -0.0857 -0.5405  0.4421
 1014MOL0     C36774  11.192  10.215   8.413  0.7069 -0.5348 -0.1139
 1014MOL0     C36775  11.088  10.175   8.501  1.0526 -0.3802  0.0221
 1014MOL0     C36776  10.953  10.151   8.421 -0.0302 -0.9587 -0.6985
 1014MOL0     C36777  10.830  10.160   8.518  0.4886  0.7331 -0.2429
 1014MOL0     C36778  10.712  10.123   8.442 -1.2782 -1.3586 -0.3953
 1014MOL0     O36779  10.615  10.072   8.539  0.1475 -0.2512  1.0135
 1014MOL0     C36780  10.485  10.070   8.509  0.6863  0.4912 -0.0648
 1014MOL0     C36781  10.421  10.143   8.403 -0.1283  0.2989 -0.2141
 1014MOL0     C36782  10.288  10.123   8.390 -0.2741  0.5308 -0.2131
 1014MOL0     C36783  10.209  10.024   8.460 -0.0038  0.1744 -0.1082
 1014MOL0     C36784  10.062  10.002   8.437 -0.7850 -0.0266  0.4579
 1014MOL0     O36785   9.994  10.120   8.393 -0.6964  0.1544 -0.0705
 1014MOL0     C36786   9.868  10.108   8.341  0.1720 -0.1145  0.3748
 1014MOL0     C36787   9.834  10.008   8.237  0.0449  0.3571  0.2484
 1014MOL0     C36788   9.701  10.001   8.190 -0.3020  0.3477 -0.1683
 1014MOL0     C36789   9.602  10.086   8.247 -0.1981  0.0178 -0.6347
 1014MOL0     O36790   9.472  10.078   8.203 -0.3828 -0.1118  0.0820
 1014MOL0     C36791   9.442  10.169   8.099  0.5147 -0.4545 -0.0165
 1014MOL0     C36792   9.292  10.207   8.104  0.8610 -0.3694 -0.1394
 1014MOL0     C36793   9.198  10.101   8.044  0.0670  0.1566 -0.5421
 1014MOL0     C36794   9.054  10.149   8.064 -0.2880 -0.9470 -0.2870
 1014MOL0     C36795   8.952  10.046   8.016  0.3517  0.5961 -0.5774
 1014MOL0     C36796   8.815  10.110   8.045  0.5550  0.5920  0.0850
 1014MOL0     C36797   8.703  10.010   8.024 -0.2567 -0.2080  0.5877
 1014MOL0     C36798   8.562  10.075   8.005  0.2325 -0.8973 -0.1860
 1014MOL0    Cl36799   8.487  10.110   8.164  0.0804  0.2409  0.0596
 1014MOL0     C36800   9.640  10.190   8.339 -0.5387 -0.5674  0.6378
 1014MOL0     C36801   9.764  10.200   8.377 -0.9228  0.6106 -0.5932
 1014MOL0     O36802  10.010   9.896   8.464 -0.1849  0.3325  0.2412
 1014MOL0     C36803  10.273   9.945   8.560 -0.2212  0.6051 -0.0677
 1014MOL0     C36804  10.406   9.966   8.578 -0.0533 -0.1368 -0.1365
 1014MOL0     N36805  11.183  10.347   8.359 -0.5958  0.6166  0.0608
 1014MOL0     N36806  11.301  10.364   8.316 -0.3971 -0.3952  0.3148
 1014MOL0     C36807  11.225   9.846   8.220  0.0701  0.7204 -0.8224
 1014MOL0     C36808  11.083   9.832   8.196 -0.6111  0.8458  0.0320
 1014MOL0     C36809  10.651   9.768   8.232  0.7032 -0.0625 -0.4610
 1014MOL0     C36810  10.553   9.812   8.141  0.1470 -0.4784 -0.6056
 1014MOL0     C36811  10.414   9.792   8.164 -0.8917  0.0335 -0.4449
 1014MOL0     C36812  10.369   9.726   8.276 -0.6866 -0.1859 -0.0759
 1014MOL0     O36813  10.234   9.699   8.285 -0.1492 -0.2664  0.0692
 1014MOL0     C36814  10.180   9.610   8.381 -0.1884  0.2876  0.0849
 1014MOL0     C36815  10.215   9.467   8.385  0.0289  0.1566 -0.7538
 1014MOL0     C36816  10.241   9.399   8.255  0.2598 -0.6845 -0.3563
 1014MOL0     C36817  10.270   9.253   8.264 -0.1511  0.7968 -0.1695
 1014MOL0     C36818  10.382   9.218   8.350 -0.3748 -0.0068 -0.6506
 1014MOL0     C36819  10.489   9.206   8.413 -0.0159  0.2390 -0.1688
 1014MOL0     C36820  10.469   9.683   8.364  0.1809  0.7125  0.5856
 1014MOL0     C36821  10.603   9.692   8.339 -0.0729 -0.3214 -0.5798
 1014MOL0     C36822  10.690   9.632   8.439 -0.5722 -0.1747 -0.1277
 1014MOL0     H36823  11.060   9.495   8.211 -0.4396 -0.0897  2.9883
 1014MOL0     H36824  11.308   9.520   8.226  3.1773  2.1068 -1.3854
 1014MOL0     H36825  11.454   9.610   8.418 -1.2677  0.6894  0.3083
 1014MOL0     H36826  11.531   9.575   8.260  0.0223 -0.8139  0.1217
 1014MOL0     H36827  11.705   9.754   8.319 -0.3711  1.5852  0.4014
 1014MOL0     H36828  11.713   9.615   8.428 -0.6442 -0.5870  0.2488
 1014MOL0     H36829  11.670   9.772   8.608  1.8060 -0.9001 -1.4067
 1014MOL0     H36830  11.515   9.823   8.528  0.2719  1.0175 -1.7359
 1014MOL0     H36831  11.632   9.998   8.602 -2.7538 -0.3710 -0.4931
 1014MOL0     H36832  11.786   9.950   8.547 -0.0477  1.6273 -1.0503
 1014MOL0     H36833  11.736  10.005   8.312  1.9088 -0.7707  2.2357
 1014MOL0     H36834  11.558   9.987   8.338  0.0909  0.7275  0.1015
 1014MOL0     H36835  11.573  10.187   8.494  0.2083 -0.1673  1.1177
 1014MOL0     H36836  11.739  10.191   8.465 -1.2638  3.0020  2.1934
 1014MOL0     H36837  11.706  10.253   8.231  2.1522  1.5556  2.1445
 1014MOL0     H36838  11.625  10.359   8.347 -0.8554  1.8448 -3.4681
 1014MOL0     H36839  11.477  10.323   8.144 -3.1808 -1.1097 -0.1383
 1014MOL0     H36840  11.497  10.152   8.165 -1.8745  1.8302 -1.8593
 1014MOL0     H36841  11.336  10.055   8.407 -4.9750 -1.9124  1.5170
 1014MOL0     H36842  11.116  10.088   8.561 -1.3114 -0.6841  0.7933
 1014MOL0     H36843  11.081  10.252   8.578 -3.2597  0.6357 -1.1035
 1014MOL0     H36844  10.937  10.222   8.340 -1.3602 -1.1479 -0.6189
 1014MOL0     H36845  10.957  10.051   8.376  1.4658 -1.0166 -0.4942
 1014MOL0     H36846  10.812  10.257   8.566 -0.9275  0.9192 -1.1070
 1014MOL0     H36847  10.848  10.083   8.593 -0.3305 -1.5935 -2.3099
 1014MOL0     H36848  10.732  10.046   8.367  0.5842  1.4190 -3.0187
 1014MOL0     H36849  10.684  10.216   8.391  1.4874 -0.4974 -0.5134
 1014MOL0     H36850  10.479  10.230   8.371  1.6939 -0.5527  0.6048
 1014MOL0     H36851  10.244  10.186   8.314 -0.5579  0.4757 -0.0966
 1014MOL0     H36852   9.916   9.951   8.195  0.9333  1.4464  0.4885
 1014MOL0     H36853   9.667   9.939   8.108  0.8734 -1.5180  0.7050
 1014MOL0     H36854   9.501  10.260   8.111 -0.1067  0.3125 -2.2270
 1014MOL0     H36855   9.462  10.124   8.001  0.0430 -2.3242  0.6942
 1014MOL0     H36856   9.268  10.225   8.209  1.4997  1.8030 -0.3223
 1014MOL0     H36857   9.282  10.304   8.055  0.4347 -0.8630 -1.0507
 1014MOL0     H36858   9.223  10.075   7.940  1.8217 -1.2129  0.1888
 1014MOL0     H36859   9.217  10.013   8.105  2.5479  0.7750 -0.3042
 1014MOL0     H36860   9.036  10.239   8.005  2.0538 -0.9613 -1.1301
 1014MOL0     H36861   9.039  10.176   8.169 -1.8557 -0.0652 -0.7073
 1014MOL0     H36862   8.962   9.954   8.074 -0.0577  0.4934 -0.6657
 1014MOL0     H36863   8.970  10.034   7.909  0.6004  0.2758 -0.5039
 1014MOL0     H36864   8.809  10.147   8.148 -0.9226  0.9526 -0.1084
 1014MOL0     H36865   8.812  10.196   7.977 -1.7097 -0.3021 -1.0457
 1014MOL0     H36866   8.698   9.940   8.108  0.0283  1.1469  1.7735
 1014MOL0     H36867   8.719   9.967   7.925  0.1606  0.2181  0.4628
 1014MOL0     H36868   8.557  10.164   7.942 -2.7572 -0.7296  0.1083
 1014MOL0     H36869   8.496  10.007   7.950 -0.6602 -0.0057 -0.2652
 1014MOL0     H36870   9.566  10.258   8.381  0.5024 -0.2130  1.9612
 1014MOL0     H36871   9.795  10.271   8.453  4.2053 -0.9868 -0.8214
 1014MOL0     H36872  10.219   9.864   8.609  0.7731 -0.3016 -0.4244
 1014MOL0     H36873  10.453   9.902   8.652 -0.6609  0.2518  0.5981
 1014MOL0     H36874  11.286   9.935   8.213  1.4986  0.1936  2.7670
 1014MOL0     H36875  11.031   9.925   8.176 -1.0556  0.7392  0.6651
 1014MOL0     H36876  10.583   9.882   8.064  2.4167 -1.1817 -0.4387
 1014MOL0     H36877  10.341   9.834   8.095 -0.4002  0.4038 -0.7586
 1014MOL0     H36878  10.074   9.612   8.354 -1.1415  2.7028  3.4227
 1014MOL0     H36879  10.187   9.660   8.478 -0.9266  0.0995  0.2387
 1014MOL0     H36880  10.141   9.410   8.443  0.4240  1.1104  0.7391
 1014MOL0     H36881  10.312   9.460   8.436 -0.7044 -1.5374  0.5385
 1014MOL0     H36882  10.328   9.443   8.205 -0.0544  1.2253  0.6960
 1014MOL0     H36883  10.159   9.414   8.184  0.4124 -4.7218 -1.6279
 1014MOL0     H36884  10.184   9.205   8.311 -0.7450  1.1486 -0.8730
 1014MOL0     H36885  10.300   9.216   8.165  1.6197  1.4422  0.0835
 1014MOL0     H36886  10.584   9.210   8.463 -0.1960  1.7058  0.1053
 1014MOL0     H36887  10.432   9.643   8.458  0.0485  0.9229  0.6246
 1014MOL0     H36888  10.756   9.706   8.484 -0.7100 -1.3533  2.1253
 1014MOL0     H36889  10.636   9.568   8.509  0.7382 -0.3895  0.7024
 1014MOL0     H36890  10.764   9.564   8.397 -0.4244  0.7861 -1.5284
 1015MOL0     O36891  10.057   2.837   9.759 -0.0781  0.1852 -0.2988
 1015MOL0     C36892  10.044   2.894   9.857 -0.2247  0.4143 -0.5929
 1015MOL0     O36893  10.144   2.909   9.952  0.2434 -0.7297 -0.3830
 1015MOL0     C36894  10.274   2.885   9.908 -0.2230  0.2480 -0.9751
 1015MOL0     C36895  10.366   2.982   9.941 -0.5346  0.5341  0.8728
 1015MOL0     C36896  10.505   2.946   9.934  0.3359  0.0971  0.2801
 1015MOL0     C36897  10.553   2.815   9.902 -0.3291  0.3374 -0.7115
 1015MOL0     O36898  10.683   2.784   9.872  0.0601  0.4293 -0.1039
 1015MOL0     C36899  10.750   2.882   9.788  0.1723  0.1752  0.5345
 1015MOL0     C36900  10.838   2.812   9.677  0.5352 -0.7704 -0.5342
 1015MOL0     C36901  10.928   2.912   9.611  0.8365  0.7617 -0.1251
 1015MOL0     C36902  11.022   2.856   9.513 -0.4474 -0.3306 -0.2424
 1015MOL0     C36903  11.122   2.967   9.468  0.0426 -0.0653  0.2550
 1015MOL0     C36904  11.236   2.886   9.394  0.9903 -0.9526  0.2128
 1015MOL0     C36905  11.320   2.990   9.326  0.4852  0.0994 -0.2157
 1015MOL0     C36906  11.437   2.913   9.257  0.5172  0.3331  0.0334
 1015MOL0     N36907  11.543   3.007   9.232 -0.6766 -0.0229 -0.2902
 1015MOL0     C36908  11.632   3.040   9.333 -0.3565 -0.5351 -0.4025
 1015MOL0     C36909  11.719   3.125   9.277 -0.4721 -0.0416  0.2212
 1015MOL0     C36910  11.845   3.181   9.342 -0.6041 -0.1839  0.8340
 1015MOL0     C36911  11.976   3.158   9.251 -0.1638 -0.2905 -0.1381
 1015MOL0     C36912  12.084   3.116   9.347  0.1870  0.0120  0.2376
 1015MOL0     C36913  12.215   3.073   9.281  0.0605 -0.0518  0.0757
 1015MOL0     O36914  12.303   3.190   9.253  1.1160 -0.1048  0.3522
 1015MOL0     C36915  12.373   3.260   9.351 -0.0843 -0.1834 -0.2943
 1015MOL0     C36916  12.460   3.189   9.440 -0.7010 -0.6784  0.1324
 1015MOL0     C36917  12.539   3.260   9.537  0.1077  0.2627 -0.5007
 1015MOL0     C36918  12.524   3.403   9.539 -0.3165  0.0448 -0.7881
 1015MOL0     C36919  12.621   3.475   9.630  0.2189  0.7607 -0.5024
 1015MOL0     O36920  12.728   3.403   9.672 -0.1308 -0.1126 -0.3737
 1015MOL0     C36921  12.824   3.469   9.747  0.6422 -1.0297  1.1558
 1015MOL0     C36922  12.887   3.588   9.694 -0.2290 -0.1294 -1.6882
 1015MOL0     C36923  13.003   3.630   9.768 -0.2194  0.7261 -0.0885
 1015MOL0     C36924  13.058   3.559   9.874 -0.9040 -0.0129 -0.1078
 1015MOL0     O36925  13.172   3.592   9.939  0.5729 -0.2236  0.2285
 1015MOL0     C36926  13.259   3.694   9.888 -0.5215  0.6345  0.1668
 1015MOL0     C36927  13.372   3.707   9.990  0.3526  0.6895 -0.3695
 1015MOL0     C36928  13.472   3.806   9.928  0.3466  0.3269  0.4743
 1015MOL0     C36929  13.574   3.857  10.030  0.3064  0.8208  0.3428
 1015MOL0     C36930  13.670   3.954   9.974  0.0208  0.1438  0.1299
 1015MOL0     C36931  13.768   4.025  10.068 -0.2522 -0.6478  0.1364
 1015MOL0     C36932  13.864   3.919  10.139  0.1877 -0.2543 -0.9826
 1015MOL0     C36933  13.963   3.992  10.226 -0.9871 -0.4015 -0.0138
 1015MOL0    Cl36934  14.078   4.069  10.110  0.0643  0.2194  0.2269
 1015MOL0     C36935  12.989   3.449   9.917 -0.2561 -0.7683  0.3338
 1015MOL0     C36936  12.876   3.404   9.859 -0.5082 -0.4470 -0.8420
 1015MOL0     O36937  12.601   3.598   9.646  0.1958 -0.0703 -0.2427
 1015MOL0     C36938  12.428   3.465   9.461  0.5507 -0.8957 -0.1407
 1015MOL0     C36939  12.362   3.395   9.363  0.1679 -0.5508  0.7653
 1015MOL0     N36940  11.676   3.150   9.154 -0.6527 -0.2198 -0.7432
 1015MOL0     N36941  11.572   3.076   9.121 -0.1918  0.2540  0.3174
 1015MOL0     C36942  10.456   2.727   9.861 -0.4997 -0.2426 -0.3935
 1015MOL0     C36943  10.320   2.751   9.881 -0.0618  0.0290  0.1415
 1015MOL0     C36944   9.904   2.930   9.900  0.6759 -0.1569 -0.3008
 1015MOL0     C36945   9.890   2.950  10.040 -0.2660  0.7503 -0.7882
 1015MOL0     C36946   9.767   2.983  10.094  0.2023  0.1954 -0.1134
 1015MOL0     C36947   9.650   2.996  10.016  0.6042  0.5383 -0.7472
 1015MOL0     O36948   9.536   3.025  10.092  0.4207 -0.4922  0.7761
 1015MOL0     C36949   9.408   3.028  10.030 -0.9874  0.4463  0.6648
 1015MOL0     C36950   9.321   3.105  10.126 -0.1995 -0.0298 -0.2701
 1015MOL0     C36951   9.165   3.111  10.087  0.2436  0.7596  0.0152
 1015MOL0     C36952   9.151   3.181   9.958  0.2576  0.2219  0.2680
 1015MOL0     C36953   9.019   3.214   9.940  0.5878  0.8999 -0.1299
 1015MOL0     C36954   8.909   3.245   9.928 -0.4424 -0.0286 -0.4790
 1015MOL0     C36955   9.660   2.973   9.877  0.1132  0.6287  0.2848
 1015MOL0     C36956   9.790   2.954   9.814 -1.1474 -0.5622 -0.3937
 1015MOL0     C36957   9.792   2.937   9.660  0.0901 -0.7479 -0.1773
 1015MOL0     H36958  10.337   3.084   9.967  0.1811  1.6097 -2.1649
 1015MOL0     H36959  10.581   3.015   9.968  2.3384 -2.5774  1.5879
 1015MOL0     H36960  10.681   2.954   9.742  0.2216 -0.3478 -0.3632
 1015MOL0     H36961  10.809   2.954   9.846  1.3711 -0.0352 -0.4127
 1015MOL0     H36962  10.781   2.761   9.598  1.9999 -0.3425 -1.9251
 1015MOL0     H36963  10.892   2.735   9.733 -1.9979  0.0772  3.3969
 1015MOL0     H36964  10.983   2.974   9.682  0.8344  1.0119 -0.3412
 1015MOL0     H36965  10.858   2.973   9.553  0.6018 -0.8765 -1.6679
 1015MOL0     H36966  11.084   2.775   9.553 -0.5986 -0.9454 -1.2319
 1015MOL0     H36967  10.964   2.815   9.430 -0.9844 -3.6652  1.5797
 1015MOL0     H36968  11.081   3.047   9.405  0.8079  2.0004  2.2209
 1015MOL0     H36969  11.162   3.020   9.556 -1.7430 -1.0416  1.7215
 1015MOL0     H36970  11.294   2.819   9.458  1.1157 -0.4267  0.6613
 1015MOL0     H36971  11.172   2.832   9.323 -1.7830  0.5700  1.3875
 1015MOL0     H36972  11.355   3.070   9.392  0.5574 -0.9343  1.0506
 1015MOL0     H36973  11.254   3.039   9.254  0.5679  0.7878  0.1610
 1015MOL0     H36974  11.481   2.841   9.326 -0.6050  0.2731  0.7099
 1015MOL0     H36975  11.397   2.865   9.167 -0.8149  2.9817 -0.8973
 1015MOL0     H36976  11.642   2.986   9.427  3.1900  0.9233  0.2347
 1015MOL0     H36977  11.835   3.288   9.363 -0.3822 -0.2234  1.1508
 1015MOL0     H36978  11.859   3.126   9.436  1.5069 -1.4709 -0.1470
 1015MOL0     H36979  11.962   3.088   9.168  0.8153  0.9824 -1.4564
 1015MOL0     H36980  12.010   3.250   9.201  1.2731 -0.4357  0.5345
 1015MOL0     H36981  12.062   3.021   9.396 -1.3865  0.4250  0.3970
 1015MOL0     H36982  12.091   3.189   9.428 -1.4063  0.9173 -0.4004
 1015MOL0     H36983  12.204   3.019   9.186 -0.7318 -0.0987  0.1925
 1015MOL0     H36984  12.277   3.014   9.349  0.1472  2.3957  2.2760
 1015MOL0     H36985  12.472   3.082   9.428  0.8867 -0.5752  0.6280
 1015MOL0     H36986  12.616   3.204   9.588 -0.0633 -0.0501 -0.5809
 1015MOL0     H36987  12.845   3.635   9.606 -0.7915  1.7320 -0.4714
 1015MOL0     H36988  13.040   3.725   9.729 -0.9196  1.0973  0.1302
 1015MOL0     H36989  13.304   3.648   9.799 -0.3538 -2.5856  1.7632
 1015MOL0     H36990  13.202   3.786   9.870  0.1728  0.9801 -0.2873
 1015MOL0     H36991  13.336   3.747  10.085 -0.1686  0.5955 -0.5229
 1015MOL0     H36992  13.418   3.612  10.018 -0.7155  0.7461  1.7831
 1015MOL0     H36993  13.519   3.766   9.837 -1.0672 -0.5817  0.1246
 1015MOL0     H36994  13.414   3.891   9.891 -0.3448 -0.5807 -0.6001
 1015MOL0     H36995  13.623   3.778  10.088  0.3178  0.8585  0.3853
 1015MOL0     H36996  13.519   3.923  10.098  0.1461  3.5392 -2.2051
 1015MOL0     H36997  13.614   4.035   9.926  1.7580  1.9227  0.9814
 1015MOL0     H36998  13.731   3.909   9.895  0.4547  0.8657  0.0544
 1015MOL0     H36999  13.830   4.098  10.017  0.7999 -1.7733 -0.2565
 1015MOL0     H37000  13.702   4.075  10.139 -0.8804 -2.9829  1.3181
 1015MOL0     H37001  13.911   3.851  10.067 -1.7040 -2.6405 -0.0944
 1015MOL0     H37002  13.812   3.844  10.198  0.3819  0.0470 -0.4255
 1015MOL0     H37003  13.922   4.070  10.291  1.6521 -0.7449  2.2196
 1015MOL0     H37004  14.023   3.920  10.282  0.7887 -1.0007 -2.5123
 1015MOL0     H37005  13.022   3.395  10.005 -1.2565 -0.1022  1.1349
 1015MOL0     H37006  12.824   3.327   9.914  0.4164 -0.6514 -0.2367
 1015MOL0     H37007  12.420   3.574   9.460 -1.6588 -1.0344 -0.7862
 1015MOL0     H37008  12.288   3.438   9.297  0.0396 -2.8088 -0.6699
 1015MOL0     H37009  10.478   2.630   9.819 -2.3957 -1.2941  0.8951
 1015MOL0     H37010  10.244   2.677   9.862 -0.8893  0.2731  2.2253
 1015MOL0     H37011   9.974   2.955  10.109 -0.2537 -0.3465 -0.6969
 1015MOL0     H37012   9.775   3.000  10.201 -1.2940 -1.5268  0.3269
 1015MOL0     H37013   9.384   2.922  10.018  2.3026 -0.1401 -2.4741
 1015MOL0     H37014   9.415   3.086   9.938 -0.3496  1.2314  1.1903
 1015MOL0     H37015   9.356   3.208  10.140 -2.1543  0.5214  1.0216
 1015MOL0     H37016   9.331   3.066  10.228  1.7823 -0.8432 -0.7219
 1015MOL0     H37017   9.108   3.145  10.174 -0.6752 -0.7805  0.0648
 1015MOL0     H37018   9.130   3.008  10.070 -1.2361  1.3798 -0.8441
 1015MOL0     H37019   9.212   3.272   9.946 -0.2717  0.2876 -2.7509
 1015MOL0     H37020   9.182   3.114   9.877  0.5042  0.6402  0.0103
 1015MOL0     H37021   8.807   3.262   9.897  0.6124  0.6545 -4.0254
 1015MOL0     H37022   9.565   2.969   9.825 -1.3494 -0.5828  2.8284
 1015MOL0     H37023   9.711   2.993   9.613  1.0763  1.7686  0.9415
 1015MOL0     H37024   9.886   2.974   9.617  0.7621 -2.8982 -0.7287
 1015MOL0     H37025   9.788   2.833   9.626 -1.4603 -0.2190 -1.6998
 1016MOL0     O37026   0.640   3.718   8.090  0.1616 -0.1660  0.2310
 1016MOL0     C37027   0.528   3.755   8.048  0.4193 -0.7485  0.4061
 1016MOL0     O37028   0.505   3.840   7.942 -0.1248 -0.1193 -0.1192
 1016MOL0     C37029   0.617   3.878   7.863 -0.7163  0.8648  0.0323
 1016MOL0     C37030   0.713   3.784   7.803  0.7301 -0.9304 -0.2218
 1016MOL0     C37031   0.801   3.828   7.705  0.1411 -0.6719 -0.1672
 1016MOL0     C37032   0.815   3.963   7.679  0.6296 -0.1711  0.0435
 1016MOL0     O37033   0.900   4.001   7.579  0.5323  0.2507 -0.2419
 1016MOL0     C37034   1.016   4.079   7.620 -0.0598  0.2760 -0.2014
 1016MOL0     C37035   1.116   4.102   7.506 -0.0702 -0.0726 -0.2759
 1016MOL0     C37036   1.195   3.970   7.477 -0.2523 -0.4059  0.3409
 1016MOL0     C37037   1.346   3.984   7.465  0.3869 -0.5542  0.4985
 1016MOL0     C37038   1.409   3.869   7.375  0.1190 -0.3470 -0.0895
 1016MOL0     C37039   1.562   3.885   7.344 -0.1507  0.1486 -0.3582
 1016MOL0     C37040   1.600   4.029   7.307  0.2197 -0.0828  0.4287
 1016MOL0     C37041   1.741   4.028   7.251 -0.1688  0.2908 -0.2834
 1016MOL0     N37042   1.802   4.163   7.250  0.8095  0.0871  0.0140
 1016MOL0     C37043   1.756   4.254   7.169  0.2593 -0.4693  0.3846
 1016MOL0     C37044   1.824   4.367   7.211 -0.7788  0.0333 -0.1074
 1016MOL0     C37045   1.811   4.515   7.156 -0.0193  0.2664 -0.4432
 1016MOL0     C37046   1.931   4.603   7.191  1.7463  0.0011 -0.0451
 1016MOL0     C37047   2.042   4.572   7.092  1.1865  0.2369 -0.4922
 1016MOL0     C37048   2.124   4.703   7.075 -0.4777  0.3516  0.1267
 1016MOL0     O37049   2.201   4.731   7.188  0.1477  0.0195 -0.5725
 1016MOL0     C37050   2.326   4.779   7.171 -0.2786  0.2386  0.9514
 1016MOL0     C37051   2.358   4.912   7.151 -1.0679 -0.1013  0.2158
 1016MOL0     C37052   2.490   4.964   7.137  0.7325 -0.2741  0.1097
 1016MOL0     C37053   2.598   4.879   7.115 -0.3459  0.2936  0.4035
 1016MOL0     C37054   2.740   4.917   7.106  0.3602 -0.7879 -0.6335
 1016MOL0     O37055   2.826   4.819   7.083 -0.1602 -0.2086 -0.3631
 1016MOL0     C37056   2.959   4.856   7.067 -0.0433  0.1907  0.4573
 1016MOL0     C37057   3.038   4.824   7.176 -0.2974  0.2873 -0.1351
 1016MOL0     C37058   3.173   4.835   7.165 -0.1999  0.8269  0.6598
 1016MOL0     C37059   3.235   4.883   7.050  0.5745 -0.9908  0.1216
 1016MOL0     O37060   3.367   4.912   7.057 -0.7996 -0.3940  0.1095
 1016MOL0     C37061   3.458   4.800   7.017  0.3882  0.0569 -1.4702
 1016MOL0     C37062   3.530   4.753   7.153 -0.2216  0.6416 -0.4089
 1016MOL0     C37063   3.647   4.658   7.120  0.2226  0.9735 -0.3129
 1016MOL0     C37064   3.612   4.505   7.151  0.5452 -0.1359  0.0092
 1016MOL0     C37065   3.742   4.423   7.136  0.4613 -0.0626  0.1974
 1016MOL0     C37066   3.712   4.273   7.141 -0.3838 -0.5595  0.3612
 1016MOL0     C37067   3.841   4.183   7.125  0.0068  0.9435  0.5188
 1016MOL0     C37068   3.876   4.171   6.975  0.3959 -0.2122 -0.4640
 1016MOL0    Cl37069   3.742   4.091   6.889 -0.7688 -0.4119 -0.2069
 1016MOL0     C37070   3.156   4.924   6.940 -0.7859 -0.3328  0.4122
 1016MOL0     C37071   3.016   4.912   6.948  1.1272 -0.0630 -0.1619
 1016MOL0     O37072   2.769   5.038   7.124  0.0038 -0.1424  0.4333
 1016MOL0     C37073   2.562   4.741   7.124  0.7681  0.5707 -0.5567
 1016MOL0     C37074   2.435   4.691   7.145 -0.2502  0.1062 -0.4073
 1016MOL0     N37075   1.905   4.330   7.318 -0.2159  0.9780 -0.0830
 1016MOL0     N37076   1.900   4.205   7.334 -0.3940  0.0402 -0.2649
 1016MOL0     C37077   0.724   4.058   7.733  1.2704 -0.6645  0.4497
 1016MOL0     C37078   0.622   4.009   7.824  0.2852  0.0814 -0.2835
 1016MOL0     C37079   0.402   3.727   8.127 -0.4641  0.4344 -0.1711
 1016MOL0     C37080   0.425   3.744   8.272  1.0804  0.6043  1.1316
 1016MOL0     C37081   0.305   3.761   8.346  0.4218 -0.0509  0.1257
 1016MOL0     C37082   0.181   3.740   8.287  0.3645 -0.0929 -0.5691
 1016MOL0     O37083   0.067   3.757   8.367  0.3019 -1.5553 -0.1054
 1016MOL0     C37084   0.022   3.641   8.436 -0.2504 -0.6642  0.2433
 1016MOL0     C37085  -0.124   3.631   8.429  0.1198 -0.1555 -0.1952
 1016MOL0     C37086  -0.185   3.742   8.521  0.3818  0.8127  0.0419
 1016MOL0     C37087  -0.338   3.729   8.522 -0.2677 -0.1706  1.2312
 1016MOL0     C37088  -0.402   3.848   8.588  0.0511  0.1774  0.1697
 1016MOL0     C37089  -0.480   3.920   8.642  0.2173 -0.4982 -0.5710
 1016MOL0     C37090   0.167   3.715   8.156 -0.0137 -0.1215  0.1958
 1016MOL0     C37091   0.276   3.707   8.067 -0.7633  0.9677 -0.3212
 1016MOL0     C37092   0.264   3.664   7.927 -0.2484 -0.4516 -0.6143
 1016MOL0     H37093   0.696   3.682   7.835 -2.1737 -0.7882 -1.0589
 1016MOL0     H37094   0.861   3.752   7.658  4.4095  1.0624  1.9768
 1016MOL0     H37095   0.989   4.179   7.656  2.4509  0.8256  0.3576
 1016MOL0     H37096   1.063   4.037   7.710 -2.4694  0.3979  1.1938
 1016MOL0     H37097   1.182   4.185   7.532 -1.7239  1.3340 -0.4577
 1016MOL0     H37098   1.060   4.136   7.419  0.1569 -0.2857 -0.5094
 1016MOL0     H37099   1.154   3.936   7.382 -0.6460  1.8721 -0.3515
 1016MOL0     H37100   1.177   3.887   7.546 -2.3784  0.3021  0.7136
 1016MOL0     H37101   1.379   4.079   7.424  4.6419 -1.2474  1.8801
 1016MOL0     H37102   1.388   3.982   7.566 -2.6131 -1.0444  1.8655
 1016MOL0     H37103   1.390   3.774   7.426 -3.3276  0.7211  0.8585
 1016MOL0     H37104   1.362   3.873   7.277  1.8874  1.1000 -0.9471
 1016MOL0     H37105   1.634   3.858   7.422  0.3608  0.1218 -0.8353
 1016MOL0     H37106   1.573   3.812   7.263 -2.0066 -1.7368  0.9545
 1016MOL0     H37107   1.594   4.089   7.398 -2.2167 -0.8450  0.8283
 1016MOL0     H37108   1.539   4.066   7.224  1.3690 -0.9992 -0.8794
 1016MOL0     H37109   1.806   3.959   7.307 -1.3967 -0.7395 -0.0832
 1016MOL0     H37110   1.755   3.987   7.151  0.4792 -0.6739  0.1820
 1016MOL0     H37111   1.691   4.245   7.083  2.6417 -1.8758 -1.4129
 1016MOL0     H37112   1.799   4.511   7.047 -0.5022 -1.5586 -0.3649
 1016MOL0     H37113   1.720   4.556   7.200 -1.8298 -1.0491 -2.6878
 1016MOL0     H37114   1.889   4.704   7.189  2.7615  0.4293 -0.8087
 1016MOL0     H37115   1.959   4.587   7.296  0.5394 -0.9651  0.1426
 1016MOL0     H37116   2.000   4.542   6.996 -0.0326  0.3275  0.0025
 1016MOL0     H37117   2.110   4.497   7.135  0.1231 -1.6411 -1.9372
 1016MOL0     H37118   2.065   4.791   7.049  1.7212  2.2448  1.1760
 1016MOL0     H37119   2.192   4.687   6.990 -2.2016  3.1401 -1.9593
 1016MOL0     H37120   2.280   4.987   7.159  0.7627  1.9197 -0.0368
 1016MOL0     H37121   2.510   5.071   7.131 -0.1557 -0.0209  1.3121
 1016MOL0     H37122   2.996   4.792   7.271 -1.2046  0.5290 -0.4467
 1016MOL0     H37123   3.243   4.817   7.245 -0.1826 -1.4500  0.1863
 1016MOL0     H37124   3.405   4.717   6.969 -2.8802  1.1501 -0.0436
 1016MOL0     H37125   3.528   4.853   6.951 -0.3683  2.2843 -0.6062
 1016MOL0     H37126   3.566   4.846   7.197  1.1830 -0.4372  0.8409
 1016MOL0     H37127   3.453   4.714   7.219  0.5323 -3.9149 -1.8432
 1016MOL0     H37128   3.672   4.654   7.014  3.3748  1.3572  0.2970
 1016MOL0     H37129   3.739   4.675   7.177  1.5312 -2.4877 -1.1107
 1016MOL0     H37130   3.531   4.472   7.085  1.1999  0.8021 -1.3102
 1016MOL0     H37131   3.583   4.503   7.256 -1.0828  1.2928 -0.3642
 1016MOL0     H37132   3.808   4.455   7.217  1.3511  0.9046 -0.8830
 1016MOL0     H37133   3.788   4.445   7.039 -2.0459  2.6118 -0.5323
 1016MOL0     H37134   3.658   4.240   7.231  0.7929 -1.7671  0.6597
 1016MOL0     H37135   3.644   4.258   7.057  1.2131  1.1294 -1.3016
 1016MOL0     H37136   3.819   4.085   7.169 -3.2982  1.3333  0.0175
 1016MOL0     H37137   3.929   4.223   7.176  0.7158  0.3046 -0.1959
 1016MOL0     H37138   3.899   4.271   6.938 -2.1427  1.3328  1.7509
 1016MOL0     H37139   3.968   4.111   6.976  1.8957  1.9246  1.8528
 1016MOL0     H37140   3.197   4.982   6.858 -1.1331  3.2812  2.5951
 1016MOL0     H37141   2.954   4.938   6.862 -0.2502 -3.3048 -0.2772
 1016MOL0     H37142   2.634   4.660   7.115  1.9423  1.5220 -0.0015
 1016MOL0     H37143   2.423   4.583   7.147  1.0229 -0.0364 -0.0581
 1016MOL0     H37144   0.720   4.161   7.702 -0.7075 -0.1141  2.3108
 1016MOL0     H37145   0.550   4.078   7.867 -0.2877 -0.1287 -0.8898
 1016MOL0     H37146   0.525   3.763   8.309  0.2137  1.8682  2.9764
 1016MOL0     H37147   0.307   3.785   8.452 -0.4102  2.6438 -0.3832
 1016MOL0     H37148   0.058   3.643   8.539  1.9430  1.4370 -0.4663
 1016MOL0     H37149   0.075   3.554   8.396  0.7160  0.8251 -1.9224
 1016MOL0     H37150  -0.158   3.533   8.463  3.1379 -1.1985  0.1747
 1016MOL0     H37151  -0.167   3.636   8.329 -1.2684  2.3004  0.4385
 1016MOL0     H37152  -0.153   3.837   8.477  0.1701  0.1156 -1.6969
 1016MOL0     H37153  -0.149   3.735   8.624 -1.7146  2.6608  1.0046
 1016MOL0     H37154  -0.376   3.714   8.421 -0.0193  0.3766  1.0537
 1016MOL0     H37155  -0.370   3.639   8.576 -2.8726  0.2661  0.5607
 1016MOL0     H37156  -0.552   3.985   8.688  1.4566  0.7851 -0.3843
 1016MOL0     H37157   0.070   3.699   8.111 -0.6061  0.2641  1.2981
 1016MOL0     H37158   0.259   3.752   7.861  0.1425  0.4669  0.5388
 1016MOL0     H37159   0.354   3.616   7.888 -1.1425  0.3836 -4.1043
 1016MOL0     H37160   0.177   3.601   7.910  0.2611 -1.6088  0.9140
 1017MOL0     O37161   6.458   0.815   2.630 -0.0699 -0.2925 -0.7620
 1017MOL0     C37162   6.467   0.807   2.755 -0.4829  0.8307  0.9434
 1017MOL0     O37163   6.556   0.871   2.827 -0.6186  0.3093 -0.2236
 1017MOL0     C37164   6.611   0.991   2.804 -0.6632 -0.7321 -0.9594
 1017MOL0     C37165   6.701   1.046   2.904  0.4274 -0.4236  0.8688
 1017MOL0     C37166   6.776   1.161   2.883 -0.3672 -0.5336 -0.1069
 1017MOL0     C37167   6.752   1.238   2.770 -0.4082  0.2629  0.2569
 1017MOL0     O37168   6.816   1.359   2.757 -0.3325 -0.0976  0.2232
 1017MOL0     C37169   6.940   1.387   2.827 -0.0020  0.2122 -0.0376
 1017MOL0     C37170   7.057   1.297   2.782  0.5619 -0.5098 -0.3027
 1017MOL0     C37171   7.087   1.328   2.639 -0.6365 -0.2846 -0.0992
 1017MOL0     C37172   7.215   1.260   2.584  0.3804 -0.2785  0.5025
 1017MOL0     C37173   7.225   1.272   2.432 -0.0150  0.9108  0.9241
 1017MOL0     C37174   7.339   1.187   2.366 -0.0676  1.3398 -0.3405
 1017MOL0     C37175   7.469   1.261   2.334  0.3252 -0.2779  0.5098
 1017MOL0     C37176   7.555   1.200   2.218  0.1847 -0.2200 -0.7488
 1017MOL0     N37177   7.614   1.066   2.251  0.8949  0.2565  0.0726
 1017MOL0     C37178   7.714   1.041   2.347  0.9113  0.2355 -0.2236
 1017MOL0     C37179   7.734   0.908   2.333  0.8266  0.1545 -0.0983
 1017MOL0     C37180   7.833   0.820   2.402 -0.1632  0.4996  0.3048
 1017MOL0     C37181   7.971   0.867   2.359  0.6187  0.0870 -1.3584
 1017MOL0     C37182   8.086   0.804   2.450 -0.3787 -0.1901 -0.2740
 1017MOL0     C37183   8.215   0.864   2.421  0.4561  0.0689  0.0009
 1017MOL0     O37184   8.290   0.866   2.546  0.3115 -0.0120 -0.2508
 1017MOL0     C37185   8.419   0.912   2.544  0.0999 -0.3853 -0.4680
 1017MOL0     C37186   8.497   0.939   2.428  0.4378  0.9778 -1.0307
 1017MOL0     C37187   8.628   0.991   2.441  0.1639 -0.2586 -0.7895
 1017MOL0     C37188   8.683   1.009   2.568 -0.1562  0.3219 -0.5152
 1017MOL0     C37189   8.831   1.042   2.581 -1.0483 -0.1434  0.5220
 1017MOL0     O37190   8.907   1.079   2.463  0.2158  0.2114 -0.4654
 1017MOL0     C37191   9.046   1.083   2.457  0.2200  0.0227  0.1584
 1017MOL0     C37192   9.130   0.991   2.527  0.8445 -0.1740 -0.9490
 1017MOL0     C37193   9.263   0.979   2.488 -0.2200 -0.3135 -0.0856
 1017MOL0     C37194   9.322   1.058   2.395 -0.2742  0.2990  0.5084
 1017MOL0     O37195   9.456   1.061   2.369  1.2242  0.0138  0.6880
 1017MOL0     C37196   9.531   1.005   2.472  0.0205 -0.1052 -1.1928
 1017MOL0     C37197   9.682   1.041   2.435  0.8664  0.2574 -0.7297
 1017MOL0     C37198   9.780   0.978   2.540 -0.0949  0.6062 -0.4354
 1017MOL0     C37199   9.796   0.834   2.497  0.3568 -0.0511  0.6651
 1017MOL0     C37200   9.897   0.757   2.581  0.1185 -0.3330  0.1843
 1017MOL0     C37201   9.935   0.610   2.554 -0.2142 -0.3263 -1.0734
 1017MOL0     C37202   9.814   0.517   2.565 -0.1822  0.5776  0.6295
 1017MOL0     C37203   9.856   0.370   2.572 -0.4139  0.2492  0.3702
 1017MOL0    Cl37204   9.723   0.244   2.574  0.2713  0.2302  0.4267
 1017MOL0     C37205   9.241   1.142   2.320 -0.7536 -0.6800 -1.0432
 1017MOL0     C37206   9.106   1.164   2.358 -0.6198 -0.4060 -0.3598
 1017MOL0     O37207   8.883   1.022   2.688  0.5319  0.4070 -0.4766
 1017MOL0     C37208   8.603   0.993   2.679  0.0194 -0.0526 -0.0004
 1017MOL0     C37209   8.476   0.949   2.672 -0.3521  0.6890  0.4276
 1017MOL0     N37210   7.644   0.857   2.237  0.2695  0.4505  0.6501
 1017MOL0     N37211   7.579   0.950   2.178  0.0521 -0.2088 -1.0741
 1017MOL0     C37212   6.650   1.203   2.684  0.7010 -0.9877 -0.0657
 1017MOL0     C37213   6.586   1.080   2.696  0.6081  0.1196 -0.9561
 1017MOL0     C37214   6.386   0.707   2.831  0.4163 -0.3248 -0.7828
 1017MOL0     C37215   6.331   0.594   2.769  0.1101 -0.5057  0.8811
 1017MOL0     C37216   6.239   0.506   2.830 -0.4023 -0.4801 -0.0648
 1017MOL0     C37217   6.212   0.512   2.965  0.2032 -0.9183  0.1330
 1017MOL0     O37218   6.130   0.416   3.016  0.3565  0.0121 -0.0272
 1017MOL0     C37219   6.113   0.400   3.165 -0.1808  0.4743 -0.3295
 1017MOL0     C37220   6.219   0.308   3.218  0.3868  0.2672 -0.1262
 1017MOL0     C37221   6.175   0.156   3.237 -0.1197 -0.2045 -0.7468
 1017MOL0     C37222   6.303   0.071   3.248  0.5236  0.0648 -0.2864
 1017MOL0     C37223   6.351   0.020   3.118  0.0447  0.2206  0.4108
 1017MOL0     C37224   6.392  -0.031   3.009 -0.1793 -0.7430 -0.4763
 1017MOL0     C37225   6.278   0.619   3.039  0.0301  0.8047 -0.3571
 1017MOL0     C37226   6.358   0.715   2.978  0.2897 -0.7305  0.2720
 1017MOL0     C37227   6.392   0.831   3.072 -0.8313  0.0831  0.5345
 1017MOL0     H37228   6.714   0.994   2.998  0.3663  0.3428  1.3096
 1017MOL0     H37229   6.841   1.198   2.962 -1.4216  1.7595 -0.2323
 1017MOL0     H37230   6.955   1.495   2.812 -1.0713  0.8406  2.7522
 1017MOL0     H37231   6.926   1.370   2.934 -0.4863 -0.0233 -0.1345
 1017MOL0     H37232   7.035   1.192   2.804 -0.0841  0.4018  4.4562
 1017MOL0     H37233   7.140   1.332   2.845  0.5791  0.5148 -0.8770
 1017MOL0     H37234   7.095   1.436   2.625 -2.1194 -0.4282 -2.7406
 1017MOL0     H37235   7.005   1.294   2.576  0.1404 -0.4777 -1.0276
 1017MOL0     H37236   7.300   1.321   2.616 -0.9804  2.0128  0.0319
 1017MOL0     H37237   7.217   1.158   2.622  1.1641  0.5120  2.7745
 1017MOL0     H37238   7.128   1.247   2.389 -0.6908  1.7111  1.9199
 1017MOL0     H37239   7.232   1.378   2.405 -1.0949  0.7358 -0.1348
 1017MOL0     H37240   7.365   1.100   2.426 -2.7590  1.6252  1.4156
 1017MOL0     H37241   7.296   1.153   2.271 -0.5682 -1.4618  0.8065
 1017MOL0     H37242   7.532   1.262   2.423  1.3866  0.5211 -0.2247
 1017MOL0     H37243   7.454   1.365   2.305 -2.4511 -1.0045 -1.0811
 1017MOL0     H37244   7.487   1.196   2.132 -2.3735 -1.3726  1.1863
 1017MOL0     H37245   7.645   1.261   2.211 -0.4551  0.6640 -1.5347
 1017MOL0     H37246   7.768   1.112   2.409 -2.2129  1.5226  1.2713
 1017MOL0     H37247   7.822   0.827   2.511  2.0531  3.8974  0.4914
 1017MOL0     H37248   7.811   0.718   2.369 -0.1503  0.6133 -0.0547
 1017MOL0     H37249   7.992   0.851   2.253  0.7495 -0.8542 -1.2004
 1017MOL0     H37250   7.970   0.975   2.376  2.1944 -0.2001  1.2703
 1017MOL0     H37251   8.081   0.700   2.416 -3.2272  0.0603 -0.8844
 1017MOL0     H37252   8.065   0.798   2.558  3.4937 -2.2669  0.5481
 1017MOL0     H37253   8.216   0.962   2.373 -0.3601  0.5910  1.0155
 1017MOL0     H37254   8.266   0.798   2.350 -0.5484  2.8517 -3.5857
 1017MOL0     H37255   8.460   0.915   2.329  0.8046  0.0808 -0.9612
 1017MOL0     H37256   8.687   1.003   2.351  0.2064  1.2189 -0.5997
 1017MOL0     H37257   9.083   0.920   2.595 -0.8716  1.3344 -0.4886
 1017MOL0     H37258   9.321   0.906   2.544  1.2193 -0.0854 -1.2424
 1017MOL0     H37259   9.513   1.035   2.576  2.0722 -1.0911 -0.4863
 1017MOL0     H37260   9.521   0.896   2.472  1.1606 -0.2193 -1.7251
 1017MOL0     H37261   9.708   1.001   2.337  0.8055 -1.9153  0.0959
 1017MOL0     H37262   9.682   1.150   2.440 -1.0501  0.3140 -1.2356
 1017MOL0     H37263   9.877   1.028   2.530  1.4697 -2.3267 -1.0140
 1017MOL0     H37264   9.729   0.982   2.637 -0.2156  0.5072 -0.4961
 1017MOL0     H37265   9.836   0.829   2.396  0.0097  1.0375  0.4621
 1017MOL0     H37266   9.700   0.782   2.494  1.6807 -2.6108 -1.1289
 1017MOL0     H37267   9.863   0.764   2.685  0.9363  0.5631  0.4048
 1017MOL0     H37268   9.988   0.818   2.573 -0.4526  0.5454  0.1777
 1017MOL0     H37269   9.977   0.593   2.455 -2.8660  1.9911 -2.7330
 1017MOL0     H37270  10.004   0.577   2.632  0.7242 -1.6776 -2.4320
 1017MOL0     H37271   9.746   0.521   2.479  0.2582  1.6831  0.3141
 1017MOL0     H37272   9.751   0.550   2.648 -1.8672  1.4550 -0.9313
 1017MOL0     H37273   9.907   0.347   2.478  0.0082  2.5920 -0.0287
 1017MOL0     H37274   9.920   0.355   2.660  1.1576  2.1348 -0.3676
 1017MOL0     H37275   9.288   1.204   2.244 -0.5144  0.1145 -0.2624
 1017MOL0     H37276   9.041   1.233   2.304 -1.0382  0.5702  1.3051
 1017MOL0     H37277   8.645   1.012   2.777  1.3178 -1.2638 -0.2812
 1017MOL0     H37278   8.413   0.956   2.760  0.3965  2.2450  0.8777
 1017MOL0     H37279   6.622   1.267   2.601  1.5986 -0.6711 -0.1329
 1017MOL0     H37280   6.517   1.052   2.616  0.0178 -1.7570  0.1321
 1017MOL0     H37281   6.362   0.581   2.666  0.2163 -1.9680  1.0805
 1017MOL0     H37282   6.199   0.424   2.772 -2.5199  0.5882 -0.2071
 1017MOL0     H37283   6.012   0.365   3.186 -0.4005  0.4957 -1.3076
 1017MOL0     H37284   6.125   0.493   3.222  1.6466 -1.1595  2.1346
 1017MOL0     H37285   6.250   0.347   3.315  0.4369 -1.3922  0.5517
 1017MOL0     H37286   6.305   0.312   3.150  0.2552  2.3851 -0.2356
 1017MOL0     H37287   6.113   0.120   3.154 -0.1681  1.4299 -1.4534
 1017MOL0     H37288   6.116   0.143   3.328  1.9762  0.6429  0.8004
 1017MOL0     H37289   6.385   0.127   3.294 -0.6606  2.3221 -0.7638
 1017MOL0     H37290   6.279  -0.017   3.307  1.0972 -0.0726 -0.2553
 1017MOL0     H37291   6.451  -0.048   2.921  1.9912  1.5096  0.3894
 1017MOL0     H37292   6.262   0.622   3.146  1.2319  1.4631 -0.1840
 1017MOL0     H37293   6.344   0.923   3.040 -1.1396 -0.4294 -0.5125
 1017MOL0     H37294   6.366   0.812   3.177 -2.7865  2.2265  0.5241
 1017MOL0     H37295   6.496   0.863   3.068 -0.4606 -1.1087  0.3211
 1018MOL0     O37296  10.084   0.063   3.961 -0.4413  0.1206  0.0874
 1018MOL0     C37297   9.979   0.129   3.948 -0.1365  0.2278  0.7265
 1018MOL0     O37298   9.951   0.187   3.828  0.4528 -0.2920  0.0135
 1018MOL0     C37299  10.016   0.139   3.721  0.1508 -0.5737 -0.0576
 1018MOL0     C37300   9.976   0.016   3.651 -1.0048 -0.1821  0.0594
 1018MOL0     C37301  10.043  -0.027   3.541 -0.1262 -0.4557  1.4821
 1018MOL0     C37302  10.145   0.053   3.487  0.3256 -0.1140 -0.1404
 1018MOL0     O37303  10.203   0.016   3.370  0.5000 -0.0899  0.4495
 1018MOL0     C37304  10.339   0.041   3.360 -0.3321  0.4849  0.0495
 1018MOL0     C37305  10.423  -0.041   3.466 -0.1958  0.5653 -0.4674
 1018MOL0     C37306  10.556  -0.071   3.411  0.8186 -0.1618  0.7279
 1018MOL0     C37307  10.644  -0.109   3.533  0.3559 -0.0213  0.8744
 1018MOL0     C37308  10.781  -0.160   3.488  0.0255 -0.5821 -0.0325
 1018MOL0     C37309  10.856  -0.045   3.418  0.5039  0.3311 -0.6363
 1018MOL0     C37310  10.995  -0.076   3.369  0.0927 -0.4155 -0.1635
 1018MOL0     C37311  11.071   0.055   3.330 -0.0079  0.2155 -0.0640
 1018MOL0     N37312  11.213   0.015   3.354 -0.6718  0.0606  0.6516
 1018MOL0     C37313  11.284  -0.059   3.261  1.0206  0.0784 -0.1906
 1018MOL0     C37314  11.417  -0.048   3.307 -0.0724 -0.5450  1.1290
 1018MOL0     C37315  11.532  -0.128   3.246 -0.3093 -0.0051 -0.2671
 1018MOL0     C37316  11.577  -0.247   3.338  0.5165 -0.5877  0.2804
 1018MOL0     C37317  11.674  -0.349   3.277  0.0659 -0.2199  0.0808
 1018MOL0     C37318  11.774  -0.272   3.194 -0.2682 -0.1407  0.4451
 1018MOL0     O37319  11.874  -0.363   3.134  1.1674  0.2188 -0.0711
 1018MOL0     C37320  11.981  -0.400   3.215 -0.4316  0.9600 -0.1612
 1018MOL0     C37321  12.056  -0.513   3.171 -0.8451  0.3810  0.4504
 1018MOL0     C37322  12.176  -0.552   3.229  0.2611  0.4349 -0.0558
 1018MOL0     C37323  12.226  -0.484   3.340 -1.1321 -0.4590 -0.4248
 1018MOL0     C37324  12.356  -0.522   3.399 -0.0095 -0.3979 -0.5991
 1018MOL0     O37325  12.424  -0.618   3.335  0.8899 -0.3788 -0.3039
 1018MOL0     C37326  12.554  -0.644   3.362  0.1251 -0.1897 -0.4459
 1018MOL0     C37327  12.590  -0.776   3.371  0.2344  0.2209  0.1407
 1018MOL0     C37328  12.722  -0.831   3.375 -0.0258 -0.1516 -0.2742
 1018MOL0     C37329  12.826  -0.732   3.375  0.9341 -0.0547  0.0378
 1018MOL0     O37330  12.959  -0.774   3.369 -0.2164  0.4413 -0.5547
 1018MOL0     C37331  13.063  -0.687   3.361 -0.1057 -0.4387  0.5833
 1018MOL0     C37332  13.205  -0.747   3.365 -0.3637 -0.4246  0.8954
 1018MOL0     C37333  13.322  -0.648   3.358  0.5599  0.2634 -0.1826
 1018MOL0     C37334  13.462  -0.715   3.369 -0.2994 -0.8099 -0.0472
 1018MOL0     C37335  13.518  -0.769   3.230 -0.2508  0.2493 -0.0431
 1018MOL0     C37336  13.665  -0.795   3.220 -1.1145 -0.5371  0.9053
 1018MOL0     C37337  13.745  -0.657   3.201 -0.1482 -0.6422 -0.2252
 1018MOL0     C37338  13.882  -0.672   3.244 -0.1581  0.1382 -0.3130
 1018MOL0    Cl37339  13.887  -0.705   3.410  0.0645 -0.2726 -0.3685
 1018MOL0     C37340  12.789  -0.598   3.359  0.0698 -1.2045 -0.6387
 1018MOL0     C37341  12.654  -0.553   3.350  0.7205 -0.2356  0.1581
 1018MOL0     O37342  12.402  -0.460   3.495 -0.2959  0.0404 -0.3955
 1018MOL0     C37343  12.150  -0.380   3.397  0.9093 -0.9144 -0.9700
 1018MOL0     C37344  12.023  -0.348   3.340 -0.5428  0.3554 -0.0203
 1018MOL0     N37345  11.413   0.044   3.413  0.2999  0.5034  0.0592
 1018MOL0     N37346  11.297   0.079   3.438 -0.1510 -0.1105 -0.3616
 1018MOL0     C37347  10.185   0.173   3.551 -0.2765  0.8045  0.4967
 1018MOL0     C37348  10.128   0.204   3.676  0.4288 -0.5506  0.3606
 1018MOL0     C37349   9.870   0.149   4.051  0.5300 -0.6380  0.4619
 1018MOL0     C37350   9.793   0.270   4.054 -0.5957 -0.5939  0.3421
 1018MOL0     C37351   9.696   0.292   4.152  0.3014  0.5316  0.8857
 1018MOL0     C37352   9.669   0.189   4.243 -0.2628 -0.1705  0.2906
 1018MOL0     O37353   9.558   0.195   4.334 -0.4350 -0.2142 -0.1585
 1018MOL0     C37354   9.524   0.316   4.405  0.1752  1.2524  0.4283
 1018MOL0     C37355   9.379   0.310   4.434 -0.5755  0.1319 -0.2058
 1018MOL0     C37356   9.333   0.444   4.497  0.3236 -0.0897  0.8284
 1018MOL0     C37357   9.268   0.530   4.384  0.1075  0.6008 -0.1203
 1018MOL0     C37358   9.224   0.646   4.456  0.0646  0.7923  0.8886
 1018MOL0     C37359   9.209   0.744   4.526 -0.0924 -0.0477 -0.3085
 1018MOL0     C37360   9.735   0.066   4.234  0.4548  0.6253  1.0931
 1018MOL0     C37361   9.825   0.043   4.137 -0.1887  0.5418 -0.1522
 1018MOL0     C37362   9.888  -0.094   4.133  0.9201  0.1391  0.0633
 1018MOL0     H37363   9.883  -0.029   3.685  0.0829 -3.2584 -0.7217
 1018MOL0     H37364   9.995  -0.110   3.489 -2.3058  2.2650 -1.1979
 1018MOL0     H37365  10.359   0.026   3.254 -0.2375  0.8552  0.0110
 1018MOL0     H37366  10.379   0.143   3.372 -0.0584  0.4312 -0.3752
 1018MOL0     H37367  10.368  -0.131   3.497 -1.3250  0.9248 -1.3542
 1018MOL0     H37368  10.435   0.020   3.556  0.0280  0.6283 -0.5399
 1018MOL0     H37369  10.594   0.011   3.350 -0.2575 -1.6178 -2.0294
 1018MOL0     H37370  10.551  -0.152   3.338 -0.5079  1.7679 -1.4401
 1018MOL0     H37371  10.668  -0.021   3.593 -1.0613  1.9130 -1.2487
 1018MOL0     H37372  10.588  -0.181   3.593 -4.5245 -1.7011 -4.7111
 1018MOL0     H37373  10.832  -0.205   3.574  0.7124 -1.1209 -0.7176
 1018MOL0     H37374  10.755  -0.238   3.415  0.8411 -0.0508 -0.9041
 1018MOL0     H37375  10.804  -0.015   3.327  2.9174  0.4198 -2.0926
 1018MOL0     H37376  10.849   0.037   3.489 -2.4223 -2.6313  2.8726
 1018MOL0     H37377  10.992  -0.138   3.279  5.4577  0.5902 -1.3819
 1018MOL0     H37378  11.046  -0.126   3.452  1.2800  0.3393 -0.4145
 1018MOL0     H37379  11.072   0.085   3.225  3.1831 -0.4521 -0.3225
 1018MOL0     H37380  11.055   0.143   3.394 -0.1111  1.6747 -2.0293
 1018MOL0     H37381  11.245  -0.097   3.167  1.2658 -2.4386  0.6513
 1018MOL0     H37382  11.493  -0.176   3.156  0.8142  1.2681 -1.4687
 1018MOL0     H37383  11.608  -0.058   3.211  2.2908 -3.2447 -1.7417
 1018MOL0     H37384  11.614  -0.195   3.427 -1.5357  1.1330  0.1955
 1018MOL0     H37385  11.493  -0.309   3.371 -0.6221  0.6558 -0.2115
 1018MOL0     H37386  11.622  -0.426   3.219 -0.1055 -1.0156  1.2611
 1018MOL0     H37387  11.728  -0.402   3.356  0.3506 -2.1551 -1.3353
 1018MOL0     H37388  11.828  -0.190   3.242 -1.8635  2.3949 -1.8409
 1018MOL0     H37389  11.719  -0.227   3.111 -0.9818 -0.7842  0.5521
 1018MOL0     H37390  12.018  -0.564   3.083  0.7084 -1.0295  0.5420
 1018MOL0     H37391  12.227  -0.643   3.196  0.6930  1.5003 -2.5580
 1018MOL0     H37392  12.502  -0.839   3.376 -0.4150  1.2239  2.4129
 1018MOL0     H37393  12.749  -0.936   3.379 -5.2412 -1.7932  0.5315
 1018MOL0     H37394  13.054  -0.622   3.273 -3.2327  0.3675  1.3923
 1018MOL0     H37395  13.051  -0.621   3.448  1.9845 -1.8903  2.0614
 1018MOL0     H37396  13.210  -0.799   3.461 -0.1706 -3.1382 -0.4865
 1018MOL0     H37397  13.216  -0.823   3.287 -1.1102 -0.0027  0.3639
 1018MOL0     H37398  13.320  -0.594   3.263  1.0180  0.0430 -0.3184
 1018MOL0     H37399  13.307  -0.571   3.434 -1.9680  1.6758 -1.9531
 1018MOL0     H37400  13.463  -0.805   3.431  1.5071 -0.5859  0.3050
 1018MOL0     H37401  13.532  -0.637   3.400 -2.6435  1.3028  0.2481
 1018MOL0     H37402  13.483  -0.713   3.142 -0.5707  0.5058  0.2445
 1018MOL0     H37403  13.470  -0.867   3.223  0.0793  0.0567  0.3754
 1018MOL0     H37404  13.712  -0.854   3.300 -0.4059  1.8507  2.3576
 1018MOL0     H37405  13.702  -0.849   3.132 -1.6434  0.3456  0.1333
 1018MOL0     H37406  13.694  -0.582   3.263  1.9135 -0.6437  1.5595
 1018MOL0     H37407  13.745  -0.644   3.092 -0.5676 -3.3168 -0.6123
 1018MOL0     H37408  13.923  -0.761   3.196 -1.3126 -0.2306 -0.6206
 1018MOL0     H37409  13.948  -0.587   3.224  1.3492 -1.0319 -0.5111
 1018MOL0     H37410  12.863  -0.521   3.340 -0.4298 -0.5235  0.1297
 1018MOL0     H37411  12.620  -0.450   3.335  1.3995 -0.2511 -1.8794
 1018MOL0     H37412  12.180  -0.324   3.485 -0.3076 -1.0843 -0.4278
 1018MOL0     H37413  11.973  -0.270   3.395 -0.6735 -0.2435  0.7315
 1018MOL0     H37414  10.264   0.239   3.517  1.7577 -1.1626  1.1320
 1018MOL0     H37415  10.166   0.295   3.721  3.2682 -1.9602  1.0438
 1018MOL0     H37416   9.811   0.347   3.979 -0.2485 -2.1227 -1.2224
 1018MOL0     H37417   9.648   0.389   4.143  1.2884  0.9579  0.1605
 1018MOL0     H37418   9.549   0.398   4.337 -1.2991 -0.4704 -2.3575
 1018MOL0     H37419   9.582   0.312   4.498  3.0148  1.0491 -1.2405
 1018MOL0     H37420   9.354   0.222   4.493  1.5950 -0.5030 -0.1592
 1018MOL0     H37421   9.322   0.289   4.343 -2.1440 -1.5800  1.0916
 1018MOL0     H37422   9.411   0.500   4.549 -1.0516  2.4793  0.3054
 1018MOL0     H37423   9.250   0.425   4.566  0.6653  1.0425  1.5770
 1018MOL0     H37424   9.333   0.564   4.303 -0.0807  1.2404 -0.0131
 1018MOL0     H37425   9.183   0.476   4.342  1.1975 -0.1141 -1.4819
 1018MOL0     H37426   9.200   0.827   4.593 -0.0319 -0.0324 -0.3186
 1018MOL0     H37427   9.703  -0.011   4.303  0.0058 -0.5504 -0.3824
 1018MOL0     H37428   9.995  -0.098   4.158  1.0229 -1.2975 -0.4994
 1018MOL0     H37429   9.839  -0.163   4.202 -2.7089 -1.2219 -3.4982
 1018MOL0     H37430   9.865  -0.141   4.037  3.4379 -1.0823 -0.0394
 1019MOL0     O37431   3.437  10.847   3.010 -0.0698  0.1547  0.0199
 1019MOL0     C37432   3.504  10.755   2.960  0.2135 -0.7066  0.5768
 1019MOL0     O37433   3.466  10.617   2.960  0.3580 -0.9085 -0.0825
 1019MOL0     C37434   3.332  10.592   2.995 -0.2909 -0.1587 -0.5985
 1019MOL0     C37435   3.227  10.620   2.901  1.1204  0.2767  0.1824
 1019MOL0     C37436   3.105  10.556   2.918  0.1956 -0.2313 -0.2545
 1019MOL0     C37437   3.080  10.492   3.044 -0.1617 -0.3383  0.1983
 1019MOL0     O37438   2.956  10.448   3.069  0.4009 -0.0774 -0.1585
 1019MOL0     C37439   2.926  10.316   3.046 -0.0695 -0.1348  0.6950
 1019MOL0     C37440   2.816  10.272   3.150 -0.1576 -0.0934 -0.5460
 1019MOL0     C37441   2.848  10.273   3.298 -0.3662  0.1838  0.7515
 1019MOL0     C37442   2.943  10.150   3.325  0.3292 -0.1577 -0.7615
 1019MOL0     C37443   2.951  10.136   3.480 -0.1753 -0.3647  0.0845
 1019MOL0     C37444   2.989   9.986   3.509  0.3453 -0.6549  0.0315
 1019MOL0     C37445   2.994   9.951   3.658  0.5415  0.7475  0.8024
 1019MOL0     C37446   3.029   9.805   3.672  0.0611  0.4066 -0.7157
 1019MOL0     N37447   3.167   9.769   3.650 -0.3275  0.1931 -0.2413
 1019MOL0     C37448   3.276   9.828   3.706 -0.1938  0.1965  0.8993
 1019MOL0     C37449   3.380   9.760   3.661  0.3225  0.2040 -0.3268
 1019MOL0     C37450   3.516   9.787   3.705 -0.1867  0.3844  0.1612
 1019MOL0     C37451   3.577   9.663   3.775  0.9232 -0.0846 -0.5707
 1019MOL0     C37452   3.726   9.675   3.798  0.4039 -0.7129 -0.2571
 1019MOL0     C37453   3.792   9.563   3.869  0.6253 -0.0470 -0.4567
 1019MOL0     O37454   3.777   9.443   3.795 -0.0174 -0.4258  0.1426
 1019MOL0     C37455   3.849   9.337   3.841  0.2998  0.4601  1.2691
 1019MOL0     C37456   3.857   9.231   3.762  1.2739 -0.9025 -0.3432
 1019MOL0     C37457   3.937   9.115   3.782 -0.4866  0.0722 -0.3366
 1019MOL0     C37458   4.017   9.101   3.898  0.7783  0.5617 -0.8041
 1019MOL0     C37459   4.112   8.986   3.929  0.4743  0.0214 -0.6847
 1019MOL0     O37460   4.159   8.978   4.062  0.5551 -0.4086  0.3613
 1019MOL0     C37461   4.203   8.860   4.110  0.4223 -0.4280 -0.0919
 1019MOL0     C37462   4.117   8.774   4.183  0.7017 -0.5384 -0.0117
 1019MOL0     C37463   4.169   8.655   4.233 -1.0293 -0.3630 -0.4041
 1019MOL0     C37464   4.307   8.628   4.222 -0.9138 -0.6946 -0.1343
 1019MOL0     O37465   4.357   8.517   4.284 -0.0671  0.3723  0.6156
 1019MOL0     C37466   4.494   8.523   4.317 -0.1795  0.5211  0.2859
 1019MOL0     C37467   4.517   8.414   4.429  0.0959  0.7675  0.2299
 1019MOL0     C37468   4.669   8.408   4.472  0.5294 -0.6976 -0.1382
 1019MOL0     C37469   4.743   8.316   4.379  0.2124  0.7261 -0.7735
 1019MOL0     C37470   4.888   8.355   4.356 -0.8341  0.2688 -0.1770
 1019MOL0     C37471   4.972   8.355   4.489  1.1841  0.5196  0.1459
 1019MOL0     C37472   5.126   8.347   4.459 -0.5519 -0.2188 -0.1629
 1019MOL0     C37473   5.205   8.337   4.590  0.2391 -0.0917  0.9708
 1019MOL0    Cl37474   5.208   8.173   4.668  0.0560  0.0823  0.1708
 1019MOL0     C37475   4.387   8.714   4.151  1.2703  0.3644  0.2446
 1019MOL0     C37476   4.334   8.830   4.099 -0.1891 -0.5264  0.2128
 1019MOL0     O37477   4.120   8.901   3.844 -0.1392  0.2429 -0.5094
 1019MOL0     C37478   4.002   9.213   3.985  0.1823  0.2051 -0.0314
 1019MOL0     C37479   3.917   9.325   3.963  0.6365 -0.4841  0.3247
 1019MOL0     N37480   3.336   9.658   3.573  0.2167 -0.5046  0.4068
 1019MOL0     N37481   3.206   9.673   3.562 -0.0128  0.2910  0.1501
 1019MOL0     C37482   3.179  10.494   3.148  0.5277  0.2857  0.6049
 1019MOL0     C37483   3.309  10.536   3.121  1.0140 -0.9776 -0.5527
 1019MOL0     C37484   3.646  10.775   2.935 -0.0567 -1.6919  0.2556
 1019MOL0     C37485   3.736  10.667   2.965 -0.0326 -0.6001 -0.7605
 1019MOL0     C37486   3.871  10.674   2.927 -0.5547  0.6321 -0.0079
 1019MOL0     C37487   3.920  10.786   2.856  0.4518  0.3673 -0.0749
 1019MOL0     O37488   4.050  10.781   2.798 -0.3504 -0.3741  0.1267
 1019MOL0     C37489   4.114  10.902   2.759 -0.1741  1.2138  0.5691
 1019MOL0     C37490   4.259  10.864   2.727 -0.1081 -0.0946 -0.1270
 1019MOL0     C37491   4.271  10.754   2.618 -0.4538  0.3852  0.2142
 1019MOL0     C37492   4.422  10.740   2.591  0.3848  0.0789 -0.2058
 1019MOL0     C37493   4.452  10.644   2.488  0.2898  0.5901  0.3480
 1019MOL0     C37494   4.476  10.556   2.403  0.0386 -0.5094 -0.1819
 1019MOL0     C37495   3.837  10.896   2.843  1.6019 -0.4082  0.6665
 1019MOL0     C37496   3.701  10.888   2.869  0.5456 -0.2497 -0.8182
 1019MOL0     C37497   3.606  10.997   2.817  0.7507  0.4925  0.0900
 1019MOL0     H37498   3.245  10.663   2.803  0.3690 -0.5970 -0.3572
 1019MOL0     H37499   3.013  10.563   2.860 -1.2489  2.0274  2.0795
 1019MOL0     H37500   2.887  10.312   2.944 -1.2483  2.2253  0.9752
 1019MOL0     H37501   3.018  10.257   3.056  1.4248  1.6769 -1.2995
 1019MOL0     H37502   2.797  10.166   3.132 -0.1828 -0.4011  1.1179
 1019MOL0     H37503   2.725  10.329   3.132  0.7517  2.3089  1.7929
 1019MOL0     H37504   2.755  10.260   3.354 -0.7712  2.3250  0.6484
 1019MOL0     H37505   2.899  10.364   3.332  1.4423 -0.4023 -0.2675
 1019MOL0     H37506   2.894  10.062   3.284 -0.6200  0.9244 -2.0399
 1019MOL0     H37507   3.046  10.162   3.289  1.3081  0.1817  1.9235
 1019MOL0     H37508   3.028  10.206   3.514 -0.7889  0.9477 -1.1299
 1019MOL0     H37509   2.857  10.166   3.529 -0.2437  1.2393 -0.9577
 1019MOL0     H37510   2.908   9.927   3.463  1.2265  0.9661 -4.0430
 1019MOL0     H37511   3.086   9.972   3.461  0.1215  0.9278 -0.9344
 1019MOL0     H37512   2.898   9.975   3.705 -0.3388  0.7690 -0.9368
 1019MOL0     H37513   3.068  10.013   3.710  0.8349  0.0980  1.1828
 1019MOL0     H37514   2.998   9.770   3.771  2.4886 -0.7617 -0.2921
 1019MOL0     H37515   2.969   9.751   3.597 -1.1655 -1.4064  1.4613
 1019MOL0     H37516   3.285   9.914   3.772 -0.5045  1.7247 -0.9801
 1019MOL0     H37517   3.581   9.814   3.621  0.9129 -0.8326  0.5773
 1019MOL0     H37518   3.518   9.879   3.765 -0.6386  3.1594 -3.6915
 1019MOL0     H37519   3.526   9.655   3.871  0.5477  1.2161 -0.6369
 1019MOL0     H37520   3.562   9.575   3.712  0.4055 -0.9096  0.6747
 1019MOL0     H37521   3.735   9.765   3.860  2.0567 -0.4558 -0.8089
 1019MOL0     H37522   3.776   9.680   3.701  1.1111  0.1337  0.1344
 1019MOL0     H37523   3.745   9.544   3.966  2.8223  0.0254  0.6743
 1019MOL0     H37524   3.896   9.594   3.879  0.2266  1.5727 -0.8919
 1019MOL0     H37525   3.798   9.224   3.671  1.0153 -0.7823 -0.1825
 1019MOL0     H37526   3.942   9.039   3.705 -2.4599  0.1399 -0.5840
 1019MOL0     H37527   4.011   8.795   4.197  0.6191  0.7381 -2.0631
 1019MOL0     H37528   4.094   8.590   4.275 -1.0947 -1.0404 -1.5380
 1019MOL0     H37529   4.551   8.500   4.226 -1.0046  0.6633 -0.2785
 1019MOL0     H37530   4.533   8.619   4.353 -1.0886  1.4994 -1.2203
 1019MOL0     H37531   4.460   8.435   4.519 -0.3346 -1.2052  0.4592
 1019MOL0     H37532   4.477   8.323   4.384  2.3871 -1.0220  1.5782
 1019MOL0     H37533   4.712   8.508   4.464 -1.0596 -0.1142 -2.2539
 1019MOL0     H37534   4.677   8.378   4.577  2.2664  0.9612  0.2667
 1019MOL0     H37535   4.695   8.323   4.281  1.5495 -3.0222 -1.8424
 1019MOL0     H37536   4.731   8.212   4.411 -0.7955  0.4481 -1.9507
 1019MOL0     H37537   4.889   8.455   4.311 -2.5852 -0.2092 -1.3931
 1019MOL0     H37538   4.940   8.292   4.283 -1.9188 -2.8348  1.5347
 1019MOL0     H37539   4.950   8.449   4.541  0.6235 -2.2019  5.6345
 1019MOL0     H37540   4.940   8.274   4.555 -0.5972  0.2964 -0.9462
 1019MOL0     H37541   5.154   8.436   4.403 -1.6368 -0.4547 -1.1255
 1019MOL0     H37542   5.162   8.272   4.387 -0.4316 -0.7909  0.4843
 1019MOL0     H37543   5.307   8.373   4.576 -0.3599  0.9123 -1.0779
 1019MOL0     H37544   5.167   8.410   4.662  1.0471  1.3501 -0.0160
 1019MOL0     H37545   4.488   8.690   4.121  0.4931  0.1027 -2.4221
 1019MOL0     H37546   4.406   8.879   4.034 -0.5878  0.5412  0.5576
 1019MOL0     H37547   4.052   9.209   4.081  0.9685  0.5436 -0.4187
 1019MOL0     H37548   3.905   9.393   4.047  1.3613 -0.4024  0.3704
 1019MOL0     H37549   3.158  10.436   3.238 -0.4038 -0.8310 -0.2968
 1019MOL0     H37550   3.383  10.531   3.200 -0.6996  1.5078  1.3851
 1019MOL0     H37551   3.695  10.580   3.017 -1.1598  0.1019 -0.4338
 1019MOL0     H37552   3.934  10.587   2.947 -0.3689  0.5314 -0.9804
 1019MOL0     H37553   4.108  10.978   2.837 -1.6601 -0.5052  2.2175
 1019MOL0     H37554   4.057  10.936   2.671 -0.0206  0.7136  0.2701
 1019MOL0     H37555   4.311  10.838   2.820  0.6337 -1.0388 -0.7875
 1019MOL0     H37556   4.301  10.959   2.693 -0.5795  0.6146  1.2018
 1019MOL0     H37557   4.216  10.773   2.526  0.4417 -1.3429 -0.7344
 1019MOL0     H37558   4.240  10.659   2.663 -0.2197  0.8016  1.2979
 1019MOL0     H37559   4.471  10.834   2.563 -3.1101  1.7811 -1.1175
 1019MOL0     H37560   4.463  10.696   2.683 -1.3357  2.0239  1.5887
 1019MOL0     H37561   4.493  10.478   2.332 -1.7498 -0.9688 -0.1687
 1019MOL0     H37562   3.878  10.980   2.787  0.7745 -0.3687  0.0927
 1019MOL0     H37563   3.573  11.053   2.905  1.3708  0.1060  0.5749
 1019MOL0     H37564   3.668  11.064   2.758  0.2811 -1.0127 -2.2520
 1019MOL0     H37565   3.516  10.956   2.769 -1.8807  2.1152  3.1717
 1020MOL0     O37566   7.810   2.987  10.268  0.2199  1.0801  0.2188
 1020MOL0     C37567   7.861   3.090  10.222 -0.7459 -0.5407  0.0583
 1020MOL0     O37568   7.958   3.102  10.130 -0.1916  0.2637  0.3065
 1020MOL0     C37569   8.036   2.994  10.096  0.2129  0.0076  0.4685
 1020MOL0     C37570   8.081   2.982   9.968  0.2572 -0.0384 -0.1758
 1020MOL0     C37571   8.170   2.881   9.931  0.7785  0.6783 -0.8528
 1020MOL0     C37572   8.205   2.772  10.015  0.8307 -0.3544  0.4597
 1020MOL0     O37573   8.279   2.675   9.952 -0.7900 -0.7335 -0.3555
 1020MOL0     C37574   8.337   2.571  10.029 -0.0596 -0.1280 -0.7074
 1020MOL0     C37575   8.434   2.491   9.950 -0.2364 -0.4962 -0.2299
 1020MOL0     C37576   8.543   2.579   9.891  0.0936 -0.2648 -0.6112
 1020MOL0     C37577   8.649   2.487   9.820  0.5529  0.0931  0.0708
 1020MOL0     C37578   8.752   2.574   9.751  0.0017  0.2731  0.3582
 1020MOL0     C37579   8.844   2.666   9.842  0.1982  1.0876 -0.0481
 1020MOL0     C37580   8.911   2.773   9.753  0.8441  0.8226  0.9173
 1020MOL0     C37581   9.015   2.848   9.842  0.7857  0.5758  0.5842
 1020MOL0     N37582   9.152   2.802   9.816 -0.3531 -0.3045 -0.6757
 1020MOL0     C37583   9.210   2.685   9.859 -0.0265  0.4415 -0.2199
 1020MOL0     C37584   9.342   2.702   9.835 -0.5931  0.1539  0.0904
 1020MOL0     C37585   9.443   2.599   9.862 -0.3275 -0.0031  0.1004
 1020MOL0     C37586   9.603   2.629   9.872  0.0229 -0.3869 -1.0940
 1020MOL0     C37587   9.694   2.507   9.899  0.1112  0.5042 -0.0313
 1020MOL0     C37588   9.841   2.534   9.881  0.7964  0.3445 -0.0045
 1020MOL0     O37589   9.919   2.417   9.913 -0.1605 -0.2516  0.2305
 1020MOL0     C37590  10.030   2.381   9.843 -0.3053  0.5648 -0.0273
 1020MOL0     C37591  10.084   2.241   9.857  0.1450  0.2605  0.2008
 1020MOL0     C37592  10.206   2.211   9.799  0.4139 -0.0779 -1.1156
 1020MOL0     C37593  10.282   2.307   9.738 -0.3738  0.8606 -0.7811
 1020MOL0     C37594  10.418   2.262   9.690 -0.2075 -0.3949 -0.2395
 1020MOL0     O37595  10.462   2.135   9.702  0.0209  0.5657 -0.8063
 1020MOL0     C37596  10.583   2.107   9.649 -0.0424 -0.6658  0.3594
 1020MOL0     C37597  10.698   2.156   9.701  0.2435  0.4457 -0.6030
 1020MOL0     C37598  10.824   2.118   9.666 -0.6702 -0.0457  0.6056
 1020MOL0     C37599  10.842   2.016   9.567  0.2530 -0.2548 -0.5880
 1020MOL0     O37600  10.970   1.976   9.530 -0.3505 -1.0326  0.1007
 1020MOL0     C37601  10.993   1.843   9.487  1.1723  0.0223  0.2300
 1020MOL0     C37602  11.139   1.803   9.505  0.5029 -0.6234  0.4155
 1020MOL0     C37603  11.195   1.838   9.647 -0.3557 -0.8038  0.2294
 1020MOL0     C37604  11.339   1.787   9.658 -0.3908 -0.5298  0.2782
 1020MOL0     C37605  11.417   1.864   9.763  0.3948 -0.3516 -0.8973
 1020MOL0     C37606  11.555   1.807   9.784  0.0156 -0.0140  0.4862
 1020MOL0     C37607  11.665   1.841   9.685 -0.1495  0.3665  0.0304
 1020MOL0     C37608  11.793   1.775   9.735  0.1451 -0.0785 -0.6252
 1020MOL0    Cl37609  11.786   1.597   9.733 -0.2138  0.2493  0.4589
 1020MOL0     C37610  10.723   1.962   9.511  0.4249  0.2747 -0.6852
 1020MOL0     C37611  10.599   2.009   9.552 -0.4375  0.3939 -1.2566
 1020MOL0     O37612  10.484   2.347   9.634 -0.0577 -0.1360 -0.2614
 1020MOL0     C37613  10.242   2.438   9.730  0.2685 -0.3134  0.0490
 1020MOL0     C37614  10.108   2.475   9.773 -0.3613 -0.4971  0.6992
 1020MOL0     N37615   9.362   2.822   9.768  0.2830  0.0631  0.1039
 1020MOL0     N37616   9.249   2.878   9.750  1.0497 -0.0286  0.3055
 1020MOL0     C37617   8.159   2.793  10.145  0.4548 -0.4051 -0.4464
 1020MOL0     C37618   8.074   2.899  10.185  0.7536 -0.0648 -0.1265
 1020MOL0     C37619   7.790   3.211  10.261  0.4830 -0.8093 -0.5046
 1020MOL0     C37620   7.686   3.215  10.359 -0.5270 -0.5172 -0.0156
 1020MOL0     C37621   7.615   3.331  10.399  0.1902  0.0406  0.1960
 1020MOL0     C37622   7.626   3.447  10.320 -0.5637 -0.1524 -0.8504
 1020MOL0     O37623   7.566   3.566  10.351  0.3839 -0.2304  0.0219
 1020MOL0     C37624   7.484   3.578  10.475  0.6778  1.2628 -0.5767
 1020MOL0     C37625   7.526   3.700  10.556  0.2695 -0.2962 -0.2969
 1020MOL0     C37626   7.684   3.713  10.570  0.1280  0.1975 -0.2043
 1020MOL0     C37627   7.727   3.683  10.712 -0.4045 -0.7303  1.2767
 1020MOL0     C37628   7.719   3.537  10.726  0.4816 -0.3974 -0.0646
 1020MOL0     C37629   7.729   3.418  10.748 -0.3075 -0.3417 -0.5069
 1020MOL0     C37630   7.740   3.450  10.238 -0.7455 -0.4141  0.6921
 1020MOL0     C37631   7.819   3.339  10.200  0.7061  0.0394 -0.9904
 1020MOL0     C37632   7.922   3.378  10.100  0.0092  0.2193 -0.7595
 1020MOL0     H37633   8.055   3.052   9.888  2.7939 -0.2283 -1.2564
 1020MOL0     H37634   8.210   2.881   9.830 -2.3051 -1.2994 -2.2322
 1020MOL0     H37635   8.391   2.616  10.112  1.1009 -0.9753 -0.9801
 1020MOL0     H37636   8.262   2.498  10.060  0.5900 -0.2157  0.7097
 1020MOL0     H37637   8.380   2.462   9.859 -0.9094  1.1493 -0.3934
 1020MOL0     H37638   8.463   2.400  10.002 -2.6801 -1.7334 -0.8490
 1020MOL0     H37639   8.589   2.631   9.976  1.5815 -1.3490 -0.7139
 1020MOL0     H37640   8.505   2.655   9.821 -0.1037 -0.9476 -1.2639
 1020MOL0     H37641   8.698   2.424   9.894  0.7619 -1.0562 -1.0162
 1020MOL0     H37642   8.601   2.417   9.750  2.7854 -0.8216 -0.6264
 1020MOL0     H37643   8.831   2.533   9.688  2.0257  2.1638  1.4956
 1020MOL0     H37644   8.689   2.643   9.694  1.0382  1.4389  0.5696
 1020MOL0     H37645   8.797   2.727   9.920  3.9133  1.9739  1.7292
 1020MOL0     H37646   8.918   2.602   9.889 -0.8318  0.9856  1.5245
 1020MOL0     H37647   8.853   2.860   9.722  2.4078  2.1062  1.5071
 1020MOL0     H37648   8.956   2.719   9.669 -0.4399 -0.1004  0.7903
 1020MOL0     H37649   9.011   2.951   9.807  0.2302  0.5746  0.6333
 1020MOL0     H37650   8.987   2.848   9.948  0.0484  0.0016  0.3896
 1020MOL0     H37651   9.157   2.596   9.892 -1.1452  0.6872 -1.2652
 1020MOL0     H37652   9.422   2.553   9.959  0.1626  0.9247  0.6690
 1020MOL0     H37653   9.439   2.523   9.783 -0.3072 -0.2548  0.3414
 1020MOL0     H37654   9.641   2.672   9.779 -0.7377  1.4758 -0.5923
 1020MOL0     H37655   9.620   2.710   9.944 -1.4473 -1.0799  0.1078
 1020MOL0     H37656   9.653   2.431   9.831 -2.2177  1.8487 -0.2275
 1020MOL0     H37657   9.661   2.458   9.992 -0.6966 -1.5152 -1.3073
 1020MOL0     H37658   9.882   2.625   9.926  1.8885  1.2511 -2.6647
 1020MOL0     H37659   9.849   2.549   9.773 -2.0204  1.5789 -0.1295
 1020MOL0     H37660  10.016   2.164   9.893 -0.0691 -0.6944 -2.1244
 1020MOL0     H37661  10.243   2.110   9.792  0.3601 -0.1287 -0.7159
 1020MOL0     H37662  10.685   2.227   9.782  0.3120  2.5928 -2.3552
 1020MOL0     H37663  10.917   2.160   9.703 -0.1219 -0.3014 -0.4423
 1020MOL0     H37664  10.940   1.778   9.557 -0.2733 -0.0602 -0.8905
 1020MOL0     H37665  10.949   1.833   9.388 -2.9179  0.5554  1.7867
 1020MOL0     H37666  11.149   1.698   9.475  0.5108 -0.2046 -1.1816
 1020MOL0     H37667  11.194   1.846   9.420 -0.6145 -2.8138 -1.5234
 1020MOL0     H37668  11.196   1.946   9.667 -0.2042 -0.8338  0.3927
 1020MOL0     H37669  11.134   1.796   9.728  0.0523 -1.0384  0.4213
 1020MOL0     H37670  11.395   1.790   9.564 -0.8389 -0.9327 -0.0033
 1020MOL0     H37671  11.344   1.682   9.687 -0.0893 -0.3447  0.9088
 1020MOL0     H37672  11.364   1.851   9.858  0.6897 -2.3918 -0.9809
 1020MOL0     H37673  11.414   1.972   9.743 -0.5800 -0.0468  0.6712
 1020MOL0     H37674  11.578   1.844   9.884 -0.1275 -0.2335  0.5988
 1020MOL0     H37675  11.553   1.698   9.784  0.7774 -0.0610 -1.1580
 1020MOL0     H37676  11.680   1.949   9.673 -1.4705  0.7530  1.5305
 1020MOL0     H37677  11.634   1.811   9.584  3.7638 -0.2979 -1.1684
 1020MOL0     H37678  11.874   1.805   9.668  0.0210  1.5065 -0.1131
 1020MOL0     H37679  11.819   1.804   9.837 -2.6797 -1.6361  0.6649
 1020MOL0     H37680  10.722   1.880   9.440  1.2679 -2.2341  1.9513
 1020MOL0     H37681  10.512   1.953   9.520 -1.2860 -0.8456  2.6260
 1020MOL0     H37682  10.302   2.516   9.684  1.6766 -1.3140  0.1510
 1020MOL0     H37683  10.079   2.580   9.774  0.0725 -0.3737  2.7177
 1020MOL0     H37684   8.199   2.717  10.212 -0.0145  0.5609  0.9746
 1020MOL0     H37685   8.038   2.921  10.285 -1.1548  4.2189 -1.5048
 1020MOL0     H37686   7.673   3.121  10.412  0.3539 -1.0491 -0.7216
 1020MOL0     H37687   7.543   3.316  10.479 -1.1228 -0.1463 -0.9821
 1020MOL0     H37688   7.520   3.494  10.536 -0.1723 -0.6676 -2.6054
 1020MOL0     H37689   7.377   3.558  10.462  0.9461  0.9095 -2.4983
 1020MOL0     H37690   7.475   3.693  10.652  3.6988  0.3977  1.7388
 1020MOL0     H37691   7.490   3.786  10.498 -0.5500 -2.6525 -3.5910
 1020MOL0     H37692   7.722   3.814  10.552  0.9516  0.0971  0.9060
 1020MOL0     H37693   7.747   3.650  10.506  0.4930  1.7679 -1.4834
 1020MOL0     H37694   7.830   3.714  10.733 -0.8984  1.4189  0.7263
 1020MOL0     H37695   7.667   3.735  10.788  3.3477  0.7298  3.4952
 1020MOL0     H37696   7.741   3.314  10.772 -0.1899 -0.7975 -2.3639
 1020MOL0     H37697   7.748   3.544  10.185  0.9333 -1.5132 -1.1744
 1020MOL0     H37698   7.923   3.312  10.012  2.9218 -0.8226 -0.0575
 1020MOL0     H37699   7.905   3.474  10.050  1.1793  1.3481  0.9088
 1020MOL0     H37700   8.015   3.379  10.157 -1.9268  0.6718  2.6609
 1021MOL0     O37701   3.745   8.980   3.075 -0.3362 -0.5220  0.2306
 1021MOL0     C37702   3.860   8.948   3.081 -0.8258 -0.1355  0.5381
 1021MOL0     O37703   3.970   9.018   3.023  0.1725  0.0408 -0.5779
 1021MOL0     C37704   3.963   9.109   2.923 -0.0157 -1.0335  0.6648
 1021MOL0     C37705   4.086   9.157   2.883 -0.2268  0.4378  0.3236
 1021MOL0     C37706   4.096   9.229   2.774  0.2872 -1.2852 -1.0526
 1021MOL0     C37707   3.989   9.258   2.689 -0.5350  1.3539 -0.4891
 1021MOL0     O37708   4.005   9.334   2.575  0.0222  0.5355 -0.3171
 1021MOL0     C37709   3.934   9.298   2.454 -0.0137 -0.3350  0.5912
 1021MOL0     C37710   3.955   9.149   2.407  0.7757 -0.3667  0.7155
 1021MOL0     C37711   4.108   9.115   2.396  0.1285 -0.1080 -0.0014
 1021MOL0     C37712   4.120   8.969   2.366  0.4381 -0.1779 -0.0771
 1021MOL0     C37713   4.275   8.928   2.383  0.7974  0.6553  1.0323
 1021MOL0     C37714   4.329   8.913   2.523 -0.1488  0.0777 -0.7884
 1021MOL0     C37715   4.477   8.930   2.543 -0.4257  0.0901 -0.6848
 1021MOL0     C37716   4.555   8.825   2.468 -1.3901 -0.1805  0.4446
 1021MOL0     N37717   4.676   8.791   2.550  0.0175 -0.5154  0.2874
 1021MOL0     C37718   4.778   8.880   2.585 -0.7785  0.1891 -0.2811
 1021MOL0     C37719   4.873   8.812   2.656  0.5641 -0.0918  0.3075
 1021MOL0     C37720   5.007   8.864   2.700 -0.0378 -0.2943  0.0806
 1021MOL0     C37721   5.096   8.754   2.748  0.2516  0.6488 -0.2381
 1021MOL0     C37722   5.139   8.655   2.629  0.6542  0.2206  0.2907
 1021MOL0     C37723   5.269   8.706   2.562  0.1397 -0.9553 -0.1729
 1021MOL0     O37724   5.358   8.597   2.568 -0.5548 -0.0884  0.5907
 1021MOL0     C37725   5.494   8.628   2.572  0.2792  0.4168  0.4465
 1021MOL0     C37726   5.577   8.523   2.619 -0.2206 -0.0537  0.7581
 1021MOL0     C37727   5.712   8.553   2.618 -0.6666  0.2127 -0.2944
 1021MOL0     C37728   5.771   8.669   2.582 -0.1299  0.0800  0.3319
 1021MOL0     C37729   5.910   8.694   2.617 -0.3561  0.1286 -0.5875
 1021MOL0     O37730   5.978   8.586   2.667 -0.2194 -0.0323  0.1825
 1021MOL0     C37731   6.116   8.592   2.663  0.3303 -0.2538 -1.2672
 1021MOL0     C37732   6.196   8.554   2.554  0.4483 -1.1807 -0.3280
 1021MOL0     C37733   6.335   8.553   2.569  0.5312 -0.3835 -1.0626
 1021MOL0     C37734   6.395   8.568   2.697  0.6909 -0.6923 -0.3348
 1021MOL0     O37735   6.529   8.538   2.723 -0.5934  0.4074 -0.8603
 1021MOL0     C37736   6.546   8.398   2.745 -0.3422 -0.2406  0.0222
 1021MOL0     C37737   6.692   8.359   2.738  0.0433 -0.0392  0.5172
 1021MOL0     C37738   6.774   8.465   2.814 -0.2029  0.4464  0.2417
 1021MOL0     C37739   6.919   8.410   2.824 -0.2868 -0.0676 -0.2447
 1021MOL0     C37740   7.017   8.496   2.906 -0.3900 -1.1957 -0.0000
 1021MOL0     C37741   7.170   8.459   2.866  0.4541  1.1031 -0.0035
 1021MOL0     C37742   7.271   8.551   2.944  0.0820 -0.0161 -0.8985
 1021MOL0     C37743   7.409   8.508   2.940  0.1304  0.1711 -0.1115
 1021MOL0    Cl37744   7.512   8.661   2.990  0.0002 -0.0850  0.1051
 1021MOL0     C37745   6.318   8.619   2.805  0.4709  0.1232 -0.5436
 1021MOL0     C37746   6.179   8.618   2.794 -1.1775 -0.3824  0.0961
 1021MOL0     O37747   5.955   8.810   2.594 -0.6007  0.5350 -0.3702
 1021MOL0     C37748   5.693   8.778   2.544  0.3587  0.3783  0.9608
 1021MOL0     C37749   5.555   8.747   2.529 -0.0431 -1.0100 -0.6468
 1021MOL0     N37750   4.827   8.684   2.662  0.6439  0.0660  0.2225
 1021MOL0     N37751   4.707   8.670   2.609 -0.8900 -0.8258 -0.0295
 1021MOL0     C37752   3.865   9.212   2.725 -0.0248 -0.3359 -1.3906
 1021MOL0     C37753   3.856   9.128   2.834 -0.2269 -0.2819 -0.5822
 1021MOL0     C37754   3.889   8.841   3.182 -0.2347 -0.4124  0.5013
 1021MOL0     C37755   4.027   8.822   3.210  0.6693 -0.3315  0.4377
 1021MOL0     C37756   4.074   8.735   3.313  0.3923 -0.4308 -0.1159
 1021MOL0     C37757   3.981   8.679   3.400  0.3406  0.1946  0.0249
 1021MOL0     O37758   4.030   8.602   3.500 -0.4941  0.4180  0.3901
 1021MOL0     C37759   4.080   8.666   3.617 -0.0601 -0.3531  0.3364
 1021MOL0     C37760   4.229   8.674   3.611 -0.3652 -0.2638 -0.0860
 1021MOL0     C37761   4.311   8.551   3.597  0.2418  0.0428  0.6883
 1021MOL0     C37762   4.455   8.564   3.646  0.1890  1.1302  0.8187
 1021MOL0     C37763   4.520   8.682   3.583 -0.1102 -1.2354 -0.3212
 1021MOL0     C37764   4.579   8.771   3.531 -0.0121 -0.0190  0.0256
 1021MOL0     C37765   3.847   8.676   3.359  0.3190 -0.4935  0.1381
 1021MOL0     C37766   3.801   8.752   3.249  0.6665  0.1233  0.0603
 1021MOL0     C37767   3.654   8.742   3.210 -0.2863  0.5660 -0.1392
 1021MOL0     H37768   4.175   9.141   2.943  0.6083  2.5335 -0.2839
 1021MOL0     H37769   4.199   9.258   2.755  0.8312 -1.0449  1.7947
 1021MOL0     H37770   3.828   9.320   2.469  0.2792  0.4912  1.5147
 1021MOL0     H37771   3.955   9.373   2.377 -1.2497  1.5136  1.9804
 1021MOL0     H37772   3.907   9.128   2.311 -0.2746  0.8278  0.9521
 1021MOL0     H37773   3.912   9.089   2.487 -1.7616  2.1114  1.3732
 1021MOL0     H37774   4.156   9.146   2.489 -0.9100  0.5062  0.3442
 1021MOL0     H37775   4.151   9.168   2.310 -2.1110  2.5676  0.3892
 1021MOL0     H37776   4.052   8.913   2.430 -0.6383  0.5080 -0.5948
 1021MOL0     H37777   4.102   8.944   2.261  2.3920  0.6587 -0.6661
 1021MOL0     H37778   4.294   8.834   2.332 -1.2724  1.4560 -1.3960
 1021MOL0     H37779   4.333   8.994   2.318 -0.6635 -0.1664 -1.2178
 1021MOL0     H37780   4.295   8.992   2.591  2.3449  0.8682 -0.3380
 1021MOL0     H37781   4.305   8.818   2.572  1.7448  0.0161  0.1187
 1021MOL0     H37782   4.495   8.917   2.650 -0.8466  1.8846 -0.3552
 1021MOL0     H37783   4.515   9.031   2.527 -1.1782  0.6545  0.8053
 1021MOL0     H37784   4.491   8.736   2.467 -1.6054 -0.0295  0.6805
 1021MOL0     H37785   4.592   8.857   2.371 -0.5570 -0.7345  0.5727
 1021MOL0     H37786   4.795   8.986   2.568  0.4964 -0.2501 -1.9617
 1021MOL0     H37787   5.055   8.908   2.612 -2.0587  0.9859 -0.4387
 1021MOL0     H37788   4.997   8.944   2.773  1.6883 -0.4422  0.5326
 1021MOL0     H37789   5.188   8.799   2.786  1.3153  0.9430 -2.9923
 1021MOL0     H37790   5.044   8.698   2.827 -1.2917  0.9997 -0.9732
 1021MOL0     H37791   5.059   8.626   2.560  1.1479 -2.0704  0.6015
 1021MOL0     H37792   5.156   8.562   2.683  2.9317  1.6354  2.1976
 1021MOL0     H37793   5.301   8.795   2.616  1.0394 -2.9541  2.8166
 1021MOL0     H37794   5.252   8.749   2.462 -1.3917 -1.4672 -0.1708
 1021MOL0     H37795   5.533   8.428   2.646  0.5889 -0.2908  1.2723
 1021MOL0     H37796   5.782   8.473   2.641  1.0139  1.3333 -1.3009
 1021MOL0     H37797   6.146   8.524   2.462 -0.4509 -0.4453 -0.0971
 1021MOL0     H37798   6.397   8.528   2.484  1.1135  1.8166 -1.3566
 1021MOL0     H37799   6.504   8.373   2.843 -1.1879  1.2421  0.0667
 1021MOL0     H37800   6.492   8.344   2.667  0.9289 -0.2925 -0.8494
 1021MOL0     H37801   6.711   8.261   2.785  1.0357 -0.1876 -0.1731
 1021MOL0     H37802   6.719   8.338   2.634 -6.0718 -1.0120 -1.2954
 1021MOL0     H37803   6.770   8.557   2.755 -1.6162  0.9130  1.0133
 1021MOL0     H37804   6.740   8.484   2.917  0.7461  0.7144  0.5152
 1021MOL0     H37805   6.955   8.410   2.720 -0.2740 -0.9449 -0.2471
 1021MOL0     H37806   6.921   8.306   2.859 -3.6265 -0.8359 -1.9152
 1021MOL0     H37807   6.994   8.497   3.013 -2.7704  2.0251 -0.3746
 1021MOL0     H37808   7.003   8.599   2.871 -0.6281 -1.7999 -1.7857
 1021MOL0     H37809   7.185   8.353   2.885  0.0988  0.7228 -1.6773
 1021MOL0     H37810   7.185   8.468   2.758 -0.8247 -0.1372 -0.3250
 1021MOL0     H37811   7.227   8.559   3.043 -0.8834 -1.5849 -1.1691
 1021MOL0     H37812   7.260   8.652   2.903  0.5075 -0.0188 -1.0250
 1021MOL0     H37813   7.425   8.414   2.994 -1.8795 -0.3344 -0.3343
 1021MOL0     H37814   7.424   8.477   2.836  0.3775 -0.6857  0.1689
 1021MOL0     H37815   6.375   8.619   2.898  0.8530 -2.7436 -0.6837
 1021MOL0     H37816   6.113   8.634   2.878 -2.8708  2.8208 -1.6737
 1021MOL0     H37817   5.735   8.878   2.537 -1.1146  0.9217 -1.4290
 1021MOL0     H37818   5.499   8.828   2.482  3.8284  2.6315  0.3721
 1021MOL0     H37819   3.774   9.209   2.666 -1.0114 -1.9305  0.1176
 1021MOL0     H37820   3.761   9.081   2.859  0.2589  0.2711  2.8379
 1021MOL0     H37821   4.104   8.882   3.161 -1.1593  1.0950 -0.8029
 1021MOL0     H37822   4.179   8.718   3.331  0.7017 -3.7905 -3.7027
 1021MOL0     H37823   4.060   8.591   3.694 -0.7761 -1.7586 -1.1618
 1021MOL0     H37824   4.045   8.766   3.646  2.0936  0.6712 -0.3212
 1021MOL0     H37825   4.254   8.719   3.708 -2.0531 -4.3747  2.5531
 1021MOL0     H37826   4.267   8.748   3.541  1.6879  0.2216  1.4461
 1021MOL0     H37827   4.316   8.534   3.489 -3.4979 -0.1998  0.4064
 1021MOL0     H37828   4.266   8.458   3.632 -3.0872 -0.1137 -3.2280
 1021MOL0     H37829   4.470   8.576   3.754  1.2340  2.9007  0.5230
 1021MOL0     H37830   4.510   8.474   3.615 -1.9092 -0.2426  0.9024
 1021MOL0     H37831   4.651   8.837   3.487 -0.0760  0.6449  0.8861
 1021MOL0     H37832   3.786   8.603   3.410  1.7177 -0.2302  2.3134
 1021MOL0     H37833   3.646   8.659   3.139  1.2135  1.9935 -2.0814
 1021MOL0     H37834   3.590   8.737   3.299 -1.6760 -1.9419 -1.1746
 1021MOL0     H37835   3.606   8.824   3.156 -1.2132 -0.6592 -1.2419
 1022MOL0     O37836   4.608   1.098   5.777 -0.5372 -0.0055 -0.4165
 1022MOL0     C37837   4.598   1.174   5.872 -0.1858  0.1076 -0.1126
 1022MOL0     O37838   4.699   1.194   5.967  0.3673 -0.5247 -0.0336
 1022MOL0     C37839   4.821   1.136   5.947 -0.1215  0.1174  0.9773
 1022MOL0     C37840   4.868   1.072   6.058 -0.0070  0.8543  0.6255
 1022MOL0     C37841   4.991   1.006   6.045  0.0032 -0.6662 -0.5400
 1022MOL0     C37842   5.053   0.987   5.922 -0.4550  0.3898 -0.1016
 1022MOL0     O37843   5.163   0.901   5.927  0.0021 -0.1237 -0.3598
 1022MOL0     C37844   5.245   0.895   5.812 -0.0621 -0.1000 -0.4917
 1022MOL0     C37845   5.369   0.819   5.863  0.8508  0.3469  0.9708
 1022MOL0     C37846   5.450   0.900   5.962 -0.3419 -0.0914  0.1301
 1022MOL0     C37847   5.513   1.026   5.897  0.2789  0.2296  1.1021
 1022MOL0     C37848   5.620   1.001   5.783 -0.4689  0.7265 -0.0184
 1022MOL0     C37849   5.743   0.923   5.838 -0.0650 -0.6019 -0.6832
 1022MOL0     C37850   5.866   0.954   5.757 -1.5726  0.4356  0.5244
 1022MOL0     C37851   5.979   0.858   5.817  0.8773 -0.2277  1.5161
 1022MOL0     N37852   6.087   0.855   5.720 -0.7337 -0.5814 -0.7476
 1022MOL0     C37853   6.209   0.918   5.748 -0.2787  0.7024 -0.5116
 1022MOL0     C37854   6.290   0.842   5.671  0.3526 -0.4029  0.9866
 1022MOL0     C37855   6.437   0.862   5.653 -0.1366  0.4146 -0.3534
 1022MOL0     C37856   6.495   0.834   5.514 -0.0472  0.5925  0.3979
 1022MOL0     C37857   6.645   0.797   5.500 -0.2621 -0.4781 -0.2200
 1022MOL0     C37858   6.743   0.905   5.557  0.3135 -0.1337 -0.3796
 1022MOL0     O37859   6.869   0.891   5.500 -0.2242 -0.5457  0.7775
 1022MOL0     C37860   6.982   0.951   5.552  0.3329 -0.3304  0.1956
 1022MOL0     C37861   6.970   1.034   5.663 -1.2442  0.5451  0.4086
 1022MOL0     C37862   7.079   1.114   5.694 -0.3439  0.0466 -0.1532
 1022MOL0     C37863   7.198   1.117   5.603 -0.2941 -0.1176  0.6185
 1022MOL0     C37864   7.306   1.216   5.623 -0.6148  0.6837 -0.2727
 1022MOL0     O37865   7.404   1.228   5.531  0.0900 -0.1089 -0.3280
 1022MOL0     C37866   7.510   1.312   5.569  0.2028 -0.3843  0.3817
 1022MOL0     C37867   7.563   1.409   5.483 -0.0226 -0.2159 -0.1174
 1022MOL0     C37868   7.678   1.490   5.514 -0.1299  0.0547 -0.1150
 1022MOL0     C37869   7.757   1.443   5.619 -1.0793  0.8673  0.9656
 1022MOL0     O37870   7.886   1.492   5.625 -0.3905  0.2494 -0.0003
 1022MOL0     C37871   7.996   1.415   5.670 -0.2451  0.2308 -0.7091
 1022MOL0     C37872   8.114   1.517   5.688  0.0039 -0.4302 -1.1135
 1022MOL0     C37873   8.247   1.466   5.729  0.4946  0.7611 -0.4480
 1022MOL0     C37874   8.253   1.406   5.868  0.1429  0.3768 -0.5994
 1022MOL0     C37875   8.399   1.377   5.931 -0.3250  0.2161 -0.2992
 1022MOL0     C37876   8.495   1.503   5.914 -0.9867  0.2040  0.3246
 1022MOL0     C37877   8.615   1.497   6.003 -0.3258 -0.9181  0.0264
 1022MOL0     C37878   8.743   1.576   5.964  0.1535 -0.6644  0.1909
 1022MOL0    Cl37879   8.715   1.748   5.950 -0.1416 -0.1485  0.0614
 1022MOL0     C37880   7.713   1.337   5.696 -0.2554  0.2803  0.0526
 1022MOL0     C37881   7.588   1.274   5.679  1.4335 -0.0829 -0.1356
 1022MOL0     O37882   7.302   1.276   5.731 -0.0958  0.5092 -0.4966
 1022MOL0     C37883   7.203   1.022   5.494 -0.8964  0.9450 -0.4967
 1022MOL0     C37884   7.094   0.939   5.483 -0.4552 -0.5937  0.6068
 1022MOL0     N37885   6.225   0.741   5.603  0.6655 -0.2041  1.1592
 1022MOL0     N37886   6.102   0.751   5.635 -0.3265 -0.4827 -0.4520
 1022MOL0     C37887   5.008   1.069   5.819  0.0801 -0.1291  0.0503
 1022MOL0     C37888   4.892   1.143   5.834 -0.2343 -0.1008  0.0315
 1022MOL0     C37889   4.467   1.248   5.890  0.2855 -0.3582 -0.3046
 1022MOL0     C37890   4.468   1.381   5.939  0.6039 -0.1208 -0.0125
 1022MOL0     C37891   4.356   1.457   5.958  0.2886 -0.0253 -0.3300
 1022MOL0     C37892   4.234   1.401   5.927  0.0185 -0.1239 -0.0888
 1022MOL0     O37893   4.121   1.485   5.932  0.3255 -0.1688  0.1908
 1022MOL0     C37894   4.004   1.476   5.846  0.5479  0.5158 -0.0303
 1022MOL0     C37895   3.916   1.595   5.848  0.3069  0.1527  0.0036
 1022MOL0     C37896   3.998   1.718   5.824  0.2314 -0.6090 -0.2241
 1022MOL0     C37897   3.928   1.844   5.882  0.7358 -0.7080 -0.6538
 1022MOL0     C37898   3.839   1.902   5.782 -0.2992 -0.0926  0.8836
 1022MOL0     C37899   3.789   1.955   5.683 -0.2536  0.4215 -0.2278
 1022MOL0     C37900   4.226   1.264   5.885  0.0263 -0.2962 -0.7655
 1022MOL0     C37901   4.340   1.191   5.863  1.2208 -0.3496 -0.0704
 1022MOL0     C37902   4.315   1.047   5.821 -0.2752  0.6263  0.3167
 1022MOL0     H37903   4.812   1.083   6.151 -1.3929  0.3400 -0.1201
 1022MOL0     H37904   5.039   0.966   6.134 -1.7901  0.7358  1.1616
 1022MOL0     H37905   5.198   0.839   5.731 -0.0982  0.4801 -0.8740
 1022MOL0     H37906   5.274   0.992   5.771 -0.7807  0.3941  0.1484
 1022MOL0     H37907   5.429   0.794   5.775 -3.2287 -0.6479 -1.8333
 1022MOL0     H37908   5.325   0.730   5.910  1.1661 -0.6762 -0.5820
 1022MOL0     H37909   5.535   0.843   6.001  0.1606  0.4816 -0.1134
 1022MOL0     H37910   5.393   0.933   6.050 -0.6647  0.1374 -0.1638
 1022MOL0     H37911   5.445   1.086   5.835  2.0765  1.0502 -0.1476
 1022MOL0     H37912   5.554   1.086   5.979  2.8992 -0.4097  0.3423
 1022MOL0     H37913   5.575   0.950   5.696 -0.8247 -0.0904  0.6235
 1022MOL0     H37914   5.650   1.100   5.747  2.0294 -0.1933 -0.6935
 1022MOL0     H37915   5.755   0.970   5.935  0.5534  3.7410 -2.6357
 1022MOL0     H37916   5.724   0.815   5.845 -1.2531 -0.2930  2.1547
 1022MOL0     H37917   5.893   1.060   5.767  2.1080 -0.4834  1.9665
 1022MOL0     H37918   5.839   0.931   5.653 -3.2678 -0.9185  1.2192
 1022MOL0     H37919   5.995   0.869   5.925 -2.7276 -3.8371  2.6788
 1022MOL0     H37920   5.947   0.755   5.798  0.7627  0.0105  0.3104
 1022MOL0     H37921   6.250   0.989   5.820  0.3562  1.0684 -1.2241
 1022MOL0     H37922   6.464   0.966   5.669  1.3179 -0.0009  0.0835
 1022MOL0     H37923   6.471   0.791   5.729 -0.4697  0.8524  0.2148
 1022MOL0     H37924   6.437   0.756   5.462  0.5945  0.2693  0.1597
 1022MOL0     H37925   6.473   0.927   5.461  1.3143  0.8378  0.2354
 1022MOL0     H37926   6.668   0.785   5.394  0.4976  0.0123 -0.1198
 1022MOL0     H37927   6.673   0.702   5.547 -1.8320 -1.2514 -0.7758
 1022MOL0     H37928   6.747   0.898   5.666  0.7133  0.3966 -0.3548
 1022MOL0     H37929   6.699   1.003   5.535  0.2296 -0.3312 -1.1347
 1022MOL0     H37930   6.887   1.040   5.733 -0.3643  3.2841  1.3504
 1022MOL0     H37931   7.075   1.177   5.782  0.7687 -1.9127  1.4019
 1022MOL0     H37932   7.509   1.418   5.390 -0.5067 -0.8108  0.1025
 1022MOL0     H37933   7.699   1.576   5.450 -0.1331  0.9908  1.1189
 1022MOL0     H37934   7.973   1.377   5.770 -1.8264 -1.0644 -1.5142
 1022MOL0     H37935   8.014   1.336   5.596  0.8700 -0.2459  0.0365
 1022MOL0     H37936   8.129   1.573   5.596 -1.6542  0.1862 -1.0383
 1022MOL0     H37937   8.092   1.589   5.768 -0.2811 -2.0534  0.3419
 1022MOL0     H37938   8.275   1.397   5.650  2.1932 -0.5421  1.1981
 1022MOL0     H37939   8.312   1.553   5.715 -1.5200  1.9189 -3.7273
 1022MOL0     H37940   8.202   1.310   5.860  0.5013 -0.1364  2.3132
 1022MOL0     H37941   8.193   1.471   5.932 -0.5876  0.0258 -0.9200
 1022MOL0     H37942   8.443   1.295   5.873 -0.2466 -0.0623  0.1593
 1022MOL0     H37943   8.388   1.345   6.034  1.8097 -1.8016 -0.6197
 1022MOL0     H37944   8.533   1.520   5.812  0.4378  5.9420  1.4357
 1022MOL0     H37945   8.443   1.598   5.929  1.5193  1.9693 -1.1631
 1022MOL0     H37946   8.653   1.398   6.030  0.8140 -0.0701  1.7286
 1022MOL0     H37947   8.572   1.542   6.093  4.3483  1.4281  1.3994
 1022MOL0     H37948   8.824   1.569   6.037  0.2793  0.4685  0.1831
 1022MOL0     H37949   8.772   1.547   5.863 -0.3842  0.9600 -0.4663
 1022MOL0     H37950   7.779   1.298   5.772  2.1202  2.1603 -0.9317
 1022MOL0     H37951   7.566   1.185   5.738 -1.1079  0.9700  0.6263
 1022MOL0     H37952   7.289   1.010   5.430 -0.3584  1.0888  0.1785
 1022MOL0     H37953   7.080   0.871   5.399 -1.3426 -0.7993  0.9047
 1022MOL0     H37954   5.061   1.081   5.725  0.7836 -0.6858  0.3676
 1022MOL0     H37955   4.854   1.209   5.757  0.0679  1.9012  1.5077
 1022MOL0     H37956   4.564   1.419   5.971 -0.5016  1.5802  1.5106
 1022MOL0     H37957   4.353   1.559   5.993  0.1471 -0.1491  0.0277
 1022MOL0     H37958   3.944   1.398   5.893  1.3745 -1.5850 -2.2233
 1022MOL0     H37959   4.029   1.445   5.744  1.2802  1.6591 -0.2154
 1022MOL0     H37960   3.862   1.598   5.943  0.8341 -0.5650  0.3364
 1022MOL0     H37961   3.841   1.583   5.769  1.1103  3.3185 -1.3876
 1022MOL0     H37962   4.019   1.725   5.716  2.4605  0.2627  0.2115
 1022MOL0     H37963   4.096   1.709   5.872  0.0694 -0.7556  0.0796
 1022MOL0     H37964   3.870   1.833   5.974 -0.8455 -0.7156 -1.6114
 1022MOL0     H37965   4.002   1.920   5.907 -0.3868  0.0180  0.6298
 1022MOL0     H37966   3.758   2.004   5.592 -0.9593 -0.5286 -0.5107
 1022MOL0     H37967   4.134   1.215   5.857  0.2347  0.3496 -2.7295
 1022MOL0     H37968   4.213   1.018   5.796  0.8804 -1.2206 -2.8570
 1022MOL0     H37969   4.374   1.020   5.733  0.1117 -1.1877  1.0867
 1022MOL0     H37970   4.359   0.985   5.899  2.2493  1.8790  0.0153
 1023MOL0     O37971   4.007   0.755   3.055  0.1480 -0.4425 -0.0480
 1023MOL0     C37972   3.996   0.850   3.133  0.2563  0.1762 -0.1811
 1023MOL0     O37973   4.087   0.947   3.163 -0.4532  0.0564  0.3266
 1023MOL0     C37974   4.221   0.932   3.110 -0.6242 -0.5257 -1.1069
 1023MOL0     C37975   4.326   0.939   3.201 -0.5419  0.4012 -0.7922
 1023MOL0     C37976   4.457   0.941   3.149  0.2073 -0.4782 -0.4786
 1023MOL0     C37977   4.483   0.936   3.011 -0.4699  0.6052 -0.2202
 1023MOL0     O37978   4.609   0.955   2.955  0.3291 -0.6691 -0.6553
 1023MOL0     C37979   4.702   1.020   3.040  0.0068  0.3462  0.1004
 1023MOL0     C37980   4.820   1.065   2.963 -0.5889 -0.7444 -0.5563
 1023MOL0     C37981   4.918   0.958   2.921  0.3622  0.4425 -0.7436
 1023MOL0     C37982   5.052   1.033   2.889  0.6984  0.0747  0.3310
 1023MOL0     C37983   5.154   0.943   2.813 -0.5726  1.3242  0.3928
 1023MOL0     C37984   5.292   0.996   2.824 -0.1419 -0.2061  0.2297
 1023MOL0     C37985   5.391   0.876   2.790  1.0553  0.4022  0.0097
 1023MOL0     C37986   5.399   0.827   2.645  0.0329 -0.8123  0.7054
 1023MOL0     N37987   5.443   0.930   2.554 -0.1330 -0.3739  0.4327
 1023MOL0     C37988   5.524   1.041   2.567 -0.1438  0.0328  0.7263
 1023MOL0     C37989   5.525   1.095   2.444  0.6093  0.0337  0.3352
 1023MOL0     C37990   5.585   1.226   2.397 -0.3428  0.2516  0.1370
 1023MOL0     C37991   5.682   1.291   2.504 -0.3291 -0.7142 -0.5032
 1023MOL0     C37992   5.731   1.422   2.433 -0.6114 -0.1846 -0.3994
 1023MOL0     C37993   5.825   1.489   2.531  0.5034  0.2891  0.2238
 1023MOL0     O37994   5.906   1.571   2.448 -0.4405 -0.2196  0.1953
 1023MOL0     C37995   6.010   1.638   2.497 -0.2808  0.7622 -0.2377
 1023MOL0     C37996   6.044   1.755   2.434  0.5639  0.1406 -0.0022
 1023MOL0     C37997   6.164   1.814   2.470 -0.4300  0.4906  0.8134
 1023MOL0     C37998   6.232   1.783   2.589 -0.2770  0.5397  0.1709
 1023MOL0     C37999   6.351   1.860   2.625 -0.4154 -0.1442 -0.3604
 1023MOL0     O38000   6.409   1.814   2.737  0.2309 -0.0540 -0.1611
 1023MOL0     C38001   6.511   1.890   2.777 -0.4550 -0.5416  0.5585
 1023MOL0     C38002   6.634   1.856   2.728  0.0166  0.3459 -0.3156
 1023MOL0     C38003   6.747   1.931   2.762 -0.1121  0.0643  0.4895
 1023MOL0     C38004   6.742   2.040   2.843 -0.3675  0.1334  0.0824
 1023MOL0     O38005   6.848   2.122   2.886 -0.0098 -0.4554 -0.2444
 1023MOL0     C38006   6.941   2.171   2.798  0.2281  0.5025  0.0658
 1023MOL0     C38007   7.052   2.253   2.877 -0.0354 -0.2774 -0.7119
 1023MOL0     C38008   7.114   2.347   2.779 -0.0481  0.2902  0.5295
 1023MOL0     C38009   7.214   2.444   2.840 -0.4458 -0.2786 -0.7142
 1023MOL0     C38010   7.271   2.555   2.749  0.0971 -0.4326 -0.6161
 1023MOL0     C38011   7.404   2.612   2.798 -0.0449 -0.2132  0.8230
 1023MOL0     C38012   7.452   2.718   2.699 -0.3525  0.7237 -0.4829
 1023MOL0     C38013   7.586   2.791   2.741  0.5017  0.1873 -0.1442
 1023MOL0    Cl38014   7.599   2.811   2.916  0.3168 -0.3300 -0.1511
 1023MOL0     C38015   6.618   2.081   2.878  1.1387 -0.2826 -0.1930
 1023MOL0     C38016   6.497   2.007   2.843 -0.5069 -0.4079  0.4488
 1023MOL0     O38017   6.376   1.962   2.573 -0.0910 -0.7561 -0.2292
 1023MOL0     C38018   6.188   1.682   2.666 -0.7403  1.0073  0.3574
 1023MOL0     C38019   6.082   1.597   2.608 -0.4875 -0.5069 -0.4035
 1023MOL0     N38020   5.447   1.017   2.359  0.3185  0.0740  0.0732
 1023MOL0     N38021   5.396   0.920   2.425  0.7982  0.0849  0.4101
 1023MOL0     C38022   4.374   0.919   2.922 -0.2556 -0.0455  0.8709
 1023MOL0     C38023   4.246   0.929   2.969 -0.5685  0.3251 -0.8194
 1023MOL0     C38024   3.866   0.878   3.192 -0.3960 -0.4832 -0.3308
 1023MOL0     C38025   3.759   0.877   3.105 -0.0766 -0.3508  0.2039
 1023MOL0     C38026   3.632   0.912   3.145  0.7431  0.5020 -0.3808
 1023MOL0     C38027   3.603   0.919   3.281 -0.7028  0.1650 -0.4478
 1023MOL0     O38028   3.476   0.949   3.320  0.7360  0.0167  0.2198
 1023MOL0     C38029   3.451   0.940   3.455  0.6279  0.3513  0.0572
 1023MOL0     C38030   3.304   0.946   3.498 -0.3218 -0.4733  0.4303
 1023MOL0     C38031   3.238   1.078   3.450 -0.1962  0.5316  0.4962
 1023MOL0     C38032   3.265   1.204   3.527  0.8444 -0.1310  0.3727
 1023MOL0     C38033   3.205   1.204   3.659 -0.2513 -0.6627 -0.2066
 1023MOL0     C38034   3.154   1.219   3.764  0.4910 -0.6111 -0.5709
 1023MOL0     C38035   3.712   0.926   3.368 -0.2927 -0.5212  0.6590
 1023MOL0     C38036   3.837   0.896   3.324  0.7871 -0.2309 -0.0104
 1023MOL0     C38037   3.944   0.877   3.425  0.2049 -0.8679  0.1339
 1023MOL0     H38038   4.318   0.938   3.309 -1.3953 -1.2570 -0.8410
 1023MOL0     H38039   4.535   0.963   3.221 -0.9037  0.3780  0.5041
 1023MOL0     H38040   4.658   1.109   3.086  0.9727  0.6690  0.4216
 1023MOL0     H38041   4.731   0.961   3.127 -1.5079  0.9911  1.0946
 1023MOL0     H38042   4.868   1.142   3.023 -1.8587 -0.6976  0.4481
 1023MOL0     H38043   4.789   1.116   2.871  0.0865  0.4083 -0.1581
 1023MOL0     H38044   4.891   0.902   2.832  0.3902 -1.8370  0.6101
 1023MOL0     H38045   4.943   0.889   3.002 -0.5781  1.1047  0.1435
 1023MOL0     H38046   5.027   1.117   2.824 -1.8964 -0.7233  0.1832
 1023MOL0     H38047   5.096   1.071   2.981 -0.5534  0.1914  0.9032
 1023MOL0     H38048   5.143   0.849   2.867  0.0400  0.8263 -0.3335
 1023MOL0     H38049   5.134   0.920   2.708 -0.3084  0.1575  0.5890
 1023MOL0     H38050   5.311   1.066   2.742 -0.2120 -0.4849 -0.0243
 1023MOL0     H38051   5.318   1.037   2.922  2.2695 -0.8744 -0.0485
 1023MOL0     H38052   5.363   0.788   2.849 -1.1812 -0.8899 -2.7502
 1023MOL0     H38053   5.492   0.909   2.818  1.2878  1.4290 -1.9403
 1023MOL0     H38054   5.455   0.732   2.643  0.6319 -0.4680 -0.7952
 1023MOL0     H38055   5.295   0.800   2.626  0.0155 -1.2815  1.4273
 1023MOL0     H38056   5.573   1.076   2.657 -1.2532  2.8862  0.3558
 1023MOL0     H38057   5.634   1.189   2.307 -1.3667 -3.4752  0.9573
 1023MOL0     H38058   5.511   1.306   2.383 -0.9254 -0.1362  0.9380
 1023MOL0     H38059   5.649   1.296   2.608  3.1666 -3.1371  0.9190
 1023MOL0     H38060   5.766   1.221   2.517 -0.7571 -0.9972  0.9443
 1023MOL0     H38061   5.654   1.492   2.399 -0.4037  0.9751  1.3568
 1023MOL0     H38062   5.791   1.403   2.343  1.5888 -2.4030  1.3991
 1023MOL0     H38063   5.888   1.413   2.578 -1.2260 -2.2162 -1.2529
 1023MOL0     H38064   5.770   1.552   2.603 -3.1268  0.2092 -2.1870
 1023MOL0     H38065   5.983   1.782   2.349 -1.5743 -2.8312  0.4257
 1023MOL0     H38066   6.200   1.901   2.416 -0.5524  0.6331  0.9605
 1023MOL0     H38067   6.634   1.773   2.658 -0.4409 -0.8244  1.0137
 1023MOL0     H38068   6.847   1.914   2.722 -0.4841 -0.4288 -0.2517
 1023MOL0     H38069   6.994   2.097   2.738  2.5441 -1.7011  4.4528
 1023MOL0     H38070   6.888   2.242   2.732  3.6512  2.3558 -0.9180
 1023MOL0     H38071   6.993   2.313   2.945  0.4502 -1.5932  0.9475
 1023MOL0     H38072   7.129   2.200   2.934  0.3176  2.1506  1.1972
 1023MOL0     H38073   7.183   2.286   2.719  0.3256  0.7378  0.5006
 1023MOL0     H38074   7.042   2.401   2.717  2.3397  0.1163 -2.6647
 1023MOL0     H38075   7.296   2.399   2.897 -1.8372 -0.8513  0.9160
 1023MOL0     H38076   7.154   2.496   2.916  0.9111  0.5613 -0.1772
 1023MOL0     H38077   7.195   2.634   2.756 -0.8969 -1.3766 -0.3956
 1023MOL0     H38078   7.264   2.521   2.645 -2.2630 -2.6671  0.1660
 1023MOL0     H38079   7.394   2.657   2.897  0.2849  2.2398 -0.1752
 1023MOL0     H38080   7.489   2.542   2.796  0.2737  0.1857 -0.1135
 1023MOL0     H38081   7.381   2.800   2.697 -0.8869  0.2557 -1.0882
 1023MOL0     H38082   7.461   2.672   2.600  1.3844  0.6429 -0.3169
 1023MOL0     H38083   7.673   2.734   2.707 -0.8008 -1.4097 -0.9323
 1023MOL0     H38084   7.591   2.886   2.687 -0.6813 -0.3003 -1.1289
 1023MOL0     H38085   6.606   2.162   2.949  0.3895 -1.1583  0.7223
 1023MOL0     H38086   6.402   2.049   2.875 -0.9965 -1.3862  0.3241
 1023MOL0     H38087   6.225   1.655   2.764 -2.8173 -2.4530  0.3512
 1023MOL0     H38088   6.057   1.509   2.665  2.1922 -2.1743 -1.5956
 1023MOL0     H38089   4.396   0.905   2.816 -3.1050  0.4658  0.1250
 1023MOL0     H38090   4.160   0.925   2.902 -0.7800  0.3841 -0.5539
 1023MOL0     H38091   3.785   0.876   3.000 -2.8897 -0.6898 -0.5885
 1023MOL0     H38092   3.548   0.924   3.078 -0.2331 -0.9587  0.5315
 1023MOL0     H38093   3.503   1.019   3.510 -0.2315 -1.7498  4.3102
 1023MOL0     H38094   3.487   0.844   3.491 -0.5980 -1.0058 -2.0857
 1023MOL0     H38095   3.284   0.943   3.605  2.5725  0.6754  1.0932
 1023MOL0     H38096   3.249   0.861   3.456  0.9466 -1.4060  0.5827
 1023MOL0     H38097   3.130   1.064   3.456 -0.0245 -0.4996  1.5275
 1023MOL0     H38098   3.260   1.090   3.344  2.6054  0.0537  0.9565
 1023MOL0     H38099   3.369   1.234   3.543  0.8482  1.6366 -2.2357
 1023MOL0     H38100   3.211   1.282   3.472 -0.2980  0.1225  1.7928
 1023MOL0     H38101   3.111   1.225   3.862  1.5116  1.0210 -0.1802
 1023MOL0     H38102   3.698   0.951   3.472 -1.8677  3.1640 -0.2989
 1023MOL0     H38103   3.987   0.975   3.448 -0.3845 -0.9423  1.6833
 1023MOL0     H38104   3.907   0.840   3.521  0.9772  0.5568  1.0241
 1023MOL0     H38105   4.010   0.795   3.399 -1.1939 -1.4135 -1.8906
 1024MOL0     O38106   0.603   6.344   9.157  0.3612 -0.5083 -0.5611
 1024MOL0     C38107   0.512   6.262   9.184 -0.7484  0.2989  0.1346
 1024MOL0     O38108   0.476   6.219   9.305  0.3980 -0.7871  0.5457
 1024MOL0     C38109   0.542   6.269   9.414 -0.1456  0.6467  0.4231
 1024MOL0     C38110   0.571   6.168   9.516  0.8180  0.7257 -0.2459
 1024MOL0     C38111   0.644   6.200   9.628  1.1802  0.3844 -0.6190
 1024MOL0     C38112   0.681   6.328   9.656 -0.2835  0.5766 -0.1376
 1024MOL0     O38113   0.755   6.345   9.772  0.1173 -0.1074  0.3641
 1024MOL0     C38114   0.807   6.475   9.820 -0.1057  0.8291  0.5073
 1024MOL0     C38115   0.864   6.482   9.961  0.3802  0.1427  0.0824
 1024MOL0     C38116   0.985   6.384   9.975 -0.5395 -0.4704  0.5110
 1024MOL0     C38117   1.021   6.378  10.122 -0.3761  0.0784 -0.4216
 1024MOL0     C38118   1.118   6.489  10.164 -0.3580 -0.3271  0.0933
 1024MOL0     C38119   1.193   6.454  10.299 -1.9006 -0.2066 -0.0482
 1024MOL0     C38120   1.283   6.572  10.336 -0.0936  0.1818  1.0087
 1024MOL0     C38121   1.419   6.557  10.284 -0.2081 -0.4883  0.4889
 1024MOL0     N38122   1.507   6.672  10.328  0.7106  0.3850 -0.6716
 1024MOL0     C38123   1.646   6.670  10.344 -0.0256  0.6082  0.3270
 1024MOL0     C38124   1.689   6.792  10.350  0.1311 -0.5612  0.6393
 1024MOL0     C38125   1.832   6.846  10.348 -0.4810 -0.5865 -0.1555
 1024MOL0     C38126   1.901   6.868  10.215 -0.0037  0.3867  0.0951
 1024MOL0     C38127   2.042   6.910  10.232 -0.6589 -0.2695 -0.1200
 1024MOL0     C38128   2.134   6.920  10.114  0.0027 -0.4153 -0.0511
 1024MOL0     O38129   2.170   6.793  10.061 -0.8321  0.7930 -0.8664
 1024MOL0     C38130   2.300   6.771  10.042  0.3678  0.8752  1.1755
 1024MOL0     C38131   2.356   6.824   9.926 -0.4526  0.4761  0.6337
 1024MOL0     C38132   2.488   6.805   9.895 -1.2592 -0.9529 -0.2754
 1024MOL0     C38133   2.568   6.732   9.979 -0.3392  0.7431  0.4574
 1024MOL0     C38134   2.711   6.712   9.948 -0.8262 -0.4548 -0.3722
 1024MOL0     O38135   2.774   6.794   9.851  0.0228  0.1309 -0.7054
 1024MOL0     C38136   2.910   6.782   9.819 -0.2637  0.1334  0.4788
 1024MOL0     C38137   2.999   6.849   9.901  0.0916  0.3108  0.1756
 1024MOL0     C38138   3.133   6.854   9.879  0.8449 -0.4445 -0.4103
 1024MOL0     C38139   3.187   6.795   9.773  0.0257 -0.1599  0.5387
 1024MOL0     O38140   3.324   6.788   9.745 -0.6408 -0.6028  0.7188
 1024MOL0     C38141   3.371   6.892   9.666  0.2947 -0.3144  0.6728
 1024MOL0     C38142   3.526   6.896   9.676 -0.4210  0.3708 -0.1370
 1024MOL0     C38143   3.588   7.011   9.599 -1.0999  0.0848  0.1411
 1024MOL0     C38144   3.719   7.056   9.665 -0.3324  0.0076 -0.4015
 1024MOL0     C38145   3.777   7.184   9.602 -0.4308 -0.6368  0.3429
 1024MOL0     C38146   3.921   7.222   9.646 -0.0008  1.2625 -0.0207
 1024MOL0     C38147   4.029   7.123   9.595  1.1451 -0.2014  0.4117
 1024MOL0     C38148   4.174   7.160   9.632 -0.4927  0.1194  0.0362
 1024MOL0    Cl38149   4.282   7.019   9.583 -0.0410  0.1077  0.1039
 1024MOL0     C38150   3.106   6.723   9.690 -0.2690  0.0679 -0.4783
 1024MOL0     C38151   2.958   6.734   9.702 -0.2547 -1.1491  0.2707
 1024MOL0     O38152   2.772   6.625  10.006  0.6054 -0.2922  0.1462
 1024MOL0     C38153   2.517   6.682  10.106 -0.2289 -0.6722 -0.5871
 1024MOL0     C38154   2.381   6.705  10.133 -0.7946  0.5022  0.0251
 1024MOL0     N38155   1.582   6.873  10.372  0.5924 -0.8019  0.2850
 1024MOL0     N38156   1.475   6.805  10.338  0.4402  0.0426  0.1530
 1024MOL0     C38157   0.653   6.427   9.564 -0.0911 -0.2679 -0.2250
 1024MOL0     C38158   0.580   6.397   9.449 -0.8126 -0.2323  1.1465
 1024MOL0     C38159   0.413   6.230   9.089  0.0680  0.1933  0.8942
 1024MOL0     C38160   0.280   6.241   9.127 -0.1370 -0.1013  1.3616
 1024MOL0     C38161   0.180   6.215   9.034  0.6990  0.2121  1.2318
 1024MOL0     C38162   0.203   6.183   8.899 -1.1011  0.0365  0.0591
 1024MOL0     O38163   0.111   6.152   8.803  0.0532  0.5999 -0.3227
 1024MOL0     C38164  -0.009   6.098   8.845  0.3300  0.5294 -0.6962
 1024MOL0     C38165  -0.099   6.057   8.736 -0.1078  1.0571  0.9828
 1024MOL0     C38166  -0.144   5.911   8.749  0.3351  0.0699 -0.4801
 1024MOL0     C38167  -0.220   5.868   8.620 -0.7767  0.8559  0.7442
 1024MOL0     C38168  -0.331   5.780   8.638 -0.0595 -0.6228  0.6618
 1024MOL0     C38169  -0.429   5.695   8.635  0.1401 -0.1541  0.7362
 1024MOL0     C38170   0.341   6.176   8.861  0.0843  0.1441  0.8591
 1024MOL0     C38171   0.442   6.199   8.959 -0.9531 -0.2303  0.7921
 1024MOL0     C38172   0.579   6.179   8.907  0.6670 -0.6727 -0.8666
 1024MOL0     H38173   0.554   6.061   9.507 -1.8094  0.8314  2.1262
 1024MOL0     H38174   0.666   6.119   9.697 -1.0626 -0.7764 -1.1748
 1024MOL0     H38175   0.893   6.496   9.757 -0.1355  0.2985  0.2864
 1024MOL0     H38176   0.731   6.554   9.813  0.2356  1.7362  4.4511
 1024MOL0     H38177   0.776   6.453  10.019 -1.2102  0.6446 -1.9674
 1024MOL0     H38178   0.884   6.585   9.990 -2.5815  0.7181  0.3577
 1024MOL0     H38179   1.065   6.420   9.910 -1.8393 -0.6389 -1.2718
 1024MOL0     H38180   0.952   6.283   9.950 -1.7833 -0.2853  1.3257
 1024MOL0     H38181   0.937   6.387  10.191  0.0059  2.9652 -0.1833
 1024MOL0     H38182   1.077   6.285  10.137 -0.1521  0.2126 -0.4146
 1024MOL0     H38183   1.186   6.505  10.080  1.7880 -4.8765  0.6346
 1024MOL0     H38184   1.053   6.577  10.170 -0.1867  0.0307 -2.3657
 1024MOL0     H38185   1.132   6.420  10.384 -1.6581  0.8425  0.5536
 1024MOL0     H38186   1.266   6.374  10.280 -1.6051  0.0489  0.0144
 1024MOL0     H38187   1.292   6.598  10.442  0.8239 -0.9685  1.2345
 1024MOL0     H38188   1.228   6.654  10.288  0.2624 -0.0441  0.1946
 1024MOL0     H38189   1.457   6.459  10.317 -2.0637 -1.3480  0.2023
 1024MOL0     H38190   1.415   6.555  10.175 -0.5845  3.7719  0.2529
 1024MOL0     H38191   1.707   6.580  10.338 -1.6110 -0.4251 -1.6337
 1024MOL0     H38192   1.825   6.942  10.400 -0.6159  0.0279 -1.2717
 1024MOL0     H38193   1.883   6.773  10.411 -0.5839 -0.3514  0.2039
 1024MOL0     H38194   1.891   6.779  10.153  1.6511 -0.3267  0.8011
 1024MOL0     H38195   1.843   6.952  10.174 -0.2516  1.3780  2.3003
 1024MOL0     H38196   2.082   6.832  10.298 -1.3979 -0.9172 -0.4220
 1024MOL0     H38197   2.062   7.007  10.278  3.0818 -1.4492  1.0889
 1024MOL0     H38198   2.227   6.976  10.127 -0.1874 -0.1149  0.0219
 1024MOL0     H38199   2.081   6.966  10.030 -1.6791 -2.2883 -0.0828
 1024MOL0     H38200   2.288   6.883   9.866  0.0516  1.7098  1.2259
 1024MOL0     H38201   2.531   6.849   9.806 -0.8381 -0.8493 -0.0273
 1024MOL0     H38202   2.965   6.906   9.987 -2.4608  0.8480 -1.0746
 1024MOL0     H38203   3.206   6.910   9.936  0.2451  2.1472 -1.9699
 1024MOL0     H38204   3.353   6.878   9.559 -1.8591 -2.1740  1.1882
 1024MOL0     H38205   3.341   6.989   9.707 -0.3663 -1.5243  3.2895
 1024MOL0     H38206   3.552   6.898   9.782  0.8147  0.8861 -0.4367
 1024MOL0     H38207   3.571   6.809   9.628 -0.2128 -1.2948  2.8810
 1024MOL0     H38208   3.614   6.977   9.498 -1.2269 -0.5753  0.3254
 1024MOL0     H38209   3.521   7.096   9.587  0.3721  1.1962 -0.5866
 1024MOL0     H38210   3.796   6.979   9.657  0.2226  0.4034  0.9108
 1024MOL0     H38211   3.703   7.094   9.766  0.1814  0.6249 -0.5542
 1024MOL0     H38212   3.714   7.272   9.618  0.4602  0.6663 -2.5449
 1024MOL0     H38213   3.763   7.181   9.494  1.3948 -4.5085  0.0586
 1024MOL0     H38214   3.939   7.323   9.608  0.6585  1.8088  1.6841
 1024MOL0     H38215   3.920   7.229   9.755 -1.5687  3.6454 -0.1289
 1024MOL0     H38216   4.022   7.116   9.486 -1.4103 -0.5494  0.5204
 1024MOL0     H38217   4.008   7.025   9.639  1.6788  0.0875  1.3404
 1024MOL0     H38218   4.203   7.249   9.576 -2.6102  0.1052 -1.2326
 1024MOL0     H38219   4.184   7.170   9.740 -1.9127  0.3264  0.1739
 1024MOL0     H38220   3.150   6.682   9.600 -1.2873  0.2472 -1.0822
 1024MOL0     H38221   2.902   6.704   9.613 -1.9522  2.4316 -0.0496
 1024MOL0     H38222   2.584   6.634  10.177 -1.8224 -1.8743  0.1785
 1024MOL0     H38223   2.340   6.657  10.222 -0.5995 -2.2505 -1.2704
 1024MOL0     H38224   0.698   6.520   9.596  1.1972 -0.9048 -0.1512
 1024MOL0     H38225   0.567   6.475   9.375  2.6906  0.8468  1.4748
 1024MOL0     H38226   0.245   6.265   9.227 -0.5575  0.3605  1.1103
 1024MOL0     H38227   0.081   6.219   9.079 -0.6131  0.5920 -1.5066
 1024MOL0     H38228  -0.056   6.168   8.914 -0.7614 -2.9130  2.3566
 1024MOL0     H38229   0.008   6.014   8.913  0.2401  0.5306 -0.6710
 1024MOL0     H38230  -0.043   6.058   8.642 -1.6032 -1.3621 -0.0398
 1024MOL0     H38231  -0.181   6.125   8.712  1.3695  2.1783 -1.2750
 1024MOL0     H38232  -0.200   5.902   8.842  1.1469 -1.6388 -0.1246
 1024MOL0     H38233  -0.053   5.851   8.759  0.0947  0.1368  3.1854
 1024MOL0     H38234  -0.247   5.961   8.569  1.6035 -0.2319 -2.8617
 1024MOL0     H38235  -0.148   5.823   8.551 -2.7849 -0.7536 -0.4591
 1024MOL0     H38236  -0.494   5.614   8.610 -1.3172  0.6924  1.6455
 1024MOL0     H38237   0.361   6.145   8.760 -0.2360  0.1230  0.8011
 1024MOL0     H38238   0.599   6.274   8.857 -1.8441 -1.0640 -2.7871
 1024MOL0     H38239   0.646   6.165   8.993  0.0040  0.7831 -0.0796
 1024MOL0     H38240   0.594   6.095   8.839  2.6825 -1.2184  0.1700
  11.31900  11.31900  11.31900
